<event>
 5    1  0.1141915E-008  0.3798213E+03  0.7957747E-01  0.3451937E+00
         13   -1    0    0    0    0  0.00000000000E+00  0.00000000000E+00  0.14999999963E+04  0.15000000000E+04  0.10566000000E+00 0. -1.
        994   -1    0    0    0    0 -0.00000000000E+00 -0.00000000000E+00  0.11368683772E-12  0.17120000000E+03  0.17120000000E+03 0.  0.
         13    1    1    2    0    0  0.11259912539E+02 -0.65408391229E+02  0.37055015789E+03  0.37644717285E+03  0.10566000000E+00 0. -1.
        994    1    1    2    0    0 -0.12021325669E+02  0.70730222182E+02  0.21637195992E+02  0.18688200783E+03  0.17120000000E+03 0.  0.
        998    1    1    2    0    0  0.76141313030E+00 -0.53218309527E+01  0.11078126424E+04  0.11078708193E+04  0.10000000000E+02 0. -1.
</event>
<event>
 5    1  0.1141915E-008  0.3831999E+03  0.7957747E-01  0.3437343E+00
         13   -1    0    0    0    0  0.00000000000E+00  0.00000000000E+00  0.14999999963E+04  0.15000000000E+04  0.10566000000E+00 0.  1.
        994   -1    0    0    0    0 -0.00000000000E+00 -0.00000000000E+00  0.11368683772E-12  0.17120000000E+03  0.17120000000E+03 0.  0.
         13    1    1    2    0    0 -0.89804293348E+01 -0.63534691555E+01  0.24104802192E+02  0.26496553249E+02  0.10566000000E+00 0.  1.
        994    1    1    2    0    0  0.25327704637E+01 -0.13082203310E+02  0.31140647537E+01  0.17174602286E+03  0.17120000000E+03 0.  0.
        998    1    1    2    0    0  0.64476588711E+01  0.19435672465E+02  0.14727811293E+04  0.14729574239E+04  0.10000000000E+02 0.  1.
</event>
<event>
 5    1  0.1141915E-008  0.3849948E+03  0.7957747E-01  0.3429694E+00
         13   -1    0    0    0    0  0.00000000000E+00  0.00000000000E+00  0.14999999963E+04  0.15000000000E+04  0.10566000000E+00 0.  1.
        994   -1    0    0    0    0 -0.00000000000E+00 -0.00000000000E+00  0.11368683772E-12  0.17120000000E+03  0.17120000000E+03 0.  0.
         13    1    1    2    0    0  0.10829463444E+02 -0.10135684792E+02  0.68825582946E+02  0.70405833683E+02  0.10566000000E+00 0.  1.
        994    1    1    2    0    0  0.26828983140E+01  0.12653168389E+02  0.21831321000E+01  0.17170179580E+03  0.17120000000E+03 0.  0.
        998    1    1    2    0    0 -0.13512361758E+02 -0.25174835969E+01  0.14289912812E+04  0.14290923705E+04  0.10000000000E+02 0.  1.
</event>
<event>
 5    1  0.1141915E-008  0.3855271E+03  0.7957747E-01  0.3427440E+00
         13   -1    0    0    0    0  0.00000000000E+00  0.00000000000E+00  0.14999999963E+04  0.15000000000E+04  0.10566000000E+00 0.  1.
        994   -1    0    0    0    0 -0.00000000000E+00 -0.00000000000E+00  0.11368683772E-12  0.17120000000E+03  0.17120000000E+03 0.  0.
         13    1    1    2    0    0 -0.15112449388E+02  0.30730124250E+01  0.88108256845E+02  0.89447781527E+02  0.10566000000E+00 0.  1.
        994    1    1    2    0    0  0.84592514797E+01 -0.31808467862E+01  0.16368626558E+01  0.17144618993E+03  0.17120000000E+03 0.  0.
        998    1    1    2    0    0  0.66531979079E+01  0.10783436120E+00  0.14102548768E+04  0.14103060285E+04  0.10000000000E+02 0.  1.
</event>
<event>
 5    1  0.1141915E-008  0.3775426E+03  0.7957747E-01  0.3461929E+00
         13   -1    0    0    0    0  0.00000000000E+00  0.00000000000E+00  0.14999999963E+04  0.15000000000E+04  0.10566000000E+00 0.  1.
        994   -1    0    0    0    0 -0.00000000000E+00 -0.00000000000E+00  0.11368683772E-12  0.17120000000E+03  0.17120000000E+03 0.  0.
         13    1    1    2    0    0 -0.48013129171E+02  0.89815629844E+01  0.20885449872E+03  0.21449042367E+03  0.10566000000E+00 0.  1.
        994    1    1    2    0    0  0.35875450394E+02 -0.34908452350E+01  0.97701253517E+01  0.17522593784E+03  0.17120000000E+03 0.  0.
        998    1    1    2    0    0  0.12137678777E+02 -0.54907177493E+01  0.12813753722E+04  0.12814836385E+04  0.10000000000E+02 0.  1.
</event>
<event>
 5    1  0.1141915E-008  0.3765206E+03  0.7957747E-01  0.3466450E+00
         13   -1    0    0    0    0  0.00000000000E+00  0.00000000000E+00  0.14999999963E+04  0.15000000000E+04  0.10566000000E+00 0. -1.
        994   -1    0    0    0    0 -0.00000000000E+00 -0.00000000000E+00  0.11368683772E-12  0.17120000000E+03  0.17120000000E+03 0.  0.
         13    1    1    2    0    0  0.27139914767E+02  0.56101278614E+00  0.62849848800E+02  0.68461700001E+02  0.10566000000E+00 0. -1.
        994    1    1    2    0    0 -0.55712899229E+01 -0.95064547987E+00  0.60079487223E+01  0.17139859523E+03  0.17120000000E+03 0.  0.
        998    1    1    2    0    0 -0.21568624844E+02  0.38963269373E+00  0.14311421988E+04  0.14313397048E+04  0.10000000000E+02 0. -1.
</event>
<event>
 5    1  0.1141915E-008  0.3785482E+03  0.7957747E-01  0.3457504E+00
         13   -1    0    0    0    0  0.00000000000E+00  0.00000000000E+00  0.14999999963E+04  0.15000000000E+04  0.10566000000E+00 0.  1.
        994   -1    0    0    0    0 -0.00000000000E+00 -0.00000000000E+00  0.11368683772E-12  0.17120000000E+03  0.17120000000E+03 0.  0.
         13    1    1    2    0    0  0.13832760451E+02  0.33114060845E+02  0.14658062316E+03  0.15090982916E+03  0.10566000000E+00 0.  1.
        994    1    1    2    0    0 -0.51501778879E+01  0.28499303145E+00  0.49571743623E+01  0.17134940657E+03  0.17120000000E+03 0.  0.
        998    1    1    2    0    0 -0.86825825629E+01 -0.33399053876E+02  0.13484621988E+04  0.13489407643E+04  0.10000000000E+02 0.  1.
</event>
<event>
 5    1  0.1141915E-008  0.3775749E+03  0.7957747E-01  0.3461786E+00
         13   -1    0    0    0    0  0.00000000000E+00  0.00000000000E+00  0.14999999963E+04  0.15000000000E+04  0.10566000000E+00 0. -1.
        994   -1    0    0    0    0 -0.00000000000E+00 -0.00000000000E+00  0.11368683772E-12  0.17120000000E+03  0.17120000000E+03 0.  0.
         13    1    1    2    0    0 -0.12958690683E+02  0.12033863408E+02  0.26724546749E+02  0.32046124504E+02  0.10566000000E+00 0. -1.
        994    1    1    2    0    0  0.65917891222E+01 -0.15159308268E+02  0.62837606920E+01  0.17211095828E+03  0.17120000000E+03 0.  0.
        998    1    1    2    0    0  0.63669015607E+01  0.31254448600E+01  0.14669916888E+04  0.14670429172E+04  0.10000000000E+02 0. -1.
</event>
<event>
 5    1  0.1141915E-008  0.3757069E+03  0.7957747E-01  0.3470067E+00
         13   -1    0    0    0    0  0.00000000000E+00  0.00000000000E+00  0.14999999963E+04  0.15000000000E+04  0.10566000000E+00 0.  1.
        994   -1    0    0    0    0 -0.00000000000E+00 -0.00000000000E+00  0.11368683772E-12  0.17120000000E+03  0.17120000000E+03 0.  0.
         13    1    1    2    0    0 -0.23395349999E+01 -0.14213034095E+02  0.13769627391E+02  0.19927307011E+02  0.10566000000E+00 0.  1.
        994    1    1    2    0    0 -0.10639196147E+02  0.80169810910E+01  0.69182003741E+01  0.17185681824E+03  0.17120000000E+03 0.  0.
        998    1    1    2    0    0  0.12978731147E+02  0.61960530036E+01  0.14793121685E+04  0.14794158747E+04  0.10000000000E+02 0.  1.
</event>
<event>
 5    1  0.1141915E-008  0.4233502E+03  0.7957747E-01  0.3281707E+00
         13   -1    0    0    0    0  0.00000000000E+00  0.00000000000E+00  0.14999999963E+04  0.15000000000E+04  0.10566000000E+00 0. -1.
        994   -1    0    0    0    0 -0.00000000000E+00 -0.00000000000E+00  0.11368683772E-12  0.17120000000E+03  0.17120000000E+03 0.  0.
         13    1    1    2    0    0  0.28614320502E+02  0.15476473175E+02 -0.51187774963E+01  0.32931954191E+02  0.10566000000E+00 0. -1.
        994    1    1    2    0    0 -0.30448410105E+02 -0.29635151765E+02  0.50411036436E+02  0.18345588160E+03  0.17120000000E+03 0.  0.
        998    1    1    2    0    0  0.18340896024E+01  0.14158678590E+02  0.14547077373E+04  0.14548121642E+04  0.10000000000E+02 0. -1.
</event>
<event>
 5    1  0.1141915E-008  0.3729132E+03  0.7957747E-01  0.3482608E+00
         13   -1    0    0    0    0  0.00000000000E+00  0.00000000000E+00  0.14999999963E+04  0.15000000000E+04  0.10566000000E+00 0. -1.
        994   -1    0    0    0    0 -0.00000000000E+00 -0.00000000000E+00  0.11368683772E-12  0.17120000000E+03  0.17120000000E+03 0.  0.
         13    1    1    2    0    0 -0.36588947698E+02 -0.23510394881E+02  0.11971341188E+03  0.12736876348E+03  0.10566000000E+00 0. -1.
        994    1    1    2    0    0  0.24247683713E+02  0.96247221565E+01  0.10087606316E+02  0.17346983958E+03  0.17120000000E+03 0.  0.
        998    1    1    2    0    0  0.12341263985E+02  0.13885672725E+02  0.13701989781E+04  0.13703613969E+04  0.10000000000E+02 0. -1.
</event>
<event>
 5    1  0.1141915E-008  0.3753444E+03  0.7957747E-01  0.3471684E+00
         13   -1    0    0    0    0  0.00000000000E+00  0.00000000000E+00  0.14999999963E+04  0.15000000000E+04  0.10566000000E+00 0. -1.
        994   -1    0    0    0    0 -0.00000000000E+00 -0.00000000000E+00  0.11368683772E-12  0.17120000000E+03  0.17120000000E+03 0.  0.
         13    1    1    2    0    0  0.41634062714E+02  0.24206315463E+02  0.16991317326E+03  0.17660645089E+03  0.10566000000E+00 0. -1.
        994    1    1    2    0    0 -0.23926372798E+02 -0.28221924590E+02  0.11164061894E+02  0.17550790472E+03  0.17120000000E+03 0.  0.
        998    1    1    2    0    0 -0.17707689916E+02  0.40156091267E+01  0.13189227611E+04  0.13190856444E+04  0.10000000000E+02 0. -1.
</event>
<event>
 5    1  0.1141915E-008  0.3734170E+03  0.7957747E-01  0.3480333E+00
         13   -1    0    0    0    0  0.00000000000E+00  0.00000000000E+00  0.14999999963E+04  0.15000000000E+04  0.10566000000E+00 0.  1.
        994   -1    0    0    0    0 -0.00000000000E+00 -0.00000000000E+00  0.11368683772E-12  0.17120000000E+03  0.17120000000E+03 0.  0.
         13    1    1    2    0    0  0.90972641881E+02 -0.70620803269E+02  0.57087993895E+03  0.58238066184E+03  0.10566000000E+00 0.  1.
        994    1    1    2    0    0 -0.78206161386E+02  0.77094746205E+02  0.49900133022E+02  0.20942604147E+03  0.17120000000E+03 0.  0.
        998    1    1    2    0    0 -0.12766480495E+02 -0.64739429361E+01  0.87921992431E+03  0.87939329669E+03  0.10000000000E+02 0. -1.
</event>
<event>
 5    1  0.1141915E-008  0.3827223E+03  0.7957747E-01  0.3439390E+00
         13   -1    0    0    0    0  0.00000000000E+00  0.00000000000E+00  0.14999999963E+04  0.15000000000E+04  0.10566000000E+00 0.  1.
        994   -1    0    0    0    0 -0.00000000000E+00 -0.00000000000E+00  0.11368683772E-12  0.17120000000E+03  0.17120000000E+03 0.  0.
         13    1    1    2    0    0  0.17085124632E+02  0.55900777449E+01  0.56832717002E+02  0.59608047600E+02  0.10566000000E+00 0.  1.
        994    1    1    2    0    0 -0.13736036163E+02 -0.46447233536E+01  0.34620960265E+01  0.17184783459E+03  0.17120000000E+03 0.  0.
        998    1    1    2    0    0 -0.33490884697E+01 -0.94535439128E+00  0.14397051833E+04  0.14397441178E+04  0.10000000000E+02 0.  1.
</event>
<event>
 5    1  0.1141915E-008  0.3824576E+03  0.7957747E-01  0.3440527E+00
         13   -1    0    0    0    0  0.00000000000E+00  0.00000000000E+00  0.14999999963E+04  0.15000000000E+04  0.10566000000E+00 0.  1.
        994   -1    0    0    0    0 -0.00000000000E+00 -0.00000000000E+00  0.11368683772E-12  0.17120000000E+03  0.17120000000E+03 0.  0.
         13    1    1    2    0    0 -0.16208830798E+02  0.16205958762E+02  0.91152180402E+02  0.93989842277E+02  0.10566000000E+00 0.  1.
        994    1    1    2    0    0  0.44305336939E+01 -0.12009476217E+02  0.34412259734E+01  0.17171237342E+03  0.17120000000E+03 0.  0.
        998    1    1    2    0    0  0.11778297104E+02 -0.41964825456E+01  0.14054065899E+04  0.14054977843E+04  0.10000000000E+02 0.  1.
</event>
<event>
 5    1  0.1141915E-008  0.3754432E+03  0.7957747E-01  0.3471243E+00
         13   -1    0    0    0    0  0.00000000000E+00  0.00000000000E+00  0.14999999963E+04  0.15000000000E+04  0.10566000000E+00 0. -1.
        994   -1    0    0    0    0 -0.00000000000E+00 -0.00000000000E+00  0.11368683772E-12  0.17120000000E+03  0.17120000000E+03 0.  0.
         13    1    1    2    0    0  0.85198939203E+02  0.10283516338E+01  0.33053726353E+03  0.34134265848E+03  0.10566000000E+00 0. -1.
        994    1    1    2    0    0 -0.95569103369E+01 -0.27399643793E+01  0.14198801616E+02  0.17207523909E+03  0.17120000000E+03 0.  0.
        998    1    1    2    0    0 -0.75642028866E+02  0.17116127455E+01  0.11552639311E+04  0.11577821024E+04  0.10000000000E+02 0. -1.
</event>
<event>
 5    1  0.1141915E-008  0.3762738E+03  0.7957747E-01  0.3467546E+00
         13   -1    0    0    0    0  0.00000000000E+00  0.00000000000E+00  0.14999999963E+04  0.15000000000E+04  0.10566000000E+00 0.  1.
        994   -1    0    0    0    0 -0.00000000000E+00 -0.00000000000E+00  0.11368683772E-12  0.17120000000E+03  0.17120000000E+03 0.  0.
         13    1    1    2    0    0  0.18229312947E+02  0.54246572768E+02  0.11279676791E+03  0.12648367690E+03  0.10566000000E+00 0.  1.
        994    1    1    2    0    0 -0.81406129173E+02 -0.31045914529E+01  0.38418591646E+02  0.19344773077E+03  0.17120000000E+03 0.  0.
        998    1    1    2    0    0  0.63176816226E+02 -0.51141981315E+02  0.13487846367E+04  0.13512685923E+04  0.10000000000E+02 0.  1.
</event>
<event>
 5    1  0.1141915E-008  0.3858311E+03  0.7957747E-01  0.3426155E+00
         13   -1    0    0    0    0  0.00000000000E+00  0.00000000000E+00  0.14999999963E+04  0.15000000000E+04  0.10566000000E+00 0.  1.
        994   -1    0    0    0    0 -0.00000000000E+00 -0.00000000000E+00  0.11368683772E-12  0.17120000000E+03  0.17120000000E+03 0.  0.
         13    1    1    2    0    0 -0.15125495473E+02  0.37611189858E+00  0.82372876292E+02  0.83750964090E+02  0.10566000000E+00 0.  1.
        994    1    1    2    0    0  0.29766835903E+02  0.29659270759E+02  0.70308998944E+01  0.17642168352E+03  0.17120000000E+03 0.  0.
        998    1    1    2    0    0 -0.14641340430E+02 -0.30035382657E+02  0.14105962201E+04  0.14110273524E+04  0.10000000000E+02 0.  1.
</event>
<event>
 5    1  0.1141915E-008  0.3848307E+03  0.7957747E-01  0.3430390E+00
         13   -1    0    0    0    0  0.00000000000E+00  0.00000000000E+00  0.14999999963E+04  0.15000000000E+04  0.10566000000E+00 0. -1.
        994   -1    0    0    0    0 -0.00000000000E+00 -0.00000000000E+00  0.11368683772E-12  0.17120000000E+03  0.17120000000E+03 0.  0.
         13    1    1    2    0    0  0.61973564352E+01 -0.15668012443E+02  0.83309377226E+02  0.84996219554E+02  0.10566000000E+00 0. -1.
        994    1    1    2    0    0 -0.31692561602E+01  0.94476939339E+01  0.20410194329E+01  0.17150192088E+03  0.17120000000E+03 0.  0.
        998    1    1    2    0    0 -0.30281002750E+01  0.62203185096E+01  0.14146495996E+04  0.14147018596E+04  0.10000000000E+02 0. -1.
</event>
<event>
 5    1  0.1141915E-008  0.3853890E+03  0.7957747E-01  0.3428024E+00
         13   -1    0    0    0    0  0.00000000000E+00  0.00000000000E+00  0.14999999963E+04  0.15000000000E+04  0.10566000000E+00 0.  1.
        994   -1    0    0    0    0 -0.00000000000E+00 -0.00000000000E+00  0.11368683772E-12  0.17120000000E+03  0.17120000000E+03 0.  0.
         13    1    1    2    0    0  0.31097483904E+01 -0.17822905874E+02  0.10642801936E+03  0.10795490251E+03  0.10566000000E+00 0.  1.
        994    1    1    2    0    0 -0.22669335737E+01  0.19768164046E+02  0.27386285247E+01  0.17237418421E+03  0.17120000000E+03 0.  0.
        998    1    1    2    0    0 -0.84281481666E+00 -0.19452581718E+01  0.13908333484E+04  0.13908709133E+04  0.10000000000E+02 0.  0.
</event>
<event>
 5    1  0.1141915E-008  0.3862109E+03  0.7957747E-01  0.3424553E+00
         13   -1    0    0    0    0  0.00000000000E+00  0.00000000000E+00  0.14999999963E+04  0.15000000000E+04  0.10566000000E+00 0.  1.
        994   -1    0    0    0    0 -0.00000000000E+00 -0.00000000000E+00  0.11368683772E-12  0.17120000000E+03  0.17120000000E+03 0.  0.
         13    1    1    2    0    0  0.69465259058E+01  0.75552038708E+01  0.59582269160E+02  0.60459848577E+02  0.10566000000E+00 0.  1.
        994    1    1    2    0    0  0.22695949488E+02 -0.72892302180E+01  0.28937948016E+01  0.17287583130E+03  0.17120000000E+03 0.  0.
        998    1    1    2    0    0 -0.29642475394E+02 -0.26597365281E+00  0.14375239323E+04  0.14378643201E+04  0.10000000000E+02 0.  1.
</event>
<event>
 5    1  0.1141915E-008  0.3836730E+03  0.7957747E-01  0.3435320E+00
         13   -1    0    0    0    0  0.00000000000E+00  0.00000000000E+00  0.14999999963E+04  0.15000000000E+04  0.10566000000E+00 0. -1.
        994   -1    0    0    0    0 -0.00000000000E+00 -0.00000000000E+00  0.11368683772E-12  0.17120000000E+03  0.17120000000E+03 0.  0.
         13    1    1    2    0    0 -0.13545404619E+01  0.11882677529E+02  0.30531085588E+02  0.32790107599E+02  0.10566000000E+00 0. -1.
        994    1    1    2    0    0  0.42200813575E+01 -0.77839051301E+01  0.25493973759E+01  0.17144776958E+03  0.17120000000E+03 0.  0.
        998    1    1    2    0    0 -0.28655408956E+01 -0.40987723984E+01  0.14669195133E+04  0.14669621228E+04  0.10000000000E+02 0. -1.
</event>
<event>
 5    1  0.1141915E-008  0.3742360E+03  0.7957747E-01  0.3476647E+00
         13   -1    0    0    0    0  0.00000000000E+00  0.00000000000E+00  0.14999999963E+04  0.15000000000E+04  0.10566000000E+00 0.  1.
        994   -1    0    0    0    0 -0.00000000000E+00 -0.00000000000E+00  0.11368683772E-12  0.17120000000E+03  0.17120000000E+03 0.  0.
         13    1    1    2    0    0 -0.87365208062E+02  0.20434363774E+02  0.28766770512E+03  0.30133529919E+03  0.10566000000E+00 0.  1.
        994    1    1    2    0    0  0.58529743830E+02 -0.17905047515E+02  0.26612861178E+02  0.18374984631E+03  0.17120000000E+03 0.  0.
        998    1    1    2    0    0  0.28835464232E+02 -0.25293162591E+01  0.11857194300E+04  0.11861148545E+04  0.10000000000E+02 0.  1.
</event>
<event>
 5    1  0.1141915E-008  0.3815776E+03  0.7957747E-01  0.3444318E+00
         13   -1    0    0    0    0  0.00000000000E+00  0.00000000000E+00  0.14999999963E+04  0.15000000000E+04  0.10566000000E+00 0. -1.
        994   -1    0    0    0    0 -0.00000000000E+00 -0.00000000000E+00  0.11368683772E-12  0.17120000000E+03  0.17120000000E+03 0.  0.
         13    1    1    2    0    0 -0.17053879782E+02  0.18861396604E+02  0.93043841903E+02  0.96455973261E+02  0.10566000000E+00 0. -1.
        994    1    1    2    0    0  0.28919234241E+02 -0.24762339927E+01  0.61456156696E+01  0.17375172643E+03  0.17120000000E+03 0.  0.
        998    1    1    2    0    0 -0.11865354460E+02 -0.16385162611E+02  0.14008105387E+04  0.14009923003E+04  0.10000000000E+02 0. -1.
</event>
<event>
 5    1  0.1141915E-008  0.3702421E+03  0.7957747E-01  0.3494779E+00
         13   -1    0    0    0    0  0.00000000000E+00  0.00000000000E+00  0.14999999963E+04  0.15000000000E+04  0.10566000000E+00 0.  1.
        994   -1    0    0    0    0 -0.00000000000E+00 -0.00000000000E+00  0.11368683772E-12  0.17120000000E+03  0.17120000000E+03 0.  0.
         13    1    1    2    0    0 -0.10681474348E+02 -0.10252744200E+02  0.47430521191E+01  0.15547358789E+02  0.10566000000E+00 0.  1.
        994    1    1    2    0    0  0.71498349712E+01  0.20360899113E+02  0.12697976702E+02  0.17302128472E+03  0.17120000000E+03 0.  0.
        998    1    1    2    0    0  0.35316393764E+01 -0.10108154914E+02  0.14825589675E+04  0.14826313565E+04  0.10000000000E+02 0.  1.
</event>
<event>
 5    1  0.1141915E-008  0.3823943E+03  0.7957747E-01  0.3440799E+00
         13   -1    0    0    0    0  0.00000000000E+00  0.00000000000E+00  0.14999999963E+04  0.15000000000E+04  0.10566000000E+00 0. -1.
        994   -1    0    0    0    0 -0.00000000000E+00 -0.00000000000E+00  0.11368683772E-12  0.17120000000E+03  0.17120000000E+03 0.  0.
         13    1    1    2    0    0  0.29500505835E+02 -0.12966784732E+01  0.17447732401E+03  0.17695849507E+03  0.10566000000E+00 0. -1.
        994    1    1    2    0    0  0.27547744135E+01  0.10600844100E+02  0.33273533929E+01  0.17158227752E+03  0.17120000000E+03 0.  0.
        998    1    1    2    0    0 -0.32255280248E+02 -0.93041656270E+01  0.13221953189E+04  0.13226592274E+04  0.10000000000E+02 0. -1.
</event>
<event>
 5    1  0.1141915E-008  0.3837786E+03  0.7957747E-01  0.3434869E+00
         13   -1    0    0    0    0  0.00000000000E+00  0.00000000000E+00  0.14999999963E+04  0.15000000000E+04  0.10566000000E+00 0. -1.
        994   -1    0    0    0    0 -0.00000000000E+00 -0.00000000000E+00  0.11368683772E-12  0.17120000000E+03  0.17120000000E+03 0.  0.
         13    1    1    2    0    0 -0.17553957854E+02  0.31688904929E+01  0.69557162692E+02  0.71808031230E+02  0.10566000000E+00 0. -1.
        994    1    1    2    0    0  0.14211843747E+02 -0.83173823305E+00  0.29071977375E+01  0.17181548268E+03  0.17120000000E+03 0.  0.
        998    1    1    2    0    0  0.33421141077E+01 -0.23371522599E+01  0.14275356358E+04  0.14275764861E+04  0.10000000000E+02 0. -1.
</event>
<event>
 5    1  0.1141915E-008  0.3788390E+03  0.7957747E-01  0.3456229E+00
         13   -1    0    0    0    0  0.00000000000E+00  0.00000000000E+00  0.14999999963E+04  0.15000000000E+04  0.10566000000E+00 0. -1.
        994   -1    0    0    0    0 -0.00000000000E+00 -0.00000000000E+00  0.11368683772E-12  0.17120000000E+03  0.17120000000E+03 0.  0.
         13    1    1    2    0    0  0.64880277075E+01  0.23921146861E+02  0.60745919754E+02  0.65607878349E+02  0.10566000000E+00 0. -1.
        994    1    1    2    0    0 -0.49848593687E+01 -0.26155616277E+02  0.71031467732E+01  0.17340374788E+03  0.17120000000E+03 0.  0.
        998    1    1    2    0    0 -0.15031683389E+01  0.22344694162E+01  0.14321509298E+04  0.14321883738E+04  0.10000000000E+02 0. -1.
</event>
<event>
 5    1  0.1141915E-008  0.3852993E+03  0.7957747E-01  0.3428404E+00
         13   -1    0    0    0    0  0.00000000000E+00  0.00000000000E+00  0.14999999963E+04  0.15000000000E+04  0.10566000000E+00 0. -1.
        994   -1    0    0    0    0 -0.00000000000E+00 -0.00000000000E+00  0.11368683772E-12  0.17120000000E+03  0.17120000000E+03 0.  0.
         13    1    1    2    0    0 -0.60861033230E+00  0.15733794754E+02  0.81961795022E+02  0.83460587771E+02  0.10566000000E+00 0. -1.
        994    1    1    2    0    0  0.24326903481E+00 -0.13437699818E+02  0.20752815693E+01  0.17173927259E+03  0.17120000000E+03 0.  0.
        998    1    1    2    0    0  0.36534129748E+00 -0.22960949359E+01  0.14159629197E+04  0.14160001396E+04  0.10000000000E+02 0. -1.
</event>
<event>
 5    1  0.1141915E-008  0.3847262E+03  0.7957747E-01  0.3430834E+00
         13   -1    0    0    0    0  0.00000000000E+00  0.00000000000E+00  0.14999999963E+04  0.15000000000E+04  0.10566000000E+00 0.  1.
        994   -1    0    0    0    0 -0.00000000000E+00 -0.00000000000E+00  0.11368683772E-12  0.17120000000E+03  0.17120000000E+03 0.  0.
         13    1    1    2    0    0 -0.14210585116E+02  0.88364401826E+00  0.55434214853E+02  0.57233599367E+02  0.10566000000E+00 0.  1.
        994    1    1    2    0    0  0.15383183176E+02  0.32194919563E+01  0.25796078330E+01  0.17193923877E+03  0.17120000000E+03 0.  0.
        998    1    1    2    0    0 -0.11725980599E+01 -0.41031359746E+01  0.14419861736E+04  0.14420271619E+04  0.10000000000E+02 0.  1.
</event>
<event>
 5    1  0.1141915E-008  0.3736202E+03  0.7957747E-01  0.3479417E+00
         13   -1    0    0    0    0  0.00000000000E+00  0.00000000000E+00  0.14999999963E+04  0.15000000000E+04  0.10566000000E+00 0. -1.
        994   -1    0    0    0    0 -0.00000000000E+00 -0.00000000000E+00  0.11368683772E-12  0.17120000000E+03  0.17120000000E+03 0.  0.
         13    1    1    2    0    0  0.44389557610E+02 -0.14897955909E+03  0.71953502222E+03  0.73613585785E+03  0.10566000000E+00 0. -1.
        994    1    1    2    0    0 -0.88887295356E+02  0.14544283624E+03  0.11417844331E+03  0.26720914432E+03  0.17120000000E+03 0.  0.
        998    1    1    2    0    0  0.44497737746E+02  0.35367228420E+01  0.66628653075E+03  0.66785499783E+03  0.10000000000E+02 0. -1.
</event>
<event>
 5    1  0.1141915E-008  0.3796288E+03  0.7957747E-01  0.3452776E+00
         13   -1    0    0    0    0  0.00000000000E+00  0.00000000000E+00  0.14999999963E+04  0.15000000000E+04  0.10566000000E+00 0. -1.
        994   -1    0    0    0    0 -0.00000000000E+00 -0.00000000000E+00  0.11368683772E-12  0.17120000000E+03  0.17120000000E+03 0.  0.
         13    1    1    2    0    0 -0.43986820592E+01 -0.27426583729E+02  0.91604404785E+02  0.95723268013E+02  0.10566000000E+00 0. -1.
        994    1    1    2    0    0  0.59095400667E+01  0.74644710990E+01  0.46240716559E+01  0.17152685805E+03  0.17120000000E+03 0.  0.
        998    1    1    2    0    0 -0.15108580076E+01  0.19962112630E+02  0.14037715198E+04  0.14039498739E+04  0.10000000000E+02 0. -1.
</event>
<event>
 5    1  0.1141915E-008  0.3699385E+03  0.7957747E-01  0.3496174E+00
         13   -1    0    0    0    0  0.00000000000E+00  0.00000000000E+00  0.14999999963E+04  0.15000000000E+04  0.10566000000E+00 0. -1.
        994   -1    0    0    0    0 -0.00000000000E+00 -0.00000000000E+00  0.11368683772E-12  0.17120000000E+03  0.17120000000E+03 0.  0.
         13    1    1    2    0    0 -0.62776588620E+01  0.22817685020E+02  0.22817709321E+02  0.32874226579E+02  0.10566000000E+00 0. -1.
        994    1    1    2    0    0  0.11827299495E+02  0.21731845557E+02  0.13048847921E+02  0.17347008548E+03  0.17120000000E+03 0.  0.
        998    1    1    2    0    0 -0.55496406328E+01 -0.44549530577E+02  0.14641334390E+04  0.14648556879E+04  0.10000000000E+02 0. -1.
</event>
<event>
 5    1  0.1141915E-008  0.3723880E+03  0.7957747E-01  0.3484988E+00
         13   -1    0    0    0    0  0.00000000000E+00  0.00000000000E+00  0.14999999963E+04  0.15000000000E+04  0.10566000000E+00 0.  1.
        994   -1    0    0    0    0 -0.00000000000E+00 -0.00000000000E+00  0.11368683772E-12  0.17120000000E+03  0.17120000000E+03 0.  0.
         13    1    1    2    0    0 -0.51261243928E+02 -0.34636860799E+02  0.17142602737E+03  0.18224796646E+03  0.10566000000E+00 0.  1.
        994    1    1    2    0    0  0.95787488791E+02  0.36959058309E+02  0.45090398556E+02  0.20465531765E+03  0.17120000000E+03 0.  0.
        998    1    1    2    0    0 -0.44526244863E+02 -0.23221975101E+01  0.12834835704E+04  0.12842967159E+04  0.10000000000E+02 0.  1.
</event>
<event>
 5    1  0.1141915E-008  0.3707916E+03  0.7957747E-01  0.3492261E+00
         13   -1    0    0    0    0  0.00000000000E+00  0.00000000000E+00  0.14999999963E+04  0.15000000000E+04  0.10566000000E+00 0. -1.
        994   -1    0    0    0    0 -0.00000000000E+00 -0.00000000000E+00  0.11368683772E-12  0.17120000000E+03  0.17120000000E+03 0.  0.
         13    1    1    2    0    0  0.23759058717E+02  0.20553049754E+01  0.28469111685E+02  0.37137832918E+02  0.10566000000E+00 0. -1.
        994    1    1    2    0    0 -0.16647362722E+02  0.23916061167E+01  0.98318323717E+01  0.17230484437E+03  0.17120000000E+03 0.  0.
        998    1    1    2    0    0 -0.71116959945E+01 -0.44469110922E+01  0.14616990522E+04  0.14617573227E+04  0.10000000000E+02 0. -1.
</event>
<event>
 5    1  0.1141915E-008  0.3796207E+03  0.7957747E-01  0.3452812E+00
         13   -1    0    0    0    0  0.00000000000E+00  0.00000000000E+00  0.14999999963E+04  0.15000000000E+04  0.10566000000E+00 0.  1.
        994   -1    0    0    0    0 -0.00000000000E+00 -0.00000000000E+00  0.11368683772E-12  0.17120000000E+03  0.17120000000E+03 0.  0.
         13    1    1    2    0    0  0.69050754085E+01 -0.17707364482E+02  0.38926456919E+02  0.43318714612E+02  0.10566000000E+00 0.  1.
        994    1    1    2    0    0 -0.93713980034E+01  0.19419158869E+02  0.58824543383E+01  0.17265274426E+03  0.17120000000E+03 0.  0.
        998    1    1    2    0    0  0.24663225949E+01 -0.17117943865E+01  0.14551910850E+04  0.14552285411E+04  0.10000000000E+02 0.  1.
</event>
<event>
 5    1  0.1141915E-008  0.3835070E+03  0.7957747E-01  0.3436029E+00
         13   -1    0    0    0    0  0.00000000000E+00  0.00000000000E+00  0.14999999963E+04  0.15000000000E+04  0.10566000000E+00 0. -1.
        994   -1    0    0    0    0 -0.00000000000E+00 -0.00000000000E+00  0.11368683772E-12  0.17120000000E+03  0.17120000000E+03 0.  0.
         13    1    1    2    0    0 -0.13270658383E+02  0.20504108018E+01  0.36773074945E+02  0.39148240872E+02  0.10566000000E+00 0. -1.
        994    1    1    2    0    0  0.12599383187E+02 -0.34876504414E+00  0.28983636400E+01  0.17168781729E+03  0.17120000000E+03 0.  0.
        998    1    1    2    0    0  0.67127519590E+00 -0.17016457577E+01  0.14603285577E+04  0.14603639418E+04  0.10000000000E+02 0. -1.
</event>
<event>
 5    1  0.1141915E-008  0.3851113E+03  0.7957747E-01  0.3429200E+00
         13   -1    0    0    0    0  0.00000000000E+00  0.00000000000E+00  0.14999999963E+04  0.15000000000E+04  0.10566000000E+00 0. -1.
        994   -1    0    0    0    0 -0.00000000000E+00 -0.00000000000E+00  0.11368683772E-12  0.17120000000E+03  0.17120000000E+03 0.  0.
         13    1    1    2    0    0 -0.18456071998E+02 -0.45002180801E+01  0.11277711791E+03  0.11436593918E+03  0.10566000000E+00 0. -1.
        994    1    1    2    0    0  0.12984395280E+02  0.59806647062E+01  0.22470302177E+01  0.17181051195E+03  0.17120000000E+03 0.  0.
        998    1    1    2    0    0  0.54716767178E+01 -0.14804466261E+01  0.13849758482E+04  0.13850235489E+04  0.10000000000E+02 0. -1.
</event>
<event>
 5    1  0.1141915E-008  0.3855170E+03  0.7957747E-01  0.3427482E+00
         13   -1    0    0    0    0  0.00000000000E+00  0.00000000000E+00  0.14999999963E+04  0.15000000000E+04  0.10566000000E+00 0. -1.
        994   -1    0    0    0    0 -0.00000000000E+00 -0.00000000000E+00  0.11368683772E-12  0.17120000000E+03  0.17120000000E+03 0.  0.
         13    1    1    2    0    0  0.90046718207E+01  0.68536059740E+01  0.46389394596E+02  0.47749797114E+02  0.10566000000E+00 0. -1.
        994    1    1    2    0    0 -0.35374346154E+01 -0.10558129963E+02  0.17808310658E+01  0.17157097339E+03  0.17120000000E+03 0.  0.
        998    1    1    2    0    0 -0.54672372054E+01  0.37045239888E+01  0.14518297706E+04  0.14518792295E+04  0.10000000000E+02 0. -1.
</event>
<event>
 5    1  0.1141915E-008  0.3738811E+03  0.7957747E-01  0.3478242E+00
         13   -1    0    0    0    0  0.00000000000E+00  0.00000000000E+00  0.14999999963E+04  0.15000000000E+04  0.10566000000E+00 0.  1.
        994   -1    0    0    0    0 -0.00000000000E+00 -0.00000000000E+00  0.11368683772E-12  0.17120000000E+03  0.17120000000E+03 0.  0.
         13    1    1    2    0    0  0.14512366153E+02  0.43738780257E+01  0.12650882638E+02  0.19743241271E+02  0.10566000000E+00 0.  1.
        994    1    1    2    0    0 -0.88292717536E+01 -0.51254264538E+01  0.76101352771E+01  0.17167288719E+03  0.17120000000E+03 0.  0.
        998    1    1    2    0    0 -0.56830943997E+01  0.75154842806E+00  0.14797389784E+04  0.14797838715E+04  0.10000000000E+02 0.  1.
</event>
<event>
 5    1  0.1141915E-008  0.3857894E+03  0.7957747E-01  0.3426331E+00
         13   -1    0    0    0    0  0.00000000000E+00  0.00000000000E+00  0.14999999963E+04  0.15000000000E+04  0.10566000000E+00 0.  1.
        994   -1    0    0    0    0 -0.00000000000E+00 -0.00000000000E+00  0.11368683772E-12  0.17120000000E+03  0.17120000000E+03 0.  0.
         13    1    1    2    0    0 -0.12296026943E+02 -0.86115909183E+01  0.76644395349E+02  0.78100744422E+02  0.10566000000E+00 0.  1.
        994    1    1    2    0    0  0.21453990323E+02  0.28051662000E+02  0.53404686523E+01  0.17488604875E+03  0.17120000000E+03 0.  0.
        998    1    1    2    0    0 -0.91579633799E+01 -0.19440071082E+02  0.14180151323E+04  0.14182132068E+04  0.10000000000E+02 0.  1.
</event>
<event>
 5    1  0.1141915E-008  0.3815149E+03  0.7957747E-01  0.3444589E+00
         13   -1    0    0    0    0  0.00000000000E+00  0.00000000000E+00  0.14999999963E+04  0.15000000000E+04  0.10566000000E+00 0.  1.
        994   -1    0    0    0    0 -0.00000000000E+00 -0.00000000000E+00  0.11368683772E-12  0.17120000000E+03  0.17120000000E+03 0.  0.
         13    1    1    2    0    0  0.46137011691E+01 -0.14385676515E+02  0.32629498340E+02  0.35957325446E+02  0.10566000000E+00 0.  1.
        994    1    1    2    0    0 -0.65247161600E+01  0.83704395100E+01  0.37451182283E+01  0.17156952553E+03  0.17120000000E+03 0.  0.
        998    1    1    2    0    0  0.19110149909E+01  0.60152370048E+01  0.14636253797E+04  0.14636731490E+04  0.10000000000E+02 0.  1.
</event>
<event>
 5    1  0.1141915E-008  0.3852970E+03  0.7957747E-01  0.3428414E+00
         13   -1    0    0    0    0  0.00000000000E+00  0.00000000000E+00  0.14999999963E+04  0.15000000000E+04  0.10566000000E+00 0.  1.
        994   -1    0    0    0    0 -0.00000000000E+00 -0.00000000000E+00  0.11368683772E-12  0.17120000000E+03  0.17120000000E+03 0.  0.
         13    1    1    2    0    0  0.93057013415E+01  0.41631407386E+01  0.35051149738E+02  0.36503726936E+02  0.10566000000E+00 0.  1.
        994    1    1    2    0    0 -0.41464850838E+01 -0.69822029615E+01  0.16994663342E+01  0.17140091214E+03  0.17120000000E+03 0.  0.
        998    1    1    2    0    0 -0.51592162577E+01  0.28190622229E+01  0.14632493802E+04  0.14632953609E+04  0.10000000000E+02 0.  1.
</event>
<event>
 5    1  0.1141915E-008  0.3835971E+03  0.7957747E-01  0.3435644E+00
         13   -1    0    0    0    0  0.00000000000E+00  0.00000000000E+00  0.14999999963E+04  0.15000000000E+04  0.10566000000E+00 0. -1.
        994   -1    0    0    0    0 -0.00000000000E+00 -0.00000000000E+00  0.11368683772E-12  0.17120000000E+03  0.17120000000E+03 0.  0.
         13    1    1    2    0    0 -0.14553605290E+02  0.21818687749E+02  0.13922120869E+03  0.14167010509E+03  0.10566000000E+00 0. -1.
        994    1    1    2    0    0  0.41797821827E+01 -0.24931320979E+02  0.44422996501E+01  0.17311330212E+03  0.17120000000E+03 0.  0.
        998    1    1    2    0    0  0.10373823107E+02  0.31126332307E+01  0.13563364879E+04  0.13564165928E+04  0.10000000000E+02 0. -1.
</event>
<event>
 5    1  0.1141915E-008  0.3745098E+03  0.7957747E-01  0.3475418E+00
         13   -1    0    0    0    0  0.00000000000E+00  0.00000000000E+00  0.14999999963E+04  0.15000000000E+04  0.10566000000E+00 0. -1.
        994   -1    0    0    0    0 -0.00000000000E+00 -0.00000000000E+00  0.11368683772E-12  0.17120000000E+03  0.17120000000E+03 0.  0.
         13    1    1    2    0    0 -0.40495953684E+02 -0.11647151752E+03  0.50801489779E+03  0.52276637631E+03  0.10566000000E+00 0. -1.
        994    1    1    2    0    0  0.10128586998E+03  0.13077365848E+03  0.10666787398E+03  0.26086021649E+03  0.17120000000E+03 0.  0.
        998    1    1    2    0    0 -0.60789916295E+02 -0.14302140956E+02  0.88531722451E+03  0.88757340720E+03  0.10000000000E+02 0. -1.
</event>
<event>
 5    1  0.1141915E-008  0.3750473E+03  0.7957747E-01  0.3473011E+00
         13   -1    0    0    0    0  0.00000000000E+00  0.00000000000E+00  0.14999999963E+04  0.15000000000E+04  0.10566000000E+00 0.  1.
        994   -1    0    0    0    0 -0.00000000000E+00 -0.00000000000E+00  0.11368683772E-12  0.17120000000E+03  0.17120000000E+03 0.  0.
         13    1    1    2    0    0  0.35507765867E+01 -0.12580100846E+02  0.99249023887E+01  0.16412854813E+02  0.10566000000E+00 0.  1.
        994    1    1    2    0    0  0.49139461427E+00  0.64586188854E+01  0.67970660695E+01  0.17145726970E+03  0.17120000000E+03 0.  0.
        998    1    1    2    0    0 -0.40421712010E+01  0.61214819607E+01  0.14832780278E+04  0.14833298755E+04  0.10000000000E+02 0.  1.
</event>
<event>
 5    1  0.1141915E-008  0.3769928E+03  0.7957747E-01  0.3464358E+00
         13   -1    0    0    0    0  0.00000000000E+00  0.00000000000E+00  0.14999999963E+04  0.15000000000E+04  0.10566000000E+00 0. -1.
        994   -1    0    0    0    0 -0.00000000000E+00 -0.00000000000E+00  0.11368683772E-12  0.17120000000E+03  0.17120000000E+03 0.  0.
         13    1    1    2    0    0 -0.49406126451E+01 -0.17807939881E+02  0.27570517426E+02  0.33191519569E+02  0.10566000000E+00 0. -1.
        994    1    1    2    0    0  0.80214790834E+00  0.16635572464E+02  0.65960572562E+01  0.17213463825E+03  0.17120000000E+03 0.  0.
        998    1    1    2    0    0  0.41384647367E+01  0.11723674176E+01  0.14658334216E+04  0.14658738422E+04  0.10000000000E+02 0. -1.
</event>
<event>
 5    1  0.1141915E-008  0.3710853E+03  0.7957747E-01  0.3490918E+00
         13   -1    0    0    0    0  0.00000000000E+00  0.00000000000E+00  0.14999999963E+04  0.15000000000E+04  0.10566000000E+00 0. -1.
        994   -1    0    0    0    0 -0.00000000000E+00 -0.00000000000E+00  0.11368683772E-12  0.17120000000E+03  0.17120000000E+03 0.  0.
         13    1    1    2    0    0  0.67107295651E+02  0.66476530221E+02  0.38340512969E+03  0.39486962765E+03  0.10566000000E+00 0. -1.
        994    1    1    2    0    0 -0.60643225939E+02 -0.69276565519E+02  0.38496004574E+02  0.19816211987E+03  0.17120000000E+03 0.  0.
        998    1    1    2    0    0 -0.64640697115E+01  0.28000352977E+01  0.10780988620E+04  0.10781682525E+04  0.10000000000E+02 0.  0.
</event>
<event>
 5    1  0.1141915E-008  0.3785555E+03  0.7957747E-01  0.3457473E+00
         13   -1    0    0    0    0  0.00000000000E+00  0.00000000000E+00  0.14999999963E+04  0.15000000000E+04  0.10566000000E+00 0.  1.
        994   -1    0    0    0    0 -0.00000000000E+00 -0.00000000000E+00  0.11368683772E-12  0.17120000000E+03  0.17120000000E+03 0.  0.
         13    1    1    2    0    0 -0.42897186844E+02  0.11565024137E+02  0.17784488659E+03  0.18331048326E+03  0.10566000000E+00 0.  1.
        994    1    1    2    0    0  0.41123186217E+02 -0.21925645042E+02  0.12194147421E+02  0.17784821502E+03  0.17120000000E+03 0.  0.
        998    1    1    2    0    0  0.17740006272E+01  0.10360620905E+02  0.13099609623E+04  0.13100413017E+04  0.10000000000E+02 0.  1.
</event>
<event>
 5    1  0.1141915E-008  0.3817880E+03  0.7957747E-01  0.3443410E+00
         13   -1    0    0    0    0  0.00000000000E+00  0.00000000000E+00  0.14999999963E+04  0.15000000000E+04  0.10566000000E+00 0. -1.
        994   -1    0    0    0    0 -0.00000000000E+00 -0.00000000000E+00  0.11368683772E-12  0.17120000000E+03  0.17120000000E+03 0.  0.
         13    1    1    2    0    0  0.27066341050E+02  0.22475662807E+02  0.16851897050E+03  0.17215224895E+03  0.10566000000E+00 0. -1.
        994    1    1    2    0    0 -0.31122107024E+02 -0.20611269302E+02  0.78778659568E+01  0.17539928945E+03  0.17120000000E+03 0.  0.
        998    1    1    2    0    0  0.40557659734E+01 -0.18643935049E+01  0.13236031598E+04  0.13236484616E+04  0.10000000000E+02 0. -1.
</event>
<event>
 5    1  0.1141915E-008  0.3961845E+03  0.7957747E-01  0.3383579E+00
         13   -1    0    0    0    0  0.00000000000E+00  0.00000000000E+00  0.14999999963E+04  0.15000000000E+04  0.10566000000E+00 0.  1.
        994   -1    0    0    0    0 -0.00000000000E+00 -0.00000000000E+00  0.11368683772E-12  0.17120000000E+03  0.17120000000E+03 0.  0.
         13    1    1    2    0    0 -0.11296414622E+03 -0.37228491376E+02  0.26625388277E+03  0.29161275719E+03  0.10566000000E+00 0.  1.
        994    1    1    2    0    0  0.94674775579E+02 -0.34897136439E+02  0.65949546242E+02  0.20937981257E+03  0.17120000000E+03 0.  0.
        998    1    1    2    0    0  0.18289370644E+02  0.72125627815E+02  0.11677965673E+04  0.11702074302E+04  0.10000000000E+02 0.  1.
</event>
<event>
 5    1  0.1141915E-008  0.3858196E+03  0.7957747E-01  0.3426204E+00
         13   -1    0    0    0    0  0.00000000000E+00  0.00000000000E+00  0.14999999963E+04  0.15000000000E+04  0.10566000000E+00 0. -1.
        994   -1    0    0    0    0 -0.00000000000E+00 -0.00000000000E+00  0.11368683772E-12  0.17120000000E+03  0.17120000000E+03 0.  0.
         13    1    1    2    0    0  0.94307295904E+01 -0.10360179212E+02  0.77879988166E+02  0.79130118758E+02  0.10566000000E+00 0. -1.
        994    1    1    2    0    0 -0.79199977194E+01  0.11736912833E+02  0.18816278612E+01  0.17179482533E+03  0.17120000000E+03 0.  0.
        998    1    1    2    0    0 -0.15107318710E+01 -0.13767336211E+01  0.14202383803E+04  0.14202750559E+04  0.10000000000E+02 0. -1.
</event>
<event>
 5    1  0.1141915E-008  0.3851234E+03  0.7957747E-01  0.3429149E+00
         13   -1    0    0    0    0  0.00000000000E+00  0.00000000000E+00  0.14999999963E+04  0.15000000000E+04  0.10566000000E+00 0. -1.
        994   -1    0    0    0    0 -0.00000000000E+00 -0.00000000000E+00  0.11368683772E-12  0.17120000000E+03  0.17120000000E+03 0.  0.
         13    1    1    2    0    0 -0.15835038525E+02  0.11751974644E+02  0.11729603161E+03  0.11894211848E+03  0.10566000000E+00 0. -1.
        994    1    1    2    0    0  0.18934468104E+02 -0.63801105071E+01  0.28823577939E+01  0.17238610118E+03  0.17120000000E+03 0.  0.
        998    1    1    2    0    0 -0.30994295783E+01 -0.53718641368E+01  0.13798216069E+04  0.13798717803E+04  0.10000000000E+02 0. -1.
</event>
<event>
 5    1  0.1141915E-008  0.3835681E+03  0.7957747E-01  0.3435768E+00
         13   -1    0    0    0    0  0.00000000000E+00  0.00000000000E+00  0.14999999963E+04  0.15000000000E+04  0.10566000000E+00 0. -1.
        994   -1    0    0    0    0 -0.00000000000E+00 -0.00000000000E+00  0.11368683772E-12  0.17120000000E+03  0.17120000000E+03 0.  0.
         13    1    1    2    0    0 -0.15989958127E+02  0.14226103449E+02  0.11825563585E+03  0.12017681704E+03  0.10566000000E+00 0. -1.
        994    1    1    2    0    0  0.35929337962E+00  0.19222270989E+02  0.35648980324E+01  0.17231300964E+03  0.17120000000E+03 0.  0.
        998    1    1    2    0    0  0.15630664747E+02 -0.33448374438E+02  0.13781794624E+04  0.13787101733E+04  0.10000000000E+02 0. -1.
</event>
<event>
 5    1  0.1141915E-008  0.3852460E+03  0.7957747E-01  0.3428630E+00
         13   -1    0    0    0    0  0.00000000000E+00  0.00000000000E+00  0.14999999963E+04  0.15000000000E+04  0.10566000000E+00 0. -1.
        994   -1    0    0    0    0 -0.00000000000E+00 -0.00000000000E+00  0.11368683772E-12  0.17120000000E+03  0.17120000000E+03 0.  0.
         13    1    1    2    0    0 -0.13929598407E+02 -0.98743204682E+01  0.87355117110E+02  0.89008221900E+02  0.10566000000E+00 0. -1.
        994    1    1    2    0    0  0.12460729748E+02  0.25992697120E+02  0.42431465975E+01  0.17366155125E+03  0.17120000000E+03 0.  0.
        998    1    1    2    0    0  0.14688686590E+01 -0.16118376651E+02  0.14084017326E+04  0.14085302269E+04  0.10000000000E+02 0. -1.
</event>
<event>
 5    1  0.1141915E-008  0.3706230E+03  0.7957747E-01  0.3493033E+00
         13   -1    0    0    0    0  0.00000000000E+00  0.00000000000E+00  0.14999999963E+04  0.15000000000E+04  0.10566000000E+00 0. -1.
        994   -1    0    0    0    0 -0.00000000000E+00 -0.00000000000E+00  0.11368683772E-12  0.17120000000E+03  0.17120000000E+03 0.  0.
         13    1    1    2    0    0  0.15493240969E+02 -0.35768921502E+02  0.77084434031E+02  0.86379843685E+02  0.10566000000E+00 0. -1.
        994    1    1    2    0    0  0.31564801759E+02  0.59236082776E+02  0.24652406841E+02  0.18553283099E+03  0.17120000000E+03 0.  0.
        998    1    1    2    0    0 -0.47058042727E+02 -0.23467161274E+02  0.13982631554E+04  0.13992873253E+04  0.10000000000E+02 0. -1.
</event>
<event>
 5    1  0.1141915E-008  0.3831235E+03  0.7957747E-01  0.3437670E+00
         13   -1    0    0    0    0  0.00000000000E+00  0.00000000000E+00  0.14999999963E+04  0.15000000000E+04  0.10566000000E+00 0.  1.
        994   -1    0    0    0    0 -0.00000000000E+00 -0.00000000000E+00  0.11368683772E-12  0.17120000000E+03  0.17120000000E+03 0.  0.
         13    1    1    2    0    0  0.56246090916E+01 -0.10592751368E+02  0.28612017004E+02  0.31024204906E+02  0.10566000000E+00 0.  1.
        994    1    1    2    0    0  0.52451718879E+01 -0.41776247800E+01  0.27134744300E+01  0.17135275697E+03  0.17120000000E+03 0.  0.
        998    1    1    2    0    0 -0.10869780980E+02  0.14770376148E+02  0.14686745048E+04  0.14688230381E+04  0.10000000000E+02 0.  1.
</event>
<event>
 5    1  0.1141915E-008  0.3852626E+03  0.7957747E-01  0.3428559E+00
         13   -1    0    0    0    0  0.00000000000E+00  0.00000000000E+00  0.14999999963E+04  0.15000000000E+04  0.10566000000E+00 0.  1.
        994   -1    0    0    0    0 -0.00000000000E+00 -0.00000000000E+00  0.11368683772E-12  0.17120000000E+03  0.17120000000E+03 0.  0.
         13    1    1    2    0    0  0.16339541598E+02  0.93495957637E+00  0.91323453976E+02  0.92778441349E+02  0.10566000000E+00 0.  1.
        994    1    1    2    0    0 -0.77447671770E+01 -0.68280665048E+01  0.18501593203E+01  0.17152103953E+03  0.17120000000E+03 0.  0.
        998    1    1    2    0    0 -0.85947744206E+01  0.58931069284E+01  0.14068263830E+04  0.14069005191E+04  0.10000000000E+02 0.  1.
</event>
<event>
 5    1  0.1141915E-008  0.3837341E+03  0.7957747E-01  0.3435059E+00
         13   -1    0    0    0    0  0.00000000000E+00  0.00000000000E+00  0.14999999963E+04  0.15000000000E+04  0.10566000000E+00 0. -1.
        994   -1    0    0    0    0 -0.00000000000E+00 -0.00000000000E+00  0.11368683772E-12  0.17120000000E+03  0.17120000000E+03 0.  0.
         13    1    1    2    0    0 -0.20052984639E+02  0.98090235431E+01  0.93165215871E+02  0.95802441243E+02  0.10566000000E+00 0. -1.
        994    1    1    2    0    0  0.32790029963E+02 -0.23570689082E+02  0.76637476353E+01  0.17606514839E+03  0.17120000000E+03 0.  0.
        998    1    1    2    0    0 -0.12737045324E+02  0.13761665539E+02  0.13991710328E+04  0.13993324104E+04  0.10000000000E+02 0. -1.
</event>
<event>
 5    1  0.1141915E-008  0.3813924E+03  0.7957747E-01  0.3445118E+00
         13   -1    0    0    0    0  0.00000000000E+00  0.00000000000E+00  0.14999999963E+04  0.15000000000E+04  0.10566000000E+00 0.  1.
        994   -1    0    0    0    0 -0.00000000000E+00 -0.00000000000E+00  0.11368683772E-12  0.17120000000E+03  0.17120000000E+03 0.  0.
         13    1    1    2    0    0 -0.14561968271E+02 -0.16885052983E+02  0.68756075278E+02  0.72281152356E+02  0.10566000000E+00 0.  1.
        994    1    1    2    0    0  0.17438709726E+02  0.13807420559E+02  0.50799890352E+01  0.17271363510E+03  0.17120000000E+03 0.  0.
        998    1    1    2    0    0 -0.28767414552E+01  0.30776324239E+01  0.14261639320E+04  0.14262052125E+04  0.10000000000E+02 0.  1.
</event>
<event>
 5    1  0.1141915E-008  0.4370938E+03  0.7957747E-01  0.3234911E+00
         13   -1    0    0    0    0  0.00000000000E+00  0.00000000000E+00  0.14999999963E+04  0.15000000000E+04  0.10566000000E+00 0.  1.
        994   -1    0    0    0    0 -0.00000000000E+00 -0.00000000000E+00  0.11368683772E-12  0.17120000000E+03  0.17120000000E+03 0.  0.
         13    1    1    2    0    0 -0.33063736906E+02 -0.63279388367E+02  0.30798357341E+02  0.77756296653E+02  0.10566000000E+00 0.  1.
        994    1    1    2    0    0  0.32417022039E+02  0.65833131124E+02  0.77565195476E+02  0.20176883808E+03  0.17120000000E+03 0.  0.
        998    1    1    2    0    0  0.64671486696E+00 -0.25537427565E+01  0.13916364435E+04  0.13916748653E+04  0.10000000000E+02 0.  1.
</event>
<event>
 5    1  0.1141915E-008  0.3804891E+03  0.7957747E-01  0.3449031E+00
         13   -1    0    0    0    0  0.00000000000E+00  0.00000000000E+00  0.14999999963E+04  0.15000000000E+04  0.10566000000E+00 0. -1.
        994   -1    0    0    0    0 -0.00000000000E+00 -0.00000000000E+00  0.11368683772E-12  0.17120000000E+03  0.17120000000E+03 0.  0.
         13    1    1    2    0    0 -0.12012953551E+02  0.62348522008E+01  0.22051082892E+02  0.25873651767E+02  0.10566000000E+00 0. -1.
        994    1    1    2    0    0  0.64890539905E+01 -0.54866454763E+01  0.41274854898E+01  0.17146045386E+03  0.17120000000E+03 0.  0.
        998    1    1    2    0    0  0.55238995604E+01 -0.74820672452E+00  0.14738214279E+04  0.14738658944E+04  0.10000000000E+02 0. -1.
</event>
<event>
 5    1  0.1141915E-008  0.3752885E+03  0.7957747E-01  0.3471934E+00
         13   -1    0    0    0    0  0.00000000000E+00  0.00000000000E+00  0.14999999963E+04  0.15000000000E+04  0.10566000000E+00 0.  1.
        994   -1    0    0    0    0 -0.00000000000E+00 -0.00000000000E+00  0.11368683772E-12  0.17120000000E+03  0.17120000000E+03 0.  0.
         13    1    1    2    0    0 -0.93952204924E+01  0.15573061053E+02  0.21658267038E+02  0.28282186864E+02  0.10566000000E+00 0.  1.
        994    1    1    2    0    0  0.19126568288E+02 -0.22172847846E+02  0.94480099774E+01  0.17394299551E+03  0.17120000000E+03 0.  0.
        998    1    1    2    0    0 -0.97313477953E+01  0.65997867927E+01  0.14688937193E+04  0.14689748176E+04  0.10000000000E+02 0.  1.
</event>
<event>
 5    1  0.1141915E-008  0.3756269E+03  0.7957747E-01  0.3470424E+00
         13   -1    0    0    0    0  0.00000000000E+00  0.00000000000E+00  0.14999999963E+04  0.15000000000E+04  0.10566000000E+00 0.  1.
        994   -1    0    0    0    0 -0.00000000000E+00 -0.00000000000E+00  0.11368683772E-12  0.17120000000E+03  0.17120000000E+03 0.  0.
         13    1    1    2    0    0  0.91941273518E+01 -0.17500453136E+02  0.79509413359E+01  0.21307896890E+02  0.10566000000E+00 0.  1.
        994    1    1    2    0    0 -0.53908237014E+01  0.91040811724E+01  0.14344964405E+02  0.17212542891E+03  0.17120000000E+03 0.  0.
        998    1    1    2    0    0 -0.38033036504E+01  0.83963719633E+01  0.14777040905E+04  0.14777666742E+04  0.10000000000E+02 0.  1.
</event>
<event>
 5    1  0.1141915E-008  0.3843001E+03  0.7957747E-01  0.3432646E+00
         13   -1    0    0    0    0  0.00000000000E+00  0.00000000000E+00  0.14999999963E+04  0.15000000000E+04  0.10566000000E+00 0.  1.
        994   -1    0    0    0    0 -0.00000000000E+00 -0.00000000000E+00  0.11368683772E-12  0.17120000000E+03  0.17120000000E+03 0.  0.
         13    1    1    2    0    0 -0.80817891852E+01  0.17722475761E+02  0.87178977827E+02  0.89328532969E+02  0.10566000000E+00 0.  1.
        994    1    1    2    0    0 -0.15940049551E+01 -0.29991199994E+02  0.49568542062E+01  0.17388508657E+03  0.17120000000E+03 0.  0.
        998    1    1    2    0    0  0.96757941404E+01  0.12268724233E+02  0.14078641642E+04  0.14079863805E+04  0.10000000000E+02 0.  1.
</event>
<event>
 5    1  0.1141915E-008  0.3846503E+03  0.7957747E-01  0.3431157E+00
         13   -1    0    0    0    0  0.00000000000E+00  0.00000000000E+00  0.14999999963E+04  0.15000000000E+04  0.10566000000E+00 0.  1.
        994   -1    0    0    0    0 -0.00000000000E+00 -0.00000000000E+00  0.11368683772E-12  0.17120000000E+03  0.17120000000E+03 0.  0.
         13    1    1    2    0    0 -0.11893747456E+02 -0.96840834479E+01  0.61395111126E+02  0.63282015889E+02  0.10566000000E+00 0.  1.
        994    1    1    2    0    0  0.16108986279E+02  0.11878311658E+02  0.31238913774E+01  0.17239429348E+03  0.17120000000E+03 0.  0.
        998    1    1    2    0    0 -0.42152388235E+01 -0.21942282097E+01  0.14354809938E+04  0.14355236906E+04  0.10000000000E+02 0.  1.
</event>
<event>
 5    1  0.1141915E-008  0.3749485E+03  0.7957747E-01  0.3473453E+00
         13   -1    0    0    0    0  0.00000000000E+00  0.00000000000E+00  0.14999999963E+04  0.15000000000E+04  0.10566000000E+00 0.  1.
        994   -1    0    0    0    0 -0.00000000000E+00 -0.00000000000E+00  0.11368683772E-12  0.17120000000E+03  0.17120000000E+03 0.  0.
         13    1    1    2    0    0 -0.40673212133E+02  0.17832392469E+02  0.71295242822E+02  0.83995995258E+02  0.10566000000E+00 0.  1.
        994    1    1    2    0    0  0.15611684150E+02  0.48078740950E+01  0.14529566101E+02  0.17259023329E+03  0.17120000000E+03 0.  0.
        998    1    1    2    0    0  0.25061527982E+02 -0.22640266564E+02  0.14141751874E+04  0.14146137715E+04  0.10000000000E+02 0.  1.
</event>
<event>
 5    1  0.1141915E-008  0.3847002E+03  0.7957747E-01  0.3430945E+00
         13   -1    0    0    0    0  0.00000000000E+00  0.00000000000E+00  0.14999999963E+04  0.15000000000E+04  0.10566000000E+00 0. -1.
        994   -1    0    0    0    0 -0.00000000000E+00 -0.00000000000E+00  0.11368683772E-12  0.17120000000E+03  0.17120000000E+03 0.  0.
         13    1    1    2    0    0  0.65014123341E+02  0.99542233504E+02  0.59918096183E+03  0.61086277401E+03  0.10566000000E+00 0. -1.
        994    1    1    2    0    0 -0.17614661813E+02 -0.54469993206E+01  0.20187793323E+02  0.17336935459E+03  0.17120000000E+03 0.  0.
        998    1    1    2    0    0 -0.47399461528E+02 -0.94095234184E+02  0.88063124112E+03  0.88696787140E+03  0.10000000000E+02 0.  1.
</event>
<event>
 5    1  0.1141915E-008  0.3840185E+03  0.7957747E-01  0.3433845E+00
         13   -1    0    0    0    0  0.00000000000E+00  0.00000000000E+00  0.14999999963E+04  0.15000000000E+04  0.10566000000E+00 0. -1.
        994   -1    0    0    0    0 -0.00000000000E+00 -0.00000000000E+00  0.11368683772E-12  0.17120000000E+03  0.17120000000E+03 0.  0.
         13    1    1    2    0    0  0.28703493902E+01  0.13607420060E+02  0.45113853860E+02  0.47208810199E+02  0.10566000000E+00 0. -1.
        994    1    1    2    0    0 -0.67793096123E+01 -0.83436004388E+01  0.24995985486E+01  0.17155542166E+03  0.17120000000E+03 0.  0.
        998    1    1    2    0    0  0.39089602221E+01 -0.52638196213E+01  0.14523865439E+04  0.14524357681E+04  0.10000000000E+02 0. -1.
</event>
<event>
 5    1  0.1141915E-008  0.3797807E+03  0.7957747E-01  0.3452114E+00
         13   -1    0    0    0    0  0.00000000000E+00  0.00000000000E+00  0.14999999963E+04  0.15000000000E+04  0.10566000000E+00 0.  1.
        994   -1    0    0    0    0 -0.00000000000E+00 -0.00000000000E+00  0.11368683772E-12  0.17120000000E+03  0.17120000000E+03 0.  0.
         13    1    1    2    0    0 -0.83327886353E+01  0.18935281364E+02  0.48304870751E+02  0.52548567526E+02  0.10566000000E+00 0.  1.
        994    1    1    2    0    0  0.10252611373E+02 -0.13493119440E+02  0.52051799275E+01  0.17211540957E+03  0.17120000000E+03 0.  0.
        998    1    1    2    0    0 -0.19198227373E+01 -0.54421619238E+01  0.14464899456E+04  0.14465360229E+04  0.10000000000E+02 0.  1.
</event>
<event>
 5    1  0.1141915E-008  0.3761145E+03  0.7957747E-01  0.3468253E+00
         13   -1    0    0    0    0  0.00000000000E+00  0.00000000000E+00  0.14999999963E+04  0.15000000000E+04  0.10566000000E+00 0.  1.
        994   -1    0    0    0    0 -0.00000000000E+00 -0.00000000000E+00  0.11368683772E-12  0.17120000000E+03  0.17120000000E+03 0.  0.
         13    1    1    2    0    0 -0.50931032671E+02  0.16254285134E+02  0.19972413147E+03  0.20675568125E+03  0.10566000000E+00 0.  1.
        994    1    1    2    0    0  0.51994418436E+02 -0.19429461667E+02  0.16613248017E+02  0.18073838424E+03  0.17120000000E+03 0.  0.
        998    1    1    2    0    0 -0.10633857655E+01  0.31751765336E+01  0.12836626168E+04  0.12837059345E+04  0.10000000000E+02 0.  1.
</event>
<event>
 5    1  0.1141915E-008  0.3835480E+03  0.7957747E-01  0.3435854E+00
         13   -1    0    0    0    0  0.00000000000E+00  0.00000000000E+00  0.14999999963E+04  0.15000000000E+04  0.10566000000E+00 0.  1.
        994   -1    0    0    0    0 -0.00000000000E+00 -0.00000000000E+00  0.11368683772E-12  0.17120000000E+03  0.17120000000E+03 0.  0.
         13    1    1    2    0    0 -0.18299261460E+02  0.38169145589E+01  0.70833150494E+02  0.73258297685E+02  0.10566000000E+00 0.  1.
        994    1    1    2    0    0  0.33069548142E+02  0.50440023102E+02  0.14466883808E+02  0.18208932333E+03  0.17120000000E+03 0.  0.
        998    1    1    2    0    0 -0.14770286682E+02 -0.54256937661E+02  0.14146999620E+04  0.14158523790E+04  0.10000000000E+02 0.  1.
</event>
<event>
 5    1  0.1141915E-008  0.3858136E+03  0.7957747E-01  0.3426229E+00
         13   -1    0    0    0    0  0.00000000000E+00  0.00000000000E+00  0.14999999963E+04  0.15000000000E+04  0.10566000000E+00 0. -1.
        994   -1    0    0    0    0 -0.00000000000E+00 -0.00000000000E+00  0.11368683772E-12  0.17120000000E+03  0.17120000000E+03 0.  0.
         13    1    1    2    0    0 -0.95068422794E+01  0.90815049905E+01  0.62442489791E+02  0.63811671961E+02  0.10566000000E+00 0. -1.
        994    1    1    2    0    0  0.15297529115E+02 -0.23720717532E+02  0.38442325757E+01  0.17355375237E+03  0.17120000000E+03 0.  0.
        998    1    1    2    0    0 -0.57906868359E+01  0.14639212541E+02  0.14337132739E+04  0.14338345757E+04  0.10000000000E+02 0. -1.
</event>
<event>
 5    1  0.1141915E-008  0.3943051E+03  0.7957747E-01  0.3391142E+00
         13   -1    0    0    0    0  0.00000000000E+00  0.00000000000E+00  0.14999999963E+04  0.15000000000E+04  0.10566000000E+00 0. -1.
        994   -1    0    0    0    0 -0.00000000000E+00 -0.00000000000E+00  0.11368683772E-12  0.17120000000E+03  0.17120000000E+03 0.  0.
         13    1    1    2    0    0  0.30887167569E+02  0.70063853700E+02  0.12685731915E+03  0.14817473233E+03  0.10566000000E+00 0. -1.
        994    1    1    2    0    0  0.23274850269E+02 -0.26032599859E+02  0.29097192079E+02  0.17713131145E+03  0.17120000000E+03 0.  0.
        998    1    1    2    0    0 -0.54162017838E+02 -0.44031253841E+02  0.13440454851E+04  0.13458939562E+04  0.10000000000E+02 0. -1.
</event>
<event>
 5    1  0.1141915E-008  0.3837087E+03  0.7957747E-01  0.3435167E+00
         13   -1    0    0    0    0  0.00000000000E+00  0.00000000000E+00  0.14999999963E+04  0.15000000000E+04  0.10566000000E+00 0.  1.
        994   -1    0    0    0    0 -0.00000000000E+00 -0.00000000000E+00  0.11368683772E-12  0.17120000000E+03  0.17120000000E+03 0.  0.
         13    1    1    2    0    0  0.18752455541E+02 -0.46540577563E+01  0.78651453136E+02  0.80989981398E+02  0.10566000000E+00 0.  1.
        994    1    1    2    0    0 -0.19547269828E+02 -0.15856372689E+01  0.35437940399E+01  0.17235605147E+03  0.17120000000E+03 0.  0.
        998    1    1    2    0    0  0.79481428677E+00  0.62396950251E+01  0.14178047491E+04  0.14178539671E+04  0.10000000000E+02 0.  1.
</event>
<event>
 5    1  0.1141915E-008  0.3816646E+03  0.7957747E-01  0.3443942E+00
         13   -1    0    0    0    0  0.00000000000E+00  0.00000000000E+00  0.14999999963E+04  0.15000000000E+04  0.10566000000E+00 0. -1.
        994   -1    0    0    0    0 -0.00000000000E+00 -0.00000000000E+00  0.11368683772E-12  0.17120000000E+03  0.17120000000E+03 0.  0.
         13    1    1    2    0    0 -0.77434940660E+01 -0.15169196590E+02  0.38840652103E+02  0.42410772752E+02  0.10566000000E+00 0. -1.
        994    1    1    2    0    0  0.13824805556E+02  0.35512172226E+02  0.81384440977E+01  0.17557879683E+03  0.17120000000E+03 0.  0.
        998    1    1    2    0    0 -0.60813114900E+01 -0.20342975636E+02  0.14530209001E+04  0.14532104304E+04  0.10000000000E+02 0. -1.
</event>
<event>
 5    1  0.1141915E-008  0.3787723E+03  0.7957747E-01  0.3456521E+00
         13   -1    0    0    0    0  0.00000000000E+00  0.00000000000E+00  0.14999999963E+04  0.15000000000E+04  0.10566000000E+00 0.  1.
        994   -1    0    0    0    0 -0.00000000000E+00 -0.00000000000E+00  0.11368683772E-12  0.17120000000E+03  0.17120000000E+03 0.  0.
         13    1    1    2    0    0 -0.91371727012E+01  0.17889274587E+02  0.41512422357E+02  0.46117311762E+02  0.10566000000E+00 0.  1.
        994    1    1    2    0    0  0.81115922338E+01 -0.31650062286E+01  0.50086616003E+01  0.17149443689E+03  0.17120000000E+03 0.  0.
        998    1    1    2    0    0  0.10255804673E+01 -0.14724268359E+02  0.14534789123E+04  0.14535882513E+04  0.10000000000E+02 0.  1.
</event>
<event>
 5    1  0.1141915E-008  0.3752522E+03  0.7957747E-01  0.3472095E+00
         13   -1    0    0    0    0  0.00000000000E+00  0.00000000000E+00  0.14999999963E+04  0.15000000000E+04  0.10566000000E+00 0.  1.
        994   -1    0    0    0    0 -0.00000000000E+00 -0.00000000000E+00  0.11368683772E-12  0.17120000000E+03  0.17120000000E+03 0.  0.
         13    1    1    2    0    0 -0.32324494926E+02 -0.18956666263E+02  0.10424020720E+03  0.11077120622E+03  0.10566000000E+00 0.  1.
        994    1    1    2    0    0  0.22510625696E+02  0.96470147691E+01  0.85890020492E+01  0.17315601092E+03  0.17120000000E+03 0.  0.
        998    1    1    2    0    0  0.98138692300E+01  0.93096514941E+01  0.13871707870E+04  0.13872727829E+04  0.10000000000E+02 0.  1.
</event>
<event>
 5    1  0.1141915E-008  0.3853266E+03  0.7957747E-01  0.3428288E+00
         13   -1    0    0    0    0  0.00000000000E+00  0.00000000000E+00  0.14999999963E+04  0.15000000000E+04  0.10566000000E+00 0.  1.
        994   -1    0    0    0    0 -0.00000000000E+00 -0.00000000000E+00  0.11368683772E-12  0.17120000000E+03  0.17120000000E+03 0.  0.
         13    1    1    2    0    0  0.13624253236E+02 -0.63086647974E+01  0.76354672115E+02  0.77816878925E+02  0.10566000000E+00 0.  1.
        994    1    1    2    0    0 -0.79179693779E+01  0.92936274489E+01  0.19579276875E+01  0.17164597062E+03  0.17120000000E+03 0.  0.
        998    1    1    2    0    0 -0.57062838580E+01 -0.29849626514E+01  0.14216873965E+04  0.14217371505E+04  0.10000000000E+02 0.  1.
</event>
<event>
 5    1  0.1141915E-008  0.3719416E+03  0.7957747E-01  0.3487015E+00
         13   -1    0    0    0    0  0.00000000000E+00  0.00000000000E+00  0.14999999963E+04  0.15000000000E+04  0.10566000000E+00 0.  1.
        994   -1    0    0    0    0 -0.00000000000E+00 -0.00000000000E+00  0.11368683772E-12  0.17120000000E+03  0.17120000000E+03 0.  0.
         13    1    1    2    0    0 -0.59472030564E+02  0.31298306974E+02  0.19285978670E+03  0.20423372623E+03  0.10566000000E+00 0.  1.
        994    1    1    2    0    0  0.26062907415E+02 -0.17964234815E+02  0.15504193521E+02  0.17479075746E+03  0.17120000000E+03 0.  0.
        998    1    1    2    0    0  0.33409123149E+02 -0.13334072159E+02  0.12916360161E+04  0.12921755163E+04  0.10000000000E+02 0.  1.
</event>
<event>
 5    1  0.1141915E-008  0.3783692E+03  0.7957747E-01  0.3458290E+00
         13   -1    0    0    0    0  0.00000000000E+00  0.00000000000E+00  0.14999999963E+04  0.15000000000E+04  0.10566000000E+00 0. -1.
        994   -1    0    0    0    0 -0.00000000000E+00 -0.00000000000E+00  0.11368683772E-12  0.17120000000E+03  0.17120000000E+03 0.  0.
         13    1    1    2    0    0  0.38144509203E+02  0.16594334478E+02  0.17597938864E+03  0.18082901290E+03  0.10566000000E+00 0. -1.
        994    1    1    2    0    0  0.23832067317E+01 -0.72359483679E+02  0.22782808645E+02  0.18727004812E+03  0.17120000000E+03 0.  0.
        998    1    1    2    0    0 -0.40527715935E+02  0.55765149201E+02  0.13012377990E+04  0.13031009390E+04  0.10000000000E+02 0. -1.
</event>
<event>
 5    1  0.1141915E-008  0.3845533E+03  0.7957747E-01  0.3431569E+00
         13   -1    0    0    0    0  0.00000000000E+00  0.00000000000E+00  0.14999999963E+04  0.15000000000E+04  0.10566000000E+00 0. -1.
        994   -1    0    0    0    0 -0.00000000000E+00 -0.00000000000E+00  0.11368683772E-12  0.17120000000E+03  0.17120000000E+03 0.  0.
         13    1    1    2    0    0  0.74343924162E+01  0.14004400523E+02  0.65335784573E+02  0.67232204593E+02  0.10566000000E+00 0. -1.
        994    1    1    2    0    0 -0.49175063079E+01 -0.15818853217E+02  0.27563675561E+01  0.17202167174E+03  0.17120000000E+03 0.  0.
        998    1    1    2    0    0 -0.25168861083E+01  0.18144526943E+01  0.14319078441E+04  0.14319461237E+04  0.10000000000E+02 0.  0.
</event>
<event>
 5    1  0.1141915E-008  0.3787790E+03  0.7957747E-01  0.3456492E+00
         13   -1    0    0    0    0  0.00000000000E+00  0.00000000000E+00  0.14999999963E+04  0.15000000000E+04  0.10566000000E+00 0.  1.
        994   -1    0    0    0    0 -0.00000000000E+00 -0.00000000000E+00  0.11368683772E-12  0.17120000000E+03  0.17120000000E+03 0.  0.
         13    1    1    2    0    0 -0.88156317703E+02 -0.14393773863E+03  0.90498977902E+03  0.92059552479E+03  0.10566000000E+00 0.  1.
        994    1    1    2    0    0  0.80966122444E+02  0.15375947359E+03  0.11387387091E+03  0.26921030288E+03  0.17120000000E+03 0.  0.
        998    1    1    2    0    0  0.71901952593E+01 -0.98217349547E+01  0.48113634634E+03  0.48139417233E+03  0.10000000000E+02 0.  0.
</event>
<event>
 5    1  0.1141915E-008  0.3835708E+03  0.7957747E-01  0.3435756E+00
         13   -1    0    0    0    0  0.00000000000E+00  0.00000000000E+00  0.14999999963E+04  0.15000000000E+04  0.10566000000E+00 0.  1.
        994   -1    0    0    0    0 -0.00000000000E+00 -0.00000000000E+00  0.11368683772E-12  0.17120000000E+03  0.17120000000E+03 0.  0.
         13    1    1    2    0    0 -0.19619288875E+02  0.11341801323E+02  0.10787153906E+03  0.11022628115E+03  0.10566000000E+00 0.  1.
        994    1    1    2    0    0  0.10343452204E+02 -0.13509453580E+02  0.32984242890E+01  0.17207501836E+03  0.17120000000E+03 0.  0.
        998    1    1    2    0    0  0.92758366713E+01  0.21676522566E+01  0.13888300329E+04  0.13888987005E+04  0.10000000000E+02 0.  1.
</event>
<event>
 5    1  0.1141915E-008  0.3788738E+03  0.7957747E-01  0.3456077E+00
         13   -1    0    0    0    0  0.00000000000E+00  0.00000000000E+00  0.14999999963E+04  0.15000000000E+04  0.10566000000E+00 0. -1.
        994   -1    0    0    0    0 -0.00000000000E+00 -0.00000000000E+00  0.11368683772E-12  0.17120000000E+03  0.17120000000E+03 0.  0.
         13    1    1    2    0    0 -0.30652896774E+02 -0.20493737873E+01  0.97887577467E+02  0.10259526792E+03  0.10566000000E+00 0. -1.
        994    1    1    2    0    0  0.18725555368E+02  0.43008329875E+02  0.12121524663E+02  0.17792339425E+03  0.17120000000E+03 0.  0.
        998    1    1    2    0    0  0.11927341406E+02 -0.40958956088E+02  0.13899908941E+04  0.13906813378E+04  0.10000000000E+02 0. -1.
</event>
<event>
 5    1  0.1141915E-008  0.3793734E+03  0.7957747E-01  0.3453891E+00
         13   -1    0    0    0    0  0.00000000000E+00  0.00000000000E+00  0.14999999963E+04  0.15000000000E+04  0.10566000000E+00 0.  1.
        994   -1    0    0    0    0 -0.00000000000E+00 -0.00000000000E+00  0.11368683772E-12  0.17120000000E+03  0.17120000000E+03 0.  0.
         13    1    1    2    0    0 -0.33495463359E+02 -0.59386593456E+02  0.38709301903E+03  0.39305181604E+03  0.10566000000E+00 0.  1.
        994    1    1    2    0    0  0.36792173206E+02  0.57583979099E+02  0.20254428525E+02  0.18544341599E+03  0.17120000000E+03 0.  0.
        998    1    1    2    0    0 -0.32967098463E+01  0.18026143573E+01  0.10926525487E+04  0.10927047680E+04  0.10000000000E+02 0.  0.
</event>
<event>
 5    1  0.1141915E-008  0.3221233E+03  0.7957747E-01  0.3749730E+00
         13   -1    0    0    0    0  0.00000000000E+00  0.00000000000E+00  0.14999999963E+04  0.15000000000E+04  0.10566000000E+00 0. -1.
        994   -1    0    0    0    0 -0.00000000000E+00 -0.00000000000E+00  0.11368683772E-12  0.17120000000E+03  0.17120000000E+03 0.  0.
         13    1    1    2    0    0  0.14862355271E+03 -0.16023190369E+03  0.76643241574E+03  0.79698298755E+03  0.10566000000E+00 0. -1.
        994    1    1    2    0    0 -0.12317121761E+03  0.16703241986E+03  0.18868634178E+03  0.32860759837E+03  0.17120000000E+03 0.  0.
        998    1    1    2    0    0 -0.25452335103E+02 -0.68005161719E+01  0.54488123876E+03  0.54560941408E+03  0.10000000000E+02 0. -1.
</event>
<event>
 5    1  0.1141915E-008  0.3795996E+03  0.7957747E-01  0.3452904E+00
         13   -1    0    0    0    0  0.00000000000E+00  0.00000000000E+00  0.14999999963E+04  0.15000000000E+04  0.10566000000E+00 0. -1.
        994   -1    0    0    0    0 -0.00000000000E+00 -0.00000000000E+00  0.11368683772E-12  0.17120000000E+03  0.17120000000E+03 0.  0.
         13    1    1    2    0    0  0.88043073006E+01  0.37511927879E+02  0.16302515847E+03  0.16751678727E+03  0.10566000000E+00 0. -1.
        994    1    1    2    0    0  0.32479816901E+01 -0.30446019709E+02  0.74799119284E+01  0.17407727762E+03  0.17120000000E+03 0.  0.
        998    1    1    2    0    0 -0.12052288991E+02 -0.70659081698E+01  0.13294949259E+04  0.13296059351E+04  0.10000000000E+02 0. -1.
</event>
<event>
 5    1  0.1141915E-008  0.3820600E+03  0.7957747E-01  0.3442238E+00
         13   -1    0    0    0    0  0.00000000000E+00  0.00000000000E+00  0.14999999963E+04  0.15000000000E+04  0.10566000000E+00 0.  1.
        994   -1    0    0    0    0 -0.00000000000E+00 -0.00000000000E+00  0.11368683772E-12  0.17120000000E+03  0.17120000000E+03 0.  0.
         13    1    1    2    0    0 -0.99961465415E+01 -0.41543972421E+02  0.25382068667E+03  0.25739226239E+03  0.10566000000E+00 0.  1.
        994    1    1    2    0    0  0.42557332348E+01  0.40177118814E+02  0.85356912735E+01  0.17610965382E+03  0.17120000000E+03 0.  0.
        998    1    1    2    0    0  0.57404133066E+01  0.13668536073E+01  0.12376436183E+04  0.12376980838E+04  0.10000000000E+02 0.  1.
</event>
<event>
 5    1  0.1141915E-008  0.3733079E+03  0.7957747E-01  0.3480825E+00
         13   -1    0    0    0    0  0.00000000000E+00  0.00000000000E+00  0.14999999963E+04  0.15000000000E+04  0.10566000000E+00 0. -1.
        994   -1    0    0    0    0 -0.00000000000E+00 -0.00000000000E+00  0.11368683772E-12  0.17120000000E+03  0.17120000000E+03 0.  0.
         13    1    1    2    0    0 -0.28102529000E+02 -0.63771771602E+02  0.24677205287E+03  0.25642357191E+03  0.10566000000E+00 0. -1.
        994    1    1    2    0    0 -0.19180876144E+02 -0.25206769647E+01  0.14023525446E+02  0.17285936216E+03  0.17120000000E+03 0.  0.
        998    1    1    2    0    0  0.47283405144E+02  0.66292448567E+02  0.12392044180E+04  0.12419170659E+04  0.10000000000E+02 0. -1.
</event>
<event>
 5    1  0.1141915E-008  0.3785110E+03  0.7957747E-01  0.3457668E+00
         13   -1    0    0    0    0  0.00000000000E+00  0.00000000000E+00  0.14999999963E+04  0.15000000000E+04  0.10566000000E+00 0. -1.
        994   -1    0    0    0    0 -0.00000000000E+00 -0.00000000000E+00  0.11368683772E-12  0.17120000000E+03  0.17120000000E+03 0.  0.
         13    1    1    2    0    0  0.16721909561E+02 -0.27341405350E+01  0.28537653774E+02  0.33188953446E+02  0.10566000000E+00 0. -1.
        994    1    1    2    0    0  0.21982584446E+01 -0.46771265252E+01  0.49764222264E+01  0.17135026300E+03  0.17120000000E+03 0.  0.
        998    1    1    2    0    0 -0.18920168006E+02  0.74112670603E+01  0.14664859203E+04  0.14666607836E+04  0.10000000000E+02 0. -1.
</event>
<event>
 5    1  0.1141915E-008  0.3707391E+03  0.7957747E-01  0.3492501E+00
         13   -1    0    0    0    0  0.00000000000E+00  0.00000000000E+00  0.14999999963E+04  0.15000000000E+04  0.10566000000E+00 0.  1.
        994   -1    0    0    0    0 -0.00000000000E+00 -0.00000000000E+00  0.11368683772E-12  0.17120000000E+03  0.17120000000E+03 0.  0.
         13    1    1    2    0    0  0.27305420671E+02 -0.22662245762E+01  0.32164778136E+02  0.42252880238E+02  0.10566000000E+00 0.  1.
        994    1    1    2    0    0  0.30798472280E+02 -0.80200526493E+01  0.14888548146E+02  0.17476834955E+03  0.17120000000E+03 0.  0.
        998    1    1    2    0    0 -0.58103892951E+02  0.10286277226E+02  0.14529466700E+04  0.14541787702E+04  0.10000000000E+02 0.  1.
</event>
<event>
 5    1  0.1141915E-008  0.3684885E+03  0.7957747E-01  0.3502866E+00
         13   -1    0    0    0    0  0.00000000000E+00  0.00000000000E+00  0.14999999963E+04  0.15000000000E+04  0.10566000000E+00 0.  1.
        994   -1    0    0    0    0 -0.00000000000E+00 -0.00000000000E+00  0.11368683772E-12  0.17120000000E+03  0.17120000000E+03 0.  0.
         13    1    1    2    0    0 -0.78676274807E+02  0.42232861749E+02  0.32654283097E+03  0.33853183373E+03  0.10566000000E+00 0.  1.
        994    1    1    2    0    0  0.71637826014E+02 -0.35419675641E+02  0.32600657531E+02  0.19172577920E+03  0.17120000000E+03 0.  0.
        998    1    1    2    0    0  0.70384487927E+01 -0.68131861083E+01  0.11408565078E+04  0.11409423871E+04  0.10000000000E+02 0.  0.
</event>
<event>
 5    1  0.1141915E-008  0.3102493E+03  0.7957747E-01  0.3825460E+00
         13   -1    0    0    0    0  0.00000000000E+00  0.00000000000E+00  0.14999999963E+04  0.15000000000E+04  0.10566000000E+00 0. -1.
        994   -1    0    0    0    0 -0.00000000000E+00 -0.00000000000E+00  0.11368683772E-12  0.17120000000E+03  0.17120000000E+03 0.  0.
         13    1    1    2    0    0 -0.85161358784E+02 -0.15186889169E+03  0.90484956529E+03  0.92144959942E+03  0.10566000000E+00 0. -1.
        994    1    1    2    0    0  0.34252237660E+02  0.64079053282E+02  0.46502506985E+02  0.19170619189E+03  0.17120000000E+03 0.  0.
        998    1    1    2    0    0  0.50909121124E+02  0.87789838406E+02  0.54864792400E+03  0.55804420869E+03  0.10000000000E+02 0.  1.
</event>
<event>
 5    1  0.1141915E-008  0.3823650E+03  0.7957747E-01  0.3440925E+00
         13   -1    0    0    0    0  0.00000000000E+00  0.00000000000E+00  0.14999999963E+04  0.15000000000E+04  0.10566000000E+00 0. -1.
        994   -1    0    0    0    0 -0.00000000000E+00 -0.00000000000E+00  0.11368683772E-12  0.17120000000E+03  0.17120000000E+03 0.  0.
         13    1    1    2    0    0  0.22260131749E+02  0.12393699127E+02  0.12008829746E+03  0.12276126260E+03  0.10566000000E+00 0. -1.
        994    1    1    2    0    0 -0.52153471816E+01  0.62792436713E+01  0.31651004154E+01  0.17142370492E+03  0.17120000000E+03 0.  0.
        998    1    1    2    0    0 -0.17044784567E+02 -0.18672942798E+02  0.13767465984E+04  0.13770150325E+04  0.10000000000E+02 0. -1.
</event>
<event>
 5    1  0.1141915E-008  0.3797958E+03  0.7957747E-01  0.3452048E+00
         13   -1    0    0    0    0  0.00000000000E+00  0.00000000000E+00  0.14999999963E+04  0.15000000000E+04  0.10566000000E+00 0. -1.
        994   -1    0    0    0    0 -0.00000000000E+00 -0.00000000000E+00  0.11368683772E-12  0.17120000000E+03  0.17120000000E+03 0.  0.
         13    1    1    2    0    0 -0.99784356723E+01 -0.25644924528E+02  0.84388973601E+02  0.88762274430E+02  0.10566000000E+00 0. -1.
        994    1    1    2    0    0  0.94482761870E+01  0.23868181364E+02  0.64437177051E+01  0.17323371930E+03  0.17120000000E+03 0.  0.
        998    1    1    2    0    0  0.53015948525E+00  0.17767431636E+01  0.14091673050E+04  0.14092040063E+04  0.10000000000E+02 0. -1.
</event>
<event>
 5    1  0.1141915E-008  0.3705203E+03  0.7957747E-01  0.3493503E+00
         13   -1    0    0    0    0  0.00000000000E+00  0.00000000000E+00  0.14999999963E+04  0.15000000000E+04  0.10566000000E+00 0.  1.
        994   -1    0    0    0    0 -0.00000000000E+00 -0.00000000000E+00  0.11368683772E-12  0.17120000000E+03  0.17120000000E+03 0.  0.
         13    1    1    2    0    0  0.67350769291E+02  0.48532192880E+02  0.28554979636E+03  0.29737215276E+03  0.10566000000E+00 0.  1.
        994    1    1    2    0    0 -0.66051024452E+02 -0.68587959459E+02  0.40975742876E+02  0.20013869570E+03  0.17120000000E+03 0.  0.
        998    1    1    2    0    0 -0.12997448390E+01  0.20055766579E+02  0.11734744570E+04  0.11736891515E+04  0.10000000000E+02 0.  1.
</event>
<event>
 5    1  0.1141915E-008  0.3777805E+03  0.7957747E-01  0.3460880E+00
         13   -1    0    0    0    0  0.00000000000E+00  0.00000000000E+00  0.14999999963E+04  0.15000000000E+04  0.10566000000E+00 0.  1.
        994   -1    0    0    0    0 -0.00000000000E+00 -0.00000000000E+00  0.11368683772E-12  0.17120000000E+03  0.17120000000E+03 0.  0.
         13    1    1    2    0    0  0.90635133781E+01  0.11580960911E+02  0.18034114920E+02  0.23270289971E+02  0.10566000000E+00 0.  1.
        994    1    1    2    0    0 -0.16950887399E+02 -0.76422111108E+01  0.64229143922E+01  0.17232652089E+03  0.17120000000E+03 0.  0.
        998    1    1    2    0    0  0.78873740213E+01 -0.39387497998E+01  0.14755429670E+04  0.14756031891E+04  0.10000000000E+02 0.  1.
</event>
<event>
 5    1  0.1141915E-008  0.3787693E+03  0.7957747E-01  0.3456535E+00
         13   -1    0    0    0    0  0.00000000000E+00  0.00000000000E+00  0.14999999963E+04  0.15000000000E+04  0.10566000000E+00 0.  1.
        994   -1    0    0    0    0 -0.00000000000E+00 -0.00000000000E+00  0.11368683772E-12  0.17120000000E+03  0.17120000000E+03 0.  0.
         13    1    1    2    0    0 -0.14113363845E+02  0.65424520127E+02  0.36522092399E+03  0.37130296169E+03  0.10566000000E+00 0.  1.
        994    1    1    2    0    0  0.21232861027E+02 -0.61447619507E+02  0.19076129844E+02  0.18411948039E+03  0.17120000000E+03 0.  0.
        998    1    1    2    0    0 -0.71194971822E+01 -0.39769006209E+01  0.11157029424E+04  0.11157775579E+04  0.10000000000E+02 0. -1.
</event>
<event>
 5    1  0.1141915E-008  0.3792176E+03  0.7957747E-01  0.3454572E+00
         13   -1    0    0    0    0  0.00000000000E+00  0.00000000000E+00  0.14999999963E+04  0.15000000000E+04  0.10566000000E+00 0. -1.
        994   -1    0    0    0    0 -0.00000000000E+00 -0.00000000000E+00  0.11368683772E-12  0.17120000000E+03  0.17120000000E+03 0.  0.
         13    1    1    2    0    0  0.59725570972E+01 -0.52576275282E+02  0.25144528826E+03  0.25695268108E+03  0.10566000000E+00 0. -1.
        994    1    1    2    0    0 -0.44186253705E+01  0.55833706236E+02  0.15115011665E+02  0.18076180620E+03  0.17120000000E+03 0.  0.
        998    1    1    2    0    0 -0.15539317267E+01 -0.32574309533E+01  0.12334396964E+04  0.12334855127E+04  0.10000000000E+02 0. -1.
</event>
<event>
 5    1  0.1141915E-008  0.3748741E+03  0.7957747E-01  0.3473786E+00
         13   -1    0    0    0    0  0.00000000000E+00  0.00000000000E+00  0.14999999963E+04  0.15000000000E+04  0.10566000000E+00 0. -1.
        994   -1    0    0    0    0 -0.00000000000E+00 -0.00000000000E+00  0.11368683772E-12  0.17120000000E+03  0.17120000000E+03 0.  0.
         13    1    1    2    0    0  0.14284561371E+02  0.19545987666E+02  0.44441333887E+02  0.50607683696E+02  0.10566000000E+00 0. -1.
        994    1    1    2    0    0  0.67548058543E+01  0.10477952473E+02  0.72720823090E+01  0.17180727014E+03  0.17120000000E+03 0.  0.
        998    1    1    2    0    0 -0.21039367226E+02 -0.30023940138E+02  0.14482865801E+04  0.14487850462E+04  0.10000000000E+02 0. -1.
</event>
<event>
 5    1  0.1141915E-008  0.3823862E+03  0.7957747E-01  0.3440834E+00
         13   -1    0    0    0    0  0.00000000000E+00  0.00000000000E+00  0.14999999963E+04  0.15000000000E+04  0.10566000000E+00 0. -1.
        994   -1    0    0    0    0 -0.00000000000E+00 -0.00000000000E+00  0.11368683772E-12  0.17120000000E+03  0.17120000000E+03 0.  0.
         13    1    1    2    0    0 -0.27315444046E+02  0.10579516636E+01  0.15561113627E+03  0.15799395444E+03  0.10566000000E+00 0. -1.
        994    1    1    2    0    0 -0.10326830471E+02 -0.15105426839E+02  0.40447320342E+01  0.17222258041E+03  0.17120000000E+03 0.  0.
        998    1    1    2    0    0  0.37642274517E+02  0.14047475175E+02  0.13403441280E+04  0.13409834651E+04  0.10000000000E+02 0. -1.
</event>
<event>
 5    1  0.1141915E-008  0.3853253E+03  0.7957747E-01  0.3428294E+00
         13   -1    0    0    0    0  0.00000000000E+00  0.00000000000E+00  0.14999999963E+04  0.15000000000E+04  0.10566000000E+00 0.  1.
        994   -1    0    0    0    0 -0.00000000000E+00 -0.00000000000E+00  0.11368683772E-12  0.17120000000E+03  0.17120000000E+03 0.  0.
         13    1    1    2    0    0 -0.96943521664E+01 -0.35521534583E+01  0.36302156739E+02  0.37741966113E+02  0.10566000000E+00 0.  1.
        994    1    1    2    0    0  0.46809843071E+01  0.71608517289E+01  0.17091964102E+01  0.17142214199E+03  0.17120000000E+03 0.  0.
        998    1    1    2    0    0  0.50133678593E+01 -0.36086982706E+01  0.14619886431E+04  0.14620358919E+04  0.10000000000E+02 0.  1.
</event>
<event>
 5    1  0.1141915E-008  0.3814187E+03  0.7957747E-01  0.3445004E+00
         13   -1    0    0    0    0  0.00000000000E+00  0.00000000000E+00  0.14999999963E+04  0.15000000000E+04  0.10566000000E+00 0.  1.
        994   -1    0    0    0    0 -0.00000000000E+00 -0.00000000000E+00  0.11368683772E-12  0.17120000000E+03  0.17120000000E+03 0.  0.
         13    1    1    2    0    0  0.12015691190E+02  0.67952969843E+01  0.26324366246E+02  0.29724338818E+02  0.10566000000E+00 0.  1.
        994    1    1    2    0    0 -0.10559030884E+02 -0.60164321652E+01  0.39102506826E+01  0.17167533501E+03  0.17120000000E+03 0.  0.
        998    1    1    2    0    0 -0.14566603060E+01 -0.77886481912E+00  0.14697653793E+04  0.14698003262E+04  0.10000000000E+02 0.  1.
</event>
<event>
 5    1  0.1141915E-008  0.3739680E+03  0.7957747E-01  0.3477851E+00
         13   -1    0    0    0    0  0.00000000000E+00  0.00000000000E+00  0.14999999963E+04  0.15000000000E+04  0.10566000000E+00 0.  1.
        994   -1    0    0    0    0 -0.00000000000E+00 -0.00000000000E+00  0.11368683772E-12  0.17120000000E+03  0.17120000000E+03 0.  0.
         13    1    1    2    0    0 -0.13459092184E+02 -0.96105599596E+01  0.15691845613E+02  0.22798140449E+02  0.10566000000E+00 0.  1.
        994    1    1    2    0    0  0.11431319287E+02  0.10456240293E+02  0.80287152205E+01  0.17208692074E+03  0.17120000000E+03 0.  0.
        998    1    1    2    0    0  0.20277728974E+01 -0.84568033362E+00  0.14762794354E+04  0.14763149388E+04  0.10000000000E+02 0.  1.
</event>
<event>
 5    1  0.1141915E-008  0.3853927E+03  0.7957747E-01  0.3428008E+00
         13   -1    0    0    0    0  0.00000000000E+00  0.00000000000E+00  0.14999999963E+04  0.15000000000E+04  0.10566000000E+00 0. -1.
        994   -1    0    0    0    0 -0.00000000000E+00 -0.00000000000E+00  0.11368683772E-12  0.17120000000E+03  0.17120000000E+03 0.  0.
         13    1    1    2    0    0 -0.12361753495E+02 -0.90743146081E+01  0.75098477314E+02  0.76648213247E+02  0.10566000000E+00 0. -1.
        994    1    1    2    0    0  0.22236528791E+02  0.83598612300E+01  0.32910686648E+01  0.17287169122E+03  0.17120000000E+03 0.  0.
        998    1    1    2    0    0 -0.98747752961E+01  0.71445337806E+00  0.14216104503E+04  0.14216800955E+04  0.10000000000E+02 0. -1.
</event>
<event>
 5    1  0.1141915E-008  0.3846133E+03  0.7957747E-01  0.3431314E+00
         13   -1    0    0    0    0  0.00000000000E+00  0.00000000000E+00  0.14999999963E+04  0.15000000000E+04  0.10566000000E+00 0. -1.
        994   -1    0    0    0    0 -0.00000000000E+00 -0.00000000000E+00  0.11368683772E-12  0.17120000000E+03  0.17120000000E+03 0.  0.
         13    1    1    2    0    0  0.20193740033E+02 -0.21147390258E+01  0.10519848739E+03  0.10714005866E+03  0.10566000000E+00 0. -1.
        994    1    1    2    0    0 -0.22706931840E+02 -0.33170543917E+01  0.35581661169E+01  0.17276778678E+03  0.17120000000E+03 0.  0.
        998    1    1    2    0    0  0.25131918070E+01  0.54317934175E+01  0.13912433428E+04  0.13912921546E+04  0.10000000000E+02 0. -1.
</event>
<event>
 5    1  0.1141915E-008  0.3692658E+03  0.7957747E-01  0.3499272E+00
         13   -1    0    0    0    0  0.00000000000E+00  0.00000000000E+00  0.14999999963E+04  0.15000000000E+04  0.10566000000E+00 0.  1.
        994   -1    0    0    0    0 -0.00000000000E+00 -0.00000000000E+00  0.11368683772E-12  0.17120000000E+03  0.17120000000E+03 0.  0.
         13    1    1    2    0    0  0.62539849522E+01 -0.60619411147E+02  0.15475193277E+03  0.16631896222E+03  0.10566000000E+00 0.  1.
        994    1    1    2    0    0 -0.10931831559E+02  0.61056252630E+02  0.24089940648E+02  0.18367671645E+03  0.17120000000E+03 0.  0.
        998    1    1    2    0    0  0.46778466073E+01 -0.43684148232E+00  0.13211581229E+04  0.13212043213E+04  0.10000000000E+02 0.  1.
</event>
<event>
 5    1  0.1141915E-008  0.3833051E+03  0.7957747E-01  0.3436892E+00
         13   -1    0    0    0    0  0.00000000000E+00  0.00000000000E+00  0.14999999963E+04  0.15000000000E+04  0.10566000000E+00 0. -1.
        994   -1    0    0    0    0 -0.00000000000E+00 -0.00000000000E+00  0.11368683772E-12  0.17120000000E+03  0.17120000000E+03 0.  0.
         13    1    1    2    0    0  0.93370581545E+01  0.39485297438E+01  0.19609779167E+02  0.22075464778E+02  0.10566000000E+00 0. -1.
        994    1    1    2    0    0 -0.10391752366E+02 -0.46692068682E+01  0.29032772094E+01  0.17160320227E+03  0.17120000000E+03 0.  0.
        998    1    1    2    0    0  0.10546942115E+01  0.72067712435E+00  0.14774869399E+04  0.14775213330E+04  0.10000000000E+02 0. -1.
</event>
<event>
 5    1  0.1141915E-008  0.3718577E+03  0.7957747E-01  0.3487397E+00
         13   -1    0    0    0    0  0.00000000000E+00  0.00000000000E+00  0.14999999963E+04  0.15000000000E+04  0.10566000000E+00 0.  1.
        994   -1    0    0    0    0 -0.00000000000E+00 -0.00000000000E+00  0.11368683772E-12  0.17120000000E+03  0.17120000000E+03 0.  0.
         13    1    1    2    0    0  0.27702285131E+02  0.27082455588E+02  0.92107314024E+02  0.99923192818E+02  0.10566000000E+00 0.  1.
        994    1    1    2    0    0 -0.23839727792E+01 -0.12472501619E+02  0.88554840753E+01  0.17189853467E+03  0.17120000000E+03 0.  0.
        998    1    1    2    0    0 -0.25318312352E+02 -0.14609953969E+02  0.13990371982E+04  0.13993782725E+04  0.10000000000E+02 0.  1.
</event>
<event>
 5    1  0.1141915E-008  0.3786125E+03  0.7957747E-01  0.3457222E+00
         13   -1    0    0    0    0  0.00000000000E+00  0.00000000000E+00  0.14999999963E+04  0.15000000000E+04  0.10566000000E+00 0. -1.
        994   -1    0    0    0    0 -0.00000000000E+00 -0.00000000000E+00  0.11368683772E-12  0.17120000000E+03  0.17120000000E+03 0.  0.
         13    1    1    2    0    0  0.10695341395E+03 -0.12166056975E+03  0.53460842354E+03  0.55861122856E+03  0.10566000000E+00 0. -1.
        994    1    1    2    0    0 -0.10206278221E+03  0.11420260238E+03  0.10582506350E+03  0.25291783244E+03  0.17120000000E+03 0.  0.
        998    1    1    2    0    0 -0.48906317436E+01  0.74579673723E+01  0.85956650924E+03  0.85967093900E+03  0.10000000000E+02 0. -1.
</event>
<event>
 5    1  0.1141915E-008  0.3768625E+03  0.7957747E-01  0.3464935E+00
         13   -1    0    0    0    0  0.00000000000E+00  0.00000000000E+00  0.14999999963E+04  0.15000000000E+04  0.10566000000E+00 0. -1.
        994   -1    0    0    0    0 -0.00000000000E+00 -0.00000000000E+00  0.11368683772E-12  0.17120000000E+03  0.17120000000E+03 0.  0.
         13    1    1    2    0    0  0.22795997913E+02  0.42285605346E+02  0.25413259757E+03  0.25863317314E+03  0.10566000000E+00 0. -1.
        994    1    1    2    0    0  0.95681400866E+01 -0.65945153891E+00  0.60361949110E+01  0.17157464798E+03  0.17120000000E+03 0.  0.
        998    1    1    2    0    0 -0.32364138000E+02 -0.41626153807E+02  0.12398312038E+04  0.12409921789E+04  0.10000000000E+02 0.  0.
</event>
<event>
 5    1  0.1141915E-008  0.3835524E+03  0.7957747E-01  0.3435835E+00
         13   -1    0    0    0    0  0.00000000000E+00  0.00000000000E+00  0.14999999963E+04  0.15000000000E+04  0.10566000000E+00 0.  1.
        994   -1    0    0    0    0 -0.00000000000E+00 -0.00000000000E+00  0.11368683772E-12  0.17120000000E+03  0.17120000000E+03 0.  0.
         13    1    1    2    0    0 -0.18304280751E+01 -0.14079819745E+02  0.42076040704E+02  0.44407163345E+02  0.10566000000E+00 0.  1.
        994    1    1    2    0    0  0.46431158954E+01  0.98262925639E+01  0.27409226470E+01  0.17156650957E+03  0.17120000000E+03 0.  0.
        998    1    1    2    0    0 -0.28126878203E+01  0.42535271812E+01  0.14551830329E+04  0.14552263271E+04  0.10000000000E+02 0.  1.
</event>
<event>
 5    1  0.1141915E-008  0.3816848E+03  0.7957747E-01  0.3443855E+00
         13   -1    0    0    0    0  0.00000000000E+00  0.00000000000E+00  0.14999999963E+04  0.15000000000E+04  0.10566000000E+00 0.  1.
        994   -1    0    0    0    0 -0.00000000000E+00 -0.00000000000E+00  0.11368683772E-12  0.17120000000E+03  0.17120000000E+03 0.  0.
         13    1    1    2    0    0  0.10652074894E+02  0.32635974563E+02  0.16131205804E+03  0.16492472455E+03  0.10566000000E+00 0.  1.
        994    1    1    2    0    0 -0.48331207290E+02 -0.22366862005E+02  0.12771685636E+02  0.17974631587E+03  0.17120000000E+03 0.  0.
        998    1    1    2    0    0  0.37679132396E+02 -0.10269112558E+02  0.13259162526E+04  0.13265289596E+04  0.10000000000E+02 0.  1.
</event>
<event>
 5    1  0.1141915E-008  0.3831263E+03  0.7957747E-01  0.3437658E+00
         13   -1    0    0    0    0  0.00000000000E+00  0.00000000000E+00  0.14999999963E+04  0.15000000000E+04  0.10566000000E+00 0.  1.
        994   -1    0    0    0    0 -0.00000000000E+00 -0.00000000000E+00  0.11368683772E-12  0.17120000000E+03  0.17120000000E+03 0.  0.
         13    1    1    2    0    0 -0.56252657496E+01  0.24972649862E+02  0.13221899427E+03  0.13467423832E+03  0.10566000000E+00 0.  1.
        994    1    1    2    0    0 -0.19683512126E+01 -0.10892000893E+02  0.29687380609E+01  0.17158310959E+03  0.17120000000E+03 0.  0.
        998    1    1    2    0    0  0.75936169622E+01 -0.14080648969E+02  0.13648122639E+04  0.13649426521E+04  0.10000000000E+02 0.  1.
</event>
<event>
 5    1  0.1141915E-008  0.3704786E+03  0.7957747E-01  0.3493694E+00
         13   -1    0    0    0    0  0.00000000000E+00  0.00000000000E+00  0.14999999963E+04  0.15000000000E+04  0.10566000000E+00 0. -1.
        994   -1    0    0    0    0 -0.00000000000E+00 -0.00000000000E+00  0.11368683772E-12  0.17120000000E+03  0.17120000000E+03 0.  0.
         13    1    1    2    0    0  0.54577055221E+02 -0.10965293221E+01  0.14394679826E+03  0.15394982698E+03  0.10566000000E+00 0. -1.
        994    1    1    2    0    0 -0.59591719003E+02  0.31569690846E+01  0.21414223272E+02  0.18256272452E+03  0.17120000000E+03 0.  0.
        998    1    1    2    0    0  0.50146637824E+01 -0.20604397625E+01  0.13346389747E+04  0.13346874485E+04  0.10000000000E+02 0. -1.
</event>
<event>
 5    1  0.1141915E-008  0.3755576E+03  0.7957747E-01  0.3470733E+00
         13   -1    0    0    0    0  0.00000000000E+00  0.00000000000E+00  0.14999999963E+04  0.15000000000E+04  0.10566000000E+00 0.  1.
        994   -1    0    0    0    0 -0.00000000000E+00 -0.00000000000E+00  0.11368683772E-12  0.17120000000E+03  0.17120000000E+03 0.  0.
         13    1    1    2    0    0  0.62840083216E+02 -0.88675611674E+02  0.60279961623E+03  0.61251908432E+03  0.10566000000E+00 0.  1.
        994    1    1    2    0    0 -0.16298316326E+02  0.20941379664E+02  0.16422878271E+02  0.17402105455E+03  0.17120000000E+03 0.  0.
        998    1    1    2    0    0 -0.46541766890E+02  0.67734232011E+02  0.88077750178E+03  0.88465986113E+03  0.10000000000E+02 0.  1.
</event>
<event>
 5    1  0.1141915E-008  0.3780425E+03  0.7957747E-01  0.3459726E+00
         13   -1    0    0    0    0  0.00000000000E+00  0.00000000000E+00  0.14999999963E+04  0.15000000000E+04  0.10566000000E+00 0. -1.
        994   -1    0    0    0    0 -0.00000000000E+00 -0.00000000000E+00  0.11368683772E-12  0.17120000000E+03  0.17120000000E+03 0.  0.
         13    1    1    2    0    0  0.58830259806E+02  0.19569082815E+02  0.35665489132E+03  0.36200368939E+03  0.10566000000E+00 0. -1.
        994    1    1    2    0    0 -0.27587389646E+02 -0.58143585902E+02  0.19189210349E+02  0.18390053410E+03  0.17120000000E+03 0.  0.
        998    1    1    2    0    0 -0.31242870161E+02  0.38574503088E+02  0.11241558946E+04  0.11252957765E+04  0.10000000000E+02 0. -1.
</event>
<event>
 5    1  0.1141915E-008  0.3781065E+03  0.7957747E-01  0.3459445E+00
         13   -1    0    0    0    0  0.00000000000E+00  0.00000000000E+00  0.14999999963E+04  0.15000000000E+04  0.10566000000E+00 0. -1.
        994   -1    0    0    0    0 -0.00000000000E+00 -0.00000000000E+00  0.11368683772E-12  0.17120000000E+03  0.17120000000E+03 0.  0.
         13    1    1    2    0    0 -0.32574009818E+02  0.44447421469E+02  0.24718279111E+03  0.25325082977E+03  0.10566000000E+00 0. -1.
        994    1    1    2    0    0  0.40092482414E+02 -0.40309813250E+02  0.16043514969E+02  0.18110528033E+03  0.17120000000E+03 0.  0.
        998    1    1    2    0    0 -0.75184725957E+01 -0.41376082196E+01  0.12367736902E+04  0.12368438899E+04  0.10000000000E+02 0. -1.
</event>
<event>
 5    1  0.1141915E-008  0.3801822E+03  0.7957747E-01  0.3450365E+00
         13   -1    0    0    0    0  0.00000000000E+00  0.00000000000E+00  0.14999999963E+04  0.15000000000E+04  0.10566000000E+00 0.  1.
        994   -1    0    0    0    0 -0.00000000000E+00 -0.00000000000E+00  0.11368683772E-12  0.17120000000E+03  0.17120000000E+03 0.  0.
         13    1    1    2    0    0  0.43329124513E+01 -0.25151227069E+02  0.83062372780E+02  0.86894920963E+02  0.10566000000E+00 0.  1.
        994    1    1    2    0    0  0.46212888319E+01  0.67353085608E+01  0.42641278010E+01  0.17144778645E+03  0.17120000000E+03 0.  0.
        998    1    1    2    0    0 -0.89542012832E+01  0.18415918508E+02  0.14126734957E+04  0.14128572926E+04  0.10000000000E+02 0.  1.
</event>
<event>
 5    1  0.1141915E-008  0.3857198E+03  0.7957747E-01  0.3426625E+00
         13   -1    0    0    0    0  0.00000000000E+00  0.00000000000E+00  0.14999999963E+04  0.15000000000E+04  0.10566000000E+00 0. -1.
        994   -1    0    0    0    0 -0.00000000000E+00 -0.00000000000E+00  0.11368683772E-12  0.17120000000E+03  0.17120000000E+03 0.  0.
         13    1    1    2    0    0 -0.25635250670E+01 -0.13782751180E+02  0.70573144704E+02  0.71952177231E+02  0.10566000000E+00 0. -1.
        994    1    1    2    0    0 -0.66392864784E+01  0.24361975107E+02  0.33678814994E+01  0.17308485948E+03  0.17120000000E+03 0.  0.
        998    1    1    2    0    0  0.92028115454E+01 -0.10579223927E+02  0.14260589701E+04  0.14261629633E+04  0.10000000000E+02 0. -1.
</event>
<event>
 5    1  0.1141915E-008  0.3875900E+03  0.7957747E-01  0.3418761E+00
         13   -1    0    0    0    0  0.00000000000E+00  0.00000000000E+00  0.14999999963E+04  0.15000000000E+04  0.10566000000E+00 0.  1.
        994   -1    0    0    0    0 -0.00000000000E+00 -0.00000000000E+00  0.11368683772E-12  0.17120000000E+03  0.17120000000E+03 0.  0.
         13    1    1    2    0    0  0.17798442513E+02  0.34703581993E+02  0.24202071924E+02  0.45900703791E+02  0.10566000000E+00 0.  1.
        994    1    1    2    0    0 -0.58764441994E+02 -0.75338564559E+02  0.55454804168E+02  0.20374943990E+03  0.17120000000E+03 0.  0.
        998    1    1    2    0    0  0.40965999480E+02  0.40634982566E+02  0.14203431202E+04  0.14215498563E+04  0.10000000000E+02 0.  1.
</event>
<event>
 5    1  0.1141915E-008  0.3832849E+03  0.7957747E-01  0.3436979E+00
         13   -1    0    0    0    0  0.00000000000E+00  0.00000000000E+00  0.14999999963E+04  0.15000000000E+04  0.10566000000E+00 0.  1.
        994   -1    0    0    0    0 -0.00000000000E+00 -0.00000000000E+00  0.11368683772E-12  0.17120000000E+03  0.17120000000E+03 0.  0.
         13    1    1    2    0    0 -0.12806447343E+02  0.10833734577E+02  0.57213339633E+02  0.59621743471E+02  0.10566000000E+00 0.  1.
        994    1    1    2    0    0 -0.10396592358E+02 -0.22944614327E+02  0.45853469622E+01  0.17310404347E+03  0.17120000000E+03 0.  0.
        998    1    1    2    0    0  0.23203039701E+02  0.12110879751E+02  0.14382013097E+04  0.14384742131E+04  0.10000000000E+02 0.  1.
</event>
<event>
 5    1  0.1141915E-008  0.3748342E+03  0.7957747E-01  0.3473964E+00
         13   -1    0    0    0    0  0.00000000000E+00  0.00000000000E+00  0.14999999963E+04  0.15000000000E+04  0.10566000000E+00 0. -1.
        994   -1    0    0    0    0 -0.00000000000E+00 -0.00000000000E+00  0.11368683772E-12  0.17120000000E+03  0.17120000000E+03 0.  0.
         13    1    1    2    0    0  0.47201267482E+02  0.28993295189E+02  0.88991236419E+02  0.10482376706E+03  0.10566000000E+00 0. -1.
        994    1    1    2    0    0 -0.90747678082E+02 -0.37811784180E+02  0.48740411089E+02  0.20334684599E+03  0.17120000000E+03 0.  0.
        998    1    1    2    0    0  0.43546410601E+02  0.88184889915E+01  0.13622683488E+04  0.13630293869E+04  0.10000000000E+02 0. -1.
</event>
<event>
 5    1  0.1141915E-008  0.3817944E+03  0.7957747E-01  0.3443382E+00
         13   -1    0    0    0    0  0.00000000000E+00  0.00000000000E+00  0.14999999963E+04  0.15000000000E+04  0.10566000000E+00 0. -1.
        994   -1    0    0    0    0 -0.00000000000E+00 -0.00000000000E+00  0.11368683772E-12  0.17120000000E+03  0.17120000000E+03 0.  0.
         13    1    1    2    0    0 -0.81771788071E+00  0.10420947786E+02  0.15594110477E+02  0.18773711964E+02  0.10566000000E+00 0. -1.
        994    1    1    2    0    0 -0.20357465963E+01 -0.73322309018E+01  0.34225361654E+01  0.17140320775E+03  0.17120000000E+03 0.  0.
        998    1    1    2    0    0  0.28534644770E+01 -0.30887168846E+01  0.14809833496E+04  0.14810230803E+04  0.10000000000E+02 0. -1.
</event>
<event>
 5    1  0.1141915E-008  0.3784363E+03  0.7957747E-01  0.3457995E+00
         13   -1    0    0    0    0  0.00000000000E+00  0.00000000000E+00  0.14999999963E+04  0.15000000000E+04  0.10566000000E+00 0.  1.
        994   -1    0    0    0    0 -0.00000000000E+00 -0.00000000000E+00  0.11368683772E-12  0.17120000000E+03  0.17120000000E+03 0.  0.
         13    1    1    2    0    0  0.19484278613E+02  0.80579813245E+01  0.43127322819E+02  0.48005680015E+02  0.10566000000E+00 0.  1.
        994    1    1    2    0    0 -0.92703539434E+01 -0.15812989252E+02  0.60543908137E+01  0.17228489701E+03  0.17120000000E+03 0.  0.
        998    1    1    2    0    0 -0.10213924669E+02  0.77550079275E+01  0.14508182826E+04  0.14509094230E+04  0.10000000000E+02 0.  1.
</event>
<event>
 5    1  0.1141915E-008  0.3843145E+03  0.7957747E-01  0.3432585E+00
         13   -1    0    0    0    0  0.00000000000E+00  0.00000000000E+00  0.14999999963E+04  0.15000000000E+04  0.10566000000E+00 0.  1.
        994   -1    0    0    0    0 -0.00000000000E+00 -0.00000000000E+00  0.11368683772E-12  0.17120000000E+03  0.17120000000E+03 0.  0.
         13    1    1    2    0    0 -0.18026275682E+01  0.23055315762E+02  0.13775030364E+03  0.13967803824E+03  0.10566000000E+00 0.  1.
        994    1    1    2    0    0  0.43316823308E+01 -0.11834099807E+02  0.24944609352E+01  0.17168130861E+03  0.17120000000E+03 0.  0.
        998    1    1    2    0    0 -0.25290547626E+01 -0.11221215955E+02  0.13597552317E+04  0.13598406531E+04  0.10000000000E+02 0.  1.
</event>
<event>
 5    1  0.1141915E-008  0.3714566E+03  0.7957747E-01  0.3489223E+00
         13   -1    0    0    0    0  0.00000000000E+00  0.00000000000E+00  0.14999999963E+04  0.15000000000E+04  0.10566000000E+00 0.  1.
        994   -1    0    0    0    0 -0.00000000000E+00 -0.00000000000E+00  0.11368683772E-12  0.17120000000E+03  0.17120000000E+03 0.  0.
         13    1    1    2    0    0 -0.36267911702E+01 -0.15659826898E+02  0.11154276839E+02  0.19565603709E+02  0.10566000000E+00 0.  1.
        994    1    1    2    0    0  0.36548973225E+01  0.20657289689E+02  0.10025178605E+02  0.17277160096E+03  0.17120000000E+03 0.  0.
        998    1    1    2    0    0 -0.28106152294E-01 -0.49974627911E+01  0.14788205408E+04  0.14788627953E+04  0.10000000000E+02 0.  1.
</event>
<event>
 5    1  0.1141915E-008  0.3837572E+03  0.7957747E-01  0.3434960E+00
         13   -1    0    0    0    0  0.00000000000E+00  0.00000000000E+00  0.14999999963E+04  0.15000000000E+04  0.10566000000E+00 0.  1.
        994   -1    0    0    0    0 -0.00000000000E+00 -0.00000000000E+00  0.11368683772E-12  0.17120000000E+03  0.17120000000E+03 0.  0.
         13    1    1    2    0    0 -0.22492901223E+02  0.57802798409E+01  0.11549564398E+03  0.11780745809E+03  0.10566000000E+00 0.  1.
        994    1    1    2    0    0  0.16769596126E+02 -0.10981872613E+02  0.35763175461E+01  0.17240664409E+03  0.17120000000E+03 0.  0.
        998    1    1    2    0    0  0.57233050968E+01  0.52015927718E+01  0.13809280348E+04  0.13809858978E+04  0.10000000000E+02 0.  1.
</event>
<event>
 5    1  0.1141915E-008  0.3831557E+03  0.7957747E-01  0.3437532E+00
         13   -1    0    0    0    0  0.00000000000E+00  0.00000000000E+00  0.14999999963E+04  0.15000000000E+04  0.10566000000E+00 0. -1.
        994   -1    0    0    0    0 -0.00000000000E+00 -0.00000000000E+00  0.11368683772E-12  0.17120000000E+03  0.17120000000E+03 0.  0.
         13    1    1    2    0    0 -0.18575601651E+02 -0.19967362482E+01  0.65373705882E+02  0.67990973791E+02  0.10566000000E+00 0. -1.
        994    1    1    2    0    0  0.18016698574E+02  0.10901202170E+02  0.40170274875E+01  0.17253699356E+03  0.17120000000E+03 0.  0.
        998    1    1    2    0    0  0.55890307707E+00 -0.89044659215E+01  0.14306092629E+04  0.14306720327E+04  0.10000000000E+02 0. -1.
</event>
<event>
 5    1  0.1141915E-008  0.3841310E+03  0.7957747E-01  0.3433366E+00
         13   -1    0    0    0    0  0.00000000000E+00  0.00000000000E+00  0.14999999963E+04  0.15000000000E+04  0.10566000000E+00 0. -1.
        994   -1    0    0    0    0 -0.00000000000E+00 -0.00000000000E+00  0.11368683772E-12  0.17120000000E+03  0.17120000000E+03 0.  0.
         13    1    1    2    0    0  0.10821337997E+02  0.15586409916E+01  0.28098065952E+02  0.30150343150E+02  0.10566000000E+00 0. -1.
        994    1    1    2    0    0 -0.92859399997E+01 -0.86385691337E+01  0.25928819157E+01  0.17168872006E+03  0.17120000000E+03 0.  0.
        998    1    1    2    0    0 -0.15353979970E+01  0.70799281422E+01  0.14693090484E+04  0.14693609368E+04  0.10000000000E+02 0. -1.
</event>
<event>
 5    1  0.1141915E-008  0.3739193E+03  0.7957747E-01  0.3478070E+00
         13   -1    0    0    0    0  0.00000000000E+00  0.00000000000E+00  0.14999999963E+04  0.15000000000E+04  0.10566000000E+00 0.  1.
        994   -1    0    0    0    0 -0.00000000000E+00 -0.00000000000E+00  0.11368683772E-12  0.17120000000E+03  0.17120000000E+03 0.  0.
         13    1    1    2    0    0  0.23196970975E+02 -0.23822369738E+02  0.71174385628E+02  0.78558316529E+02  0.10566000000E+00 0.  1.
        994    1    1    2    0    0 -0.25320074071E+02  0.18763231167E+02  0.10630520705E+02  0.17440072524E+03  0.17120000000E+03 0.  0.
        998    1    1    2    0    0  0.21231030958E+01  0.50591385706E+01  0.14181950899E+04  0.14182409582E+04  0.10000000000E+02 0.  1.
</event>
<event>
 5    1  0.1141915E-008  0.3786243E+03  0.7957747E-01  0.3457170E+00
         13   -1    0    0    0    0  0.00000000000E+00  0.00000000000E+00  0.14999999963E+04  0.15000000000E+04  0.10566000000E+00 0.  1.
        994   -1    0    0    0    0 -0.00000000000E+00 -0.00000000000E+00  0.11368683772E-12  0.17120000000E+03  0.17120000000E+03 0.  0.
         13    1    1    2    0    0  0.81787462194E+01 -0.17918620669E+02  0.37959827062E+02  0.42765973519E+02  0.10566000000E+00 0.  1.
        994    1    1    2    0    0 -0.52829844447E+01  0.14849085525E+02  0.56638076015E+01  0.17201722002E+03  0.17120000000E+03 0.  0.
        998    1    1    2    0    0 -0.28957617746E+01  0.30695351437E+01  0.14563763616E+04  0.14564168065E+04  0.10000000000E+02 0.  1.
</event>
<event>
 5    1  0.1141915E-008  0.3854091E+03  0.7957747E-01  0.3427939E+00
         13   -1    0    0    0    0  0.00000000000E+00  0.00000000000E+00  0.14999999963E+04  0.15000000000E+04  0.10566000000E+00 0.  1.
        994   -1    0    0    0    0 -0.00000000000E+00 -0.00000000000E+00  0.11368683772E-12  0.17120000000E+03  0.17120000000E+03 0.  0.
         13    1    1    2    0    0 -0.67864704437E+01 -0.12495712167E+02  0.69798073417E+02  0.71231883454E+02  0.10566000000E+00 0.  1.
        994    1    1    2    0    0  0.79163622040E+01  0.94651760937E+01  0.19273999439E+01  0.17165492483E+03  0.17120000000E+03 0.  0.
        998    1    1    2    0    0 -0.11298917603E+01  0.30305360732E+01  0.14282745229E+04  0.14283131917E+04  0.10000000000E+02 0.  1.
</event>
<event>
 5    1  0.1141915E-008  0.3836840E+03  0.7957747E-01  0.3435273E+00
         13   -1    0    0    0    0  0.00000000000E+00  0.00000000000E+00  0.14999999963E+04  0.15000000000E+04  0.10566000000E+00 0. -1.
        994   -1    0    0    0    0 -0.00000000000E+00 -0.00000000000E+00  0.11368683772E-12  0.17120000000E+03  0.17120000000E+03 0.  0.
         13    1    1    2    0    0 -0.50799537459E+01  0.14971878392E+02  0.57391578412E+02  0.59529551563E+02  0.10566000000E+00 0. -1.
        994    1    1    2    0    0  0.10149911119E+02  0.43204193459E+01  0.26869148917E+01  0.17157606544E+03  0.17120000000E+03 0.  0.
        998    1    1    2    0    0 -0.50699573729E+01 -0.19292297738E+02  0.14399215030E+04  0.14400943830E+04  0.10000000000E+02 0. -1.
</event>
<event>
 5    1  0.1141915E-008  0.3807339E+03  0.7957747E-01  0.3447969E+00
         13   -1    0    0    0    0  0.00000000000E+00  0.00000000000E+00  0.14999999963E+04  0.15000000000E+04  0.10566000000E+00 0.  1.
        994   -1    0    0    0    0 -0.00000000000E+00 -0.00000000000E+00  0.11368683772E-12  0.17120000000E+03  0.17120000000E+03 0.  0.
         13    1    1    2    0    0  0.16450972089E+03  0.86211134566E+01  0.98993700808E+03  0.10035502294E+04  0.10566000000E+00 0.  1.
        994    1    1    2    0    0 -0.16628922755E+03 -0.24345508705E+02  0.10453558983E+03  0.26169054345E+03  0.17120000000E+03 0.  0.
        998    1    1    2    0    0  0.17795066608E+01  0.15724395248E+02  0.40552739837E+03  0.40595922711E+03  0.10000000000E+02 0.  0.
</event>
<event>
 5    1  0.1141915E-008  0.3831295E+03  0.7957747E-01  0.3437644E+00
         13   -1    0    0    0    0  0.00000000000E+00  0.00000000000E+00  0.14999999963E+04  0.15000000000E+04  0.10566000000E+00 0.  1.
        994   -1    0    0    0    0 -0.00000000000E+00 -0.00000000000E+00  0.11368683772E-12  0.17120000000E+03  0.17120000000E+03 0.  0.
         13    1    1    2    0    0 -0.35445068876E+01 -0.11069275824E+02  0.25985746073E+02  0.28466867747E+02  0.10566000000E+00 0.  1.
        994    1    1    2    0    0 -0.49384308023E+01  0.40461240835E+01  0.26965342091E+01  0.17134021862E+03  0.17120000000E+03 0.  0.
        998    1    1    2    0    0  0.84829376899E+01  0.70231517408E+01  0.14713177160E+04  0.14713929136E+04  0.10000000000E+02 0.  1.
</event>
<event>
 5    1  0.1141915E-008  0.3835138E+03  0.7957747E-01  0.3436000E+00
         13   -1    0    0    0    0  0.00000000000E+00  0.00000000000E+00  0.14999999963E+04  0.15000000000E+04  0.10566000000E+00 0. -1.
        994   -1    0    0    0    0 -0.00000000000E+00 -0.00000000000E+00  0.11368683772E-12  0.17120000000E+03  0.17120000000E+03 0.  0.
         13    1    1    2    0    0 -0.79025185716E+00  0.11431132248E+02  0.26116852310E+02  0.28520105559E+02  0.10566000000E+00 0. -1.
        994    1    1    2    0    0 -0.10165118551E+02 -0.17296709283E+02  0.37010380185E+01  0.17241126260E+03  0.17120000000E+03 0.  0.
        998    1    1    2    0    0  0.10955370408E+02  0.58655770354E+01  0.14701821059E+04  0.14702686318E+04  0.10000000000E+02 0. -1.
</event>
<event>
 5    1  0.1141915E-008  0.3695255E+03  0.7957747E-01  0.3498074E+00
         13   -1    0    0    0    0  0.00000000000E+00  0.00000000000E+00  0.14999999963E+04  0.15000000000E+04  0.10566000000E+00 0.  1.
        994   -1    0    0    0    0 -0.00000000000E+00 -0.00000000000E+00  0.11368683772E-12  0.17120000000E+03  0.17120000000E+03 0.  0.
         13    1    1    2    0    0  0.14573377293E+02 -0.69203021401E+02  0.20808459076E+03  0.21977408758E+03  0.10566000000E+00 0.  1.
        994    1    1    2    0    0  0.26230697122E+02  0.92623543217E+02  0.42334871268E+02  0.20092001283E+03  0.17120000000E+03 0.  0.
        998    1    1    2    0    0 -0.40804074415E+02 -0.23420521816E+02  0.12495805343E+04  0.12505058996E+04  0.10000000000E+02 0.  1.
</event>
<event>
 5    1  0.1141915E-008  0.3746721E+03  0.7957747E-01  0.3474690E+00
         13   -1    0    0    0    0  0.00000000000E+00  0.00000000000E+00  0.14999999963E+04  0.15000000000E+04  0.10566000000E+00 0. -1.
        994   -1    0    0    0    0 -0.00000000000E+00 -0.00000000000E+00  0.11368683772E-12  0.17120000000E+03  0.17120000000E+03 0.  0.
         13    1    1    2    0    0  0.33238732156E+02 -0.12809232595E+03  0.42872563803E+03  0.44868490185E+03  0.10566000000E+00 0. -1.
        994    1    1    2    0    0 -0.32580858867E+02  0.13245775623E+03  0.82882917640E+02  0.23406321280E+03  0.17120000000E+03 0.  0.
        998    1    1    2    0    0 -0.65787328934E+00 -0.43654302845E+01  0.98839144061E+03  0.98845188534E+03  0.10000000000E+02 0.  0.
</event>
<event>
 5    1  0.1141915E-008  0.3826251E+03  0.7957747E-01  0.3439807E+00
         13   -1    0    0    0    0  0.00000000000E+00  0.00000000000E+00  0.14999999963E+04  0.15000000000E+04  0.10566000000E+00 0.  1.
        994   -1    0    0    0    0 -0.00000000000E+00 -0.00000000000E+00  0.11368683772E-12  0.17120000000E+03  0.17120000000E+03 0.  0.
         13    1    1    2    0    0  0.21525710421E+02  0.76902592477E+00  0.79874015276E+02  0.82727366030E+02  0.10566000000E+00 0.  1.
        994    1    1    2    0    0 -0.17306669829E+02 -0.56806812009E+01  0.39142316112E+01  0.17221077832E+03  0.17120000000E+03 0.  0.
        998    1    1    2    0    0 -0.42190405924E+01  0.49116552761E+01  0.14162117494E+04  0.14162618557E+04  0.10000000000E+02 0.  1.
</event>
<event>
 5    1  0.1141915E-008  0.3775504E+03  0.7957747E-01  0.3461895E+00
         13   -1    0    0    0    0  0.00000000000E+00  0.00000000000E+00  0.14999999963E+04  0.15000000000E+04  0.10566000000E+00 0.  1.
        994   -1    0    0    0    0 -0.00000000000E+00 -0.00000000000E+00  0.11368683772E-12  0.17120000000E+03  0.17120000000E+03 0.  0.
         13    1    1    2    0    0 -0.31202910117E+02  0.77772839731E+00  0.96173728376E+02  0.10111193626E+03  0.10566000000E+00 0.  1.
        994    1    1    2    0    0  0.16328289369E+01  0.71762453035E+01  0.55574173171E+01  0.17144821234E+03  0.17120000000E+03 0.  0.
        998    1    1    2    0    0  0.29570081180E+02 -0.79539737008E+01  0.13982688506E+04  0.13986398514E+04  0.10000000000E+02 0.  1.
</event>
<event>
 5    1  0.1141915E-008  0.3830321E+03  0.7957747E-01  0.3438061E+00
         13   -1    0    0    0    0  0.00000000000E+00  0.00000000000E+00  0.14999999963E+04  0.15000000000E+04  0.10566000000E+00 0. -1.
        994   -1    0    0    0    0 -0.00000000000E+00 -0.00000000000E+00  0.11368683772E-12  0.17120000000E+03  0.17120000000E+03 0.  0.
         13    1    1    2    0    0  0.91656480132E+01 -0.23318162530E+02  0.12041742617E+03  0.12299639627E+03  0.10566000000E+00 0. -1.
        994    1    1    2    0    0 -0.18739744682E+02  0.81560018563E+01  0.39940377754E+01  0.17246185298E+03  0.17120000000E+03 0.  0.
        998    1    1    2    0    0  0.95740966693E+01  0.15162160674E+02  0.13755885323E+04  0.13757417507E+04  0.10000000000E+02 0. -1.
</event>
<event>
 5    1  0.1141915E-008  0.3693806E+03  0.7957747E-01  0.3498742E+00
         13   -1    0    0    0    0  0.00000000000E+00  0.00000000000E+00  0.14999999963E+04  0.15000000000E+04  0.10566000000E+00 0. -1.
        994   -1    0    0    0    0 -0.00000000000E+00 -0.00000000000E+00  0.11368683772E-12  0.17120000000E+03  0.17120000000E+03 0.  0.
         13    1    1    2    0    0 -0.40777053162E+02 -0.28050778815E+01  0.70450050820E+02  0.81448495082E+02  0.10566000000E+00 0. -1.
        994    1    1    2    0    0  0.45071036066E+02  0.14713300308E+02  0.18494600213E+02  0.17860394658E+03  0.17120000000E+03 0.  0.
        998    1    1    2    0    0 -0.42939829040E+01 -0.11908222426E+02  0.14110553452E+04  0.14111475583E+04  0.10000000000E+02 0. -1.
</event>
<event>
 5    1  0.1141915E-008  0.3736912E+03  0.7957747E-01  0.3479097E+00
         13   -1    0    0    0    0  0.00000000000E+00  0.00000000000E+00  0.14999999963E+04  0.15000000000E+04  0.10566000000E+00 0.  1.
        994   -1    0    0    0    0 -0.00000000000E+00 -0.00000000000E+00  0.11368683772E-12  0.17120000000E+03  0.17120000000E+03 0.  0.
         13    1    1    2    0    0  0.19954797030E+02  0.32424293299E+02  0.90321221963E+02  0.98017666884E+02  0.10566000000E+00 0.  1.
        994    1    1    2    0    0 -0.18069078419E+02 -0.34858102884E+02  0.12633995571E+02  0.17609837244E+03  0.17120000000E+03 0.  0.
        998    1    1    2    0    0 -0.18857186105E+01  0.24338095849E+01  0.13970447787E+04  0.13970839607E+04  0.10000000000E+02 0.  1.
</event>
<event>
 5    1  0.1141915E-008  0.3737172E+03  0.7957747E-01  0.3478980E+00
         13   -1    0    0    0    0  0.00000000000E+00  0.00000000000E+00  0.14999999963E+04  0.15000000000E+04  0.10566000000E+00 0.  1.
        994   -1    0    0    0    0 -0.00000000000E+00 -0.00000000000E+00  0.11368683772E-12  0.17120000000E+03  0.17120000000E+03 0.  0.
         13    1    1    2    0    0  0.14184175875E+02 -0.58279311709E+00  0.19084278231E+01  0.14324236589E+02  0.10566000000E+00 0.  1.
        994    1    1    2    0    0 -0.86570257876E+01  0.27653207512E+01  0.13210639740E+02  0.17194927187E+03  0.17120000000E+03 0.  0.
        998    1    1    2    0    0 -0.55271500877E+01 -0.21825276341E+01  0.14848809287E+04  0.14849264915E+04  0.10000000000E+02 0.  1.
</event>
<event>
 5    1  0.1141915E-008  0.3773173E+03  0.7957747E-01  0.3462923E+00
         13   -1    0    0    0    0  0.00000000000E+00  0.00000000000E+00  0.14999999963E+04  0.15000000000E+04  0.10566000000E+00 0.  1.
        994   -1    0    0    0    0 -0.00000000000E+00 -0.00000000000E+00  0.11368683772E-12  0.17120000000E+03  0.17120000000E+03 0.  0.
         13    1    1    2    0    0  0.33425965043E+02  0.10765069872E+02  0.10337074738E+03  0.10917281917E+03  0.10566000000E+00 0.  1.
        994    1    1    2    0    0 -0.30095133514E+02 -0.22084202305E+02  0.10207758523E+02  0.17551942168E+03  0.17120000000E+03 0.  0.
        998    1    1    2    0    0 -0.33308315292E+01  0.11319132433E+02  0.13864214904E+04  0.13865077591E+04  0.10000000000E+02 0.  1.
</event>
<event>
 5    1  0.1141915E-008  0.3832026E+03  0.7957747E-01  0.3437331E+00
         13   -1    0    0    0    0  0.00000000000E+00  0.00000000000E+00  0.14999999963E+04  0.15000000000E+04  0.10566000000E+00 0.  1.
        994   -1    0    0    0    0 -0.00000000000E+00 -0.00000000000E+00  0.11368683772E-12  0.17120000000E+03  0.17120000000E+03 0.  0.
         13    1    1    2    0    0 -0.16030609097E+02 -0.27207570660E+02  0.17639113818E+03  0.17919563924E+03  0.10566000000E+00 0.  1.
        994    1    1    2    0    0  0.13492063077E+02  0.28572677574E+02  0.58349136200E+01  0.17418932197E+03  0.17120000000E+03 0.  0.
        998    1    1    2    0    0  0.25385460199E+01 -0.13651069140E+01  0.13177739445E+04  0.13178150388E+04  0.10000000000E+02 0.  1.
</event>
<event>
 5    1  0.1141915E-008  0.3720578E+03  0.7957747E-01  0.3486487E+00
         13   -1    0    0    0    0  0.00000000000E+00  0.00000000000E+00  0.14999999963E+04  0.15000000000E+04  0.10566000000E+00 0. -1.
        994   -1    0    0    0    0 -0.00000000000E+00 -0.00000000000E+00  0.11368683772E-12  0.17120000000E+03  0.17120000000E+03 0.  0.
         13    1    1    2    0    0 -0.30561218093E+02  0.27689281006E+02  0.10128394611E+03  0.10935782202E+03  0.10566000000E+00 0. -1.
        994    1    1    2    0    0  0.15856647550E+02 -0.18896526730E+02  0.10289427388E+02  0.17327384197E+03  0.17120000000E+03 0.  0.
        998    1    1    2    0    0  0.14704570542E+02 -0.87927542761E+01  0.13884266228E+04  0.13885683360E+04  0.10000000000E+02 0.  1.
</event>
<event>
 5    1  0.1141915E-008  0.3742335E+03  0.7957747E-01  0.3476658E+00
         13   -1    0    0    0    0  0.00000000000E+00  0.00000000000E+00  0.14999999963E+04  0.15000000000E+04  0.10566000000E+00 0. -1.
        994   -1    0    0    0    0 -0.00000000000E+00 -0.00000000000E+00  0.11368683772E-12  0.17120000000E+03  0.17120000000E+03 0.  0.
         13    1    1    2    0    0 -0.12351038469E+03 -0.87174996287E+02  0.61811735450E+03  0.63633589416E+03  0.10566000000E+00 0. -1.
        994    1    1    2    0    0  0.13936546448E+03  0.10904493815E+03  0.12263058625E+03  0.27506586831E+03  0.17120000000E+03 0.  0.
        998    1    1    2    0    0 -0.15855079790E+02 -0.21869941867E+02  0.75925205553E+03  0.75979823752E+03  0.10000000000E+02 0.  1.
</event>
<event>
 5    1  0.1141915E-008  0.3834503E+03  0.7957747E-01  0.3436271E+00
         13   -1    0    0    0    0  0.00000000000E+00  0.00000000000E+00  0.14999999963E+04  0.15000000000E+04  0.10566000000E+00 0. -1.
        994   -1    0    0    0    0 -0.00000000000E+00 -0.00000000000E+00  0.11368683772E-12  0.17120000000E+03  0.17120000000E+03 0.  0.
         13    1    1    2    0    0 -0.62443937505E+01 -0.83861772602E+01  0.21260527569E+02  0.23692649048E+02  0.10566000000E+00 0. -1.
        994    1    1    2    0    0  0.11780705415E+02  0.12065525515E+02  0.33419309340E+01  0.17206094975E+03  0.17120000000E+03 0.  0.
        998    1    1    2    0    0 -0.55363116642E+01 -0.36793482543E+01  0.14753975378E+04  0.14754464012E+04  0.10000000000E+02 0. -1.
</event>
<event>
 5    1  0.1141915E-008  0.3859210E+03  0.7957747E-01  0.3425775E+00
         13   -1    0    0    0    0  0.00000000000E+00  0.00000000000E+00  0.14999999963E+04  0.15000000000E+04  0.10566000000E+00 0. -1.
        994   -1    0    0    0    0 -0.00000000000E+00 -0.00000000000E+00  0.11368683772E-12  0.17120000000E+03  0.17120000000E+03 0.  0.
         13    1    1    2    0    0 -0.21036411027E+02  0.65540044915E+01  0.12426418147E+03  0.12620254960E+03  0.10566000000E+00 0. -1.
        994    1    1    2    0    0  0.71093427465E+02 -0.59690480153E+01  0.18044028758E+02  0.18634626891E+03  0.17120000000E+03 0.  0.
        998    1    1    2    0    0 -0.50057016438E+02 -0.58495647620E+00  0.13576917860E+04  0.13586511815E+04  0.10000000000E+02 0. -1.
</event>
<event>
 5    1  0.1141915E-008  0.3840799E+03  0.7957747E-01  0.3433584E+00
         13   -1    0    0    0    0  0.00000000000E+00  0.00000000000E+00  0.14999999963E+04  0.15000000000E+04  0.10566000000E+00 0.  1.
        994   -1    0    0    0    0 -0.00000000000E+00 -0.00000000000E+00  0.11368683772E-12  0.17120000000E+03  0.17120000000E+03 0.  0.
         13    1    1    2    0    0  0.13053486761E+02  0.18096979434E+02  0.12362218267E+03  0.12561986067E+03  0.10566000000E+00 0.  1.
        994    1    1    2    0    0 -0.34489726735E+01 -0.83282201541E+01  0.23556825985E+01  0.17145332865E+03  0.17120000000E+03 0.  0.
        998    1    1    2    0    0 -0.96045140874E+01 -0.97687592800E+01  0.13740221310E+04  0.13741268107E+04  0.10000000000E+02 0.  1.
</event>
<event>
 5    1  0.1141915E-008  0.3847802E+03  0.7957747E-01  0.3430605E+00
         13   -1    0    0    0    0  0.00000000000E+00  0.00000000000E+00  0.14999999963E+04  0.15000000000E+04  0.10566000000E+00 0. -1.
        994   -1    0    0    0    0 -0.00000000000E+00 -0.00000000000E+00  0.11368683772E-12  0.17120000000E+03  0.17120000000E+03 0.  0.
         13    1    1    2    0    0  0.10670397254E+02  0.21217489719E+01  0.35855410321E+02  0.37469731912E+02  0.10566000000E+00 0. -1.
        994    1    1    2    0    0  0.27454212473E+01  0.14090520906E+02  0.24178121268E+01  0.17181782775E+03  0.17120000000E+03 0.  0.
        998    1    1    2    0    0 -0.13415818501E+02 -0.16212269878E+02  0.14617267738E+04  0.14619124403E+04  0.10000000000E+02 0. -1.
</event>
<event>
 5    1  0.1141915E-008  0.3826440E+03  0.7957747E-01  0.3439726E+00
         13   -1    0    0    0    0  0.00000000000E+00  0.00000000000E+00  0.14999999963E+04  0.15000000000E+04  0.10566000000E+00 0.  1.
        994   -1    0    0    0    0 -0.00000000000E+00 -0.00000000000E+00  0.11368683772E-12  0.17120000000E+03  0.17120000000E+03 0.  0.
         13    1    1    2    0    0  0.12967100452E+02 -0.56387637768E+01  0.33767509751E+02  0.36608704292E+02  0.10566000000E+00 0.  1.
        994    1    1    2    0    0 -0.17008064214E+02  0.31546621793E+01  0.37966414319E+01  0.17211356898E+03  0.17120000000E+03 0.  0.
        998    1    1    2    0    0  0.40409637620E+01  0.24841015976E+01  0.14624358451E+04  0.14624777267E+04  0.10000000000E+02 0.  1.
</event>
<event>
 5    1  0.1141915E-008  0.3844210E+03  0.7957747E-01  0.3432132E+00
         13   -1    0    0    0    0  0.00000000000E+00  0.00000000000E+00  0.14999999963E+04  0.15000000000E+04  0.10566000000E+00 0.  1.
        994   -1    0    0    0    0 -0.00000000000E+00 -0.00000000000E+00  0.11368683772E-12  0.17120000000E+03  0.17120000000E+03 0.  0.
         13    1    1    2    0    0  0.49449574348E+01  0.21410961203E+02  0.99052385284E+02  0.10146067247E+03  0.10566000000E+00 0.  1.
        994    1    1    2    0    0 -0.17839526351E+02 -0.45141139245E+02  0.97193397154E+01  0.17821300939E+03  0.17120000000E+03 0.  0.
        998    1    1    2    0    0  0.12894568916E+02  0.23730178042E+02  0.13912282713E+04  0.13915263181E+04  0.10000000000E+02 0.  1.
</event>
<event>
 5    1  0.1141915E-008  0.3825594E+03  0.7957747E-01  0.3440089E+00
         13   -1    0    0    0    0  0.00000000000E+00  0.00000000000E+00  0.14999999963E+04  0.15000000000E+04  0.10566000000E+00 0.  1.
        994   -1    0    0    0    0 -0.00000000000E+00 -0.00000000000E+00  0.11368683772E-12  0.17120000000E+03  0.17120000000E+03 0.  0.
         13    1    1    2    0    0  0.29621033244E+02  0.67035698676E+01  0.16438009811E+03  0.16716211077E+03  0.10566000000E+00 0.  1.
        994    1    1    2    0    0 -0.16372268064E+02  0.23094176694E+01  0.37534699656E+01  0.17203753401E+03  0.17120000000E+03 0.  0.
        998    1    1    2    0    0 -0.13248765180E+02 -0.90129875370E+01  0.13318664282E+04  0.13320003552E+04  0.10000000000E+02 0.  1.
</event>
<event>
 5    1  0.1141915E-008  0.3810643E+03  0.7957747E-01  0.3446537E+00
         13   -1    0    0    0    0  0.00000000000E+00  0.00000000000E+00  0.14999999963E+04  0.15000000000E+04  0.10566000000E+00 0.  1.
        994   -1    0    0    0    0 -0.00000000000E+00 -0.00000000000E+00  0.11368683772E-12  0.17120000000E+03  0.17120000000E+03 0.  0.
         13    1    1    2    0    0  0.44133658063E+01 -0.29283116837E+02  0.12855185632E+03  0.13191879948E+03  0.10566000000E+00 0.  1.
        994    1    1    2    0    0 -0.11171851883E+02  0.62108933099E+01  0.41413079200E+01  0.17172645661E+03  0.17120000000E+03 0.  0.
        998    1    1    2    0    0  0.67584860763E+01  0.23072223527E+02  0.13673068320E+04  0.13675547439E+04  0.10000000000E+02 0.  1.
</event>
<event>
 5    1  0.1141915E-008  0.3759365E+03  0.7957747E-01  0.3469045E+00
         13   -1    0    0    0    0  0.00000000000E+00  0.00000000000E+00  0.14999999963E+04  0.15000000000E+04  0.10566000000E+00 0.  1.
        994   -1    0    0    0    0 -0.00000000000E+00 -0.00000000000E+00  0.11368683772E-12  0.17120000000E+03  0.17120000000E+03 0.  0.
         13    1    1    2    0    0  0.89973480599E+01 -0.23302207982E+02  0.47188515027E+02  0.53392061989E+02  0.10566000000E+00 0.  1.
        994    1    1    2    0    0 -0.58144811397E+01  0.20509167784E+02  0.77399798444E+01  0.17269563238E+03  0.17120000000E+03 0.  0.
        998    1    1    2    0    0 -0.31828669203E+01  0.27930401975E+01  0.14450715014E+04  0.14451123056E+04  0.10000000000E+02 0.  1.
</event>
<event>
 5    1  0.1141915E-008  0.3933134E+03  0.7957747E-01  0.3395162E+00
         13   -1    0    0    0    0  0.00000000000E+00  0.00000000000E+00  0.14999999963E+04  0.15000000000E+04  0.10566000000E+00 0.  1.
        994   -1    0    0    0    0 -0.00000000000E+00 -0.00000000000E+00  0.11368683772E-12  0.17120000000E+03  0.17120000000E+03 0.  0.
         13    1    1    2    0    0 -0.49497970422E+02  0.19309172882E+02  0.43155635328E+02  0.68449348118E+02  0.10566000000E+00 0.  1.
        994    1    1    2    0    0  0.73840730796E+02 -0.75120322801E+02  0.67505649724E+02  0.21204237588E+03  0.17120000000E+03 0.  0.
        998    1    1    2    0    0 -0.24342760375E+02  0.55811149919E+02  0.13893387112E+04  0.13907082760E+04  0.10000000000E+02 0.  1.
</event>
<event>
 5    1  0.1141915E-008  0.3837722E+03  0.7957747E-01  0.3434896E+00
         13   -1    0    0    0    0  0.00000000000E+00  0.00000000000E+00  0.14999999963E+04  0.15000000000E+04  0.10566000000E+00 0. -1.
        994   -1    0    0    0    0 -0.00000000000E+00 -0.00000000000E+00  0.11368683772E-12  0.17120000000E+03  0.17120000000E+03 0.  0.
         13    1    1    2    0    0 -0.27128959794E+02 -0.16126701868E+02  0.18221601540E+03  0.18492900909E+03  0.10566000000E+00 0. -1.
        994    1    1    2    0    0  0.38510284654E+02  0.14545879698E+02  0.78564505654E+01  0.17625489626E+03  0.17120000000E+03 0.  0.
        998    1    1    2    0    0 -0.11381324859E+02  0.15808221706E+01  0.13099275303E+04  0.13100160946E+04  0.10000000000E+02 0. -1.
</event>
<event>
 5    1  0.1141915E-008  0.3804240E+03  0.7957747E-01  0.3449314E+00
         13   -1    0    0    0    0  0.00000000000E+00  0.00000000000E+00  0.14999999963E+04  0.15000000000E+04  0.10566000000E+00 0.  1.
        994   -1    0    0    0    0 -0.00000000000E+00 -0.00000000000E+00  0.11368683772E-12  0.17120000000E+03  0.17120000000E+03 0.  0.
         13    1    1    2    0    0  0.36884523974E+02 -0.44789608241E+02  0.90771229313E+02  0.10773116703E+03  0.10566000000E+00 0.  1.
        994    1    1    2    0    0 -0.35981398183E+02  0.44719702286E+02  0.28615478250E+02  0.18281903179E+03  0.17120000000E+03 0.  0.
        998    1    1    2    0    0 -0.90312579124E+00  0.69905954431E-01  0.13806132887E+04  0.13806498012E+04  0.10000000000E+02 0.  0.
</event>
<event>
 5    1  0.1141915E-008  0.3786570E+03  0.7957747E-01  0.3457027E+00
         13   -1    0    0    0    0  0.00000000000E+00  0.00000000000E+00  0.14999999963E+04  0.15000000000E+04  0.10566000000E+00 0.  1.
        994   -1    0    0    0    0 -0.00000000000E+00 -0.00000000000E+00  0.11368683772E-12  0.17120000000E+03  0.17120000000E+03 0.  0.
         13    1    1    2    0    0  0.16689172761E+02  0.38938856760E+01  0.28208037424E+02  0.33005989948E+02  0.10566000000E+00 0.  1.
        994    1    1    2    0    0 -0.15927052903E+02 -0.19145959093E+01  0.56772067797E+01  0.17204362054E+03  0.17120000000E+03 0.  0.
        998    1    1    2    0    0 -0.76211985832E+00 -0.19792897668E+01  0.14661147521E+04  0.14661503895E+04  0.10000000000E+02 0.  1.
</event>
<event>
 5    1  0.1141915E-008  0.3813238E+03  0.7957747E-01  0.3445415E+00
         13   -1    0    0    0    0  0.00000000000E+00  0.00000000000E+00  0.14999999963E+04  0.15000000000E+04  0.10566000000E+00 0.  1.
        994   -1    0    0    0    0 -0.00000000000E+00 -0.00000000000E+00  0.11368683772E-12  0.17120000000E+03  0.17120000000E+03 0.  0.
         13    1    1    2    0    0  0.18494031189E+02 -0.67781278472E+00  0.48392655973E+02  0.51810702909E+02  0.10566000000E+00 0.  1.
        994    1    1    2    0    0 -0.11493316285E+02 -0.12803759588E+02  0.44523230146E+01  0.17212000395E+03  0.17120000000E+03 0.  0.
        998    1    1    2    0    0 -0.70007149050E+01  0.13481572373E+02  0.14471550173E+04  0.14472692931E+04  0.10000000000E+02 0.  1.
</event>
<event>
 5    1  0.1141915E-008  0.3859921E+03  0.7957747E-01  0.3425475E+00
         13   -1    0    0    0    0  0.00000000000E+00  0.00000000000E+00  0.14999999963E+04  0.15000000000E+04  0.10566000000E+00 0. -1.
        994   -1    0    0    0    0 -0.00000000000E+00 -0.00000000000E+00  0.11368683772E-12  0.17120000000E+03  0.17120000000E+03 0.  0.
         13    1    1    2    0    0 -0.12052769696E+02 -0.81276546180E+01  0.81551037590E+02  0.82836652051E+02  0.10566000000E+00 0. -1.
        994    1    1    2    0    0  0.22974980867E+02  0.13482062069E+02  0.34680151793E+01  0.17329478605E+03  0.17120000000E+03 0.  0.
        998    1    1    2    0    0 -0.10922211171E+02 -0.53544074511E+01  0.14149809435E+04  0.14150685619E+04  0.10000000000E+02 0. -1.
</event>
<event>
 5    1  0.1141915E-008  0.3731556E+03  0.7957747E-01  0.3481513E+00
         13   -1    0    0    0    0  0.00000000000E+00  0.00000000000E+00  0.14999999963E+04  0.15000000000E+04  0.10566000000E+00 0. -1.
        994   -1    0    0    0    0 -0.00000000000E+00 -0.00000000000E+00  0.11368683772E-12  0.17120000000E+03  0.17120000000E+03 0.  0.
         13    1    1    2    0    0 -0.21558803587E+02  0.21903226583E+02  0.60050151089E+02  0.67457876906E+02  0.10566000000E+00 0. -1.
        994    1    1    2    0    0  0.44436468274E+01 -0.16091776103E+02  0.85827684578E+01  0.17222600027E+03  0.17120000000E+03 0.  0.
        998    1    1    2    0    0  0.17115156759E+02 -0.58114504798E+01  0.14313670767E+04  0.14315161228E+04  0.10000000000E+02 0. -1.
</event>
<event>
 5    1  0.1141915E-008  0.3851951E+03  0.7957747E-01  0.3428845E+00
         13   -1    0    0    0    0  0.00000000000E+00  0.00000000000E+00  0.14999999963E+04  0.15000000000E+04  0.10566000000E+00 0. -1.
        994   -1    0    0    0    0 -0.00000000000E+00 -0.00000000000E+00  0.11368683772E-12  0.17120000000E+03  0.17120000000E+03 0.  0.
         13    1    1    2    0    0 -0.13898141606E+02  0.71331958740E+01  0.71136874498E+02  0.72832045837E+02  0.10566000000E+00 0. -1.
        994    1    1    2    0    0  0.21818977167E+02 -0.17439973831E+02  0.41017593346E+01  0.17351220384E+03  0.17120000000E+03 0.  0.
        998    1    1    2    0    0 -0.79208355613E+01  0.10306777957E+02  0.14247613624E+04  0.14248557503E+04  0.10000000000E+02 0. -1.
</event>
<event>
 5    1  0.1355925E-008  0.3850931E+03  0.7957747E-01  0.3429277E+00
         13   -1    0    0    0    0  0.00000000000E+00  0.00000000000E+00  0.14999999963E+04  0.15000000000E+04  0.10566000000E+00 0. -1.
        994   -1    0    0    0    0 -0.00000000000E+00 -0.00000000000E+00  0.11368683772E-12  0.17120000000E+03  0.17120000000E+03 0.  0.
         13    1    1    2    0    0 -0.41698726573E+00  0.10815299693E+02  0.36757866190E+02  0.38318356916E+02  0.10566000000E+00 0. -1.
        994    1    1    2    0    0 -0.88882485942E+00 -0.79430141123E+01  0.17939620453E+01  0.17139585696E+03  0.17120000000E+03 0.  0.
        998    1    1    2    0    0  0.13058121251E+01 -0.28722855811E+01  0.14614481680E+04  0.14614857861E+04  0.10000000000E+02 0. -1.
</event>
<event>
 5    1  0.1141915E-008  0.3809052E+03  0.7957747E-01  0.3447227E+00
         13   -1    0    0    0    0  0.00000000000E+00  0.00000000000E+00  0.14999999963E+04  0.15000000000E+04  0.10566000000E+00 0. -1.
        994   -1    0    0    0    0 -0.00000000000E+00 -0.00000000000E+00  0.11368683772E-12  0.17120000000E+03  0.17120000000E+03 0.  0.
         13    1    1    2    0    0  0.24269488501E+02 -0.32005439213E+02  0.19707588879E+03  0.20112750512E+03  0.10566000000E+00 0. -1.
        994    1    1    2    0    0 -0.27284535230E+02  0.25279176016E+02  0.83017574373E+01  0.17539054074E+03  0.17120000000E+03 0.  0.
        998    1    1    2    0    0  0.30150467298E+01  0.67262631974E+01  0.12946223501E+04  0.12946819541E+04  0.10000000000E+02 0. -1.
</event>
<event>
 5    1  0.1141915E-008  0.3847080E+03  0.7957747E-01  0.3430912E+00
         13   -1    0    0    0    0  0.00000000000E+00  0.00000000000E+00  0.14999999963E+04  0.15000000000E+04  0.10566000000E+00 0. -1.
        994   -1    0    0    0    0 -0.00000000000E+00 -0.00000000000E+00  0.11368683772E-12  0.17120000000E+03  0.17120000000E+03 0.  0.
         13    1    1    2    0    0  0.14056526978E+02  0.18761072618E+01  0.54828103448E+02  0.56632480264E+02  0.10566000000E+00 0. -1.
        994    1    1    2    0    0 -0.14335674044E+02 -0.39306198677E+01  0.25028656421E+01  0.17186234509E+03  0.17120000000E+03 0.  0.
        998    1    1    2    0    0  0.27914706520E+00  0.20545126059E+01  0.14426690272E+04  0.14427051746E+04  0.10000000000E+02 0. -1.
</event>
<event>
 5    1  0.1141915E-008  0.3844818E+03  0.7957747E-01  0.3431873E+00
         13   -1    0    0    0    0  0.00000000000E+00  0.00000000000E+00  0.14999999963E+04  0.15000000000E+04  0.10566000000E+00 0.  1.
        994   -1    0    0    0    0 -0.00000000000E+00 -0.00000000000E+00  0.11368683772E-12  0.17120000000E+03  0.17120000000E+03 0.  0.
         13    1    1    2    0    0  0.10174917812E+02  0.11488348723E+02  0.64529382823E+02  0.66329205637E+02  0.10566000000E+00 0.  1.
        994    1    1    2    0    0 -0.13600638133E+02  0.67731703921E+01  0.26484779494E+01  0.17189330304E+03  0.17120000000E+03 0.  0.
        998    1    1    2    0    0  0.34257203210E+01 -0.18261519115E+02  0.14328221355E+04  0.14329774913E+04  0.10000000000E+02 0.  1.
</event>
<event>
 5    1  0.1141915E-008  0.3822433E+03  0.7957747E-01  0.3441449E+00
         13   -1    0    0    0    0  0.00000000000E+00  0.00000000000E+00  0.14999999963E+04  0.15000000000E+04  0.10566000000E+00 0. -1.
        994   -1    0    0    0    0 -0.00000000000E+00 -0.00000000000E+00  0.11368683772E-12  0.17120000000E+03  0.17120000000E+03 0.  0.
         13    1    1    2    0    0  0.15382279987E+00  0.16793977581E+02  0.48126046876E+02  0.50972432710E+02  0.10566000000E+00 0. -1.
        994    1    1    2    0    0  0.61721886595E+01 -0.37907560101E-01  0.31314462089E+01  0.17133984739E+03  0.17120000000E+03 0.  0.
        998    1    1    2    0    0 -0.63260114594E+01 -0.16756070021E+02  0.14487425032E+04  0.14488877199E+04  0.10000000000E+02 0. -1.
</event>
<event>
 5    1  0.1141915E-008  0.3822029E+03  0.7957747E-01  0.3441623E+00
         13   -1    0    0    0    0  0.00000000000E+00  0.00000000000E+00  0.14999999963E+04  0.15000000000E+04  0.10566000000E+00 0.  1.
        994   -1    0    0    0    0 -0.00000000000E+00 -0.00000000000E+00  0.11368683772E-12  0.17120000000E+03  0.17120000000E+03 0.  0.
         13    1    1    2    0    0  0.13729460741E+02  0.27681080347E+01  0.30820174825E+02  0.33853431948E+02  0.10566000000E+00 0.  1.
        994    1    1    2    0    0 -0.15415167911E+02  0.44459193669E+01  0.38799625074E+01  0.17199385951E+03  0.17120000000E+03 0.  0.
        998    1    1    2    0    0  0.16857071694E+01 -0.72140274016E+01  0.14652998589E+04  0.14653527085E+04  0.10000000000E+02 0.  1.
</event>
<event>
 5    1  0.1141915E-008  0.3823573E+03  0.7957747E-01  0.3440958E+00
         13   -1    0    0    0    0  0.00000000000E+00  0.00000000000E+00  0.14999999963E+04  0.15000000000E+04  0.10566000000E+00 0. -1.
        994   -1    0    0    0    0 -0.00000000000E+00 -0.00000000000E+00  0.11368683772E-12  0.17120000000E+03  0.17120000000E+03 0.  0.
         13    1    1    2    0    0  0.12443816546E+02  0.22210515087E+02  0.12107096539E+03  0.12371881577E+03  0.10566000000E+00 0. -1.
        994    1    1    2    0    0  0.13126882457E+02 -0.75201580177E+01  0.37074568269E+01  0.17190710589E+03  0.17120000000E+03 0.  0.
        998    1    1    2    0    0 -0.25570699003E+02 -0.14690357069E+02  0.13752215741E+04  0.13755740783E+04  0.10000000000E+02 0. -1.
</event>
<event>
 5    1  0.1141915E-008  0.3773663E+03  0.7957747E-01  0.3462707E+00
         13   -1    0    0    0    0  0.00000000000E+00  0.00000000000E+00  0.14999999963E+04  0.15000000000E+04  0.10566000000E+00 0.  1.
        994   -1    0    0    0    0 -0.00000000000E+00 -0.00000000000E+00  0.11368683772E-12  0.17120000000E+03  0.17120000000E+03 0.  0.
         13    1    1    2    0    0  0.23922054521E+02  0.40801545896E+02  0.14312955964E+03  0.15074187490E+03  0.10566000000E+00 0.  1.
        994    1    1    2    0    0 -0.43754067249E+02 -0.82586038296E+02  0.35516024456E+02  0.19825665213E+03  0.17120000000E+03 0.  0.
        998    1    1    2    0    0  0.19832012728E+02  0.41784492399E+02  0.13213544122E+04  0.13222014730E+04  0.10000000000E+02 0.  1.
</event>
<event>
 5    1  0.1141915E-008  0.3830218E+03  0.7957747E-01  0.3438106E+00
         13   -1    0    0    0    0  0.00000000000E+00  0.00000000000E+00  0.14999999963E+04  0.15000000000E+04  0.10566000000E+00 0.  1.
        994   -1    0    0    0    0 -0.00000000000E+00 -0.00000000000E+00  0.11368683772E-12  0.17120000000E+03  0.17120000000E+03 0.  0.
         13    1    1    2    0    0 -0.74603579969E+01  0.13379468788E+02  0.42067491669E+02  0.44769991578E+02  0.10566000000E+00 0.  1.
        994    1    1    2    0    0  0.11062082642E+02 -0.18188159586E+02  0.41168755746E+01  0.17256757368E+03  0.17120000000E+03 0.  0.
        998    1    1    2    0    0 -0.36017246450E+01  0.48086907985E+01  0.14538156290E+04  0.14538624347E+04  0.10000000000E+02 0.  1.
</event>
<event>
 5    1  0.1141915E-008  0.3758157E+03  0.7957747E-01  0.3469583E+00
         13   -1    0    0    0    0  0.00000000000E+00  0.00000000000E+00  0.14999999963E+04  0.15000000000E+04  0.10566000000E+00 0. -1.
        994   -1    0    0    0    0 -0.00000000000E+00 -0.00000000000E+00  0.11368683772E-12  0.17120000000E+03  0.17120000000E+03 0.  0.
         13    1    1    2    0    0 -0.27889021340E+02 -0.12672935245E+02  0.75523852287E+02  0.81500087285E+02  0.10566000000E+00 0. -1.
        994    1    1    2    0    0  0.14607422185E+02 -0.99827652288E+01  0.73223107237E+01  0.17226749147E+03  0.17120000000E+03 0.  0.
        998    1    1    2    0    0  0.13281599155E+02  0.22655700474E+02  0.14171538333E+04  0.14174324212E+04  0.10000000000E+02 0. -1.
</event>
<event>
 5    1  0.1141915E-008  0.3814322E+03  0.7957747E-01  0.3444946E+00
         13   -1    0    0    0    0  0.00000000000E+00  0.00000000000E+00  0.14999999963E+04  0.15000000000E+04  0.10566000000E+00 0. -1.
        994   -1    0    0    0    0 -0.00000000000E+00 -0.00000000000E+00  0.11368683772E-12  0.17120000000E+03  0.17120000000E+03 0.  0.
         13    1    1    2    0    0  0.10798905753E+02  0.47184464950E+01  0.19083073270E+02  0.22428886559E+02  0.10566000000E+00 0. -1.
        994    1    1    2    0    0 -0.94605744121E+01  0.64956442059E+01  0.38502214837E+01  0.17162738729E+03  0.17120000000E+03 0.  0.
        998    1    1    2    0    0 -0.13383313408E+01 -0.11214090701E+02  0.14770667015E+04  0.14771437262E+04  0.10000000000E+02 0. -1.
</event>
<event>
 5    1  0.1141915E-008  0.3742481E+03  0.7957747E-01  0.3476592E+00
         13   -1    0    0    0    0  0.00000000000E+00  0.00000000000E+00  0.14999999963E+04  0.15000000000E+04  0.10566000000E+00 0.  1.
        994   -1    0    0    0    0 -0.00000000000E+00 -0.00000000000E+00  0.11368683772E-12  0.17120000000E+03  0.17120000000E+03 0.  0.
         13    1    1    2    0    0  0.16525441952E+02 -0.47242386459E+01  0.17816196192E+02  0.24755538235E+02  0.10566000000E+00 0.  1.
        994    1    1    2    0    0 -0.12895179443E+02  0.23526526138E+01  0.76510856537E+01  0.17187146284E+03  0.17120000000E+03 0.  0.
        998    1    1    2    0    0 -0.36302625089E+01  0.23715860320E+01  0.14745327144E+04  0.14745729989E+04  0.10000000000E+02 0.  1.
</event>
<event>
 5    1  0.1141915E-008  0.3845487E+03  0.7957747E-01  0.3431589E+00
         13   -1    0    0    0    0  0.00000000000E+00  0.00000000000E+00  0.14999999963E+04  0.15000000000E+04  0.10566000000E+00 0. -1.
        994   -1    0    0    0    0 -0.00000000000E+00 -0.00000000000E+00  0.11368683772E-12  0.17120000000E+03  0.17120000000E+03 0.  0.
         13    1    1    2    0    0  0.90316052758E+01 -0.13674116146E+02  0.69077527941E+02  0.70994840494E+02  0.10566000000E+00 0. -1.
        994    1    1    2    0    0 -0.85885131373E+01  0.15848856256E+02  0.29253173720E+01  0.17217127021E+03  0.17120000000E+03 0.  0.
        998    1    1    2    0    0 -0.44309213849E+00 -0.21747401093E+01  0.14279971510E+04  0.14280338893E+04  0.10000000000E+02 0. -1.
</event>
<event>
 5    1  0.1141915E-008  0.3730634E+03  0.7957747E-01  0.3481930E+00
         13   -1    0    0    0    0  0.00000000000E+00  0.00000000000E+00  0.14999999963E+04  0.15000000000E+04  0.10566000000E+00 0.  1.
        994   -1    0    0    0    0 -0.00000000000E+00 -0.00000000000E+00  0.11368683772E-12  0.17120000000E+03  0.17120000000E+03 0.  0.
         13    1    1    2    0    0  0.15206860287E+02 -0.20402581840E+01  0.11931867945E+02  0.19436869345E+02  0.10566000000E+00 0.  1.
        994    1    1    2    0    0 -0.67570200428E+01  0.25627264279E+02  0.10083690855E+02  0.17353251803E+03  0.17120000000E+03 0.  0.
        998    1    1    2    0    0 -0.84498402443E+01 -0.23587006095E+02  0.14779844375E+04  0.14782306126E+04  0.10000000000E+02 0.  1.
</event>
<event>
 5    1  0.1141915E-008  0.3759343E+03  0.7957747E-01  0.3469055E+00
         13   -1    0    0    0    0  0.00000000000E+00  0.00000000000E+00  0.14999999963E+04  0.15000000000E+04  0.10566000000E+00 0. -1.
        994   -1    0    0    0    0 -0.00000000000E+00 -0.00000000000E+00  0.11368683772E-12  0.17120000000E+03  0.17120000000E+03 0.  0.
         13    1    1    2    0    0 -0.48029524202E+02 -0.24058001497E+02  0.23120407713E+03  0.23736250562E+03  0.10566000000E+00 0. -1.
        994    1    1    2    0    0  0.23420720272E+02  0.21618680955E+02  0.96498205743E+01  0.17440887747E+03  0.17120000000E+03 0.  0.
        998    1    1    2    0    0  0.24608803930E+02  0.24393205424E+01  0.12591460986E+04  0.12594286169E+04  0.10000000000E+02 0. -1.
</event>
<event>
 5    1  0.1141915E-008  0.3830132E+03  0.7957747E-01  0.3438142E+00
         13   -1    0    0    0    0  0.00000000000E+00  0.00000000000E+00  0.14999999963E+04  0.15000000000E+04  0.10566000000E+00 0. -1.
        994   -1    0    0    0    0 -0.00000000000E+00 -0.00000000000E+00  0.11368683772E-12  0.17120000000E+03  0.17120000000E+03 0.  0.
         13    1    1    2    0    0 -0.22524226993E+01  0.14124786291E+02  0.37092137318E+02  0.39754506797E+02  0.10566000000E+00 0. -1.
        994    1    1    2    0    0 -0.26494655748E+01 -0.17787941736E+02  0.36910347946E+01  0.17218157357E+03  0.17120000000E+03 0.  0.
        998    1    1    2    0    0  0.49018882741E+01  0.36631554455E+01  0.14592168242E+04  0.14592639196E+04  0.10000000000E+02 0. -1.
</event>
<event>
 5    1  0.1141915E-008  0.3818686E+03  0.7957747E-01  0.3443062E+00
         13   -1    0    0    0    0  0.00000000000E+00  0.00000000000E+00  0.14999999963E+04  0.15000000000E+04  0.10566000000E+00 0.  1.
        994   -1    0    0    0    0 -0.00000000000E+00 -0.00000000000E+00  0.11368683772E-12  0.17120000000E+03  0.17120000000E+03 0.  0.
         13    1    1    2    0    0 -0.16449263947E+02  0.24790064662E+02  0.16424442330E+03  0.16691724698E+03  0.10566000000E+00 0.  1.
        994    1    1    2    0    0  0.10353547351E+01  0.70764866249E+01  0.33627934552E+01  0.17138231240E+03  0.17120000000E+03 0.  0.
        998    1    1    2    0    0  0.15413909212E+02 -0.31866551287E+02  0.13323927795E+04  0.13329004406E+04  0.10000000000E+02 0.  1.
</event>
<event>
 5    1  0.1141915E-008  0.3715031E+03  0.7957747E-01  0.3489011E+00
         13   -1    0    0    0    0  0.00000000000E+00  0.00000000000E+00  0.14999999963E+04  0.15000000000E+04  0.10566000000E+00 0.  1.
        994   -1    0    0    0    0 -0.00000000000E+00 -0.00000000000E+00  0.11368683772E-12  0.17120000000E+03  0.17120000000E+03 0.  0.
         13    1    1    2    0    0 -0.39978128806E+02 -0.41619815600E+02  0.25828027294E+03  0.26464914583E+03  0.10566000000E+00 0.  1.
        994    1    1    2    0    0 -0.16607423641E+02  0.11037247412E+01  0.94390208493E+01  0.17226595671E+03  0.17120000000E+03 0.  0.
        998    1    1    2    0    0  0.56585552446E+02  0.40516090858E+02  0.12322807025E+04  0.12342848975E+04  0.10000000000E+02 0.  1.
</event>
<event>
 5    1  0.1141915E-008  0.3812436E+03  0.7957747E-01  0.3445761E+00
         13   -1    0    0    0    0  0.00000000000E+00  0.00000000000E+00  0.14999999963E+04  0.15000000000E+04  0.10566000000E+00 0.  1.
        994   -1    0    0    0    0 -0.00000000000E+00 -0.00000000000E+00  0.11368683772E-12  0.17120000000E+03  0.17120000000E+03 0.  0.
         13    1    1    2    0    0 -0.54191390344E+02  0.91040606388E+02  0.38637478096E+03  0.40063771830E+03  0.10566000000E+00 0.  1.
        994    1    1    2    0    0 -0.73256887614E+02 -0.99971210833E+02  0.75312037243E+02  0.22437058081E+03  0.17120000000E+03 0.  0.
        998    1    1    2    0    0  0.12744827796E+03  0.89306044451E+01  0.10383131781E+04  0.10461917009E+04  0.10000000000E+02 0.  1.
</event>
<event>
 5    1  0.1141915E-008  0.3850085E+03  0.7957747E-01  0.3429636E+00
         13   -1    0    0    0    0  0.00000000000E+00  0.00000000000E+00  0.14999999963E+04  0.15000000000E+04  0.10566000000E+00 0.  1.
        994   -1    0    0    0    0 -0.00000000000E+00 -0.00000000000E+00  0.11368683772E-12  0.17120000000E+03  0.17120000000E+03 0.  0.
         13    1    1    2    0    0 -0.77997149062E+01 -0.65456570005E+01  0.30966365283E+02  0.32597670486E+02  0.10566000000E+00 0.  1.
        994    1    1    2    0    0  0.63371491462E+01  0.11081249575E+02  0.21619973645E+01  0.17168886913E+03  0.17120000000E+03 0.  0.
        998    1    1    2    0    0  0.14625657600E+01 -0.45355925743E+01  0.14668716336E+04  0.14669134604E+04  0.10000000000E+02 0.  1.
</event>
<event>
 5    1  0.1141915E-008  0.3774810E+03  0.7957747E-01  0.3462201E+00
         13   -1    0    0    0    0  0.00000000000E+00  0.00000000000E+00  0.14999999963E+04  0.15000000000E+04  0.10566000000E+00 0. -1.
        994   -1    0    0    0    0 -0.00000000000E+00 -0.00000000000E+00  0.11368683772E-12  0.17120000000E+03  0.17120000000E+03 0.  0.
         13    1    1    2    0    0  0.22671291036E+01  0.13164967833E+02  0.14016862783E+02  0.19363363828E+02  0.10566000000E+00 0. -1.
        994    1    1    2    0    0 -0.33494900767E+01 -0.12308348116E+02  0.59588695691E+01  0.17177794574E+03  0.17120000000E+03 0.  0.
        998    1    1    2    0    0  0.10823609731E+01 -0.85661971699E+00  0.14800242639E+04  0.14800586904E+04  0.10000000000E+02 0. -1.
</event>
<event>
 5    1  0.1141915E-008  0.3776974E+03  0.7957747E-01  0.3461246E+00
         13   -1    0    0    0    0  0.00000000000E+00  0.00000000000E+00  0.14999999963E+04  0.15000000000E+04  0.10566000000E+00 0. -1.
        994   -1    0    0    0    0 -0.00000000000E+00 -0.00000000000E+00  0.11368683772E-12  0.17120000000E+03  0.17120000000E+03 0.  0.
         13    1    1    2    0    0  0.87127910963E+02 -0.15143274073E+02  0.44189189189E+03  0.45065402129E+03  0.10566000000E+00 0. -1.
        994    1    1    2    0    0 -0.10044329161E+03  0.18468651943E+02  0.41280614043E+02  0.20357670552E+03  0.17120000000E+03 0.  0.
        998    1    1    2    0    0  0.13315380650E+02 -0.33253778694E+01  0.10168274903E+04  0.10169692732E+04  0.10000000000E+02 0. -1.
</event>
<event>
 5    1  0.1141915E-008  0.3730944E+03  0.7957747E-01  0.3481789E+00
         13   -1    0    0    0    0  0.00000000000E+00  0.00000000000E+00  0.14999999963E+04  0.15000000000E+04  0.10566000000E+00 0.  1.
        994   -1    0    0    0    0 -0.00000000000E+00 -0.00000000000E+00  0.11368683772E-12  0.17120000000E+03  0.17120000000E+03 0.  0.
         13    1    1    2    0    0  0.35011184678E+02  0.37473743233E+02  0.10166003273E+03  0.11386324211E+03  0.10566000000E+00 0.  1.
        994    1    1    2    0    0 -0.40321181095E+02 -0.16512675667E+01  0.18362295237E+02  0.17684778261E+03  0.17120000000E+03 0.  0.
        998    1    1    2    0    0  0.53099964167E+01 -0.35822475666E+02  0.13799776683E+04  0.13804889753E+04  0.10000000000E+02 0.  1.
</event>
<event>
 5    1  0.1141915E-008  0.3687594E+03  0.7957747E-01  0.3501612E+00
         13   -1    0    0    0    0  0.00000000000E+00  0.00000000000E+00  0.14999999963E+04  0.15000000000E+04  0.10566000000E+00 0. -1.
        994   -1    0    0    0    0 -0.00000000000E+00 -0.00000000000E+00  0.11368683772E-12  0.17120000000E+03  0.17120000000E+03 0.  0.
         13    1    1    2    0    0  0.80792174255E+02 -0.35592675473E+02  0.36113318519E+03  0.37176794184E+03  0.10566000000E+00 0. -1.
        994    1    1    2    0    0 -0.42392666690E+02  0.46216679662E+02  0.24103042342E+02  0.18391170794E+03  0.17120000000E+03 0.  0.
        998    1    1    2    0    0 -0.38399507565E+02 -0.10624004188E+02  0.11147637687E+04  0.11155203502E+04  0.10000000000E+02 0.  1.
</event>
<event>
 5    1  0.1141915E-008  0.3851779E+03  0.7957747E-01  0.3428918E+00
         13   -1    0    0    0    0  0.00000000000E+00  0.00000000000E+00  0.14999999963E+04  0.15000000000E+04  0.10566000000E+00 0.  1.
        994   -1    0    0    0    0 -0.00000000000E+00 -0.00000000000E+00  0.11368683772E-12  0.17120000000E+03  0.17120000000E+03 0.  0.
         13    1    1    2    0    0 -0.14394398256E+02 -0.32407521393E+01  0.69265942766E+02  0.70820076016E+02  0.10566000000E+00 0.  1.
        994    1    1    2    0    0  0.14678412666E+02 -0.62274787618E+01  0.23778970753E+01  0.17195735426E+03  0.17120000000E+03 0.  0.
        998    1    1    2    0    0 -0.28401441025E+00  0.94682309010E+01  0.14283561564E+04  0.14284225697E+04  0.10000000000E+02 0.  1.
</event>
<event>
 5    1  0.1141915E-008  0.3853478E+03  0.7957747E-01  0.3428199E+00
         13   -1    0    0    0    0  0.00000000000E+00  0.00000000000E+00  0.14999999963E+04  0.15000000000E+04  0.10566000000E+00 0. -1.
        994   -1    0    0    0    0 -0.00000000000E+00 -0.00000000000E+00  0.11368683772E-12  0.17120000000E+03  0.17120000000E+03 0.  0.
         13    1    1    2    0    0  0.33412424445E-01 -0.15945861327E+02  0.87214922333E+02  0.88660732298E+02  0.10566000000E+00 0. -1.
        994    1    1    2    0    0 -0.14741859480E+01  0.10799864466E+02  0.18479577303E+01  0.17155659487E+03  0.17120000000E+03 0.  0.
        998    1    1    2    0    0  0.14407735235E+01  0.51459968617E+01  0.14109371162E+04  0.14109826728E+04  0.10000000000E+02 0. -1.
</event>
<event>
 5    1  0.1141915E-008  0.3834781E+03  0.7957747E-01  0.3436152E+00
         13   -1    0    0    0    0  0.00000000000E+00  0.00000000000E+00  0.14999999963E+04  0.15000000000E+04  0.10566000000E+00 0. -1.
        994   -1    0    0    0    0 -0.00000000000E+00 -0.00000000000E+00  0.11368683772E-12  0.17120000000E+03  0.17120000000E+03 0.  0.
         13    1    1    2    0    0  0.12057398253E+01 -0.24278784416E+02  0.11085741803E+03  0.11349137182E+03  0.10566000000E+00 0. -1.
        994    1    1    2    0    0  0.92001376366E+01  0.30986729711E+02  0.58483671759E+01  0.17432287099E+03  0.17120000000E+03 0.  0.
        998    1    1    2    0    0 -0.10405877462E+02 -0.67079452959E+01  0.13832942111E+04  0.13833857572E+04  0.10000000000E+02 0. -1.
</event>
<event>
 5    1  0.1141915E-008  0.3030418E+03  0.7957747E-01  0.3874540E+00
         13   -1    0    0    0    0  0.00000000000E+00  0.00000000000E+00  0.14999999963E+04  0.15000000000E+04  0.10566000000E+00 0. -1.
        994   -1    0    0    0    0 -0.00000000000E+00 -0.00000000000E+00  0.11368683772E-12  0.17120000000E+03  0.17120000000E+03 0.  0.
         13    1    1    2    0    0  0.74943153175E+01  0.20940777624E+03  0.62821995862E+03  0.66224475013E+03  0.10566000000E+00 0. -1.
        994    1    1    2    0    0  0.10880550195E+02 -0.19851444916E+03  0.18325991498E+03  0.32003126306E+03  0.17120000000E+03 0.  0.
        998    1    1    2    0    0 -0.18374865513E+02 -0.10893327074E+02  0.68852012268E+03  0.68892398681E+03  0.10000000000E+02 0. -1.
</event>
<event>
 5    1  0.2214874E-008  0.3862626E+03  0.7957747E-01  0.3424335E+00
         13   -1    0    0    0    0  0.00000000000E+00  0.00000000000E+00  0.14999999963E+04  0.15000000000E+04  0.10566000000E+00 0.  1.
        994   -1    0    0    0    0 -0.00000000000E+00 -0.00000000000E+00  0.11368683772E-12  0.17120000000E+03  0.17120000000E+03 0.  0.
         13    1    1    2    0    0  0.11115379163E+02 -0.34228733952E+01  0.68107046054E+02  0.69093043082E+02  0.10566000000E+00 0.  1.
        994    1    1    2    0    0 -0.86148950749E+01  0.28640374539E+00  0.12479637763E+01  0.17142139848E+03  0.17120000000E+03 0.  0.
        998    1    1    2    0    0 -0.25004840878E+01  0.31364696498E+01  0.14306449864E+04  0.14306855584E+04  0.10000000000E+02 0.  1.
</event>
<event>
 5    1  0.1141915E-008  0.3743959E+03  0.7957747E-01  0.3475929E+00
         13   -1    0    0    0    0  0.00000000000E+00  0.00000000000E+00  0.14999999963E+04  0.15000000000E+04  0.10566000000E+00 0. -1.
        994   -1    0    0    0    0 -0.00000000000E+00 -0.00000000000E+00  0.11368683772E-12  0.17120000000E+03  0.17120000000E+03 0.  0.
         13    1    1    2    0    0 -0.96268138929E+02  0.51247447288E+02  0.52531191843E+03  0.53651326007E+03  0.10566000000E+00 0. -1.
        994    1    1    2    0    0  0.99223283352E+02 -0.49474628723E+02  0.50088802910E+02  0.21002696737E+03  0.17120000000E+03 0.  0.
        998    1    1    2    0    0 -0.29551444229E+01 -0.17728185659E+01  0.92459927494E+03  0.92465977255E+03  0.10000000000E+02 0.  0.
</event>
<event>
 5    1  0.1141915E-008  0.3823368E+03  0.7957747E-01  0.3441046E+00
         13   -1    0    0    0    0  0.00000000000E+00  0.00000000000E+00  0.14999999963E+04  0.15000000000E+04  0.10566000000E+00 0.  1.
        994   -1    0    0    0    0 -0.00000000000E+00 -0.00000000000E+00  0.11368683772E-12  0.17120000000E+03  0.17120000000E+03 0.  0.
         13    1    1    2    0    0  0.25584986626E+02  0.48796655292E+01  0.14105703073E+03  0.14344162491E+03  0.10566000000E+00 0.  1.
        994    1    1    2    0    0  0.14204740245E+02 -0.37290749697E+01  0.36739550951E+01  0.17186802667E+03  0.17120000000E+03 0.  0.
        998    1    1    2    0    0 -0.39789726871E+02 -0.11505905595E+01  0.13552690105E+04  0.13558903484E+04  0.10000000000E+02 0.  1.
</event>
<event>
 5    1  0.1141915E-008  0.3835600E+03  0.7957747E-01  0.3435802E+00
         13   -1    0    0    0    0  0.00000000000E+00  0.00000000000E+00  0.14999999963E+04  0.15000000000E+04  0.10566000000E+00 0.  1.
        994   -1    0    0    0    0 -0.00000000000E+00 -0.00000000000E+00  0.11368683772E-12  0.17120000000E+03  0.17120000000E+03 0.  0.
         13    1    1    2    0    0 -0.14718776125E+02  0.10145294068E+02  0.63565412600E+02  0.66031372888E+02  0.10566000000E+00 0.  1.
        994    1    1    2    0    0  0.14338853127E+02 -0.19838187744E+02  0.43289114230E+01  0.17299519033E+03  0.17120000000E+03 0.  0.
        998    1    1    2    0    0  0.37992299844E+00  0.96928936758E+01  0.14321056723E+04  0.14321734368E+04  0.10000000000E+02 0.  1.
</event>
<event>
 5    1  0.1141915E-008  0.3832331E+03  0.7957747E-01  0.3437200E+00
         13   -1    0    0    0    0  0.00000000000E+00  0.00000000000E+00  0.14999999963E+04  0.15000000000E+04  0.10566000000E+00 0. -1.
        994   -1    0    0    0    0 -0.00000000000E+00 -0.00000000000E+00  0.11368683772E-12  0.17120000000E+03  0.17120000000E+03 0.  0.
         13    1    1    2    0    0  0.13466315897E+02  0.80032200932E+01  0.46544534177E+02  0.49110060288E+02  0.10566000000E+00 0. -1.
        994    1    1    2    0    0 -0.19896678546E+02 -0.19261163780E+01  0.38326895935E+01  0.17240567639E+03  0.17120000000E+03 0.  0.
        998    1    1    2    0    0  0.64303626493E+01 -0.60771037152E+01  0.14496227725E+04  0.14496842633E+04  0.10000000000E+02 0. -1.
</event>
<event>
 5    1  0.1141915E-008  0.3783378E+03  0.7957747E-01  0.3458428E+00
         13   -1    0    0    0    0  0.00000000000E+00  0.00000000000E+00  0.14999999963E+04  0.15000000000E+04  0.10566000000E+00 0. -1.
        994   -1    0    0    0    0 -0.00000000000E+00 -0.00000000000E+00  0.11368683772E-12  0.17120000000E+03  0.17120000000E+03 0.  0.
         13    1    1    2    0    0  0.12042356671E+02 -0.18938402621E+01  0.12769895400E+02  0.17654641817E+02  0.10566000000E+00 0. -1.
        994    1    1    2    0    0 -0.87056812191E+01 -0.39739512021E+01  0.52824644398E+01  0.17154861003E+03  0.17120000000E+03 0.  0.
        998    1    1    2    0    0 -0.33366754522E+01  0.58677914642E+01  0.14819476364E+04  0.14819967481E+04  0.10000000000E+02 0. -1.
</event>
<event>
 5    1  0.1141915E-008  0.3827785E+03  0.7957747E-01  0.3439149E+00
         13   -1    0    0    0    0  0.00000000000E+00  0.00000000000E+00  0.14999999963E+04  0.15000000000E+04  0.10566000000E+00 0.  1.
        994   -1    0    0    0    0 -0.00000000000E+00 -0.00000000000E+00  0.11368683772E-12  0.17120000000E+03  0.17120000000E+03 0.  0.
         13    1    1    2    0    0  0.24232510980E+02  0.32571729368E+01  0.10125791881E+03  0.10416813836E+03  0.10566000000E+00 0.  1.
        994    1    1    2    0    0 -0.26640278419E+02  0.18821186464E+01  0.51033460861E+01  0.17334569780E+03  0.17120000000E+03 0.  0.
        998    1    1    2    0    0  0.24077674385E+01 -0.51392915832E+01  0.13936387314E+04  0.13936861638E+04  0.10000000000E+02 0.  1.
</event>
<event>
 5    1  0.1141915E-008  0.3836642E+03  0.7957747E-01  0.3435357E+00
         13   -1    0    0    0    0  0.00000000000E+00  0.00000000000E+00  0.14999999963E+04  0.15000000000E+04  0.10566000000E+00 0.  1.
        994   -1    0    0    0    0 -0.00000000000E+00 -0.00000000000E+00  0.11368683772E-12  0.17120000000E+03  0.17120000000E+03 0.  0.
         13    1    1    2    0    0  0.12207193498E+01  0.21211984164E+02  0.11156265164E+03  0.11356793047E+03  0.10566000000E+00 0.  1.
        994    1    1    2    0    0 -0.20049162791E+02  0.54253774658E+01  0.37210124430E+01  0.17249547699E+03  0.17120000000E+03 0.  0.
        998    1    1    2    0    0  0.18828443441E+02 -0.26637361630E+02  0.13847163322E+04  0.13851365925E+04  0.10000000000E+02 0.  1.
</event>
<event>
 5    1  0.1141915E-008  0.3728181E+03  0.7957747E-01  0.3483039E+00
         13   -1    0    0    0    0  0.00000000000E+00  0.00000000000E+00  0.14999999963E+04  0.15000000000E+04  0.10566000000E+00 0. -1.
        994   -1    0    0    0    0 -0.00000000000E+00 -0.00000000000E+00  0.11368683772E-12  0.17120000000E+03  0.17120000000E+03 0.  0.
         13    1    1    2    0    0 -0.20287010538E+01 -0.56343075099E+02  0.22086195565E+03  0.22794445016E+03  0.10566000000E+00 0. -1.
        994    1    1    2    0    0  0.39754729557E+01  0.16993553845E+02  0.88471691547E+01  0.17231453119E+03  0.17120000000E+03 0.  0.
        998    1    1    2    0    0 -0.19467719019E+01  0.39349521254E+02  0.12702908715E+04  0.12709410186E+04  0.10000000000E+02 0. -1.
</event>
<event>
 5    1  0.1141915E-008  0.3829086E+03  0.7957747E-01  0.3438591E+00
         13   -1    0    0    0    0  0.00000000000E+00  0.00000000000E+00  0.14999999963E+04  0.15000000000E+04  0.10566000000E+00 0. -1.
        994   -1    0    0    0    0 -0.00000000000E+00 -0.00000000000E+00  0.11368683772E-12  0.17120000000E+03  0.17120000000E+03 0.  0.
         13    1    1    2    0    0  0.15646268752E+02 -0.20432827263E+02  0.14138781289E+03  0.14371092845E+03  0.10566000000E+00 0. -1.
        994    1    1    2    0    0 -0.33312390331E+01 -0.55871970963E+01  0.28121750600E+01  0.17134661436E+03  0.17120000000E+03 0.  0.
        998    1    1    2    0    0 -0.12315029719E+02  0.26020024359E+02  0.13558000083E+04  0.13561424572E+04  0.10000000000E+02 0. -1.
</event>
<event>
 5    1  0.1141915E-008  0.3853076E+03  0.7957747E-01  0.3428369E+00
         13   -1    0    0    0    0  0.00000000000E+00  0.00000000000E+00  0.14999999963E+04  0.15000000000E+04  0.10566000000E+00 0.  1.
        994   -1    0    0    0    0 -0.00000000000E+00 -0.00000000000E+00  0.11368683772E-12  0.17120000000E+03  0.17120000000E+03 0.  0.
         13    1    1    2    0    0  0.10853301798E+02 -0.68778286137E+01  0.53354153291E+02  0.54879645806E+02  0.10566000000E+00 0.  1.
        994    1    1    2    0    0 -0.11284394534E+02  0.13490961377E+02  0.24944785612E+01  0.17211916227E+03  0.17120000000E+03 0.  0.
        998    1    1    2    0    0  0.43109273534E+00 -0.66131327637E+01  0.14441513644E+04  0.14442011919E+04  0.10000000000E+02 0.  1.
</event>
<event>
 5    1  0.1141915E-008  0.3750927E+03  0.7957747E-01  0.3472808E+00
         13   -1    0    0    0    0  0.00000000000E+00  0.00000000000E+00  0.14999999963E+04  0.15000000000E+04  0.10566000000E+00 0.  1.
        994   -1    0    0    0    0 -0.00000000000E+00 -0.00000000000E+00  0.11368683772E-12  0.17120000000E+03  0.17120000000E+03 0.  0.
         13    1    1    2    0    0  0.49350555653E+02 -0.57906412705E+02  0.37317369010E+03  0.38085068481E+03  0.10566000000E+00 0.  1.
        994    1    1    2    0    0 -0.41109464570E+02  0.45486258516E+02  0.19513717865E+02  0.18289125998E+03  0.17120000000E+03 0.  0.
        998    1    1    2    0    0 -0.82410910827E+01  0.12420154189E+02  0.11073125883E+04  0.11074580552E+04  0.10000000000E+02 0.  1.
</event>
<event>
 5    1  0.1141915E-008  0.3726427E+03  0.7957747E-01  0.3483833E+00
         13   -1    0    0    0    0  0.00000000000E+00  0.00000000000E+00  0.14999999963E+04  0.15000000000E+04  0.10566000000E+00 0.  1.
        994   -1    0    0    0    0 -0.00000000000E+00 -0.00000000000E+00  0.11368683772E-12  0.17120000000E+03  0.17120000000E+03 0.  0.
         13    1    1    2    0    0 -0.57890792727E+02  0.23879029649E+02  0.13820748295E+03  0.15173289507E+03  0.10566000000E+00 0.  1.
        994    1    1    2    0    0  0.53767721039E+02 -0.47273678581E+02  0.30657598695E+02  0.18808268626E+03  0.17120000000E+03 0.  0.
        998    1    1    2    0    0  0.41230716877E+01  0.23394648932E+02  0.13311349146E+04  0.13313844187E+04  0.10000000000E+02 0.  1.
</event>
<event>
 5    1  0.1141915E-008  0.3704509E+03  0.7957747E-01  0.3493821E+00
         13   -1    0    0    0    0  0.00000000000E+00  0.00000000000E+00  0.14999999963E+04  0.15000000000E+04  0.10566000000E+00 0. -1.
        994   -1    0    0    0    0 -0.00000000000E+00 -0.00000000000E+00  0.11368683772E-12  0.17120000000E+03  0.17120000000E+03 0.  0.
         13    1    1    2    0    0  0.64779784320E+02 -0.13691765739E+02  0.22495206674E+03  0.23449377049E+03  0.10566000000E+00 0. -1.
        994    1    1    2    0    0 -0.44904714721E+02  0.31280723841E+02  0.19444890113E+02  0.18078291081E+03  0.17120000000E+03 0.  0.
        998    1    1    2    0    0 -0.19875069599E+02 -0.17588958102E+02  0.12556030394E+04  0.12559233187E+04  0.10000000000E+02 0. -1.
</event>
<event>
 5    1  0.1141915E-008  0.3777557E+03  0.7957747E-01  0.3460989E+00
         13   -1    0    0    0    0  0.00000000000E+00  0.00000000000E+00  0.14999999963E+04  0.15000000000E+04  0.10566000000E+00 0.  1.
        994   -1    0    0    0    0 -0.00000000000E+00 -0.00000000000E+00  0.11368683772E-12  0.17120000000E+03  0.17120000000E+03 0.  0.
         13    1    1    2    0    0  0.42609605935E+02 -0.32135371505E+01  0.18974589706E+03  0.19449787134E+03  0.10566000000E+00 0.  1.
        994    1    1    2    0    0 -0.95137817838E+01 -0.25501758253E+01  0.55971451938E+01  0.17157442547E+03  0.17120000000E+03 0.  0.
        998    1    1    2    0    0 -0.33095824151E+02  0.57637129758E+01  0.13046569540E+04  0.13051277032E+04  0.10000000000E+02 0.  1.
</event>
<event>
 5    1  0.1141915E-008  0.3822062E+03  0.7957747E-01  0.3441608E+00
         13   -1    0    0    0    0  0.00000000000E+00  0.00000000000E+00  0.14999999963E+04  0.15000000000E+04  0.10566000000E+00 0.  1.
        994   -1    0    0    0    0 -0.00000000000E+00 -0.00000000000E+00  0.11368683772E-12  0.17120000000E+03  0.17120000000E+03 0.  0.
         13    1    1    2    0    0 -0.15674375635E+02 -0.14154814781E+01  0.38339148121E+02  0.41443830447E+02  0.10566000000E+00 0.  1.
        994    1    1    2    0    0  0.21383221358E+02 -0.16598322090E+01  0.45516680774E+01  0.17259824704E+03  0.17120000000E+03 0.  0.
        998    1    1    2    0    0 -0.57088457228E+01  0.30753136871E+01  0.14571091801E+04  0.14571579225E+04  0.10000000000E+02 0.  1.
</event>
<event>
 5    1  0.1141915E-008  0.3789435E+03  0.7957747E-01  0.3455772E+00
         13   -1    0    0    0    0  0.00000000000E+00  0.00000000000E+00  0.14999999963E+04  0.15000000000E+04  0.10566000000E+00 0.  1.
        994   -1    0    0    0    0 -0.00000000000E+00 -0.00000000000E+00  0.11368683772E-12  0.17120000000E+03  0.17120000000E+03 0.  0.
         13    1    1    2    0    0 -0.17451624287E+02 -0.66478006590E+00  0.30714903233E+02  0.35332952996E+02  0.10566000000E+00 0.  1.
        994    1    1    2    0    0  0.12489285957E+02  0.71194856659E+01  0.53609932291E+01  0.17188615299E+03  0.17120000000E+03 0.  0.
        998    1    1    2    0    0  0.49623383293E+01 -0.64547056000E+01  0.14639240998E+04  0.14639808940E+04  0.10000000000E+02 0.  1.
</event>
<event>
 5    1  0.1141915E-008  0.3844333E+03  0.7957747E-01  0.3432079E+00
         13   -1    0    0    0    0  0.00000000000E+00  0.00000000000E+00  0.14999999963E+04  0.15000000000E+04  0.10566000000E+00 0. -1.
        994   -1    0    0    0    0 -0.00000000000E+00 -0.00000000000E+00  0.11368683772E-12  0.17120000000E+03  0.17120000000E+03 0.  0.
         13    1    1    2    0    0  0.98689675077E+01  0.77541479060E+01  0.44615152560E+02  0.46347020740E+02  0.10566000000E+00 0. -1.
        994    1    1    2    0    0  0.92917868488E+01  0.31639317090E+01  0.22292453041E+01  0.17149564805E+03  0.17120000000E+03 0.  0.
        998    1    1    2    0    0 -0.19160754356E+02 -0.10918079615E+02  0.14531555984E+04  0.14533573312E+04  0.10000000000E+02 0. -1.
</event>
<event>
 5    1  0.1141915E-008  0.3804494E+03  0.7957747E-01  0.3449204E+00
         13   -1    0    0    0    0  0.00000000000E+00  0.00000000000E+00  0.14999999963E+04  0.15000000000E+04  0.10566000000E+00 0.  1.
        994   -1    0    0    0    0 -0.00000000000E+00 -0.00000000000E+00  0.11368683772E-12  0.17120000000E+03  0.17120000000E+03 0.  0.
         13    1    1    2    0    0 -0.57342077382E+01 -0.16397914545E+02  0.37665542457E+02  0.41478632963E+02  0.10566000000E+00 0.  1.
        994    1    1    2    0    0  0.38462783060E+01  0.65704633375E+01  0.40999545854E+01  0.17141824428E+03  0.17120000000E+03 0.  0.
        998    1    1    2    0    0  0.18879294322E+01  0.98274512075E+01  0.14582344992E+04  0.14583031228E+04  0.10000000000E+02 0.  1.
</event>
<event>
 5    1  0.1141915E-008  0.3750238E+03  0.7957747E-01  0.3473116E+00
         13   -1    0    0    0    0  0.00000000000E+00  0.00000000000E+00  0.14999999963E+04  0.15000000000E+04  0.10566000000E+00 0. -1.
        994   -1    0    0    0    0 -0.00000000000E+00 -0.00000000000E+00  0.11368683772E-12  0.17120000000E+03  0.17120000000E+03 0.  0.
         13    1    1    2    0    0 -0.21254558736E+02  0.37168785689E+02  0.12299636923E+03  0.13023591250E+03  0.10566000000E+00 0. -1.
        994    1    1    2    0    0  0.10674043856E+02 -0.47115207058E+02  0.14640498379E+02  0.17848686826E+03  0.17120000000E+03 0.  0.
        998    1    1    2    0    0  0.10580514880E+02  0.99464213698E+01  0.13623631287E+04  0.13624772192E+04  0.10000000000E+02 0. -1.
</event>
<event>
 5    1  0.1141915E-008  0.3790363E+03  0.7957747E-01  0.3455366E+00
         13   -1    0    0    0    0  0.00000000000E+00  0.00000000000E+00  0.14999999963E+04  0.15000000000E+04  0.10566000000E+00 0.  1.
        994   -1    0    0    0    0 -0.00000000000E+00 -0.00000000000E+00  0.11368683772E-12  0.17120000000E+03  0.17120000000E+03 0.  0.
         13    1    1    2    0    0  0.98471179072E+02 -0.15158081241E+03  0.86793535297E+03  0.88655800933E+03  0.10566000000E+00 0.  1.
        994    1    1    2    0    0 -0.90399305366E+02  0.17600456008E+03  0.14961365137E+03  0.30140226319E+03  0.17120000000E+03 0.  0.
        998    1    1    2    0    0 -0.80718737063E+01 -0.24423747677E+02  0.48245099193E+03  0.48323972748E+03  0.10000000000E+02 0.  1.
</event>
<event>
 5    1  0.1141915E-008  0.3788103E+03  0.7957747E-01  0.3456355E+00
         13   -1    0    0    0    0  0.00000000000E+00  0.00000000000E+00  0.14999999963E+04  0.15000000000E+04  0.10566000000E+00 0. -1.
        994   -1    0    0    0    0 -0.00000000000E+00 -0.00000000000E+00  0.11368683772E-12  0.17120000000E+03  0.17120000000E+03 0.  0.
         13    1    1    2    0    0 -0.28405411396E+02  0.63515905945E+01  0.20051353161E+02  0.35345127348E+02  0.10566000000E+00 0. -1.
        994    1    1    2    0    0  0.31155320170E+02 -0.56517038198E+01  0.19300841289E+02  0.17517008365E+03  0.17120000000E+03 0.  0.
        998    1    1    2    0    0 -0.27499087742E+01 -0.69988677462E+00  0.14606478018E+04  0.14606847890E+04  0.10000000000E+02 0. -1.
</event>
<event>
 5    1  0.1141915E-008  0.3854139E+03  0.7957747E-01  0.3427919E+00
         13   -1    0    0    0    0  0.00000000000E+00  0.00000000000E+00  0.14999999963E+04  0.15000000000E+04  0.10566000000E+00 0. -1.
        994   -1    0    0    0    0 -0.00000000000E+00 -0.00000000000E+00  0.11368683772E-12  0.17120000000E+03  0.17120000000E+03 0.  0.
         13    1    1    2    0    0 -0.43374455885E+01 -0.97705909320E+01  0.40476002670E+02  0.41864016023E+02  0.10566000000E+00 0. -1.
        994    1    1    2    0    0  0.10102379827E+02  0.19812233406E+01  0.17729324520E+01  0.17151841479E+03  0.17120000000E+03 0.  0.
        998    1    1    2    0    0 -0.57649342381E+01  0.77893675914E+01  0.14577510612E+04  0.14578175692E+04  0.10000000000E+02 0. -1.
</event>
<event>
 5    1  0.1141915E-008  0.2235617E+03  0.7957747E-01  0.4658488E+00
         13   -1    0    0    0    0  0.00000000000E+00  0.00000000000E+00  0.14999999963E+04  0.15000000000E+04  0.10566000000E+00 0. -1.
        994   -1    0    0    0    0 -0.00000000000E+00 -0.00000000000E+00  0.11368683772E-12  0.17120000000E+03  0.17120000000E+03 0.  0.
         13    1    1    2    0    0  0.15176307797E+03  0.12774551976E+02  0.18646668137E+03  0.24075933094E+03  0.10566000000E+00 0. -1.
        994    1    1    2    0    0 -0.11777313022E+03 -0.10748012434E+01  0.12745214252E+03  0.24377275080E+03  0.17120000000E+03 0.  0.
        998    1    1    2    0    0 -0.33989947750E+02 -0.11699750732E+02  0.11860811724E+04  0.11866679183E+04  0.10000000000E+02 0.  1.
</event>
<event>
 5    1  0.1141915E-008  0.3795470E+03  0.7957747E-01  0.3453133E+00
         13   -1    0    0    0    0  0.00000000000E+00  0.00000000000E+00  0.14999999963E+04  0.15000000000E+04  0.10566000000E+00 0. -1.
        994   -1    0    0    0    0 -0.00000000000E+00 -0.00000000000E+00  0.11368683772E-12  0.17120000000E+03  0.17120000000E+03 0.  0.
         13    1    1    2    0    0 -0.14232780571E+02  0.60005748846E+01  0.25866846126E+02  0.30127791726E+02  0.10566000000E+00 0. -1.
        994    1    1    2    0    0  0.41865919772E+01 -0.70900795571E+01  0.45890201141E+01  0.17145931263E+03  0.17120000000E+03 0.  0.
        998    1    1    2    0    0  0.10046188594E+02  0.10895046726E+01  0.14695441300E+04  0.14696128956E+04  0.10000000000E+02 0. -1.
</event>
<event>
 5    1  0.1141915E-008  0.3827333E+03  0.7957747E-01  0.3439343E+00
         13   -1    0    0    0    0  0.00000000000E+00  0.00000000000E+00  0.14999999963E+04  0.15000000000E+04  0.10566000000E+00 0.  1.
        994   -1    0    0    0    0 -0.00000000000E+00 -0.00000000000E+00  0.11368683772E-12  0.17120000000E+03  0.17120000000E+03 0.  0.
         13    1    1    2    0    0  0.35018316118E+01 -0.29935925162E+02  0.15616368465E+03  0.15904568528E+03  0.10566000000E+00 0.  1.
        994    1    1    2    0    0 -0.65293680494E-01  0.24178477939E+02  0.46988978264E+01  0.17296277836E+03  0.17120000000E+03 0.  0.
        998    1    1    2    0    0 -0.34365379313E+01  0.57574472230E+01  0.13391374138E+04  0.13391915364E+04  0.10000000000E+02 0.  1.
</event>
<event>
 5    1  0.1141915E-008  0.3811891E+03  0.7957747E-01  0.3445997E+00
         13   -1    0    0    0    0  0.00000000000E+00  0.00000000000E+00  0.14999999963E+04  0.15000000000E+04  0.10566000000E+00 0. -1.
        994   -1    0    0    0    0 -0.00000000000E+00 -0.00000000000E+00  0.11368683772E-12  0.17120000000E+03  0.17120000000E+03 0.  0.
         13    1    1    2    0    0  0.71851576882E+02 -0.67731799702E+02  0.24251153331E+03  0.26184365706E+03  0.10566000000E+00 0. -1.
        994    1    1    2    0    0 -0.65034176485E+02  0.65588119347E+02  0.48732817653E+02  0.20053820840E+03  0.17120000000E+03 0.  0.
        998    1    1    2    0    0 -0.68174003969E+01  0.21436803548E+01  0.12087556453E+04  0.12088181345E+04  0.10000000000E+02 0. -1.
</event>
<event>
 5    1  0.1141915E-008  0.3784042E+03  0.7957747E-01  0.3458137E+00
         13   -1    0    0    0    0  0.00000000000E+00  0.00000000000E+00  0.14999999963E+04  0.15000000000E+04  0.10566000000E+00 0. -1.
        994   -1    0    0    0    0 -0.00000000000E+00 -0.00000000000E+00  0.11368683772E-12  0.17120000000E+03  0.17120000000E+03 0.  0.
         13    1    1    2    0    0  0.35007479935E+01 -0.39423464764E+02  0.14622200073E+03  0.15148382578E+03  0.10566000000E+00 0. -1.
        994    1    1    2    0    0 -0.82772262283E-01  0.35660565983E+02  0.92264347562E+01  0.17511781724E+03  0.17120000000E+03 0.  0.
        998    1    1    2    0    0 -0.34179757313E+01  0.37628987817E+01  0.13445515608E+04  0.13445983570E+04  0.10000000000E+02 0. -1.
</event>
<event>
 5    1  0.1141915E-008  0.3839851E+03  0.7957747E-01  0.3433988E+00
         13   -1    0    0    0    0  0.00000000000E+00  0.00000000000E+00  0.14999999963E+04  0.15000000000E+04  0.10566000000E+00 0.  1.
        994   -1    0    0    0    0 -0.00000000000E+00 -0.00000000000E+00  0.11368683772E-12  0.17120000000E+03  0.17120000000E+03 0.  0.
         13    1    1    2    0    0  0.11509036632E+02 -0.12698937239E+02  0.67786743791E+02  0.69919773520E+02  0.10566000000E+00 0.  1.
        994    1    1    2    0    0  0.36816274376E+01  0.20708787770E+02  0.35959552245E+01  0.17252472045E+03  0.17120000000E+03 0.  0.
        998    1    1    2    0    0 -0.15190664069E+02 -0.80098505302E+01  0.14286172973E+04  0.14287555060E+04  0.10000000000E+02 0.  1.
</event>
<event>
 5    1  0.1141915E-008  0.3820939E+03  0.7957747E-01  0.3442091E+00
         13   -1    0    0    0    0  0.00000000000E+00  0.00000000000E+00  0.14999999963E+04  0.15000000000E+04  0.10566000000E+00 0.  1.
        994   -1    0    0    0    0 -0.00000000000E+00 -0.00000000000E+00  0.11368683772E-12  0.17120000000E+03  0.17120000000E+03 0.  0.
         13    1    1    2    0    0  0.25306982337E+02  0.15787469660E+02  0.15025777055E+03  0.15318973963E+03  0.10566000000E+00 0.  1.
        994    1    1    2    0    0 -0.80328609054E+01 -0.85860426831E+01  0.35389583527E+01  0.17163977164E+03  0.17120000000E+03 0.  0.
        998    1    1    2    0    0 -0.17274121432E+02 -0.72014269770E+01  0.13462032674E+04  0.13463704887E+04  0.10000000000E+02 0.  1.
</event>
<event>
 5    1  0.1141915E-008  0.3754196E+03  0.7957747E-01  0.3471348E+00
         13   -1    0    0    0    0  0.00000000000E+00  0.00000000000E+00  0.14999999963E+04  0.15000000000E+04  0.10566000000E+00 0. -1.
        994   -1    0    0    0    0 -0.00000000000E+00 -0.00000000000E+00  0.11368683772E-12  0.17120000000E+03  0.17120000000E+03 0.  0.
         13    1    1    2    0    0  0.86343890743E+02  0.38370369904E+02  0.55146819475E+03  0.55950400690E+03  0.10566000000E+00 0. -1.
        994    1    1    2    0    0 -0.59745038984E+02 -0.52946521478E+02  0.28412128637E+02  0.19102223136E+03  0.17120000000E+03 0.  0.
        998    1    1    2    0    0 -0.26598851759E+02  0.14576151575E+02  0.92011967290E+03  0.92067376174E+03  0.10000000000E+02 0. -1.
</event>
<event>
 5    1  0.1141915E-008  0.3838844E+03  0.7957747E-01  0.3434417E+00
         13   -1    0    0    0    0  0.00000000000E+00  0.00000000000E+00  0.14999999963E+04  0.15000000000E+04  0.10566000000E+00 0.  1.
        994   -1    0    0    0    0 -0.00000000000E+00 -0.00000000000E+00  0.11368683772E-12  0.17120000000E+03  0.17120000000E+03 0.  0.
         13    1    1    2    0    0 -0.12173081732E+02 -0.20353363364E+01  0.34563306290E+02  0.36700951194E+02  0.10566000000E+00 0.  1.
        994    1    1    2    0    0  0.54602674512E+01  0.54441709795E+01  0.23812794662E+01  0.17139009309E+03  0.17120000000E+03 0.  0.
        998    1    1    2    0    0  0.67128142806E+01 -0.34088346430E+01  0.14630554105E+04  0.14631089557E+04  0.10000000000E+02 0.  1.
</event>
<event>
 5    1  0.1141915E-008  0.3852719E+03  0.7957747E-01  0.3428520E+00
         13   -1    0    0    0    0  0.00000000000E+00  0.00000000000E+00  0.14999999963E+04  0.15000000000E+04  0.10566000000E+00 0.  1.
        994   -1    0    0    0    0 -0.00000000000E+00 -0.00000000000E+00  0.11368683772E-12  0.17120000000E+03  0.17120000000E+03 0.  0.
         13    1    1    2    0    0  0.12767580937E+02 -0.11763124247E+01  0.54433777319E+02  0.55923538078E+02  0.10566000000E+00 0.  1.
        994    1    1    2    0    0 -0.10737790452E+02 -0.14579207784E+01  0.18811403426E+01  0.17155292002E+03  0.17120000000E+03 0.  0.
        998    1    1    2    0    0 -0.20297904852E+01  0.26342332030E+01  0.14436850786E+04  0.14437235419E+04  0.10000000000E+02 0.  1.
</event>
<event>
 5    1  0.1141915E-008  0.3751718E+03  0.7957747E-01  0.3472455E+00
         13   -1    0    0    0    0  0.00000000000E+00  0.00000000000E+00  0.14999999963E+04  0.15000000000E+04  0.10566000000E+00 0.  1.
        994   -1    0    0    0    0 -0.00000000000E+00 -0.00000000000E+00  0.11368683772E-12  0.17120000000E+03  0.17120000000E+03 0.  0.
         13    1    1    2    0    0 -0.17760613727E+02  0.27410690131E+02  0.81605845936E+02  0.87899434517E+02  0.10566000000E+00 0.  1.
        994    1    1    2    0    0  0.67625639183E+01 -0.81748477367E+01  0.69730245462E+01  0.17167010071E+03  0.17120000000E+03 0.  0.
        998    1    1    2    0    0  0.10998049809E+02 -0.19235842395E+02  0.14114211258E+04  0.14116304648E+04  0.10000000000E+02 0.  1.
</event>
<event>
 5    1  0.1141915E-008  0.3840722E+03  0.7957747E-01  0.3433617E+00
         13   -1    0    0    0    0  0.00000000000E+00  0.00000000000E+00  0.14999999963E+04  0.15000000000E+04  0.10566000000E+00 0. -1.
        994   -1    0    0    0    0 -0.00000000000E+00 -0.00000000000E+00  0.11368683772E-12  0.17120000000E+03  0.17120000000E+03 0.  0.
         13    1    1    2    0    0 -0.19517217516E+02 -0.43978305607E+01  0.94706538676E+02  0.96796706170E+02  0.10566000000E+00 0. -1.
        994    1    1    2    0    0  0.11710921034E+02  0.99521263769E+01  0.28709382233E+01  0.17191239856E+03  0.17120000000E+03 0.  0.
        998    1    1    2    0    0  0.78062964821E+01 -0.55542958163E+01  0.14024225194E+04  0.14024908953E+04  0.10000000000E+02 0. -1.
</event>
<event>
 5    1  0.1141915E-008  0.3811885E+03  0.7957747E-01  0.3446000E+00
         13   -1    0    0    0    0  0.00000000000E+00  0.00000000000E+00  0.14999999963E+04  0.15000000000E+04  0.10566000000E+00 0.  1.
        994   -1    0    0    0    0 -0.00000000000E+00 -0.00000000000E+00  0.11368683772E-12  0.17120000000E+03  0.17120000000E+03 0.  0.
         13    1    1    2    0    0  0.12344491662E+02 -0.63910820371E+01  0.27291153439E+02  0.30627612118E+02  0.10566000000E+00 0.  1.
        994    1    1    2    0    0 -0.12771263516E+02 -0.39028784554E+02  0.91701558576E+01  0.17629487501E+03  0.17120000000E+03 0.  0.
        998    1    1    2    0    0  0.42677185459E+00  0.45419866591E+02  0.14635386870E+04  0.14642775129E+04  0.10000000000E+02 0.  1.
</event>
<event>
 5    1  0.1141915E-008  0.3705493E+03  0.7957747E-01  0.3493370E+00
         13   -1    0    0    0    0  0.00000000000E+00  0.00000000000E+00  0.14999999963E+04  0.15000000000E+04  0.10566000000E+00 0. -1.
        994   -1    0    0    0    0 -0.00000000000E+00 -0.00000000000E+00  0.11368683772E-12  0.17120000000E+03  0.17120000000E+03 0.  0.
         13    1    1    2    0    0 -0.39669268725E+02 -0.32656176575E+02  0.16172125137E+03  0.16968751002E+03  0.10566000000E+00 0. -1.
        994    1    1    2    0    0  0.44233343666E+02 -0.39993333487E+02  0.21356468651E+02  0.18254203398E+03  0.17120000000E+03 0.  0.
        998    1    1    2    0    0 -0.45640749411E+01  0.72649510062E+02  0.13169222763E+04  0.13189704560E+04  0.10000000000E+02 0. -1.
</event>
<event>
 5    1  0.1141915E-008  0.3838583E+03  0.7957747E-01  0.3434529E+00
         13   -1    0    0    0    0  0.00000000000E+00  0.00000000000E+00  0.14999999963E+04  0.15000000000E+04  0.10566000000E+00 0. -1.
        994   -1    0    0    0    0 -0.00000000000E+00 -0.00000000000E+00  0.11368683772E-12  0.17120000000E+03  0.17120000000E+03 0.  0.
         13    1    1    2    0    0  0.62722451339E+01  0.12044519180E+02  0.40427977708E+02  0.42647907884E+02  0.10566000000E+00 0. -1.
        994    1    1    2    0    0 -0.75010203679E+01 -0.12380337179E+02  0.28899905431E+01  0.17183518295E+03  0.17120000000E+03 0.  0.
        998    1    1    2    0    0  0.12287752340E+01  0.33581799952E+00  0.14566820280E+04  0.14567169092E+04  0.10000000000E+02 0. -1.
</event>
<event>
 5    1  0.1141915E-008  0.3823416E+03  0.7957747E-01  0.3441026E+00
         13   -1    0    0    0    0  0.00000000000E+00  0.00000000000E+00  0.14999999963E+04  0.15000000000E+04  0.10566000000E+00 0. -1.
        994   -1    0    0    0    0 -0.00000000000E+00 -0.00000000000E+00  0.11368683772E-12  0.17120000000E+03  0.17120000000E+03 0.  0.
         13    1    1    2    0    0  0.36125244600E+02  0.28524557355E+01  0.16586680075E+03  0.16977919942E+03  0.10566000000E+00 0. -1.
        994    1    1    2    0    0 -0.63033020209E+02  0.21919738646E+02  0.17872919968E+02  0.18461451147E+03  0.17120000000E+03 0.  0.
        998    1    1    2    0    0  0.26907775608E+02 -0.24772194382E+02  0.13162602756E+04  0.13168062891E+04  0.10000000000E+02 0. -1.
</event>
<event>
 5    1  0.1141915E-008  0.3927522E+03  0.7957747E-01  0.3397445E+00
         13   -1    0    0    0    0  0.00000000000E+00  0.00000000000E+00  0.14999999963E+04  0.15000000000E+04  0.10566000000E+00 0. -1.
        994   -1    0    0    0    0 -0.00000000000E+00 -0.00000000000E+00  0.11368683772E-12  0.17120000000E+03  0.17120000000E+03 0.  0.
         13    1    1    2    0    0  0.79509095163E+02  0.58429769813E+02  0.17259806376E+03  0.19881105852E+03  0.10566000000E+00 0. -1.
        994    1    1    2    0    0 -0.81808001911E+02 -0.64461105666E+02  0.66073821459E+02  0.21100467578E+03  0.17120000000E+03 0.  0.
        998    1    1    2    0    0  0.22989067484E+01  0.60313358529E+01  0.12613281111E+04  0.12613842657E+04  0.10000000000E+02 0. -1.
</event>
<event>
 5    1  0.1141915E-008  0.3706071E+03  0.7957747E-01  0.3493105E+00
         13   -1    0    0    0    0  0.00000000000E+00  0.00000000000E+00  0.14999999963E+04  0.15000000000E+04  0.10566000000E+00 0. -1.
        994   -1    0    0    0    0 -0.00000000000E+00 -0.00000000000E+00  0.11368683772E-12  0.17120000000E+03  0.17120000000E+03 0.  0.
         13    1    1    2    0    0  0.23168943693E+02  0.26798022044E+02  0.70430446460E+02  0.78837763095E+02  0.10566000000E+00 0. -1.
        994    1    1    2    0    0  0.39355319175E+02 -0.42678974366E+02  0.20672493494E+02  0.18195364241E+03  0.17120000000E+03 0.  0.
        998    1    1    2    0    0 -0.62524262868E+02  0.15880952322E+02  0.14088970563E+04  0.14104085945E+04  0.10000000000E+02 0. -1.
</event>
<event>
 5    1  0.1141915E-008  0.3749559E+03  0.7957747E-01  0.3473420E+00
         13   -1    0    0    0    0  0.00000000000E+00  0.00000000000E+00  0.14999999963E+04  0.15000000000E+04  0.10566000000E+00 0.  1.
        994   -1    0    0    0    0 -0.00000000000E+00 -0.00000000000E+00  0.11368683772E-12  0.17120000000E+03  0.17120000000E+03 0.  0.
         13    1    1    2    0    0  0.32070701176E+02 -0.10699352362E+03  0.34759665333E+03  0.36510216179E+03  0.10566000000E+00 0.  1.
        994    1    1    2    0    0 -0.46950525090E+01  0.11357751994E+03  0.61111065561E+02  0.21439659253E+03  0.17120000000E+03 0.  0.
        998    1    1    2    0    0 -0.27375648668E+02 -0.65839963206E+01  0.10912922774E+04  0.10917012457E+04  0.10000000000E+02 0.  1.
</event>
<event>
 5    1  0.1141915E-008  0.3820969E+03  0.7957747E-01  0.3442079E+00
         13   -1    0    0    0    0  0.00000000000E+00  0.00000000000E+00  0.14999999963E+04  0.15000000000E+04  0.10566000000E+00 0. -1.
        994   -1    0    0    0    0 -0.00000000000E+00 -0.00000000000E+00  0.11368683772E-12  0.17120000000E+03  0.17120000000E+03 0.  0.
         13    1    1    2    0    0 -0.31437579735E+02 -0.48898923561E+01  0.14681135959E+03  0.15021923624E+03  0.10566000000E+00 0. -1.
        994    1    1    2    0    0  0.33832762325E+02  0.43048751143E+01  0.69496620780E+01  0.17470239140E+03  0.17120000000E+03 0.  0.
        998    1    1    2    0    0 -0.23951825905E+01  0.58501724173E+00  0.13462389746E+04  0.13462783724E+04  0.10000000000E+02 0. -1.
</event>
<event>
 5    1  0.1141915E-008  0.3884414E+03  0.7957747E-01  0.3415207E+00
         13   -1    0    0    0    0  0.00000000000E+00  0.00000000000E+00  0.14999999963E+04  0.15000000000E+04  0.10566000000E+00 0.  1.
        994   -1    0    0    0    0 -0.00000000000E+00 -0.00000000000E+00  0.11368683772E-12  0.17120000000E+03  0.17120000000E+03 0.  0.
         13    1    1    2    0    0 -0.10879781410E+03 -0.11213292405E+03  0.40476409023E+03  0.43387179778E+03  0.10566000000E+00 0.  1.
        994    1    1    2    0    0  0.10644365713E+03  0.10778697389E+03  0.11295406841E+03  0.25498302974E+03  0.17120000000E+03 0.  0.
        998    1    1    2    0    0  0.23541569689E+01  0.43459501509E+01  0.98228183764E+03  0.98234517248E+03  0.10000000000E+02 0.  0.
</event>
<event>
 5    1  0.1141915E-008  0.3839161E+03  0.7957747E-01  0.3434282E+00
         13   -1    0    0    0    0  0.00000000000E+00  0.00000000000E+00  0.14999999963E+04  0.15000000000E+04  0.10566000000E+00 0.  1.
        994   -1    0    0    0    0 -0.00000000000E+00 -0.00000000000E+00  0.11368683772E-12  0.17120000000E+03  0.17120000000E+03 0.  0.
         13    1    1    2    0    0 -0.68916359911E+02 -0.46131809378E+02  0.18259663601E+03  0.20054712949E+03  0.10566000000E+00 0.  1.
        994    1    1    2    0    0  0.41130314128E+02  0.27388614886E+02  0.27527221311E+02  0.18030259809E+03  0.17120000000E+03 0.  0.
        998    1    1    2    0    0  0.27786045783E+02  0.18743194492E+02  0.12898761390E+04  0.12903502724E+04  0.10000000000E+02 0.  1.
</event>
<event>
 5    1  0.1141915E-008  0.3743664E+03  0.7957747E-01  0.3476061E+00
         13   -1    0    0    0    0  0.00000000000E+00  0.00000000000E+00  0.14999999963E+04  0.15000000000E+04  0.10566000000E+00 0. -1.
        994   -1    0    0    0    0 -0.00000000000E+00 -0.00000000000E+00  0.11368683772E-12  0.17120000000E+03  0.17120000000E+03 0.  0.
         13    1    1    2    0    0 -0.15728101022E+02  0.46042355896E+01  0.16025772794E+02  0.22921795410E+02  0.10566000000E+00 0. -1.
        994    1    1    2    0    0  0.10310315619E+02 -0.14863835860E+02  0.81199512667E+01  0.17234445112E+03  0.17120000000E+03 0.  0.
        998    1    1    2    0    0  0.54177854031E+01  0.10259600270E+02  0.14758542722E+04  0.14759337535E+04  0.10000000000E+02 0. -1.
</event>
<event>
 5    1  0.1141915E-008  0.3852831E+03  0.7957747E-01  0.3428473E+00
         13   -1    0    0    0    0  0.00000000000E+00  0.00000000000E+00  0.14999999963E+04  0.15000000000E+04  0.10566000000E+00 0. -1.
        994   -1    0    0    0    0 -0.00000000000E+00 -0.00000000000E+00  0.11368683772E-12  0.17120000000E+03  0.17120000000E+03 0.  0.
         13    1    1    2    0    0  0.16068912175E+01  0.17888840314E+02  0.10742409011E+03  0.10891528363E+03  0.10566000000E+00 0. -1.
        994    1    1    2    0    0  0.96020976821E+00 -0.12813437624E+02  0.20323324047E+01  0.17169355422E+03  0.17120000000E+03 0.  0.
        998    1    1    2    0    0 -0.25671009857E+01 -0.50754026905E+01  0.13905435738E+04  0.13905911622E+04  0.10000000000E+02 0. -1.
</event>
<event>
 5    1  0.1141915E-008  0.3821325E+03  0.7957747E-01  0.3441925E+00
         13   -1    0    0    0    0  0.00000000000E+00  0.00000000000E+00  0.14999999963E+04  0.15000000000E+04  0.10566000000E+00 0. -1.
        994   -1    0    0    0    0 -0.00000000000E+00 -0.00000000000E+00  0.11368683772E-12  0.17120000000E+03  0.17120000000E+03 0.  0.
         13    1    1    2    0    0  0.11612180860E+02  0.31585058106E+01  0.21816168337E+02  0.24915362093E+02  0.10566000000E+00 0. -1.
        994    1    1    2    0    0 -0.20825861192E+02  0.72499553428E+01  0.46763832841E+01  0.17267769661E+03  0.17120000000E+03 0.  0.
        998    1    1    2    0    0  0.92136803321E+01 -0.10408461153E+02  0.14735074447E+04  0.14736069413E+04  0.10000000000E+02 0. -1.
</event>
<event>
 5    1  0.1141915E-008  0.3686310E+03  0.7957747E-01  0.3502206E+00
         13   -1    0    0    0    0  0.00000000000E+00  0.00000000000E+00  0.14999999963E+04  0.15000000000E+04  0.10566000000E+00 0.  1.
        994   -1    0    0    0    0 -0.00000000000E+00 -0.00000000000E+00  0.11368683772E-12  0.17120000000E+03  0.17120000000E+03 0.  0.
         13    1    1    2    0    0  0.24207477048E+02 -0.15535449035E+02  0.44696453591E+02  0.53152010775E+02  0.10566000000E+00 0.  1.
        994    1    1    2    0    0  0.42653193242E+02 -0.41669486347E+02  0.22692149701E+02  0.18270198314E+03  0.17120000000E+03 0.  0.
        998    1    1    2    0    0 -0.66860670290E+02  0.57204935381E+02  0.14326113930E+04  0.14353460061E+04  0.10000000000E+02 0.  1.
</event>
<event>
 5    1  0.1141915E-008  0.3708219E+03  0.7957747E-01  0.3492122E+00
         13   -1    0    0    0    0  0.00000000000E+00  0.00000000000E+00  0.14999999963E+04  0.15000000000E+04  0.10566000000E+00 0. -1.
        994   -1    0    0    0    0 -0.00000000000E+00 -0.00000000000E+00  0.11368683772E-12  0.17120000000E+03  0.17120000000E+03 0.  0.
         13    1    1    2    0    0 -0.99731578325E+02  0.42357031050E+02  0.42599362896E+03  0.43955783337E+03  0.10566000000E+00 0. -1.
        994    1    1    2    0    0  0.80465964305E+02 -0.35096864846E+02  0.38907254464E+02  0.19629002976E+03  0.17120000000E+03 0.  0.
        998    1    1    2    0    0  0.19265614020E+02 -0.72601662043E+01  0.10350991129E+04  0.10353521369E+04  0.10000000000E+02 0. -1.
</event>
<event>
 5    1  0.1141915E-008  0.3825277E+03  0.7957747E-01  0.3440225E+00
         13   -1    0    0    0    0  0.00000000000E+00  0.00000000000E+00  0.14999999963E+04  0.15000000000E+04  0.10566000000E+00 0. -1.
        994   -1    0    0    0    0 -0.00000000000E+00 -0.00000000000E+00  0.11368683772E-12  0.17120000000E+03  0.17120000000E+03 0.  0.
         13    1    1    2    0    0  0.18761842966E+02  0.48279583608E+01  0.71426224096E+02  0.74006976604E+02  0.10566000000E+00 0. -1.
        994    1    1    2    0    0  0.98160084208E-01  0.24493155108E+02  0.48539873017E+01  0.17301134493E+03  0.17120000000E+03 0.  0.
        998    1    1    2    0    0 -0.18860003051E+02 -0.29321113469E+02  0.14237197849E+04  0.14241816785E+04  0.10000000000E+02 0. -1.
</event>
<event>
 5    1  0.1141915E-008  0.3699655E+03  0.7957747E-01  0.3496049E+00
         13   -1    0    0    0    0  0.00000000000E+00  0.00000000000E+00  0.14999999963E+04  0.15000000000E+04  0.10566000000E+00 0.  1.
        994   -1    0    0    0    0 -0.00000000000E+00 -0.00000000000E+00  0.11368683772E-12  0.17120000000E+03  0.17120000000E+03 0.  0.
         13    1    1    2    0    0  0.20468037675E+02 -0.69179511778E+02  0.17462900692E+03  0.18894455970E+03  0.10566000000E+00 0.  1.
        994    1    1    2    0    0 -0.75043659460E+02  0.90812095393E+02  0.61141842318E+02  0.21662445009E+03  0.17120000000E+03 0.  0.
        998    1    1    2    0    0  0.54575621786E+02 -0.21632583615E+02  0.12642291470E+04  0.12656309902E+04  0.10000000000E+02 0.  1.
</event>
<event>
 5    1  0.1141915E-008  0.3872082E+03  0.7957747E-01  0.3420361E+00
         13   -1    0    0    0    0  0.00000000000E+00  0.00000000000E+00  0.14999999963E+04  0.15000000000E+04  0.10566000000E+00 0. -1.
        994   -1    0    0    0    0 -0.00000000000E+00 -0.00000000000E+00  0.11368683772E-12  0.17120000000E+03  0.17120000000E+03 0.  0.
         13    1    1    2    0    0 -0.37975654540E+02 -0.38415864673E+02  0.60671934492E+02  0.81234375700E+02  0.10566000000E+00 0. -1.
        994    1    1    2    0    0  0.50120435884E+02  0.37538143953E+02  0.35090060890E+02  0.18563922731E+03  0.17120000000E+03 0.  0.
        998    1    1    2    0    0 -0.12144781344E+02  0.87772072002E+00  0.14042380009E+04  0.14043263970E+04  0.10000000000E+02 0. -1.
</event>
<event>
 5    1  0.1141915E-008  0.3743322E+03  0.7957747E-01  0.3476215E+00
         13   -1    0    0    0    0  0.00000000000E+00  0.00000000000E+00  0.14999999963E+04  0.15000000000E+04  0.10566000000E+00 0.  1.
        994   -1    0    0    0    0 -0.00000000000E+00 -0.00000000000E+00  0.11368683772E-12  0.17120000000E+03  0.17120000000E+03 0.  0.
         13    1    1    2    0    0 -0.67787532689E+01 -0.60308529425E+02  0.13958730348E+03  0.15220938431E+03  0.10566000000E+00 0.  1.
        994    1    1    2    0    0 -0.81315970136E+02  0.39409266082E+02  0.42833341358E+02  0.19826626638E+03  0.17120000000E+03 0.  0.
        998    1    1    2    0    0  0.88094723405E+02  0.20899263343E+02  0.13175793514E+04  0.13207243493E+04  0.10000000000E+02 0.  1.
</event>
<event>
 5    1  0.1141915E-008  0.3761476E+03  0.7957747E-01  0.3468106E+00
         13   -1    0    0    0    0  0.00000000000E+00  0.00000000000E+00  0.14999999963E+04  0.15000000000E+04  0.10566000000E+00 0. -1.
        994   -1    0    0    0    0 -0.00000000000E+00 -0.00000000000E+00  0.11368683772E-12  0.17120000000E+03  0.17120000000E+03 0.  0.
         13    1    1    2    0    0  0.49904011159E+02  0.59837915427E+00  0.77541006717E+02  0.92213812816E+02  0.10566000000E+00 0. -1.
        994    1    1    2    0    0 -0.54141907911E+02  0.80422566938E+01  0.25010726318E+02  0.18146900704E+03  0.17120000000E+03 0.  0.
        998    1    1    2    0    0  0.42378967518E+01 -0.86406358481E+01  0.13974482632E+04  0.13975171801E+04  0.10000000000E+02 0. -1.
</event>
<event>
 5    1  0.1141915E-008  0.3686298E+03  0.7957747E-01  0.3502212E+00
         13   -1    0    0    0    0  0.00000000000E+00  0.00000000000E+00  0.14999999963E+04  0.15000000000E+04  0.10566000000E+00 0.  1.
        994   -1    0    0    0    0 -0.00000000000E+00 -0.00000000000E+00  0.11368683772E-12  0.17120000000E+03  0.17120000000E+03 0.  0.
         13    1    1    2    0    0 -0.47209060675E+01  0.25297869349E+02  0.28895726660E+02  0.38694228652E+02  0.10566000000E+00 0.  1.
        994    1    1    2    0    0 -0.13631476300E+02 -0.10836496402E+02  0.11271862855E+02  0.17245214320E+03  0.17120000000E+03 0.  0.
        998    1    1    2    0    0  0.18352382367E+02 -0.14461372947E+02  0.14598324068E+04  0.14600536282E+04  0.10000000000E+02 0.  1.
</event>
<event>
 5    1  0.1141915E-008  0.3852092E+03  0.7957747E-01  0.3428785E+00
         13   -1    0    0    0    0  0.00000000000E+00  0.00000000000E+00  0.14999999963E+04  0.15000000000E+04  0.10566000000E+00 0.  1.
        994   -1    0    0    0    0 -0.00000000000E+00 -0.00000000000E+00  0.11368683772E-12  0.17120000000E+03  0.17120000000E+03 0.  0.
         13    1    1    2    0    0 -0.12422025343E+02  0.95162912444E+01  0.76096644170E+02  0.77688975605E+02  0.10566000000E+00 0.  1.
        994    1    1    2    0    0  0.13978478124E+02 -0.11477169529E+02  0.26021079801E+01  0.17217239685E+03  0.17120000000E+03 0.  0.
        998    1    1    2    0    0 -0.15564527802E+01  0.19608782848E+01  0.14213012441E+04  0.14213386275E+04  0.10000000000E+02 0.  1.
</event>
<event>
 5    1  0.1141915E-008  0.3737506E+03  0.7957747E-01  0.3478830E+00
         13   -1    0    0    0    0  0.00000000000E+00  0.00000000000E+00  0.14999999963E+04  0.15000000000E+04  0.10566000000E+00 0.  1.
        994   -1    0    0    0    0 -0.00000000000E+00 -0.00000000000E+00  0.11368683772E-12  0.17120000000E+03  0.17120000000E+03 0.  0.
         13    1    1    2    0    0  0.62572474969E+02 -0.15557280337E+03  0.60460087483E+03  0.62742365335E+03  0.10566000000E+00 0.  1.
        994    1    1    2    0    0 -0.10283243061E+03  0.18313229694E+03  0.17699707423E+03  0.32365004442E+03  0.17120000000E+03 0.  0.
        998    1    1    2    0    0  0.40259955640E+02 -0.27559493575E+02  0.71840204722E+03  0.72012630223E+03  0.10000000000E+02 0.  1.
</event>
<event>
 5    1  0.1141915E-008  0.3778217E+03  0.7957747E-01  0.3460698E+00
         13   -1    0    0    0    0  0.00000000000E+00  0.00000000000E+00  0.14999999963E+04  0.15000000000E+04  0.10566000000E+00 0.  1.
        994   -1    0    0    0    0 -0.00000000000E+00 -0.00000000000E+00  0.11368683772E-12  0.17120000000E+03  0.17120000000E+03 0.  0.
         13    1    1    2    0    0  0.17760137598E+02  0.40441953565E+02  0.18735367017E+03  0.19248995554E+03  0.10566000000E+00 0.  1.
        994    1    1    2    0    0 -0.18024695117E+02 -0.17550392912E+02  0.73708068215E+01  0.17319548123E+03  0.17120000000E+03 0.  0.
        998    1    1    2    0    0  0.26455751945E+00 -0.22891560653E+02  0.13052755193E+04  0.13055145632E+04  0.10000000000E+02 0. -1.
</event>
<event>
 5    1  0.1141915E-008  0.3790017E+03  0.7957747E-01  0.3455517E+00
         13   -1    0    0    0    0  0.00000000000E+00  0.00000000000E+00  0.14999999963E+04  0.15000000000E+04  0.10566000000E+00 0.  1.
        994   -1    0    0    0    0 -0.00000000000E+00 -0.00000000000E+00  0.11368683772E-12  0.17120000000E+03  0.17120000000E+03 0.  0.
         13    1    1    2    0    0  0.16097350271E+02  0.27968474321E+02  0.12183969133E+03  0.12604079415E+03  0.10566000000E+00 0.  1.
        994    1    1    2    0    0  0.24025661418E+02 -0.16759704344E+02  0.75214000263E+01  0.17385088885E+03  0.17120000000E+03 0.  0.
        998    1    1    2    0    0 -0.40123011689E+02 -0.11208769977E+02  0.13706389049E+04  0.13713083170E+04  0.10000000000E+02 0.  1.
</event>
<event>
 5    1  0.1141915E-008  0.3822432E+03  0.7957747E-01  0.3441449E+00
         13   -1    0    0    0    0  0.00000000000E+00  0.00000000000E+00  0.14999999963E+04  0.15000000000E+04  0.10566000000E+00 0.  1.
        994   -1    0    0    0    0 -0.00000000000E+00 -0.00000000000E+00  0.11368683772E-12  0.17120000000E+03  0.17120000000E+03 0.  0.
         13    1    1    2    0    0 -0.21664184568E+01  0.13106252682E+02  0.29157873596E+02  0.32041535310E+02  0.10566000000E+00 0.  1.
        994    1    1    2    0    0 -0.77149618688E+01 -0.11859623988E+01  0.32072532843E+01  0.17140785751E+03  0.17120000000E+03 0.  0.
        998    1    1    2    0    0  0.98813803256E+01 -0.11920290284E+02  0.14676348694E+04  0.14677506072E+04  0.10000000000E+02 0.  1.
</event>
<event>
 5    1  0.1141915E-008  0.3844587E+03  0.7957747E-01  0.3431971E+00
         13   -1    0    0    0    0  0.00000000000E+00  0.00000000000E+00  0.14999999963E+04  0.15000000000E+04  0.10566000000E+00 0. -1.
        994   -1    0    0    0    0 -0.00000000000E+00 -0.00000000000E+00  0.11368683772E-12  0.17120000000E+03  0.17120000000E+03 0.  0.
         13    1    1    2    0    0  0.17513866547E+02 -0.11569549268E+02  0.11862221721E+03  0.12046506369E+03  0.10566000000E+00 0. -1.
        994    1    1    2    0    0 -0.12826581053E+02 -0.10152596339E+01  0.24447218806E+01  0.17170022888E+03  0.17120000000E+03 0.  0.
        998    1    1    2    0    0 -0.46872854941E+01  0.12584808902E+02  0.13789330572E+04  0.13790347074E+04  0.10000000000E+02 0. -1.
</event>
<event>
 5    1  0.1141915E-008  0.3799700E+03  0.7957747E-01  0.3451289E+00
         13   -1    0    0    0    0  0.00000000000E+00  0.00000000000E+00  0.14999999963E+04  0.15000000000E+04  0.10566000000E+00 0.  1.
        994   -1    0    0    0    0 -0.00000000000E+00 -0.00000000000E+00  0.11368683772E-12  0.17120000000E+03  0.17120000000E+03 0.  0.
         13    1    1    2    0    0  0.97260303852E+01 -0.34446497440E+01  0.10877306423E+02  0.14992939604E+02  0.10566000000E+00 0.  1.
        994    1    1    2    0    0 -0.10565149027E+02  0.72984311810E+01  0.46997619570E+01  0.17174521022E+03  0.17120000000E+03 0.  0.
        998    1    1    2    0    0  0.83911864148E+00 -0.38537814371E+01  0.14844229279E+04  0.14844618502E+04  0.10000000000E+02 0.  1.
</event>
<event>
 5    1  0.1141915E-008  0.3774252E+03  0.7957747E-01  0.3462447E+00
         13   -1    0    0    0    0  0.00000000000E+00  0.00000000000E+00  0.14999999963E+04  0.15000000000E+04  0.10566000000E+00 0. -1.
        994   -1    0    0    0    0 -0.00000000000E+00 -0.00000000000E+00  0.11368683772E-12  0.17120000000E+03  0.17120000000E+03 0.  0.
         13    1    1    2    0    0 -0.86660391869E+01 -0.29746150869E+02  0.82534011307E+02  0.88157857921E+02  0.10566000000E+00 0. -1.
        994    1    1    2    0    0  0.84159598430E+01  0.28601245141E+02  0.84412943672E+01  0.17398147906E+03  0.17120000000E+03 0.  0.
        998    1    1    2    0    0  0.25007934390E+00  0.11449057279E+01  0.14090246906E+04  0.14090606630E+04  0.10000000000E+02 0.  0.
</event>
<event>
 5    1  0.1141915E-008  0.3800104E+03  0.7957747E-01  0.3451113E+00
         13   -1    0    0    0    0  0.00000000000E+00  0.00000000000E+00  0.14999999963E+04  0.15000000000E+04  0.10566000000E+00 0.  1.
        994   -1    0    0    0    0 -0.00000000000E+00 -0.00000000000E+00  0.11368683772E-12  0.17120000000E+03  0.17120000000E+03 0.  0.
         13    1    1    2    0    0  0.27681760579E+02 -0.19136298360E+01  0.88890543935E+02  0.93120791518E+02  0.10566000000E+00 0.  1.
        994    1    1    2    0    0 -0.23925103179E+02 -0.16297124124E+01  0.60526020431E+01  0.17297728324E+03  0.17120000000E+03 0.  0.
        998    1    1    2    0    0 -0.37566573993E+01  0.35433422484E+01  0.14050568503E+04  0.14051019252E+04  0.10000000000E+02 0.  0.
</event>
<event>
 5    1  0.1141915E-008  0.3721864E+03  0.7957747E-01  0.3485903E+00
         13   -1    0    0    0    0  0.00000000000E+00  0.00000000000E+00  0.14999999963E+04  0.15000000000E+04  0.10566000000E+00 0.  1.
        994   -1    0    0    0    0 -0.00000000000E+00 -0.00000000000E+00  0.11368683772E-12  0.17120000000E+03  0.17120000000E+03 0.  0.
         13    1    1    2    0    0  0.46005853775E+02  0.22334287026E+02  0.10891335449E+03  0.12032243726E+03  0.10566000000E+00 0.  1.
        994    1    1    2    0    0 -0.23385548601E+02  0.35736310816E+01  0.14073682878E+02  0.17339885603E+03  0.17120000000E+03 0.  0.
        998    1    1    2    0    0 -0.22620305174E+02 -0.25907918108E+02  0.13770129589E+04  0.13774787067E+04  0.10000000000E+02 0.  1.
</event>
<event>
 5    1  0.1141915E-008  0.3741516E+03  0.7957747E-01  0.3477026E+00
         13   -1    0    0    0    0  0.00000000000E+00  0.00000000000E+00  0.14999999963E+04  0.15000000000E+04  0.10566000000E+00 0. -1.
        994   -1    0    0    0    0 -0.00000000000E+00 -0.00000000000E+00  0.11368683772E-12  0.17120000000E+03  0.17120000000E+03 0.  0.
         13    1    1    2    0    0  0.29265989778E+02  0.12267841470E+02  0.33239698111E+02  0.45955269410E+02  0.10566000000E+00 0. -1.
        994    1    1    2    0    0 -0.24389462265E+02  0.63883835387E+01  0.15409353874E+02  0.17373124503E+03  0.17120000000E+03 0.  0.
        998    1    1    2    0    0 -0.48765275134E+01 -0.18656225008E+02  0.14513509443E+04  0.14515134856E+04  0.10000000000E+02 0. -1.
</event>
<event>
 5    1  0.1141915E-008  0.3796179E+03  0.7957747E-01  0.3452824E+00
         13   -1    0    0    0    0  0.00000000000E+00  0.00000000000E+00  0.14999999963E+04  0.15000000000E+04  0.10566000000E+00 0. -1.
        994   -1    0    0    0    0 -0.00000000000E+00 -0.00000000000E+00  0.11368683772E-12  0.17120000000E+03  0.17120000000E+03 0.  0.
         13    1    1    2    0    0 -0.19804924906E+02 -0.43851144303E+01  0.43531178118E+02  0.48025398608E+02  0.10566000000E+00 0. -1.
        994    1    1    2    0    0  0.27272757028E+02  0.91607643838E+01  0.71015986569E+01  0.17374577861E+03  0.17120000000E+03 0.  0.
        998    1    1    2    0    0 -0.74678321217E+01 -0.47756499534E+01  0.14493672195E+04  0.14494288228E+04  0.10000000000E+02 0. -1.
</event>
<event>
 5    1  0.1141915E-008  0.3861197E+03  0.7957747E-01  0.3424937E+00
         13   -1    0    0    0    0  0.00000000000E+00  0.00000000000E+00  0.14999999963E+04  0.15000000000E+04  0.10566000000E+00 0.  1.
        994   -1    0    0    0    0 -0.00000000000E+00 -0.00000000000E+00  0.11368683772E-12  0.17120000000E+03  0.17120000000E+03 0.  0.
         13    1    1    2    0    0 -0.76510785262E+01  0.84676905262E+01  0.63885440834E+02  0.64896852774E+02  0.10566000000E+00 0.  1.
        994    1    1    2    0    0  0.13121182967E+02  0.79897372882E+01  0.18489318467E+01  0.17189781818E+03  0.17120000000E+03 0.  0.
        998    1    1    2    0    0 -0.54701044409E+01 -0.16457427814E+02  0.14342656236E+04  0.14344053291E+04  0.10000000000E+02 0.  1.
</event>
<event>
 5    1  0.1141915E-008  0.3697991E+03  0.7957747E-01  0.3496815E+00
         13   -1    0    0    0    0  0.00000000000E+00  0.00000000000E+00  0.14999999963E+04  0.15000000000E+04  0.10566000000E+00 0.  1.
        994   -1    0    0    0    0 -0.00000000000E+00 -0.00000000000E+00  0.11368683772E-12  0.17120000000E+03  0.17120000000E+03 0.  0.
         13    1    1    2    0    0  0.74840515299E+02  0.42548560768E+02  0.27587960338E+03  0.28900008560E+03  0.10566000000E+00 0.  1.
        994    1    1    2    0    0 -0.84550166638E+02 -0.25207930764E+02  0.38545521038E+02  0.19641631206E+03  0.17120000000E+03 0.  0.
        998    1    1    2    0    0  0.97096513393E+01 -0.17340630003E+02  0.11855748719E+04  0.11857836023E+04  0.10000000000E+02 0.  1.
</event>
<event>
 5    1  0.1141915E-008  0.3705279E+03  0.7957747E-01  0.3493468E+00
         13   -1    0    0    0    0  0.00000000000E+00  0.00000000000E+00  0.14999999963E+04  0.15000000000E+04  0.10566000000E+00 0.  1.
        994   -1    0    0    0    0 -0.00000000000E+00 -0.00000000000E+00  0.11368683772E-12  0.17120000000E+03  0.17120000000E+03 0.  0.
         13    1    1    2    0    0  0.31613056309E+01 -0.16512330364E+02  0.12257993249E+02  0.20806740972E+02  0.10566000000E+00 0.  1.
        994    1    1    2    0    0 -0.52571141085E+01 -0.82316206733E+01  0.93227180811E+01  0.17173162172E+03  0.17120000000E+03 0.  0.
        998    1    1    2    0    0  0.20958084776E+01  0.24743951037E+02  0.14784192849E+04  0.14786616373E+04  0.10000000000E+02 0.  1.
</event>
<event>
 5    1  0.1141915E-008  0.3731070E+03  0.7957747E-01  0.3481733E+00
         13   -1    0    0    0    0  0.00000000000E+00  0.00000000000E+00  0.14999999963E+04  0.15000000000E+04  0.10566000000E+00 0.  1.
        994   -1    0    0    0    0 -0.00000000000E+00 -0.00000000000E+00  0.11368683772E-12  0.17120000000E+03  0.17120000000E+03 0.  0.
         13    1    1    2    0    0  0.60208772141E+02 -0.31585932706E+02  0.19276476560E+03  0.20440409342E+03  0.10566000000E+00 0.  1.
        994    1    1    2    0    0 -0.44663720053E+02 -0.27560019715E+02  0.22391071742E+02  0.18045831283E+03  0.17120000000E+03 0.  0.
        998    1    1    2    0    0 -0.15545052088E+02  0.59145952421E+02  0.12848441589E+04  0.12863375937E+04  0.10000000000E+02 0.  1.
</event>
<event>
 5    1  0.1141915E-008  0.3757750E+03  0.7957747E-01  0.3469764E+00
         13   -1    0    0    0    0  0.00000000000E+00  0.00000000000E+00  0.14999999963E+04  0.15000000000E+04  0.10566000000E+00 0.  1.
        994   -1    0    0    0    0 -0.00000000000E+00 -0.00000000000E+00  0.11368683772E-12  0.17120000000E+03  0.17120000000E+03 0.  0.
         13    1    1    2    0    0 -0.16163042499E+02 -0.47535468570E+00  0.29231864457E+01  0.16432470537E+02  0.10566000000E+00 0.  1.
        994    1    1    2    0    0  0.15832618019E+02 -0.83667287706E+01  0.15170658794E+02  0.17280122347E+03  0.17120000000E+03 0.  0.
        998    1    1    2    0    0  0.33042447954E+00  0.88420834563E+01  0.14819061510E+04  0.14819663060E+04  0.10000000000E+02 0.  1.
</event>
<event>
 5    1  0.1141915E-008  0.3835227E+03  0.7957747E-01  0.3435962E+00
         13   -1    0    0    0    0  0.00000000000E+00  0.00000000000E+00  0.14999999963E+04  0.15000000000E+04  0.10566000000E+00 0.  1.
        994   -1    0    0    0    0 -0.00000000000E+00 -0.00000000000E+00  0.11368683772E-12  0.17120000000E+03  0.17120000000E+03 0.  0.
         13    1    1    2    0    0  0.34257227820E+01  0.16160646250E+02  0.55793660067E+02  0.58188020515E+02  0.10566000000E+00 0.  1.
        994    1    1    2    0    0  0.25643975437E+01 -0.16324866237E+02  0.32682545404E+01  0.17202673885E+03  0.17120000000E+03 0.  0.
        998    1    1    2    0    0 -0.59901203257E+01  0.16421998741E+00  0.14409380817E+04  0.14409852406E+04  0.10000000000E+02 0.  1.
</event>
<event>
 5    1  0.1141915E-008  0.3777181E+03  0.7957747E-01  0.3461155E+00
         13   -1    0    0    0    0  0.00000000000E+00  0.00000000000E+00  0.14999999963E+04  0.15000000000E+04  0.10566000000E+00 0. -1.
        994   -1    0    0    0    0 -0.00000000000E+00 -0.00000000000E+00  0.11368683772E-12  0.17120000000E+03  0.17120000000E+03 0.  0.
         13    1    1    2    0    0 -0.17101340712E+02 -0.26417277131E+02  0.88206803075E+02  0.93652440748E+02  0.10566000000E+00 0. -1.
        994    1    1    2    0    0  0.66983884643E+01  0.29443855902E+02  0.83669069174E+01  0.17404382836E+03  0.17120000000E+03 0.  0.
        998    1    1    2    0    0  0.10402952248E+02 -0.30265787708E+01  0.14034262863E+04  0.14035037309E+04  0.10000000000E+02 0. -1.
</event>
<event>
 5    1  0.1141915E-008  0.3941593E+03  0.7957747E-01  0.3391732E+00
         13   -1    0    0    0    0  0.00000000000E+00  0.00000000000E+00  0.14999999963E+04  0.15000000000E+04  0.10566000000E+00 0.  1.
        994   -1    0    0    0    0 -0.00000000000E+00 -0.00000000000E+00  0.11368683772E-12  0.17120000000E+03  0.17120000000E+03 0.  0.
         13    1    1    2    0    0  0.40027597725E+02 -0.10139693348E+02  0.26128036039E+02  0.48864172889E+02  0.10566000000E+00 0.  1.
        994    1    1    2    0    0 -0.28169558585E+02 -0.10792545026E+02  0.27820266455E+02  0.17604945409E+03  0.17120000000E+03 0.  0.
        998    1    1    2    0    0 -0.11858039140E+02  0.20932238374E+02  0.14460516938E+04  0.14462863730E+04  0.10000000000E+02 0.  1.
</event>
<event>
 5    1  0.1141915E-008  0.3715711E+03  0.7957747E-01  0.3488702E+00
         13   -1    0    0    0    0  0.00000000000E+00  0.00000000000E+00  0.14999999963E+04  0.15000000000E+04  0.10566000000E+00 0.  1.
        994   -1    0    0    0    0 -0.00000000000E+00 -0.00000000000E+00  0.11368683772E-12  0.17120000000E+03  0.17120000000E+03 0.  0.
         13    1    1    2    0    0 -0.37586138257E+01  0.46332260223E+02  0.15134926310E+03  0.15832692797E+03  0.10566000000E+00 0.  1.
        994    1    1    2    0    0  0.68440752593E+01  0.12599728058E+02  0.91575481062E+01  0.17204329455E+03  0.17120000000E+03 0.  0.
        998    1    1    2    0    0 -0.30854614336E+01 -0.58931988281E+02  0.13394931851E+04  0.13408297775E+04  0.10000000000E+02 0.  1.
</event>
<event>
 5    1  0.1141915E-008  0.3843926E+03  0.7957747E-01  0.3432252E+00
         13   -1    0    0    0    0  0.00000000000E+00  0.00000000000E+00  0.14999999963E+04  0.15000000000E+04  0.10566000000E+00 0. -1.
        994   -1    0    0    0    0 -0.00000000000E+00 -0.00000000000E+00  0.11368683772E-12  0.17120000000E+03  0.17120000000E+03 0.  0.
         13    1    1    2    0    0  0.65986162035E+01  0.18779297943E+02  0.91355925915E+02  0.93499305510E+02  0.10566000000E+00 0. -1.
        994    1    1    2    0    0 -0.22938025009E+02 -0.23192640450E+02  0.54460680498E+01  0.17436499425E+03  0.17120000000E+03 0.  0.
        998    1    1    2    0    0  0.16339408806E+02  0.44133425065E+01  0.14031980023E+04  0.14033357002E+04  0.10000000000E+02 0. -1.
</event>
<event>
 5    1  0.1141915E-008  0.3757916E+03  0.7957747E-01  0.3469690E+00
         13   -1    0    0    0    0  0.00000000000E+00  0.00000000000E+00  0.14999999963E+04  0.15000000000E+04  0.10566000000E+00 0.  1.
        994   -1    0    0    0    0 -0.00000000000E+00 -0.00000000000E+00  0.11368683772E-12  0.17120000000E+03  0.17120000000E+03 0.  0.
         13    1    1    2    0    0 -0.25901627385E+02 -0.32038552743E+02  0.12068626819E+03  0.12752470215E+03  0.10566000000E+00 0.  1.
        994    1    1    2    0    0  0.24284774262E+02  0.38968722337E+02  0.13453978063E+02  0.17776040365E+03  0.17120000000E+03 0.  0.
        998    1    1    2    0    0  0.16168531233E+01 -0.69301695930E+01  0.13658597500E+04  0.13659148942E+04  0.10000000000E+02 0.  1.
</event>
<event>
 5    1  0.1141915E-008  0.3725812E+03  0.7957747E-01  0.3484112E+00
         13   -1    0    0    0    0  0.00000000000E+00  0.00000000000E+00  0.14999999963E+04  0.15000000000E+04  0.10566000000E+00 0. -1.
        994   -1    0    0    0    0 -0.00000000000E+00 -0.00000000000E+00  0.11368683772E-12  0.17120000000E+03  0.17120000000E+03 0.  0.
         13    1    1    2    0    0  0.75295185839E+02 -0.18302748097E+02  0.23897607036E+03  0.25122485738E+03  0.10566000000E+00 0. -1.
        994    1    1    2    0    0 -0.48714873912E+02 -0.14781773798E+01  0.20737623847E+02  0.17920606293E+03  0.17120000000E+03 0.  0.
        998    1    1    2    0    0 -0.26580311927E+02  0.19780925477E+02  0.12402863021E+04  0.12407690797E+04  0.10000000000E+02 0. -1.
</event>
<event>
 5    1  0.1141915E-008  0.3805670E+03  0.7957747E-01  0.3448693E+00
         13   -1    0    0    0    0  0.00000000000E+00  0.00000000000E+00  0.14999999963E+04  0.15000000000E+04  0.10566000000E+00 0. -1.
        994   -1    0    0    0    0 -0.00000000000E+00 -0.00000000000E+00  0.11368683772E-12  0.17120000000E+03  0.17120000000E+03 0.  0.
         13    1    1    2    0    0 -0.12923728606E+02 -0.14422206994E+02  0.36056729502E+01  0.19698600384E+02  0.10566000000E+00 0. -1.
        994    1    1    2    0    0  0.68509144317E+02 -0.41257945348E+02  0.40248118001E+02  0.19319697697E+03  0.17120000000E+03 0.  0.
        998    1    1    2    0    0 -0.55585415712E+02  0.55680152342E+02  0.14561462053E+04  0.14583044226E+04  0.10000000000E+02 0. -1.
</event>
<event>
 5    1  0.1141915E-008  0.3848586E+03  0.7957747E-01  0.3430272E+00
         13   -1    0    0    0    0  0.00000000000E+00  0.00000000000E+00  0.14999999963E+04  0.15000000000E+04  0.10566000000E+00 0. -1.
        994   -1    0    0    0    0 -0.00000000000E+00 -0.00000000000E+00  0.11368683772E-12  0.17120000000E+03  0.17120000000E+03 0.  0.
         13    1    1    2    0    0  0.11670617627E+01  0.11244709508E+02  0.37194311777E+02  0.38874587042E+02  0.10566000000E+00 0. -1.
        994    1    1    2    0    0 -0.25311604229E-01 -0.86671875719E+01  0.19475348353E+01  0.17143031725E+03  0.17120000000E+03 0.  0.
        998    1    1    2    0    0 -0.11417501585E+01 -0.25775219357E+01  0.14608581497E+04  0.14608950957E+04  0.10000000000E+02 0. -1.
</event>
<event>
 5    1  0.1141915E-008  0.3842868E+03  0.7957747E-01  0.3432703E+00
         13   -1    0    0    0    0  0.00000000000E+00  0.00000000000E+00  0.14999999963E+04  0.15000000000E+04  0.10566000000E+00 0. -1.
        994   -1    0    0    0    0 -0.00000000000E+00 -0.00000000000E+00  0.11368683772E-12  0.17120000000E+03  0.17120000000E+03 0.  0.
         13    1    1    2    0    0 -0.15765170591E+02 -0.55650666254E+01  0.69508618895E+02  0.71491047237E+02  0.10566000000E+00 0. -1.
        994    1    1    2    0    0  0.12155008896E+02  0.25293721959E+01  0.24929206071E+01  0.17166769241E+03  0.17120000000E+03 0.  0.
        998    1    1    2    0    0  0.36101616957E+01  0.30356944295E+01  0.14279984568E+04  0.14280412604E+04  0.10000000000E+02 0. -1.
</event>
<event>
 5    1  0.1141915E-008  0.3810039E+03  0.7957747E-01  0.3446799E+00
         13   -1    0    0    0    0  0.00000000000E+00  0.00000000000E+00  0.14999999963E+04  0.15000000000E+04  0.10566000000E+00 0. -1.
        994   -1    0    0    0    0 -0.00000000000E+00 -0.00000000000E+00  0.11368683772E-12  0.17120000000E+03  0.17120000000E+03 0.  0.
         13    1    1    2    0    0 -0.38166151626E+02 -0.48609436911E+02  0.10413992120E+03  0.12109775737E+03  0.10566000000E+00 0. -1.
        994    1    1    2    0    0  0.21898899877E+02  0.47918259665E+02  0.27044644818E+02  0.18115345494E+03  0.17120000000E+03 0.  0.
        998    1    1    2    0    0  0.16267251749E+02  0.69117724651E+00  0.13688154303E+04  0.13689487877E+04  0.10000000000E+02 0. -1.
</event>
<event>
 5    1  0.1141915E-008  0.3847395E+03  0.7957747E-01  0.3430778E+00
         13   -1    0    0    0    0  0.00000000000E+00  0.00000000000E+00  0.14999999963E+04  0.15000000000E+04  0.10566000000E+00 0.  1.
        994   -1    0    0    0    0 -0.00000000000E+00 -0.00000000000E+00  0.11368683772E-12  0.17120000000E+03  0.17120000000E+03 0.  0.
         13    1    1    2    0    0  0.10527103026E+02 -0.26762802917E+01  0.32163924107E+02  0.33948660538E+02  0.10566000000E+00 0.  1.
        994    1    1    2    0    0 -0.15292663336E+02 -0.18123170278E+00  0.25297628389E+01  0.17190037259E+03  0.17120000000E+03 0.  0.
        998    1    1    2    0    0  0.47655603100E+01  0.28575119945E+01  0.14653063093E+04  0.14653509669E+04  0.10000000000E+02 0.  1.
</event>
<event>
 5    1  0.1141915E-008  0.3798732E+03  0.7957747E-01  0.3451711E+00
         13   -1    0    0    0    0  0.00000000000E+00  0.00000000000E+00  0.14999999963E+04  0.15000000000E+04  0.10566000000E+00 0.  1.
        994   -1    0    0    0    0 -0.00000000000E+00 -0.00000000000E+00  0.11368683772E-12  0.17120000000E+03  0.17120000000E+03 0.  0.
         13    1    1    2    0    0 -0.51094789176E+02  0.12138899569E+01  0.29427791624E+03  0.29868320033E+03  0.10566000000E+00 0.  1.
        994    1    1    2    0    0  0.34673917188E+02 -0.12086416410E+02  0.87197290522E+01  0.17531068327E+03  0.17120000000E+03 0.  0.
        998    1    1    2    0    0  0.16420871988E+02  0.10872526453E+02  0.11970023510E+04  0.11972061164E+04  0.10000000000E+02 0.  1.
</event>
<event>
 5    1  0.1141915E-008  0.3842400E+03  0.7957747E-01  0.3432902E+00
         13   -1    0    0    0    0  0.00000000000E+00  0.00000000000E+00  0.14999999963E+04  0.15000000000E+04  0.10566000000E+00 0. -1.
        994   -1    0    0    0    0 -0.00000000000E+00 -0.00000000000E+00  0.11368683772E-12  0.17120000000E+03  0.17120000000E+03 0.  0.
         13    1    1    2    0    0  0.40735159951E+01  0.15892308756E+02  0.68422901235E+02  0.70362373379E+02  0.10566000000E+00 0. -1.
        994    1    1    2    0    0  0.16341930276E+01 -0.69904621212E+01  0.21778517239E+01  0.17136429087E+03  0.17120000000E+03 0.  0.
        998    1    1    2    0    0 -0.57077090227E+01 -0.89018466351E+01  0.14293992433E+04  0.14294733357E+04  0.10000000000E+02 0. -1.
</event>
<event>
 5    1  0.1141915E-008  0.3813522E+03  0.7957747E-01  0.3445292E+00
         13   -1    0    0    0    0  0.00000000000E+00  0.00000000000E+00  0.14999999963E+04  0.15000000000E+04  0.10566000000E+00 0.  1.
        994   -1    0    0    0    0 -0.00000000000E+00 -0.00000000000E+00  0.11368683772E-12  0.17120000000E+03  0.17120000000E+03 0.  0.
         13    1    1    2    0    0 -0.25002706485E+02  0.45318180794E+01  0.86041651188E+02  0.89715381122E+02  0.10566000000E+00 0.  1.
        994    1    1    2    0    0  0.33054679672E+02  0.14945810488E+02  0.78441686443E+01  0.17517693935E+03  0.17120000000E+03 0.  0.
        998    1    1    2    0    0 -0.80519731869E+01 -0.19477628568E+02  0.14061141764E+04  0.14063076795E+04  0.10000000000E+02 0.  1.
</event>
<event>
 5    1  0.1141915E-008  0.3827029E+03  0.7957747E-01  0.3439473E+00
         13   -1    0    0    0    0  0.00000000000E+00  0.00000000000E+00  0.14999999963E+04  0.15000000000E+04  0.10566000000E+00 0. -1.
        994   -1    0    0    0    0 -0.00000000000E+00 -0.00000000000E+00  0.11368683772E-12  0.17120000000E+03  0.17120000000E+03 0.  0.
         13    1    1    2    0    0  0.59361299934E+01 -0.17201170118E+02  0.62245656500E+02  0.64850989274E+02  0.10566000000E+00 0. -1.
        994    1    1    2    0    0 -0.85479398964E+01 -0.26281449054E+01  0.30399390448E+01  0.17146036175E+03  0.17120000000E+03 0.  0.
        998    1    1    2    0    0  0.26118099030E+01  0.19829315023E+02  0.14347144007E+04  0.14348886490E+04  0.10000000000E+02 0. -1.
</event>
<event>
 5    1  0.1141915E-008  0.3784660E+03  0.7957747E-01  0.3457865E+00
         13   -1    0    0    0    0  0.00000000000E+00  0.00000000000E+00  0.14999999963E+04  0.15000000000E+04  0.10566000000E+00 0. -1.
        994   -1    0    0    0    0 -0.00000000000E+00 -0.00000000000E+00  0.11368683772E-12  0.17120000000E+03  0.17120000000E+03 0.  0.
         13    1    1    2    0    0  0.30874240481E+02  0.25028988770E+02  0.15487913525E+03  0.15989755065E+03  0.10566000000E+00 0. -1.
        994    1    1    2    0    0 -0.22213353499E+02 -0.16944821089E+02  0.75365986989E+01  0.17362833972E+03  0.17120000000E+03 0.  0.
        998    1    1    2    0    0 -0.86608869824E+01 -0.80841676806E+01  0.13375842623E+04  0.13376741096E+04  0.10000000000E+02 0. -1.
</event>
<event>
 5    1  0.1141915E-008  0.3789598E+03  0.7957747E-01  0.3455700E+00
         13   -1    0    0    0    0  0.00000000000E+00  0.00000000000E+00  0.14999999963E+04  0.15000000000E+04  0.10566000000E+00 0.  1.
        994   -1    0    0    0    0 -0.00000000000E+00 -0.00000000000E+00  0.11368683772E-12  0.17120000000E+03  0.17120000000E+03 0.  0.
         13    1    1    2    0    0  0.48922434616E+02  0.60944432090E+02  0.46754030204E+03  0.47402697561E+03  0.10566000000E+00 0.  1.
        994    1    1    2    0    0 -0.42912700307E+02 -0.61539518222E+02  0.23777880541E+02  0.18842356475E+03  0.17120000000E+03 0.  0.
        998    1    1    2    0    0 -0.60097343085E+01  0.59508613146E+00  0.10086818137E+04  0.10087494596E+04  0.10000000000E+02 0.  0.
</event>
<event>
 5    1  0.1141915E-008  0.3759412E+03  0.7957747E-01  0.3469024E+00
         13   -1    0    0    0    0  0.00000000000E+00  0.00000000000E+00  0.14999999963E+04  0.15000000000E+04  0.10566000000E+00 0.  1.
        994   -1    0    0    0    0 -0.00000000000E+00 -0.00000000000E+00  0.11368683772E-12  0.17120000000E+03  0.17120000000E+03 0.  0.
         13    1    1    2    0    0  0.77126403803E+02  0.37646824817E+02  0.42030325552E+03  0.42897622701E+03  0.10566000000E+00 0.  1.
        994    1    1    2    0    0 -0.76720387722E+02 -0.39848079074E+02  0.31957085136E+02  0.19443400574E+03  0.17120000000E+03 0.  0.
        998    1    1    2    0    0 -0.40601608134E+00  0.22012542577E+01  0.10477396556E+04  0.10477897672E+04  0.10000000000E+02 0.  0.
</event>
<event>
 5    1  0.1141915E-008  0.3781930E+03  0.7957747E-01  0.3459064E+00
         13   -1    0    0    0    0  0.00000000000E+00  0.00000000000E+00  0.14999999963E+04  0.15000000000E+04  0.10566000000E+00 0.  1.
        994   -1    0    0    0    0 -0.00000000000E+00 -0.00000000000E+00  0.11368683772E-12  0.17120000000E+03  0.17120000000E+03 0.  0.
         13    1    1    2    0    0  0.44376856560E+02  0.23443762854E+02  0.21074173557E+03  0.21663565194E+03  0.10566000000E+00 0.  1.
        994    1    1    2    0    0 -0.36945124026E+02 -0.44110120022E+02  0.16263712503E+02  0.18134109634E+03  0.17120000000E+03 0.  0.
        998    1    1    2    0    0 -0.74317325346E+01  0.20666357168E+02  0.12729945482E+04  0.12732232517E+04  0.10000000000E+02 0.  1.
</event>
<event>
 5    1  0.1141915E-008  0.3801037E+03  0.7957747E-01  0.3450707E+00
         13   -1    0    0    0    0  0.00000000000E+00  0.00000000000E+00  0.14999999963E+04  0.15000000000E+04  0.10566000000E+00 0. -1.
        994   -1    0    0    0    0 -0.00000000000E+00 -0.00000000000E+00  0.11368683772E-12  0.17120000000E+03  0.17120000000E+03 0.  0.
         13    1    1    2    0    0  0.45275016553E+02  0.85424796288E+01  0.24523851968E+03  0.24952904396E+03  0.10566000000E+00 0. -1.
        994    1    1    2    0    0 -0.30975657933E+02 -0.13207400964E+02  0.78794344630E+01  0.17465810119E+03  0.17120000000E+03 0.  0.
        998    1    1    2    0    0 -0.14299358620E+02  0.46649213357E+01  0.12468820421E+04  0.12470128548E+04  0.10000000000E+02 0. -1.
</event>
<event>
 5    1  0.1141915E-008  0.3752007E+03  0.7957747E-01  0.3472325E+00
         13   -1    0    0    0    0  0.00000000000E+00  0.00000000000E+00  0.14999999963E+04  0.15000000000E+04  0.10566000000E+00 0. -1.
        994   -1    0    0    0    0 -0.00000000000E+00 -0.00000000000E+00  0.11368683772E-12  0.17120000000E+03  0.17120000000E+03 0.  0.
         13    1    1    2    0    0 -0.16072265368E+01 -0.22756663583E+02  0.13265918015E+02  0.26390237956E+02  0.10566000000E+00 0. -1.
        994    1    1    2    0    0 -0.19346363263E+02  0.11400837869E+02  0.15513263621E+02  0.17336193995E+03  0.17120000000E+03 0.  0.
        998    1    1    2    0    0  0.20953589800E+02  0.11355825714E+02  0.14712208146E+04  0.14714478221E+04  0.10000000000E+02 0. -1.
</event>
<event>
 5    1  0.1141915E-008  0.3814684E+03  0.7957747E-01  0.3444790E+00
         13   -1    0    0    0    0  0.00000000000E+00  0.00000000000E+00  0.14999999963E+04  0.15000000000E+04  0.10566000000E+00 0.  1.
        994   -1    0    0    0    0 -0.00000000000E+00 -0.00000000000E+00  0.11368683772E-12  0.17120000000E+03  0.17120000000E+03 0.  0.
         13    1    1    2    0    0  0.14109543987E+02  0.27252969730E+01  0.28928534584E+02  0.32301358366E+02  0.10566000000E+00 0.  1.
        994    1    1    2    0    0 -0.10800993439E+02 -0.71340012719E+01  0.39513769106E+01  0.17173412245E+03  0.17120000000E+03 0.  0.
        998    1    1    2    0    0 -0.33085505479E+01  0.44087042989E+01  0.14671200848E+04  0.14671645192E+04  0.10000000000E+02 0.  1.
</event>
<event>
 5    1  0.1141915E-008  0.3856800E+03  0.7957747E-01  0.3426793E+00
         13   -1    0    0    0    0  0.00000000000E+00  0.00000000000E+00  0.14999999963E+04  0.15000000000E+04  0.10566000000E+00 0. -1.
        994   -1    0    0    0    0 -0.00000000000E+00 -0.00000000000E+00  0.11368683772E-12  0.17120000000E+03  0.17120000000E+03 0.  0.
         13    1    1    2    0    0 -0.54085147356E+01 -0.73694471300E+02  0.12990882480E+03  0.14945380910E+03  0.10566000000E+00 0. -1.
        994    1    1    2    0    0 -0.48701504851E+02  0.61345667239E+02  0.42560292639E+02  0.19301799391E+03  0.17120000000E+03 0.  0.
        998    1    1    2    0    0  0.54110019586E+02  0.12348804061E+02  0.13275308788E+04  0.13287281970E+04  0.10000000000E+02 0. -1.
</event>
<event>
 5    1  0.1141915E-008  0.3845526E+03  0.7957747E-01  0.3431572E+00
         13   -1    0    0    0    0  0.00000000000E+00  0.00000000000E+00  0.14999999963E+04  0.15000000000E+04  0.10566000000E+00 0. -1.
        994   -1    0    0    0    0 -0.00000000000E+00 -0.00000000000E+00  0.11368683772E-12  0.17120000000E+03  0.17120000000E+03 0.  0.
         13    1    1    2    0    0 -0.70775180645E+01  0.10089094084E+02  0.40950829311E+02  0.42765203925E+02  0.10566000000E+00 0. -1.
        994    1    1    2    0    0  0.72747852517E+01 -0.33863207512E+01  0.20645033124E+01  0.17140038460E+03  0.17120000000E+03 0.  0.
        998    1    1    2    0    0 -0.19726718724E+00 -0.67027733325E+01  0.14569846637E+04  0.14570344115E+04  0.10000000000E+02 0. -1.
</event>
<event>
 5    1  0.1141915E-008  0.3856977E+03  0.7957747E-01  0.3426718E+00
         13   -1    0    0    0    0  0.00000000000E+00  0.00000000000E+00  0.14999999963E+04  0.15000000000E+04  0.10566000000E+00 0. -1.
        994   -1    0    0    0    0 -0.00000000000E+00 -0.00000000000E+00  0.11368683772E-12  0.17120000000E+03  0.17120000000E+03 0.  0.
         13    1    1    2    0    0  0.91573508462E+01  0.67055962443E+01  0.48156074533E+02  0.49475658399E+02  0.10566000000E+00 0. -1.
        994    1    1    2    0    0 -0.12564462060E+01 -0.25230838795E+02  0.33809144684E+01  0.17308681194E+03  0.17120000000E+03 0.  0.
        998    1    1    2    0    0 -0.79009046402E+01  0.18525242551E+02  0.14484630073E+04  0.14486375297E+04  0.10000000000E+02 0. -1.
</event>
<event>
 5    1  0.1141915E-008  0.3850398E+03  0.7957747E-01  0.3429503E+00
         13   -1    0    0    0    0  0.00000000000E+00  0.00000000000E+00  0.14999999963E+04  0.15000000000E+04  0.10566000000E+00 0.  1.
        994   -1    0    0    0    0 -0.00000000000E+00 -0.00000000000E+00  0.11368683772E-12  0.17120000000E+03  0.17120000000E+03 0.  0.
         13    1    1    2    0    0 -0.74071704214E+01  0.99997607344E+01  0.43978974293E+02  0.45705828210E+02  0.10566000000E+00 0.  1.
        994    1    1    2    0    0  0.31939537301E+02 -0.81827301163E+01  0.51931785760E+01  0.17442333622E+03  0.17120000000E+03 0.  0.
        998    1    1    2    0    0 -0.24532366880E+02 -0.18170306181E+01  0.14508278434E+04  0.14510708356E+04  0.10000000000E+02 0.  1.
</event>
<event>
 5    1  0.1141915E-008  0.3740781E+03  0.7957747E-01  0.3477356E+00
         13   -1    0    0    0    0  0.00000000000E+00  0.00000000000E+00  0.14999999963E+04  0.15000000000E+04  0.10566000000E+00 0. -1.
        994   -1    0    0    0    0 -0.00000000000E+00 -0.00000000000E+00  0.11368683772E-12  0.17120000000E+03  0.17120000000E+03 0.  0.
         13    1    1    2    0    0  0.44097225654E+02 -0.15075237783E+03  0.54094477643E+03  0.56328687810E+03  0.10566000000E+00 0. -1.
        994    1    1    2    0    0 -0.23176172761E+02  0.15923617178E+03  0.11162082650E+03  0.26011909252E+03  0.17120000000E+03 0.  0.
        998    1    1    2    0    0 -0.20921052893E+02 -0.84837939528E+01  0.84743439335E+03  0.84779402937E+03  0.10000000000E+02 0.  1.
</event>
<event>
 5    1  0.1141915E-008  0.3831597E+03  0.7957747E-01  0.3437515E+00
         13   -1    0    0    0    0  0.00000000000E+00  0.00000000000E+00  0.14999999963E+04  0.15000000000E+04  0.10566000000E+00 0.  1.
        994   -1    0    0    0    0 -0.00000000000E+00 -0.00000000000E+00  0.11368683772E-12  0.17120000000E+03  0.17120000000E+03 0.  0.
         13    1    1    2    0    0  0.18068193797E+02  0.58252756937E+01  0.71313028320E+02  0.73796698003E+02  0.10566000000E+00 0.  1.
        994    1    1    2    0    0 -0.90917052601E+01 -0.79122334941E+00  0.28221659661E+01  0.17146629336E+03  0.17120000000E+03 0.  0.
        998    1    1    2    0    0 -0.89764885372E+01 -0.50340523443E+01  0.14258648020E+04  0.14259370086E+04  0.10000000000E+02 0.  1.
</event>
<event>
 5    1  0.1141915E-008  0.3754657E+03  0.7957747E-01  0.3471143E+00
         13   -1    0    0    0    0  0.00000000000E+00  0.00000000000E+00  0.14999999963E+04  0.15000000000E+04  0.10566000000E+00 0.  1.
        994   -1    0    0    0    0 -0.00000000000E+00 -0.00000000000E+00  0.11368683772E-12  0.17120000000E+03  0.17120000000E+03 0.  0.
         13    1    1    2    0    0 -0.26292457089E+02  0.35020648895E+02  0.13841613178E+03  0.14517842763E+03  0.10566000000E+00 0.  1.
        994    1    1    2    0    0  0.26528448485E+02 -0.27190335944E+02  0.11353108714E+02  0.17573106164E+03  0.17120000000E+03 0.  0.
        998    1    1    2    0    0 -0.23599139528E+00 -0.78303129512E+01  0.13502307558E+04  0.13502905107E+04  0.10000000000E+02 0.  1.
</event>
<event>
 5    1  0.1141915E-008  0.3751904E+03  0.7957747E-01  0.3472371E+00
         13   -1    0    0    0    0  0.00000000000E+00  0.00000000000E+00  0.14999999963E+04  0.15000000000E+04  0.10566000000E+00 0. -1.
        994   -1    0    0    0    0 -0.00000000000E+00 -0.00000000000E+00  0.11368683772E-12  0.17120000000E+03  0.17120000000E+03 0.  0.
         13    1    1    2    0    0  0.21747893497E+02 -0.17227065592E+02  0.53797188155E+02  0.60530085726E+02  0.10566000000E+00 0. -1.
        994    1    1    2    0    0 -0.22129301677E+02  0.20470815710E+02  0.96742297165E+01  0.17410281735E+03  0.17120000000E+03 0.  0.
        998    1    1    2    0    0  0.38140817953E+00 -0.32437501177E+01  0.14365285784E+04  0.14365670969E+04  0.10000000000E+02 0. -1.
</event>
<event>
 5    1  0.1141915E-008  0.3820278E+03  0.7957747E-01  0.3442376E+00
         13   -1    0    0    0    0  0.00000000000E+00  0.00000000000E+00  0.14999999963E+04  0.15000000000E+04  0.10566000000E+00 0.  1.
        994   -1    0    0    0    0 -0.00000000000E+00 -0.00000000000E+00  0.11368683772E-12  0.17120000000E+03  0.17120000000E+03 0.  0.
         13    1    1    2    0    0  0.14164861733E+02 -0.57170989286E+00  0.31745072557E+02  0.34766808249E+02  0.10566000000E+00 0.  1.
        994    1    1    2    0    0 -0.38870529777E+01  0.56475506999E+01  0.32691134350E+01  0.17136840757E+03  0.17120000000E+03 0.  0.
        998    1    1    2    0    0 -0.10277808755E+02 -0.50758408070E+01  0.14649858103E+04  0.14650647842E+04  0.10000000000E+02 0.  1.
</event>
<event>
 5    1  0.1141915E-008  0.3834366E+03  0.7957747E-01  0.3436330E+00
         13   -1    0    0    0    0  0.00000000000E+00  0.00000000000E+00  0.14999999963E+04  0.15000000000E+04  0.10566000000E+00 0. -1.
        994   -1    0    0    0    0 -0.00000000000E+00 -0.00000000000E+00  0.11368683772E-12  0.17120000000E+03  0.17120000000E+03 0.  0.
         13    1    1    2    0    0 -0.49536221690E+02 -0.94024380242E+02  0.24469317034E+03  0.26677552383E+03  0.10566000000E+00 0. -1.
        994    1    1    2    0    0  0.71313631587E+02  0.89101109204E+02  0.67756001961E+02  0.21662169216E+03  0.17120000000E+03 0.  0.
        998    1    1    2    0    0 -0.21777409897E+02  0.49232710385E+01  0.11875508240E+04  0.11878027840E+04  0.10000000000E+02 0. -1.
</event>
<event>
 5    1  0.1141915E-008  0.3856029E+03  0.7957747E-01  0.3427119E+00
         13   -1    0    0    0    0  0.00000000000E+00  0.00000000000E+00  0.14999999963E+04  0.15000000000E+04  0.10566000000E+00 0.  1.
        994   -1    0    0    0    0 -0.00000000000E+00 -0.00000000000E+00  0.11368683772E-12  0.17120000000E+03  0.17120000000E+03 0.  0.
         13    1    1    2    0    0  0.18124285757E+01  0.11941201824E+02  0.56723060088E+02  0.57994774835E+02  0.10566000000E+00 0.  1.
        994    1    1    2    0    0  0.50159604250E+01 -0.45666518429E+01  0.14821631323E+01  0.17134074523E+03  0.17120000000E+03 0.  0.
        998    1    1    2    0    0 -0.68283890006E+01 -0.73745499816E+01  0.14417947731E+04  0.14418644799E+04  0.10000000000E+02 0.  1.
</event>
<event>
 5    1  0.1141915E-008  0.3814050E+03  0.7957747E-01  0.3445064E+00
         13   -1    0    0    0    0  0.00000000000E+00  0.00000000000E+00  0.14999999963E+04  0.15000000000E+04  0.10566000000E+00 0.  1.
        994   -1    0    0    0    0 -0.00000000000E+00 -0.00000000000E+00  0.11368683772E-12  0.17120000000E+03  0.17120000000E+03 0.  0.
         13    1    1    2    0    0  0.16172893264E+02  0.87259955264E+01  0.50084120272E+02  0.53349186890E+02  0.10566000000E+00 0.  1.
        994    1    1    2    0    0 -0.65402712325E+01  0.78845585356E+01  0.37748562942E+01  0.17154775123E+03  0.17120000000E+03 0.  0.
        998    1    1    2    0    0 -0.96326220319E+01 -0.16610554062E+02  0.14461410197E+04  0.14463030619E+04  0.10000000000E+02 0.  1.
</event>
<event>
 5    1  0.1502180E-008  0.3841390E+03  0.7957747E-01  0.3433332E+00
         13   -1    0    0    0    0  0.00000000000E+00  0.00000000000E+00  0.14999999963E+04  0.15000000000E+04  0.10566000000E+00 0. -1.
        994   -1    0    0    0    0 -0.00000000000E+00 -0.00000000000E+00  0.11368683772E-12  0.17120000000E+03  0.17120000000E+03 0.  0.
         13    1    1    2    0    0  0.10115546514E+02  0.17538029075E+01  0.24869657812E+02  0.26905596994E+02  0.10566000000E+00 0. -1.
        994    1    1    2    0    0 -0.86251312113E+01 -0.59035469866E+00  0.23047379043E+01  0.17143364088E+03  0.17120000000E+03 0.  0.
        998    1    1    2    0    0 -0.14904153026E+01 -0.11634482088E+01  0.14728256006E+04  0.14728607621E+04  0.10000000000E+02 0. -1.
</event>
<event>
 5    1  0.1141915E-008  0.3856424E+03  0.7957747E-01  0.3426952E+00
         13   -1    0    0    0    0  0.00000000000E+00  0.00000000000E+00  0.14999999963E+04  0.15000000000E+04  0.10566000000E+00 0.  1.
        994   -1    0    0    0    0 -0.00000000000E+00 -0.00000000000E+00  0.11368683772E-12  0.17120000000E+03  0.17120000000E+03 0.  0.
         13    1    1    2    0    0  0.96582075071E+01 -0.84101850857E+01  0.57681275976E+02  0.59085979282E+02  0.10566000000E+00 0.  1.
        994    1    1    2    0    0 -0.13740001033E+02  0.17651188284E+02  0.29553031316E+01  0.17268041549E+03  0.17120000000E+03 0.  0.
        998    1    1    2    0    0  0.40817935257E+01 -0.92410031980E+01  0.14393634172E+04  0.14394336052E+04  0.10000000000E+02 0.  1.
</event>
<event>
 5    1  0.1141915E-008  0.4175574E+03  0.7957747E-01  0.3302333E+00
         13   -1    0    0    0    0  0.00000000000E+00  0.00000000000E+00  0.14999999963E+04  0.15000000000E+04  0.10566000000E+00 0.  1.
        994   -1    0    0    0    0 -0.00000000000E+00 -0.00000000000E+00  0.11368683772E-12  0.17120000000E+03  0.17120000000E+03 0.  0.
         13    1    1    2    0    0  0.13780817382E+02 -0.51776229213E+02  0.24275507556E+02  0.58821766978E+02  0.10566000000E+00 0.  1.
        994    1    1    2    0    0 -0.42690125361E+02  0.16374614324E+02  0.47592978018E+02  0.18348053399E+03  0.17120000000E+03 0.  0.
        998    1    1    2    0    0  0.28909307978E+02  0.35401614890E+02  0.14281315107E+04  0.14288976990E+04  0.10000000000E+02 0.  1.
</event>
<event>
 5    1  0.1141915E-008  0.3851709E+03  0.7957747E-01  0.3428948E+00
         13   -1    0    0    0    0  0.00000000000E+00  0.00000000000E+00  0.14999999963E+04  0.15000000000E+04  0.10566000000E+00 0.  1.
        994   -1    0    0    0    0 -0.00000000000E+00 -0.00000000000E+00  0.11368683772E-12  0.17120000000E+03  0.17120000000E+03 0.  0.
         13    1    1    2    0    0 -0.10345375242E+02  0.12820208511E+02  0.85240732785E+02  0.86818075450E+02  0.10566000000E+00 0.  1.
        994    1    1    2    0    0  0.11045748001E+02 -0.10296709064E+02  0.22951776807E+01  0.17188001224E+03  0.17120000000E+03 0.  0.
        998    1    1    2    0    0 -0.70037275869E+00 -0.25234994475E+01  0.14124640858E+04  0.14125019123E+04  0.10000000000E+02 0.  1.
</event>
<event>
 5    1  0.1141915E-008  0.3824152E+03  0.7957747E-01  0.3440709E+00
         13   -1    0    0    0    0  0.00000000000E+00  0.00000000000E+00  0.14999999963E+04  0.15000000000E+04  0.10566000000E+00 0. -1.
        994   -1    0    0    0    0 -0.00000000000E+00 -0.00000000000E+00  0.11368683772E-12  0.17120000000E+03  0.17120000000E+03 0.  0.
         13    1    1    2    0    0 -0.37146846626E+01 -0.12748016886E+02  0.29442515999E+02  0.32298354897E+02  0.10566000000E+00 0. -1.
        994    1    1    2    0    0  0.98611853644E+01  0.35774916131E+01  0.32839583468E+01  0.17155251617E+03  0.17120000000E+03 0.  0.
        998    1    1    2    0    0 -0.61465007018E+01  0.91705252730E+01  0.14672735219E+04  0.14673491289E+04  0.10000000000E+02 0. -1.
</event>
<event>
 5    1  0.1141915E-008  0.3806703E+03  0.7957747E-01  0.3448245E+00
         13   -1    0    0    0    0  0.00000000000E+00  0.00000000000E+00  0.14999999963E+04  0.15000000000E+04  0.10566000000E+00 0. -1.
        994   -1    0    0    0    0 -0.00000000000E+00 -0.00000000000E+00  0.11368683772E-12  0.17120000000E+03  0.17120000000E+03 0.  0.
         13    1    1    2    0    0 -0.23909380115E+02  0.28774340385E+01  0.69589042443E+02  0.73638197128E+02  0.10566000000E+00 0. -1.
        994    1    1    2    0    0  0.31765523962E+02 -0.51705268982E+01  0.72577431696E+01  0.17434992887E+03  0.17120000000E+03 0.  0.
        998    1    1    2    0    0 -0.78561438472E+01  0.22930928597E+01  0.14231532107E+04  0.14232118740E+04  0.10000000000E+02 0. -1.
</event>
<event>
 5    1  0.1141915E-008  0.3692599E+03  0.7957747E-01  0.3499299E+00
         13   -1    0    0    0    0  0.00000000000E+00  0.00000000000E+00  0.14999999963E+04  0.15000000000E+04  0.10566000000E+00 0. -1.
        994   -1    0    0    0    0 -0.00000000000E+00 -0.00000000000E+00  0.11368683772E-12  0.17120000000E+03  0.17120000000E+03 0.  0.
         13    1    1    2    0    0 -0.16838860519E+02 -0.10689748908E+02  0.16185215261E+02  0.25686383793E+02  0.10566000000E+00 0. -1.
        994    1    1    2    0    0  0.18591682122E+02  0.91525097891E+01  0.11146398094E+02  0.17280943629E+03  0.17120000000E+03 0.  0.
        998    1    1    2    0    0 -0.17528216036E+01  0.15372391190E+01  0.14726683829E+04  0.14727041799E+04  0.10000000000E+02 0. -1.
</event>
<event>
 5    1  0.1141915E-008  0.3820568E+03  0.7957747E-01  0.3442251E+00
         13   -1    0    0    0    0  0.00000000000E+00  0.00000000000E+00  0.14999999963E+04  0.15000000000E+04  0.10566000000E+00 0. -1.
        994   -1    0    0    0    0 -0.00000000000E+00 -0.00000000000E+00  0.11368683772E-12  0.17120000000E+03  0.17120000000E+03 0.  0.
         13    1    1    2    0    0 -0.59601659833E+01  0.18483598121E+02  0.57981358593E+02  0.61147494523E+02  0.10566000000E+00 0. -1.
        994    1    1    2    0    0  0.92595805805E+01 -0.17591532432E+02  0.44117774048E+01  0.17240680272E+03  0.17120000000E+03 0.  0.
        998    1    1    2    0    0 -0.32994145973E+01 -0.89206568901E+00  0.14376068603E+04  0.14376457028E+04  0.10000000000E+02 0. -1.
</event>
<event>
 5    1  0.1141915E-008  0.3855024E+03  0.7957747E-01  0.3427544E+00
         13   -1    0    0    0    0  0.00000000000E+00  0.00000000000E+00  0.14999999963E+04  0.15000000000E+04  0.10566000000E+00 0. -1.
        994   -1    0    0    0    0 -0.00000000000E+00 -0.00000000000E+00  0.11368683772E-12  0.17120000000E+03  0.17120000000E+03 0.  0.
         13    1    1    2    0    0 -0.31452824286E+01 -0.14508571002E+02  0.78081984166E+02  0.79480808057E+02  0.10566000000E+00 0. -1.
        994    1    1    2    0    0  0.43627575729E+01  0.12667928865E+02  0.19705224466E+01  0.17173477526E+03  0.17120000000E+03 0.  0.
        998    1    1    2    0    0 -0.12174751443E+01  0.18406421368E+01  0.14199474897E+04  0.14199844167E+04  0.10000000000E+02 0.  0.
</event>
<event>
 5    1  0.1141915E-008  0.3832023E+03  0.7957747E-01  0.3437332E+00
         13   -1    0    0    0    0  0.00000000000E+00  0.00000000000E+00  0.14999999963E+04  0.15000000000E+04  0.10566000000E+00 0.  1.
        994   -1    0    0    0    0 -0.00000000000E+00 -0.00000000000E+00  0.11368683772E-12  0.17120000000E+03  0.17120000000E+03 0.  0.
         13    1    1    2    0    0  0.17895397712E+02  0.11779205198E+02  0.90083124949E+02  0.92595763936E+02  0.10566000000E+00 0.  1.
        994    1    1    2    0    0 -0.14282988986E+02 -0.31622294632E+01  0.32335052774E+01  0.17185429592E+03  0.17120000000E+03 0.  0.
        998    1    1    2    0    0 -0.36124087256E+01 -0.86169757352E+01  0.14066833661E+04  0.14067499401E+04  0.10000000000E+02 0.  1.
</event>
<event>
 5    1  0.1141915E-008  0.3804077E+03  0.7957747E-01  0.3449385E+00
         13   -1    0    0    0    0  0.00000000000E+00  0.00000000000E+00  0.14999999963E+04  0.15000000000E+04  0.10566000000E+00 0. -1.
        994   -1    0    0    0    0 -0.00000000000E+00 -0.00000000000E+00  0.11368683772E-12  0.17120000000E+03  0.17120000000E+03 0.  0.
         13    1    1    2    0    0 -0.12567847686E+02  0.63984242897E+00  0.18469880954E+02  0.22349672488E+02  0.10566000000E+00 0. -1.
        994    1    1    2    0    0  0.10495383519E+02  0.12605721762E+02  0.48262086443E+01  0.17205170614E+03  0.17120000000E+03 0.  0.
        998    1    1    2    0    0  0.20724641678E+01 -0.13245564191E+02  0.14767039067E+04  0.14767986214E+04  0.10000000000E+02 0. -1.
</event>
<event>
 5    1  0.1141915E-008  0.3701463E+03  0.7957747E-01  0.3495219E+00
         13   -1    0    0    0    0  0.00000000000E+00  0.00000000000E+00  0.14999999963E+04  0.15000000000E+04  0.10566000000E+00 0.  1.
        994   -1    0    0    0    0 -0.00000000000E+00 -0.00000000000E+00  0.11368683772E-12  0.17120000000E+03  0.17120000000E+03 0.  0.
         13    1    1    2    0    0 -0.14756769053E+03 -0.39480254404E+02  0.66641210161E+03  0.68369584913E+03  0.10566000000E+00 0.  1.
        994    1    1    2    0    0  0.14650507270E+03  0.32488454878E+02  0.91569530244E+02  0.24538470795E+03  0.17120000000E+03 0.  0.
        998    1    1    2    0    0  0.10626178219E+01  0.69917995260E+01  0.74201836442E+03  0.74211944292E+03  0.10000000000E+02 0.  0.
</event>
<event>
 5    1  0.1141915E-008  0.3975811E+03  0.7957747E-01  0.3378006E+00
         13   -1    0    0    0    0  0.00000000000E+00  0.00000000000E+00  0.14999999963E+04  0.15000000000E+04  0.10566000000E+00 0. -1.
        994   -1    0    0    0    0 -0.00000000000E+00 -0.00000000000E+00  0.11368683772E-12  0.17120000000E+03  0.17120000000E+03 0.  0.
         13    1    1    2    0    0  0.70789582733E+00 -0.12848074003E+02 -0.88280808305E+01  0.15605136888E+02  0.10566000000E+00 0. -1.
        994    1    1    2    0    0 -0.85089196525E+01  0.19002625772E+02  0.28023728484E+02  0.17472341245E+03  0.17120000000E+03 0.  0.
        998    1    1    2    0    0  0.78010238252E+01 -0.61545517690E+01  0.14808043486E+04  0.14808714507E+04  0.10000000000E+02 0. -1.
</event>
<event>
 5    1  0.1141915E-008  0.3710195E+03  0.7957747E-01  0.3491218E+00
         13   -1    0    0    0    0  0.00000000000E+00  0.00000000000E+00  0.14999999963E+04  0.15000000000E+04  0.10566000000E+00 0.  1.
        994   -1    0    0    0    0 -0.00000000000E+00 -0.00000000000E+00  0.11368683772E-12  0.17120000000E+03  0.17120000000E+03 0.  0.
         13    1    1    2    0    0  0.82375406417E+02 -0.55604854670E+02  0.39180763078E+03  0.40421632593E+03  0.10566000000E+00 0.  1.
        994    1    1    2    0    0 -0.89277394525E+02  0.54508049463E+02  0.47437332345E+02  0.20615848547E+03  0.17120000000E+03 0.  0.
        998    1    1    2    0    0  0.69019881076E+01  0.10968052071E+01  0.10607550332E+04  0.10608251886E+04  0.10000000000E+02 0.  1.
</event>
<event>
 5    1  0.1141915E-008  0.2618890E+03  0.7957747E-01  0.4212298E+00
         13   -1    0    0    0    0  0.00000000000E+00  0.00000000000E+00  0.14999999963E+04  0.15000000000E+04  0.10566000000E+00 0.  1.
        994   -1    0    0    0    0 -0.00000000000E+00 -0.00000000000E+00  0.11368683772E-12  0.17120000000E+03  0.17120000000E+03 0.  0.
         13    1    1    2    0    0 -0.22336379824E+03  0.22702653377E+02  0.46921058424E+03  0.52015899527E+03  0.10566000000E+00 0.  1.
        994    1    1    2    0    0  0.11349608361E+03 -0.96560461912E+01  0.12967385762E+03  0.24310357787E+03  0.17120000000E+03 0.  0.
        998    1    1    2    0    0  0.10986771463E+03 -0.13046607186E+02  0.90111555442E+03  0.90793742686E+03  0.10000000000E+02 0.  1.
</event>
<event>
 5    1  0.1141915E-008  0.3838089E+03  0.7957747E-01  0.3434739E+00
         13   -1    0    0    0    0  0.00000000000E+00  0.00000000000E+00  0.14999999963E+04  0.15000000000E+04  0.10566000000E+00 0.  1.
        994   -1    0    0    0    0 -0.00000000000E+00 -0.00000000000E+00  0.11368683772E-12  0.17120000000E+03  0.17120000000E+03 0.  0.
         13    1    1    2    0    0 -0.29044817121E+01 -0.11752939113E+02  0.29894431998E+02  0.32252997075E+02  0.10566000000E+00 0.  1.
        994    1    1    2    0    0  0.23326279718E+02  0.23797248673E+02  0.58972270660E+01  0.17451258309E+03  0.17120000000E+03 0.  0.
        998    1    1    2    0    0 -0.20421798006E+02 -0.12044309560E+02  0.14642083372E+04  0.14644344198E+04  0.10000000000E+02 0.  1.
</event>
<event>
 5    1  0.1141915E-008  0.3853949E+03  0.7957747E-01  0.3427999E+00
         13   -1    0    0    0    0  0.00000000000E+00  0.00000000000E+00  0.14999999963E+04  0.15000000000E+04  0.10566000000E+00 0. -1.
        994   -1    0    0    0    0 -0.00000000000E+00 -0.00000000000E+00  0.11368683772E-12  0.17120000000E+03  0.17120000000E+03 0.  0.
         13    1    1    2    0    0  0.10320429114E+02  0.10863893357E+02  0.80479843444E+02  0.81863006301E+02  0.10566000000E+00 0. -1.
        994    1    1    2    0    0 -0.22181976818E+01 -0.70655220274E+01  0.16143562977E+01  0.17136769867E+03  0.17120000000E+03 0.  0.
        998    1    1    2    0    0 -0.81022314320E+01 -0.37983713301E+01  0.14179057965E+04  0.14179692950E+04  0.10000000000E+02 0. -1.
</event>
<event>
 5    1  0.1141915E-008  0.3790966E+03  0.7957747E-01  0.3455102E+00
         13   -1    0    0    0    0  0.00000000000E+00  0.00000000000E+00  0.14999999963E+04  0.15000000000E+04  0.10566000000E+00 0.  1.
        994   -1    0    0    0    0 -0.00000000000E+00 -0.00000000000E+00  0.11368683772E-12  0.17120000000E+03  0.17120000000E+03 0.  0.
         13    1    1    2    0    0 -0.53830799810E+02 -0.36509503824E+02  0.29689990342E+03  0.30394121585E+03  0.10566000000E+00 0.  1.
        994    1    1    2    0    0  0.69135322105E+02  0.58181001309E+02  0.32471555261E+02  0.19628694194E+03  0.17120000000E+03 0.  0.
        998    1    1    2    0    0 -0.15304522295E+02 -0.21671497485E+02  0.11706285376E+04  0.11709718422E+04  0.10000000000E+02 0.  1.
</event>
<event>
 5    1  0.1141915E-008  0.4019781E+03  0.7957747E-01  0.3360710E+00
         13   -1    0    0    0    0  0.00000000000E+00  0.00000000000E+00  0.14999999963E+04  0.15000000000E+04  0.10566000000E+00 0. -1.
        994   -1    0    0    0    0 -0.00000000000E+00 -0.00000000000E+00  0.11368683772E-12  0.17120000000E+03  0.17120000000E+03 0.  0.
         13    1    1    2    0    0  0.58217420295E+02  0.17863446366E+01  0.47600098701E+02  0.75221271016E+02  0.10566000000E+00 0. -1.
        994    1    1    2    0    0 -0.52686246474E+02 -0.18561043149E+01  0.40015713837E+02  0.18354831256E+03  0.17120000000E+03 0.  0.
        998    1    1    2    0    0 -0.55311738209E+01  0.69759678312E-01  0.14123841837E+04  0.14124304164E+04  0.10000000000E+02 0. -1.
</event>
<event>
 5    1  0.1141915E-008  0.3837237E+03  0.7957747E-01  0.3435103E+00
         13   -1    0    0    0    0  0.00000000000E+00  0.00000000000E+00  0.14999999963E+04  0.15000000000E+04  0.10566000000E+00 0. -1.
        994   -1    0    0    0    0 -0.00000000000E+00 -0.00000000000E+00  0.11368683772E-12  0.17120000000E+03  0.17120000000E+03 0.  0.
         13    1    1    2    0    0 -0.14951875653E+02  0.51258652264E+01  0.52481953515E+02  0.54810580079E+02  0.10566000000E+00 0. -1.
        994    1    1    2    0    0  0.17632048714E+02 -0.55503058296E+01  0.33942950830E+01  0.17222850018E+03  0.17120000000E+03 0.  0.
        998    1    1    2    0    0 -0.26801730605E+01  0.42444060313E+00  0.14441237477E+04  0.14441609197E+04  0.10000000000E+02 0. -1.
</event>
<event>
 5    1  0.1141915E-008  0.3814428E+03  0.7957747E-01  0.3444900E+00
         13   -1    0    0    0    0  0.00000000000E+00  0.00000000000E+00  0.14999999963E+04  0.15000000000E+04  0.10566000000E+00 0.  1.
        994   -1    0    0    0    0 -0.00000000000E+00 -0.00000000000E+00  0.11368683772E-12  0.17120000000E+03  0.17120000000E+03 0.  0.
         13    1    1    2    0    0  0.40377377439E+02 -0.15930710058E+02  0.24364760672E+03  0.24748391374E+03  0.10566000000E+00 0.  1.
        994    1    1    2    0    0 -0.41036561580E+02  0.23357235526E+01  0.90480147793E+01  0.17629736686E+03  0.17120000000E+03 0.  0.
        998    1    1    2    0    0  0.65918414064E+00  0.13594986505E+02  0.12473043748E+04  0.12474187194E+04  0.10000000000E+02 0.  1.
</event>
<event>
 5    1  0.1141915E-008  0.3717514E+03  0.7957747E-01  0.3487880E+00
         13   -1    0    0    0    0  0.00000000000E+00  0.00000000000E+00  0.14999999963E+04  0.15000000000E+04  0.10566000000E+00 0. -1.
        994   -1    0    0    0    0 -0.00000000000E+00 -0.00000000000E+00  0.11368683772E-12  0.17120000000E+03  0.17120000000E+03 0.  0.
         13    1    1    2    0    0  0.21824980943E+02  0.30470687733E+02  0.82545004806E+02  0.90655841437E+02  0.10566000000E+00 0. -1.
        994    1    1    2    0    0 -0.13592297176E+02 -0.13069324986E+02  0.95794368732E+01  0.17250148814E+03  0.17120000000E+03 0.  0.
        998    1    1    2    0    0 -0.82326837672E+01 -0.17401362748E+02  0.14078755546E+04  0.14080426704E+04  0.10000000000E+02 0. -1.
</event>
<event>
 5    1  0.1141915E-008  0.3819159E+03  0.7957747E-01  0.3442858E+00
         13   -1    0    0    0    0  0.00000000000E+00  0.00000000000E+00  0.14999999963E+04  0.15000000000E+04  0.10566000000E+00 0. -1.
        994   -1    0    0    0    0 -0.00000000000E+00 -0.00000000000E+00  0.11368683772E-12  0.17120000000E+03  0.17120000000E+03 0.  0.
         13    1    1    2    0    0 -0.20922346310E+02  0.12550314977E+02  0.86074335024E+02  0.89465397193E+02  0.10566000000E+00 0. -1.
        994    1    1    2    0    0  0.25477608912E+02 -0.14797507728E+02  0.60581027149E+01  0.17382236737E+03  0.17120000000E+03 0.  0.
        998    1    1    2    0    0 -0.45552626018E+01  0.22471927503E+01  0.14078675585E+04  0.14079122354E+04  0.10000000000E+02 0. -1.
</event>
<event>
 5    1  0.1141915E-008  0.3713007E+03  0.7957747E-01  0.3489935E+00
         13   -1    0    0    0    0  0.00000000000E+00  0.00000000000E+00  0.14999999963E+04  0.15000000000E+04  0.10566000000E+00 0.  1.
        994   -1    0    0    0    0 -0.00000000000E+00 -0.00000000000E+00  0.11368683772E-12  0.17120000000E+03  0.17120000000E+03 0.  0.
         13    1    1    2    0    0 -0.72433174941E+00  0.52107686624E+02  0.15584149063E+03  0.16432381759E+03  0.10566000000E+00 0.  1.
        994    1    1    2    0    0  0.96964096494E+01 -0.30179500043E+02  0.12057450164E+02  0.17452691680E+03  0.17120000000E+03 0.  0.
        998    1    1    2    0    0 -0.89720779000E+01 -0.21928186581E+02  0.13321010555E+04  0.13323492656E+04  0.10000000000E+02 0.  1.
</event>
<event>
 5    1  0.1141915E-008  0.3657454E+03  0.7957747E-01  0.3515676E+00
         13   -1    0    0    0    0  0.00000000000E+00  0.00000000000E+00  0.14999999963E+04  0.15000000000E+04  0.10566000000E+00 0.  1.
        994   -1    0    0    0    0 -0.00000000000E+00 -0.00000000000E+00  0.11368683772E-12  0.17120000000E+03  0.17120000000E+03 0.  0.
         13    1    1    2    0    0  0.19233810459E+03 -0.26743440385E+03  0.89288032844E+03  0.95170919872E+03  0.10566000000E+00 0.  1.
        994    1    1    2    0    0 -0.15548506042E+03  0.25388533592E+03  0.56391162904E+03  0.66025686909E+03  0.17120000000E+03 0.  0.
        998    1    1    2    0    0 -0.36853044175E+02  0.13549067935E+02  0.43208038796E+02  0.59233932197E+02  0.10000000000E+02 0. -1.
</event>
<event>
 5    1  0.1141915E-008  0.3717875E+03  0.7957747E-01  0.3487716E+00
         13   -1    0    0    0    0  0.00000000000E+00  0.00000000000E+00  0.14999999963E+04  0.15000000000E+04  0.10566000000E+00 0.  1.
        994   -1    0    0    0    0 -0.00000000000E+00 -0.00000000000E+00  0.11368683772E-12  0.17120000000E+03  0.17120000000E+03 0.  0.
         13    1    1    2    0    0  0.12294420980E+02 -0.66523954643E+01  0.20855449680E+01  0.14133924242E+02  0.10566000000E+00 0.  1.
        994    1    1    2    0    0 -0.70633460847E+02 -0.90571503308E+01  0.29948087509E+02  0.18782291050E+03  0.17120000000E+03 0.  0.
        998    1    1    2    0    0  0.58339039868E+02  0.15709545795E+02  0.14679663638E+04  0.14692431653E+04  0.10000000000E+02 0.  1.
</event>
<event>
 5    1  0.1141915E-008  0.3747289E+03  0.7957747E-01  0.3474436E+00
         13   -1    0    0    0    0  0.00000000000E+00  0.00000000000E+00  0.14999999963E+04  0.15000000000E+04  0.10566000000E+00 0.  1.
        994   -1    0    0    0    0 -0.00000000000E+00 -0.00000000000E+00  0.11368683772E-12  0.17120000000E+03  0.17120000000E+03 0.  0.
         13    1    1    2    0    0 -0.23294493090E+01 -0.13182012578E+02  0.97247555752E+01  0.16546112073E+02  0.10566000000E+00 0.  1.
        994    1    1    2    0    0 -0.33003362910E+01  0.25917841113E+02  0.91439721632E+01  0.17342340942E+03  0.17120000000E+03 0.  0.
        998    1    1    2    0    0  0.56297856001E+01 -0.12735828535E+02  0.14811312685E+04  0.14812304785E+04  0.10000000000E+02 0.  1.
</event>
<event>
 5    1  0.1141915E-008  0.3741349E+03  0.7957747E-01  0.3477101E+00
         13   -1    0    0    0    0  0.00000000000E+00  0.00000000000E+00  0.14999999963E+04  0.15000000000E+04  0.10566000000E+00 0.  1.
        994   -1    0    0    0    0 -0.00000000000E+00 -0.00000000000E+00  0.11368683772E-12  0.17120000000E+03  0.17120000000E+03 0.  0.
         13    1    1    2    0    0  0.67859897057E+02  0.88456578701E+02  0.36284090247E+03  0.37958274936E+03  0.10566000000E+00 0.  1.
        994    1    1    2    0    0 -0.62028658005E+02 -0.85471581470E+02  0.53841564406E+02  0.20823376218E+03  0.17120000000E+03 0.  0.
        998    1    1    2    0    0 -0.58312390522E+01 -0.29849972316E+01  0.10833175294E+04  0.10833834885E+04  0.10000000000E+02 0.  1.
</event>
<event>
 5    1  0.1141915E-008  0.3788302E+03  0.7957747E-01  0.3456268E+00
         13   -1    0    0    0    0  0.00000000000E+00  0.00000000000E+00  0.14999999963E+04  0.15000000000E+04  0.10566000000E+00 0.  1.
        994   -1    0    0    0    0 -0.00000000000E+00 -0.00000000000E+00  0.11368683772E-12  0.17120000000E+03  0.17120000000E+03 0.  0.
         13    1    1    2    0    0  0.19453018224E+02  0.26323943653E+02  0.92588474310E+02  0.98203903520E+02  0.10566000000E+00 0.  1.
        994    1    1    2    0    0 -0.50875075986E+02 -0.37864467904E+02  0.18342809058E+02  0.18348811932E+03  0.17120000000E+03 0.  0.
        998    1    1    2    0    0  0.31422057761E+02  0.11540524252E+02  0.13890687129E+04  0.13895079772E+04  0.10000000000E+02 0.  1.
</event>
<event>
 5    1  0.1141915E-008  0.3808216E+03  0.7957747E-01  0.3447589E+00
         13   -1    0    0    0    0  0.00000000000E+00  0.00000000000E+00  0.14999999963E+04  0.15000000000E+04  0.10566000000E+00 0. -1.
        994   -1    0    0    0    0 -0.00000000000E+00 -0.00000000000E+00  0.11368683772E-12  0.17120000000E+03  0.17120000000E+03 0.  0.
         13    1    1    2    0    0  0.27901044081E+02  0.10630584819E+02  0.11163814320E+03  0.11556194779E+03  0.10566000000E+00 0. -1.
        994    1    1    2    0    0 -0.12582871234E+02 -0.52942500322E+02  0.13655104883E+02  0.18015864919E+03  0.17120000000E+03 0.  0.
        998    1    1    2    0    0 -0.15318172847E+02  0.42311915503E+02  0.13747067482E+04  0.13754794030E+04  0.10000000000E+02 0. -1.
</event>
<event>
 5    1  0.1141915E-008  0.3822843E+03  0.7957747E-01  0.3441272E+00
         13   -1    0    0    0    0  0.00000000000E+00  0.00000000000E+00  0.14999999963E+04  0.15000000000E+04  0.10566000000E+00 0.  1.
        994   -1    0    0    0    0 -0.00000000000E+00 -0.00000000000E+00  0.11368683772E-12  0.17120000000E+03  0.17120000000E+03 0.  0.
         13    1    1    2    0    0 -0.57058216911E+01  0.15206164590E+02  0.46612290424E+02  0.49360922047E+02  0.10566000000E+00 0.  1.
        994    1    1    2    0    0  0.86375552729E+01  0.11193143958E+02  0.36479556012E+01  0.17182153943E+03  0.17120000000E+03 0.  0.
        998    1    1    2    0    0 -0.29317335817E+01 -0.26399308548E+02  0.14497397503E+04  0.14500175385E+04  0.10000000000E+02 0.  1.
</event>
<event>
 5    1  0.1141915E-008  0.3842680E+03  0.7957747E-01  0.3432783E+00
         13   -1    0    0    0    0  0.00000000000E+00  0.00000000000E+00  0.14999999963E+04  0.15000000000E+04  0.10566000000E+00 0. -1.
        994   -1    0    0    0    0 -0.00000000000E+00 -0.00000000000E+00  0.11368683772E-12  0.17120000000E+03  0.17120000000E+03 0.  0.
         13    1    1    2    0    0 -0.14357658236E+01 -0.23147465566E+02  0.13099628536E+03  0.13303347145E+03  0.10566000000E+00 0. -1.
        994    1    1    2    0    0 -0.10388417155E+01  0.17592279099E+02  0.30184306400E+01  0.17213110817E+03  0.17120000000E+03 0.  0.
        998    1    1    2    0    0  0.24746075391E+01  0.55551864668E+01  0.13659852803E+04  0.13660354204E+04  0.10000000000E+02 0. -1.
</event>
<event>
 5    1  0.1141915E-008  0.3769385E+03  0.7957747E-01  0.3464598E+00
         13   -1    0    0    0    0  0.00000000000E+00  0.00000000000E+00  0.14999999963E+04  0.15000000000E+04  0.10566000000E+00 0. -1.
        994   -1    0    0    0    0 -0.00000000000E+00 -0.00000000000E+00  0.11368683772E-12  0.17120000000E+03  0.17120000000E+03 0.  0.
         13    1    1    2    0    0 -0.55119161909E+01  0.29451965269E+03  0.10464017058E+04  0.10870734787E+04  0.10566000000E+00 0. -1.
        994    1    1    2    0    0  0.52759786577E+01 -0.28476555505E+03  0.36172176918E+03  0.49119378619E+03  0.17120000000E+03 0.  0.
        998    1    1    2    0    0  0.23593753318E+00 -0.97540976382E+01  0.91876521269E+02  0.92932735071E+02  0.10000000000E+02 0.  0.
</event>
<event>
 5    1  0.1141915E-008  0.3847038E+03  0.7957747E-01  0.3430929E+00
         13   -1    0    0    0    0  0.00000000000E+00  0.00000000000E+00  0.14999999963E+04  0.15000000000E+04  0.10566000000E+00 0.  1.
        994   -1    0    0    0    0 -0.00000000000E+00 -0.00000000000E+00  0.11368683772E-12  0.17120000000E+03  0.17120000000E+03 0.  0.
         13    1    1    2    0    0  0.16012454784E+02  0.54322107314E+01  0.76154411952E+02  0.78009058739E+02  0.10566000000E+00 0.  1.
        994    1    1    2    0    0 -0.17028620482E+02 -0.94027473132E+01  0.30238303600E+01  0.17232808570E+03  0.17120000000E+03 0.  0.
        998    1    1    2    0    0  0.10161656983E+01  0.39705365818E+01  0.14208217540E+04  0.14208628556E+04  0.10000000000E+02 0.  1.
</event>
<event>
 5    1  0.1141915E-008  0.3704116E+03  0.7957747E-01  0.3494002E+00
         13   -1    0    0    0    0  0.00000000000E+00  0.00000000000E+00  0.14999999963E+04  0.15000000000E+04  0.10566000000E+00 0. -1.
        994   -1    0    0    0    0 -0.00000000000E+00 -0.00000000000E+00  0.11368683772E-12  0.17120000000E+03  0.17120000000E+03 0.  0.
         13    1    1    2    0    0 -0.10571330086E+02  0.86634887808E+01  0.61816477761E+01  0.15001099656E+02  0.10566000000E+00 0. -1.
        994    1    1    2    0    0  0.44651336308E+01 -0.11449904372E+02  0.95757653608E+01  0.17190745479E+03  0.17120000000E+03 0.  0.
        998    1    1    2    0    0  0.61061964549E+01  0.27864155909E+01  0.14842425831E+04  0.14842914456E+04  0.10000000000E+02 0. -1.
</event>
<event>
 5    1  0.1141915E-008  0.3812277E+03  0.7957747E-01  0.3445830E+00
         13   -1    0    0    0    0  0.00000000000E+00  0.00000000000E+00  0.14999999963E+04  0.15000000000E+04  0.10566000000E+00 0.  1.
        994   -1    0    0    0    0 -0.00000000000E+00 -0.00000000000E+00  0.11368683772E-12  0.17120000000E+03  0.17120000000E+03 0.  0.
         13    1    1    2    0    0  0.11932324807E+02 -0.23184761462E+02  0.96520231937E+02  0.99980397462E+02  0.10566000000E+00 0.  1.
        994    1    1    2    0    0 -0.11849685655E+02  0.98382509426E+01  0.43048266890E+01  0.17194527549E+03  0.17120000000E+03 0.  0.
        998    1    1    2    0    0 -0.82639152184E-01  0.13346510519E+02  0.13991749377E+04  0.13992743270E+04  0.10000000000E+02 0.  1.
</event>
<event>
 5    1  0.1141915E-008  0.3727821E+03  0.7957747E-01  0.3483202E+00
         13   -1    0    0    0    0  0.00000000000E+00  0.00000000000E+00  0.14999999963E+04  0.15000000000E+04  0.10566000000E+00 0. -1.
        994   -1    0    0    0    0 -0.00000000000E+00 -0.00000000000E+00  0.11368683772E-12  0.17120000000E+03  0.17120000000E+03 0.  0.
         13    1    1    2    0    0 -0.11392565365E+03 -0.96872430331E+02  0.59034406495E+03  0.60899051594E+03  0.10566000000E+00 0. -1.
        994    1    1    2    0    0  0.10115390871E+03  0.88912518992E+02  0.79531512411E+02  0.23188844462E+03  0.17120000000E+03 0.  0.
        998    1    1    2    0    0  0.12771744940E+02  0.79599113391E+01  0.83012441892E+03  0.83032103944E+03  0.10000000000E+02 0.  1.
</event>
<event>
 5    1  0.1141915E-008  0.3728952E+03  0.7957747E-01  0.3482690E+00
         13   -1    0    0    0    0  0.00000000000E+00  0.00000000000E+00  0.14999999963E+04  0.15000000000E+04  0.10566000000E+00 0.  1.
        994   -1    0    0    0    0 -0.00000000000E+00 -0.00000000000E+00  0.11368683772E-12  0.17120000000E+03  0.17120000000E+03 0.  0.
         13    1    1    2    0    0 -0.23380008511E+02  0.11263976932E+03  0.64962471893E+03  0.65973224041E+03  0.10566000000E+00 0.  1.
        994    1    1    2    0    0  0.16189630480E+02 -0.89329953085E+02  0.36529156979E+02  0.19719473614E+03  0.17120000000E+03 0.  0.
        998    1    1    2    0    0  0.71903780303E+01 -0.23309816231E+02  0.81384612037E+03  0.81427302345E+03  0.10000000000E+02 0. -1.
</event>
<event>
 5    1  0.1141915E-008  0.3756180E+03  0.7957747E-01  0.3470463E+00
         13   -1    0    0    0    0  0.00000000000E+00  0.00000000000E+00  0.14999999963E+04  0.15000000000E+04  0.10566000000E+00 0.  1.
        994   -1    0    0    0    0 -0.00000000000E+00 -0.00000000000E+00  0.11368683772E-12  0.17120000000E+03  0.17120000000E+03 0.  0.
         13    1    1    2    0    0 -0.81161170826E+01  0.29115894566E+02  0.77182775718E+02  0.82890281122E+02  0.10566000000E+00 0.  1.
        994    1    1    2    0    0 -0.13191463914E+02  0.49355227070E+01  0.70348965862E+01  0.17192237747E+03  0.17120000000E+03 0.  0.
        998    1    1    2    0    0  0.21307580996E+02 -0.34051417273E+02  0.14157823240E+04  0.14163873414E+04  0.10000000000E+02 0.  1.
</event>
<event>
 5    1  0.1141915E-008  0.3823080E+03  0.7957747E-01  0.3441170E+00
         13   -1    0    0    0    0  0.00000000000E+00  0.00000000000E+00  0.14999999963E+04  0.15000000000E+04  0.10566000000E+00 0.  1.
        994   -1    0    0    0    0 -0.00000000000E+00 -0.00000000000E+00  0.11368683772E-12  0.17120000000E+03  0.17120000000E+03 0.  0.
         13    1    1    2    0    0  0.23018642576E+01  0.47568386785E+02  0.60889766057E+02  0.77302165396E+02  0.10566000000E+00 0.  1.
        994    1    1    2    0    0 -0.61242948221E+01 -0.15848004822E+02  0.18656478872E+02  0.17304961846E+03  0.17120000000E+03 0.  0.
        998    1    1    2    0    0  0.38224305645E+01 -0.31720381963E+02  0.14204537513E+04  0.14208482161E+04  0.10000000000E+02 0.  1.
</event>
<event>
 5    1  0.1141915E-008  0.3833360E+03  0.7957747E-01  0.3436760E+00
         13   -1    0    0    0    0  0.00000000000E+00  0.00000000000E+00  0.14999999963E+04  0.15000000000E+04  0.10566000000E+00 0.  1.
        994   -1    0    0    0    0 -0.00000000000E+00 -0.00000000000E+00  0.11368683772E-12  0.17120000000E+03  0.17120000000E+03 0.  0.
         13    1    1    2    0    0 -0.18094453567E+02 -0.13151540751E+02  0.10185340118E+03  0.10428086483E+03  0.10566000000E+00 0.  1.
        994    1    1    2    0    0  0.18845035094E+02 -0.37628063743E+01  0.36805753515E+01  0.17231448196E+03  0.17120000000E+03 0.  0.
        998    1    1    2    0    0 -0.75058152699E+00  0.16914347126E+02  0.13944660197E+04  0.13946046532E+04  0.10000000000E+02 0.  1.
</event>
<event>
 5    1  0.1141915E-008  0.3831300E+03  0.7957747E-01  0.3437642E+00
         13   -1    0    0    0    0  0.00000000000E+00  0.00000000000E+00  0.14999999963E+04  0.15000000000E+04  0.10566000000E+00 0. -1.
        994   -1    0    0    0    0 -0.00000000000E+00 -0.00000000000E+00  0.11368683772E-12  0.17120000000E+03  0.17120000000E+03 0.  0.
         13    1    1    2    0    0  0.15378085684E+02 -0.29759675038E+01  0.46368785612E+02  0.48943000981E+02  0.10566000000E+00 0. -1.
        994    1    1    2    0    0 -0.13313419955E+02  0.53687653344E+01  0.32435317020E+01  0.17183140368E+03  0.17120000000E+03 0.  0.
        998    1    1    2    0    0 -0.20646657295E+01 -0.23927978306E+01  0.14503876790E+04  0.14504255953E+04  0.10000000000E+02 0. -1.
</event>
<event>
 5    1  0.1141915E-008  0.3816592E+03  0.7957747E-01  0.3443966E+00
         13   -1    0    0    0    0  0.00000000000E+00  0.00000000000E+00  0.14999999963E+04  0.15000000000E+04  0.10566000000E+00 0.  1.
        994   -1    0    0    0    0 -0.00000000000E+00 -0.00000000000E+00  0.11368683772E-12  0.17120000000E+03  0.17120000000E+03 0.  0.
         13    1    1    2    0    0  0.22998665634E+02  0.16935299859E+02  0.12077226385E+03  0.12410356111E+03  0.10566000000E+00 0.  1.
        994    1    1    2    0    0 -0.12986463539E+02 -0.15440448311E+02  0.46524448986E+01  0.17244750193E+03  0.17120000000E+03 0.  0.
        998    1    1    2    0    0 -0.10012202095E+02 -0.14948515481E+01  0.13745752875E+04  0.13746489370E+04  0.10000000000E+02 0.  1.
</event>
<event>
 5    1  0.1141915E-008  0.3694624E+03  0.7957747E-01  0.3498365E+00
         13   -1    0    0    0    0  0.00000000000E+00  0.00000000000E+00  0.14999999963E+04  0.15000000000E+04  0.10566000000E+00 0.  1.
        994   -1    0    0    0    0 -0.00000000000E+00 -0.00000000000E+00  0.11368683772E-12  0.17120000000E+03  0.17120000000E+03 0.  0.
         13    1    1    2    0    0  0.28048061935E+02  0.30520703806E+02  0.83693761350E+02  0.93396273973E+02  0.10566000000E+00 0.  1.
        994    1    1    2    0    0 -0.28502928738E+02 -0.22849332915E+02  0.14187327070E+02  0.17562809915E+03  0.17120000000E+03 0.  0.
        998    1    1    2    0    0  0.45486680278E+00 -0.76713708904E+01  0.14021189079E+04  0.14021756269E+04  0.10000000000E+02 0.  1.
</event>
<event>
 5    1  0.1141915E-008  0.3811265E+03  0.7957747E-01  0.3446268E+00
         13   -1    0    0    0    0  0.00000000000E+00  0.00000000000E+00  0.14999999963E+04  0.15000000000E+04  0.10566000000E+00 0.  1.
        994   -1    0    0    0    0 -0.00000000000E+00 -0.00000000000E+00  0.11368683772E-12  0.17120000000E+03  0.17120000000E+03 0.  0.
         13    1    1    2    0    0  0.21113161537E+02  0.25776530982E+02  0.18427852399E+03  0.18726660329E+03  0.10566000000E+00 0.  1.
        994    1    1    2    0    0 -0.13756315998E+02  0.14471275060E+02  0.48944153680E+01  0.17242983887E+03  0.17120000000E+03 0.  0.
        998    1    1    2    0    0 -0.73568455389E+01 -0.40247806042E+02  0.13108270569E+04  0.13115035578E+04  0.10000000000E+02 0.  1.
</event>
<event>
 5    1  0.1141915E-008  0.3862190E+03  0.7957747E-01  0.3424519E+00
         13   -1    0    0    0    0  0.00000000000E+00  0.00000000000E+00  0.14999999963E+04  0.15000000000E+04  0.10566000000E+00 0.  1.
        994   -1    0    0    0    0 -0.00000000000E+00 -0.00000000000E+00  0.11368683772E-12  0.17120000000E+03  0.17120000000E+03 0.  0.
         13    1    1    2    0    0  0.26046661108E+01 -0.11731949592E+02  0.72704061340E+02  0.73690668514E+02  0.10566000000E+00 0.  1.
        994    1    1    2    0    0  0.72702827617E+01  0.78057749866E+01  0.13989716499E+01  0.17153770506E+03  0.17120000000E+03 0.  0.
        998    1    1    2    0    0 -0.98749488725E+01  0.39261746050E+01  0.14258969633E+04  0.14259716264E+04  0.10000000000E+02 0.  1.
</event>
<event>
 5    1  0.1141915E-008  0.3695946E+03  0.7957747E-01  0.3497756E+00
         13   -1    0    0    0    0  0.00000000000E+00  0.00000000000E+00  0.14999999963E+04  0.15000000000E+04  0.10566000000E+00 0. -1.
        994   -1    0    0    0    0 -0.00000000000E+00 -0.00000000000E+00  0.11368683772E-12  0.17120000000E+03  0.17120000000E+03 0.  0.
         13    1    1    2    0    0  0.49637846663E+02 -0.33516212161E+02  0.16879422383E+03  0.17910542555E+03  0.10566000000E+00 0. -1.
        994    1    1    2    0    0 -0.41035996659E+02  0.40043896706E+02  0.20951591578E+02  0.18175773952E+03  0.17120000000E+03 0.  0.
        998    1    1    2    0    0 -0.86018500041E+01 -0.65276845450E+01  0.13102541809E+04  0.13103368349E+04  0.10000000000E+02 0. -1.
</event>
<event>
 5    1  0.1141915E-008  0.3819529E+03  0.7957747E-01  0.3442699E+00
         13   -1    0    0    0    0  0.00000000000E+00  0.00000000000E+00  0.14999999963E+04  0.15000000000E+04  0.10566000000E+00 0.  1.
        994   -1    0    0    0    0 -0.00000000000E+00 -0.00000000000E+00  0.11368683772E-12  0.17120000000E+03  0.17120000000E+03 0.  0.
         13    1    1    2    0    0 -0.20680186490E+02  0.12470382291E+01  0.70341508727E+02  0.73329149944E+02  0.10566000000E+00 0.  1.
        994    1    1    2    0    0  0.41752199775E+01  0.90670471107E+01  0.34815937370E+01  0.17152610676E+03  0.17120000000E+03 0.  0.
        998    1    1    2    0    0  0.16504966513E+02 -0.10314085340E+02  0.14261768938E+04  0.14263447433E+04  0.10000000000E+02 0.  1.
</event>
<event>
 5    1  0.1141915E-008  0.3833972E+03  0.7957747E-01  0.3436498E+00
         13   -1    0    0    0    0  0.00000000000E+00  0.00000000000E+00  0.14999999963E+04  0.15000000000E+04  0.10566000000E+00 0.  1.
        994   -1    0    0    0    0 -0.00000000000E+00 -0.00000000000E+00  0.11368683772E-12  0.17120000000E+03  0.17120000000E+03 0.  0.
         13    1    1    2    0    0 -0.16641761659E+02 -0.32831685990E+01  0.59399774167E+02  0.61774361691E+02  0.10566000000E+00 0.  1.
        994    1    1    2    0    0  0.81383798702E+01  0.22267508194E+01  0.26633696034E+01  0.17142848417E+03  0.17120000000E+03 0.  0.
        998    1    1    2    0    0  0.85033817887E+01  0.10564177796E+01  0.14379368525E+04  0.14379971541E+04  0.10000000000E+02 0.  1.
</event>
<event>
 5    1  0.1141915E-008  0.3731377E+03  0.7957747E-01  0.3481594E+00
         13   -1    0    0    0    0  0.00000000000E+00  0.00000000000E+00  0.14999999963E+04  0.15000000000E+04  0.10566000000E+00 0.  1.
        994   -1    0    0    0    0 -0.00000000000E+00 -0.00000000000E+00  0.11368683772E-12  0.17120000000E+03  0.17120000000E+03 0.  0.
         13    1    1    2    0    0  0.55803646472E+01  0.23755385092E+02  0.35235359527E+02  0.42860243997E+02  0.10566000000E+00 0.  1.
        994    1    1    2    0    0 -0.99449223749E+01 -0.21664988846E+02  0.95845195952E+01  0.17311723264E+03  0.17120000000E+03 0.  0.
        998    1    1    2    0    0  0.43645577277E+01 -0.20903962459E+01  0.14551801172E+04  0.14552225234E+04  0.10000000000E+02 0.  1.
</event>
<event>
 5    1  0.1141915E-008  0.3684158E+03  0.7957747E-01  0.3503203E+00
         13   -1    0    0    0    0  0.00000000000E+00  0.00000000000E+00  0.14999999963E+04  0.15000000000E+04  0.10566000000E+00 0.  1.
        994   -1    0    0    0    0 -0.00000000000E+00 -0.00000000000E+00  0.11368683772E-12  0.17120000000E+03  0.17120000000E+03 0.  0.
         13    1    1    2    0    0  0.15827493144E+02  0.39327440280E+02  0.81463689748E+02  0.91834095028E+02  0.10566000000E+00 0.  1.
        994    1    1    2    0    0 -0.19250600623E+02 -0.36583139857E+02  0.16064303128E+02  0.17685138841E+03  0.17120000000E+03 0.  0.
        998    1    1    2    0    0  0.34231074791E+01 -0.27443004228E+01  0.14024720034E+04  0.14025145166E+04  0.10000000000E+02 0.  1.
</event>
<event>
 5    1  0.1141915E-008  0.3827367E+03  0.7957747E-01  0.3439328E+00
         13   -1    0    0    0    0  0.00000000000E+00  0.00000000000E+00  0.14999999963E+04  0.15000000000E+04  0.10566000000E+00 0.  1.
        994   -1    0    0    0    0 -0.00000000000E+00 -0.00000000000E+00  0.11368683772E-12  0.17120000000E+03  0.17120000000E+03 0.  0.
         13    1    1    2    0    0  0.22331272900E+02 -0.12943744197E+02  0.11745277204E+03  0.12025552414E+03  0.10566000000E+00 0.  1.
        994    1    1    2    0    0 -0.19576562265E+02  0.39342618372E+01  0.40800505831E+01  0.17240883684E+03  0.17120000000E+03 0.  0.
        998    1    1    2    0    0 -0.27547106357E+01  0.90094823601E+01  0.13784671737E+04  0.13785356390E+04  0.10000000000E+02 0.  1.
</event>
<event>
 5    1  0.1141915E-008  0.3827770E+03  0.7957747E-01  0.3439155E+00
         13   -1    0    0    0    0  0.00000000000E+00  0.00000000000E+00  0.14999999963E+04  0.15000000000E+04  0.10566000000E+00 0.  1.
        994   -1    0    0    0    0 -0.00000000000E+00 -0.00000000000E+00  0.11368683772E-12  0.17120000000E+03  0.17120000000E+03 0.  0.
         13    1    1    2    0    0  0.12435011368E+02 -0.10326870660E+01  0.27390426426E+02  0.30098879948E+02  0.10566000000E+00 0.  1.
        994    1    1    2    0    0 -0.95640289754E+01 -0.19626879775E+01  0.30536882441E+01  0.17150535795E+03  0.17120000000E+03 0.  0.
        998    1    1    2    0    0 -0.28709823926E+01  0.29953750435E+01  0.14695558816E+04  0.14695957621E+04  0.10000000000E+02 0.  1.
</event>
<event>
 5    1  0.1141915E-008  0.3834006E+03  0.7957747E-01  0.3436484E+00
         13   -1    0    0    0    0  0.00000000000E+00  0.00000000000E+00  0.14999999963E+04  0.15000000000E+04  0.10566000000E+00 0. -1.
        994   -1    0    0    0    0 -0.00000000000E+00 -0.00000000000E+00  0.11368683772E-12  0.17120000000E+03  0.17120000000E+03 0.  0.
         13    1    1    2    0    0  0.18379421969E+02 -0.12424466353E+02  0.10380788472E+03  0.10615205419E+03  0.10566000000E+00 0. -1.
        994    1    1    2    0    0 -0.14087620364E+02 -0.38104242286E+01  0.31306792403E+01  0.17184941528E+03  0.17120000000E+03 0.  0.
        998    1    1    2    0    0 -0.42918016053E+01  0.16234890582E+02  0.13930614323E+04  0.13931985305E+04  0.10000000000E+02 0. -1.
</event>
<event>
 5    1  0.1141915E-008  0.3784566E+03  0.7957747E-01  0.3457906E+00
         13   -1    0    0    0    0  0.00000000000E+00  0.00000000000E+00  0.14999999963E+04  0.15000000000E+04  0.10566000000E+00 0. -1.
        994   -1    0    0    0    0 -0.00000000000E+00 -0.00000000000E+00  0.11368683772E-12  0.17120000000E+03  0.17120000000E+03 0.  0.
         13    1    1    2    0    0  0.23011335786E+02  0.16325987286E+02  0.77545487345E+02  0.82518926357E+02  0.10566000000E+00 0. -1.
        994    1    1    2    0    0 -0.26393839356E+02 -0.20021331156E+01  0.72720467719E+01  0.17338675254E+03  0.17120000000E+03 0.  0.
        998    1    1    2    0    0  0.33825035701E+01 -0.14323854170E+02  0.14151824622E+04  0.14152943211E+04  0.10000000000E+02 0. -1.
</event>
<event>
 5    1  0.1141915E-008  0.3810675E+03  0.7957747E-01  0.3446523E+00
         13   -1    0    0    0    0  0.00000000000E+00  0.00000000000E+00  0.14999999963E+04  0.15000000000E+04  0.10566000000E+00 0.  1.
        994   -1    0    0    0    0 -0.00000000000E+00 -0.00000000000E+00  0.11368683772E-12  0.17120000000E+03  0.17120000000E+03 0.  0.
         13    1    1    2    0    0 -0.31533271030E+01 -0.20254652539E+02  0.55328458578E+02  0.59003761862E+02  0.10566000000E+00 0.  1.
        994    1    1    2    0    0  0.56578050845E+01  0.20518817192E+02  0.51058089376E+01  0.17259357434E+03  0.17120000000E+03 0.  0.
        998    1    1    2    0    0 -0.25044779816E+01 -0.26416465304E+00  0.14395657288E+04  0.14396026638E+04  0.10000000000E+02 0.  1.
</event>
<event>
 5    1  0.1141915E-008  0.3815639E+03  0.7957747E-01  0.3444377E+00
         13   -1    0    0    0    0  0.00000000000E+00  0.00000000000E+00  0.14999999963E+04  0.15000000000E+04  0.10566000000E+00 0. -1.
        994   -1    0    0    0    0 -0.00000000000E+00 -0.00000000000E+00  0.11368683772E-12  0.17120000000E+03  0.17120000000E+03 0.  0.
         13    1    1    2    0    0 -0.96757718135E+01 -0.13788674721E+02  0.42031610592E+02  0.45281514592E+02  0.10566000000E+00 0. -1.
        994    1    1    2    0    0 -0.11135976702E+02  0.15182882579E+02  0.45257238088E+01  0.17229176439E+03  0.17120000000E+03 0.  0.
        998    1    1    2    0    0  0.20811748516E+02 -0.13942078574E+01  0.14534426619E+04  0.14536267210E+04  0.10000000000E+02 0. -1.
</event>
<event>
 5    1  0.1141915E-008  0.3707140E+03  0.7957747E-01  0.3492616E+00
         13   -1    0    0    0    0  0.00000000000E+00  0.00000000000E+00  0.14999999963E+04  0.15000000000E+04  0.10566000000E+00 0. -1.
        994   -1    0    0    0    0 -0.00000000000E+00 -0.00000000000E+00  0.11368683772E-12  0.17120000000E+03  0.17120000000E+03 0.  0.
         13    1    1    2    0    0 -0.53359128763E+02 -0.31948991914E+02  0.24776691910E+03  0.25545330702E+03  0.10566000000E+00 0. -1.
        994    1    1    2    0    0 -0.31286553495E+02 -0.10117094245E+02  0.15115639908E+02  0.17498321804E+03  0.17120000000E+03 0.  0.
        998    1    1    2    0    0  0.84645682258E+02  0.42066086158E+02  0.12371174373E+04  0.12407634749E+04  0.10000000000E+02 0. -1.
</event>
<event>
 5    1  0.1141915E-008  0.3827264E+03  0.7957747E-01  0.3439372E+00
         13   -1    0    0    0    0  0.00000000000E+00  0.00000000000E+00  0.14999999963E+04  0.15000000000E+04  0.10566000000E+00 0.  1.
        994   -1    0    0    0    0 -0.00000000000E+00 -0.00000000000E+00  0.11368683772E-12  0.17120000000E+03  0.17120000000E+03 0.  0.
         13    1    1    2    0    0 -0.41818137278E+01 -0.20957727881E+02  0.83021751440E+02  0.85728270134E+02  0.10566000000E+00 0.  1.
        994    1    1    2    0    0 -0.11710035320E+00  0.11107200033E+02  0.31720230223E+01  0.17158929260E+03  0.17120000000E+03 0.  0.
        998    1    1    2    0    0  0.42989140810E+01  0.98505278476E+01  0.14138062218E+04  0.14138824373E+04  0.10000000000E+02 0.  1.
</event>
<event>
 5    1  0.1141915E-008  0.3822457E+03  0.7957747E-01  0.3441438E+00
         13   -1    0    0    0    0  0.00000000000E+00  0.00000000000E+00  0.14999999963E+04  0.15000000000E+04  0.10566000000E+00 0.  1.
        994   -1    0    0    0    0 -0.00000000000E+00 -0.00000000000E+00  0.11368683772E-12  0.17120000000E+03  0.17120000000E+03 0.  0.
         13    1    1    2    0    0 -0.93445856191E+01  0.14314589243E+02  0.45206957542E+02  0.48331241654E+02  0.10566000000E+00 0.  1.
        994    1    1    2    0    0  0.52355644175E+01 -0.25460742556E+02  0.52490525167E+01  0.17324160326E+03  0.17120000000E+03 0.  0.
        998    1    1    2    0    0  0.41090212015E+01  0.11146153313E+02  0.14495439862E+04  0.14496271551E+04  0.10000000000E+02 0.  1.
</event>
<event>
 5    1  0.1141915E-008  0.3725655E+03  0.7957747E-01  0.3484183E+00
         13   -1    0    0    0    0  0.00000000000E+00  0.00000000000E+00  0.14999999963E+04  0.15000000000E+04  0.10566000000E+00 0.  1.
        994   -1    0    0    0    0 -0.00000000000E+00 -0.00000000000E+00  0.11368683772E-12  0.17120000000E+03  0.17120000000E+03 0.  0.
         13    1    1    2    0    0 -0.80100324496E+02  0.44185970977E+02  0.36220076999E+03  0.37357445170E+03  0.10566000000E+00 0.  1.
        994    1    1    2    0    0  0.43569879072E+02 -0.87007007404E+01  0.19298220833E+02  0.17792104396E+03  0.17120000000E+03 0.  0.
        998    1    1    2    0    0  0.36530445424E+02 -0.35485270236E+02  0.11185010055E+04  0.11197045043E+04  0.10000000000E+02 0.  1.
</event>
<event>
 5    1  0.1141915E-008  0.3771592E+03  0.7957747E-01  0.3463622E+00
         13   -1    0    0    0    0  0.00000000000E+00  0.00000000000E+00  0.14999999963E+04  0.15000000000E+04  0.10566000000E+00 0. -1.
        994   -1    0    0    0    0 -0.00000000000E+00 -0.00000000000E+00  0.11368683772E-12  0.17120000000E+03  0.17120000000E+03 0.  0.
         13    1    1    2    0    0  0.16462398444E+02  0.17987291365E+02  0.50443416771E+02  0.56027695586E+02  0.10566000000E+00 0. -1.
        994    1    1    2    0    0 -0.92360017210E+01 -0.18966997436E+02  0.70774015044E+01  0.17264003108E+03  0.17120000000E+03 0.  0.
        998    1    1    2    0    0 -0.72263967227E+01  0.97970607163E+00  0.14424791780E+04  0.14425322733E+04  0.10000000000E+02 0. -1.
</event>
<event>
 5    1  0.1141915E-008  0.3817077E+03  0.7957747E-01  0.3443756E+00
         13   -1    0    0    0    0  0.00000000000E+00  0.00000000000E+00  0.14999999963E+04  0.15000000000E+04  0.10566000000E+00 0.  1.
        994   -1    0    0    0    0 -0.00000000000E+00 -0.00000000000E+00  0.11368683772E-12  0.17120000000E+03  0.17120000000E+03 0.  0.
         13    1    1    2    0    0  0.10063459749E+02  0.84611620226E+01  0.25603400727E+02  0.28782108639E+02  0.10566000000E+00 0.  1.
        994    1    1    2    0    0 -0.93112070073E+01  0.60140806811E+01  0.36821015835E+01  0.17159797672E+03  0.17120000000E+03 0.  0.
        998    1    1    2    0    0 -0.75225274184E+00 -0.14475242704E+02  0.14707144940E+04  0.14708199146E+04  0.10000000000E+02 0.  1.
</event>
<event>
 5    1  0.1141915E-008  0.3724407E+03  0.7957747E-01  0.3484749E+00
         13   -1    0    0    0    0  0.00000000000E+00  0.00000000000E+00  0.14999999963E+04  0.15000000000E+04  0.10566000000E+00 0. -1.
        994   -1    0    0    0    0 -0.00000000000E+00 -0.00000000000E+00  0.11368683772E-12  0.17120000000E+03  0.17120000000E+03 0.  0.
         13    1    1    2    0    0  0.94130772008E+02  0.65434754490E+02  0.52546881785E+03  0.53782878226E+03  0.10566000000E+00 0. -1.
        994    1    1    2    0    0 -0.92734695895E+02 -0.64154336663E+02  0.52941895364E+02  0.21172573538E+03  0.17120000000E+03 0.  0.
        998    1    1    2    0    0 -0.13960761130E+01 -0.12804178261E+01  0.92158928306E+03  0.92164548236E+03  0.10000000000E+02 0.  0.
</event>
<event>
 5    1  0.1141915E-008  0.3832405E+03  0.7957747E-01  0.3437169E+00
         13   -1    0    0    0    0  0.00000000000E+00  0.00000000000E+00  0.14999999963E+04  0.15000000000E+04  0.10566000000E+00 0.  1.
        994   -1    0    0    0    0 -0.00000000000E+00 -0.00000000000E+00  0.11368683772E-12  0.17120000000E+03  0.17120000000E+03 0.  0.
         13    1    1    2    0    0 -0.10812885350E+02  0.73556514521E+00  0.23233385916E+02  0.25637100671E+02  0.10566000000E+00 0.  1.
        994    1    1    2    0    0 -0.20541687565E+01 -0.93864481034E+01  0.28116569963E+01  0.17149247923E+03  0.17120000000E+03 0.  0.
        998    1    1    2    0    0  0.12867054107E+02  0.86508829582E+01  0.14739549534E+04  0.14740704201E+04  0.10000000000E+02 0.  1.
</event>
<event>
 5    1  0.1141915E-008  0.3819817E+03  0.7957747E-01  0.3442575E+00
         13   -1    0    0    0    0  0.00000000000E+00  0.00000000000E+00  0.14999999963E+04  0.15000000000E+04  0.10566000000E+00 0. -1.
        994   -1    0    0    0    0 -0.00000000000E+00 -0.00000000000E+00  0.11368683772E-12  0.17120000000E+03  0.17120000000E+03 0.  0.
         13    1    1    2    0    0  0.10552502714E+02 -0.61202396569E+01  0.22324275964E+02  0.25440068953E+02  0.10566000000E+00 0. -1.
        994    1    1    2    0    0 -0.93096349790E+01  0.62536983571E+01  0.35539928840E+01  0.17160375553E+03  0.17120000000E+03 0.  0.
        998    1    1    2    0    0 -0.12428677347E+01 -0.13345870019E+00  0.14741217274E+04  0.14741561755E+04  0.10000000000E+02 0. -1.
</event>
<event>
 5    1  0.1141915E-008  0.3809324E+03  0.7957747E-01  0.3447109E+00
         13   -1    0    0    0    0  0.00000000000E+00  0.00000000000E+00  0.14999999963E+04  0.15000000000E+04  0.10566000000E+00 0.  1.
        994   -1    0    0    0    0 -0.00000000000E+00 -0.00000000000E+00  0.11368683772E-12  0.17120000000E+03  0.17120000000E+03 0.  0.
         13    1    1    2    0    0 -0.27524525328E+02 -0.16071245019E+02  0.11953622491E+03  0.12371258885E+03  0.10566000000E+00 0.  1.
        994    1    1    2    0    0  0.44129898428E+02  0.10069709605E+02  0.10521651794E+02  0.17739501724E+03  0.17120000000E+03 0.  0.
        998    1    1    2    0    0 -0.16605373100E+02  0.60015354142E+01  0.13699421196E+04  0.13700923939E+04  0.10000000000E+02 0.  1.
</event>
<event>
 5    1  0.1141915E-008  0.3845493E+03  0.7957747E-01  0.3431586E+00
         13   -1    0    0    0    0  0.00000000000E+00  0.00000000000E+00  0.14999999963E+04  0.15000000000E+04  0.10566000000E+00 0.  1.
        994   -1    0    0    0    0 -0.00000000000E+00 -0.00000000000E+00  0.11368683772E-12  0.17120000000E+03  0.17120000000E+03 0.  0.
         13    1    1    2    0    0  0.11269895356E+02  0.74284382476E+01  0.49536111114E+02  0.51342279892E+02  0.10566000000E+00 0.  1.
        994    1    1    2    0    0 -0.10902513063E+02  0.47167184504E+01  0.23189641208E+01  0.17162729916E+03  0.17120000000E+03 0.  0.
        998    1    1    2    0    0 -0.36738229318E+00 -0.12145156698E+02  0.14481449210E+04  0.14482304209E+04  0.10000000000E+02 0.  1.
</event>
<event>
 5    1  0.1141915E-008  0.3694410E+03  0.7957747E-01  0.3498464E+00
         13   -1    0    0    0    0  0.00000000000E+00  0.00000000000E+00  0.14999999963E+04  0.15000000000E+04  0.10566000000E+00 0. -1.
        994   -1    0    0    0    0 -0.00000000000E+00 -0.00000000000E+00  0.11368683772E-12  0.17120000000E+03  0.17120000000E+03 0.  0.
         13    1    1    2    0    0 -0.54846915394E+00 -0.29729321154E+02  0.39530250886E+02  0.49464990183E+02  0.10566000000E+00 0. -1.
        994    1    1    2    0    0  0.50770004171E+02  0.44242042887E+02  0.25440608765E+02  0.18571918656E+03  0.17120000000E+03 0.  0.
        998    1    1    2    0    0 -0.50221535017E+02 -0.14512721733E+02  0.14350291366E+04  0.14360158233E+04  0.10000000000E+02 0. -1.
</event>
<event>
 5    1  0.1141915E-008  0.3820955E+03  0.7957747E-01  0.3442084E+00
         13   -1    0    0    0    0  0.00000000000E+00  0.00000000000E+00  0.14999999963E+04  0.15000000000E+04  0.10566000000E+00 0. -1.
        994   -1    0    0    0    0 -0.00000000000E+00 -0.00000000000E+00  0.11368683772E-12  0.17120000000E+03  0.17120000000E+03 0.  0.
         13    1    1    2    0    0  0.30451780417E+02 -0.17032158394E+02  0.20312481850E+03  0.20609975353E+03  0.10566000000E+00 0. -1.
        994    1    1    2    0    0 -0.17289764329E+02  0.30454835571E+01  0.41029564585E+01  0.17214669666E+03  0.17120000000E+03 0.  0.
        998    1    1    2    0    0 -0.13162016088E+02  0.13986674837E+02  0.12927722213E+04  0.12929535498E+04  0.10000000000E+02 0.  1.
</event>
<event>
 5    1  0.1141915E-008  0.3827714E+03  0.7957747E-01  0.3439179E+00
         13   -1    0    0    0    0  0.00000000000E+00  0.00000000000E+00  0.14999999963E+04  0.15000000000E+04  0.10566000000E+00 0.  1.
        994   -1    0    0    0    0 -0.00000000000E+00 -0.00000000000E+00  0.11368683772E-12  0.17120000000E+03  0.17120000000E+03 0.  0.
         13    1    1    2    0    0 -0.30856588922E+01 -0.13857771124E+02  0.36040435069E+02  0.38736071501E+02  0.10566000000E+00 0.  1.
        994    1    1    2    0    0  0.61781027441E+01  0.70982086241E+01  0.30340407387E+01  0.17148527319E+03  0.17120000000E+03 0.  0.
        998    1    1    2    0    0 -0.30924438520E+01  0.67595624997E+01  0.14609255205E+04  0.14609786553E+04  0.10000000000E+02 0.  1.
</event>
<event>
 5    1  0.1141915E-008  0.3836267E+03  0.7957747E-01  0.3435518E+00
         13   -1    0    0    0    0  0.00000000000E+00  0.00000000000E+00  0.14999999963E+04  0.15000000000E+04  0.10566000000E+00 0. -1.
        994   -1    0    0    0    0 -0.00000000000E+00 -0.00000000000E+00  0.11368683772E-12  0.17120000000E+03  0.17120000000E+03 0.  0.
         13    1    1    2    0    0 -0.16667820198E+02  0.12541135615E+02  0.96128521823E+02  0.98365645348E+02  0.10566000000E+00 0. -1.
        994    1    1    2    0    0  0.10145248315E+01 -0.13577373736E+02  0.29261071846E+01  0.17176546929E+03  0.17120000000E+03 0.  0.
        998    1    1    2    0    0  0.15653295366E+02  0.10362381209E+01  0.14009453673E+04  0.14010688854E+04  0.10000000000E+02 0. -1.
</event>
<event>
 5    1  0.1141915E-008  0.3737562E+03  0.7957747E-01  0.3478804E+00
         13   -1    0    0    0    0  0.00000000000E+00  0.00000000000E+00  0.14999999963E+04  0.15000000000E+04  0.10566000000E+00 0.  1.
        994   -1    0    0    0    0 -0.00000000000E+00 -0.00000000000E+00  0.11368683772E-12  0.17120000000E+03  0.17120000000E+03 0.  0.
         13    1    1    2    0    0 -0.14910181128E+02  0.13398938528E+02  0.98383799355E+01  0.22330471081E+02  0.10566000000E+00 0.  1.
        994    1    1    2    0    0  0.99442903950E+01 -0.11594440096E+02  0.13765853124E+02  0.17243044588E+03  0.17120000000E+03 0.  0.
        998    1    1    2    0    0  0.49658907327E+01 -0.18044984320E+01  0.14763957632E+04  0.14764390830E+04  0.10000000000E+02 0.  1.
</event>
<event>
 5    1  0.1141915E-008  0.3740517E+03  0.7957747E-01  0.3477475E+00
         13   -1    0    0    0    0  0.00000000000E+00  0.00000000000E+00  0.14999999963E+04  0.15000000000E+04  0.10566000000E+00 0. -1.
        994   -1    0    0    0    0 -0.00000000000E+00 -0.00000000000E+00  0.11368683772E-12  0.17120000000E+03  0.17120000000E+03 0.  0.
         13    1    1    2    0    0 -0.91889602794E-01  0.20133594772E+02  0.95192180432E+01  0.22270984674E+02  0.10566000000E+00 0. -1.
        994    1    1    2    0    0  0.33205457207E+01 -0.22886612991E+02  0.14996345000E+02  0.17340459464E+03  0.17120000000E+03 0.  0.
        998    1    1    2    0    0 -0.32286561179E+01  0.27530182191E+01  0.14754844332E+04  0.14755244207E+04  0.10000000000E+02 0. -1.
</event>
<event>
 5    1  0.1141915E-008  0.3689371E+03  0.7957747E-01  0.3500790E+00
         13   -1    0    0    0    0  0.00000000000E+00  0.00000000000E+00  0.14999999963E+04  0.15000000000E+04  0.10566000000E+00 0.  1.
        994   -1    0    0    0    0 -0.00000000000E+00 -0.00000000000E+00  0.11368683772E-12  0.17120000000E+03  0.17120000000E+03 0.  0.
         13    1    1    2    0    0 -0.10968005561E+03  0.16647823256E+02  0.40740781916E+03  0.42224164515E+03  0.10566000000E+00 0.  1.
        994    1    1    2    0    0  0.11861072986E+03 -0.24506274740E+02  0.62607688296E+02  0.21885663201E+03  0.17120000000E+03 0.  0.
        998    1    1    2    0    0 -0.89306742446E+01  0.78584514842E+01  0.10299844888E+04  0.10301017228E+04  0.10000000000E+02 0. -1.
</event>
<event>
 5    1  0.1141915E-008  0.3845915E+03  0.7957747E-01  0.3431406E+00
         13   -1    0    0    0    0  0.00000000000E+00  0.00000000000E+00  0.14999999963E+04  0.15000000000E+04  0.10566000000E+00 0.  1.
        994   -1    0    0    0    0 -0.00000000000E+00 -0.00000000000E+00  0.11368683772E-12  0.17120000000E+03  0.17120000000E+03 0.  0.
         13    1    1    2    0    0 -0.11670832364E+02  0.70699276992E+01  0.48299370626E+02  0.50189964860E+02  0.10566000000E+00 0.  1.
        994    1    1    2    0    0  0.10490314665E+02 -0.17352121595E+02  0.31881444709E+01  0.17242606268E+03  0.17120000000E+03 0.  0.
        998    1    1    2    0    0  0.11805176992E+01  0.10282193895E+02  0.14485124812E+04  0.14485839725E+04  0.10000000000E+02 0.  1.
</event>
<event>
 5    1  0.1141915E-008  0.3696047E+03  0.7957747E-01  0.3497710E+00
         13   -1    0    0    0    0  0.00000000000E+00  0.00000000000E+00  0.14999999963E+04  0.15000000000E+04  0.10566000000E+00 0. -1.
        994   -1    0    0    0    0 -0.00000000000E+00 -0.00000000000E+00  0.11368683772E-12  0.17120000000E+03  0.17120000000E+03 0.  0.
         13    1    1    2    0    0  0.82993777919E+01 -0.77915292519E+02  0.29229995735E+03  0.30262013931E+03  0.10566000000E+00 0. -1.
        994    1    1    2    0    0  0.46323003713E+02  0.48008982732E+02  0.26433758878E+02  0.18563099608E+03  0.17120000000E+03 0.  0.
        998    1    1    2    0    0 -0.54622381505E+02  0.29906309788E+02  0.11812662800E+04  0.11829488646E+04  0.10000000000E+02 0. -1.
</event>
<event>
 5    1  0.1141915E-008  0.3859204E+03  0.7957747E-01  0.3425778E+00
         13   -1    0    0    0    0  0.00000000000E+00  0.00000000000E+00  0.14999999963E+04  0.15000000000E+04  0.10566000000E+00 0.  1.
        994   -1    0    0    0    0 -0.00000000000E+00 -0.00000000000E+00  0.11368683772E-12  0.17120000000E+03  0.17120000000E+03 0.  0.
         13    1    1    2    0    0 -0.12434608936E+02 -0.44142168551E+01  0.77308112607E+02  0.78426145186E+02  0.10566000000E+00 0.  1.
        994    1    1    2    0    0  0.16473309254E+01  0.10271733029E+02  0.15288117347E+01  0.17152259170E+03  0.17120000000E+03 0.  0.
        998    1    1    2    0    0  0.10787278010E+02 -0.58575161742E+01  0.14211630719E+04  0.14212512631E+04  0.10000000000E+02 0.  1.
</event>
<event>
 5    1  0.1141915E-008  0.3855471E+03  0.7957747E-01  0.3427355E+00
         13   -1    0    0    0    0  0.00000000000E+00  0.00000000000E+00  0.14999999963E+04  0.15000000000E+04  0.10566000000E+00 0. -1.
        994   -1    0    0    0    0 -0.00000000000E+00 -0.00000000000E+00  0.11368683772E-12  0.17120000000E+03  0.17120000000E+03 0.  0.
         13    1    1    2    0    0 -0.12908845013E+02  0.33616302895E+01  0.66411031605E+02  0.67737545871E+02  0.10566000000E+00 0. -1.
        994    1    1    2    0    0  0.86127296588E+01  0.27309803665E+01  0.16268118464E+01  0.17144597949E+03  0.17120000000E+03 0.  0.
        998    1    1    2    0    0  0.42961153547E+01 -0.60926106560E+01  0.14319621528E+04  0.14320164746E+04  0.10000000000E+02 0. -1.
</event>
<event>
 5    1  0.1141915E-008  0.3730800E+03  0.7957747E-01  0.3481854E+00
         13   -1    0    0    0    0  0.00000000000E+00  0.00000000000E+00  0.14999999963E+04  0.15000000000E+04  0.10566000000E+00 0.  1.
        994   -1    0    0    0    0 -0.00000000000E+00 -0.00000000000E+00  0.11368683772E-12  0.17120000000E+03  0.17120000000E+03 0.  0.
         13    1    1    2    0    0  0.10942456039E+02  0.16438107527E+02  0.21983461948E+02  0.29550507381E+02  0.10566000000E+00 0.  1.
        994    1    1    2    0    0 -0.62335145817E+01 -0.16770850756E+02  0.87640035150E+01  0.17235534775E+03  0.17120000000E+03 0.  0.
        998    1    1    2    0    0 -0.47089414575E+01  0.33274322896E+00  0.14692525308E+04  0.14692941449E+04  0.10000000000E+02 0.  1.
</event>
<event>
 5    1  0.1141915E-008  0.3817615E+03  0.7957747E-01  0.3443524E+00
         13   -1    0    0    0    0  0.00000000000E+00  0.00000000000E+00  0.14999999963E+04  0.15000000000E+04  0.10566000000E+00 0.  1.
        994   -1    0    0    0    0 -0.00000000000E+00 -0.00000000000E+00  0.11368683772E-12  0.17120000000E+03  0.17120000000E+03 0.  0.
         13    1    1    2    0    0 -0.21414818302E+02  0.12583813841E+01  0.76339096206E+02  0.79295944033E+02  0.10566000000E+00 0.  1.
        994    1    1    2    0    0 -0.37001385858E+01  0.60843329365E+01  0.34151320622E+01  0.17138206808E+03  0.17120000000E+03 0.  0.
        998    1    1    2    0    0  0.25114956888E+02 -0.73427143206E+01  0.14202457680E+04  0.14205219879E+04  0.10000000000E+02 0.  1.
</event>
<event>
 5    1  0.1141915E-008  0.3797104E+03  0.7957747E-01  0.3452421E+00
         13   -1    0    0    0    0  0.00000000000E+00  0.00000000000E+00  0.14999999963E+04  0.15000000000E+04  0.10566000000E+00 0.  1.
        994   -1    0    0    0    0 -0.00000000000E+00 -0.00000000000E+00  0.11368683772E-12  0.17120000000E+03  0.17120000000E+03 0.  0.
         13    1    1    2    0    0 -0.80941329186E+00 -0.19295473423E+02  0.42343681964E+02  0.46539972183E+02  0.10566000000E+00 0.  1.
        994    1    1    2    0    0  0.63071050864E+01  0.97704809843E+01  0.47320846251E+01  0.17165976377E+03  0.17120000000E+03 0.  0.
        998    1    1    2    0    0 -0.54976917946E+01  0.95249924391E+01  0.14529242297E+04  0.14530002640E+04  0.10000000000E+02 0.  1.
</event>
<event>
 5    1  0.1141915E-008  0.3831826E+03  0.7957747E-01  0.3437417E+00
         13   -1    0    0    0    0  0.00000000000E+00  0.00000000000E+00  0.14999999963E+04  0.15000000000E+04  0.10566000000E+00 0. -1.
        994   -1    0    0    0    0 -0.00000000000E+00 -0.00000000000E+00  0.11368683772E-12  0.17120000000E+03  0.17120000000E+03 0.  0.
         13    1    1    2    0    0 -0.34151504646E+01 -0.10206629912E+02  0.22014759878E+02  0.24505088520E+02  0.10566000000E+00 0. -1.
        994    1    1    2    0    0  0.52354577778E+01  0.50588442493E+01  0.27104817699E+01  0.17137616122E+03  0.17120000000E+03 0.  0.
        998    1    1    2    0    0 -0.18203073132E+01  0.51477856626E+01  0.14752747546E+04  0.14753187503E+04  0.10000000000E+02 0. -1.
</event>
<event>
 5    1  0.1141915E-008  0.3307628E+03  0.7957747E-01  0.3698252E+00
         13   -1    0    0    0    0  0.00000000000E+00  0.00000000000E+00  0.14999999963E+04  0.15000000000E+04  0.10566000000E+00 0. -1.
        994   -1    0    0    0    0 -0.00000000000E+00 -0.00000000000E+00  0.11368683772E-12  0.17120000000E+03  0.17120000000E+03 0.  0.
         13    1    1    2    0    0  0.45567881337E+02  0.23422746279E+03  0.76306643272E+03  0.79950567730E+03  0.10566000000E+00 0. -1.
        994    1    1    2    0    0 -0.44241680468E+02 -0.23411589608E+03  0.25229085742E+03  0.38694663175E+03  0.17120000000E+03 0.  0.
        998    1    1    2    0    0 -0.13262008689E+01 -0.11156670477E+00  0.48464270615E+03  0.48474769095E+03  0.10000000000E+02 0.  0.
</event>
<event>
 5    1  0.1141915E-008  0.3860876E+03  0.7957747E-01  0.3425073E+00
         13   -1    0    0    0    0  0.00000000000E+00  0.00000000000E+00  0.14999999963E+04  0.15000000000E+04  0.10566000000E+00 0. -1.
        994   -1    0    0    0    0 -0.00000000000E+00 -0.00000000000E+00  0.11368683772E-12  0.17120000000E+03  0.17120000000E+03 0.  0.
         13    1    1    2    0    0 -0.36550829410E+01  0.10805273214E+02  0.59284826925E+02  0.60372306798E+02  0.10566000000E+00 0. -1.
        994    1    1    2    0    0 -0.61889413103E+01 -0.13040333375E+02  0.17742219212E+01  0.17181659161E+03  0.17120000000E+03 0.  0.
        998    1    1    2    0    0  0.98440242513E+01  0.22350601613E+01  0.14389409474E+04  0.14390111016E+04  0.10000000000E+02 0. -1.
</event>
<event>
 5    1  0.1141915E-008  0.3845945E+03  0.7957747E-01  0.3431394E+00
         13   -1    0    0    0    0  0.00000000000E+00  0.00000000000E+00  0.14999999963E+04  0.15000000000E+04  0.10566000000E+00 0.  1.
        994   -1    0    0    0    0 -0.00000000000E+00 -0.00000000000E+00  0.11368683772E-12  0.17120000000E+03  0.17120000000E+03 0.  0.
         13    1    1    2    0    0 -0.13408478523E+02 -0.47604827693E+01  0.55903172042E+02  0.57685572728E+02  0.10566000000E+00 0.  1.
        994    1    1    2    0    0  0.94409561086E+01 -0.63978636304E+01  0.22600324849E+01  0.17159432408E+03  0.17120000000E+03 0.  0.
        998    1    1    2    0    0  0.39675224140E+01  0.11158346400E+02  0.14418367918E+04  0.14419201032E+04  0.10000000000E+02 0.  1.
</event>
<event>
 5    1  0.1141915E-008  0.3811353E+03  0.7957747E-01  0.3446230E+00
         13   -1    0    0    0    0  0.00000000000E+00  0.00000000000E+00  0.14999999963E+04  0.15000000000E+04  0.10566000000E+00 0.  1.
        994   -1    0    0    0    0 -0.00000000000E+00 -0.00000000000E+00  0.11368683772E-12  0.17120000000E+03  0.17120000000E+03 0.  0.
         13    1    1    2    0    0 -0.17111651940E+02  0.12595314946E+02  0.64576326176E+02  0.67982083354E+02  0.10566000000E+00 0.  1.
        994    1    1    2    0    0  0.82580519994E+01  0.27137941373E+01  0.38128380510E+01  0.17146293429E+03  0.17120000000E+03 0.  0.
        998    1    1    2    0    0  0.88535999408E+01 -0.15309109084E+02  0.14316108321E+04  0.14317549824E+04  0.10000000000E+02 0.  1.
</event>
<event>
 5    1  0.1141915E-008  0.3846642E+03  0.7957747E-01  0.3431098E+00
         13   -1    0    0    0    0  0.00000000000E+00  0.00000000000E+00  0.14999999963E+04  0.15000000000E+04  0.10566000000E+00 0. -1.
        994   -1    0    0    0    0 -0.00000000000E+00 -0.00000000000E+00  0.11368683772E-12  0.17120000000E+03  0.17120000000E+03 0.  0.
         13    1    1    2    0    0  0.37373147216E+01  0.16144040243E+02  0.73957527729E+02  0.75791322910E+02  0.10566000000E+00 0. -1.
        994    1    1    2    0    0 -0.92164499133E+01 -0.13884574443E+02  0.27118329572E+01  0.17203057401E+03  0.17120000000E+03 0.  0.
        998    1    1    2    0    0  0.54791351917E+01 -0.22594658000E+01  0.14233306356E+04  0.14233781031E+04  0.10000000000E+02 0. -1.
</event>
<event>
 5    1  0.1141915E-008  0.3844495E+03  0.7957747E-01  0.3432010E+00
         13   -1    0    0    0    0  0.00000000000E+00  0.00000000000E+00  0.14999999963E+04  0.15000000000E+04  0.10566000000E+00 0. -1.
        994   -1    0    0    0    0 -0.00000000000E+00 -0.00000000000E+00  0.11368683772E-12  0.17120000000E+03  0.17120000000E+03 0.  0.
         13    1    1    2    0    0 -0.34904537899E+01  0.16489925592E+02  0.76206270833E+02  0.78048112034E+02  0.10566000000E+00 0. -1.
        994    1    1    2    0    0 -0.30829657599E+01 -0.79663286141E+01  0.21441366884E+01  0.17142638184E+03  0.17120000000E+03 0.  0.
        998    1    1    2    0    0  0.65734195498E+01 -0.85235969778E+01  0.14216495888E+04  0.14217255061E+04  0.10000000000E+02 0. -1.
</event>
<event>
 5    1  0.1141915E-008  0.3846503E+03  0.7957747E-01  0.3431157E+00
         13   -1    0    0    0    0  0.00000000000E+00  0.00000000000E+00  0.14999999963E+04  0.15000000000E+04  0.10566000000E+00 0. -1.
        994   -1    0    0    0    0 -0.00000000000E+00 -0.00000000000E+00  0.11368683772E-12  0.17120000000E+03  0.17120000000E+03 0.  0.
         13    1    1    2    0    0 -0.20728759245E+02 -0.85410030575E+01  0.45956994536E+01  0.22885843016E+02  0.10566000000E+00 0. -1.
        994    1    1    2    0    0  0.18103641386E+02  0.47141264134E+02  0.28366522688E+02  0.18073223350E+03  0.17120000000E+03 0.  0.
        998    1    1    2    0    0  0.26251178586E+01 -0.38600261077E+02  0.14670377741E+04  0.14675819235E+04  0.10000000000E+02 0. -1.
</event>
<event>
 5    1  0.1141915E-008  0.3710806E+03  0.7957747E-01  0.3490939E+00
         13   -1    0    0    0    0  0.00000000000E+00  0.00000000000E+00  0.14999999963E+04  0.15000000000E+04  0.10566000000E+00 0. -1.
        994   -1    0    0    0    0 -0.00000000000E+00 -0.00000000000E+00  0.11368683772E-12  0.17120000000E+03  0.17120000000E+03 0.  0.
         13    1    1    2    0    0  0.56240357300E+02 -0.17291060076E+03  0.66399398235E+03  0.68843959315E+03  0.10566000000E+00 0. -1.
        994    1    1    2    0    0 -0.53808213155E+02  0.17626655485E+03  0.14236930750E+03  0.28903923935E+03  0.17120000000E+03 0.  0.
        998    1    1    2    0    0 -0.24321441447E+01 -0.33559540945E+01  0.69363670642E+03  0.69372116751E+03  0.10000000000E+02 0. -1.
</event>
<event>
 5    1  0.1141915E-008  0.3714435E+03  0.7957747E-01  0.3489283E+00
         13   -1    0    0    0    0  0.00000000000E+00  0.00000000000E+00  0.14999999963E+04  0.15000000000E+04  0.10566000000E+00 0.  1.
        994   -1    0    0    0    0 -0.00000000000E+00 -0.00000000000E+00  0.11368683772E-12  0.17120000000E+03  0.17120000000E+03 0.  0.
         13    1    1    2    0    0 -0.29437876168E+01  0.11463106913E+02  0.42514884445E+01  0.12575970088E+02  0.10566000000E+00 0.  1.
        994    1    1    2    0    0  0.42686831545E+01 -0.11600255025E+02  0.90423636716E+01  0.17188365808E+03  0.17120000000E+03 0.  0.
        998    1    1    2    0    0 -0.13248955377E+01  0.13714811151E+00  0.14867061442E+04  0.14867403718E+04  0.10000000000E+02 0.  1.
</event>
<event>
 5    1  0.1141915E-008  0.3828317E+03  0.7957747E-01  0.3438920E+00
         13   -1    0    0    0    0  0.00000000000E+00  0.00000000000E+00  0.14999999963E+04  0.15000000000E+04  0.10566000000E+00 0. -1.
        994   -1    0    0    0    0 -0.00000000000E+00 -0.00000000000E+00  0.11368683772E-12  0.17120000000E+03  0.17120000000E+03 0.  0.
         13    1    1    2    0    0 -0.20541225796E+02 -0.10937892139E+03  0.30732685705E+03  0.32685700028E+03  0.10566000000E+00 0. -1.
        994    1    1    2    0    0  0.21941386400E+02  0.84137500752E+02  0.46131852098E+02  0.19747944513E+03  0.17120000000E+03 0.  0.
        998    1    1    2    0    0 -0.14001606041E+01  0.25241420638E+02  0.11465412871E+04  0.11468635546E+04  0.10000000000E+02 0. -1.
</event>
<event>
 5    1  0.1141915E-008  0.3829451E+03  0.7957747E-01  0.3438434E+00
         13   -1    0    0    0    0  0.00000000000E+00  0.00000000000E+00  0.14999999963E+04  0.15000000000E+04  0.10566000000E+00 0. -1.
        994   -1    0    0    0    0 -0.00000000000E+00 -0.00000000000E+00  0.11368683772E-12  0.17120000000E+03  0.17120000000E+03 0.  0.
         13    1    1    2    0    0 -0.25864458929E+01 -0.98716530411E+01  0.18081092473E+02  0.20762377156E+02  0.10566000000E+00 0. -1.
        994    1    1    2    0    0  0.19157313376E+02  0.12420116558E+02  0.43814697628E+01  0.17277123380E+03  0.17120000000E+03 0.  0.
        998    1    1    2    0    0 -0.16570867483E+02 -0.25484635174E+01  0.14775374340E+04  0.14776663890E+04  0.10000000000E+02 0. -1.
</event>
<event>
 5    1  0.4406036E-008  0.3864250E+03  0.7957747E-01  0.3423651E+00
         13   -1    0    0    0    0  0.00000000000E+00  0.00000000000E+00  0.14999999963E+04  0.15000000000E+04  0.10566000000E+00 0. -1.
        994   -1    0    0    0    0 -0.00000000000E+00 -0.00000000000E+00  0.11368683772E-12  0.17120000000E+03  0.17120000000E+03 0.  0.
         13    1    1    2    0    0 -0.10384084075E+02  0.10852648436E+01  0.59410670018E+02  0.60321189295E+02  0.10566000000E+00 0. -1.
        994    1    1    2    0    0  0.82728913727E+01 -0.34324864909E+01  0.11869579136E+01  0.17143824417E+03  0.17120000000E+03 0.  0.
        998    1    1    2    0    0  0.21111927023E+01  0.23472216473E+01  0.14394023683E+04  0.14394405665E+04  0.10000000000E+02 0. -1.
</event>
<event>
 5    1  0.1141915E-008  0.3741131E+03  0.7957747E-01  0.3477199E+00
         13   -1    0    0    0    0  0.00000000000E+00  0.00000000000E+00  0.14999999963E+04  0.15000000000E+04  0.10566000000E+00 0. -1.
        994   -1    0    0    0    0 -0.00000000000E+00 -0.00000000000E+00  0.11368683772E-12  0.17120000000E+03  0.17120000000E+03 0.  0.
         13    1    1    2    0    0  0.23090618600E+02  0.25212726755E+02  0.77981150364E+02  0.85146516275E+02  0.10566000000E+00 0. -1.
        994    1    1    2    0    0 -0.13957809061E+02 -0.22578682124E+02  0.95409146868E+01  0.17350817379E+03  0.17120000000E+03 0.  0.
        998    1    1    2    0    0 -0.91328095386E+01 -0.26340446308E+01  0.14124779312E+04  0.14125453099E+04  0.10000000000E+02 0. -1.
</event>
<event>
 5    1  0.1141915E-008  0.3811131E+03  0.7957747E-01  0.3446326E+00
         13   -1    0    0    0    0  0.00000000000E+00  0.00000000000E+00  0.14999999963E+04  0.15000000000E+04  0.10566000000E+00 0.  1.
        994   -1    0    0    0    0 -0.00000000000E+00 -0.00000000000E+00  0.11368683772E-12  0.17120000000E+03  0.17120000000E+03 0.  0.
         13    1    1    2    0    0  0.49787620827E+01  0.10113450192E+02  0.16168403579E+02  0.19710362376E+02  0.10566000000E+00 0.  1.
        994    1    1    2    0    0 -0.55094268113E+01 -0.94661016638E+01  0.39719493558E+01  0.17159597095E+03  0.17120000000E+03 0.  0.
        998    1    1    2    0    0  0.53066472859E+00 -0.64734852809E+00  0.14798596433E+04  0.14798936667E+04  0.10000000000E+02 0.  1.
</event>
<event>
 5    1  0.1141915E-008  0.3824564E+03  0.7957747E-01  0.3440532E+00
         13   -1    0    0    0    0  0.00000000000E+00  0.00000000000E+00  0.14999999963E+04  0.15000000000E+04  0.10566000000E+00 0.  1.
        994   -1    0    0    0    0 -0.00000000000E+00 -0.00000000000E+00  0.11368683772E-12  0.17120000000E+03  0.17120000000E+03 0.  0.
         13    1    1    2    0    0  0.18672064344E+02  0.29081321974E+01  0.62031923378E+02  0.64846541170E+02  0.10566000000E+00 0.  1.
        994    1    1    2    0    0 -0.80518512171E+01  0.19961285803E+01  0.31265226945E+01  0.17142937899E+03  0.17120000000E+03 0.  0.
        998    1    1    2    0    0 -0.10620213127E+02 -0.49042607776E+01  0.14348415502E+04  0.14349240798E+04  0.10000000000E+02 0.  1.
</event>
<event>
 5    1  0.1141915E-008  0.3229898E+03  0.7957747E-01  0.3744436E+00
         13   -1    0    0    0    0  0.00000000000E+00  0.00000000000E+00  0.14999999963E+04  0.15000000000E+04  0.10566000000E+00 0. -1.
        994   -1    0    0    0    0 -0.00000000000E+00 -0.00000000000E+00  0.11368683772E-12  0.17120000000E+03  0.17120000000E+03 0.  0.
         13    1    1    2    0    0  0.26407230562E+03  0.33460306466E+02  0.75480278811E+03  0.80036306437E+03  0.10566000000E+00 0. -1.
        994    1    1    2    0    0 -0.20334652178E+03 -0.44166138228E+02  0.23712932810E+03  0.35894319039E+03  0.17120000000E+03 0.  0.
        998    1    1    2    0    0 -0.60725783838E+02  0.10705831762E+02  0.50806788007E+03  0.51189374524E+03  0.10000000000E+02 0.  1.
</event>
<event>
 5    1  0.1141915E-008  0.3849351E+03  0.7957747E-01  0.3429947E+00
         13   -1    0    0    0    0  0.00000000000E+00  0.00000000000E+00  0.14999999963E+04  0.15000000000E+04  0.10566000000E+00 0. -1.
        994   -1    0    0    0    0 -0.00000000000E+00 -0.00000000000E+00  0.11368683772E-12  0.17120000000E+03  0.17120000000E+03 0.  0.
         13    1    1    2    0    0  0.13018925582E+02 -0.52641089437E+01  0.54839423114E+02  0.56608981247E+02  0.10566000000E+00 0. -1.
        994    1    1    2    0    0 -0.16600108207E+02  0.20540904687E+02  0.39600089997E+01  0.17327034954E+03  0.17120000000E+03 0.  0.
        998    1    1    2    0    0  0.35811826253E+01 -0.15276795743E+02  0.14412005642E+04  0.14413206692E+04  0.10000000000E+02 0. -1.
</event>
<event>
 5    1  0.1141915E-008  0.3822614E+03  0.7957747E-01  0.3441371E+00
         13   -1    0    0    0    0  0.00000000000E+00  0.00000000000E+00  0.14999999963E+04  0.15000000000E+04  0.10566000000E+00 0.  1.
        994   -1    0    0    0    0 -0.00000000000E+00 -0.00000000000E+00  0.11368683772E-12  0.17120000000E+03  0.17120000000E+03 0.  0.
         13    1    1    2    0    0 -0.82154655399E+01 -0.20584616529E+02  0.87225155739E+02  0.89996995891E+02  0.10566000000E+00 0.  1.
        994    1    1    2    0    0 -0.84872072137E+01  0.42865499382E+01  0.32959986703E+01  0.17149551249E+03  0.17120000000E+03 0.  0.
        998    1    1    2    0    0  0.16702672754E+02  0.16298066591E+02  0.14094788419E+04  0.14097074916E+04  0.10000000000E+02 0.  1.
</event>
<event>
 5    1  0.1141915E-008  0.3761219E+03  0.7957747E-01  0.3468220E+00
         13   -1    0    0    0    0  0.00000000000E+00  0.00000000000E+00  0.14999999963E+04  0.15000000000E+04  0.10566000000E+00 0.  1.
        994   -1    0    0    0    0 -0.00000000000E+00 -0.00000000000E+00  0.11368683772E-12  0.17120000000E+03  0.17120000000E+03 0.  0.
         13    1    1    2    0    0 -0.18089646969E+02 -0.42877162257E+02  0.18008175548E+03  0.18599767792E+03  0.10566000000E+00 0.  1.
        994    1    1    2    0    0 -0.65870671382E+01  0.27614760997E+02  0.88378752311E+01  0.17376280533E+03  0.17120000000E+03 0.  0.
        998    1    1    2    0    0  0.24676714107E+02  0.15262401260E+02  0.13110803656E+04  0.13114395168E+04  0.10000000000E+02 0.  1.
</event>
<event>
 5    1  0.1141915E-008  0.3685235E+03  0.7957747E-01  0.3502704E+00
         13   -1    0    0    0    0  0.00000000000E+00  0.00000000000E+00  0.14999999963E+04  0.15000000000E+04  0.10566000000E+00 0. -1.
        994   -1    0    0    0    0 -0.00000000000E+00 -0.00000000000E+00  0.11368683772E-12  0.17120000000E+03  0.17120000000E+03 0.  0.
         13    1    1    2    0    0 -0.61151165128E+01  0.57649883453E+02  0.16983985697E+03  0.17946167249E+03  0.10566000000E+00 0. -1.
        994    1    1    2    0    0 -0.10512381091E+02 -0.28723566778E+02  0.13301165312E+02  0.17441879040E+03  0.17120000000E+03 0.  0.
        998    1    1    2    0    0  0.16627497604E+02 -0.28926316675E+02  0.13168589740E+04  0.13173195371E+04  0.10000000000E+02 0. -1.
</event>
<event>
 5    1  0.1141915E-008  0.3843743E+03  0.7957747E-01  0.3432330E+00
         13   -1    0    0    0    0  0.00000000000E+00  0.00000000000E+00  0.14999999963E+04  0.15000000000E+04  0.10566000000E+00 0. -1.
        994   -1    0    0    0    0 -0.00000000000E+00 -0.00000000000E+00  0.11368683772E-12  0.17120000000E+03  0.17120000000E+03 0.  0.
         13    1    1    2    0    0  0.13671262667E+01  0.11860521108E+02  0.36494170112E+02  0.38397612053E+02  0.10566000000E+00 0. -1.
        994    1    1    2    0    0 -0.61887213005E+00 -0.68938553396E+01  0.20990007297E+01  0.17135271824E+03  0.17120000000E+03 0.  0.
        998    1    1    2    0    0 -0.74825413667E+00 -0.49666657680E+01  0.14614068254E+04  0.14614496697E+04  0.10000000000E+02 0. -1.
</event>
<event>
 5    1  0.1141915E-008  0.3837433E+03  0.7957747E-01  0.3435019E+00
         13   -1    0    0    0    0  0.00000000000E+00  0.00000000000E+00  0.14999999963E+04  0.15000000000E+04  0.10566000000E+00 0.  1.
        994   -1    0    0    0    0 -0.00000000000E+00 -0.00000000000E+00  0.11368683772E-12  0.17120000000E+03  0.17120000000E+03 0.  0.
         13    1    1    2    0    0 -0.44499131925E+01 -0.20062292128E+02  0.11648426132E+03  0.11828309935E+03  0.10566000000E+00 0.  1.
        994    1    1    2    0    0 -0.15557165836E+01 -0.16579005460E+02  0.31714935071E+01  0.17203715310E+03  0.17120000000E+03 0.  0.
        998    1    1    2    0    0  0.60056297761E+01  0.36641297589E+02  0.13803442415E+04  0.13808797475E+04  0.10000000000E+02 0.  1.
</event>
<event>
 5    1  0.1141915E-008  0.3816033E+03  0.7957747E-01  0.3444207E+00
         13   -1    0    0    0    0  0.00000000000E+00  0.00000000000E+00  0.14999999963E+04  0.15000000000E+04  0.10566000000E+00 0.  1.
        994   -1    0    0    0    0 -0.00000000000E+00 -0.00000000000E+00  0.11368683772E-12  0.17120000000E+03  0.17120000000E+03 0.  0.
         13    1    1    2    0    0 -0.39693448098E+01  0.23038950429E+02  0.93720051321E+02  0.96591967155E+02  0.10566000000E+00 0.  1.
        994    1    1    2    0    0  0.85229829870E-01  0.11535750096E+02  0.37686418977E+01  0.17162961125E+03  0.17120000000E+03 0.  0.
        998    1    1    2    0    0  0.38841149800E+01 -0.34574700526E+02  0.14025113031E+04  0.14029784216E+04  0.10000000000E+02 0.  1.
</event>
<event>
 5    1  0.1141915E-008  0.3735812E+03  0.7957747E-01  0.3479592E+00
         13   -1    0    0    0    0  0.00000000000E+00  0.00000000000E+00  0.14999999963E+04  0.15000000000E+04  0.10566000000E+00 0. -1.
        994   -1    0    0    0    0 -0.00000000000E+00 -0.00000000000E+00  0.11368683772E-12  0.17120000000E+03  0.17120000000E+03 0.  0.
         13    1    1    2    0    0 -0.16331372554E+02  0.30495737120E+02  0.76038998651E+02  0.83538279800E+02  0.10566000000E+00 0. -1.
        994    1    1    2    0    0  0.13930150352E+02 -0.25531250227E+02  0.10303732889E+02  0.17395833047E+03  0.17120000000E+03 0.  0.
        998    1    1    2    0    0  0.24012222025E+01 -0.49644868938E+01  0.14136572647E+04  0.14137033897E+04  0.10000000000E+02 0. -1.
</event>
<event>
 5    1  0.1141915E-008  0.3814107E+03  0.7957747E-01  0.3445039E+00
         13   -1    0    0    0    0  0.00000000000E+00  0.00000000000E+00  0.14999999963E+04  0.15000000000E+04  0.10566000000E+00 0. -1.
        994   -1    0    0    0    0 -0.00000000000E+00 -0.00000000000E+00  0.11368683772E-12  0.17120000000E+03  0.17120000000E+03 0.  0.
         13    1    1    2    0    0 -0.78568484220E+02 -0.20211925538E+03  0.98049998919E+03  0.10041939255E+04  0.10566000000E+00 0. -1.
        994    1    1    2    0    0  0.81475886468E+02  0.21506171759E+03  0.20593016088E+03  0.35299650651E+03  0.17120000000E+03 0.  0.
        998    1    1    2    0    0 -0.29074022480E+01 -0.12942462219E+02  0.31356984621E+03  0.31400956795E+03  0.10000000000E+02 0. -1.
</event>
<event>
 5    1  0.1141915E-008  0.3760454E+03  0.7957747E-01  0.3468560E+00
         13   -1    0    0    0    0  0.00000000000E+00  0.00000000000E+00  0.14999999963E+04  0.15000000000E+04  0.10566000000E+00 0.  1.
        994   -1    0    0    0    0 -0.00000000000E+00 -0.00000000000E+00  0.11368683772E-12  0.17120000000E+03  0.17120000000E+03 0.  0.
         13    1    1    2    0    0 -0.25656165557E+02  0.22255092506E+02  0.83672344059E+02  0.90302825525E+02  0.10566000000E+00 0.  1.
        994    1    1    2    0    0  0.49271318907E+02 -0.10247032575E+02  0.14770322377E+02  0.17905381025E+03  0.17120000000E+03 0.  0.
        998    1    1    2    0    0 -0.23615153350E+02 -0.12008059931E+02  0.14015573298E+04  0.14018433642E+04  0.10000000000E+02 0.  1.
</event>
<event>
 5    1  0.1141915E-008  0.3809800E+03  0.7957747E-01  0.3446902E+00
         13   -1    0    0    0    0  0.00000000000E+00  0.00000000000E+00  0.14999999963E+04  0.15000000000E+04  0.10566000000E+00 0. -1.
        994   -1    0    0    0    0 -0.00000000000E+00 -0.00000000000E+00  0.11368683772E-12  0.17120000000E+03  0.17120000000E+03 0.  0.
         13    1    1    2    0    0  0.53193693475E+01 -0.17076409846E+02  0.41776988748E+02  0.45444773257E+02  0.10566000000E+00 0. -1.
        994    1    1    2    0    0 -0.10693273920E+02  0.14752491973E+02  0.47462249838E+01  0.17223225243E+03  0.17120000000E+03 0.  0.
        998    1    1    2    0    0  0.53739045725E+01  0.23239178726E+01  0.14534767825E+04  0.14535229743E+04  0.10000000000E+02 0. -1.
</event>
<event>
 5    1  0.1141915E-008  0.3785385E+03  0.7957747E-01  0.3457547E+00
         13   -1    0    0    0    0  0.00000000000E+00  0.00000000000E+00  0.14999999963E+04  0.15000000000E+04  0.10566000000E+00 0. -1.
        994   -1    0    0    0    0 -0.00000000000E+00 -0.00000000000E+00  0.11368683772E-12  0.17120000000E+03  0.17120000000E+03 0.  0.
         13    1    1    2    0    0  0.30344482327E+02  0.15787349190E+02  0.11074323920E+03  0.11590558311E+03  0.10566000000E+00 0. -1.
        994    1    1    2    0    0 -0.34130612747E+02 -0.78487980158E+01  0.90037559816E+01  0.17497716988E+03  0.17120000000E+03 0.  0.
        998    1    1    2    0    0  0.37861304204E+01 -0.79385511740E+01  0.13802530011E+04  0.13803172470E+04  0.10000000000E+02 0. -1.
</event>
<event>
 5    1  0.1141915E-008  0.3738645E+03  0.7957747E-01  0.3478317E+00
         13   -1    0    0    0    0  0.00000000000E+00  0.00000000000E+00  0.14999999963E+04  0.15000000000E+04  0.10566000000E+00 0.  1.
        994   -1    0    0    0    0 -0.00000000000E+00 -0.00000000000E+00  0.11368683772E-12  0.17120000000E+03  0.17120000000E+03 0.  0.
         13    1    1    2    0    0 -0.32598340933E+01  0.19185605126E+02  0.24679329194E+02  0.31429196869E+02  0.10566000000E+00 0.  1.
        994    1    1    2    0    0 -0.35587882235E+02  0.98184986701E+01  0.11927763342E+02  0.17554091209E+03  0.17120000000E+03 0.  0.
        998    1    1    2    0    0  0.38847716329E+02 -0.29004103796E+02  0.14633929037E+04  0.14642298910E+04  0.10000000000E+02 0.  1.
</event>
<event>
 5    1  0.1141915E-008  0.3845619E+03  0.7957747E-01  0.3431532E+00
         13   -1    0    0    0    0  0.00000000000E+00  0.00000000000E+00  0.14999999963E+04  0.15000000000E+04  0.10566000000E+00 0.  1.
        994   -1    0    0    0    0 -0.00000000000E+00 -0.00000000000E+00  0.11368683772E-12  0.17120000000E+03  0.17120000000E+03 0.  0.
         13    1    1    2    0    0  0.12337298571E+02 -0.26126964229E+01  0.43055023659E+02  0.44864031751E+02  0.10566000000E+00 0.  1.
        994    1    1    2    0    0 -0.75761803145E+01 -0.20461669717E+01  0.20506573865E+01  0.17139203746E+03  0.17120000000E+03 0.  0.
        998    1    1    2    0    0 -0.47611182569E+01  0.46588633946E+01  0.14548943152E+04  0.14549439308E+04  0.10000000000E+02 0.  1.
</event>
<event>
 5    1  0.1141915E-008  0.3853740E+03  0.7957747E-01  0.3428088E+00
         13   -1    0    0    0    0  0.00000000000E+00  0.00000000000E+00  0.14999999963E+04  0.15000000000E+04  0.10566000000E+00 0.  1.
        994   -1    0    0    0    0 -0.00000000000E+00 -0.00000000000E+00  0.11368683772E-12  0.17120000000E+03  0.17120000000E+03 0.  0.
         13    1    1    2    0    0  0.11887501630E+01  0.13012641842E+02  0.58393622333E+02  0.59837849793E+02  0.10566000000E+00 0.  1.
        994    1    1    2    0    0 -0.42378400355E+01 -0.10812071534E+02  0.18876605568E+01  0.17160379786E+03  0.17120000000E+03 0.  0.
        998    1    1    2    0    0  0.30490898726E+01 -0.22005703075E+01  0.14397187134E+04  0.14397583523E+04  0.10000000000E+02 0.  1.
</event>
<event>
 5    1  0.1141915E-008  0.3754974E+03  0.7957747E-01  0.3471001E+00
         13   -1    0    0    0    0  0.00000000000E+00  0.00000000000E+00  0.14999999963E+04  0.15000000000E+04  0.10566000000E+00 0.  1.
        994   -1    0    0    0    0 -0.00000000000E+00 -0.00000000000E+00  0.11368683772E-12  0.17120000000E+03  0.17120000000E+03 0.  0.
         13    1    1    2    0    0  0.27352904596E+02 -0.27778940759E+02  0.48122478949E+02  0.61932504259E+02  0.10566000000E+00 0.  1.
        994    1    1    2    0    0 -0.22926897841E+02  0.30816657748E+02  0.19153108219E+02  0.17649813198E+03  0.17120000000E+03 0.  0.
        998    1    1    2    0    0 -0.44260067552E+01 -0.30377169884E+01  0.14327244091E+04  0.14327693638E+04  0.10000000000E+02 0.  1.
</event>
<event>
 5    1  0.1141915E-008  0.3836611E+03  0.7957747E-01  0.3435371E+00
         13   -1    0    0    0    0  0.00000000000E+00  0.00000000000E+00  0.14999999963E+04  0.15000000000E+04  0.10566000000E+00 0. -1.
        994   -1    0    0    0    0 -0.00000000000E+00 -0.00000000000E+00  0.11368683772E-12  0.17120000000E+03  0.17120000000E+03 0.  0.
         13    1    1    2    0    0 -0.34975527585E+01  0.12731393724E+02  0.36935487215E+02  0.39224515819E+02  0.10566000000E+00 0. -1.
        994    1    1    2    0    0  0.12015112469E+02 -0.84958765644E+01  0.30119144369E+01  0.17185765760E+03  0.17120000000E+03 0.  0.
        998    1    1    2    0    0 -0.85175597100E+01 -0.42355171594E+01  0.14600525946E+04  0.14601178266E+04  0.10000000000E+02 0. -1.
</event>
<event>
 5    1  0.1141915E-008  0.3855596E+03  0.7957747E-01  0.3427302E+00
         13   -1    0    0    0    0  0.00000000000E+00  0.00000000000E+00  0.14999999963E+04  0.15000000000E+04  0.10566000000E+00 0. -1.
        994   -1    0    0    0    0 -0.00000000000E+00 -0.00000000000E+00  0.11368683772E-12  0.17120000000E+03  0.17120000000E+03 0.  0.
         13    1    1    2    0    0 -0.99998276197E+01  0.86797666692E+01  0.66662217565E+02  0.67964676977E+02  0.10566000000E+00 0. -1.
        994    1    1    2    0    0  0.75505363746E+01  0.99723014744E-01  0.15397557121E+01  0.17137336839E+03  0.17120000000E+03 0.  0.
        998    1    1    2    0    0  0.24492912451E+01 -0.87794896840E+01  0.14317980230E+04  0.14318619546E+04  0.10000000000E+02 0. -1.
</event>
<event>
 5    1  0.1141915E-008  0.3856139E+03  0.7957747E-01  0.3427073E+00
         13   -1    0    0    0    0  0.00000000000E+00  0.00000000000E+00  0.14999999963E+04  0.15000000000E+04  0.10566000000E+00 0. -1.
        994   -1    0    0    0    0 -0.00000000000E+00 -0.00000000000E+00  0.11368683772E-12  0.17120000000E+03  0.17120000000E+03 0.  0.
         13    1    1    2    0    0  0.53127958790E+01  0.15407742586E+02  0.90928473876E+02  0.92377610150E+02  0.10566000000E+00 0. -1.
        994    1    1    2    0    0 -0.19632075189E+01 -0.23923113606E+02  0.32189916113E+01  0.17290451543E+03  0.17120000000E+03 0.  0.
        998    1    1    2    0    0 -0.33495883600E+01  0.85153710203E+01  0.14058525308E+04  0.14059178744E+04  0.10000000000E+02 0. -1.
</event>
<event>
 5    1  0.1141915E-008  0.3818806E+03  0.7957747E-01  0.3443011E+00
         13   -1    0    0    0    0  0.00000000000E+00  0.00000000000E+00  0.14999999963E+04  0.15000000000E+04  0.10566000000E+00 0. -1.
        994   -1    0    0    0    0 -0.00000000000E+00 -0.00000000000E+00  0.11368683772E-12  0.17120000000E+03  0.17120000000E+03 0.  0.
         13    1    1    2    0    0  0.88282953352E+01  0.53517494094E+01  0.15489180338E+02  0.18614668728E+02  0.10566000000E+00 0. -1.
        994    1    1    2    0    0 -0.17752997437E+01 -0.75555302666E+01  0.33869778767E+01  0.17140930356E+03  0.17120000000E+03 0.  0.
        998    1    1    2    0    0 -0.70529955915E+01  0.22037808573E+01  0.14811238381E+04  0.14811760277E+04  0.10000000000E+02 0. -1.
</event>
<event>
 5    1  0.1141915E-008  0.3727386E+03  0.7957747E-01  0.3483399E+00
         13   -1    0    0    0    0  0.00000000000E+00  0.00000000000E+00  0.14999999963E+04  0.15000000000E+04  0.10566000000E+00 0.  1.
        994   -1    0    0    0    0 -0.00000000000E+00 -0.00000000000E+00  0.11368683772E-12  0.17120000000E+03  0.17120000000E+03 0.  0.
         13    1    1    2    0    0 -0.12545385022E+02 -0.35502686234E+02  0.82988233311E+02  0.91131144223E+02  0.10566000000E+00 0.  1.
        994    1    1    2    0    0  0.13786486269E+02  0.35640205954E+02  0.12863097144E+02  0.17588402643E+03  0.17120000000E+03 0.  0.
        998    1    1    2    0    0 -0.12411012477E+01 -0.13751972050E+00  0.14041486658E+04  0.14041848294E+04  0.10000000000E+02 0.  0.
</event>
<event>
 5    1  0.1141915E-008  0.3850228E+03  0.7957747E-01  0.3429575E+00
         13   -1    0    0    0    0  0.00000000000E+00  0.00000000000E+00  0.14999999963E+04  0.15000000000E+04  0.10566000000E+00 0.  1.
        994   -1    0    0    0    0 -0.00000000000E+00 -0.00000000000E+00  0.11368683772E-12  0.17120000000E+03  0.17120000000E+03 0.  0.
         13    1    1    2    0    0  0.99027794429E+01 -0.11957884548E+02  0.88238866840E+02  0.89594446417E+02  0.10566000000E+00 0.  1.
        994    1    1    2    0    0  0.27265972554E+01 -0.13231381390E+02  0.22191888163E+01  0.17174652423E+03  0.17120000000E+03 0.  0.
        998    1    1    2    0    0 -0.12629376698E+02  0.25189265938E+02  0.14095419406E+04  0.14098590294E+04  0.10000000000E+02 0.  1.
</event>
<event>
 5    1  0.1141915E-008  0.3745761E+03  0.7957747E-01  0.3475121E+00
         13   -1    0    0    0    0  0.00000000000E+00  0.00000000000E+00  0.14999999963E+04  0.15000000000E+04  0.10566000000E+00 0. -1.
        994   -1    0    0    0    0 -0.00000000000E+00 -0.00000000000E+00  0.11368683772E-12  0.17120000000E+03  0.17120000000E+03 0.  0.
         13    1    1    2    0    0  0.18287022185E+02  0.15676434358E+02  0.15606262727E+02  0.28700738230E+02  0.10566000000E+00 0. -1.
        994    1    1    2    0    0 -0.98225092656E+01 -0.30164868332E+02  0.16963308082E+02  0.17493883157E+03  0.17120000000E+03 0.  0.
        998    1    1    2    0    0 -0.84645129196E+01  0.14488433974E+02  0.14674304255E+04  0.14675604302E+04  0.10000000000E+02 0. -1.
</event>
<event>
 5    1  0.1141915E-008  0.3846171E+03  0.7957747E-01  0.3431298E+00
         13   -1    0    0    0    0  0.00000000000E+00  0.00000000000E+00  0.14999999963E+04  0.15000000000E+04  0.10566000000E+00 0.  1.
        994   -1    0    0    0    0 -0.00000000000E+00 -0.00000000000E+00  0.11368683772E-12  0.17120000000E+03  0.17120000000E+03 0.  0.
         13    1    1    2    0    0 -0.59394475298E+01 -0.83828886584E+01  0.30293472125E+02  0.31988364707E+02  0.10566000000E+00 0.  1.
        994    1    1    2    0    0  0.56170052859E+00 -0.83742376991E+01  0.20523634418E+01  0.17141789743E+03  0.17120000000E+03 0.  0.
        998    1    1    2    0    0  0.53777470012E+01  0.16757126357E+02  0.14676541607E+04  0.14677937379E+04  0.10000000000E+02 0.  1.
</event>
<event>
 5    1  0.1141915E-008  0.3757625E+03  0.7957747E-01  0.3469820E+00
         13   -1    0    0    0    0  0.00000000000E+00  0.00000000000E+00  0.14999999963E+04  0.15000000000E+04  0.10566000000E+00 0. -1.
        994   -1    0    0    0    0 -0.00000000000E+00 -0.00000000000E+00  0.11368683772E-12  0.17120000000E+03  0.17120000000E+03 0.  0.
         13    1    1    2    0    0 -0.16781097878E+02  0.70920736464E+02  0.17665131819E+03  0.19109436278E+03  0.10566000000E+00 0. -1.
        994    1    1    2    0    0  0.44483564555E+02 -0.47122564614E+02  0.29158631484E+02  0.18536177978E+03  0.17120000000E+03 0.  0.
        998    1    1    2    0    0 -0.27702466677E+02 -0.23798171850E+02  0.12941900466E+04  0.12947438574E+04  0.10000000000E+02 0. -1.
</event>
<event>
 5    1  0.1141915E-008  0.3859400E+03  0.7957747E-01  0.3425695E+00
         13   -1    0    0    0    0  0.00000000000E+00  0.00000000000E+00  0.14999999963E+04  0.15000000000E+04  0.10566000000E+00 0.  1.
        994   -1    0    0    0    0 -0.00000000000E+00 -0.00000000000E+00  0.11368683772E-12  0.17120000000E+03  0.17120000000E+03 0.  0.
         13    1    1    2    0    0  0.43362919369E+01 -0.10794338741E+02  0.50552803416E+02  0.51874061667E+02  0.10566000000E+00 0.  1.
        994    1    1    2    0    0 -0.87916083920E+01  0.30179026818E+02  0.44103877598E+01  0.17411765435E+03  0.17120000000E+03 0.  0.
        998    1    1    2    0    0  0.44553164552E+01 -0.19384688077E+02  0.14450368051E+04  0.14452082840E+04  0.10000000000E+02 0.  1.
</event>
<event>
 5    1  0.1141915E-008  0.3786958E+03  0.7957747E-01  0.3456857E+00
         13   -1    0    0    0    0  0.00000000000E+00  0.00000000000E+00  0.14999999963E+04  0.15000000000E+04  0.10566000000E+00 0.  1.
        994   -1    0    0    0    0 -0.00000000000E+00 -0.00000000000E+00  0.11368683772E-12  0.17120000000E+03  0.17120000000E+03 0.  0.
         13    1    1    2    0    0  0.12462726629E+02 -0.37398722222E+02  0.14500028777E+03  0.15026336412E+03  0.10566000000E+00 0.  1.
        994    1    1    2    0    0 -0.16787557474E+02  0.37446988540E+02  0.10467975754E+02  0.17636075967E+03  0.17120000000E+03 0.  0.
        998    1    1    2    0    0  0.43248308454E+01 -0.48266317829E-01  0.13445317328E+04  0.13445758762E+04  0.10000000000E+02 0.  1.
</event>
<event>
 5    1  0.1141915E-008  0.3820913E+03  0.7957747E-01  0.3442103E+00
         13   -1    0    0    0    0  0.00000000000E+00  0.00000000000E+00  0.14999999963E+04  0.15000000000E+04  0.10566000000E+00 0.  1.
        994   -1    0    0    0    0 -0.00000000000E+00 -0.00000000000E+00  0.11368683772E-12  0.17120000000E+03  0.17120000000E+03 0.  0.
         13    1    1    2    0    0 -0.16089423686E+02  0.25808741245E+02  0.16472110221E+03  0.16750526367E+03  0.10566000000E+00 0.  1.
        994    1    1    2    0    0  0.88076878999E+01 -0.60720863835E+00  0.33400108948E+01  0.17146002374E+03  0.17120000000E+03 0.  0.
        998    1    1    2    0    0  0.72817357866E+01 -0.25201532607E+02  0.13319388832E+04  0.13322347126E+04  0.10000000000E+02 0.  1.
</event>
<event>
 5    1  0.1141915E-008  0.3776981E+03  0.7957747E-01  0.3461243E+00
         13   -1    0    0    0    0  0.00000000000E+00  0.00000000000E+00  0.14999999963E+04  0.15000000000E+04  0.10566000000E+00 0. -1.
        994   -1    0    0    0    0 -0.00000000000E+00 -0.00000000000E+00  0.11368683772E-12  0.17120000000E+03  0.17120000000E+03 0.  0.
         13    1    1    2    0    0 -0.10951967674E+02  0.14196277389E+02  0.27093715346E+02  0.32489390006E+02  0.10566000000E+00 0. -1.
        994    1    1    2    0    0  0.14970825320E+02 -0.21363293501E+02  0.75953992162E+01  0.17334256837E+03  0.17120000000E+03 0.  0.
        998    1    1    2    0    0 -0.40188576456E+01  0.71670161118E+01  0.14653108817E+04  0.14653680416E+04  0.10000000000E+02 0. -1.
</event>
<event>
 5    1  0.1141915E-008  0.3860036E+03  0.7957747E-01  0.3425427E+00
         13   -1    0    0    0    0  0.00000000000E+00  0.00000000000E+00  0.14999999963E+04  0.15000000000E+04  0.10566000000E+00 0. -1.
        994   -1    0    0    0    0 -0.00000000000E+00 -0.00000000000E+00  0.11368683772E-12  0.17120000000E+03  0.17120000000E+03 0.  0.
         13    1    1    2    0    0 -0.96827617888E+01 -0.41821436914E+01  0.48268621235E+02  0.49407662986E+02  0.10566000000E+00 0. -1.
        994    1    1    2    0    0  0.83694868569E+01  0.98908329895E+01  0.16831960335E+01  0.17169784517E+03  0.17120000000E+03 0.  0.
        998    1    1    2    0    0  0.13132749319E+01 -0.57086892981E+01  0.14500481790E+04  0.14500944918E+04  0.10000000000E+02 0. -1.
</event>
<event>
 5    1  0.1141915E-008  0.3755859E+03  0.7957747E-01  0.3470606E+00
         13   -1    0    0    0    0  0.00000000000E+00  0.00000000000E+00  0.14999999963E+04  0.15000000000E+04  0.10566000000E+00 0.  1.
        994   -1    0    0    0    0 -0.00000000000E+00 -0.00000000000E+00  0.11368683772E-12  0.17120000000E+03  0.17120000000E+03 0.  0.
         13    1    1    2    0    0 -0.21545045428E+02  0.24323368515E+02  0.82262162463E+02  0.88447101567E+02  0.10566000000E+00 0.  1.
        994    1    1    2    0    0  0.12793632555E+01 -0.18443503060E+02  0.75385421160E+01  0.17236028891E+03  0.17120000000E+03 0.  0.
        998    1    1    2    0    0  0.20265682172E+02 -0.58798654553E+01  0.14101992917E+04  0.14103926095E+04  0.10000000000E+02 0.  1.
</event>
<event>
 5    1  0.1141915E-008  0.3853171E+03  0.7957747E-01  0.3428329E+00
         13   -1    0    0    0    0  0.00000000000E+00  0.00000000000E+00  0.14999999963E+04  0.15000000000E+04  0.10566000000E+00 0.  1.
        994   -1    0    0    0    0 -0.00000000000E+00 -0.00000000000E+00  0.11368683772E-12  0.17120000000E+03  0.17120000000E+03 0.  0.
         13    1    1    2    0    0  0.28509803103E+01  0.12677155597E+02  0.65436368346E+02  0.66714075194E+02  0.10566000000E+00 0.  1.
        994    1    1    2    0    0 -0.55498185421E+01  0.11742513359E+02  0.20271831212E+01  0.17170392126E+03  0.17120000000E+03 0.  0.
        998    1    1    2    0    0  0.26988382318E+01 -0.24419668956E+02  0.14325364448E+04  0.14327820035E+04  0.10000000000E+02 0.  1.
</event>
<event>
 5    1  0.1141915E-008  0.3791271E+03  0.7957747E-01  0.3454968E+00
         13   -1    0    0    0    0  0.00000000000E+00  0.00000000000E+00  0.14999999963E+04  0.15000000000E+04  0.10566000000E+00 0.  1.
        994   -1    0    0    0    0 -0.00000000000E+00 -0.00000000000E+00  0.11368683772E-12  0.17120000000E+03  0.17120000000E+03 0.  0.
         13    1    1    2    0    0  0.13673625046E+02 -0.13185823458E+01  0.18566019766E+02  0.23095777434E+02  0.10566000000E+00 0.  1.
        994    1    1    2    0    0 -0.12333446770E+02 -0.84973867485E+00  0.50869711409E+01  0.17172114966E+03  0.17120000000E+03 0.  0.
        998    1    1    2    0    0 -0.13401782759E+01  0.21683210207E+01  0.14763470054E+04  0.14763830729E+04  0.10000000000E+02 0.  1.
</event>
<event>
 5    1  0.1141915E-008  0.3804835E+03  0.7957747E-01  0.3449056E+00
         13   -1    0    0    0    0  0.00000000000E+00  0.00000000000E+00  0.14999999963E+04  0.15000000000E+04  0.10566000000E+00 0. -1.
        994   -1    0    0    0    0 -0.00000000000E+00 -0.00000000000E+00  0.11368683772E-12  0.17120000000E+03  0.17120000000E+03 0.  0.
         13    1    1    2    0    0  0.65706230878E+01  0.92258718056E+01  0.15525334420E+02  0.19218141721E+02  0.10566000000E+00 0. -1.
        994    1    1    2    0    0  0.49586592421E+01  0.85988105498E+01  0.42181735838E+01  0.17153938566E+03  0.17120000000E+03 0.  0.
        998    1    1    2    0    0 -0.11529282330E+02 -0.17824682355E+02  0.14802564883E+04  0.14804424726E+04  0.10000000000E+02 0. -1.
</event>
<event>
 5    1  0.1423077E-008  0.3861121E+03  0.7957747E-01  0.3424970E+00
         13   -1    0    0    0    0  0.00000000000E+00  0.00000000000E+00  0.14999999963E+04  0.15000000000E+04  0.10566000000E+00 0. -1.
        994   -1    0    0    0    0 -0.00000000000E+00 -0.00000000000E+00  0.11368683772E-12  0.17120000000E+03  0.17120000000E+03 0.  0.
         13    1    1    2    0    0 -0.79899038732E+01 -0.10210764577E+02  0.78382402530E+02  0.79447532797E+02  0.10566000000E+00 0. -1.
        994    1    1    2    0    0  0.64224836610E+01  0.68421571334E+01  0.13676470230E+01  0.17146245615E+03  0.17120000000E+03 0.  0.
        998    1    1    2    0    0  0.15674202122E+01  0.33686074435E+01  0.14202499467E+04  0.14202900111E+04  0.10000000000E+02 0. -1.
</event>
<event>
 5    1  0.1141915E-008  0.3745978E+03  0.7957747E-01  0.3475024E+00
         13   -1    0    0    0    0  0.00000000000E+00  0.00000000000E+00  0.14999999963E+04  0.15000000000E+04  0.10566000000E+00 0. -1.
        994   -1    0    0    0    0 -0.00000000000E+00 -0.00000000000E+00  0.11368683772E-12  0.17120000000E+03  0.17120000000E+03 0.  0.
         13    1    1    2    0    0 -0.16565318518E+02 -0.18473055289E+01  0.16749907934E+02  0.23630338447E+02  0.10566000000E+00 0. -1.
        994    1    1    2    0    0  0.22704218083E+02  0.10322533752E+01  0.86456237683E+01  0.17291828670E+03  0.17120000000E+03 0.  0.
        998    1    1    2    0    0 -0.61388995656E+01  0.81505215372E+00  0.14746044646E+04  0.14746513748E+04  0.10000000000E+02 0. -1.
</event>
<event>
 5    1  0.1141915E-008  0.3860500E+03  0.7957747E-01  0.3425231E+00
         13   -1    0    0    0    0  0.00000000000E+00  0.00000000000E+00  0.14999999963E+04  0.15000000000E+04  0.10566000000E+00 0. -1.
        994   -1    0    0    0    0 -0.00000000000E+00 -0.00000000000E+00  0.11368683772E-12  0.17120000000E+03  0.17120000000E+03 0.  0.
         13    1    1    2    0    0  0.66997513037E+01  0.92055186929E+01  0.59489865798E+02  0.60569658564E+02  0.10566000000E+00 0. -1.
        994    1    1    2    0    0 -0.12178917639E+01 -0.75740842553E+01  0.13026339390E+01  0.17137673958E+03  0.17120000000E+03 0.  0.
        998    1    1    2    0    0 -0.54818595398E+01 -0.16314344376E+01  0.14392074965E+04  0.14392536019E+04  0.10000000000E+02 0. -1.
</event>
<event>
 5    1  0.1141915E-008  0.3802476E+03  0.7957747E-01  0.3450081E+00
         13   -1    0    0    0    0  0.00000000000E+00  0.00000000000E+00  0.14999999963E+04  0.15000000000E+04  0.10566000000E+00 0.  1.
        994   -1    0    0    0    0 -0.00000000000E+00 -0.00000000000E+00  0.11368683772E-12  0.17120000000E+03  0.17120000000E+03 0.  0.
         13    1    1    2    0    0 -0.90176914881E+02 -0.10572922166E+03  0.57950094815E+03  0.59592944579E+03  0.10566000000E+00 0.  1.
        994    1    1    2    0    0  0.11751317261E+03  0.16054061013E+03  0.15007005895E+03  0.30234598696E+03  0.17120000000E+03 0.  0.
        998    1    1    2    0    0 -0.27336257727E+02 -0.54811388464E+02  0.77042898918E+03  0.77292456725E+03  0.10000000000E+02 0.  1.
</event>
<event>
 5    1  0.1141915E-008  0.3838700E+03  0.7957747E-01  0.3434479E+00
         13   -1    0    0    0    0  0.00000000000E+00  0.00000000000E+00  0.14999999963E+04  0.15000000000E+04  0.10566000000E+00 0. -1.
        994   -1    0    0    0    0 -0.00000000000E+00 -0.00000000000E+00  0.11368683772E-12  0.17120000000E+03  0.17120000000E+03 0.  0.
         13    1    1    2    0    0  0.13344710096E+02 -0.76415785954E+01  0.58812811556E+02  0.60790073023E+02  0.10566000000E+00 0. -1.
        994    1    1    2    0    0  0.15320843429E+02  0.11615727832E+02  0.34132706654E+01  0.17231002232E+03  0.17120000000E+03 0.  0.
        998    1    1    2    0    0 -0.28665553526E+02 -0.39741492367E+01  0.14377739141E+04  0.14380999047E+04  0.10000000000E+02 0. -1.
</event>
<event>
 5    1  0.1141915E-008  0.3832845E+03  0.7957747E-01  0.3436981E+00
         13   -1    0    0    0    0  0.00000000000E+00  0.00000000000E+00  0.14999999963E+04  0.15000000000E+04  0.10566000000E+00 0. -1.
        994   -1    0    0    0    0 -0.00000000000E+00 -0.00000000000E+00  0.11368683772E-12  0.17120000000E+03  0.17120000000E+03 0.  0.
         13    1    1    2    0    0  0.11856718512E+02 -0.78440829187E+01  0.39092188466E+02  0.41597136606E+02  0.10566000000E+00 0. -1.
        994    1    1    2    0    0 -0.11999158199E+02  0.84754004989E+01  0.31982873200E+01  0.17185889925E+03  0.17120000000E+03 0.  0.
        998    1    1    2    0    0  0.14243968647E+00 -0.63131758019E+00  0.14577095205E+04  0.14577439641E+04  0.10000000000E+02 0. -1.
</event>
<event>
 5    1  0.1141915E-008  0.3850627E+03  0.7957747E-01  0.3429406E+00
         13   -1    0    0    0    0  0.00000000000E+00  0.00000000000E+00  0.14999999963E+04  0.15000000000E+04  0.10566000000E+00 0. -1.
        994   -1    0    0    0    0 -0.00000000000E+00 -0.00000000000E+00  0.11368683772E-12  0.17120000000E+03  0.17120000000E+03 0.  0.
         13    1    1    2    0    0 -0.87749293911E+01  0.97365199479E+01  0.58984785125E+02  0.60423631526E+02  0.10566000000E+00 0. -1.
        994    1    1    2    0    0  0.30344306174E+01  0.11139836551E+02  0.20374366703E+01  0.17160097574E+03  0.17120000000E+03 0.  0.
        998    1    1    2    0    0  0.57404987737E+01 -0.20876356499E+02  0.14389777745E+04  0.14391753927E+04  0.10000000000E+02 0. -1.
</event>
<event>
 5    1  0.1141915E-008  0.3843910E+03  0.7957747E-01  0.3432259E+00
         13   -1    0    0    0    0  0.00000000000E+00  0.00000000000E+00  0.14999999963E+04  0.15000000000E+04  0.10566000000E+00 0. -1.
        994   -1    0    0    0    0 -0.00000000000E+00 -0.00000000000E+00  0.11368683772E-12  0.17120000000E+03  0.17120000000E+03 0.  0.
         13    1    1    2    0    0 -0.98835017268E+00 -0.12850908492E+02  0.42537836930E+02  0.44447738074E+02  0.10566000000E+00 0. -1.
        994    1    1    2    0    0  0.55284056520E+01  0.86403755851E+01  0.22796037944E+01  0.17152217336E+03  0.17120000000E+03 0.  0.
        998    1    1    2    0    0 -0.45400554793E+01  0.42105329074E+01  0.14551825556E+04  0.14552300886E+04  0.10000000000E+02 0. -1.
</event>
<event>
 5    1  0.1141915E-008  0.3670825E+03  0.7957747E-01  0.3509408E+00
         13   -1    0    0    0    0  0.00000000000E+00  0.00000000000E+00  0.14999999963E+04  0.15000000000E+04  0.10566000000E+00 0.  1.
        994   -1    0    0    0    0 -0.00000000000E+00 -0.00000000000E+00  0.11368683772E-12  0.17120000000E+03  0.17120000000E+03 0.  0.
         13    1    1    2    0    0  0.13416389543E+03  0.23493887159E+03  0.10417288640E+04  0.10762877224E+04  0.10566000000E+00 0.  1.
        994    1    1    2    0    0 -0.14276447537E+03 -0.21437478738E+03  0.28704111033E+03  0.42194820051E+03  0.17120000000E+03 0.  0.
        998    1    1    2    0    0  0.86005799369E+01 -0.20564084211E+02  0.17123002198E+03  0.17296407708E+03  0.10000000000E+02 0.  1.
</event>
<event>
 5    1  0.1141915E-008  0.3694341E+03  0.7957747E-01  0.3498496E+00
         13   -1    0    0    0    0  0.00000000000E+00  0.00000000000E+00  0.14999999963E+04  0.15000000000E+04  0.10566000000E+00 0. -1.
        994   -1    0    0    0    0 -0.00000000000E+00 -0.00000000000E+00  0.11368683772E-12  0.17120000000E+03  0.17120000000E+03 0.  0.
         13    1    1    2    0    0 -0.11205554904E+03  0.24884002136E+02  0.33563060373E+03  0.35471618649E+03  0.10566000000E+00 0. -1.
        994    1    1    2    0    0  0.15369940757E+03 -0.46761132266E+02  0.10697860855E+03  0.25799994974E+03  0.17120000000E+03 0.  0.
        998    1    1    2    0    0 -0.41643858535E+02  0.21877130130E+02  0.10573907840E+04  0.10584838638E+04  0.10000000000E+02 0. -1.
</event>
<event>
 5    1  0.1141915E-008  0.3813168E+03  0.7957747E-01  0.3445445E+00
         13   -1    0    0    0    0  0.00000000000E+00  0.00000000000E+00  0.14999999963E+04  0.15000000000E+04  0.10566000000E+00 0. -1.
        994   -1    0    0    0    0 -0.00000000000E+00 -0.00000000000E+00  0.11368683772E-12  0.17120000000E+03  0.17120000000E+03 0.  0.
         13    1    1    2    0    0 -0.20403937456E+02 -0.11871583009E+02  0.85855734097E+02  0.89041975429E+02  0.10566000000E+00 0. -1.
        994    1    1    2    0    0  0.15318660496E+02 -0.26610350341E+02  0.66142275438E+01  0.17405734719E+03  0.17120000000E+03 0.  0.
        998    1    1    2    0    0  0.50852769601E+01  0.38481933350E+02  0.14075300346E+04  0.14081006774E+04  0.10000000000E+02 0. -1.
</event>
<event>
 5    1  0.1141915E-008  0.3859864E+03  0.7957747E-01  0.3425500E+00
         13   -1    0    0    0    0  0.00000000000E+00  0.00000000000E+00  0.14999999963E+04  0.15000000000E+04  0.10566000000E+00 0. -1.
        994   -1    0    0    0    0 -0.00000000000E+00 -0.00000000000E+00  0.11368683772E-12  0.17120000000E+03  0.17120000000E+03 0.  0.
         13    1    1    2    0    0  0.47843093978E+01 -0.12890402736E+02  0.82139599065E+02  0.83282513156E+02  0.10566000000E+00 0. -1.
        994    1    1    2    0    0 -0.56198148396E+01  0.99768374047E+01  0.15711654751E+01  0.17158970880E+03  0.17120000000E+03 0.  0.
        998    1    1    2    0    0  0.83550544175E+00  0.29135653312E+01  0.14162892317E+04  0.14163277780E+04  0.10000000000E+02 0.  0.
</event>
<event>
 5    1  0.1141915E-008  0.3837612E+03  0.7957747E-01  0.3434943E+00
         13   -1    0    0    0    0  0.00000000000E+00  0.00000000000E+00  0.14999999963E+04  0.15000000000E+04  0.10566000000E+00 0.  1.
        994   -1    0    0    0    0 -0.00000000000E+00 -0.00000000000E+00  0.11368683772E-12  0.17120000000E+03  0.17120000000E+03 0.  0.
         13    1    1    2    0    0  0.34561465126E+01  0.12549683899E+02  0.36126169256E+02  0.38399879998E+02  0.10566000000E+00 0.  1.
        994    1    1    2    0    0 -0.57648049497E+01 -0.14144604774E+02  0.30171313010E+01  0.17190650337E+03  0.17120000000E+03 0.  0.
        998    1    1    2    0    0  0.23086584371E+01  0.15949208752E+01  0.14608566957E+04  0.14608936166E+04  0.10000000000E+02 0.  1.
</event>
<event>
 5    1  0.1141915E-008  0.2254239E+03  0.7957747E-01  0.4632572E+00
         13   -1    0    0    0    0  0.00000000000E+00  0.00000000000E+00  0.14999999963E+04  0.15000000000E+04  0.10566000000E+00 0. -1.
        994   -1    0    0    0    0 -0.00000000000E+00 -0.00000000000E+00  0.11368683772E-12  0.17120000000E+03  0.17120000000E+03 0.  0.
         13    1    1    2    0    0 -0.71113372938E+02 -0.83454070921E+01 -0.11481598400E+01  0.71610663069E+02  0.10566000000E+00 0. -1.
        994    1    1    2    0    0  0.57643347119E+02  0.18327211087E+02  0.11853371117E+03  0.21683708820E+03  0.17120000000E+03 0.  0.
        998    1    1    2    0    0  0.13470025819E+02 -0.99818039949E+01  0.13826144449E+04  0.13827522487E+04  0.10000000000E+02 0. -1.
</event>
<event>
 5    1  0.1141915E-008  0.3747555E+03  0.7957747E-01  0.3474317E+00
         13   -1    0    0    0    0  0.00000000000E+00  0.00000000000E+00  0.14999999963E+04  0.15000000000E+04  0.10566000000E+00 0.  1.
        994   -1    0    0    0    0 -0.00000000000E+00 -0.00000000000E+00  0.11368683772E-12  0.17120000000E+03  0.17120000000E+03 0.  0.
         13    1    1    2    0    0 -0.39145842372E+01 -0.25186383362E+02  0.42900983516E+02  0.49901737718E+02  0.10566000000E+00 0.  1.
        994    1    1    2    0    0  0.15252335535E+02  0.31292514709E+02  0.10938190990E+02  0.17504553476E+03  0.17120000000E+03 0.  0.
        998    1    1    2    0    0 -0.11337751298E+02 -0.61061313474E+01  0.14461608218E+04  0.14462527275E+04  0.10000000000E+02 0.  1.
</event>
<event>
 5    1  0.1141915E-008  0.3816921E+03  0.7957747E-01  0.3443824E+00
         13   -1    0    0    0    0  0.00000000000E+00  0.00000000000E+00  0.14999999963E+04  0.15000000000E+04  0.10566000000E+00 0.  1.
        994   -1    0    0    0    0 -0.00000000000E+00 -0.00000000000E+00  0.11368683772E-12  0.17120000000E+03  0.17120000000E+03 0.  0.
         13    1    1    2    0    0 -0.22957267257E+02  0.26711557338E+02  0.28445674738E+02  0.45273734004E+02  0.10566000000E+00 0.  1.
        994    1    1    2    0    0  0.23769904373E+02 -0.26289859759E+02  0.21853596517E+02  0.17619076242E+03  0.17120000000E+03 0.  0.
        998    1    1    2    0    0 -0.81263711678E+00 -0.42169757902E+00  0.14497007250E+04  0.14497355036E+04  0.10000000000E+02 0.  1.
</event>
<event>
 5    1  0.1141915E-008  0.3827877E+03  0.7957747E-01  0.3439109E+00
         13   -1    0    0    0    0  0.00000000000E+00  0.00000000000E+00  0.14999999963E+04  0.15000000000E+04  0.10566000000E+00 0. -1.
        994   -1    0    0    0    0 -0.00000000000E+00 -0.00000000000E+00  0.11368683772E-12  0.17120000000E+03  0.17120000000E+03 0.  0.
         13    1    1    2    0    0 -0.99141865684E+01 -0.61506759365E+01  0.24173859973E+02  0.26842290883E+02  0.10566000000E+00 0. -1.
        994    1    1    2    0    0  0.69886751448E+01 -0.21909314776E+01  0.29102012212E+01  0.17138130304E+03  0.17120000000E+03 0.  0.
        998    1    1    2    0    0  0.29255114236E+01  0.83416074141E+01  0.14729159351E+04  0.14729764061E+04  0.10000000000E+02 0. -1.
</event>
<event>
 5    1  0.1141915E-008  0.3842478E+03  0.7957747E-01  0.3432869E+00
         13   -1    0    0    0    0  0.00000000000E+00  0.00000000000E+00  0.14999999963E+04  0.15000000000E+04  0.10566000000E+00 0.  1.
        994   -1    0    0    0    0 -0.00000000000E+00 -0.00000000000E+00  0.11368683772E-12  0.17120000000E+03  0.17120000000E+03 0.  0.
         13    1    1    2    0    0  0.13034615762E+02 -0.24487972180E+01  0.43238239042E+02  0.45226698922E+02  0.10566000000E+00 0.  1.
        994    1    1    2    0    0 -0.97610605197E+01  0.24477478053E+01  0.23379627460E+01  0.17151144522E+03  0.17120000000E+03 0.  0.
        998    1    1    2    0    0 -0.32735552421E+01  0.10494127044E-02  0.14544237945E+04  0.14544618559E+04  0.10000000000E+02 0.  1.
</event>
<event>
 5    1  0.1141915E-008  0.3701632E+03  0.7957747E-01  0.3495141E+00
         13   -1    0    0    0    0  0.00000000000E+00  0.00000000000E+00  0.14999999963E+04  0.15000000000E+04  0.10566000000E+00 0. -1.
        994   -1    0    0    0    0 -0.00000000000E+00 -0.00000000000E+00  0.11368683772E-12  0.17120000000E+03  0.17120000000E+03 0.  0.
         13    1    1    2    0    0  0.34509389764E+02  0.81557077765E+01  0.52627099444E+02  0.63458934053E+02  0.10566000000E+00 0. -1.
        994    1    1    2    0    0 -0.23054694820E+02 -0.12777082177E+02  0.13459254776E+02  0.17373935743E+03  0.17120000000E+03 0.  0.
        998    1    1    2    0    0 -0.11454694944E+02  0.46213744003E+01  0.14339136421E+04  0.14340017085E+04  0.10000000000E+02 0. -1.
</event>
<event>
 5    1  0.1141915E-008  0.3816546E+03  0.7957747E-01  0.3443985E+00
         13   -1    0    0    0    0  0.00000000000E+00  0.00000000000E+00  0.14999999963E+04  0.15000000000E+04  0.10566000000E+00 0. -1.
        994   -1    0    0    0    0 -0.00000000000E+00 -0.00000000000E+00  0.11368683772E-12  0.17120000000E+03  0.17120000000E+03 0.  0.
         13    1    1    2    0    0  0.42331277394E+01  0.24046918822E+02  0.88726642230E+02  0.92025006822E+02  0.10566000000E+00 0. -1.
        994    1    1    2    0    0 -0.51256588032E+01 -0.15553692034E+02  0.41923818342E+01  0.17203257186E+03  0.17120000000E+03 0.  0.
        998    1    1    2    0    0  0.89253106378E+00 -0.84932267880E+01  0.14070809722E+04  0.14071424213E+04  0.10000000000E+02 0. -1.
</event>
<event>
 5    1  0.1141915E-008  0.3809882E+03  0.7957747E-01  0.3446867E+00
         13   -1    0    0    0    0  0.00000000000E+00  0.00000000000E+00  0.14999999963E+04  0.15000000000E+04  0.10566000000E+00 0.  1.
        994   -1    0    0    0    0 -0.00000000000E+00 -0.00000000000E+00  0.11368683772E-12  0.17120000000E+03  0.17120000000E+03 0.  0.
         13    1    1    2    0    0  0.10850895745E+02  0.21946460320E+01  0.15199509615E+02  0.18804113014E+02  0.10566000000E+00 0.  1.
        994    1    1    2    0    0 -0.10575135713E+02 -0.35129081290E+01  0.40490265731E+01  0.17161004818E+03  0.17120000000E+03 0.  0.
        998    1    1    2    0    0 -0.27576003251E+00  0.13182620970E+01  0.14807514601E+04  0.14807858388E+04  0.10000000000E+02 0.  1.
</event>
<event>
 5    1  0.1141915E-008  0.3773148E+03  0.7957747E-01  0.3462934E+00
         13   -1    0    0    0    0  0.00000000000E+00  0.00000000000E+00  0.14999999963E+04  0.15000000000E+04  0.10566000000E+00 0. -1.
        994   -1    0    0    0    0 -0.00000000000E+00 -0.00000000000E+00  0.11368683772E-12  0.17120000000E+03  0.17120000000E+03 0.  0.
         13    1    1    2    0    0  0.57790418371E+01 -0.12349716097E+02 -0.25087574670E+00  0.13637701965E+02  0.10566000000E+00 0. -1.
        994    1    1    2    0    0 -0.63678126678E+01 -0.35617425827E+02  0.19572064834E+02  0.17607287066E+03  0.17120000000E+03 0.  0.
        998    1    1    2    0    0  0.58877083068E+00  0.47967141923E+02  0.14806788072E+04  0.14814894274E+04  0.10000000000E+02 0. -1.
</event>
<event>
 5    1  0.1141915E-008  0.3849695E+03  0.7957747E-01  0.3429801E+00
         13   -1    0    0    0    0  0.00000000000E+00  0.00000000000E+00  0.14999999963E+04  0.15000000000E+04  0.10566000000E+00 0. -1.
        994   -1    0    0    0    0 -0.00000000000E+00 -0.00000000000E+00  0.11368683772E-12  0.17120000000E+03  0.17120000000E+03 0.  0.
         13    1    1    2    0    0  0.78489446737E+01  0.84218518674E+01  0.37409517546E+02  0.39140984766E+02  0.10566000000E+00 0. -1.
        994    1    1    2    0    0 -0.12922425758E+02 -0.18539685881E+02  0.33267784509E+01  0.17271715750E+03  0.17120000000E+03 0.  0.
        998    1    1    2    0    0  0.50734810839E+01  0.10117834013E+02  0.14592637003E+04  0.14593418577E+04  0.10000000000E+02 0. -1.
</event>
<event>
 5    1  0.1141915E-008  0.3832486E+03  0.7957747E-01  0.3437134E+00
         13   -1    0    0    0    0  0.00000000000E+00  0.00000000000E+00  0.14999999963E+04  0.15000000000E+04  0.10566000000E+00 0. -1.
        994   -1    0    0    0    0 -0.00000000000E+00 -0.00000000000E+00  0.11368683772E-12  0.17120000000E+03  0.17120000000E+03 0.  0.
         13    1    1    2    0    0 -0.22036196711E+01 -0.12768865587E+02  0.32566921366E+02  0.35050184013E+02  0.10566000000E+00 0. -1.
        994    1    1    2    0    0 -0.51885904486E+01  0.11354779386E+02  0.30178408304E+01  0.17168109928E+03  0.17120000000E+03 0.  0.
        998    1    1    2    0    0  0.73922101197E+01  0.14140862009E+01  0.14644152341E+04  0.14644687167E+04  0.10000000000E+02 0. -1.
</event>
<event>
 5    1  0.1141915E-008  0.3858595E+03  0.7957747E-01  0.3426035E+00
         13   -1    0    0    0    0  0.00000000000E+00  0.00000000000E+00  0.14999999963E+04  0.15000000000E+04  0.10566000000E+00 0. -1.
        994   -1    0    0    0    0 -0.00000000000E+00 -0.00000000000E+00  0.11368683772E-12  0.17120000000E+03  0.17120000000E+03 0.  0.
         13    1    1    2    0    0 -0.35656313194E+01 -0.11112236968E+02  0.57119757328E+02  0.58299857448E+02  0.10566000000E+00 0. -1.
        994    1    1    2    0    0  0.14632547272E+01  0.76889858095E+01  0.14049642126E+01  0.17138458373E+03  0.17120000000E+03 0.  0.
        998    1    1    2    0    0  0.21023765922E+01  0.34232511583E+01  0.14414752747E+04  0.14415155588E+04  0.10000000000E+02 0. -1.
</event>
<event>
 5    1  0.1141915E-008  0.3821961E+03  0.7957747E-01  0.3441652E+00
         13   -1    0    0    0    0  0.00000000000E+00  0.00000000000E+00  0.14999999963E+04  0.15000000000E+04  0.10566000000E+00 0. -1.
        994   -1    0    0    0    0 -0.00000000000E+00 -0.00000000000E+00  0.11368683772E-12  0.17120000000E+03  0.17120000000E+03 0.  0.
         13    1    1    2    0    0 -0.11561015862E+02 -0.40712099826E+01  0.23452792451E+02  0.26462737505E+02  0.10566000000E+00 0. -1.
        994    1    1    2    0    0  0.88263636738E+01  0.85534892202E+01  0.35301747677E+01  0.17167693208E+03  0.17120000000E+03 0.  0.
        998    1    1    2    0    0  0.27346521882E+01 -0.44822792376E+01  0.14730170291E+04  0.14730603304E+04  0.10000000000E+02 0. -1.
</event>
<event>
 5    1  0.1141915E-008  0.3843342E+03  0.7957747E-01  0.3432501E+00
         13   -1    0    0    0    0  0.00000000000E+00  0.00000000000E+00  0.14999999963E+04  0.15000000000E+04  0.10566000000E+00 0.  1.
        994   -1    0    0    0    0 -0.00000000000E+00 -0.00000000000E+00  0.11368683772E-12  0.17120000000E+03  0.17120000000E+03 0.  0.
         13    1    1    2    0    0 -0.16093145717E+02 -0.21701727557E+02  0.16233977939E+03  0.16457268745E+03  0.10566000000E+00 0.  1.
        994    1    1    2    0    0  0.20655043537E+02  0.23394053537E+02  0.51774400080E+01  0.17409812879E+03  0.17120000000E+03 0.  0.
        998    1    1    2    0    0 -0.45618978198E+01 -0.16923259801E+01  0.13324827769E+04  0.13325291838E+04  0.10000000000E+02 0.  1.
</event>
<event>
 5    1  0.1141915E-008  0.3839048E+03  0.7957747E-01  0.3434330E+00
         13   -1    0    0    0    0  0.00000000000E+00  0.00000000000E+00  0.14999999963E+04  0.15000000000E+04  0.10566000000E+00 0.  1.
        994   -1    0    0    0    0 -0.00000000000E+00 -0.00000000000E+00  0.11368683772E-12  0.17120000000E+03  0.17120000000E+03 0.  0.
         13    1    1    2    0    0 -0.15078722603E+02  0.13347927372E+01  0.50317141469E+02  0.52544984886E+02  0.10566000000E+00 0.  1.
        994    1    1    2    0    0  0.18771674287E+02  0.12395132709E+02  0.38466908418E+01  0.17271436565E+03  0.17120000000E+03 0.  0.
        998    1    1    2    0    0 -0.36929516836E+01 -0.13729925447E+02  0.14458361640E+04  0.14459406495E+04  0.10000000000E+02 0.  1.
</event>
<event>
 5    1  0.1141915E-008  0.3804867E+03  0.7957747E-01  0.3449042E+00
         13   -1    0    0    0    0  0.00000000000E+00  0.00000000000E+00  0.14999999963E+04  0.15000000000E+04  0.10566000000E+00 0. -1.
        994   -1    0    0    0    0 -0.00000000000E+00 -0.00000000000E+00  0.11368683772E-12  0.17120000000E+03  0.17120000000E+03 0.  0.
         13    1    1    2    0    0  0.16211998708E+02 -0.16099475550E+02  0.63743620655E+02  0.67714712976E+02  0.10566000000E+00 0. -1.
        994    1    1    2    0    0 -0.12656679239E+02  0.18223142280E+02  0.55323859606E+01  0.17272035705E+03  0.17120000000E+03 0.  0.
        998    1    1    2    0    0 -0.35553194697E+01 -0.21236667299E+01  0.14307239897E+04  0.14307649300E+04  0.10000000000E+02 0. -1.
</event>
<event>
 5    1  0.1141915E-008  0.3850362E+03  0.7957747E-01  0.3429519E+00
         13   -1    0    0    0    0  0.00000000000E+00  0.00000000000E+00  0.14999999963E+04  0.15000000000E+04  0.10566000000E+00 0. -1.
        994   -1    0    0    0    0 -0.00000000000E+00 -0.00000000000E+00  0.11368683772E-12  0.17120000000E+03  0.17120000000E+03 0.  0.
         13    1    1    2    0    0 -0.12529908340E+02  0.11146129065E+02  0.84335518943E+02  0.85986776400E+02  0.10566000000E+00 0. -1.
        994    1    1    2    0    0  0.14893093238E+02 -0.68486065044E+01  0.24962463780E+01  0.17200110140E+03  0.17120000000E+03 0.  0.
        998    1    1    2    0    0 -0.23631848976E+01 -0.42975225609E+01  0.14131682310E+04  0.14132121222E+04  0.10000000000E+02 0. -1.
</event>
<event>
 5    1  0.1141915E-008  0.3849237E+03  0.7957747E-01  0.3429996E+00
         13   -1    0    0    0    0  0.00000000000E+00  0.00000000000E+00  0.14999999963E+04  0.15000000000E+04  0.10566000000E+00 0.  1.
        994   -1    0    0    0    0 -0.00000000000E+00 -0.00000000000E+00  0.11368683772E-12  0.17120000000E+03  0.17120000000E+03 0.  0.
         13    1    1    2    0    0  0.20859319533E+02  0.78843361934E+01  0.12788283232E+03  0.12981257233E+03  0.10566000000E+00 0.  1.
        994    1    1    2    0    0 -0.28574049173E+02 -0.13992268856E+02  0.50049025383E+01  0.17420318287E+03  0.17120000000E+03 0.  0.
        998    1    1    2    0    0  0.77147296398E+01  0.61079326621E+01  0.13671122614E+04  0.13671842448E+04  0.10000000000E+02 0.  1.
</event>
<event>
 5    1  0.1141915E-008  0.3816845E+03  0.7957747E-01  0.3443856E+00
         13   -1    0    0    0    0  0.00000000000E+00  0.00000000000E+00  0.14999999963E+04  0.15000000000E+04  0.10566000000E+00 0. -1.
        994   -1    0    0    0    0 -0.00000000000E+00 -0.00000000000E+00  0.11368683772E-12  0.17120000000E+03  0.17120000000E+03 0.  0.
         13    1    1    2    0    0 -0.32794773821E+01  0.32160795259E+02  0.15890560648E+03  0.16216064460E+03  0.10566000000E+00 0. -1.
        994    1    1    2    0    0  0.29854226373E+02 -0.16420034072E+02  0.71541166553E+01  0.17470407476E+03  0.17120000000E+03 0.  0.
        998    1    1    2    0    0 -0.26574748991E+02 -0.15740761188E+02  0.13339402731E+04  0.13343352806E+04  0.10000000000E+02 0. -1.
</event>
<event>
 5    1  0.1141915E-008  0.3833752E+03  0.7957747E-01  0.3436593E+00
         13   -1    0    0    0    0  0.00000000000E+00  0.00000000000E+00  0.14999999963E+04  0.15000000000E+04  0.10566000000E+00 0. -1.
        994   -1    0    0    0    0 -0.00000000000E+00 -0.00000000000E+00  0.11368683772E-12  0.17120000000E+03  0.17120000000E+03 0.  0.
         13    1    1    2    0    0 -0.25390325857E+02 -0.20190207186E+02  0.19240733792E+03  0.19512280227E+03  0.10566000000E+00 0. -1.
        994    1    1    2    0    0  0.22052342908E+02  0.22626656821E+02  0.57463378136E+01  0.17418591167E+03  0.17120000000E+03 0.  0.
        998    1    1    2    0    0  0.33379829484E+01 -0.24364496351E+01  0.13018463205E+04  0.13018912861E+04  0.10000000000E+02 0. -1.
</event>
<event>
 5    1  0.1141915E-008  0.3740050E+03  0.7957747E-01  0.3477685E+00
         13   -1    0    0    0    0  0.00000000000E+00  0.00000000000E+00  0.14999999963E+04  0.15000000000E+04  0.10566000000E+00 0.  1.
        994   -1    0    0    0    0 -0.00000000000E+00 -0.00000000000E+00  0.11368683772E-12  0.17120000000E+03  0.17120000000E+03 0.  0.
         13    1    1    2    0    0 -0.27912633086E+02 -0.29841308318E+02  0.10775473895E+03  0.11524197889E+03  0.10566000000E+00 0.  1.
        994    1    1    2    0    0  0.26628773870E+02  0.26204293461E+02  0.11965917295E+02  0.17563706833E+03  0.17120000000E+03 0.  0.
        998    1    1    2    0    0  0.12838592159E+01  0.36370148569E+01  0.13802793400E+04  0.13803209528E+04  0.10000000000E+02 0.  1.
</event>
<event>
 5    1  0.1141915E-008  0.3790970E+03  0.7957747E-01  0.3455100E+00
         13   -1    0    0    0    0  0.00000000000E+00  0.00000000000E+00  0.14999999963E+04  0.15000000000E+04  0.10566000000E+00 0.  1.
        994   -1    0    0    0    0 -0.00000000000E+00 -0.00000000000E+00  0.11368683772E-12  0.17120000000E+03  0.17120000000E+03 0.  0.
         13    1    1    2    0    0 -0.46579968855E+02 -0.55932850975E+01  0.24194071157E+03  0.24644735222E+03  0.10566000000E+00 0.  1.
        994    1    1    2    0    0  0.26060712773E+02 -0.70824245789E+01  0.70388851627E+01  0.17345981492E+03  0.17120000000E+03 0.  0.
        998    1    1    2    0    0  0.20519256082E+02  0.12675709676E+02  0.12510203995E+04  0.12512928329E+04  0.10000000000E+02 0.  1.
</event>
<event>
 5    1  0.1141915E-008  0.3787620E+03  0.7957747E-01  0.3456567E+00
         13   -1    0    0    0    0  0.00000000000E+00  0.00000000000E+00  0.14999999963E+04  0.15000000000E+04  0.10566000000E+00 0.  1.
        994   -1    0    0    0    0 -0.00000000000E+00 -0.00000000000E+00  0.11368683772E-12  0.17120000000E+03  0.17120000000E+03 0.  0.
         13    1    1    2    0    0  0.46565653117E+01  0.28287989366E+02  0.82541573726E+02  0.87378581472E+02  0.10566000000E+00 0.  1.
        994    1    1    2    0    0 -0.70894241480E+01 -0.22579261677E+02  0.66416776015E+01  0.17295558642E+03  0.17120000000E+03 0.  0.
        998    1    1    2    0    0  0.24328588363E+01 -0.57087276894E+01  0.14108167450E+04  0.14108658321E+04  0.10000000000E+02 0.  1.
</event>
<event>
 5    1  0.1141915E-008  0.3728043E+03  0.7957747E-01  0.3483101E+00
         13   -1    0    0    0    0  0.00000000000E+00  0.00000000000E+00  0.14999999963E+04  0.15000000000E+04  0.10566000000E+00 0. -1.
        994   -1    0    0    0    0 -0.00000000000E+00 -0.00000000000E+00  0.11368683772E-12  0.17120000000E+03  0.17120000000E+03 0.  0.
         13    1    1    2    0    0  0.58568981231E+02 -0.21352292531E+02  0.23929964114E+03  0.24728642375E+03  0.10566000000E+00 0. -1.
        994    1    1    2    0    0 -0.33878769291E+02  0.26342953787E+02  0.14144113097E+02  0.17706275204E+03  0.17120000000E+03 0.  0.
        998    1    1    2    0    0 -0.24690211940E+02 -0.49906612567E+01  0.12465562420E+04  0.12468508242E+04  0.10000000000E+02 0. -1.
</event>
<event>
 5    1  0.1141915E-008  0.3811602E+03  0.7957747E-01  0.3446122E+00
         13   -1    0    0    0    0  0.00000000000E+00  0.00000000000E+00  0.14999999963E+04  0.15000000000E+04  0.10566000000E+00 0. -1.
        994   -1    0    0    0    0 -0.00000000000E+00 -0.00000000000E+00  0.11368683772E-12  0.17120000000E+03  0.17120000000E+03 0.  0.
         13    1    1    2    0    0 -0.36244714616E+02 -0.33560789120E+02  0.27312933316E+03  0.27756017312E+03  0.10566000000E+00 0. -1.
        994    1    1    2    0    0  0.38898797740E+02  0.36058064866E+02  0.12974693854E+02  0.17969719861E+03  0.17120000000E+03 0.  0.
        998    1    1    2    0    0 -0.26540831234E+01 -0.24972757467E+01  0.12138959693E+04  0.12139426283E+04  0.10000000000E+02 0. -1.
</event>
<event>
 5    1  0.1141915E-008  0.3848330E+03  0.7957747E-01  0.3430381E+00
         13   -1    0    0    0    0  0.00000000000E+00  0.00000000000E+00  0.14999999963E+04  0.15000000000E+04  0.10566000000E+00 0.  1.
        994   -1    0    0    0    0 -0.00000000000E+00 -0.00000000000E+00  0.11368683772E-12  0.17120000000E+03  0.17120000000E+03 0.  0.
         13    1    1    2    0    0  0.50696857135E+01  0.10299606715E+02  0.39255274695E+02  0.40899527713E+02  0.10566000000E+00 0.  1.
        994    1    1    2    0    0 -0.16147048371E+02  0.49961245327E+01  0.26536510866E+01  0.17205281252E+03  0.17120000000E+03 0.  0.
        998    1    1    2    0    0  0.11077362657E+02 -0.15295731247E+02  0.14580910705E+04  0.14582476598E+04  0.10000000000E+02 0.  1.
</event>
<event>
 5    1  0.1141915E-008  0.3711953E+03  0.7957747E-01  0.3490415E+00
         13   -1    0    0    0    0  0.00000000000E+00  0.00000000000E+00  0.14999999963E+04  0.15000000000E+04  0.10566000000E+00 0.  1.
        994   -1    0    0    0    0 -0.00000000000E+00 -0.00000000000E+00  0.11368683772E-12  0.17120000000E+03  0.17120000000E+03 0.  0.
         13    1    1    2    0    0  0.71813127379E+02  0.94675712213E+02  0.46922680342E+03  0.48403968841E+03  0.10566000000E+00 0.  1.
        994    1    1    2    0    0 -0.45983266921E+02 -0.13661872660E+03  0.83993012164E+02  0.23904686442E+03  0.17120000000E+03 0.  0.
        998    1    1    2    0    0 -0.25829860457E+02  0.41943014391E+02  0.94678018069E+03  0.94811344717E+03  0.10000000000E+02 0.  1.
</event>
<event>
 5    1  0.1141915E-008  0.3853406E+03  0.7957747E-01  0.3428229E+00
         13   -1    0    0    0    0  0.00000000000E+00  0.00000000000E+00  0.14999999963E+04  0.15000000000E+04  0.10566000000E+00 0.  1.
        994   -1    0    0    0    0 -0.00000000000E+00 -0.00000000000E+00  0.11368683772E-12  0.17120000000E+03  0.17120000000E+03 0.  0.
         13    1    1    2    0    0  0.10738747662E+02 -0.58600970997E+01  0.52342614311E+02  0.53753342932E+02  0.10566000000E+00 0.  1.
        994    1    1    2    0    0 -0.11921596664E+02 -0.10850004208E+02  0.23152019655E+01  0.17197280953E+03  0.17120000000E+03 0.  0.
        998    1    1    2    0    0  0.11828490018E+01  0.16710101308E+02  0.14453421800E+04  0.14454738475E+04  0.10000000000E+02 0.  1.
</event>
<event>
 5    1  0.1141915E-008  0.3814363E+03  0.7957747E-01  0.3444928E+00
         13   -1    0    0    0    0  0.00000000000E+00  0.00000000000E+00  0.14999999963E+04  0.15000000000E+04  0.10566000000E+00 0.  1.
        994   -1    0    0    0    0 -0.00000000000E+00 -0.00000000000E+00  0.11368683772E-12  0.17120000000E+03  0.17120000000E+03 0.  0.
         13    1    1    2    0    0 -0.13212659565E+02 -0.37878092238E+00  0.22617313999E+02  0.26196791871E+02  0.10566000000E+00 0.  1.
        994    1    1    2    0    0  0.32972344071E+02 -0.41158398235E+01  0.70920927838E+01  0.17453897385E+03  0.17120000000E+03 0.  0.
        998    1    1    2    0    0 -0.19759684506E+02  0.44946207458E+01  0.14702905895E+04  0.14704642343E+04  0.10000000000E+02 0.  1.
</event>
<event>
 5    1  0.1141915E-008  0.3720271E+03  0.7957747E-01  0.3486626E+00
         13   -1    0    0    0    0  0.00000000000E+00  0.00000000000E+00  0.14999999963E+04  0.15000000000E+04  0.10566000000E+00 0.  1.
        994   -1    0    0    0    0 -0.00000000000E+00 -0.00000000000E+00  0.11368683772E-12  0.17120000000E+03  0.17120000000E+03 0.  0.
         13    1    1    2    0    0  0.36589498736E+01  0.25103794166E+02  0.34880083151E+02  0.43130265016E+02  0.10566000000E+00 0.  1.
        994    1    1    2    0    0  0.12912796836E+02 -0.29704424427E+02  0.11824086648E+02  0.17463774557E+03  0.17120000000E+03 0.  0.
        998    1    1    2    0    0 -0.16571746709E+02  0.46006302606E+01  0.14532958265E+04  0.14534319894E+04  0.10000000000E+02 0.  1.
</event>
<event>
 5    1  0.1141915E-008  0.3864124E+03  0.7957747E-01  0.3423704E+00
         13   -1    0    0    0    0  0.00000000000E+00  0.00000000000E+00  0.14999999963E+04  0.15000000000E+04  0.10566000000E+00 0. -1.
        994   -1    0    0    0    0 -0.00000000000E+00 -0.00000000000E+00  0.11368683772E-12  0.17120000000E+03  0.17120000000E+03 0.  0.
         13    1    1    2    0    0 -0.54653500170E+00  0.21356436324E+02  0.26202785034E+01  0.21523779790E+02  0.10566000000E+00 0. -1.
        994    1    1    2    0    0  0.18171240651E+02 -0.21352179720E+02  0.22817557157E+02  0.17497482813E+03  0.17120000000E+03 0.  0.
        998    1    1    2    0    0 -0.17624705649E+02 -0.42566036583E-02  0.14745621606E+04  0.14747013921E+04  0.10000000000E+02 0. -1.
</event>
<event>
 5    1  0.1141915E-008  0.3755151E+03  0.7957747E-01  0.3470922E+00
         13   -1    0    0    0    0  0.00000000000E+00  0.00000000000E+00  0.14999999963E+04  0.15000000000E+04  0.10566000000E+00 0. -1.
        994   -1    0    0    0    0 -0.00000000000E+00 -0.00000000000E+00  0.11368683772E-12  0.17120000000E+03  0.17120000000E+03 0.  0.
         13    1    1    2    0    0  0.66030518108E+01 -0.20300190374E+02  0.34071724613E+02  0.40206860168E+02  0.10566000000E+00 0. -1.
        994    1    1    2    0    0 -0.17245210570E+02 -0.34752493304E+01  0.74653100865E+01  0.17226330283E+03  0.17120000000E+03 0.  0.
        998    1    1    2    0    0  0.10642158759E+02  0.23775439704E+02  0.14584629616E+04  0.14587298370E+04  0.10000000000E+02 0. -1.
</event>
<event>
 5    1  0.1141915E-008  0.3062357E+03  0.7957747E-01  0.3852484E+00
         13   -1    0    0    0    0  0.00000000000E+00  0.00000000000E+00  0.14999999963E+04  0.15000000000E+04  0.10566000000E+00 0.  1.
        994   -1    0    0    0    0 -0.00000000000E+00 -0.00000000000E+00  0.11368683772E-12  0.17120000000E+03  0.17120000000E+03 0.  0.
         13    1    1    2    0    0 -0.69933000548E+02 -0.14707214492E+03  0.76842100447E+03  0.78548818683E+03  0.10566000000E+00 0.  1.
        994    1    1    2    0    0  0.28060813624E+02  0.13019192458E+03  0.78003155335E+02  0.23050223151E+03  0.17120000000E+03 0.  0.
        998    1    1    2    0    0  0.41872186924E+02  0.16880220340E+02  0.65357583647E+03  0.65520958166E+03  0.10000000000E+02 0.  1.
</event>
<event>
 5    1  0.1141915E-008  0.3848094E+03  0.7957747E-01  0.3430481E+00
         13   -1    0    0    0    0  0.00000000000E+00  0.00000000000E+00  0.14999999963E+04  0.15000000000E+04  0.10566000000E+00 0.  1.
        994   -1    0    0    0    0 -0.00000000000E+00 -0.00000000000E+00  0.11368683772E-12  0.17120000000E+03  0.17120000000E+03 0.  0.
         13    1    1    2    0    0  0.31092260454E+01  0.15516321793E+02  0.74138373135E+02  0.75808528964E+02  0.10566000000E+00 0.  1.
        994    1    1    2    0    0  0.78000555084E+01 -0.88149445206E+01  0.21808453470E+01  0.17161800663E+03  0.17120000000E+03 0.  0.
        998    1    1    2    0    0 -0.10909281554E+02 -0.67013772723E+01  0.14236807778E+04  0.14237734644E+04  0.10000000000E+02 0.  1.
</event>
<event>
 5    1  0.1141915E-008  0.3785645E+03  0.7957747E-01  0.3457433E+00
         13   -1    0    0    0    0  0.00000000000E+00  0.00000000000E+00  0.14999999963E+04  0.15000000000E+04  0.10566000000E+00 0. -1.
        994   -1    0    0    0    0 -0.00000000000E+00 -0.00000000000E+00  0.11368683772E-12  0.17120000000E+03  0.17120000000E+03 0.  0.
         13    1    1    2    0    0 -0.10870736068E+02  0.10812773720E+02  0.58375867124E+00  0.15344084085E+02  0.10566000000E+00 0. -1.
        994    1    1    2    0    0 -0.12766492036E+02 -0.15937027321E+02  0.17045368298E+02  0.17325402373E+03  0.17120000000E+03 0.  0.
        998    1    1    2    0    0  0.23637228104E+02  0.51242536009E+01  0.14823708693E+04  0.14826018922E+04  0.10000000000E+02 0. -1.
</event>
<event>
 5    1  0.1141915E-008  0.3772140E+03  0.7957747E-01  0.3463380E+00
         13   -1    0    0    0    0  0.00000000000E+00  0.00000000000E+00  0.14999999963E+04  0.15000000000E+04  0.10566000000E+00 0.  1.
        994   -1    0    0    0    0 -0.00000000000E+00 -0.00000000000E+00  0.11368683772E-12  0.17120000000E+03  0.17120000000E+03 0.  0.
         13    1    1    2    0    0  0.48001770606E+01 -0.25805450477E+02  0.59798860488E+02  0.65306032293E+02  0.10566000000E+00 0.  1.
        994    1    1    2    0    0 -0.56377235955E+01  0.17114543501E+02  0.66424075489E+01  0.17227377370E+03  0.17120000000E+03 0.  0.
        998    1    1    2    0    0  0.83754653485E+00  0.86909069768E+01  0.14335587282E+04  0.14336201940E+04  0.10000000000E+02 0.  1.
</event>
<event>
 5    1  0.1141915E-008  0.3705348E+03  0.7957747E-01  0.3493437E+00
         13   -1    0    0    0    0  0.00000000000E+00  0.00000000000E+00  0.14999999963E+04  0.15000000000E+04  0.10566000000E+00 0. -1.
        994   -1    0    0    0    0 -0.00000000000E+00 -0.00000000000E+00  0.11368683772E-12  0.17120000000E+03  0.17120000000E+03 0.  0.
         13    1    1    2    0    0  0.51227782539E+02 -0.37971615398E+02  0.15937106979E+03  0.17165453193E+03  0.10566000000E+00 0. -1.
        994    1    1    2    0    0 -0.36965276537E+02  0.57288030060E+02  0.27685603669E+02  0.18634452691E+03  0.17120000000E+03 0.  0.
        998    1    1    2    0    0 -0.14262506002E+02 -0.19316414663E+02  0.13129433228E+04  0.13132009412E+04  0.10000000000E+02 0. -1.
</event>
<event>
 5    1  0.1141915E-008  0.3843068E+03  0.7957747E-01  0.3432618E+00
         13   -1    0    0    0    0  0.00000000000E+00  0.00000000000E+00  0.14999999963E+04  0.15000000000E+04  0.10566000000E+00 0.  1.
        994   -1    0    0    0    0 -0.00000000000E+00 -0.00000000000E+00  0.11368683772E-12  0.17120000000E+03  0.17120000000E+03 0.  0.
         13    1    1    2    0    0 -0.10155161183E+02 -0.49515463251E+01  0.35460792503E+02  0.37217255120E+02  0.10566000000E+00 0.  1.
        994    1    1    2    0    0 -0.17312698594E+02 -0.21928752872E+01  0.29791154929E+01  0.17211290877E+03  0.17120000000E+03 0.  0.
        998    1    1    2    0    0  0.27467859777E+02  0.71444216124E+01  0.14615600883E+04  0.14618698361E+04  0.10000000000E+02 0.  1.
</event>
<event>
 5    1  0.1141915E-008  0.3852204E+03  0.7957747E-01  0.3428738E+00
         13   -1    0    0    0    0  0.00000000000E+00  0.00000000000E+00  0.14999999963E+04  0.15000000000E+04  0.10566000000E+00 0.  1.
        994   -1    0    0    0    0 -0.00000000000E+00 -0.00000000000E+00  0.11368683772E-12  0.17120000000E+03  0.17120000000E+03 0.  0.
         13    1    1    2    0    0  0.18271289074E+01  0.10049497096E+02  0.31448925361E+02  0.33066249595E+02  0.10566000000E+00 0.  1.
        994    1    1    2    0    0 -0.94337009551E+01 -0.23919093659E+02  0.36963831578E+01  0.17315952473E+03  0.17120000000E+03 0.  0.
        998    1    1    2    0    0  0.76065720477E+01  0.13869596563E+02  0.14648546878E+04  0.14649742257E+04  0.10000000000E+02 0.  1.
</event>
<event>
 5    1  0.1141915E-008  0.3839887E+03  0.7957747E-01  0.3433973E+00
         13   -1    0    0    0    0  0.00000000000E+00  0.00000000000E+00  0.14999999963E+04  0.15000000000E+04  0.10566000000E+00 0.  1.
        994   -1    0    0    0    0 -0.00000000000E+00 -0.00000000000E+00  0.11368683772E-12  0.17120000000E+03  0.17120000000E+03 0.  0.
         13    1    1    2    0    0  0.12747366777E+02 -0.13445892691E+02  0.86888180776E+02  0.88841738573E+02  0.10566000000E+00 0.  1.
        994    1    1    2    0    0 -0.69792047821E+01 -0.73956432249E+01  0.24743222967E+01  0.17151958229E+03  0.17120000000E+03 0.  0.
        998    1    1    2    0    0 -0.57681619947E+01  0.20841535915E+02  0.14106374932E+04  0.14108386791E+04  0.10000000000E+02 0.  1.
</event>
<event>
 5    1  0.1141915E-008  0.3830850E+03  0.7957747E-01  0.3437835E+00
         13   -1    0    0    0    0  0.00000000000E+00  0.00000000000E+00  0.14999999963E+04  0.15000000000E+04  0.10566000000E+00 0.  1.
        994   -1    0    0    0    0 -0.00000000000E+00 -0.00000000000E+00  0.11368683772E-12  0.17120000000E+03  0.17120000000E+03 0.  0.
         13    1    1    2    0    0 -0.80768715491E+02 -0.13590874925E+02  0.16643058786E+03  0.18549245005E+03  0.10566000000E+00 0.  1.
        994    1    1    2    0    0  0.73794306786E+02  0.29879142059E+01  0.38308364816E+02  0.19034573323E+03  0.17120000000E+03 0.  0.
        998    1    1    2    0    0  0.69744087047E+01  0.10602960719E+02  0.12952610436E+04  0.12953618167E+04  0.10000000000E+02 0.  1.
</event>
<event>
 5    1  0.1141915E-008  0.3733184E+03  0.7957747E-01  0.3480778E+00
         13   -1    0    0    0    0  0.00000000000E+00  0.00000000000E+00  0.14999999963E+04  0.15000000000E+04  0.10566000000E+00 0.  1.
        994   -1    0    0    0    0 -0.00000000000E+00 -0.00000000000E+00  0.11368683772E-12  0.17120000000E+03  0.17120000000E+03 0.  0.
         13    1    1    2    0    0 -0.16365678608E+02  0.13077055834E+02  0.11721231019E+02  0.24005067095E+02  0.10566000000E+00 0.  1.
        994    1    1    2    0    0  0.15229590529E+02 -0.64780736627E+01  0.13673708776E+02  0.17254076671E+03  0.17120000000E+03 0.  0.
        998    1    1    2    0    0  0.11360880789E+01 -0.65989821714E+01  0.14746050565E+04  0.14746541662E+04  0.10000000000E+02 0.  1.
</event>
<event>
 5    1  0.1141915E-008  0.3773492E+03  0.7957747E-01  0.3462782E+00
         13   -1    0    0    0    0  0.00000000000E+00  0.00000000000E+00  0.14999999963E+04  0.15000000000E+04  0.10566000000E+00 0. -1.
        994   -1    0    0    0    0 -0.00000000000E+00 -0.00000000000E+00  0.11368683772E-12  0.17120000000E+03  0.17120000000E+03 0.  0.
         13    1    1    2    0    0 -0.21578605167E+02  0.16357844467E+02  0.70387465103E+02  0.75416322400E+02  0.10566000000E+00 0. -1.
        994    1    1    2    0    0 -0.93970384870E+01 -0.65191557631E+01  0.59185249615E+01  0.17168364122E+03  0.17120000000E+03 0.  0.
        998    1    1    2    0    0  0.30975643654E+02 -0.98386887043E+01  0.14236940062E+04  0.14241000364E+04  0.10000000000E+02 0. -1.
</event>
<event>
 5    1  0.1141915E-008  0.3697339E+03  0.7957747E-01  0.3497115E+00
         13   -1    0    0    0    0  0.00000000000E+00  0.00000000000E+00  0.14999999963E+04  0.15000000000E+04  0.10566000000E+00 0. -1.
        994   -1    0    0    0    0 -0.00000000000E+00 -0.00000000000E+00  0.11368683772E-12  0.17120000000E+03  0.17120000000E+03 0.  0.
         13    1    1    2    0    0 -0.44585275832E+02 -0.18777125365E+02  0.11823018743E+03  0.12774511983E+03  0.10566000000E+00 0. -1.
        994    1    1    2    0    0  0.32688197165E+02  0.14893639409E+02  0.13887011077E+02  0.17547828300E+03  0.17120000000E+03 0.  0.
        998    1    1    2    0    0  0.11897078667E+02  0.38834859554E+01  0.13678827978E+04  0.13679765972E+04  0.10000000000E+02 0. -1.
</event>
<event>
 5    1  0.1141915E-008  0.3843660E+03  0.7957747E-01  0.3432365E+00
         13   -1    0    0    0    0  0.00000000000E+00  0.00000000000E+00  0.14999999963E+04  0.15000000000E+04  0.10566000000E+00 0. -1.
        994   -1    0    0    0    0 -0.00000000000E+00 -0.00000000000E+00  0.11368683772E-12  0.17120000000E+03  0.17120000000E+03 0.  0.
         13    1    1    2    0    0 -0.15909203960E+02  0.89769009349E+01  0.83193792755E+02  0.85175735031E+02  0.10566000000E+00 0. -1.
        994    1    1    2    0    0  0.12702833406E+02 -0.98105648395E+01  0.27946046852E+01  0.17197342520E+03  0.17120000000E+03 0.  0.
        998    1    1    2    0    0  0.32063705540E+01  0.83366390457E+00  0.14140115988E+04  0.14140508398E+04  0.10000000000E+02 0. -1.
</event>
<event>
 5    1  0.1141915E-008  0.3849145E+03  0.7957747E-01  0.3430035E+00
         13   -1    0    0    0    0  0.00000000000E+00  0.00000000000E+00  0.14999999963E+04  0.15000000000E+04  0.10566000000E+00 0. -1.
        994   -1    0    0    0    0 -0.00000000000E+00 -0.00000000000E+00  0.11368683772E-12  0.17120000000E+03  0.17120000000E+03 0.  0.
         13    1    1    2    0    0 -0.39904638205E+00  0.12318970764E+02  0.44341155340E+02  0.46022445607E+02  0.10566000000E+00 0. -1.
        994    1    1    2    0    0 -0.73645203321E+01 -0.12624554468E+02  0.23756257799E+01  0.17183916647E+03  0.17120000000E+03 0.  0.
        998    1    1    2    0    0  0.77635667141E+01  0.30558370424E+00  0.14532832152E+04  0.14533383879E+04  0.10000000000E+02 0. -1.
</event>
<event>
 5    1  0.1141915E-008  0.3839729E+03  0.7957747E-01  0.3434040E+00
         13   -1    0    0    0    0  0.00000000000E+00  0.00000000000E+00  0.14999999963E+04  0.15000000000E+04  0.10566000000E+00 0. -1.
        994   -1    0    0    0    0 -0.00000000000E+00 -0.00000000000E+00  0.11368683772E-12  0.17120000000E+03  0.17120000000E+03 0.  0.
         13    1    1    2    0    0 -0.14168277996E+02  0.54070781238E+01  0.54742460145E+02  0.56804266582E+02  0.10566000000E+00 0. -1.
        994    1    1    2    0    0  0.25583143953E+01 -0.63756152629E+01  0.22966505078E+01  0.17135316760E+03  0.17120000000E+03 0.  0.
        998    1    1    2    0    0  0.11609963601E+02  0.96853713904E+00  0.14429608856E+04  0.14430425658E+04  0.10000000000E+02 0. -1.
</event>
<event>
 5    1  0.1141915E-008  0.3738879E+03  0.7957747E-01  0.3478211E+00
         13   -1    0    0    0    0  0.00000000000E+00  0.00000000000E+00  0.14999999963E+04  0.15000000000E+04  0.10566000000E+00 0.  1.
        994   -1    0    0    0    0 -0.00000000000E+00 -0.00000000000E+00  0.11368683772E-12  0.17120000000E+03  0.17120000000E+03 0.  0.
         13    1    1    2    0    0 -0.18684801589E+02 -0.54217452973E+02  0.22060030887E+03  0.22793236158E+03  0.10566000000E+00 0.  1.
        994    1    1    2    0    0 -0.56840573994E+01  0.40398000677E+02  0.12950790294E+02  0.17646945893E+03  0.17120000000E+03 0.  0.
        998    1    1    2    0    0  0.24368858989E+02  0.13819452296E+02  0.12664488971E+04  0.12667981795E+04  0.10000000000E+02 0.  1.
</event>
<event>
 5    1  0.1141915E-008  0.3844640E+03  0.7957747E-01  0.3431949E+00
         13   -1    0    0    0    0  0.00000000000E+00  0.00000000000E+00  0.14999999963E+04  0.15000000000E+04  0.10566000000E+00 0.  1.
        994   -1    0    0    0    0 -0.00000000000E+00 -0.00000000000E+00  0.11368683772E-12  0.17120000000E+03  0.17120000000E+03 0.  0.
         13    1    1    2    0    0 -0.42474060560E+00 -0.35865106408E+02  0.21562311300E+03  0.21858596544E+03  0.10566000000E+00 0.  1.
        994    1    1    2    0    0 -0.21912675014E+02  0.67056223202E+02  0.18467345566E+02  0.18608381243E+03  0.17120000000E+03 0.  0.
        998    1    1    2    0    0  0.22337415620E+02 -0.31191116794E+02  0.12659095377E+04  0.12665302221E+04  0.10000000000E+02 0. -1.
</event>
<event>
 5    1  0.1141915E-008  0.3801651E+03  0.7957747E-01  0.3450440E+00
         13   -1    0    0    0    0  0.00000000000E+00  0.00000000000E+00  0.14999999963E+04  0.15000000000E+04  0.10566000000E+00 0. -1.
        994   -1    0    0    0    0 -0.00000000000E+00 -0.00000000000E+00  0.11368683772E-12  0.17120000000E+03  0.17120000000E+03 0.  0.
         13    1    1    2    0    0 -0.38496963331E+01  0.39991418662E+02  0.17719641463E+03  0.18169401270E+03  0.10566000000E+00 0. -1.
        994    1    1    2    0    0 -0.12344239315E+01 -0.39764279938E+02  0.93560230517E+01  0.17601050233E+03  0.17120000000E+03 0.  0.
        998    1    1    2    0    0  0.50841202645E+01 -0.22713872465E+00  0.13134475586E+04  0.13134954850E+04  0.10000000000E+02 0. -1.
</event>
<event>
 5    1  0.1141915E-008  0.3127162E+03  0.7957747E-01  0.3809221E+00
         13   -1    0    0    0    0  0.00000000000E+00  0.00000000000E+00  0.14999999963E+04  0.15000000000E+04  0.10566000000E+00 0. -1.
        994   -1    0    0    0    0 -0.00000000000E+00 -0.00000000000E+00  0.11368683772E-12  0.17120000000E+03  0.17120000000E+03 0.  0.
         13    1    1    2    0    0 -0.16719345627E+03 -0.40758281119E+02  0.85999810768E+03  0.87704711713E+03  0.10566000000E+00 0. -1.
        994    1    1    2    0    0  0.10018339506E+03  0.24875812868E+02  0.58211020222E+02  0.20821498886E+03  0.17120000000E+03 0.  0.
        998    1    1    2    0    0  0.67010061202E+02  0.15882468251E+02  0.58179086838E+03  0.58593789400E+03  0.10000000000E+02 0.  1.
</event>
<event>
 5    1  0.1141915E-008  0.3761158E+03  0.7957747E-01  0.3468248E+00
         13   -1    0    0    0    0  0.00000000000E+00  0.00000000000E+00  0.14999999963E+04  0.15000000000E+04  0.10566000000E+00 0.  1.
        994   -1    0    0    0    0 -0.00000000000E+00 -0.00000000000E+00  0.11368683772E-12  0.17120000000E+03  0.17120000000E+03 0.  0.
         13    1    1    2    0    0  0.32423223690E+02 -0.53017127808E+01  0.87994496288E+02  0.93927717602E+02  0.10566000000E+00 0.  1.
        994    1    1    2    0    0 -0.17232807394E+02 -0.10388469108E+02  0.74792139791E+01  0.17254062879E+03  0.17120000000E+03 0.  0.
        998    1    1    2    0    0 -0.15190416295E+02  0.15690181889E+02  0.14045262860E+04  0.14047316536E+04  0.10000000000E+02 0.  1.
</event>
<event>
 5    1  0.1141915E-008  0.3794718E+03  0.7957747E-01  0.3453461E+00
         13   -1    0    0    0    0  0.00000000000E+00  0.00000000000E+00  0.14999999963E+04  0.15000000000E+04  0.10566000000E+00 0.  1.
        994   -1    0    0    0    0 -0.00000000000E+00 -0.00000000000E+00  0.11368683772E-12  0.17120000000E+03  0.17120000000E+03 0.  0.
         13    1    1    2    0    0 -0.23509675594E+02 -0.23907308992E+02  0.11473656226E+03  0.11953557693E+03  0.10566000000E+00 0.  1.
        994    1    1    2    0    0  0.84560567433E+02 -0.23089165265E+02  0.30575885742E+02  0.19475092787E+03  0.17120000000E+03 0.  0.
        998    1    1    2    0    0 -0.61050891839E+02  0.46996474257E+02  0.13546875483E+04  0.13569134952E+04  0.10000000000E+02 0.  1.
</event>
<event>
 5    1  0.1141915E-008  0.4019702E+03  0.7957747E-01  0.3360741E+00
         13   -1    0    0    0    0  0.00000000000E+00  0.00000000000E+00  0.14999999963E+04  0.15000000000E+04  0.10566000000E+00 0.  1.
        994   -1    0    0    0    0 -0.00000000000E+00 -0.00000000000E+00  0.11368683772E-12  0.17120000000E+03  0.17120000000E+03 0.  0.
         13    1    1    2    0    0 -0.82023201568E+02  0.41809485007E+02  0.14131353661E+03  0.16865753889E+03  0.10566000000E+00 0.  1.
        994    1    1    2    0    0  0.53463815090E+02 -0.20357485794E+02  0.41991923899E+02  0.18532557412E+03  0.17120000000E+03 0.  0.
        998    1    1    2    0    0  0.28559386478E+02 -0.21451999213E+02  0.13166945358E+04  0.13172168870E+04  0.10000000000E+02 0.  1.
</event>
<event>
 5    1  0.1141915E-008  0.3769099E+03  0.7957747E-01  0.3464725E+00
         13   -1    0    0    0    0  0.00000000000E+00  0.00000000000E+00  0.14999999963E+04  0.15000000000E+04  0.10566000000E+00 0.  1.
        994   -1    0    0    0    0 -0.00000000000E+00 -0.00000000000E+00  0.11368683772E-12  0.17120000000E+03  0.17120000000E+03 0.  0.
         13    1    1    2    0    0 -0.28436151598E+02 -0.19906606936E+02  0.12170055505E+03  0.12655403581E+03  0.10566000000E+00 0.  1.
        994    1    1    2    0    0 -0.16905955249E+01 -0.16360827594E+02  0.66154475692E+01  0.17211548141E+03  0.17120000000E+03 0.  0.
        998    1    1    2    0    0  0.30126747123E+02  0.36267434530E+02  0.13716839937E+04  0.13725304828E+04  0.10000000000E+02 0.  1.
</event>
<event>
 5    1  0.1141915E-008  0.3774890E+03  0.7957747E-01  0.3462166E+00
         13   -1    0    0    0    0  0.00000000000E+00  0.00000000000E+00  0.14999999963E+04  0.15000000000E+04  0.10566000000E+00 0. -1.
        994   -1    0    0    0    0 -0.00000000000E+00 -0.00000000000E+00  0.11368683772E-12  0.17120000000E+03  0.17120000000E+03 0.  0.
         13    1    1    2    0    0  0.29247596359E+02  0.31740365776E+02  0.17154606900E+03  0.17689244661E+03  0.10566000000E+00 0. -1.
        994    1    1    2    0    0 -0.20906289385E+02 -0.13567252759E+02  0.75027435167E+01  0.17316718639E+03  0.17120000000E+03 0.  0.
        998    1    1    2    0    0 -0.83413069745E+01 -0.18173113017E+02  0.13209511838E+04  0.13211403670E+04  0.10000000000E+02 0. -1.
</event>
<event>
 5    1  0.1141915E-008  0.3730535E+03  0.7957747E-01  0.3481974E+00
         13   -1    0    0    0    0  0.00000000000E+00  0.00000000000E+00  0.14999999963E+04  0.15000000000E+04  0.10566000000E+00 0.  1.
        994   -1    0    0    0    0 -0.00000000000E+00 -0.00000000000E+00  0.11368683772E-12  0.17120000000E+03  0.17120000000E+03 0.  0.
         13    1    1    2    0    0  0.74684367676E+01  0.52766957380E+02  0.22191000370E+03  0.22821960969E+03  0.10566000000E+00 0.  1.
        994    1    1    2    0    0 -0.38470759156E+01  0.15667493609E+01  0.77407381180E+01  0.17142524237E+03  0.17120000000E+03 0.  0.
        998    1    1    2    0    0 -0.36213608520E+01 -0.54333706741E+02  0.12703492545E+04  0.12715551479E+04  0.10000000000E+02 0.  1.
</event>
<event>
 5    1  0.1141915E-008  0.3689057E+03  0.7957747E-01  0.3500935E+00
         13   -1    0    0    0    0  0.00000000000E+00  0.00000000000E+00  0.14999999963E+04  0.15000000000E+04  0.10566000000E+00 0. -1.
        994   -1    0    0    0    0 -0.00000000000E+00 -0.00000000000E+00  0.11368683772E-12  0.17120000000E+03  0.17120000000E+03 0.  0.
         13    1    1    2    0    0 -0.44410479410E+02 -0.59698609051E+02  0.21779563095E+03  0.23015464938E+03  0.10566000000E+00 0. -1.
        994    1    1    2    0    0  0.38506447637E+02  0.72201005681E+02  0.34058265663E+02  0.19278261641E+03  0.17120000000E+03 0.  0.
        998    1    1    2    0    0  0.59040317723E+01 -0.12502396630E+02  0.12481460997E+04  0.12482627342E+04  0.10000000000E+02 0. -1.
</event>
<event>
 5    1  0.1141915E-008  0.3854539E+03  0.7957747E-01  0.3427750E+00
         13   -1    0    0    0    0  0.00000000000E+00  0.00000000000E+00  0.14999999963E+04  0.15000000000E+04  0.10566000000E+00 0. -1.
        994   -1    0    0    0    0 -0.00000000000E+00 -0.00000000000E+00  0.11368683772E-12  0.17120000000E+03  0.17120000000E+03 0.  0.
         13    1    1    2    0    0  0.16482006261E+02 -0.32685232958E+01  0.99907911184E+02  0.10131111319E+03  0.10566000000E+00 0. -1.
        994    1    1    2    0    0 -0.11766980766E+02  0.21473144137E+01  0.18749426811E+01  0.17162758579E+03  0.17120000000E+03 0.  0.
        998    1    1    2    0    0 -0.47150254952E+01  0.11212088821E+01  0.13982171424E+04  0.13982613010E+04  0.10000000000E+02 0. -1.
</event>
<event>
 5    1  0.1141915E-008  0.3802682E+03  0.7957747E-01  0.3449991E+00
         13   -1    0    0    0    0  0.00000000000E+00  0.00000000000E+00  0.14999999963E+04  0.15000000000E+04  0.10566000000E+00 0.  1.
        994   -1    0    0    0    0 -0.00000000000E+00 -0.00000000000E+00  0.11368683772E-12  0.17120000000E+03  0.17120000000E+03 0.  0.
         13    1    1    2    0    0  0.49369094777E+02 -0.11118259022E+02  0.25489091038E+03  0.25986594729E+03  0.10566000000E+00 0.  1.
        994    1    1    2    0    0 -0.56626461567E+02  0.35517709051E+01  0.14825557535E+02  0.18096521318E+03  0.17120000000E+03 0.  0.
        998    1    1    2    0    0  0.72573667902E+01  0.75664881167E+01  0.12302835284E+04  0.12303688395E+04  0.10000000000E+02 0.  1.
</event>
<event>
 5    1  0.1324021E-008  0.3856647E+03  0.7957747E-01  0.3426858E+00
         13   -1    0    0    0    0  0.00000000000E+00  0.00000000000E+00  0.14999999963E+04  0.15000000000E+04  0.10566000000E+00 0.  1.
        994   -1    0    0    0    0 -0.00000000000E+00 -0.00000000000E+00  0.11368683772E-12  0.17120000000E+03  0.17120000000E+03 0.  0.
         13    1    1    2    0    0 -0.92442462956E+01 -0.67702888560E+01  0.50155757615E+02  0.51448071749E+02  0.10566000000E+00 0.  1.
        994    1    1    2    0    0  0.10380958018E+02  0.24374722500E+01  0.16736917150E+01  0.17153992773E+03  0.17120000000E+03 0.  0.
        998    1    1    2    0    0 -0.11367117220E+01  0.43328166060E+01  0.14481705469E+04  0.14482120005E+04  0.10000000000E+02 0.  1.
</event>
<event>
 5    1  0.1141915E-008  0.3809227E+03  0.7957747E-01  0.3447150E+00
         13   -1    0    0    0    0  0.00000000000E+00  0.00000000000E+00  0.14999999963E+04  0.15000000000E+04  0.10566000000E+00 0.  1.
        994   -1    0    0    0    0 -0.00000000000E+00 -0.00000000000E+00  0.11368683772E-12  0.17120000000E+03  0.17120000000E+03 0.  0.
         13    1    1    2    0    0 -0.33399570338E+01  0.10209982998E+02  0.14024181259E+02  0.17666009448E+02  0.10566000000E+00 0.  1.
        994    1    1    2    0    0  0.36850474695E+01 -0.11152669399E+02  0.41280016040E+01  0.17165209584E+03  0.17120000000E+03 0.  0.
        998    1    1    2    0    0 -0.34509043570E+00  0.94268640119E+00  0.14818478134E+04  0.14818818947E+04  0.10000000000E+02 0.  1.
</event>
<event>
 5    1  0.1141915E-008  0.3836265E+03  0.7957747E-01  0.3435518E+00
         13   -1    0    0    0    0  0.00000000000E+00  0.00000000000E+00  0.14999999963E+04  0.15000000000E+04  0.10566000000E+00 0. -1.
        994   -1    0    0    0    0 -0.00000000000E+00 -0.00000000000E+00  0.11368683772E-12  0.17120000000E+03  0.17120000000E+03 0.  0.
         13    1    1    2    0    0 -0.18153666820E+02  0.52083018245E+01  0.75370843907E+02  0.77701076583E+02  0.10566000000E+00 0. -1.
        994    1    1    2    0    0  0.14845898338E+02 -0.17012069937E+01  0.30515749547E+01  0.17187800008E+03  0.17120000000E+03 0.  0.
        998    1    1    2    0    0  0.33077684826E+01 -0.35070948307E+01  0.14215775774E+04  0.14216209233E+04  0.10000000000E+02 0. -1.
</event>
<event>
 5    1  0.1141915E-008  0.3832436E+03  0.7957747E-01  0.3437156E+00
         13   -1    0    0    0    0  0.00000000000E+00  0.00000000000E+00  0.14999999963E+04  0.15000000000E+04  0.10566000000E+00 0. -1.
        994   -1    0    0    0    0 -0.00000000000E+00 -0.00000000000E+00  0.11368683772E-12  0.17120000000E+03  0.17120000000E+03 0.  0.
         13    1    1    2    0    0  0.87874752491E+01  0.20237578807E+02  0.93586140552E+02  0.96151735214E+02  0.10566000000E+00 0. -1.
        994    1    1    2    0    0 -0.59139435635E+01 -0.17845914327E+02  0.36745949500E+01  0.17226837793E+03  0.17120000000E+03 0.  0.
        998    1    1    2    0    0 -0.28735316856E+01 -0.23916644800E+01  0.14027392608E+04  0.14027798869E+04  0.10000000000E+02 0. -1.
</event>
<event>
 5    1  0.1141915E-008  0.3818649E+03  0.7957747E-01  0.3443078E+00
         13   -1    0    0    0    0  0.00000000000E+00  0.00000000000E+00  0.14999999963E+04  0.15000000000E+04  0.10566000000E+00 0. -1.
        994   -1    0    0    0    0 -0.00000000000E+00 -0.00000000000E+00  0.11368683772E-12  0.17120000000E+03  0.17120000000E+03 0.  0.
         13    1    1    2    0    0 -0.19129041711E+02  0.85251741657E+01  0.69801088507E+02  0.72875249242E+02  0.10566000000E+00 0. -1.
        994    1    1    2    0    0  0.46095538511E+01 -0.61531669281E+01  0.33911389092E+01  0.17140609462E+03  0.17120000000E+03 0.  0.
        998    1    1    2    0    0  0.14519487860E+02 -0.23720072375E+01  0.14268077689E+04  0.14269186561E+04  0.10000000000E+02 0. -1.
</event>
<event>
 5    1  0.1141915E-008  0.3722258E+03  0.7957747E-01  0.3485724E+00
         13   -1    0    0    0    0  0.00000000000E+00  0.00000000000E+00  0.14999999963E+04  0.15000000000E+04  0.10566000000E+00 0.  1.
        994   -1    0    0    0    0 -0.00000000000E+00 -0.00000000000E+00  0.11368683772E-12  0.17120000000E+03  0.17120000000E+03 0.  0.
         13    1    1    2    0    0 -0.39292058103E+02  0.91995542901E+01  0.61819423816E+02  0.73825130912E+02  0.10566000000E+00 0.  1.
        994    1    1    2    0    0  0.27254706759E+02 -0.23899310996E+02  0.16764569995E+02  0.17579672043E+03  0.17120000000E+03 0.  0.
        998    1    1    2    0    0  0.12037351345E+02  0.14699756706E+02  0.14214160025E+04  0.14215781487E+04  0.10000000000E+02 0.  1.
</event>
<event>
 5    1  0.1141915E-008  0.3830871E+03  0.7957747E-01  0.3437826E+00
         13   -1    0    0    0    0  0.00000000000E+00  0.00000000000E+00  0.14999999963E+04  0.15000000000E+04  0.10566000000E+00 0. -1.
        994   -1    0    0    0    0 -0.00000000000E+00 -0.00000000000E+00  0.11368683772E-12  0.17120000000E+03  0.17120000000E+03 0.  0.
         13    1    1    2    0    0  0.17120681893E+02 -0.72359802166E+01  0.80985434730E+02  0.83091088335E+02  0.10566000000E+00 0. -1.
        994    1    1    2    0    0  0.13551718010E+02 -0.24473067245E+02  0.51768648281E+01  0.17354774562E+03  0.17120000000E+03 0.  0.
        998    1    1    2    0    0 -0.30672399904E+02  0.31709047461E+02  0.14138376967E+04  0.14145611660E+04  0.10000000000E+02 0. -1.
</event>
<event>
 5    1  0.1141915E-008  0.3841394E+03  0.7957747E-01  0.3433330E+00
         13   -1    0    0    0    0  0.00000000000E+00  0.00000000000E+00  0.14999999963E+04  0.15000000000E+04  0.10566000000E+00 0. -1.
        994   -1    0    0    0    0 -0.00000000000E+00 -0.00000000000E+00  0.11368683772E-12  0.17120000000E+03  0.17120000000E+03 0.  0.
         13    1    1    2    0    0 -0.20160912506E+02 -0.59292250608E+01  0.11438522300E+03  0.11629964964E+03  0.10566000000E+00 0. -1.
        994    1    1    2    0    0  0.21579332940E+01  0.81110828271E+01  0.22903483322E+01  0.17142092065E+03  0.17120000000E+03 0.  0.
        998    1    1    2    0    0  0.18002979212E+02 -0.21818577663E+01  0.13833244250E+04  0.13834794297E+04  0.10000000000E+02 0. -1.
</event>
<event>
 5    1  0.1141915E-008  0.3799113E+03  0.7957747E-01  0.3451545E+00
         13   -1    0    0    0    0  0.00000000000E+00  0.00000000000E+00  0.14999999963E+04  0.15000000000E+04  0.10566000000E+00 0. -1.
        994   -1    0    0    0    0 -0.00000000000E+00 -0.00000000000E+00  0.11368683772E-12  0.17120000000E+03  0.17120000000E+03 0.  0.
         13    1    1    2    0    0 -0.16552971454E+01  0.10767336044E+02  0.12398553381E+02  0.16504872738E+02  0.10566000000E+00 0. -1.
        994    1    1    2    0    0 -0.62612380641E+01 -0.81941688413E+01  0.45336119043E+01  0.17157022219E+03  0.17120000000E+03 0.  0.
        998    1    1    2    0    0  0.79165352095E+01 -0.25731672029E+01  0.14830678310E+04  0.14831249051E+04  0.10000000000E+02 0. -1.
</event>
<event>
 5    1  0.1141915E-008  0.3829729E+03  0.7957747E-01  0.3438315E+00
         13   -1    0    0    0    0  0.00000000000E+00  0.00000000000E+00  0.14999999963E+04  0.15000000000E+04  0.10566000000E+00 0. -1.
        994   -1    0    0    0    0 -0.00000000000E+00 -0.00000000000E+00  0.11368683772E-12  0.17120000000E+03  0.17120000000E+03 0.  0.
         13    1    1    2    0    0  0.54427141893E+01 -0.88676589970E+01  0.19525862449E+02  0.22125301856E+02  0.10566000000E+00 0. -1.
        994    1    1    2    0    0  0.15101446714E+01  0.93020853322E+01  0.29339755788E+01  0.17148427782E+03  0.17120000000E+03 0.  0.
        998    1    1    2    0    0 -0.69528588607E+01 -0.43442633516E+00  0.14775401583E+04  0.14775904203E+04  0.10000000000E+02 0. -1.
</event>
<event>
 5    1  0.1141915E-008  0.3935082E+03  0.7957747E-01  0.3394370E+00
         13   -1    0    0    0    0  0.00000000000E+00  0.00000000000E+00  0.14999999963E+04  0.15000000000E+04  0.10566000000E+00 0.  1.
        994   -1    0    0    0    0 -0.00000000000E+00 -0.00000000000E+00  0.11368683772E-12  0.17120000000E+03  0.17120000000E+03 0.  0.
         13    1    1    2    0    0  0.54265470357E+01  0.19475343155E+02 -0.21490931602E+01  0.20331408440E+02  0.10566000000E+00 0.  1.
        994    1    1    2    0    0 -0.75110369755E+01 -0.23208906619E+02  0.26227352655E+02  0.17490678389E+03  0.17120000000E+03 0.  0.
        998    1    1    2    0    0  0.20844899398E+01  0.37335634646E+01  0.14759217368E+04  0.14759618077E+04  0.10000000000E+02 0.  1.
</event>
<event>
 5    1  0.1141915E-008  0.3844700E+03  0.7957747E-01  0.3431923E+00
         13   -1    0    0    0    0  0.00000000000E+00  0.00000000000E+00  0.14999999963E+04  0.15000000000E+04  0.10566000000E+00 0.  1.
        994   -1    0    0    0    0 -0.00000000000E+00 -0.00000000000E+00  0.11368683772E-12  0.17120000000E+03  0.17120000000E+03 0.  0.
         13    1    1    2    0    0 -0.11233480057E+02  0.20119949846E+01  0.33130898341E+02  0.35041500923E+02  0.10566000000E+00 0.  1.
        994    1    1    2    0    0  0.12769932944E+02 -0.65693132536E+01  0.25731538344E+01  0.17182051154E+03  0.17120000000E+03 0.  0.
        998    1    1    2    0    0 -0.15364528874E+01  0.45573182690E+01  0.14642959441E+04  0.14643379875E+04  0.10000000000E+02 0.  1.
</event>
<event>
 5    1  0.1141915E-008  0.3829270E+03  0.7957747E-01  0.3438512E+00
         13   -1    0    0    0    0  0.00000000000E+00  0.00000000000E+00  0.14999999963E+04  0.15000000000E+04  0.10566000000E+00 0.  1.
        994   -1    0    0    0    0 -0.00000000000E+00 -0.00000000000E+00  0.11368683772E-12  0.17120000000E+03  0.17120000000E+03 0.  0.
         13    1    1    2    0    0 -0.17831477201E+02 -0.30444497569E+02  0.19931404814E+03  0.20241277124E+03  0.10566000000E+00 0.  1.
        994    1    1    2    0    0  0.76899963203E+01  0.40282574548E+02  0.82512504049E+01  0.17623661648E+03  0.17120000000E+03 0.  0.
        998    1    1    2    0    0  0.10141480881E+02 -0.98380769788E+01  0.12924346977E+04  0.12925506123E+04  0.10000000000E+02 0.  1.
</event>
<event>
 5    1  0.1141915E-008  0.3698594E+03  0.7957747E-01  0.3496537E+00
         13   -1    0    0    0    0  0.00000000000E+00  0.00000000000E+00  0.14999999963E+04  0.15000000000E+04  0.10566000000E+00 0. -1.
        994   -1    0    0    0    0 -0.00000000000E+00 -0.00000000000E+00  0.11368683772E-12  0.17120000000E+03  0.17120000000E+03 0.  0.
         13    1    1    2    0    0 -0.65622895102E+02 -0.94739443524E+02  0.43058800421E+03  0.44574428438E+03  0.10566000000E+00 0. -1.
        994    1    1    2    0    0  0.60963884825E+02  0.94846524124E+02  0.56707891772E+02  0.21269152165E+03  0.17120000000E+03 0.  0.
        998    1    1    2    0    0  0.46590102768E+01 -0.10708060011E+00  0.10127041003E+04  0.10127641940E+04  0.10000000000E+02 0.  0.
</event>
<event>
 5    1  0.1141915E-008  0.3701456E+03  0.7957747E-01  0.3495222E+00
         13   -1    0    0    0    0  0.00000000000E+00  0.00000000000E+00  0.14999999963E+04  0.15000000000E+04  0.10566000000E+00 0. -1.
        994   -1    0    0    0    0 -0.00000000000E+00 -0.00000000000E+00  0.11368683772E-12  0.17120000000E+03  0.17120000000E+03 0.  0.
         13    1    1    2    0    0 -0.24687372689E+01 -0.97194635126E+02  0.38574212248E+03  0.39780634483E+03  0.10566000000E+00 0. -1.
        994    1    1    2    0    0  0.18014462955E+02  0.93544058335E+02  0.41243130883E+02  0.20021350496E+03  0.17120000000E+03 0.  0.
        998    1    1    2    0    0 -0.15545725686E+02  0.36505767917E+01  0.10730147429E+04  0.10731801502E+04  0.10000000000E+02 0. -1.
</event>
<event>
 5    1  0.1141915E-008  0.3798384E+03  0.7957747E-01  0.3451863E+00
         13   -1    0    0    0    0  0.00000000000E+00  0.00000000000E+00  0.14999999963E+04  0.15000000000E+04  0.10566000000E+00 0. -1.
        994   -1    0    0    0    0 -0.00000000000E+00 -0.00000000000E+00  0.11368683772E-12  0.17120000000E+03  0.17120000000E+03 0.  0.
         13    1    1    2    0    0 -0.28856447165E+01 -0.47392679466E+02  0.23362748505E+03  0.23840345205E+03  0.10566000000E+00 0. -1.
        994    1    1    2    0    0  0.16153269623E+02  0.43134226212E+02  0.11343375058E+02  0.17765022305E+03  0.17120000000E+03 0.  0.
        998    1    1    2    0    0 -0.13267624907E+02  0.42584532543E+01  0.12550291362E+04  0.12551463249E+04  0.10000000000E+02 0. -1.
</event>
<event>
 5    1  0.1141915E-008  0.3811188E+03  0.7957747E-01  0.3446301E+00
         13   -1    0    0    0    0  0.00000000000E+00  0.00000000000E+00  0.14999999963E+04  0.15000000000E+04  0.10566000000E+00 0. -1.
        994   -1    0    0    0    0 -0.00000000000E+00 -0.00000000000E+00  0.11368683772E-12  0.17120000000E+03  0.17120000000E+03 0.  0.
         13    1    1    2    0    0 -0.37374746732E+00  0.10001711219E+02  0.11868590215E+02  0.15525737090E+02  0.10566000000E+00 0. -1.
        994    1    1    2    0    0  0.60566977668E+01 -0.27760924687E+02  0.62630735540E+01  0.17365488366E+03  0.17120000000E+03 0.  0.
        998    1    1    2    0    0 -0.56829502995E+01  0.17759213469E+02  0.14818683325E+04  0.14820193793E+04  0.10000000000E+02 0. -1.
</event>
<event>
 5    1  0.1141915E-008  0.3759009E+03  0.7957747E-01  0.3469203E+00
         13   -1    0    0    0    0  0.00000000000E+00  0.00000000000E+00  0.14999999963E+04  0.15000000000E+04  0.10566000000E+00 0. -1.
        994   -1    0    0    0    0 -0.00000000000E+00 -0.00000000000E+00  0.11368683772E-12  0.17120000000E+03  0.17120000000E+03 0.  0.
         13    1    1    2    0    0  0.27699379048E+02 -0.29077984386E+02  0.13627079730E+03  0.14206521789E+03  0.10566000000E+00 0. -1.
        994    1    1    2    0    0 -0.10413872231E+02  0.52153224110E+01  0.66766592691E+01  0.17172555460E+03  0.17120000000E+03 0.  0.
        998    1    1    2    0    0 -0.17285506818E+02  0.23862661976E+02  0.13570525397E+04  0.13574092275E+04  0.10000000000E+02 0. -1.
</event>
<event>
 5    1  0.1141915E-008  0.3810825E+03  0.7957747E-01  0.3446458E+00
         13   -1    0    0    0    0  0.00000000000E+00  0.00000000000E+00  0.14999999963E+04  0.15000000000E+04  0.10566000000E+00 0.  1.
        994   -1    0    0    0    0 -0.00000000000E+00 -0.00000000000E+00  0.11368683772E-12  0.17120000000E+03  0.17120000000E+03 0.  0.
         13    1    1    2    0    0  0.19426173335E+01 -0.29681265112E+02  0.11900865419E+03  0.12266956508E+03  0.10566000000E+00 0.  1.
        994    1    1    2    0    0 -0.29833117080E+01  0.22029467791E+02  0.52355952212E+01  0.17271667278E+03  0.17120000000E+03 0.  0.
        998    1    1    2    0    0  0.10406943745E+01  0.76517973204E+01  0.13757557469E+04  0.13758137621E+04  0.10000000000E+02 0.  1.
</event>
<event>
 5    1  0.1141915E-008  0.3851451E+03  0.7957747E-01  0.3429057E+00
         13   -1    0    0    0    0  0.00000000000E+00  0.00000000000E+00  0.14999999963E+04  0.15000000000E+04  0.10566000000E+00 0.  1.
        994   -1    0    0    0    0 -0.00000000000E+00 -0.00000000000E+00  0.11368683772E-12  0.17120000000E+03  0.17120000000E+03 0.  0.
         13    1    1    2    0    0  0.13138742144E+02  0.28065830327E+01  0.58335109798E+02  0.59862339185E+02  0.10566000000E+00 0.  1.
        994    1    1    2    0    0 -0.85689818275E+01  0.19445613130E+01  0.18119615485E+01  0.17143492052E+03  0.17120000000E+03 0.  0.
        998    1    1    2    0    0 -0.45697603163E+01 -0.47511443457E+01  0.14398529249E+04  0.14399027403E+04  0.10000000000E+02 0.  1.
</event>
<event>
 5    1  0.1269680E-008  0.3853002E+03  0.7957747E-01  0.3428400E+00
         13   -1    0    0    0    0  0.00000000000E+00  0.00000000000E+00  0.14999999963E+04  0.15000000000E+04  0.10566000000E+00 0. -1.
        994   -1    0    0    0    0 -0.00000000000E+00 -0.00000000000E+00  0.11368683772E-12  0.17120000000E+03  0.17120000000E+03 0.  0.
         13    1    1    2    0    0 -0.76703079097E+01 -0.14343734340E+02  0.84607879954E+02  0.86157302956E+02  0.10566000000E+00 0. -1.
        994    1    1    2    0    0  0.92086189584E+01  0.15696058577E+02  0.25699442310E+01  0.17218365059E+03  0.17120000000E+03 0.  0.
        998    1    1    2    0    0 -0.15383110486E+01 -0.13523242370E+01  0.14128221721E+04  0.14128590465E+04  0.10000000000E+02 0. -1.
</event>
<event>
 5    1  0.1141915E-008  0.3814587E+03  0.7957747E-01  0.3444831E+00
         13   -1    0    0    0    0  0.00000000000E+00  0.00000000000E+00  0.14999999963E+04  0.15000000000E+04  0.10566000000E+00 0.  1.
        994   -1    0    0    0    0 -0.00000000000E+00 -0.00000000000E+00  0.11368683772E-12  0.17120000000E+03  0.17120000000E+03 0.  0.
         13    1    1    2    0    0 -0.33341714760E+02 -0.60056145509E+01  0.18682098183E+03  0.18986792189E+03  0.10566000000E+00 0.  1.
        994    1    1    2    0    0  0.12831212118E+02 -0.28044950818E+02  0.65694532428E+01  0.17407974318E+03  0.17120000000E+03 0.  0.
        998    1    1    2    0    0  0.20510502642E+02  0.34050565369E+02  0.13066095612E+04  0.13072523349E+04  0.10000000000E+02 0.  1.
</event>
<event>
 5    1  0.1141915E-008  0.3877162E+03  0.7957747E-01  0.3418234E+00
         13   -1    0    0    0    0  0.00000000000E+00  0.00000000000E+00  0.14999999963E+04  0.15000000000E+04  0.10566000000E+00 0. -1.
        994   -1    0    0    0    0 -0.00000000000E+00 -0.00000000000E+00  0.11368683772E-12  0.17120000000E+03  0.17120000000E+03 0.  0.
         13    1    1    2    0    0 -0.94396111271E+01 -0.14272928499E+02 -0.22907036687E+01  0.17265029206E+02  0.10566000000E+00 0. -1.
        994    1    1    2    0    0  0.16206448874E+02  0.17250169337E+02  0.22723890135E+02  0.17431589862E+03  0.17120000000E+03 0.  0.
        998    1    1    2    0    0 -0.67668377469E+01 -0.29772408382E+01  0.14795668098E+04  0.14796190722E+04  0.10000000000E+02 0. -1.
</event>
<event>
 5    1  0.1141915E-008  0.3835472E+03  0.7957747E-01  0.3435857E+00
         13   -1    0    0    0    0  0.00000000000E+00  0.00000000000E+00  0.14999999963E+04  0.15000000000E+04  0.10566000000E+00 0.  1.
        994   -1    0    0    0    0 -0.00000000000E+00 -0.00000000000E+00  0.11368683772E-12  0.17120000000E+03  0.17120000000E+03 0.  0.
         13    1    1    2    0    0 -0.91634554282E-01 -0.18568496902E+02  0.81165316446E+02  0.83262339817E+02  0.10566000000E+00 0.  1.
        994    1    1    2    0    0  0.19489824578E+01 -0.62886462579E+01  0.24963747912E+01  0.17134473290E+03  0.17120000000E+03 0.  0.
        998    1    1    2    0    0 -0.18573479035E+01  0.24857143160E+02  0.14163383050E+04  0.14165929273E+04  0.10000000000E+02 0.  1.
</event>
<event>
 5    1  0.1141915E-008  0.3799124E+03  0.7957747E-01  0.3451540E+00
         13   -1    0    0    0    0  0.00000000000E+00  0.00000000000E+00  0.14999999963E+04  0.15000000000E+04  0.10566000000E+00 0.  1.
        994   -1    0    0    0    0 -0.00000000000E+00 -0.00000000000E+00  0.11368683772E-12  0.17120000000E+03  0.17120000000E+03 0.  0.
         13    1    1    2    0    0  0.18849782666E+01  0.20499198228E+02  0.49844070301E+02  0.53927847901E+02  0.10566000000E+00 0.  1.
        994    1    1    2    0    0  0.13884461273E+02 -0.11117849193E+02  0.52360406240E+01  0.17220116421E+03  0.17120000000E+03 0.  0.
        998    1    1    2    0    0 -0.15769439539E+02 -0.93813490352E+01  0.14449198854E+04  0.14450709879E+04  0.10000000000E+02 0.  1.
</event>
<event>
 5    1  0.1141915E-008  0.3845472E+03  0.7957747E-01  0.3431595E+00
         13   -1    0    0    0    0  0.00000000000E+00  0.00000000000E+00  0.14999999963E+04  0.15000000000E+04  0.10566000000E+00 0.  1.
        994   -1    0    0    0    0 -0.00000000000E+00 -0.00000000000E+00  0.11368683772E-12  0.17120000000E+03  0.17120000000E+03 0.  0.
         13    1    1    2    0    0 -0.67105933752E+01  0.95005019446E+01  0.35835518526E+02  0.37676081971E+02  0.10566000000E+00 0.  1.
        994    1    1    2    0    0  0.33942950566E+01 -0.93596293118E+01  0.21816572104E+01  0.17150312979E+03  0.17120000000E+03 0.  0.
        998    1    1    2    0    0  0.33162983186E+01 -0.14087263281E+00  0.14619828205E+04  0.14620207882E+04  0.10000000000E+02 0.  1.
</event>
<event>
 5    1  0.1141915E-008  0.3811317E+03  0.7957747E-01  0.3446246E+00
         13   -1    0    0    0    0  0.00000000000E+00  0.00000000000E+00  0.14999999963E+04  0.15000000000E+04  0.10566000000E+00 0. -1.
        994   -1    0    0    0    0 -0.00000000000E+00 -0.00000000000E+00  0.11368683772E-12  0.17120000000E+03  0.17120000000E+03 0.  0.
         13    1    1    2    0    0  0.18122327409E+02 -0.18307408453E+03  0.83553458782E+03  0.85554812710E+03  0.10566000000E+00 0. -1.
        994    1    1    2    0    0  0.45872270143E+01  0.21835352540E+03  0.18334521752E+03  0.33260218504E+03  0.17120000000E+03 0.  0.
        998    1    1    2    0    0 -0.22709554423E+02 -0.35279440864E+02  0.48112019094E+03  0.48304968786E+03  0.10000000000E+02 0. -1.
</event>
<event>
 5    1  0.1141915E-008  0.3787757E+03  0.7957747E-01  0.3456507E+00
         13   -1    0    0    0    0  0.00000000000E+00  0.00000000000E+00  0.14999999963E+04  0.15000000000E+04  0.10566000000E+00 0. -1.
        994   -1    0    0    0    0 -0.00000000000E+00 -0.00000000000E+00  0.11368683772E-12  0.17120000000E+03  0.17120000000E+03 0.  0.
         13    1    1    2    0    0  0.12630495391E+01  0.11616106471E+02  0.12215390762E+02  0.16904323683E+02  0.10566000000E+00 0. -1.
        994    1    1    2    0    0 -0.83582274914E+01 -0.94447990017E+01  0.52865342194E+01  0.17174531038E+03  0.17120000000E+03 0.  0.
        998    1    1    2    0    0  0.70951779523E+01 -0.21713074691E+01  0.14824980713E+04  0.14825503659E+04  0.10000000000E+02 0. -1.
</event>
<event>
 5    1  0.1141915E-008  0.3802926E+03  0.7957747E-01  0.3449886E+00
         13   -1    0    0    0    0  0.00000000000E+00  0.00000000000E+00  0.14999999963E+04  0.15000000000E+04  0.10566000000E+00 0. -1.
        994   -1    0    0    0    0 -0.00000000000E+00 -0.00000000000E+00  0.11368683772E-12  0.17120000000E+03  0.17120000000E+03 0.  0.
         13    1    1    2    0    0  0.91580601663E+01 -0.23118002524E+02  0.70579917449E+02  0.74832132255E+02  0.10566000000E+00 0. -1.
        994    1    1    2    0    0 -0.14396246262E+02  0.29671231489E+02  0.76264144767E+01  0.17451428618E+03  0.17120000000E+03 0.  0.
        998    1    1    2    0    0  0.52381860958E+01 -0.65532289649E+01  0.14217936644E+04  0.14218535816E+04  0.10000000000E+02 0. -1.
</event>
<event>
 5    1  0.1141915E-008  0.3834130E+03  0.7957747E-01  0.3436431E+00
         13   -1    0    0    0    0  0.00000000000E+00  0.00000000000E+00  0.14999999963E+04  0.15000000000E+04  0.10566000000E+00 0. -1.
        994   -1    0    0    0    0 -0.00000000000E+00 -0.00000000000E+00  0.11368683772E-12  0.17120000000E+03  0.17120000000E+03 0.  0.
         13    1    1    2    0    0  0.38072100528E+01 -0.15357903091E+02  0.61103853347E+02  0.63119348013E+02  0.10566000000E+00 0. -1.
        994    1    1    2    0    0  0.70576325288E+01 -0.22560355097E+02  0.42694459747E+01  0.17287697350E+03  0.17120000000E+03 0.  0.
        998    1    1    2    0    0 -0.10864842582E+02  0.37918258188E+02  0.14346266970E+04  0.14352036785E+04  0.10000000000E+02 0. -1.
</event>
<event>
 5    1  0.1141915E-008  0.3729141E+03  0.7957747E-01  0.3482605E+00
         13   -1    0    0    0    0  0.00000000000E+00  0.00000000000E+00  0.14999999963E+04  0.15000000000E+04  0.10566000000E+00 0.  1.
        994   -1    0    0    0    0 -0.00000000000E+00 -0.00000000000E+00  0.11368683772E-12  0.17120000000E+03  0.17120000000E+03 0.  0.
         13    1    1    2    0    0 -0.18152784872E+02 -0.60429789724E+02  0.31009550987E+03  0.31644986884E+03  0.10566000000E+00 0.  1.
        994    1    1    2    0    0 -0.76696931339E+01  0.12431874524E+02  0.84845830146E+01  0.17203140366E+03  0.17120000000E+03 0.  0.
        998    1    1    2    0    0  0.25822478006E+02  0.47997915200E+02  0.11814199034E+04  0.11827187275E+04  0.10000000000E+02 0.  1.
</event>
<event>
 5    1  0.1141915E-008  0.3848009E+03  0.7957747E-01  0.3430517E+00
         13   -1    0    0    0    0  0.00000000000E+00  0.00000000000E+00  0.14999999963E+04  0.15000000000E+04  0.10566000000E+00 0. -1.
        994   -1    0    0    0    0 -0.00000000000E+00 -0.00000000000E+00  0.11368683772E-12  0.17120000000E+03  0.17120000000E+03 0.  0.
         13    1    1    2    0    0 -0.11250684587E+01  0.17890910812E+02  0.88455085900E+02  0.90253331542E+02  0.10566000000E+00 0. -1.
        994    1    1    2    0    0  0.17979680535E+01 -0.18266837098E+02  0.28384960286E+01  0.17220455013E+03  0.17120000000E+03 0.  0.
        998    1    1    2    0    0 -0.67289959487E+00  0.37592628631E+00  0.14087064143E+04  0.14087421183E+04  0.10000000000E+02 0.  0.
</event>
<event>
 5    1  0.1141915E-008  0.3784652E+03  0.7957747E-01  0.3457869E+00
         13   -1    0    0    0    0  0.00000000000E+00  0.00000000000E+00  0.14999999963E+04  0.15000000000E+04  0.10566000000E+00 0.  1.
        994   -1    0    0    0    0 -0.00000000000E+00 -0.00000000000E+00  0.11368683772E-12  0.17120000000E+03  0.17120000000E+03 0.  0.
         13    1    1    2    0    0 -0.14569035732E+02  0.25475869309E+02  0.86815362902E+02  0.91641666938E+02  0.10566000000E+00 0.  1.
        994    1    1    2    0    0  0.97725858605E+01 -0.12699918924E+02  0.57732142391E+01  0.17204523062E+03  0.17120000000E+03 0.  0.
        998    1    1    2    0    0  0.47964498720E+01 -0.12775950386E+02  0.14074114191E+04  0.14075131024E+04  0.10000000000E+02 0.  1.
</event>
<event>
 5    1  0.1141915E-008  0.3726395E+03  0.7957747E-01  0.3483848E+00
         13   -1    0    0    0    0  0.00000000000E+00  0.00000000000E+00  0.14999999963E+04  0.15000000000E+04  0.10566000000E+00 0.  1.
        994   -1    0    0    0    0 -0.00000000000E+00 -0.00000000000E+00  0.11368683772E-12  0.17120000000E+03  0.17120000000E+03 0.  0.
         13    1    1    2    0    0  0.19673513662E+02  0.58061092717E+02  0.19101534597E+03  0.20061159285E+03  0.10566000000E+00 0.  1.
        994    1    1    2    0    0 -0.20072464702E+02 -0.72256418442E+02  0.27419033395E+02  0.18890510114E+03  0.17120000000E+03 0.  0.
        998    1    1    2    0    0  0.39895104040E+00  0.14195325725E+02  0.12815656169E+04  0.12816833060E+04  0.10000000000E+02 0.  1.
</event>
<event>
 5    1  0.1141915E-008  0.3832945E+03  0.7957747E-01  0.3436938E+00
         13   -1    0    0    0    0  0.00000000000E+00  0.00000000000E+00  0.14999999963E+04  0.15000000000E+04  0.10566000000E+00 0.  1.
        994   -1    0    0    0    0 -0.00000000000E+00 -0.00000000000E+00  0.11368683772E-12  0.17120000000E+03  0.17120000000E+03 0.  0.
         13    1    1    2    0    0  0.17946209858E+02  0.34789464341E+01  0.64346500069E+02  0.66892845295E+02  0.10566000000E+00 0.  1.
        994    1    1    2    0    0 -0.18006918309E+02 -0.60082573884E+01  0.36718283302E+01  0.17228833561E+03  0.17120000000E+03 0.  0.
        998    1    1    2    0    0  0.60708451302E-01  0.25293109544E+01  0.14319816679E+04  0.14320188191E+04  0.10000000000E+02 0.  1.
</event>
<event>
 5    1  0.1141915E-008  0.3689854E+03  0.7957747E-01  0.3500567E+00
         13   -1    0    0    0    0  0.00000000000E+00  0.00000000000E+00  0.14999999963E+04  0.15000000000E+04  0.10566000000E+00 0. -1.
        994   -1    0    0    0    0 -0.00000000000E+00 -0.00000000000E+00  0.11368683772E-12  0.17120000000E+03  0.17120000000E+03 0.  0.
         13    1    1    2    0    0 -0.11638321638E+02 -0.16619262461E+02  0.15324691511E+02  0.25426516656E+02  0.10566000000E+00 0. -1.
        994    1    1    2    0    0  0.12524816038E+02  0.75530846605E+01  0.11148860289E+02  0.17218495053E+03  0.17120000000E+03 0.  0.
        998    1    1    2    0    0 -0.88649439991E+00  0.90661778004E+01  0.14735264445E+04  0.14735885328E+04  0.10000000000E+02 0. -1.
</event>
<event>
 5    1  0.1141915E-008  0.3816530E+03  0.7957747E-01  0.3443993E+00
         13   -1    0    0    0    0  0.00000000000E+00  0.00000000000E+00  0.14999999963E+04  0.15000000000E+04  0.10566000000E+00 0. -1.
        994   -1    0    0    0    0 -0.00000000000E+00 -0.00000000000E+00  0.11368683772E-12  0.17120000000E+03  0.17120000000E+03 0.  0.
         13    1    1    2    0    0  0.97498372271E+01  0.17333789459E+02  0.60120760401E+02  0.63324849610E+02  0.10566000000E+00 0. -1.
        994    1    1    2    0    0 -0.48537567443E+01 -0.62019384253E+01  0.35073039520E+01  0.17141693083E+03  0.17120000000E+03 0.  0.
        998    1    1    2    0    0 -0.48960804828E+01 -0.11131851033E+02  0.14363719319E+04  0.14364582196E+04  0.10000000000E+02 0. -1.
</event>
<event>
 5    1  0.1141915E-008  0.3816912E+03  0.7957747E-01  0.3443828E+00
         13   -1    0    0    0    0  0.00000000000E+00  0.00000000000E+00  0.14999999963E+04  0.15000000000E+04  0.10566000000E+00 0. -1.
        994   -1    0    0    0    0 -0.00000000000E+00 -0.00000000000E+00  0.11368683772E-12  0.17120000000E+03  0.17120000000E+03 0.  0.
         13    1    1    2    0    0 -0.95698244866E+01  0.62774539673E+01  0.19851512786E+02  0.22914661091E+02  0.10566000000E+00 0. -1.
        994    1    1    2    0    0 -0.15867315952E+02  0.15709263928E+01  0.41274991405E+01  0.17199045257E+03  0.17120000000E+03 0.  0.
        998    1    1    2    0    0  0.25437140439E+02 -0.78483803602E+01  0.14760209844E+04  0.14762948863E+04  0.10000000000E+02 0. -1.
</event>
<event>
 5    1  0.1141915E-008  0.3685793E+03  0.7957747E-01  0.3502446E+00
         13   -1    0    0    0    0  0.00000000000E+00  0.00000000000E+00  0.14999999963E+04  0.15000000000E+04  0.10566000000E+00 0. -1.
        994   -1    0    0    0    0 -0.00000000000E+00 -0.00000000000E+00  0.11368683772E-12  0.17120000000E+03  0.17120000000E+03 0.  0.
         13    1    1    2    0    0 -0.18928120127E+02  0.71150535534E+02  0.28932751255E+03  0.29854830953E+03  0.10566000000E+00 0. -1.
        994    1    1    2    0    0  0.12214727616E+02 -0.28084239120E+02  0.13279490756E+02  0.17442393452E+03  0.17120000000E+03 0.  0.
        998    1    1    2    0    0  0.67133925113E+01 -0.43066296414E+02  0.11973929930E+04  0.11982277560E+04  0.10000000000E+02 0. -1.
</event>
<event>
 5    1  0.1141915E-008  0.3839904E+03  0.7957747E-01  0.3433965E+00
         13   -1    0    0    0    0  0.00000000000E+00  0.00000000000E+00  0.14999999963E+04  0.15000000000E+04  0.10566000000E+00 0. -1.
        994   -1    0    0    0    0 -0.00000000000E+00 -0.00000000000E+00  0.11368683772E-12  0.17120000000E+03  0.17120000000E+03 0.  0.
         13    1    1    2    0    0  0.16503260957E+02 -0.40830034927E+01  0.68421016736E+02  0.70501597393E+02  0.10566000000E+00 0. -1.
        994    1    1    2    0    0 -0.87800457606E+01 -0.95220485048E+00  0.23895922569E+01  0.17144429430E+03  0.17120000000E+03 0.  0.
        998    1    1    2    0    0 -0.77232151962E+01  0.50352083432E+01  0.14291893873E+04  0.14292541083E+04  0.10000000000E+02 0. -1.
</event>
<event>
 5    1  0.1141915E-008  0.3804105E+03  0.7957747E-01  0.3449373E+00
         13   -1    0    0    0    0  0.00000000000E+00  0.00000000000E+00  0.14999999963E+04  0.15000000000E+04  0.10566000000E+00 0.  1.
        994   -1    0    0    0    0 -0.00000000000E+00 -0.00000000000E+00  0.11368683772E-12  0.17120000000E+03  0.17120000000E+03 0.  0.
         13    1    1    2    0    0  0.34114354389E+02  0.33981621267E+02  0.24730567596E+03  0.25194969396E+03  0.10566000000E+00 0.  1.
        994    1    1    2    0    0 -0.30711840099E+02 -0.37728933460E+02  0.11867761976E+02  0.17837312947E+03  0.17120000000E+03 0.  0.
        998    1    1    2    0    0 -0.34025142900E+01  0.37473121924E+01  0.12408265583E+04  0.12408771766E+04  0.10000000000E+02 0.  1.
</event>
<event>
 5    1  0.1141915E-008  0.3805231E+03  0.7957747E-01  0.3448884E+00
         13   -1    0    0    0    0  0.00000000000E+00  0.00000000000E+00  0.14999999963E+04  0.15000000000E+04  0.10566000000E+00 0. -1.
        994   -1    0    0    0    0 -0.00000000000E+00 -0.00000000000E+00  0.11368683772E-12  0.17120000000E+03  0.17120000000E+03 0.  0.
         13    1    1    2    0    0 -0.13803922461E+02  0.12001938712E+02  0.41151193564E+02  0.45033617487E+02  0.10566000000E+00 0. -1.
        994    1    1    2    0    0  0.19696213927E+02 -0.24214565732E+01  0.51845827111E+01  0.17242425639E+03  0.17120000000E+03 0.  0.
        998    1    1    2    0    0 -0.58922914657E+01 -0.95804821388E+01  0.14536642200E+04  0.14537421261E+04  0.10000000000E+02 0. -1.
</event>
<event>
 5    1  0.1141915E-008  0.3697911E+03  0.7957747E-01  0.3496852E+00
         13   -1    0    0    0    0  0.00000000000E+00  0.00000000000E+00  0.14999999963E+04  0.15000000000E+04  0.10566000000E+00 0.  1.
        994   -1    0    0    0    0 -0.00000000000E+00 -0.00000000000E+00  0.11368683772E-12  0.17120000000E+03  0.17120000000E+03 0.  0.
         13    1    1    2    0    0 -0.22952936992E+02 -0.38802667217E+02  0.11619935678E+03  0.12463862155E+03  0.10566000000E+00 0.  1.
        994    1    1    2    0    0 -0.46334151360E+02  0.31941205780E+02  0.20418040313E+02  0.18136546137E+03  0.17120000000E+03 0.  0.
        998    1    1    2    0    0  0.69287088352E+02  0.68614614364E+01  0.13633825992E+04  0.13651959171E+04  0.10000000000E+02 0.  1.
</event>
<event>
 5    1  0.1141915E-008  0.3854212E+03  0.7957747E-01  0.3427888E+00
         13   -1    0    0    0    0  0.00000000000E+00  0.00000000000E+00  0.14999999963E+04  0.15000000000E+04  0.10566000000E+00 0.  1.
        994   -1    0    0    0    0 -0.00000000000E+00 -0.00000000000E+00  0.11368683772E-12  0.17120000000E+03  0.17120000000E+03 0.  0.
         13    1    1    2    0    0 -0.11576220399E+02  0.11818314058E+02  0.87204446117E+02  0.88759833329E+02  0.10566000000E+00 0.  1.
        994    1    1    2    0    0  0.14885257654E+02 -0.19199044773E+02  0.33617929764E+01  0.17294772582E+03  0.17120000000E+03 0.  0.
        998    1    1    2    0    0 -0.33090372548E+01  0.73807307152E+01  0.14094337572E+04  0.14094924408E+04  0.10000000000E+02 0.  1.
</event>
<event>
 5    1  0.1141915E-008  0.3787853E+03  0.7957747E-01  0.3456465E+00
         13   -1    0    0    0    0  0.00000000000E+00  0.00000000000E+00  0.14999999963E+04  0.15000000000E+04  0.10566000000E+00 0.  1.
        994   -1    0    0    0    0 -0.00000000000E+00 -0.00000000000E+00  0.11368683772E-12  0.17120000000E+03  0.17120000000E+03 0.  0.
         13    1    1    2    0    0  0.99661600599E+01  0.13060834523E+02  0.26296018938E+02  0.31006475466E+02  0.10566000000E+00 0.  1.
        994    1    1    2    0    0 -0.21626722779E+02 -0.69871063088E+00  0.63206411040E+01  0.17267771668E+03  0.17120000000E+03 0.  0.
        998    1    1    2    0    0  0.11660562719E+02 -0.12362123892E+02  0.14673833362E+04  0.14675158079E+04  0.10000000000E+02 0.  1.
</event>
<event>
 5    1  0.1141915E-008  0.3790069E+03  0.7957747E-01  0.3455494E+00
         13   -1    0    0    0    0  0.00000000000E+00  0.00000000000E+00  0.14999999963E+04  0.15000000000E+04  0.10566000000E+00 0. -1.
        994   -1    0    0    0    0 -0.00000000000E+00 -0.00000000000E+00  0.11368683772E-12  0.17120000000E+03  0.17120000000E+03 0.  0.
         13    1    1    2    0    0  0.25426401469E+02 -0.49808828684E+02  0.25399804776E+03  0.26008160399E+03  0.10566000000E+00 0. -1.
        994    1    1    2    0    0 -0.21363145292E+02  0.65828902876E+02  0.20871479464E+02  0.18583564536E+03  0.17120000000E+03 0.  0.
        998    1    1    2    0    0 -0.40632561765E+01 -0.16020074192E+02  0.12251304691E+04  0.12252827506E+04  0.10000000000E+02 0. -1.
</event>
<event>
 5    1  0.1141915E-008  0.3754296E+03  0.7957747E-01  0.3471304E+00
         13   -1    0    0    0    0  0.00000000000E+00  0.00000000000E+00  0.14999999963E+04  0.15000000000E+04  0.10566000000E+00 0.  1.
        994   -1    0    0    0    0 -0.00000000000E+00 -0.00000000000E+00  0.11368683772E-12  0.17120000000E+03  0.17120000000E+03 0.  0.
         13    1    1    2    0    0 -0.36930393348E+02  0.36465626591E+02  0.17931212670E+03  0.18667202742E+03  0.10566000000E+00 0.  1.
        994    1    1    2    0    0  0.37982782580E+02 -0.40066498529E+02  0.16875251175E+02  0.18067160867E+03  0.17120000000E+03 0.  0.
        998    1    1    2    0    0 -0.10523892322E+01  0.36008719386E+01  0.13038126184E+04  0.13038563639E+04  0.10000000000E+02 0.  1.
</event>
<event>
 5    1  0.1141915E-008  0.3846858E+03  0.7957747E-01  0.3431006E+00
         13   -1    0    0    0    0  0.00000000000E+00  0.00000000000E+00  0.14999999963E+04  0.15000000000E+04  0.10566000000E+00 0. -1.
        994   -1    0    0    0    0 -0.00000000000E+00 -0.00000000000E+00  0.11368683772E-12  0.17120000000E+03  0.17120000000E+03 0.  0.
         13    1    1    2    0    0  0.15331899765E+02  0.71485583638E+01  0.94864999155E+02  0.96361549727E+02  0.10566000000E+00 0. -1.
        994    1    1    2    0    0  0.27920341697E+01  0.20408310674E+02  0.31842515346E+01  0.17246412397E+03  0.17120000000E+03 0.  0.
        998    1    1    2    0    0 -0.18123933935E+02 -0.27556869037E+02  0.14019507456E+04  0.14023743263E+04  0.10000000000E+02 0. -1.
</event>
<event>
 5    1  0.1141915E-008  0.3806198E+03  0.7957747E-01  0.3448464E+00
         13   -1    0    0    0    0  0.00000000000E+00  0.00000000000E+00  0.14999999963E+04  0.15000000000E+04  0.10566000000E+00 0. -1.
        994   -1    0    0    0    0 -0.00000000000E+00 -0.00000000000E+00  0.11368683772E-12  0.17120000000E+03  0.17120000000E+03 0.  0.
         13    1    1    2    0    0 -0.11150744952E+02  0.12372458484E+02  0.38550391627E+02  0.41994769919E+02  0.10566000000E+00 0. -1.
        994    1    1    2    0    0 -0.12208814316E+02  0.12980078031E+02  0.48806584889E+01  0.17219407191E+03  0.17120000000E+03 0.  0.
        998    1    1    2    0    0  0.23359559268E+02 -0.25352536515E+02  0.14565689462E+04  0.14570111582E+04  0.10000000000E+02 0. -1.
</event>
<event>
 5    1  0.1496588E-008  0.3853982E+03  0.7957747E-01  0.3427985E+00
         13   -1    0    0    0    0  0.00000000000E+00  0.00000000000E+00  0.14999999963E+04  0.15000000000E+04  0.10566000000E+00 0.  1.
        994   -1    0    0    0    0 -0.00000000000E+00 -0.00000000000E+00  0.11368683772E-12  0.17120000000E+03  0.17120000000E+03 0.  0.
         13    1    1    2    0    0 -0.11497167287E+02  0.93473400372E+01  0.73525566319E+02  0.75003851154E+02  0.10566000000E+00 0.  1.
        994    1    1    2    0    0  0.14457440014E+02 -0.77823984963E+01  0.23184844659E+01  0.17200115892E+03  0.17120000000E+03 0.  0.
        998    1    1    2    0    0 -0.29602727269E+01 -0.15649415409E+01  0.14241559455E+04  0.14241949899E+04  0.10000000000E+02 0.  1.
</event>
<event>
 5    1  0.1141915E-008  0.3710040E+03  0.7957747E-01  0.3491289E+00
         13   -1    0    0    0    0  0.00000000000E+00  0.00000000000E+00  0.14999999963E+04  0.15000000000E+04  0.10566000000E+00 0.  1.
        994   -1    0    0    0    0 -0.00000000000E+00 -0.00000000000E+00  0.11368683772E-12  0.17120000000E+03  0.17120000000E+03 0.  0.
         13    1    1    2    0    0 -0.61793863888E+02  0.38608822625E+02  0.31178118360E+03  0.32018219877E+03  0.10566000000E+00 0.  1.
        994    1    1    2    0    0 -0.14287027928E+02 -0.11718680682E+02  0.12669483620E+02  0.17265978819E+03  0.17120000000E+03 0.  0.
        998    1    1    2    0    0  0.76080891816E+02 -0.26890141942E+02  0.11755493291E+04  0.11783580130E+04  0.10000000000E+02 0.  1.
</event>
<event>
 5    1  0.1141915E-008  0.3849061E+03  0.7957747E-01  0.3430070E+00
         13   -1    0    0    0    0  0.00000000000E+00  0.00000000000E+00  0.14999999963E+04  0.15000000000E+04  0.10566000000E+00 0. -1.
        994   -1    0    0    0    0 -0.00000000000E+00 -0.00000000000E+00  0.11368683772E-12  0.17120000000E+03  0.17120000000E+03 0.  0.
         13    1    1    2    0    0 -0.87280638445E+01 -0.11434664419E+02  0.61777405071E+02  0.63430194625E+02  0.10566000000E+00 0. -1.
        994    1    1    2    0    0  0.10820513479E+02  0.33606883682E+01  0.20991875865E+01  0.17158736645E+03  0.17120000000E+03 0.  0.
        998    1    1    2    0    0 -0.20924496350E+01  0.80739760508E+01  0.14361234036E+04  0.14361824389E+04  0.10000000000E+02 0. -1.
</event>
<event>
 5    1  0.1141915E-008  0.3840697E+03  0.7957747E-01  0.3433627E+00
         13   -1    0    0    0    0  0.00000000000E+00  0.00000000000E+00  0.14999999963E+04  0.15000000000E+04  0.10566000000E+00 0.  1.
        994   -1    0    0    0    0 -0.00000000000E+00 -0.00000000000E+00  0.11368683772E-12  0.17120000000E+03  0.17120000000E+03 0.  0.
         13    1    1    2    0    0  0.15704947256E+02  0.18864014932E+02  0.12916016895E+03  0.13147188610E+03  0.10566000000E+00 0.  1.
        994    1    1    2    0    0 -0.18223924282E+02 -0.21846435089E+02  0.47670923941E+01  0.17361320028E+03  0.17120000000E+03 0.  0.
        998    1    1    2    0    0  0.25189770252E+01  0.29824201564E+01  0.13660727349E+04  0.13661149136E+04  0.10000000000E+02 0.  1.
</event>
<event>
 5    1  0.1141915E-008  0.2810500E+03  0.7957747E-01  0.4041340E+00
         13   -1    0    0    0    0  0.00000000000E+00  0.00000000000E+00  0.14999999963E+04  0.15000000000E+04  0.10566000000E+00 0.  1.
        994   -1    0    0    0    0 -0.00000000000E+00 -0.00000000000E+00  0.11368683772E-12  0.17120000000E+03  0.17120000000E+03 0.  0.
         13    1    1    2    0    0  0.17692997276E+03 -0.15784736040E+02  0.53368302904E+03  0.56246863006E+03  0.10566000000E+00 0.  1.
        994    1    1    2    0    0 -0.16121820468E+03  0.15055875242E+02  0.12412879423E+03  0.26633697914E+03  0.17120000000E+03 0.  0.
        998    1    1    2    0    0 -0.15711768071E+02  0.72886079821E+00  0.84218817301E+03  0.84239439080E+03  0.10000000000E+02 0.  1.
</event>
<event>
 5    1  0.1141915E-008  0.3840930E+03  0.7957747E-01  0.3433528E+00
         13   -1    0    0    0    0  0.00000000000E+00  0.00000000000E+00  0.14999999963E+04  0.15000000000E+04  0.10566000000E+00 0.  1.
        994   -1    0    0    0    0 -0.00000000000E+00 -0.00000000000E+00  0.11368683772E-12  0.17120000000E+03  0.17120000000E+03 0.  0.
         13    1    1    2    0    0  0.11306978945E+02 -0.10645503053E+02  0.56281286444E+02  0.58384663019E+02  0.10566000000E+00 0.  1.
        994    1    1    2    0    0 -0.13494216983E+02  0.66894163074E+01  0.28296872178E+01  0.17188452319E+03  0.17120000000E+03 0.  0.
        998    1    1    2    0    0  0.21872380388E+01  0.39560867452E+01  0.14408890226E+04  0.14409308138E+04  0.10000000000E+02 0.  1.
</event>
<event>
 5    1  0.1141915E-008  0.3842785E+03  0.7957747E-01  0.3432738E+00
         13   -1    0    0    0    0  0.00000000000E+00  0.00000000000E+00  0.14999999963E+04  0.15000000000E+04  0.10566000000E+00 0. -1.
        994   -1    0    0    0    0 -0.00000000000E+00 -0.00000000000E+00  0.11368683772E-12  0.17120000000E+03  0.17120000000E+03 0.  0.
         13    1    1    2    0    0 -0.26863977503E+00  0.17557138011E+02  0.77406665503E+02  0.79373347484E+02  0.10566000000E+00 0. -1.
        994    1    1    2    0    0 -0.33310954135E+01 -0.10979193505E+02  0.24228134428E+01  0.17160113319E+03  0.17120000000E+03 0.  0.
        998    1    1    2    0    0  0.35997351886E+01 -0.65779445060E+01  0.14201705173E+04  0.14202255193E+04  0.10000000000E+02 0. -1.
</event>
<event>
 5    1  0.1141915E-008  0.3689731E+03  0.7957747E-01  0.3500624E+00
         13   -1    0    0    0    0  0.00000000000E+00  0.00000000000E+00  0.14999999963E+04  0.15000000000E+04  0.10566000000E+00 0.  1.
        994   -1    0    0    0    0 -0.00000000000E+00 -0.00000000000E+00  0.11368683772E-12  0.17120000000E+03  0.17120000000E+03 0.  0.
         13    1    1    2    0    0 -0.98404948487E+01 -0.10581412920E+02  0.59266252796E+01  0.15618504713E+02  0.10566000000E+00 0.  1.
        994    1    1    2    0    0  0.36372014899E+02  0.48356692584E+00  0.14412034357E+02  0.17561407700E+03  0.17120000000E+03 0.  0.
        998    1    1    2    0    0 -0.26531520050E+02  0.10097845994E+02  0.14796613366E+04  0.14799674183E+04  0.10000000000E+02 0.  1.
</event>
<event>
 5    1  0.1141915E-008  0.3809553E+03  0.7957747E-01  0.3447010E+00
         13   -1    0    0    0    0  0.00000000000E+00  0.00000000000E+00  0.14999999963E+04  0.15000000000E+04  0.10566000000E+00 0. -1.
        994   -1    0    0    0    0 -0.00000000000E+00 -0.00000000000E+00  0.11368683772E-12  0.17120000000E+03  0.17120000000E+03 0.  0.
         13    1    1    2    0    0  0.16236142582E+02 -0.10990041447E+02  0.54514129039E+02  0.57932674424E+02  0.10566000000E+00 0. -1.
        994    1    1    2    0    0  0.15673648040E+02  0.20209453870E+02  0.58344248064E+01  0.17319805363E+03  0.17120000000E+03 0.  0.
        998    1    1    2    0    0 -0.31909790622E+02 -0.92194124232E+01  0.14396514424E+04  0.14400692719E+04  0.10000000000E+02 0. -1.
</event>
<event>
 5    1  0.1141915E-008  0.3843663E+03  0.7957747E-01  0.3432364E+00
         13   -1    0    0    0    0  0.00000000000E+00  0.00000000000E+00  0.14999999963E+04  0.15000000000E+04  0.10566000000E+00 0.  1.
        994   -1    0    0    0    0 -0.00000000000E+00 -0.00000000000E+00  0.11368683772E-12  0.17120000000E+03  0.17120000000E+03 0.  0.
         13    1    1    2    0    0  0.49782172020E+01  0.10093176060E+02  0.31880041986E+02  0.33808328716E+02  0.10566000000E+00 0.  1.
        994    1    1    2    0    0 -0.23815696667E+01 -0.92613550862E+01  0.22465050798E+01  0.17148157731E+03  0.17120000000E+03 0.  0.
        998    1    1    2    0    0 -0.25966475353E+01 -0.83182097362E+00  0.14658734492E+04  0.14659100940E+04  0.10000000000E+02 0.  1.
</event>
<event>
 5    1  0.1141915E-008  0.3768511E+03  0.7957747E-01  0.3464985E+00
         13   -1    0    0    0    0  0.00000000000E+00  0.00000000000E+00  0.14999999963E+04  0.15000000000E+04  0.10566000000E+00 0.  1.
        994   -1    0    0    0    0 -0.00000000000E+00 -0.00000000000E+00  0.11368683772E-12  0.17120000000E+03  0.17120000000E+03 0.  0.
         13    1    1    2    0    0 -0.34174134900E+02 -0.27263882041E+02  0.14064265152E+03  0.14728053962E+03  0.10566000000E+00 0.  1.
        994    1    1    2    0    0  0.55552765105E+02  0.20719784546E+02  0.17700320147E+02  0.18203889836E+03  0.17120000000E+03 0.  0.
        998    1    1    2    0    0 -0.21378630205E+02  0.65440974947E+01  0.13416570246E+04  0.13418805620E+04  0.10000000000E+02 0.  1.
</event>
<event>
 5    1  0.1141915E-008  0.3827293E+03  0.7957747E-01  0.3439360E+00
         13   -1    0    0    0    0  0.00000000000E+00  0.00000000000E+00  0.14999999963E+04  0.15000000000E+04  0.10566000000E+00 0. -1.
        994   -1    0    0    0    0 -0.00000000000E+00 -0.00000000000E+00  0.11368683772E-12  0.17120000000E+03  0.17120000000E+03 0.  0.
         13    1    1    2    0    0  0.14897277753E+02 -0.12497746179E+02  0.64212342837E+02  0.67092165568E+02  0.10566000000E+00 0. -1.
        994    1    1    2    0    0 -0.13482309138E+02  0.19760704267E+02  0.46599177933E+01  0.17292603311E+03  0.17120000000E+03 0.  0.
        998    1    1    2    0    0 -0.14149686145E+01 -0.72629580879E+01  0.14311277356E+04  0.14311818013E+04  0.10000000000E+02 0. -1.
</event>
<event>
 5    1  0.1141915E-008  0.3771967E+03  0.7957747E-01  0.3463456E+00
         13   -1    0    0    0    0  0.00000000000E+00  0.00000000000E+00  0.14999999963E+04  0.15000000000E+04  0.10566000000E+00 0.  1.
        994   -1    0    0    0    0 -0.00000000000E+00 -0.00000000000E+00  0.11368683772E-12  0.17120000000E+03  0.17120000000E+03 0.  0.
         13    1    1    2    0    0 -0.24865052785E+02 -0.12048739855E+02  0.63887599285E+02  0.69606605207E+02  0.10566000000E+00 0.  1.
        994    1    1    2    0    0  0.30992097165E+02  0.24244555304E+01  0.88226706748E+01  0.17422303978E+03  0.17120000000E+03 0.  0.
        998    1    1    2    0    0 -0.61270443799E+01  0.96242843244E+01  0.14272897263E+04  0.14273703550E+04  0.10000000000E+02 0.  1.
</event>
<event>
 5    1  0.1141915E-008  0.3769444E+03  0.7957747E-01  0.3464572E+00
         13   -1    0    0    0    0  0.00000000000E+00  0.00000000000E+00  0.14999999963E+04  0.15000000000E+04  0.10566000000E+00 0.  1.
        994   -1    0    0    0    0 -0.00000000000E+00 -0.00000000000E+00  0.11368683772E-12  0.17120000000E+03  0.17120000000E+03 0.  0.
         13    1    1    2    0    0  0.23595860840E+02 -0.64526537513E+02  0.31595533518E+03  0.32333917747E+03  0.10566000000E+00 0.  1.
        994    1    1    2    0    0 -0.30104421192E+02  0.66322774854E+02  0.23813985808E+02  0.18756740804E+03  0.17120000000E+03 0.  0.
        998    1    1    2    0    0  0.65085603524E+01 -0.17962373414E+01  0.11602306753E+04  0.11602934145E+04  0.10000000000E+02 0.  1.
</event>
<event>
 5    1  0.1141915E-008  0.3841252E+03  0.7957747E-01  0.3433391E+00
         13   -1    0    0    0    0  0.00000000000E+00  0.00000000000E+00  0.14999999963E+04  0.15000000000E+04  0.10566000000E+00 0. -1.
        994   -1    0    0    0    0 -0.00000000000E+00 -0.00000000000E+00  0.11368683772E-12  0.17120000000E+03  0.17120000000E+03 0.  0.
         13    1    1    2    0    0 -0.27639184411E+01  0.17009891333E+02  0.72495721665E+02  0.74515880671E+02  0.10566000000E+00 0. -1.
        994    1    1    2    0    0  0.34644067170E+01 -0.84739101602E+01  0.23415577451E+01  0.17146058486E+03  0.17120000000E+03 0.  0.
        998    1    1    2    0    0 -0.70048827597E+00 -0.85359811732E+01  0.14251627169E+04  0.14252235345E+04  0.10000000000E+02 0. -1.
</event>
<event>
 5    1  0.1141915E-008  0.3854595E+03  0.7957747E-01  0.3427726E+00
         13   -1    0    0    0    0  0.00000000000E+00  0.00000000000E+00  0.14999999963E+04  0.15000000000E+04  0.10566000000E+00 0. -1.
        994   -1    0    0    0    0 -0.00000000000E+00 -0.00000000000E+00  0.11368683772E-12  0.17120000000E+03  0.17120000000E+03 0.  0.
         13    1    1    2    0    0  0.14245016779E+02  0.10883351827E+02  0.10665829606E+03  0.10815438564E+03  0.10566000000E+00 0. -1.
        994    1    1    2    0    0 -0.10854609435E+02 -0.19318905482E+02  0.30162839151E+01  0.17265451232E+03  0.17120000000E+03 0.  0.
        998    1    1    2    0    0 -0.33904073433E+01  0.84355536546E+01  0.13903254163E+04  0.13903911020E+04  0.10000000000E+02 0. -1.
</event>
<event>
 5    1  0.1141915E-008  0.3857214E+03  0.7957747E-01  0.3426619E+00
         13   -1    0    0    0    0  0.00000000000E+00  0.00000000000E+00  0.14999999963E+04  0.15000000000E+04  0.10566000000E+00 0. -1.
        994   -1    0    0    0    0 -0.00000000000E+00 -0.00000000000E+00  0.11368683772E-12  0.17120000000E+03  0.17120000000E+03 0.  0.
         13    1    1    2    0    0 -0.84067835156E+01 -0.10177765912E+02  0.65189851305E+02  0.66513072439E+02  0.10566000000E+00 0. -1.
        994    1    1    2    0    0  0.11222859613E+02  0.12525347086E+02  0.22009478712E+01  0.17203813841E+03  0.17120000000E+03 0.  0.
        998    1    1    2    0    0 -0.28160760970E+01 -0.23475811745E+01  0.14326091971E+04  0.14326487891E+04  0.10000000000E+02 0. -1.
</event>
<event>
 5    1  0.1141915E-008  0.3814617E+03  0.7957747E-01  0.3444819E+00
         13   -1    0    0    0    0  0.00000000000E+00  0.00000000000E+00  0.14999999963E+04  0.15000000000E+04  0.10566000000E+00 0. -1.
        994   -1    0    0    0    0 -0.00000000000E+00 -0.00000000000E+00  0.11368683772E-12  0.17120000000E+03  0.17120000000E+03 0.  0.
         13    1    1    2    0    0  0.37590618995E+02 -0.13490973607E+02  0.39642800674E+02  0.56272762635E+02  0.10566000000E+00 0. -1.
        994    1    1    2    0    0 -0.34655769211E+02  0.40849173219E+00  0.21520857148E+02  0.17599368312E+03  0.17120000000E+03 0.  0.
        998    1    1    2    0    0 -0.29348497839E+01  0.13082481875E+02  0.14388363385E+04  0.14389335542E+04  0.10000000000E+02 0. -1.
</event>
<event>
 5    1  0.1141915E-008  0.3826014E+03  0.7957747E-01  0.3439909E+00
         13   -1    0    0    0    0  0.00000000000E+00  0.00000000000E+00  0.14999999963E+04  0.15000000000E+04  0.10566000000E+00 0.  1.
        994   -1    0    0    0    0 -0.00000000000E+00 -0.00000000000E+00  0.11368683772E-12  0.17120000000E+03  0.17120000000E+03 0.  0.
         13    1    1    2    0    0  0.13555031052E+02 -0.32887613731E+02  0.19385686143E+03  0.19709344964E+03  0.10566000000E+00 0.  1.
        994    1    1    2    0    0 -0.17844615204E+02  0.33021473599E+02  0.75093064597E+01  0.17542712930E+03  0.17120000000E+03 0.  0.
        998    1    1    2    0    0  0.42895841517E+01 -0.13385986813E+00  0.12986338284E+04  0.12986794211E+04  0.10000000000E+02 0.  1.
</event>
<event>
 5    1  0.1141915E-008  0.3822980E+03  0.7957747E-01  0.3441213E+00
         13   -1    0    0    0    0  0.00000000000E+00  0.00000000000E+00  0.14999999963E+04  0.15000000000E+04  0.10566000000E+00 0. -1.
        994   -1    0    0    0    0 -0.00000000000E+00 -0.00000000000E+00  0.11368683772E-12  0.17120000000E+03  0.17120000000E+03 0.  0.
         13    1    1    2    0    0 -0.71194391414E+01  0.20274629948E+02  0.65102877599E+02  0.68557587975E+02  0.10566000000E+00 0. -1.
        994    1    1    2    0    0 -0.81998277217E+01 -0.54005270726E+02  0.12940934260E+02  0.18016857168E+03  0.17120000000E+03 0.  0.
        998    1    1    2    0    0  0.15319266863E+02  0.33730640778E+02  0.14219561844E+04  0.14224738403E+04  0.10000000000E+02 0. -1.
</event>
<event>
 5    1  0.1141915E-008  0.3743513E+03  0.7957747E-01  0.3476129E+00
         13   -1    0    0    0    0  0.00000000000E+00  0.00000000000E+00  0.14999999963E+04  0.15000000000E+04  0.10566000000E+00 0.  1.
        994   -1    0    0    0    0 -0.00000000000E+00 -0.00000000000E+00  0.11368683772E-12  0.17120000000E+03  0.17120000000E+03 0.  0.
         13    1    1    2    0    0  0.22705854179E-01 -0.18430568333E+02  0.19214130248E+02  0.26624806663E+02  0.10566000000E+00 0.  1.
        994    1    1    2    0    0 -0.54590724329E+01  0.52797229634E+02  0.16671299775E+02  0.18001311387E+03  0.17120000000E+03 0.  0.
        998    1    1    2    0    0  0.54363665787E+01 -0.34366661302E+02  0.14641145663E+04  0.14645620795E+04  0.10000000000E+02 0.  1.
</event>
<event>
 5    1  0.1141915E-008  0.3847894E+03  0.7957747E-01  0.3430566E+00
         13   -1    0    0    0    0  0.00000000000E+00  0.00000000000E+00  0.14999999963E+04  0.15000000000E+04  0.10566000000E+00 0. -1.
        994   -1    0    0    0    0 -0.00000000000E+00 -0.00000000000E+00  0.11368683772E-12  0.17120000000E+03  0.17120000000E+03 0.  0.
         13    1    1    2    0    0  0.12398561247E+02 -0.23894343731E+01  0.44670821561E+02  0.46421193227E+02  0.10566000000E+00 0. -1.
        994    1    1    2    0    0 -0.12714005251E+02  0.38952363795E+01  0.23168560695E+01  0.17173126279E+03  0.17120000000E+03 0.  0.
        998    1    1    2    0    0  0.31544400355E+00 -0.15058020064E+01  0.14530123186E+04  0.14530475440E+04  0.10000000000E+02 0. -1.
</event>
<event>
 5    1  0.1141915E-008  0.3859019E+03  0.7957747E-01  0.3425856E+00
         13   -1    0    0    0    0  0.00000000000E+00  0.00000000000E+00  0.14999999963E+04  0.15000000000E+04  0.10566000000E+00 0. -1.
        994   -1    0    0    0    0 -0.00000000000E+00 -0.00000000000E+00  0.11368683772E-12  0.17120000000E+03  0.17120000000E+03 0.  0.
         13    1    1    2    0    0 -0.95829715981E+01  0.78730664168E+01  0.61574780679E+02  0.62811490184E+02  0.10566000000E+00 0. -1.
        994    1    1    2    0    0  0.13103087851E+02 -0.11366714947E+02  0.21702992601E+01  0.17209021854E+03  0.17120000000E+03 0.  0.
        998    1    1    2    0    0 -0.35201162527E+01  0.34936485303E+01  0.14362549163E+04  0.14362982913E+04  0.10000000000E+02 0. -1.
</event>
<event>
 5    1  0.1141915E-008  0.4010774E+03  0.7957747E-01  0.3364222E+00
         13   -1    0    0    0    0  0.00000000000E+00  0.00000000000E+00  0.14999999963E+04  0.15000000000E+04  0.10566000000E+00 0. -1.
        994   -1    0    0    0    0 -0.00000000000E+00 -0.00000000000E+00  0.11368683772E-12  0.17120000000E+03  0.17120000000E+03 0.  0.
         13    1    1    2    0    0  0.49587277522E+02 -0.32164012869E+02  0.49854816654E+02  0.77323578057E+02  0.10566000000E+00 0. -1.
        994    1    1    2    0    0 -0.39525456509E+02  0.47031123276E+02  0.43418226422E+02  0.18699938678E+03  0.17120000000E+03 0.  0.
        998    1    1    2    0    0 -0.10061821012E+02 -0.14867110407E+02  0.14067269532E+04  0.14068770352E+04  0.10000000000E+02 0. -1.
</event>
<event>
 5    1  0.1141915E-008  0.3851557E+03  0.7957747E-01  0.3429012E+00
         13   -1    0    0    0    0  0.00000000000E+00  0.00000000000E+00  0.14999999963E+04  0.15000000000E+04  0.10566000000E+00 0.  1.
        994   -1    0    0    0    0 -0.00000000000E+00 -0.00000000000E+00  0.11368683772E-12  0.17120000000E+03  0.17120000000E+03 0.  0.
         13    1    1    2    0    0  0.10862963265E+02 -0.95441189501E+01  0.67805847064E+02  0.69330644289E+02  0.10566000000E+00 0.  1.
        994    1    1    2    0    0 -0.54892497466E+01  0.69420166525E+01  0.18103639363E+01  0.17143815467E+03  0.17120000000E+03 0.  0.
        998    1    1    2    0    0 -0.53737135186E+01  0.26021022976E+01  0.14303837853E+04  0.14304312010E+04  0.10000000000E+02 0.  1.
</event>
<event>
 5    1  0.1141915E-008  0.3832461E+03  0.7957747E-01  0.3437145E+00
         13   -1    0    0    0    0  0.00000000000E+00  0.00000000000E+00  0.14999999963E+04  0.15000000000E+04  0.10566000000E+00 0.  1.
        994   -1    0    0    0    0 -0.00000000000E+00 -0.00000000000E+00  0.11368683772E-12  0.17120000000E+03  0.17120000000E+03 0.  0.
         13    1    1    2    0    0 -0.14709083438E+02  0.13952971355E+02  0.92955040258E+02  0.95140386895E+02  0.10566000000E+00 0.  1.
        994    1    1    2    0    0 -0.23824723962E+00  0.11381525340E+02  0.29321542127E+01  0.17160312762E+03  0.17120000000E+03 0.  0.
        998    1    1    2    0    0  0.14947330677E+02 -0.25334496695E+02  0.14041128018E+04  0.14044564855E+04  0.10000000000E+02 0.  1.
</event>
<event>
 5    1  0.1141915E-008  0.3831152E+03  0.7957747E-01  0.3437705E+00
         13   -1    0    0    0    0  0.00000000000E+00  0.00000000000E+00  0.14999999963E+04  0.15000000000E+04  0.10566000000E+00 0. -1.
        994   -1    0    0    0    0 -0.00000000000E+00 -0.00000000000E+00  0.11368683772E-12  0.17120000000E+03  0.17120000000E+03 0.  0.
         13    1    1    2    0    0  0.91851915910E+01  0.40516595418E+01  0.18437768159E+02  0.20993955043E+02  0.10566000000E+00 0. -1.
        994    1    1    2    0    0 -0.10563519795E+02 -0.32212713682E+01  0.29724586085E+01  0.17158158424E+03  0.17120000000E+03 0.  0.
        998    1    1    2    0    0  0.13783282035E+01 -0.83038817365E+00  0.14785897695E+04  0.14786244607E+04  0.10000000000E+02 0. -1.
</event>
<event>
 5    1  0.1141915E-008  0.3855180E+03  0.7957747E-01  0.3427478E+00
         13   -1    0    0    0    0  0.00000000000E+00  0.00000000000E+00  0.14999999963E+04  0.15000000000E+04  0.10566000000E+00 0. -1.
        994   -1    0    0    0    0 -0.00000000000E+00 -0.00000000000E+00  0.11368683772E-12  0.17120000000E+03  0.17120000000E+03 0.  0.
         13    1    1    2    0    0  0.69750923236E+01  0.96790752474E+01  0.52445867447E+02  0.53785840022E+02  0.10566000000E+00 0. -1.
        994    1    1    2    0    0 -0.79115489522E+01 -0.27756921811E+01  0.16040188973E+01  0.17141268900E+03  0.17120000000E+03 0.  0.
        998    1    1    2    0    0  0.93645662854E+00 -0.69033830662E+01  0.14459501099E+04  0.14460014710E+04  0.10000000000E+02 0. -1.
</event>
<event>
 5    1  0.1141915E-008  0.3849852E+03  0.7957747E-01  0.3429735E+00
         13   -1    0    0    0    0  0.00000000000E+00  0.00000000000E+00  0.14999999963E+04  0.15000000000E+04  0.10566000000E+00 0. -1.
        994   -1    0    0    0    0 -0.00000000000E+00 -0.00000000000E+00  0.11368683772E-12  0.17120000000E+03  0.17120000000E+03 0.  0.
         13    1    1    2    0    0 -0.11922820710E+02  0.88719060613E+01  0.66073354445E+02  0.67724173694E+02  0.10566000000E+00 0. -1.
        994    1    1    2    0    0  0.10534845264E+02 -0.76739375103E+01  0.21963649659E+01  0.17170945315E+03  0.17120000000E+03 0.  0.
        998    1    1    2    0    0  0.13879754454E+01 -0.11979685510E+01  0.14317302769E+04  0.14317663732E+04  0.10000000000E+02 0. -1.
</event>
<event>
 5    1  0.1141915E-008  0.3795258E+03  0.7957747E-01  0.3453226E+00
         13   -1    0    0    0    0  0.00000000000E+00  0.00000000000E+00  0.14999999963E+04  0.15000000000E+04  0.10566000000E+00 0. -1.
        994   -1    0    0    0    0 -0.00000000000E+00 -0.00000000000E+00  0.11368683772E-12  0.17120000000E+03  0.17120000000E+03 0.  0.
         13    1    1    2    0    0 -0.22818676394E+02  0.27612502866E+02  0.18484942803E+03  0.18828824847E+03  0.10566000000E+00 0. -1.
        994    1    1    2    0    0  0.40734957997E+01  0.19270328896E+02  0.56726583518E+01  0.17242261452E+03  0.17120000000E+03 0.  0.
        998    1    1    2    0    0  0.18745180595E+02 -0.46882831761E+02  0.13094779099E+04  0.13104891370E+04  0.10000000000E+02 0. -1.
</event>
<event>
 5    1  0.1141915E-008  0.3093312E+03  0.7957747E-01  0.3831575E+00
         13   -1    0    0    0    0  0.00000000000E+00  0.00000000000E+00  0.14999999963E+04  0.15000000000E+04  0.10566000000E+00 0.  1.
        994   -1    0    0    0    0 -0.00000000000E+00 -0.00000000000E+00  0.11368683772E-12  0.17120000000E+03  0.17120000000E+03 0.  0.
         13    1    1    2    0    0 -0.11436553758E+03  0.19884322281E+03  0.31330024501E+03  0.38829776992E+03  0.10566000000E+00 0.  1.
        994    1    1    2    0    0  0.13252075878E+03 -0.26096138643E+03  0.57367347199E+03  0.66638824208E+03  0.17120000000E+03 0.  0.
        998    1    1    2    0    0 -0.18155221200E+02  0.62118163627E+02  0.61302627928E+03  0.61651398800E+03  0.10000000000E+02 0.  1.
</event>
<event>
 5    1  0.1141915E-008  0.3793501E+03  0.7957747E-01  0.3453993E+00
         13   -1    0    0    0    0  0.00000000000E+00  0.00000000000E+00  0.14999999963E+04  0.15000000000E+04  0.10566000000E+00 0. -1.
        994   -1    0    0    0    0 -0.00000000000E+00 -0.00000000000E+00  0.11368683772E-12  0.17120000000E+03  0.17120000000E+03 0.  0.
         13    1    1    2    0    0  0.13369246499E+02 -0.10278898097E+02  0.29961233493E+02  0.34381378310E+02  0.10566000000E+00 0. -1.
        994    1    1    2    0    0 -0.11108147646E+02  0.65786769304E+01  0.50201466782E+01  0.17175945915E+03  0.17120000000E+03 0.  0.
        998    1    1    2    0    0 -0.22610988533E+01  0.37002211671E+01  0.14650186161E+04  0.14650591625E+04  0.10000000000E+02 0. -1.
</event>
<event>
 5    1  0.1141915E-008  0.3789018E+03  0.7957747E-01  0.3455954E+00
         13   -1    0    0    0    0  0.00000000000E+00  0.00000000000E+00  0.14999999963E+04  0.15000000000E+04  0.10566000000E+00 0.  1.
        994   -1    0    0    0    0 -0.00000000000E+00 -0.00000000000E+00  0.11368683772E-12  0.17120000000E+03  0.17120000000E+03 0.  0.
         13    1    1    2    0    0  0.11819475308E+01 -0.11006715408E+02  0.10805333793E+02  0.15469686049E+02  0.10566000000E+00 0.  1.
        994    1    1    2    0    0 -0.36960435650E+01  0.14889040374E+02  0.54785051787E+01  0.17197324873E+03  0.17120000000E+03 0.  0.
        998    1    1    2    0    0  0.25140960343E+01 -0.38823249654E+01  0.14837161573E+04  0.14837570652E+04  0.10000000000E+02 0.  1.
</event>
<event>
 5    1  0.1141915E-008  0.3816952E+03  0.7957747E-01  0.3443810E+00
         13   -1    0    0    0    0  0.00000000000E+00  0.00000000000E+00  0.14999999963E+04  0.15000000000E+04  0.10566000000E+00 0.  1.
        994   -1    0    0    0    0 -0.00000000000E+00 -0.00000000000E+00  0.11368683772E-12  0.17120000000E+03  0.17120000000E+03 0.  0.
         13    1    1    2    0    0 -0.28217860456E+02 -0.13724833766E+01  0.16303138868E+03  0.16546110183E+03  0.10566000000E+00 0.  1.
        994    1    1    2    0    0 -0.22277805083E+02  0.16668933174E+02  0.58576079690E+01  0.17354511086E+03  0.17120000000E+03 0.  0.
        998    1    1    2    0    0  0.50495665539E+02 -0.15296449798E+02  0.13311109996E+04  0.13321937873E+04  0.10000000000E+02 0.  1.
</event>
<event>
 5    1  0.1141915E-008  0.3857601E+03  0.7957747E-01  0.3426455E+00
         13   -1    0    0    0    0  0.00000000000E+00  0.00000000000E+00  0.14999999963E+04  0.15000000000E+04  0.10566000000E+00 0.  1.
        994   -1    0    0    0    0 -0.00000000000E+00 -0.00000000000E+00  0.11368683772E-12  0.17120000000E+03  0.17120000000E+03 0.  0.
         13    1    1    2    0    0 -0.55480137882E+01  0.12204218587E+02  0.73757335124E+02  0.74965852606E+02  0.10566000000E+00 0.  1.
        994    1    1    2    0    0 -0.51356696767E+01 -0.93073647014E+01  0.16240141193E+01  0.17153739989E+03  0.17120000000E+03 0.  0.
        998    1    1    2    0    0  0.10683683465E+02 -0.28968538854E+01  0.14246186470E+04  0.14246967475E+04  0.10000000000E+02 0.  1.
</event>
<event>
 5    1  0.1141915E-008  0.3844297E+03  0.7957747E-01  0.3432095E+00
         13   -1    0    0    0    0  0.00000000000E+00  0.00000000000E+00  0.14999999963E+04  0.15000000000E+04  0.10566000000E+00 0. -1.
        994   -1    0    0    0    0 -0.00000000000E+00 -0.00000000000E+00  0.11368683772E-12  0.17120000000E+03  0.17120000000E+03 0.  0.
         13    1    1    2    0    0 -0.53950814457E+01 -0.10470189790E+02  0.32985457292E+02  0.35025466947E+02  0.10566000000E+00 0. -1.
        994    1    1    2    0    0  0.59179644832E+01  0.27936610241E+02  0.46049759825E+01  0.17362638711E+03  0.17120000000E+03 0.  0.
        998    1    1    2    0    0 -0.52288303756E+00 -0.17466420451E+02  0.14624095630E+04  0.14625481459E+04  0.10000000000E+02 0. -1.
</event>
<event>
 5    1  0.1141915E-008  0.3836957E+03  0.7957747E-01  0.3435223E+00
         13   -1    0    0    0    0  0.00000000000E+00  0.00000000000E+00  0.14999999963E+04  0.15000000000E+04  0.10566000000E+00 0.  1.
        994   -1    0    0    0    0 -0.00000000000E+00 -0.00000000000E+00  0.11368683772E-12  0.17120000000E+03  0.17120000000E+03 0.  0.
         13    1    1    2    0    0 -0.20159474425E+02  0.11916788121E+02  0.11164194401E+03  0.11407168393E+03  0.10566000000E+00 0.  1.
        994    1    1    2    0    0  0.24905363954E+02 -0.60465954257E+01  0.44513831038E+01  0.17316493086E+03  0.17120000000E+03 0.  0.
        998    1    1    2    0    0 -0.47458895281E+01 -0.58701926956E+01  0.13839066692E+04  0.13839633852E+04  0.10000000000E+02 0.  1.
</event>
<event>
 5    1  0.1141915E-008  0.3790556E+03  0.7957747E-01  0.3455281E+00
         13   -1    0    0    0    0  0.00000000000E+00  0.00000000000E+00  0.14999999963E+04  0.15000000000E+04  0.10566000000E+00 0.  1.
        994   -1    0    0    0    0 -0.00000000000E+00 -0.00000000000E+00  0.11368683772E-12  0.17120000000E+03  0.17120000000E+03 0.  0.
         13    1    1    2    0    0  0.11579829112E+02 -0.92227550607E+01  0.21815049111E+02  0.26363975135E+02  0.10566000000E+00 0.  1.
        994    1    1    2    0    0 -0.10767168578E+02  0.37552285182E+01  0.50467906165E+01  0.17165355736E+03  0.17120000000E+03 0.  0.
        998    1    1    2    0    0 -0.81266053383E+00  0.54675265426E+01  0.14731381566E+04  0.14731824675E+04  0.10000000000E+02 0.  1.
</event>
<event>
 5    1  0.1141915E-008  0.3788963E+03  0.7957747E-01  0.3455979E+00
         13   -1    0    0    0    0  0.00000000000E+00  0.00000000000E+00  0.14999999963E+04  0.15000000000E+04  0.10566000000E+00 0. -1.
        994   -1    0    0    0    0 -0.00000000000E+00 -0.00000000000E+00  0.11368683772E-12  0.17120000000E+03  0.17120000000E+03 0.  0.
         13    1    1    2    0    0 -0.12608082134E+01 -0.38992754136E+02  0.18664938618E+03  0.19068305913E+03  0.10566000000E+00 0. -1.
        994    1    1    2    0    0  0.10647128116E+02  0.68609949074E+00  0.50733613025E+01  0.17160714165E+03  0.17120000000E+03 0.  0.
        998    1    1    2    0    0 -0.93863199024E+01  0.38306654645E+02  0.13082772488E+04  0.13089097992E+04  0.10000000000E+02 0. -1.
</event>
<event>
 5    1  0.1141915E-008  0.3858714E+03  0.7957747E-01  0.3425985E+00
         13   -1    0    0    0    0  0.00000000000E+00  0.00000000000E+00  0.14999999963E+04  0.15000000000E+04  0.10566000000E+00 0. -1.
        994   -1    0    0    0    0 -0.00000000000E+00 -0.00000000000E+00  0.11368683772E-12  0.17120000000E+03  0.17120000000E+03 0.  0.
         13    1    1    2    0    0  0.18697033176E+02 -0.43667793028E+02  0.48917405279E+02  0.68186354212E+02  0.10566000000E+00 0. -1.
        994    1    1    2    0    0 -0.58555977360E+01  0.48078203714E+02  0.28329337397E+02  0.18016046474E+03  0.17120000000E+03 0.  0.
        998    1    1    2    0    0 -0.12841435440E+02 -0.44104106857E+01  0.14227532536E+04  0.14228531810E+04  0.10000000000E+02 0. -1.
</event>
<event>
 5    1  0.1141915E-008  0.3912166E+03  0.7957747E-01  0.3403727E+00
         13   -1    0    0    0    0  0.00000000000E+00  0.00000000000E+00  0.14999999963E+04  0.15000000000E+04  0.10566000000E+00 0. -1.
        994   -1    0    0    0    0 -0.00000000000E+00 -0.00000000000E+00  0.11368683772E-12  0.17120000000E+03  0.17120000000E+03 0.  0.
         13    1    1    2    0    0  0.22197582226E+02 -0.76400644678E+02  0.14203825796E+03  0.16280254621E+03  0.10566000000E+00 0. -1.
        994    1    1    2    0    0 -0.67668634894E+02  0.14836970012E+02  0.41007298466E+02  0.18918302872E+03  0.17120000000E+03 0.  0.
        998    1    1    2    0    0  0.45471052668E+02  0.61563674666E+02  0.13169544399E+04  0.13192144251E+04  0.10000000000E+02 0. -1.
</event>
<event>
 5    1  0.1141915E-008  0.3815089E+03  0.7957747E-01  0.3444615E+00
         13   -1    0    0    0    0  0.00000000000E+00  0.00000000000E+00  0.14999999963E+04  0.15000000000E+04  0.10566000000E+00 0. -1.
        994   -1    0    0    0    0 -0.00000000000E+00 -0.00000000000E+00  0.11368683772E-12  0.17120000000E+03  0.17120000000E+03 0.  0.
         13    1    1    2    0    0  0.40500697502E+02  0.16931426881E+01  0.20646638322E+03  0.21040806019E+03  0.10566000000E+00 0. -1.
        994    1    1    2    0    0 -0.43229150452E+02 -0.46081876367E+01  0.96858082323E+01  0.17689898169E+03  0.17120000000E+03 0.  0.
        998    1    1    2    0    0  0.27284529493E+01  0.29150449486E+01  0.12838478048E+04  0.12838929581E+04  0.10000000000E+02 0. -1.
</event>
<event>
 5    1  0.1141915E-008  0.3720622E+03  0.7957747E-01  0.3486467E+00
         13   -1    0    0    0    0  0.00000000000E+00  0.00000000000E+00  0.14999999963E+04  0.15000000000E+04  0.10566000000E+00 0.  1.
        994   -1    0    0    0    0 -0.00000000000E+00 -0.00000000000E+00  0.11368683772E-12  0.17120000000E+03  0.17120000000E+03 0.  0.
         13    1    1    2    0    0  0.43385200931E+01 -0.49487439090E+02  0.94514449075E+02  0.10677463010E+03  0.10566000000E+00 0.  1.
        994    1    1    2    0    0 -0.82861512547E+01  0.43306555822E+02  0.18910972003E+02  0.17779534005E+03  0.17120000000E+03 0.  0.
        998    1    1    2    0    0  0.39476311616E+01  0.61808832687E+01  0.13865745752E+04  0.13866300299E+04  0.10000000000E+02 0.  1.
</event>
<event>
 5    1  0.1141915E-008  0.3716853E+03  0.7957747E-01  0.3488181E+00
         13   -1    0    0    0    0  0.00000000000E+00  0.00000000000E+00  0.14999999963E+04  0.15000000000E+04  0.10566000000E+00 0. -1.
        994   -1    0    0    0    0 -0.00000000000E+00 -0.00000000000E+00  0.11368683772E-12  0.17120000000E+03  0.17120000000E+03 0.  0.
         13    1    1    2    0    0  0.92376104825E+01 -0.67684599077E+01  0.39043398189E+01  0.12099608688E+02  0.10566000000E+00 0. -1.
        994    1    1    2    0    0 -0.84300947027E+01  0.73159140204E+01  0.88192134837E+01  0.17179001025E+03  0.17120000000E+03 0.  0.
        998    1    1    2    0    0 -0.80751577987E+00 -0.54745411266E+00  0.14872764430E+04  0.14873103811E+04  0.10000000000E+02 0. -1.
</event>
<event>
 5    1  0.1141915E-008  0.3792045E+03  0.7957747E-01  0.3454630E+00
         13   -1    0    0    0    0  0.00000000000E+00  0.00000000000E+00  0.14999999963E+04  0.15000000000E+04  0.10566000000E+00 0.  1.
        994   -1    0    0    0    0 -0.00000000000E+00 -0.00000000000E+00  0.11368683772E-12  0.17120000000E+03  0.17120000000E+03 0.  0.
         13    1    1    2    0    0  0.14296010053E+03 -0.87248810716E+02  0.97270770006E+03  0.98702088440E+03  0.10566000000E+00 0.  1.
        994    1    1    2    0    0 -0.13663510516E+03  0.93401635434E+02  0.10261408988E+03  0.25929155194E+03  0.17120000000E+03 0.  0.
        998    1    1    2    0    0 -0.63249953684E+01 -0.61528247184E+01  0.42467820634E+03  0.42488756367E+03  0.10000000000E+02 0.  1.
</event>
<event>
 5    1  0.1141915E-008  0.3756009E+03  0.7957747E-01  0.3470540E+00
         13   -1    0    0    0    0  0.00000000000E+00  0.00000000000E+00  0.14999999963E+04  0.15000000000E+04  0.10566000000E+00 0.  1.
        994   -1    0    0    0    0 -0.00000000000E+00 -0.00000000000E+00  0.11368683772E-12  0.17120000000E+03  0.17120000000E+03 0.  0.
         13    1    1    2    0    0 -0.58879359646E+01 -0.96277486686E+01  0.70292532215E+01  0.13295973046E+02  0.10566000000E+00 0.  1.
        994    1    1    2    0    0  0.55475931440E+01  0.10446090087E+02  0.68451822564E+01  0.17174455772E+03  0.17120000000E+03 0.  0.
        998    1    1    2    0    0  0.34034282060E+00 -0.81834141889E+00  0.14861255608E+04  0.14861594692E+04  0.10000000000E+02 0.  1.
</event>
<event>
 5    1  0.1141915E-008  0.3808145E+03  0.7957747E-01  0.3447620E+00
         13   -1    0    0    0    0  0.00000000000E+00  0.00000000000E+00  0.14999999963E+04  0.15000000000E+04  0.10566000000E+00 0.  1.
        994   -1    0    0    0    0 -0.00000000000E+00 -0.00000000000E+00  0.11368683772E-12  0.17120000000E+03  0.17120000000E+03 0.  0.
         13    1    1    2    0    0  0.28639109387E+02  0.25790538866E+02  0.16865801608E+03  0.17300545666E+03  0.10566000000E+00 0.  1.
        994    1    1    2    0    0 -0.38027294705E+02 -0.26479291439E+02  0.10914657076E+02  0.17769580118E+03  0.17120000000E+03 0.  0.
        998    1    1    2    0    0  0.93881853179E+01  0.68875257323E+00  0.13204273231E+04  0.13204987422E+04  0.10000000000E+02 0.  1.
</event>
<event>
 5    1  0.1141915E-008  0.3826066E+03  0.7957747E-01  0.3439887E+00
         13   -1    0    0    0    0  0.00000000000E+00  0.00000000000E+00  0.14999999963E+04  0.15000000000E+04  0.10566000000E+00 0.  1.
        994   -1    0    0    0    0 -0.00000000000E+00 -0.00000000000E+00  0.11368683772E-12  0.17120000000E+03  0.17120000000E+03 0.  0.
         13    1    1    2    0    0  0.64245510425E+01 -0.19007333287E+02  0.70057502320E+02  0.72873989668E+02  0.10566000000E+00 0.  1.
        994    1    1    2    0    0 -0.62236738772E+01  0.12524828111E+02  0.34716855789E+01  0.17180540747E+03  0.17120000000E+03 0.  0.
        998    1    1    2    0    0 -0.20087716528E+00  0.64825051769E+01  0.14264708084E+04  0.14265206029E+04  0.10000000000E+02 0.  1.
</event>
<event>
 5    1  0.1141915E-008  0.3716617E+03  0.7957747E-01  0.3488289E+00
         13   -1    0    0    0    0  0.00000000000E+00  0.00000000000E+00  0.14999999963E+04  0.15000000000E+04  0.10566000000E+00 0. -1.
        994   -1    0    0    0    0 -0.00000000000E+00 -0.00000000000E+00  0.11368683772E-12  0.17120000000E+03  0.17120000000E+03 0.  0.
         13    1    1    2    0    0 -0.15501980959E+02 -0.41327212950E+02  0.10299805360E+03  0.11205739669E+03  0.10566000000E+00 0. -1.
        994    1    1    2    0    0  0.12101634623E+01  0.53880937027E+02  0.18456010040E+02  0.18042916665E+03  0.17120000000E+03 0.  0.
        998    1    1    2    0    0  0.14291817497E+02 -0.12553724077E+02  0.13785459326E+04  0.13787134367E+04  0.10000000000E+02 0. -1.
</event>
<event>
 5    1  0.1141915E-008  0.3741958E+03  0.7957747E-01  0.3476827E+00
         13   -1    0    0    0    0  0.00000000000E+00  0.00000000000E+00  0.14999999963E+04  0.15000000000E+04  0.10566000000E+00 0.  1.
        994   -1    0    0    0    0 -0.00000000000E+00 -0.00000000000E+00  0.11368683772E-12  0.17120000000E+03  0.17120000000E+03 0.  0.
         13    1    1    2    0    0  0.12130840092E+01  0.19047601164E+02  0.79800204521E+01  0.20687546335E+02  0.10566000000E+00 0.  1.
        994    1    1    2    0    0  0.13965034166E+01 -0.14852886826E+02  0.13964847045E+02  0.17241524127E+03  0.17120000000E+03 0.  0.
        998    1    1    2    0    0 -0.26095874258E+01 -0.41947143383E+01  0.14780551288E+04  0.14780972124E+04  0.10000000000E+02 0.  1.
</event>
<event>
 5    1  0.1141915E-008  0.3842910E+03  0.7957747E-01  0.3432685E+00
         13   -1    0    0    0    0  0.00000000000E+00  0.00000000000E+00  0.14999999963E+04  0.15000000000E+04  0.10566000000E+00 0. -1.
        994   -1    0    0    0    0 -0.00000000000E+00 -0.00000000000E+00  0.11368683772E-12  0.17120000000E+03  0.17120000000E+03 0.  0.
         13    1    1    2    0    0  0.79263644999E+01  0.61198998486E+01  0.24687877422E+02  0.26641750768E+02  0.10566000000E+00 0. -1.
        994    1    1    2    0    0 -0.11053210418E+02  0.20441954950E+01  0.23991558704E+01  0.17158539607E+03  0.17120000000E+03 0.  0.
        998    1    1    2    0    0  0.31268459176E+01 -0.81640953435E+01  0.14729129630E+04  0.14729728532E+04  0.10000000000E+02 0. -1.
</event>
<event>
 5    1  0.1141915E-008  0.3806888E+03  0.7957747E-01  0.3448165E+00
         13   -1    0    0    0    0  0.00000000000E+00  0.00000000000E+00  0.14999999963E+04  0.15000000000E+04  0.10566000000E+00 0. -1.
        994   -1    0    0    0    0 -0.00000000000E+00 -0.00000000000E+00  0.11368683772E-12  0.17120000000E+03  0.17120000000E+03 0.  0.
         13    1    1    2    0    0  0.14811167317E+02 -0.42848354713E+01  0.29909593114E+02  0.33650043336E+02  0.10566000000E+00 0. -1.
        994    1    1    2    0    0 -0.88736029279E+01  0.74926976964E+01  0.42358413834E+01  0.17164575060E+03  0.17120000000E+03 0.  0.
        998    1    1    2    0    0 -0.59375643887E+01 -0.32078622251E+01  0.14658545618E+04  0.14659042061E+04  0.10000000000E+02 0. -1.
</event>
<event>
 5    1  0.1141915E-008  0.3823026E+03  0.7957747E-01  0.3441193E+00
         13   -1    0    0    0    0  0.00000000000E+00  0.00000000000E+00  0.14999999963E+04  0.15000000000E+04  0.10566000000E+00 0.  1.
        994   -1    0    0    0    0 -0.00000000000E+00 -0.00000000000E+00  0.11368683772E-12  0.17120000000E+03  0.17120000000E+03 0.  0.
         13    1    1    2    0    0  0.23502581991E+02 -0.12219912051E+01  0.96529867129E+02  0.99357390439E+02  0.10566000000E+00 0.  1.
        994    1    1    2    0    0 -0.60437313483E+01  0.28324972575E+02  0.57632453624E+01  0.17372819506E+03  0.17120000000E+03 0.  0.
        998    1    1    2    0    0 -0.17458850642E+02 -0.27102981370E+02  0.13977068838E+04  0.13981144145E+04  0.10000000000E+02 0.  1.
</event>
<event>
 5    1  0.1141915E-008  0.3843549E+03  0.7957747E-01  0.3432413E+00
         13   -1    0    0    0    0  0.00000000000E+00  0.00000000000E+00  0.14999999963E+04  0.15000000000E+04  0.10566000000E+00 0. -1.
        994   -1    0    0    0    0 -0.00000000000E+00 -0.00000000000E+00  0.11368683772E-12  0.17120000000E+03  0.17120000000E+03 0.  0.
         13    1    1    2    0    0  0.35604100123E+01 -0.22374813119E+02  0.13639538714E+03  0.13826431781E+03  0.10566000000E+00 0. -1.
        994    1    1    2    0    0 -0.50845239226E+01  0.87790725344E+01  0.22900193234E+01  0.17151562228E+03  0.17120000000E+03 0.  0.
        998    1    1    2    0    0  0.15241139103E+01  0.13595740585E+02  0.13613145898E+04  0.13614200599E+04  0.10000000000E+02 0. -1.
</event>
<event>
 5    1  0.1141915E-008  0.3842120E+03  0.7957747E-01  0.3433021E+00
         13   -1    0    0    0    0  0.00000000000E+00  0.00000000000E+00  0.14999999963E+04  0.15000000000E+04  0.10566000000E+00 0.  1.
        994   -1    0    0    0    0 -0.00000000000E+00 -0.00000000000E+00  0.11368683772E-12  0.17120000000E+03  0.17120000000E+03 0.  0.
         13    1    1    2    0    0  0.76651004663E+01  0.10055995384E+02  0.44153894245E+02  0.45928796516E+02  0.10566000000E+00 0.  1.
        994    1    1    2    0    0  0.25151147305E+01  0.18798665255E+02  0.32087790596E+01  0.17227725294E+03  0.17120000000E+03 0.  0.
        998    1    1    2    0    0 -0.10180215197E+02 -0.28854660639E+02  0.14526373230E+04  0.14529939505E+04  0.10000000000E+02 0.  1.
</event>
<event>
 5    1  0.1141915E-008  0.3699109E+03  0.7957747E-01  0.3496301E+00
         13   -1    0    0    0    0  0.00000000000E+00  0.00000000000E+00  0.14999999963E+04  0.15000000000E+04  0.10566000000E+00 0. -1.
        994   -1    0    0    0    0 -0.00000000000E+00 -0.00000000000E+00  0.11368683772E-12  0.17120000000E+03  0.17120000000E+03 0.  0.
         13    1    1    2    0    0  0.12019750510E+02  0.80899847672E+02  0.42570705719E+03  0.43349252527E+03  0.10566000000E+00 0. -1.
        994    1    1    2    0    0  0.17826471675E+02 -0.29670464880E+02  0.13470915030E+02  0.17518283343E+03  0.17120000000E+03 0.  0.
        998    1    1    2    0    0 -0.29846222185E+02 -0.51229382792E+02  0.10608220241E+04  0.10625246413E+04  0.10000000000E+02 0. -1.
</event>
<event>
 5    1  0.1141915E-008  0.3739763E+03  0.7957747E-01  0.3477814E+00
         13   -1    0    0    0    0  0.00000000000E+00  0.00000000000E+00  0.14999999963E+04  0.15000000000E+04  0.10566000000E+00 0.  1.
        994   -1    0    0    0    0 -0.00000000000E+00 -0.00000000000E+00  0.11368683772E-12  0.17120000000E+03  0.17120000000E+03 0.  0.
         13    1    1    2    0    0  0.84058460068E+01 -0.30436755680E+02  0.66461651043E+02  0.73581360186E+02  0.10566000000E+00 0.  1.
        994    1    1    2    0    0 -0.80519817576E+01  0.18906485151E+02  0.86470846434E+01  0.17264559555E+03  0.17120000000E+03 0.  0.
        998    1    1    2    0    0 -0.35386424920E+00  0.11530270530E+02  0.14248912606E+04  0.14249730443E+04  0.10000000000E+02 0.  1.
</event>
<event>
 5    1  0.1141915E-008  0.3817140E+03  0.7957747E-01  0.3443729E+00
         13   -1    0    0    0    0  0.00000000000E+00  0.00000000000E+00  0.14999999963E+04  0.15000000000E+04  0.10566000000E+00 0.  1.
        994   -1    0    0    0    0 -0.00000000000E+00 -0.00000000000E+00  0.11368683772E-12  0.17120000000E+03  0.17120000000E+03 0.  0.
         13    1    1    2    0    0 -0.78599952366E+01 -0.82022800522E+01  0.18217946554E+02  0.21470017789E+02  0.10566000000E+00 0.  1.
        994    1    1    2    0    0  0.85741314468E+01  0.80060583435E+01  0.37280068558E+01  0.17164192593E+03  0.17120000000E+03 0.  0.
        998    1    1    2    0    0 -0.71413621013E+00  0.19622170864E+00  0.14780540429E+04  0.14780880563E+04  0.10000000000E+02 0.  1.
</event>
<event>
 5    1  0.1141915E-008  0.3836445E+03  0.7957747E-01  0.3435441E+00
         13   -1    0    0    0    0  0.00000000000E+00  0.00000000000E+00  0.14999999963E+04  0.15000000000E+04  0.10566000000E+00 0.  1.
        994   -1    0    0    0    0 -0.00000000000E+00 -0.00000000000E+00  0.11368683772E-12  0.17120000000E+03  0.17120000000E+03 0.  0.
         13    1    1    2    0    0  0.29720942929E+01  0.21213001558E+02  0.93798312517E+02  0.96213093572E+02  0.10566000000E+00 0.  1.
        994    1    1    2    0    0 -0.16267519678E+01 -0.21816389476E+02  0.38870978909E+01  0.17263589054E+03  0.17120000000E+03 0.  0.
        998    1    1    2    0    0 -0.13453423251E+01  0.60338791788E+00  0.14023145859E+04  0.14023510159E+04  0.10000000000E+02 0.  1.
</event>
<event>
 5    1  0.1141915E-008  0.3788652E+03  0.7957747E-01  0.3456115E+00
         13   -1    0    0    0    0  0.00000000000E+00  0.00000000000E+00  0.14999999963E+04  0.15000000000E+04  0.10566000000E+00 0.  1.
        994   -1    0    0    0    0 -0.00000000000E+00 -0.00000000000E+00  0.11368683772E-12  0.17120000000E+03  0.17120000000E+03 0.  0.
         13    1    1    2    0    0  0.16834187518E+02 -0.19574385571E+02  0.69129204811E+02  0.73792984502E+02  0.10566000000E+00 0.  1.
        994    1    1    2    0    0 -0.13553945321E+02  0.96184003411E+01  0.56345011474E+01  0.17209709661E+03  0.17120000000E+03 0.  0.
        998    1    1    2    0    0 -0.32802421968E+01  0.99559852299E+01  0.14252362903E+04  0.14253099189E+04  0.10000000000E+02 0.  1.
</event>
<event>
 5    1  0.1274100E-008  0.3862531E+03  0.7957747E-01  0.3424375E+00
         13   -1    0    0    0    0  0.00000000000E+00  0.00000000000E+00  0.14999999963E+04  0.15000000000E+04  0.10566000000E+00 0. -1.
        994   -1    0    0    0    0 -0.00000000000E+00 -0.00000000000E+00  0.11368683772E-12  0.17120000000E+03  0.17120000000E+03 0.  0.
         13    1    1    2    0    0 -0.89805688066E+01  0.60376826524E+01  0.58756842412E+02  0.59745141411E+02  0.10566000000E+00 0. -1.
        994    1    1    2    0    0 -0.14188957575E+02 -0.39771034556E+02  0.68713091227E+01  0.17646449103E+03  0.17120000000E+03 0.  0.
        998    1    1    2    0    0  0.23169526381E+02  0.33733351904E+02  0.14343718447E+04  0.14349903676E+04  0.10000000000E+02 0. -1.
</event>
<event>
 5    1  0.1141915E-008  0.3812646E+03  0.7957747E-01  0.3445670E+00
         13   -1    0    0    0    0  0.00000000000E+00  0.00000000000E+00  0.14999999963E+04  0.15000000000E+04  0.10566000000E+00 0.  1.
        994   -1    0    0    0    0 -0.00000000000E+00 -0.00000000000E+00  0.11368683772E-12  0.17120000000E+03  0.17120000000E+03 0.  0.
         13    1    1    2    0    0  0.23040152874E+02  0.20426123774E+02  0.15821665048E+03  0.16118497086E+03  0.10566000000E+00 0.  1.
        994    1    1    2    0    0 -0.73879744049E+01  0.14351513305E+02  0.43639656728E+01  0.17201462815E+03  0.17120000000E+03 0.  0.
        998    1    1    2    0    0 -0.15652178470E+02 -0.34777637080E+02  0.13374193801E+04  0.13380004010E+04  0.10000000000E+02 0.  1.
</event>
<event>
 5    1  0.1141915E-008  0.3378024E+03  0.7957747E-01  0.3658353E+00
         13   -1    0    0    0    0  0.00000000000E+00  0.00000000000E+00  0.14999999963E+04  0.15000000000E+04  0.10566000000E+00 0.  1.
        994   -1    0    0    0    0 -0.00000000000E+00 -0.00000000000E+00  0.11368683772E-12  0.17120000000E+03  0.17120000000E+03 0.  0.
         13    1    1    2    0    0 -0.16140789929E+03 -0.10749562668E+03  0.10569164227E+04  0.10745604475E+04  0.10566000000E+00 0.  1.
        994    1    1    2    0    0  0.10120500394E+03  0.18572700000E+03  0.21132556731E+03  0.34453578443E+03  0.17120000000E+03 0.  0.
        998    1    1    2    0    0  0.60202895351E+02 -0.78231373322E+02  0.23175800628E+03  0.25210376803E+03  0.10000000000E+02 0.  1.
</event>
<event>
 5    1  0.1141915E-008  0.3857802E+03  0.7957747E-01  0.3426370E+00
         13   -1    0    0    0    0  0.00000000000E+00  0.00000000000E+00  0.14999999963E+04  0.15000000000E+04  0.10566000000E+00 0.  1.
        994   -1    0    0    0    0 -0.00000000000E+00 -0.00000000000E+00  0.11368683772E-12  0.17120000000E+03  0.17120000000E+03 0.  0.
         13    1    1    2    0    0  0.20458593743E+01  0.14744630984E+02  0.85733879713E+02  0.87016659198E+02  0.10566000000E+00 0.  1.
        994    1    1    2    0    0 -0.55362732313E+00 -0.15452627268E+02  0.20279672466E+01  0.17190882131E+03  0.17120000000E+03 0.  0.
        998    1    1    2    0    0 -0.14922320512E+01  0.70799628391E+00  0.14122381493E+04  0.14122745195E+04  0.10000000000E+02 0.  1.
</event>
<event>
 5    1  0.1141915E-008  0.3777138E+03  0.7957747E-01  0.3461174E+00
         13   -1    0    0    0    0  0.00000000000E+00  0.00000000000E+00  0.14999999963E+04  0.15000000000E+04  0.10566000000E+00 0. -1.
        994   -1    0    0    0    0 -0.00000000000E+00 -0.00000000000E+00  0.11368683772E-12  0.17120000000E+03  0.17120000000E+03 0.  0.
         13    1    1    2    0    0  0.77455840784E+01 -0.33832716810E+02  0.10166528002E+03  0.10742665928E+03  0.10566000000E+00 0. -1.
        994    1    1    2    0    0  0.12089999091E+02  0.45934480402E+02  0.12929181400E+02  0.17813688080E+03  0.17120000000E+03 0.  0.
        998    1    1    2    0    0 -0.19835583169E+02 -0.12101763592E+02  0.13854055349E+04  0.13856364599E+04  0.10000000000E+02 0. -1.
</event>
<event>
 5    1  0.1141915E-008  0.3802577E+03  0.7957747E-01  0.3450037E+00
         13   -1    0    0    0    0  0.00000000000E+00  0.00000000000E+00  0.14999999963E+04  0.15000000000E+04  0.10566000000E+00 0.  1.
        994   -1    0    0    0    0 -0.00000000000E+00 -0.00000000000E+00  0.11368683772E-12  0.17120000000E+03  0.17120000000E+03 0.  0.
         13    1    1    2    0    0 -0.96605773872E+01  0.14395683130E+02  0.36240917040E+02  0.40174341067E+02  0.10566000000E+00 0.  1.
        994    1    1    2    0    0  0.11396938288E+01 -0.10829093874E+02  0.43992501640E+01  0.17160233558E+03  0.17120000000E+03 0.  0.
        998    1    1    2    0    0  0.85208835584E+01 -0.35665892563E+01  0.14593598291E+04  0.14594233233E+04  0.10000000000E+02 0.  1.
</event>
<event>
 5    1  0.1141915E-008  0.3767028E+03  0.7957747E-01  0.3465642E+00
         13   -1    0    0    0    0  0.00000000000E+00  0.00000000000E+00  0.14999999963E+04  0.15000000000E+04  0.10566000000E+00 0.  1.
        994   -1    0    0    0    0 -0.00000000000E+00 -0.00000000000E+00  0.11368683772E-12  0.17120000000E+03  0.17120000000E+03 0.  0.
         13    1    1    2    0    0  0.10682415595E+02  0.45534107759E+01  0.90962961253E+01  0.14751315869E+02  0.10566000000E+00 0.  1.
        994    1    1    2    0    0 -0.84870499036E+00 -0.62467048497E+01  0.59412294700E+01  0.17141901828E+03  0.17120000000E+03 0.  0.
        998    1    1    2    0    0 -0.98337106044E+01  0.16932940738E+01  0.14849624707E+04  0.14850296658E+04  0.10000000000E+02 0.  1.
</event>
<event>
 5    1  0.1141915E-008  0.3799745E+03  0.7957747E-01  0.3451270E+00
         13   -1    0    0    0    0  0.00000000000E+00  0.00000000000E+00  0.14999999963E+04  0.15000000000E+04  0.10566000000E+00 0. -1.
        994   -1    0    0    0    0 -0.00000000000E+00 -0.00000000000E+00  0.11368683772E-12  0.17120000000E+03  0.17120000000E+03 0.  0.
         13    1    1    2    0    0 -0.17026586063E+02  0.20144437696E+02  0.88641431995E+02  0.92482526096E+02  0.10566000000E+00 0. -1.
        994    1    1    2    0    0 -0.63207050725E+01 -0.73831606687E+01  0.44619008358E+01  0.17153370203E+03  0.17120000000E+03 0.  0.
        998    1    1    2    0    0  0.23347291135E+02 -0.12761277027E+02  0.14068966634E+04  0.14071837719E+04  0.10000000000E+02 0. -1.
</event>
<event>
 5    1  0.1141915E-008  0.3741998E+03  0.7957747E-01  0.3476809E+00
         13   -1    0    0    0    0  0.00000000000E+00  0.00000000000E+00  0.14999999963E+04  0.15000000000E+04  0.10566000000E+00 0. -1.
        994   -1    0    0    0    0 -0.00000000000E+00 -0.00000000000E+00  0.11368683772E-12  0.17120000000E+03  0.17120000000E+03 0.  0.
         13    1    1    2    0    0  0.39971271196E+02  0.23318438144E+02  0.14090819328E+03  0.14831244781E+03  0.10566000000E+00 0. -1.
        994    1    1    2    0    0 -0.34751500414E+02 -0.16908720144E+02  0.12197980977E+02  0.17593124321E+03  0.17120000000E+03 0.  0.
        998    1    1    2    0    0 -0.52197707823E+01 -0.64097180003E+01  0.13468938220E+04  0.13469563090E+04  0.10000000000E+02 0. -1.
</event>
<event>
 5    1  0.1141915E-008  0.3767293E+03  0.7957747E-01  0.3465525E+00
         13   -1    0    0    0    0  0.00000000000E+00  0.00000000000E+00  0.14999999963E+04  0.15000000000E+04  0.10566000000E+00 0. -1.
        994   -1    0    0    0    0 -0.00000000000E+00 -0.00000000000E+00  0.11368683772E-12  0.17120000000E+03  0.17120000000E+03 0.  0.
         13    1    1    2    0    0  0.49399320932E+01 -0.17689002599E+02  0.26328788958E+02  0.32101713880E+02  0.10566000000E+00 0. -1.
        994    1    1    2    0    0 -0.68475208281E+01  0.16727242357E+02  0.68981879053E+01  0.17228962295E+03  0.17120000000E+03 0.  0.
        998    1    1    2    0    0  0.19075887349E+01  0.96176024135E+00  0.14667730194E+04  0.14668086632E+04  0.10000000000E+02 0. -1.
</event>
<event>
 5    1  0.1141915E-008  0.3802101E+03  0.7957747E-01  0.3450244E+00
         13   -1    0    0    0    0  0.00000000000E+00  0.00000000000E+00  0.14999999963E+04  0.15000000000E+04  0.10566000000E+00 0. -1.
        994   -1    0    0    0    0 -0.00000000000E+00 -0.00000000000E+00  0.11368683772E-12  0.17120000000E+03  0.17120000000E+03 0.  0.
         13    1    1    2    0    0 -0.40797731655E+02  0.45813850071E+01  0.19463783827E+03  0.19892044452E+03  0.10566000000E+00 0. -1.
        994    1    1    2    0    0  0.32532394187E+02 -0.37748266947E+01  0.76185833269E+01  0.17447088238E+03  0.17120000000E+03 0.  0.
        998    1    1    2    0    0  0.82653374678E+01 -0.80655831243E+00  0.12977435747E+04  0.12978086731E+04  0.10000000000E+02 0. -1.
</event>
<event>
 5    1  0.1141915E-008  0.3818225E+03  0.7957747E-01  0.3443261E+00
         13   -1    0    0    0    0  0.00000000000E+00  0.00000000000E+00  0.14999999963E+04  0.15000000000E+04  0.10566000000E+00 0.  1.
        994   -1    0    0    0    0 -0.00000000000E+00 -0.00000000000E+00  0.11368683772E-12  0.17120000000E+03  0.17120000000E+03 0.  0.
         13    1    1    2    0    0  0.21913019616E+02  0.13554437814E+02  0.10227990595E+03  0.10547555896E+03  0.10566000000E+00 0.  1.
        994    1    1    2    0    0 -0.93472904937E+01 -0.14646782990E+02  0.42198009041E+01  0.17213119070E+03  0.17120000000E+03 0.  0.
        998    1    1    2    0    0 -0.12565729122E+02  0.10923451757E+01  0.13935002894E+04  0.13935932503E+04  0.10000000000E+02 0.  1.
</event>
<event>
 5    1  0.1141915E-008  0.3836807E+03  0.7957747E-01  0.3435287E+00
         13   -1    0    0    0    0  0.00000000000E+00  0.00000000000E+00  0.14999999963E+04  0.15000000000E+04  0.10566000000E+00 0.  1.
        994   -1    0    0    0    0 -0.00000000000E+00 -0.00000000000E+00  0.11368683772E-12  0.17120000000E+03  0.17120000000E+03 0.  0.
         13    1    1    2    0    0  0.12527222197E+02  0.62723902139E+00  0.36517725192E+02  0.38611917098E+02  0.10566000000E+00 0.  1.
        994    1    1    2    0    0  0.10440932486E+02 -0.21643766952E+01  0.26621664319E+01  0.17155239645E+03  0.17120000000E+03 0.  0.
        998    1    1    2    0    0 -0.22968154683E+02  0.15371376738E+01  0.14608201047E+04  0.14610356865E+04  0.10000000000E+02 0.  1.
</event>
<event>
 5    1  0.1141915E-008  0.3837991E+03  0.7957747E-01  0.3434781E+00
         13   -1    0    0    0    0  0.00000000000E+00  0.00000000000E+00  0.14999999963E+04  0.15000000000E+04  0.10566000000E+00 0. -1.
        994   -1    0    0    0    0 -0.00000000000E+00 -0.00000000000E+00  0.11368683772E-12  0.17120000000E+03  0.17120000000E+03 0.  0.
         13    1    1    2    0    0 -0.14850233722E+02  0.15829198649E+02  0.12222527468E+03  0.12413751208E+03  0.10566000000E+00 0. -1.
        994    1    1    2    0    0  0.12821244898E+02  0.18952108000E+02  0.39580116760E+01  0.17276768383E+03  0.17120000000E+03 0.  0.
        998    1    1    2    0    0  0.20289888238E+01 -0.34781306649E+02  0.13738167099E+04  0.13742948041E+04  0.10000000000E+02 0. -1.
</event>
<event>
 5    1  0.1141915E-008  0.3805662E+03  0.7957747E-01  0.3448697E+00
         13   -1    0    0    0    0  0.00000000000E+00  0.00000000000E+00  0.14999999963E+04  0.15000000000E+04  0.10566000000E+00 0. -1.
        994   -1    0    0    0    0 -0.00000000000E+00 -0.00000000000E+00  0.11368683772E-12  0.17120000000E+03  0.17120000000E+03 0.  0.
         13    1    1    2    0    0  0.22825228255E+02 -0.12699597821E+02  0.86042474966E+02  0.89919905983E+02  0.10566000000E+00 0. -1.
        994    1    1    2    0    0 -0.15626583408E+02  0.11348127684E+02  0.50930564643E+01  0.17236110157E+03  0.17120000000E+03 0.  0.
        998    1    1    2    0    0 -0.71986448470E+01  0.13514701373E+01  0.14088644648E+04  0.14089189924E+04  0.10000000000E+02 0. -1.
</event>
<event>
 5    1  0.1141915E-008  0.3833618E+03  0.7957747E-01  0.3436650E+00
         13   -1    0    0    0    0  0.00000000000E+00  0.00000000000E+00  0.14999999963E+04  0.15000000000E+04  0.10566000000E+00 0.  1.
        994   -1    0    0    0    0 -0.00000000000E+00 -0.00000000000E+00  0.11368683772E-12  0.17120000000E+03  0.17120000000E+03 0.  0.
         13    1    1    2    0    0 -0.11716007463E+02 -0.82104265550E+01  0.39340243747E+02  0.41860982754E+02  0.10566000000E+00 0.  1.
        994    1    1    2    0    0  0.23427524579E+02  0.19528909826E+01  0.42750141300E+01  0.17285941813E+03  0.17120000000E+03 0.  0.
        998    1    1    2    0    0 -0.11711517116E+02  0.62575355724E+01  0.14563847384E+04  0.14564795991E+04  0.10000000000E+02 0.  1.
</event>
<event>
 5    1  0.1141915E-008  0.3842712E+03  0.7957747E-01  0.3432769E+00
         13   -1    0    0    0    0  0.00000000000E+00  0.00000000000E+00  0.14999999963E+04  0.15000000000E+04  0.10566000000E+00 0. -1.
        994   -1    0    0    0    0 -0.00000000000E+00 -0.00000000000E+00  0.11368683772E-12  0.17120000000E+03  0.17120000000E+03 0.  0.
         13    1    1    2    0    0 -0.49800846620E+01 -0.90820248152E+01  0.26350499513E+02  0.28313325601E+02  0.10566000000E+00 0. -1.
        994    1    1    2    0    0  0.39432692292E+01  0.63514660396E+01  0.21766777466E+01  0.17137697751E+03  0.17120000000E+03 0.  0.
        998    1    1    2    0    0  0.10368154327E+01  0.27305587756E+01  0.14714728190E+04  0.14715096969E+04  0.10000000000E+02 0. -1.
</event>
<event>
 5    1  0.1141915E-008  0.3853055E+03  0.7957747E-01  0.3428378E+00
         13   -1    0    0    0    0  0.00000000000E+00  0.00000000000E+00  0.14999999963E+04  0.15000000000E+04  0.10566000000E+00 0.  1.
        994   -1    0    0    0    0 -0.00000000000E+00 -0.00000000000E+00  0.11368683772E-12  0.17120000000E+03  0.17120000000E+03 0.  0.
         13    1    1    2    0    0  0.10872582745E+02  0.22337714961E+01  0.41165564954E+02  0.42635873307E+02  0.10566000000E+00 0.  1.
        994    1    1    2    0    0 -0.95851506629E+01 -0.25146324620E+01  0.18012306799E+01  0.17149601430E+03  0.17120000000E+03 0.  0.
        998    1    1    2    0    0 -0.12874320818E+01  0.28086096588E+00  0.14570332006E+04  0.14570681124E+04  0.10000000000E+02 0.  1.
</event>
<event>
 5    1  0.1141915E-008  0.3818099E+03  0.7957747E-01  0.3443315E+00
         13   -1    0    0    0    0  0.00000000000E+00  0.00000000000E+00  0.14999999963E+04  0.15000000000E+04  0.10566000000E+00 0. -1.
        994   -1    0    0    0    0 -0.00000000000E+00 -0.00000000000E+00  0.11368683772E-12  0.17120000000E+03  0.17120000000E+03 0.  0.
         13    1    1    2    0    0 -0.56701530057E+01 -0.12018715943E+02  0.25671379121E+02  0.28907283477E+02  0.10566000000E+00 0. -1.
        994    1    1    2    0    0  0.47242778598E+01  0.14636265035E+02  0.40087173212E+01  0.17193617673E+03  0.17120000000E+03 0.  0.
        998    1    1    2    0    0  0.94587514586E+00 -0.26175490922E+01  0.14703198998E+04  0.14703565398E+04  0.10000000000E+02 0. -1.
</event>
<event>
 5    1  0.1141915E-008  0.3776930E+03  0.7957747E-01  0.3461265E+00
         13   -1    0    0    0    0  0.00000000000E+00  0.00000000000E+00  0.14999999963E+04  0.15000000000E+04  0.10566000000E+00 0.  1.
        994   -1    0    0    0    0 -0.00000000000E+00 -0.00000000000E+00  0.11368683772E-12  0.17120000000E+03  0.17120000000E+03 0.  0.
         13    1    1    2    0    0 -0.21702974574E+02 -0.11535715893E+01  0.42919676141E+02  0.48108830757E+02  0.10566000000E+00 0.  1.
        994    1    1    2    0    0  0.11469747249E+02 -0.68713933045E+01  0.59046775452E+01  0.17182280514E+03  0.17120000000E+03 0.  0.
        998    1    1    2    0    0  0.10233227325E+02  0.80249648938E+01  0.14511756426E+04  0.14512683641E+04  0.10000000000E+02 0.  1.
</event>
<event>
 5    1  0.1141915E-008  0.3822331E+03  0.7957747E-01  0.3441492E+00
         13   -1    0    0    0    0  0.00000000000E+00  0.00000000000E+00  0.14999999963E+04  0.15000000000E+04  0.10566000000E+00 0.  1.
        994   -1    0    0    0    0 -0.00000000000E+00 -0.00000000000E+00  0.11368683772E-12  0.17120000000E+03  0.17120000000E+03 0.  0.
         13    1    1    2    0    0  0.44236881192E+02 -0.64120030043E+01  0.23036331671E+03  0.23465993329E+03  0.10566000000E+00 0.  1.
        994    1    1    2    0    0 -0.64489697479E+02  0.30457658431E+02  0.20077280298E+02  0.18654524176E+03  0.17120000000E+03 0.  0.
        998    1    1    2    0    0  0.20252816287E+02 -0.24045655427E+02  0.12495593993E+04  0.12499948250E+04  0.10000000000E+02 0.  1.
</event>
<event>
 5    1  0.1141915E-008  0.3726233E+03  0.7957747E-01  0.3483921E+00
         13   -1    0    0    0    0  0.00000000000E+00  0.00000000000E+00  0.14999999963E+04  0.15000000000E+04  0.10566000000E+00 0.  1.
        994   -1    0    0    0    0 -0.00000000000E+00 -0.00000000000E+00  0.11368683772E-12  0.17120000000E+03  0.17120000000E+03 0.  0.
         13    1    1    2    0    0 -0.72755577413E+02  0.25899302459E+02  0.33894103056E+03  0.34762793512E+03  0.10566000000E+00 0.  1.
        994    1    1    2    0    0  0.55606554534E+02 -0.15805549089E+02  0.19444073246E+02  0.18173996884E+03  0.17120000000E+03 0.  0.
        998    1    1    2    0    0  0.17149022879E+02 -0.10093753370E+02  0.11416148925E+04  0.11418320960E+04  0.10000000000E+02 0.  1.
</event>
<event>
 5    1  0.1141915E-008  0.3799635E+03  0.7957747E-01  0.3451318E+00
         13   -1    0    0    0    0  0.00000000000E+00  0.00000000000E+00  0.14999999963E+04  0.15000000000E+04  0.10566000000E+00 0.  1.
        994   -1    0    0    0    0 -0.00000000000E+00 -0.00000000000E+00  0.11368683772E-12  0.17120000000E+03  0.17120000000E+03 0.  0.
         13    1    1    2    0    0 -0.53869233646E+02 -0.17567328446E+02  0.30925419344E+03  0.31440208760E+03  0.10566000000E+00 0.  1.
        994    1    1    2    0    0  0.51854603679E+02  0.22431462694E+02  0.14898511407E+02  0.18089631307E+03  0.17120000000E+03 0.  0.
        998    1    1    2    0    0  0.20146299671E+01 -0.48641342476E+01  0.11758472914E+04  0.11759015993E+04  0.10000000000E+02 0. -1.
</event>
<event>
 5    1  0.1141915E-008  0.3832394E+03  0.7957747E-01  0.3437174E+00
         13   -1    0    0    0    0  0.00000000000E+00  0.00000000000E+00  0.14999999963E+04  0.15000000000E+04  0.10566000000E+00 0. -1.
        994   -1    0    0    0    0 -0.00000000000E+00 -0.00000000000E+00  0.11368683772E-12  0.17120000000E+03  0.17120000000E+03 0.  0.
         13    1    1    2    0    0 -0.94126799269E+01  0.37451393466E+01  0.19429289282E+02  0.21911938713E+02  0.10566000000E+00 0. -1.
        994    1    1    2    0    0  0.86762113789E+01 -0.29391581736E+01  0.27843964266E+01  0.17146751342E+03  0.17120000000E+03 0.  0.
        998    1    1    2    0    0  0.73646854799E+00 -0.80598117300E+00  0.14777863106E+04  0.14778205479E+04  0.10000000000E+02 0. -1.
</event>
<event>
 5    1  0.1141915E-008  0.3791462E+03  0.7957747E-01  0.3454885E+00
         13   -1    0    0    0    0  0.00000000000E+00  0.00000000000E+00  0.14999999963E+04  0.15000000000E+04  0.10566000000E+00 0. -1.
        994   -1    0    0    0    0 -0.00000000000E+00 -0.00000000000E+00  0.11368683772E-12  0.17120000000E+03  0.17120000000E+03 0.  0.
         13    1    1    2    0    0  0.14119095764E+02 -0.16623852890E+02  0.51051547458E+02  0.55515520461E+02  0.10566000000E+00 0. -1.
        994    1    1    2    0    0 -0.82650132556E+01  0.68515848583E+01  0.49512464451E+01  0.17160771982E+03  0.17120000000E+03 0.  0.
        998    1    1    2    0    0 -0.58540825086E+01  0.97722680315E+01  0.14439972024E+04  0.14440767597E+04  0.10000000000E+02 0. -1.
</event>
<event>
 5    1  0.1141915E-008  0.3775316E+03  0.7957747E-01  0.3461978E+00
         13   -1    0    0    0    0  0.00000000000E+00  0.00000000000E+00  0.14999999963E+04  0.15000000000E+04  0.10566000000E+00 0.  1.
        994   -1    0    0    0    0 -0.00000000000E+00 -0.00000000000E+00  0.11368683772E-12  0.17120000000E+03  0.17120000000E+03 0.  0.
         13    1    1    2    0    0 -0.47695563318E+01  0.60519980090E+02  0.33175871652E+03  0.33726736250E+03  0.10566000000E+00 0.  1.
        994    1    1    2    0    0  0.15547604478E+02 -0.36632068297E+02  0.10740587471E+02  0.17609212547E+03  0.17120000000E+03 0.  0.
        998    1    1    2    0    0 -0.10778048147E+02 -0.23887911792E+02  0.11575006923E+04  0.11578405120E+04  0.10000000000E+02 0.  1.
</event>
<event>
 5    1  0.1141915E-008  0.3759291E+03  0.7957747E-01  0.3469078E+00
         13   -1    0    0    0    0  0.00000000000E+00  0.00000000000E+00  0.14999999963E+04  0.15000000000E+04  0.10566000000E+00 0.  1.
        994   -1    0    0    0    0 -0.00000000000E+00 -0.00000000000E+00  0.11368683772E-12  0.17120000000E+03  0.17120000000E+03 0.  0.
         13    1    1    2    0    0 -0.84981125868E+01 -0.61855606027E+02  0.23035234163E+03  0.23866408690E+03  0.10566000000E+00 0.  1.
        994    1    1    2    0    0  0.15796038012E+02  0.81709423992E+02  0.30044973918E+02  0.19271244185E+03  0.17120000000E+03 0.  0.
        998    1    1    2    0    0 -0.72979254251E+01 -0.19853817965E+02  0.12396026807E+04  0.12398234713E+04  0.10000000000E+02 0.  1.
</event>
<event>
 5    1  0.1141915E-008  0.3787907E+03  0.7957747E-01  0.3456441E+00
         13   -1    0    0    0    0  0.00000000000E+00  0.00000000000E+00  0.14999999963E+04  0.15000000000E+04  0.10566000000E+00 0. -1.
        994   -1    0    0    0    0 -0.00000000000E+00 -0.00000000000E+00  0.11368683772E-12  0.17120000000E+03  0.17120000000E+03 0.  0.
         13    1    1    2    0    0  0.16716523865E+02  0.11473217911E+02  0.41003025643E+02  0.45742061336E+02  0.10566000000E+00 0. -1.
        994    1    1    2    0    0 -0.33821598740E+02  0.19431376804E+02  0.98684019075E+01  0.17586444866E+03  0.17120000000E+03 0.  0.
        998    1    1    2    0    0  0.17105074875E+02 -0.30904594715E+02  0.14491285687E+04  0.14495934900E+04  0.10000000000E+02 0. -1.
</event>
<event>
 5    1  0.1141915E-008  0.3796713E+03  0.7957747E-01  0.3452591E+00
         13   -1    0    0    0    0  0.00000000000E+00  0.00000000000E+00  0.14999999963E+04  0.15000000000E+04  0.10566000000E+00 0. -1.
        994   -1    0    0    0    0 -0.00000000000E+00 -0.00000000000E+00  0.11368683772E-12  0.17120000000E+03  0.17120000000E+03 0.  0.
         13    1    1    2    0    0  0.44614725351E+02  0.36490780229E+02  0.33400469135E+03  0.33894128661E+03  0.10566000000E+00 0. -1.
        994    1    1    2    0    0 -0.34212098459E+02 -0.33327775570E+02  0.11971425963E+02  0.17814029119E+03  0.17120000000E+03 0.  0.
        998    1    1    2    0    0 -0.10402626891E+02 -0.31630046588E+01  0.11540238790E+04  0.11541184222E+04  0.10000000000E+02 0. -1.
</event>
<event>
 5    1  0.1141915E-008  0.3801732E+03  0.7957747E-01  0.3450405E+00
         13   -1    0    0    0    0  0.00000000000E+00  0.00000000000E+00  0.14999999963E+04  0.15000000000E+04  0.10566000000E+00 0.  1.
        994   -1    0    0    0    0 -0.00000000000E+00 -0.00000000000E+00  0.11368683772E-12  0.17120000000E+03  0.17120000000E+03 0.  0.
         13    1    1    2    0    0  0.35889224291E+02 -0.71635505567E+01  0.29786127286E+02  0.47186623311E+02  0.10566000000E+00 0.  1.
        994    1    1    2    0    0 -0.87756641996E+02 -0.44862423819E+02  0.52551649141E+02  0.20441374981E+03  0.17120000000E+03 0.  0.
        998    1    1    2    0    0  0.51867417705E+02  0.52025974376E+02  0.14176622199E+04  0.14195996269E+04  0.10000000000E+02 0.  1.
</event>
<event>
 5    1  0.1141915E-008  0.3793509E+03  0.7957747E-01  0.3453990E+00
         13   -1    0    0    0    0  0.00000000000E+00  0.00000000000E+00  0.14999999963E+04  0.15000000000E+04  0.10566000000E+00 0.  1.
        994   -1    0    0    0    0 -0.00000000000E+00 -0.00000000000E+00  0.11368683772E-12  0.17120000000E+03  0.17120000000E+03 0.  0.
         13    1    1    2    0    0  0.26680354262E+01  0.12976499866E+02  0.18080972473E+02  0.22415188856E+02  0.10566000000E+00 0.  1.
        994    1    1    2    0    0 -0.41075464853E+02  0.65842102408E+01  0.10280599924E+02  0.17648137684E+03  0.17120000000E+03 0.  0.
        998    1    1    2    0    0  0.38407429426E+02 -0.19560710107E+02  0.14716384239E+04  0.14723034343E+04  0.10000000000E+02 0.  1.
</event>
<event>
 5    1  0.1141915E-008  0.3844795E+03  0.7957747E-01  0.3431883E+00
         13   -1    0    0    0    0  0.00000000000E+00  0.00000000000E+00  0.14999999963E+04  0.15000000000E+04  0.10566000000E+00 0.  1.
        994   -1    0    0    0    0 -0.00000000000E+00 -0.00000000000E+00  0.11368683772E-12  0.17120000000E+03  0.17120000000E+03 0.  0.
         13    1    1    2    0    0  0.15963423358E+00  0.17722989821E+02  0.78697932118E+02  0.80669111406E+02  0.10566000000E+00 0.  1.
        994    1    1    2    0    0 -0.26275943290E+01 -0.19549231537E+02  0.31715128889E+01  0.17236175678E+03  0.17120000000E+03 0.  0.
        998    1    1    2    0    0  0.24679600954E+01  0.18262417155E+01  0.14181305513E+04  0.14181691318E+04  0.10000000000E+02 0.  0.
</event>
<event>
 5    1  0.1141915E-008  0.3855171E+03  0.7957747E-01  0.3427482E+00
         13   -1    0    0    0    0  0.00000000000E+00  0.00000000000E+00  0.14999999963E+04  0.15000000000E+04  0.10566000000E+00 0.  1.
        994   -1    0    0    0    0 -0.00000000000E+00 -0.00000000000E+00  0.11368683772E-12  0.17120000000E+03  0.17120000000E+03 0.  0.
         13    1    1    2    0    0 -0.69427065295E+01 -0.94132227217E+01  0.47110027054E+02  0.48540454767E+02  0.10566000000E+00 0.  1.
        994    1    1    2    0    0  0.89180544610E+01  0.16027257614E+02  0.24788517286E+01  0.17219753014E+03  0.17120000000E+03 0.  0.
        998    1    1    2    0    0 -0.19753479315E+01 -0.66140348922E+01  0.14504111175E+04  0.14504620151E+04  0.10000000000E+02 0.  1.
</event>
<event>
 5    1  0.1141915E-008  0.3732593E+03  0.7957747E-01  0.3481045E+00
         13   -1    0    0    0    0  0.00000000000E+00  0.00000000000E+00  0.14999999963E+04  0.15000000000E+04  0.10566000000E+00 0. -1.
        994   -1    0    0    0    0 -0.00000000000E+00 -0.00000000000E+00  0.11368683772E-12  0.17120000000E+03  0.17120000000E+03 0.  0.
         13    1    1    2    0    0 -0.51222310233E+02 -0.74979157754E+02  0.35116670706E+03  0.36271706118E+03  0.10566000000E+00 0. -1.
        994    1    1    2    0    0  0.52244934329E+02  0.97643407314E+02  0.50745128636E+02  0.21011491198E+03  0.17120000000E+03 0.  0.
        998    1    1    2    0    0 -0.10226240961E+01 -0.22664249560E+02  0.10980881606E+04  0.10983680268E+04  0.10000000000E+02 0. -1.
</event>
<event>
 5    1  0.1141915E-008  0.3833841E+03  0.7957747E-01  0.3436554E+00
         13   -1    0    0    0    0  0.00000000000E+00  0.00000000000E+00  0.14999999963E+04  0.15000000000E+04  0.10566000000E+00 0. -1.
        994   -1    0    0    0    0 -0.00000000000E+00 -0.00000000000E+00  0.11368683772E-12  0.17120000000E+03  0.17120000000E+03 0.  0.
         13    1    1    2    0    0  0.24766941383E+02 -0.16654605783E+02  0.15147308054E+03  0.15438549987E+03  0.10566000000E+00 0. -1.
        994    1    1    2    0    0 -0.35909996170E+02  0.20786697695E+02  0.81470334055E+01  0.17634463071E+03  0.17120000000E+03 0.  0.
        998    1    1    2    0    0  0.11143054787E+02 -0.41320919113E+01  0.13403798823E+04  0.13404698694E+04  0.10000000000E+02 0. -1.
</event>
<event>
 5    1  0.1141915E-008  0.3812050E+03  0.7957747E-01  0.3445928E+00
         13   -1    0    0    0    0  0.00000000000E+00  0.00000000000E+00  0.14999999963E+04  0.15000000000E+04  0.10566000000E+00 0. -1.
        994   -1    0    0    0    0 -0.00000000000E+00 -0.00000000000E+00  0.11368683772E-12  0.17120000000E+03  0.17120000000E+03 0.  0.
         13    1    1    2    0    0 -0.24397697559E+02 -0.12872391080E+02  0.97456039235E+02  0.10128492902E+03  0.10566000000E+00 0. -1.
        994    1    1    2    0    0  0.29990720935E+02  0.15377957113E+02  0.73175574940E+01  0.17463937573E+03  0.17120000000E+03 0.  0.
        998    1    1    2    0    0 -0.55930233760E+01 -0.25055660323E+01  0.13952263995E+04  0.13952756953E+04  0.10000000000E+02 0. -1.
</event>
<event>
 5    1  0.1141915E-008  0.3828352E+03  0.7957747E-01  0.3438906E+00
         13   -1    0    0    0    0  0.00000000000E+00  0.00000000000E+00  0.14999999963E+04  0.15000000000E+04  0.10566000000E+00 0.  1.
        994   -1    0    0    0    0 -0.00000000000E+00 -0.00000000000E+00  0.11368683772E-12  0.17120000000E+03  0.17120000000E+03 0.  0.
         13    1    1    2    0    0 -0.10450243657E+02  0.19272096049E+02  0.94982975232E+02  0.97480244288E+02  0.10566000000E+00 0.  1.
        994    1    1    2    0    0  0.84511033468E+01  0.32435747015E+01  0.29801786085E+01  0.17146505005E+03  0.17120000000E+03 0.  0.
        998    1    1    2    0    0  0.19991403103E+01 -0.22515670751E+02  0.14020368424E+04  0.14022547057E+04  0.10000000000E+02 0.  1.
</event>
<event>
 5    1  0.1141915E-008  0.3753913E+03  0.7957747E-01  0.3471475E+00
         13   -1    0    0    0    0  0.00000000000E+00  0.00000000000E+00  0.14999999963E+04  0.15000000000E+04  0.10566000000E+00 0. -1.
        994   -1    0    0    0    0 -0.00000000000E+00 -0.00000000000E+00  0.11368683772E-12  0.17120000000E+03  0.17120000000E+03 0.  0.
         13    1    1    2    0    0 -0.56031890472E+01  0.14858693541E+02  0.16413658353E+02  0.22838472931E+02  0.10566000000E+00 0. -1.
        994    1    1    2    0    0  0.17429402254E+00 -0.18367908836E+02  0.76241647233E+01  0.17235132242E+03  0.17120000000E+03 0.  0.
        998    1    1    2    0    0  0.54288950247E+01  0.35092152943E+01  0.14759621732E+04  0.14760102046E+04  0.10000000000E+02 0. -1.
</event>
<event>
 5    1  0.1141915E-008  0.3814458E+03  0.7957747E-01  0.3444887E+00
         13   -1    0    0    0    0  0.00000000000E+00  0.00000000000E+00  0.14999999963E+04  0.15000000000E+04  0.10566000000E+00 0. -1.
        994   -1    0    0    0    0 -0.00000000000E+00 -0.00000000000E+00  0.11368683772E-12  0.17120000000E+03  0.17120000000E+03 0.  0.
         13    1    1    2    0    0  0.20083673295E+02  0.25534420205E+02  0.13437376861E+03  0.13824500498E+03  0.10566000000E+00 0. -1.
        994    1    1    2    0    0 -0.15498610209E+02 -0.39529591015E+02  0.94263648211E+01  0.17663830796E+03  0.17120000000E+03 0.  0.
        998    1    1    2    0    0 -0.45850630868E+01  0.13995170811E+02  0.13561998628E+04  0.13563166871E+04  0.10000000000E+02 0. -1.
</event>
<event>
 5    1  0.1141915E-008  0.3852816E+03  0.7957747E-01  0.3428479E+00
         13   -1    0    0    0    0  0.00000000000E+00  0.00000000000E+00  0.14999999963E+04  0.15000000000E+04  0.10566000000E+00 0. -1.
        994   -1    0    0    0    0 -0.00000000000E+00 -0.00000000000E+00  0.11368683772E-12  0.17120000000E+03  0.17120000000E+03 0.  0.
         13    1    1    2    0    0 -0.89694433355E+01 -0.10812546835E+02  0.64694710309E+02  0.66202558778E+02  0.10566000000E+00 0. -1.
        994    1    1    2    0    0  0.61661581136E+01  0.12108097728E+02  0.20972325493E+01  0.17175117444E+03  0.17120000000E+03 0.  0.
        998    1    1    2    0    0  0.28032852219E+01 -0.12955508933E+01  0.14332080534E+04  0.14332462668E+04  0.10000000000E+02 0. -1.
</event>
<event>
 5    1  0.1141915E-008  0.3810960E+03  0.7957747E-01  0.3446400E+00
         13   -1    0    0    0    0  0.00000000000E+00  0.00000000000E+00  0.14999999963E+04  0.15000000000E+04  0.10566000000E+00 0. -1.
        994   -1    0    0    0    0 -0.00000000000E+00 -0.00000000000E+00  0.11368683772E-12  0.17120000000E+03  0.17120000000E+03 0.  0.
         13    1    1    2    0    0  0.99220083963E+02  0.17137800588E+03  0.93383549771E+03  0.95460137959E+03  0.10566000000E+00 0. -1.
        994    1    1    2    0    0 -0.83672188338E+02 -0.20686579133E+03  0.19255827810E+03  0.34085571902E+03  0.17120000000E+03 0.  0.
        998    1    1    2    0    0 -0.15547895625E+02  0.35487785453E+02  0.37360622046E+03  0.37574290139E+03  0.10000000000E+02 0.  1.
</event>
<event>
 5    1  0.1141915E-008  0.3826476E+03  0.7957747E-01  0.3439711E+00
         13   -1    0    0    0    0  0.00000000000E+00  0.00000000000E+00  0.14999999963E+04  0.15000000000E+04  0.10566000000E+00 0.  1.
        994   -1    0    0    0    0 -0.00000000000E+00 -0.00000000000E+00  0.11368683772E-12  0.17120000000E+03  0.17120000000E+03 0.  0.
         13    1    1    2    0    0  0.71599545440E+01  0.12992693859E+02  0.38156377241E+02  0.40938921957E+02  0.10566000000E+00 0.  1.
        994    1    1    2    0    0 -0.20242886312E+01 -0.11574683276E+02  0.32602902669E+01  0.17163373949E+03  0.17120000000E+03 0.  0.
        998    1    1    2    0    0 -0.51356659127E+01 -0.14180105831E+01  0.14585833288E+04  0.14586273386E+04  0.10000000000E+02 0.  1.
</event>
<event>
 5    1  0.1141915E-008  0.3827785E+03  0.7957747E-01  0.3439149E+00
         13   -1    0    0    0    0  0.00000000000E+00  0.00000000000E+00  0.14999999963E+04  0.15000000000E+04  0.10566000000E+00 0.  1.
        994   -1    0    0    0    0 -0.00000000000E+00 -0.00000000000E+00  0.11368683772E-12  0.17120000000E+03  0.17120000000E+03 0.  0.
         13    1    1    2    0    0 -0.20361282171E+02 -0.36317104029E+01  0.77491009876E+02  0.80203733752E+02  0.10566000000E+00 0.  1.
        994    1    1    2    0    0  0.11235421565E+02  0.98074846029E+01  0.34742191400E+01  0.17188348277E+03  0.17120000000E+03 0.  0.
        998    1    1    2    0    0  0.91258606058E+01 -0.61757742000E+01  0.14190347673E+04  0.14191127835E+04  0.10000000000E+02 0.  1.
</event>
<event>
 5    1  0.1141915E-008  0.3837662E+03  0.7957747E-01  0.3434922E+00
         13   -1    0    0    0    0  0.00000000000E+00  0.00000000000E+00  0.14999999963E+04  0.15000000000E+04  0.10566000000E+00 0. -1.
        994   -1    0    0    0    0 -0.00000000000E+00 -0.00000000000E+00  0.11368683772E-12  0.17120000000E+03  0.17120000000E+03 0.  0.
         13    1    1    2    0    0 -0.23217867964E+01  0.19768707829E+02  0.84245088656E+02  0.86564650002E+02  0.10566000000E+00 0. -1.
        994    1    1    2    0    0 -0.51677743500E+00 -0.19483832053E+02  0.34992823164E+01  0.17234143944E+03  0.17120000000E+03 0.  0.
        998    1    1    2    0    0  0.28385642314E+01 -0.28487577686E+00  0.14122556253E+04  0.14122939106E+04  0.10000000000E+02 0. -1.
</event>
<event>
 5    1  0.1141915E-008  0.3723677E+03  0.7957747E-01  0.3485080E+00
         13   -1    0    0    0    0  0.00000000000E+00  0.00000000000E+00  0.14999999963E+04  0.15000000000E+04  0.10566000000E+00 0.  1.
        994   -1    0    0    0    0 -0.00000000000E+00 -0.00000000000E+00  0.11368683772E-12  0.17120000000E+03  0.17120000000E+03 0.  0.
         13    1    1    2    0    0  0.14003447338E+02 -0.19274387890E+01  0.87764099896E+01  0.16638752777E+02  0.10566000000E+00 0.  1.
        994    1    1    2    0    0 -0.11520582998E+02  0.33864908877E+01  0.85313828036E+01  0.17183252499E+03  0.17120000000E+03 0.  0.
        998    1    1    2    0    0 -0.24828643391E+01 -0.14590520987E+01  0.14826922035E+04  0.14827287222E+04  0.10000000000E+02 0.  1.
</event>
<event>
 5    1  0.1141915E-008  0.3706479E+03  0.7957747E-01  0.3492918E+00
         13   -1    0    0    0    0  0.00000000000E+00  0.00000000000E+00  0.14999999963E+04  0.15000000000E+04  0.10566000000E+00 0.  1.
        994   -1    0    0    0    0 -0.00000000000E+00 -0.00000000000E+00  0.11368683772E-12  0.17120000000E+03  0.17120000000E+03 0.  0.
         13    1    1    2    0    0 -0.37737463108E+02  0.35957706279E+02  0.11721525575E+03  0.12828289094E+03  0.10566000000E+00 0.  1.
        994    1    1    2    0    0  0.43370128109E+02 -0.86001262263E+02  0.41652292102E+02  0.20080223744E+03  0.17120000000E+03 0.  0.
        998    1    1    2    0    0 -0.56326650011E+01  0.50043555984E+02  0.13411324484E+04  0.13421148716E+04  0.10000000000E+02 0.  1.
</event>
<event>
 5    1  0.1141915E-008  0.3814621E+03  0.7957747E-01  0.3444817E+00
         13   -1    0    0    0    0  0.00000000000E+00  0.00000000000E+00  0.14999999963E+04  0.15000000000E+04  0.10566000000E+00 0.  1.
        994   -1    0    0    0    0 -0.00000000000E+00 -0.00000000000E+00  0.11368683772E-12  0.17120000000E+03  0.17120000000E+03 0.  0.
         13    1    1    2    0    0 -0.19345060813E+02  0.77270796089E+01  0.60917539195E+02  0.64380873578E+02  0.10566000000E+00 0.  1.
        994    1    1    2    0    0  0.11955337647E+02 -0.24204629693E+02  0.58252629036E+01  0.17341328636E+03  0.17120000000E+03 0.  0.
        998    1    1    2    0    0  0.73897231660E+01  0.16477550084E+02  0.14332571942E+04  0.14334058401E+04  0.10000000000E+02 0.  1.
</event>
<event>
 5    1  0.1141915E-008  0.3809470E+03  0.7957747E-01  0.3447045E+00
         13   -1    0    0    0    0  0.00000000000E+00  0.00000000000E+00  0.14999999963E+04  0.15000000000E+04  0.10566000000E+00 0. -1.
        994   -1    0    0    0    0 -0.00000000000E+00 -0.00000000000E+00  0.11368683772E-12  0.17120000000E+03  0.17120000000E+03 0.  0.
         13    1    1    2    0    0  0.81523199931E+01 -0.20902757888E+02  0.74379467188E+02  0.77689779970E+02  0.10566000000E+00 0. -1.
        994    1    1    2    0    0 -0.90586401627E+01 -0.98212133397E+01  0.42509703869E+01  0.17177318167E+03  0.17120000000E+03 0.  0.
        998    1    1    2    0    0  0.90632016961E+00  0.30723971228E+02  0.14213695587E+04  0.14217370384E+04  0.10000000000E+02 0. -1.
</event>
<event>
 5    1  0.1141915E-008  0.3793375E+03  0.7957747E-01  0.3454048E+00
         13   -1    0    0    0    0  0.00000000000E+00  0.00000000000E+00  0.14999999963E+04  0.15000000000E+04  0.10566000000E+00 0.  1.
        994   -1    0    0    0    0 -0.00000000000E+00 -0.00000000000E+00  0.11368683772E-12  0.17120000000E+03  0.17120000000E+03 0.  0.
         13    1    1    2    0    0  0.29627338514E+02  0.24030202043E+00  0.11022227140E+03  0.11413499555E+03  0.10566000000E+00 0.  1.
        994    1    1    2    0    0  0.65147231520E+01  0.10614182192E+02  0.49877378636E+01  0.17172483807E+03  0.17120000000E+03 0.  0.
        998    1    1    2    0    0 -0.36142061666E+02 -0.10854484212E+02  0.13847899870E+04  0.13853401664E+04  0.10000000000E+02 0.  1.
</event>
<event>
 5    1  0.1141915E-008  0.3842932E+03  0.7957747E-01  0.3432675E+00
         13   -1    0    0    0    0  0.00000000000E+00  0.00000000000E+00  0.14999999963E+04  0.15000000000E+04  0.10566000000E+00 0.  1.
        994   -1    0    0    0    0 -0.00000000000E+00 -0.00000000000E+00  0.11368683772E-12  0.17120000000E+03  0.17120000000E+03 0.  0.
         13    1    1    2    0    0 -0.11230245238E+02 -0.17458601969E+02  0.10429141764E+03  0.10633735068E+03  0.10566000000E+00 0.  1.
        994    1    1    2    0    0  0.79584706199E+01  0.16720406634E+02  0.31125753653E+01  0.17222670344E+03  0.17120000000E+03 0.  0.
        998    1    1    2    0    0  0.32717746179E+01  0.73819533510E+00  0.13925960033E+04  0.13926359459E+04  0.10000000000E+02 0.  1.
</event>
<event>
 5    1  0.1141915E-008  0.3857416E+03  0.7957747E-01  0.3426533E+00
         13   -1    0    0    0    0  0.00000000000E+00  0.00000000000E+00  0.14999999963E+04  0.15000000000E+04  0.10566000000E+00 0. -1.
        994   -1    0    0    0    0 -0.00000000000E+00 -0.00000000000E+00  0.11368683772E-12  0.17120000000E+03  0.17120000000E+03 0.  0.
         13    1    1    2    0    0  0.36608046149E+01 -0.10315912590E+02  0.47950497701E+02  0.49184153309E+02  0.10566000000E+00 0. -1.
        994    1    1    2    0    0 -0.72344259195E+01  0.47919449692E+01  0.15094631935E+01  0.17142642193E+03  0.17120000000E+03 0.  0.
        998    1    1    2    0    0  0.35736213046E+01  0.55239676209E+01  0.14505400354E+04  0.14505894248E+04  0.10000000000E+02 0. -1.
</event>
<event>
 5    1  0.1141915E-008  0.3776585E+03  0.7957747E-01  0.3461418E+00
         13   -1    0    0    0    0  0.00000000000E+00  0.00000000000E+00  0.14999999963E+04  0.15000000000E+04  0.10566000000E+00 0. -1.
        994   -1    0    0    0    0 -0.00000000000E+00 -0.00000000000E+00  0.11368683772E-12  0.17120000000E+03  0.17120000000E+03 0.  0.
         13    1    1    2    0    0 -0.48192324281E+02  0.75164213907E+01  0.19673319533E+03  0.20268931402E+03  0.10566000000E+00 0. -1.
        994    1    1    2    0    0  0.45571686826E+02 -0.11572603343E+02  0.12804148355E+02  0.17800025282E+03  0.17120000000E+03 0.  0.
        998    1    1    2    0    0  0.26206374550E+01  0.40561819525E+01  0.12904626526E+04  0.12905104332E+04  0.10000000000E+02 0.  0.
</event>
<event>
 5    1  0.1141915E-008  0.3710157E+03  0.7957747E-01  0.3491236E+00
         13   -1    0    0    0    0  0.00000000000E+00  0.00000000000E+00  0.14999999963E+04  0.15000000000E+04  0.10566000000E+00 0. -1.
        994   -1    0    0    0    0 -0.00000000000E+00 -0.00000000000E+00  0.11368683772E-12  0.17120000000E+03  0.17120000000E+03 0.  0.
         13    1    1    2    0    0  0.91958570324E+02 -0.88809023912E+01  0.30333579529E+03  0.31709283333E+03  0.10566000000E+00 0. -1.
        994    1    1    2    0    0 -0.12409129833E+03  0.20024154503E+02  0.65318386764E+02  0.22220609518E+03  0.17120000000E+03 0.  0.
        998    1    1    2    0    0  0.32132728003E+02 -0.11143252111E+02  0.11313458142E+04  0.11319010715E+04  0.10000000000E+02 0. -1.
</event>
<event>
 5    1  0.1141915E-008  0.3826738E+03  0.7957747E-01  0.3439598E+00
         13   -1    0    0    0    0  0.00000000000E+00  0.00000000000E+00  0.14999999963E+04  0.15000000000E+04  0.10566000000E+00 0.  1.
        994   -1    0    0    0    0 -0.00000000000E+00 -0.00000000000E+00  0.11368683772E-12  0.17120000000E+03  0.17120000000E+03 0.  0.
         13    1    1    2    0    0 -0.28656168711E+02 -0.35835703633E+01  0.14133787423E+03  0.14425818465E+03  0.10566000000E+00 0.  1.
        994    1    1    2    0    0  0.23906408889E+02  0.36573510703E+01  0.47300328119E+01  0.17296446402E+03  0.17120000000E+03 0.  0.
        998    1    1    2    0    0  0.47497598213E+01 -0.73780707001E-01  0.13539320892E+04  0.13539773513E+04  0.10000000000E+02 0.  1.
</event>
<event>
 5    1  0.1141915E-008  0.3686164E+03  0.7957747E-01  0.3502274E+00
         13   -1    0    0    0    0  0.00000000000E+00  0.00000000000E+00  0.14999999963E+04  0.15000000000E+04  0.10566000000E+00 0.  1.
        994   -1    0    0    0    0 -0.00000000000E+00 -0.00000000000E+00  0.11368683772E-12  0.17120000000E+03  0.17120000000E+03 0.  0.
         13    1    1    2    0    0  0.10577314047E+02 -0.47534222861E+02  0.13181208721E+03  0.14051981858E+03  0.10566000000E+00 0.  1.
        994    1    1    2    0    0 -0.48507864289E+01 -0.92554419603E+01  0.10589020186E+02  0.17184516485E+03  0.17120000000E+03 0.  0.
        998    1    1    2    0    0 -0.57265276184E+01  0.56789664822E+02  0.13575988889E+04  0.13588350166E+04  0.10000000000E+02 0.  1.
</event>
<event>
 5    1  0.1141915E-008  0.3687617E+03  0.7957747E-01  0.3501601E+00
         13   -1    0    0    0    0  0.00000000000E+00  0.00000000000E+00  0.14999999963E+04  0.15000000000E+04  0.10566000000E+00 0. -1.
        994   -1    0    0    0    0 -0.00000000000E+00 -0.00000000000E+00  0.11368683772E-12  0.17120000000E+03  0.17120000000E+03 0.  0.
         13    1    1    2    0    0  0.62286130128E+02 -0.64657478505E+02  0.30322737864E+03  0.31623884305E+03  0.10566000000E+00 0. -1.
        994    1    1    2    0    0 -0.61795764204E+02  0.68211986221E+02  0.40384712956E+02  0.19852444831E+03  0.17120000000E+03 0.  0.
        998    1    1    2    0    0 -0.49036592357E+00 -0.35545077158E+01  0.11563879047E+04  0.11564367086E+04  0.10000000000E+02 0. -1.
</event>
<event>
 5    1  0.1141915E-008  0.4138710E+03  0.7957747E-01  0.3315755E+00
         13   -1    0    0    0    0  0.00000000000E+00  0.00000000000E+00  0.14999999963E+04  0.15000000000E+04  0.10566000000E+00 0. -1.
        994   -1    0    0    0    0 -0.00000000000E+00 -0.00000000000E+00  0.11368683772E-12  0.17120000000E+03  0.17120000000E+03 0.  0.
         13    1    1    2    0    0 -0.43881110293E+02 -0.32360017366E+02  0.27022363499E+02  0.60851802419E+02  0.10566000000E+00 0. -1.
        994    1    1    2    0    0  0.46411294532E+02  0.30866281496E+02  0.49354643123E+02  0.18668705470E+03  0.17120000000E+03 0.  0.
        998    1    1    2    0    0 -0.25301842394E+01  0.14937358704E+01  0.14236229897E+04  0.14236611429E+04  0.10000000000E+02 0. -1.
</event>
<event>
 5    1  0.1141915E-008  0.3740840E+03  0.7957747E-01  0.3477330E+00
         13   -1    0    0    0    0  0.00000000000E+00  0.00000000000E+00  0.14999999963E+04  0.15000000000E+04  0.10566000000E+00 0.  1.
        994   -1    0    0    0    0 -0.00000000000E+00 -0.00000000000E+00  0.11368683772E-12  0.17120000000E+03  0.17120000000E+03 0.  0.
         13    1    1    2    0    0 -0.26952585649E+02 -0.22146470380E+02  0.78591168545E+02  0.85985411325E+02  0.10566000000E+00 0.  1.
        994    1    1    2    0    0  0.28059816977E+02  0.20982444143E+02  0.11347188613E+02  0.17511657540E+03  0.17120000000E+03 0.  0.
        998    1    1    2    0    0 -0.11072313274E+01  0.11640262372E+01  0.14100616391E+04  0.14100980133E+04  0.10000000000E+02 0.  1.
</event>
<event>
 5    1  0.1141915E-008  0.4408643E+03  0.7957747E-01  0.3222570E+00
         13   -1    0    0    0    0  0.00000000000E+00  0.00000000000E+00  0.14999999963E+04  0.15000000000E+04  0.10566000000E+00 0.  1.
        994   -1    0    0    0    0 -0.00000000000E+00 -0.00000000000E+00  0.11368683772E-12  0.17120000000E+03  0.17120000000E+03 0.  0.
         13    1    1    2    0    0  0.87459348260E+02 -0.81706051250E+01  0.45403968115E+02  0.98880877174E+02  0.10566000000E+00 0.  1.
        994    1    1    2    0    0 -0.12192266515E+03 -0.63558115132E+01  0.13012025347E+03  0.24727768395E+03  0.17120000000E+03 0.  0.
        998    1    1    2    0    0  0.34463316886E+02  0.14526416638E+02  0.13244757747E+04  0.13250414389E+04  0.10000000000E+02 0.  1.
</event>
<event>
 5    1  0.1141915E-008  0.3840673E+03  0.7957747E-01  0.3433638E+00
         13   -1    0    0    0    0  0.00000000000E+00  0.00000000000E+00  0.14999999963E+04  0.15000000000E+04  0.10566000000E+00 0. -1.
        994   -1    0    0    0    0 -0.00000000000E+00 -0.00000000000E+00  0.11368683772E-12  0.17120000000E+03  0.17120000000E+03 0.  0.
         13    1    1    2    0    0 -0.42430917607E+00  0.23266723561E+02  0.13635890946E+03  0.13833034308E+03  0.10566000000E+00 0. -1.
        994    1    1    2    0    0 -0.12260834905E+02 -0.79604108122E+01  0.27991404380E+01  0.17184577795E+03  0.17120000000E+03 0.  0.
        998    1    1    2    0    0  0.12685144081E+02 -0.15306312749E+02  0.13608419464E+04  0.13610238790E+04  0.10000000000E+02 0. -1.
</event>
<event>
 5    1  0.1141915E-008  0.3782330E+03  0.7957747E-01  0.3458888E+00
         13   -1    0    0    0    0  0.00000000000E+00  0.00000000000E+00  0.14999999963E+04  0.15000000000E+04  0.10566000000E+00 0.  1.
        994   -1    0    0    0    0 -0.00000000000E+00 -0.00000000000E+00  0.11368683772E-12  0.17120000000E+03  0.17120000000E+03 0.  0.
         13    1    1    2    0    0 -0.64554028139E+02 -0.31463615783E+02  0.14388364801E+03  0.16080950530E+03  0.10566000000E+00 0.  1.
        994    1    1    2    0    0  0.75101875150E+02  0.25065364059E+02  0.38290060250E+02  0.19246852428E+03  0.17120000000E+03 0.  0.
        998    1    1    2    0    0 -0.10547847011E+02  0.63982517236E+01  0.13178262880E+04  0.13179219704E+04  0.10000000000E+02 0.  1.
</event>
<event>
 5    1  0.1141915E-008  0.3835055E+03  0.7957747E-01  0.3436036E+00
         13   -1    0    0    0    0  0.00000000000E+00  0.00000000000E+00  0.14999999963E+04  0.15000000000E+04  0.10566000000E+00 0.  1.
        994   -1    0    0    0    0 -0.00000000000E+00 -0.00000000000E+00  0.11368683772E-12  0.17120000000E+03  0.17120000000E+03 0.  0.
         13    1    1    2    0    0 -0.23110951085E+02 -0.92088716933E+01  0.12778810075E+03  0.13018728523E+03  0.10566000000E+00 0.  1.
        994    1    1    2    0    0  0.17601316116E+02  0.22968083069E+01  0.34158966139E+01  0.17215164828E+03  0.17120000000E+03 0.  0.
        998    1    1    2    0    0  0.55096349690E+01  0.69120633864E+01  0.13687959989E+04  0.13688610665E+04  0.10000000000E+02 0.  1.
</event>
<event>
 5    1  0.1141915E-008  0.3831557E+03  0.7957747E-01  0.3437532E+00
         13   -1    0    0    0    0  0.00000000000E+00  0.00000000000E+00  0.14999999963E+04  0.15000000000E+04  0.10566000000E+00 0.  1.
        994   -1    0    0    0    0 -0.00000000000E+00 -0.00000000000E+00  0.11368683772E-12  0.17120000000E+03  0.17120000000E+03 0.  0.
         13    1    1    2    0    0  0.11823656172E+02 -0.67853507890E+01  0.33507109454E+02  0.36174264037E+02  0.10566000000E+00 0.  1.
        994    1    1    2    0    0 -0.25159309264E+02  0.72476539686E+01  0.48198460476E+01  0.17325758352E+03  0.17120000000E+03 0.  0.
        998    1    1    2    0    0  0.13335653092E+02 -0.46230317963E+00  0.14616730408E+04  0.14617681524E+04  0.10000000000E+02 0.  1.
</event>
<event>
 5    1  0.1141915E-008  0.3745979E+03  0.7957747E-01  0.3475023E+00
         13   -1    0    0    0    0  0.00000000000E+00  0.00000000000E+00  0.14999999963E+04  0.15000000000E+04  0.10566000000E+00 0.  1.
        994   -1    0    0    0    0 -0.00000000000E+00 -0.00000000000E+00  0.11368683772E-12  0.17120000000E+03  0.17120000000E+03 0.  0.
         13    1    1    2    0    0  0.12047611053E+01 -0.36020247509E+02  0.98176478310E+02  0.10458270286E+03  0.10566000000E+00 0.  1.
        994    1    1    2    0    0 -0.30975760917E+02  0.55887698631E+01  0.10265043230E+02  0.17437185331E+03  0.17120000000E+03 0.  0.
        998    1    1    2    0    0  0.29770999812E+02  0.30431477646E+02  0.13915584747E+04  0.13922454438E+04  0.10000000000E+02 0.  1.
</event>
<event>
 5    1  0.1141915E-008  0.3686102E+03  0.7957747E-01  0.3502303E+00
         13   -1    0    0    0    0  0.00000000000E+00  0.00000000000E+00  0.14999999963E+04  0.15000000000E+04  0.10566000000E+00 0.  1.
        994   -1    0    0    0    0 -0.00000000000E+00 -0.00000000000E+00  0.11368683772E-12  0.17120000000E+03  0.17120000000E+03 0.  0.
         13    1    1    2    0    0  0.10518155602E+03  0.40873324327E+02  0.49761897262E+03  0.51025331106E+03  0.10566000000E+00 0.  1.
        994    1    1    2    0    0 -0.81204490676E+02 -0.43483722279E+02  0.40337125436E+02  0.19854855098E+03  0.17120000000E+03 0.  0.
        998    1    1    2    0    0 -0.23977065348E+02  0.26103979522E+01  0.96204389822E+03  0.96239813796E+03  0.10000000000E+02 0.  1.
</event>
<event>
 5    1  0.1141915E-008  0.3825855E+03  0.7957747E-01  0.3439977E+00
         13   -1    0    0    0    0  0.00000000000E+00  0.00000000000E+00  0.14999999963E+04  0.15000000000E+04  0.10566000000E+00 0. -1.
        994   -1    0    0    0    0 -0.00000000000E+00 -0.00000000000E+00  0.11368683772E-12  0.17120000000E+03  0.17120000000E+03 0.  0.
         13    1    1    2    0    0 -0.17234614656E+02  0.15501380331E+02  0.89955755941E+02  0.92894423543E+02  0.10566000000E+00 0. -1.
        994    1    1    2    0    0  0.13234827187E+02 -0.18217306938E+02  0.45160630177E+01  0.17273351078E+03  0.17120000000E+03 0.  0.
        998    1    1    2    0    0  0.39997874690E+01  0.27159266070E+01  0.14055281773E+04  0.14055720657E+04  0.10000000000E+02 0. -1.
</event>
<event>
 5    1  0.1147493E-008  0.3854532E+03  0.7957747E-01  0.3427753E+00
         13   -1    0    0    0    0  0.00000000000E+00  0.00000000000E+00  0.14999999963E+04  0.15000000000E+04  0.10566000000E+00 0. -1.
        994   -1    0    0    0    0 -0.00000000000E+00 -0.00000000000E+00  0.11368683772E-12  0.17120000000E+03  0.17120000000E+03 0.  0.
         13    1    1    2    0    0 -0.35934457192E+01  0.10003449588E+02  0.40190752344E+02  0.41572702508E+02  0.10566000000E+00 0. -1.
        994    1    1    2    0    0  0.46543983013E+01 -0.64671446899E+01  0.16138253015E+01  0.17139291647E+03  0.17120000000E+03 0.  0.
        998    1    1    2    0    0 -0.10609525821E+01 -0.35363048976E+01  0.14581954186E+04  0.14582343810E+04  0.10000000000E+02 0. -1.
</event>
<event>
 5    1  0.1141915E-008  0.3791957E+03  0.7957747E-01  0.3454668E+00
         13   -1    0    0    0    0  0.00000000000E+00  0.00000000000E+00  0.14999999963E+04  0.15000000000E+04  0.10566000000E+00 0. -1.
        994   -1    0    0    0    0 -0.00000000000E+00 -0.00000000000E+00  0.11368683772E-12  0.17120000000E+03  0.17120000000E+03 0.  0.
         13    1    1    2    0    0  0.28747287049E+02  0.16882624004E+00  0.83910276362E+02  0.88698256230E+02  0.10566000000E+00 0. -1.
        994    1    1    2    0    0 -0.31749072111E+02 -0.39114886692E+01  0.79772325481E+01  0.17434557512E+03  0.17120000000E+03 0.  0.
        998    1    1    2    0    0  0.30017850627E+01  0.37426624292E+01  0.14081124874E+04  0.14081561687E+04  0.10000000000E+02 0. -1.
</event>
<event>
 5    1  0.1141915E-008  0.3775921E+03  0.7957747E-01  0.3461711E+00
         13   -1    0    0    0    0  0.00000000000E+00  0.00000000000E+00  0.14999999963E+04  0.15000000000E+04  0.10566000000E+00 0. -1.
        994   -1    0    0    0    0 -0.00000000000E+00 -0.00000000000E+00  0.11368683772E-12  0.17120000000E+03  0.17120000000E+03 0.  0.
         13    1    1    2    0    0 -0.34356157575E+01 -0.18515648286E+02  0.30325330664E+02  0.35696912065E+02  0.10566000000E+00 0. -1.
        994    1    1    2    0    0  0.11710176502E+02  0.17997869711E+02  0.69087920560E+01  0.17267953832E+03  0.17120000000E+03 0.  0.
        998    1    1    2    0    0 -0.82745607447E+01  0.51777857489E+00  0.14627658736E+04  0.14628235496E+04  0.10000000000E+02 0. -1.
</event>
<event>
 5    1  0.1141915E-008  0.3794504E+03  0.7957747E-01  0.3453555E+00
         13   -1    0    0    0    0  0.00000000000E+00  0.00000000000E+00  0.14999999963E+04  0.15000000000E+04  0.10566000000E+00 0.  1.
        994   -1    0    0    0    0 -0.00000000000E+00 -0.00000000000E+00  0.11368683772E-12  0.17120000000E+03  0.17120000000E+03 0.  0.
         13    1    1    2    0    0  0.19936896086E+02  0.10668202533E+02  0.57099514245E+02  0.61413810026E+02  0.10566000000E+00 0.  1.
        994    1    1    2    0    0 -0.13020994035E+02  0.93871929800E+00  0.49818197945E+01  0.17176928133E+03  0.17120000000E+03 0.  0.
        998    1    1    2    0    0 -0.69159020514E+01 -0.11606921831E+02  0.14379186622E+04  0.14380169086E+04  0.10000000000E+02 0.  1.
</event>
<event>
 5    1  0.1141915E-008  0.3836504E+03  0.7957747E-01  0.3435416E+00
         13   -1    0    0    0    0  0.00000000000E+00  0.00000000000E+00  0.14999999963E+04  0.15000000000E+04  0.10566000000E+00 0. -1.
        994   -1    0    0    0    0 -0.00000000000E+00 -0.00000000000E+00  0.11368683772E-12  0.17120000000E+03  0.17120000000E+03 0.  0.
         13    1    1    2    0    0  0.21074763053E+02 -0.66052063159E+01  0.11079810331E+03  0.11297789717E+03  0.10566000000E+00 0. -1.
        994    1    1    2    0    0 -0.10276642133E+02 -0.96981200317E+01  0.29614370939E+01  0.17180766285E+03  0.17120000000E+03 0.  0.
        998    1    1    2    0    0 -0.10798120920E+02  0.16303326348E+02  0.13862404559E+04  0.13864144400E+04  0.10000000000E+02 0. -1.
</event>
<event>
 5    1  0.1141915E-008  0.3753539E+03  0.7957747E-01  0.3471641E+00
         13   -1    0    0    0    0  0.00000000000E+00  0.00000000000E+00  0.14999999963E+04  0.15000000000E+04  0.10566000000E+00 0.  1.
        994   -1    0    0    0    0 -0.00000000000E+00 -0.00000000000E+00  0.11368683772E-12  0.17120000000E+03  0.17120000000E+03 0.  0.
         13    1    1    2    0    0 -0.12009922759E+02 -0.43386273304E+01  0.94857566935E+01  0.15907629486E+02  0.10566000000E+00 0.  1.
        994    1    1    2    0    0  0.14677611805E+02  0.51965546847E+01  0.73206224683E+01  0.17206239561E+03  0.17120000000E+03 0.  0.
        998    1    1    2    0    0 -0.26676890458E+01 -0.85792735429E+00  0.14831936171E+04  0.14832299749E+04  0.10000000000E+02 0.  1.
</event>
<event>
 5    1  0.1141915E-008  0.3767806E+03  0.7957747E-01  0.3465297E+00
         13   -1    0    0    0    0  0.00000000000E+00  0.00000000000E+00  0.14999999963E+04  0.15000000000E+04  0.10566000000E+00 0.  1.
        994   -1    0    0    0    0 -0.00000000000E+00 -0.00000000000E+00  0.11368683772E-12  0.17120000000E+03  0.17120000000E+03 0.  0.
         13    1    1    2    0    0 -0.16256549931E+02 -0.10281091914E+01  0.20856353787E+02  0.26463769224E+02  0.10566000000E+00 0.  1.
        994    1    1    2    0    0  0.56641638185E+01 -0.20228232468E+01  0.58894110435E+01  0.17140682521E+03  0.17120000000E+03 0.  0.
        998    1    1    2    0    0  0.10592386113E+02  0.30509324382E+01  0.14732542314E+04  0.14733294056E+04  0.10000000000E+02 0.  1.
</event>
<event>
 5    1  0.1141915E-008  0.3836770E+03  0.7957747E-01  0.3435303E+00
         13   -1    0    0    0    0  0.00000000000E+00  0.00000000000E+00  0.14999999963E+04  0.15000000000E+04  0.10566000000E+00 0. -1.
        994   -1    0    0    0    0 -0.00000000000E+00 -0.00000000000E+00  0.11368683772E-12  0.17120000000E+03  0.17120000000E+03 0.  0.
         13    1    1    2    0    0 -0.70081415817E+00  0.10120716346E+02  0.21434724831E+02  0.23714523661E+02  0.10566000000E+00 0. -1.
        994    1    1    2    0    0 -0.14351330670E+01 -0.11105849990E+02  0.27026799381E+01  0.17158713235E+03  0.17120000000E+03 0.  0.
        998    1    1    2    0    0  0.21359472251E+01  0.98513364463E+00  0.14758625915E+04  0.14758983440E+04  0.10000000000E+02 0. -1.
</event>
<event>
 5    1  0.1141915E-008  0.3774224E+03  0.7957747E-01  0.3462459E+00
         13   -1    0    0    0    0  0.00000000000E+00  0.00000000000E+00  0.14999999963E+04  0.15000000000E+04  0.10566000000E+00 0.  1.
        994   -1    0    0    0    0 -0.00000000000E+00 -0.00000000000E+00  0.11368683772E-12  0.17120000000E+03  0.17120000000E+03 0.  0.
         13    1    1    2    0    0  0.16437301215E+02  0.13052598486E+03  0.62736461020E+03  0.64100981498E+03  0.10566000000E+00 0.  1.
        994    1    1    2    0    0 -0.70531322591E+02 -0.15398103211E+03  0.10920975232E+03  0.26442586053E+03  0.17120000000E+03 0.  0.
        998    1    1    2    0    0  0.54094021376E+02  0.23455047249E+02  0.76342563375E+03  0.76576432449E+03  0.10000000000E+02 0. -1.
</event>
<event>
 5    1  0.1141915E-008  0.3706317E+03  0.7957747E-01  0.3492993E+00
         13   -1    0    0    0    0  0.00000000000E+00  0.00000000000E+00  0.14999999963E+04  0.15000000000E+04  0.10566000000E+00 0. -1.
        994   -1    0    0    0    0 -0.00000000000E+00 -0.00000000000E+00  0.11368683772E-12  0.17120000000E+03  0.17120000000E+03 0.  0.
         13    1    1    2    0    0 -0.22058382311E+01  0.23847409451E+02  0.29298208309E+02  0.37841258356E+02  0.10566000000E+00 0. -1.
        994    1    1    2    0    0  0.22023748276E+02 -0.17630689945E+01  0.10625261583E+02  0.17294649486E+03  0.17120000000E+03 0.  0.
        998    1    1    2    0    0 -0.19817910045E+02 -0.22084340457E+02  0.14600765264E+04  0.14604122468E+04  0.10000000000E+02 0. -1.
</event>
<event>
 5    1  0.1141915E-008  0.3786109E+03  0.7957747E-01  0.3457229E+00
         13   -1    0    0    0    0  0.00000000000E+00  0.00000000000E+00  0.14999999963E+04  0.15000000000E+04  0.10566000000E+00 0. -1.
        994   -1    0    0    0    0 -0.00000000000E+00 -0.00000000000E+00  0.11368683772E-12  0.17120000000E+03  0.17120000000E+03 0.  0.
         13    1    1    2    0    0  0.10352391447E+02 -0.45270954103E+01  0.11052774779E+02  0.15806378329E+02  0.10566000000E+00 0. -1.
        994    1    1    2    0    0  0.20285704347E+01  0.23824763915E+02  0.67584427794E+01  0.17299378897E+03  0.17120000000E+03 0.  0.
        998    1    1    2    0    0 -0.12380961882E+02 -0.19297668505E+02  0.14821887787E+04  0.14823998327E+04  0.10000000000E+02 0. -1.
</event>
<event>
 5    1  0.1141915E-008  0.3830916E+03  0.7957747E-01  0.3437806E+00
         13   -1    0    0    0    0  0.00000000000E+00  0.00000000000E+00  0.14999999963E+04  0.15000000000E+04  0.10566000000E+00 0.  1.
        994   -1    0    0    0    0 -0.00000000000E+00 -0.00000000000E+00  0.11368683772E-12  0.17120000000E+03  0.17120000000E+03 0.  0.
         13    1    1    2    0    0 -0.23551304211E+02 -0.15648640697E+01  0.10315466824E+03  0.10582064767E+03  0.10566000000E+00 0.  1.
        994    1    1    2    0    0  0.20336080152E+02  0.48814260784E+01  0.40292698016E+01  0.17251973653E+03  0.17120000000E+03 0.  0.
        998    1    1    2    0    0  0.32152240585E+01 -0.33165620087E+01  0.13928160582E+04  0.13928596158E+04  0.10000000000E+02 0.  1.
</event>
<event>
 5    1  0.1141915E-008  0.3822841E+03  0.7957747E-01  0.3441273E+00
         13   -1    0    0    0    0  0.00000000000E+00  0.00000000000E+00  0.14999999963E+04  0.15000000000E+04  0.10566000000E+00 0.  1.
        994   -1    0    0    0    0 -0.00000000000E+00 -0.00000000000E+00  0.11368683772E-12  0.17120000000E+03  0.17120000000E+03 0.  0.
         13    1    1    2    0    0 -0.26293270264E+00 -0.25049504935E+02  0.11479105843E+03  0.11749274484E+03  0.10566000000E+00 0.  1.
        994    1    1    2    0    0 -0.65531823616E+01  0.46794101037E+00  0.31278070428E+01  0.17135456324E+03  0.17120000000E+03 0.  0.
        998    1    1    2    0    0  0.68161150642E+01  0.24581563925E+02  0.13820811308E+04  0.13823526919E+04  0.10000000000E+02 0.  1.
</event>
<event>
 5    1  0.1141915E-008  0.3805168E+03  0.7957747E-01  0.3448911E+00
         13   -1    0    0    0    0  0.00000000000E+00  0.00000000000E+00  0.14999999963E+04  0.15000000000E+04  0.10566000000E+00 0. -1.
        994   -1    0    0    0    0 -0.00000000000E+00 -0.00000000000E+00  0.11368683772E-12  0.17120000000E+03  0.17120000000E+03 0.  0.
         13    1    1    2    0    0 -0.29245668456E+02  0.35777539504E+01  0.11074268560E+03  0.11459521380E+03  0.10566000000E+00 0. -1.
        994    1    1    2    0    0  0.16073920795E+02 -0.17218786411E+02  0.57263472820E+01  0.17290774589E+03  0.17120000000E+03 0.  0.
        998    1    1    2    0    0  0.13171747660E+02  0.13641032460E+02  0.13835309634E+04  0.13836970403E+04  0.10000000000E+02 0. -1.
</event>
<event>
 5    1  0.1141915E-008  0.3760697E+03  0.7957747E-01  0.3468453E+00
         13   -1    0    0    0    0  0.00000000000E+00  0.00000000000E+00  0.14999999963E+04  0.15000000000E+04  0.10566000000E+00 0.  1.
        994   -1    0    0    0    0 -0.00000000000E+00 -0.00000000000E+00  0.11368683772E-12  0.17120000000E+03  0.17120000000E+03 0.  0.
         13    1    1    2    0    0 -0.14883952206E+02 -0.80635308956E+01  0.20972715535E+02  0.26952152506E+02  0.10566000000E+00 0.  1.
        994    1    1    2    0    0  0.83005883288E+01  0.10096099031E+01  0.63672992716E+01  0.17152230636E+03  0.17120000000E+03 0.  0.
        998    1    1    2    0    0  0.65833638767E+01  0.70539209926E+01  0.14726599815E+04  0.14727255411E+04  0.10000000000E+02 0.  1.
</event>
<event>
 5    1  0.1141915E-008  0.3835730E+03  0.7957747E-01  0.3435747E+00
         13   -1    0    0    0    0  0.00000000000E+00  0.00000000000E+00  0.14999999963E+04  0.15000000000E+04  0.10566000000E+00 0.  1.
        994   -1    0    0    0    0 -0.00000000000E+00 -0.00000000000E+00  0.11368683772E-12  0.17120000000E+03  0.17120000000E+03 0.  0.
         13    1    1    2    0    0 -0.18399056147E+02 -0.92249126468E+01  0.10059199131E+03  0.10267611290E+03  0.10566000000E+00 0.  1.
        994    1    1    2    0    0 -0.78046669250E+01  0.79496887383E+01  0.27504193999E+01  0.17158413442E+03  0.17120000000E+03 0.  0.
        998    1    1    2    0    0  0.26203723073E+02  0.12752239084E+01  0.13966575856E+04  0.13969397527E+04  0.10000000000E+02 0.  1.
</event>
<event>
 5    1  0.1141915E-008  0.3730597E+03  0.7957747E-01  0.3481946E+00
         13   -1    0    0    0    0  0.00000000000E+00  0.00000000000E+00  0.14999999963E+04  0.15000000000E+04  0.10566000000E+00 0. -1.
        994   -1    0    0    0    0 -0.00000000000E+00 -0.00000000000E+00  0.11368683772E-12  0.17120000000E+03  0.17120000000E+03 0.  0.
         13    1    1    2    0    0 -0.63222741844E+02  0.53973977887E+02  0.30861865778E+03  0.31961819796E+03  0.10566000000E+00 0. -1.
        994    1    1    2    0    0  0.33613581496E+02 -0.30299360700E+01  0.16601788909E+02  0.17528295059E+03  0.17120000000E+03 0.  0.
        998    1    1    2    0    0  0.29609160348E+02 -0.50944041818E+02  0.11747795496E+04  0.11762988514E+04  0.10000000000E+02 0. -1.
</event>
<event>
 5    1  0.1141915E-008  0.3743657E+03  0.7957747E-01  0.3476064E+00
         13   -1    0    0    0    0  0.00000000000E+00  0.00000000000E+00  0.14999999963E+04  0.15000000000E+04  0.10566000000E+00 0.  1.
        994   -1    0    0    0    0 -0.00000000000E+00 -0.00000000000E+00  0.11368683772E-12  0.17120000000E+03  0.17120000000E+03 0.  0.
         13    1    1    2    0    0 -0.15721977438E+02  0.11971099272E+02  0.24786568964E+02  0.31699731188E+02  0.10566000000E+00 0.  1.
        994    1    1    2    0    0  0.11571838768E+02 -0.11341072127E+02  0.78996035543E+01  0.17214636536E+03  0.17120000000E+03 0.  0.
        998    1    1    2    0    0  0.41501386703E+01 -0.63002714513E+00  0.14673138238E+04  0.14673539035E+04  0.10000000000E+02 0.  1.
</event>
<event>
 5    1  0.1141915E-008  0.3815387E+03  0.7957747E-01  0.3444486E+00
         13   -1    0    0    0    0  0.00000000000E+00  0.00000000000E+00  0.14999999963E+04  0.15000000000E+04  0.10566000000E+00 0. -1.
        994   -1    0    0    0    0 -0.00000000000E+00 -0.00000000000E+00  0.11368683772E-12  0.17120000000E+03  0.17120000000E+03 0.  0.
         13    1    1    2    0    0  0.17725076828E+02 -0.35474830495E+01  0.23239821863E+01  0.18225669859E+02  0.10566000000E+00 0. -1.
        994    1    1    2    0    0  0.20633947347E+02 -0.24476546999E+02  0.20918600565E+02  0.17541918078E+03  0.17120000000E+03 0.  0.
        998    1    1    2    0    0 -0.38359024175E+02  0.28024030048E+02  0.14767574135E+04  0.14775551494E+04  0.10000000000E+02 0. -1.
</event>
<event>
 5    1  0.1141915E-008  0.3716460E+03  0.7957747E-01  0.3488360E+00
         13   -1    0    0    0    0  0.00000000000E+00  0.00000000000E+00  0.14999999963E+04  0.15000000000E+04  0.10566000000E+00 0. -1.
        994   -1    0    0    0    0 -0.00000000000E+00 -0.00000000000E+00  0.11368683772E-12  0.17120000000E+03  0.17120000000E+03 0.  0.
         13    1    1    2    0    0  0.55374834312E+02 -0.44239080850E+02  0.23859634021E+03  0.24890097082E+03  0.10566000000E+00 0. -1.
        994    1    1    2    0    0 -0.42867774632E+02 -0.23916370976E+02  0.20333263736E+02  0.17925546161E+03  0.17120000000E+03 0.  0.
        998    1    1    2    0    0 -0.12507059680E+02  0.68155451825E+02  0.12410703923E+04  0.12430435676E+04  0.10000000000E+02 0. -1.
</event>
<event>
 5    1  0.1141915E-008  0.3794751E+03  0.7957747E-01  0.3453447E+00
         13   -1    0    0    0    0  0.00000000000E+00  0.00000000000E+00  0.14999999963E+04  0.15000000000E+04  0.10566000000E+00 0. -1.
        994   -1    0    0    0    0 -0.00000000000E+00 -0.00000000000E+00  0.11368683772E-12  0.17120000000E+03  0.17120000000E+03 0.  0.
         13    1    1    2    0    0  0.10582609405E+02  0.28390863752E+01  0.12076603085E+02  0.16306671622E+02  0.10566000000E+00 0. -1.
        994    1    1    2    0    0  0.56486305928E+01 -0.12765044715E+01  0.45106840382E+01  0.17135729562E+03  0.17120000000E+03 0.  0.
        998    1    1    2    0    0 -0.16231239997E+02 -0.15625819037E+01  0.14834127092E+04  0.14835360328E+04  0.10000000000E+02 0. -1.
</event>
<event>
 5    1  0.1141915E-008  0.3846608E+03  0.7957747E-01  0.3431112E+00
         13   -1    0    0    0    0  0.00000000000E+00  0.00000000000E+00  0.14999999963E+04  0.15000000000E+04  0.10566000000E+00 0. -1.
        994   -1    0    0    0    0 -0.00000000000E+00 -0.00000000000E+00  0.11368683772E-12  0.17120000000E+03  0.17120000000E+03 0.  0.
         13    1    1    2    0    0  0.12376095477E+02  0.19175291709E+01  0.43249184202E+02  0.45026078616E+02  0.10566000000E+00 0. -1.
        994    1    1    2    0    0 -0.88797647222E+01 -0.72492822642E+00  0.20599936476E+01  0.17144404136E+03  0.17120000000E+03 0.  0.
        998    1    1    2    0    0 -0.34963307545E+01 -0.11926009445E+01  0.14546908184E+04  0.14547298800E+04  0.10000000000E+02 0. -1.
</event>
<event>
 5    1  0.1141915E-008  0.3764598E+03  0.7957747E-01  0.3466720E+00
         13   -1    0    0    0    0  0.00000000000E+00  0.00000000000E+00  0.14999999963E+04  0.15000000000E+04  0.10566000000E+00 0.  1.
        994   -1    0    0    0    0 -0.00000000000E+00 -0.00000000000E+00  0.11368683772E-12  0.17120000000E+03  0.17120000000E+03 0.  0.
         13    1    1    2    0    0 -0.47404098116E+02  0.48335699136E+01  0.17911183954E+03  0.18534177658E+03  0.10566000000E+00 0.  1.
        994    1    1    2    0    0  0.37000707375E+02 -0.39839507022E+01  0.10629921646E+02  0.17552025366E+03  0.17120000000E+03 0.  0.
        998    1    1    2    0    0  0.10403390741E+02 -0.84961921135E+00  0.13102582351E+04  0.13103379698E+04  0.10000000000E+02 0.  1.
</event>
<event>
 5    1  0.1141915E-008  0.3838000E+03  0.7957747E-01  0.3434778E+00
         13   -1    0    0    0    0  0.00000000000E+00  0.00000000000E+00  0.14999999963E+04  0.15000000000E+04  0.10566000000E+00 0. -1.
        994   -1    0    0    0    0 -0.00000000000E+00 -0.00000000000E+00  0.11368683772E-12  0.17120000000E+03  0.17120000000E+03 0.  0.
         13    1    1    2    0    0  0.16595204968E+01 -0.27782569464E+02  0.14837866593E+03  0.15096643615E+03  0.10566000000E+00 0. -1.
        994    1    1    2    0    0 -0.25010709315E+01  0.35783362843E+02  0.64867682137E+01  0.17503777471E+03  0.17120000000E+03 0.  0.
        998    1    1    2    0    0  0.84155043477E+00 -0.80007933795E+01  0.13451345621E+04  0.13451957891E+04  0.10000000000E+02 0. -1.
</event>
<event>
 5    1  0.1141915E-008  0.3689672E+03  0.7957747E-01  0.3500651E+00
         13   -1    0    0    0    0  0.00000000000E+00  0.00000000000E+00  0.14999999963E+04  0.15000000000E+04  0.10566000000E+00 0.  1.
        994   -1    0    0    0    0 -0.00000000000E+00 -0.00000000000E+00  0.11368683772E-12  0.17120000000E+03  0.17120000000E+03 0.  0.
         13    1    1    2    0    0  0.14696674908E+02  0.56560292119E+02  0.15081796467E+03  0.16174402162E+03  0.10566000000E+00 0.  1.
        994    1    1    2    0    0  0.76522757241E+01 -0.54163212079E+02  0.20890480380E+02  0.18093662713E+03  0.17120000000E+03 0.  0.
        998    1    1    2    0    0 -0.22348950633E+02 -0.23970800397E+01  0.13282915512E+04  0.13285193512E+04  0.10000000000E+02 0.  1.
</event>
<event>
 5    1  0.1141915E-008  0.3762998E+03  0.7957747E-01  0.3467430E+00
         13   -1    0    0    0    0  0.00000000000E+00  0.00000000000E+00  0.14999999963E+04  0.15000000000E+04  0.10566000000E+00 0. -1.
        994   -1    0    0    0    0 -0.00000000000E+00 -0.00000000000E+00  0.11368683772E-12  0.17120000000E+03  0.17120000000E+03 0.  0.
         13    1    1    2    0    0  0.19518697933E+02  0.24719548807E+01  0.29170070091E+02  0.35185142931E+02  0.10566000000E+00 0. -1.
        994    1    1    2    0    0 -0.19590447414E+02 -0.63526478181E+01  0.74495076487E+01  0.17259512429E+03  0.17120000000E+03 0.  0.
        998    1    1    2    0    0  0.71749481263E-01  0.38806929373E+01  0.14633804185E+04  0.14634197328E+04  0.10000000000E+02 0. -1.
</event>
<event>
 5    1  0.1141915E-008  0.3793356E+03  0.7957747E-01  0.3454056E+00
         13   -1    0    0    0    0  0.00000000000E+00  0.00000000000E+00  0.14999999963E+04  0.15000000000E+04  0.10566000000E+00 0.  1.
        994   -1    0    0    0    0 -0.00000000000E+00 -0.00000000000E+00  0.11368683772E-12  0.17120000000E+03  0.17120000000E+03 0.  0.
         13    1    1    2    0    0 -0.90368859560E+01 -0.20519081418E+02  0.59189237811E+02  0.63293562443E+02  0.10566000000E+00 0.  1.
        994    1    1    2    0    0 -0.18492667384E+02  0.15241570081E+01  0.56232378021E+01  0.17229440677E+03  0.17120000000E+03 0.  0.
        998    1    1    2    0    0  0.27529553340E+02  0.18994924410E+02  0.14351875207E+04  0.14356120308E+04  0.10000000000E+02 0.  1.
</event>
<event>
 5    1  0.1141915E-008  0.3746180E+03  0.7957747E-01  0.3474933E+00
         13   -1    0    0    0    0  0.00000000000E+00  0.00000000000E+00  0.14999999963E+04  0.15000000000E+04  0.10566000000E+00 0.  1.
        994   -1    0    0    0    0 -0.00000000000E+00 -0.00000000000E+00  0.11368683772E-12  0.17120000000E+03  0.17120000000E+03 0.  0.
         13    1    1    2    0    0 -0.32584626297E+02  0.89871252919E+01  0.87406851469E+02  0.93714967533E+02  0.10566000000E+00 0.  1.
        994    1    1    2    0    0 -0.63414535269E+01 -0.25906141891E+02  0.92999285648E+01  0.17351446883E+03  0.17120000000E+03 0.  0.
        998    1    1    2    0    0  0.38926079824E+02  0.16919016600E+02  0.14032932162E+04  0.14039705636E+04  0.10000000000E+02 0.  1.
</event>
<event>
 5    1  0.1141915E-008  0.3830902E+03  0.7957747E-01  0.3437812E+00
         13   -1    0    0    0    0  0.00000000000E+00  0.00000000000E+00  0.14999999963E+04  0.15000000000E+04  0.10566000000E+00 0. -1.
        994   -1    0    0    0    0 -0.00000000000E+00 -0.00000000000E+00  0.11368683772E-12  0.17120000000E+03  0.17120000000E+03 0.  0.
         13    1    1    2    0    0  0.81958387021E+01  0.58702244963E+01  0.18604620024E+02  0.21160679524E+02  0.10566000000E+00 0. -1.
        994    1    1    2    0    0 -0.71815191613E+01 -0.56755868758E+01  0.28585920899E+01  0.17146835875E+03  0.17120000000E+03 0.  0.
        998    1    1    2    0    0 -0.10143195408E+01 -0.19463762045E+00  0.14785367842E+04  0.14785709617E+04  0.10000000000E+02 0. -1.
</event>
<event>
 5    1  0.1141915E-008  0.3841436E+03  0.7957747E-01  0.3433313E+00
         13   -1    0    0    0    0  0.00000000000E+00  0.00000000000E+00  0.14999999963E+04  0.15000000000E+04  0.10566000000E+00 0.  1.
        994   -1    0    0    0    0 -0.00000000000E+00 -0.00000000000E+00  0.11368683772E-12  0.17120000000E+03  0.17120000000E+03 0.  0.
         13    1    1    2    0    0 -0.14916083706E+01 -0.16751384245E+02  0.63690680952E+02  0.65873725975E+02  0.10566000000E+00 0.  1.
        994    1    1    2    0    0  0.83094230103E+01  0.23170994956E+02  0.40567685481E+01  0.17300820469E+03  0.17120000000E+03 0.  0.
        998    1    1    2    0    0 -0.68178146397E+01 -0.64196107113E+01  0.14322525468E+04  0.14323180693E+04  0.10000000000E+02 0.  1.
</event>
<event>
 5    1  0.1141915E-008  0.3842220E+03  0.7957747E-01  0.3432979E+00
         13   -1    0    0    0    0  0.00000000000E+00  0.00000000000E+00  0.14999999963E+04  0.15000000000E+04  0.10566000000E+00 0. -1.
        994   -1    0    0    0    0 -0.00000000000E+00 -0.00000000000E+00  0.11368683772E-12  0.17120000000E+03  0.17120000000E+03 0.  0.
         13    1    1    2    0    0 -0.46859353422E+02 -0.88714549548E+02  0.25609931958E+03  0.27505080069E+03  0.10566000000E+00 0. -1.
        994    1    1    2    0    0  0.76389496524E+01  0.73311605805E+02  0.38948379079E+02  0.19041891012E+03  0.17120000000E+03 0.  0.
        998    1    1    2    0    0  0.39220403769E+02  0.15402943743E+02  0.12049522976E+04  0.12057302892E+04  0.10000000000E+02 0. -1.
</event>
<event>
 5    1  0.1141915E-008  0.3776648E+03  0.7957747E-01  0.3461390E+00
         13   -1    0    0    0    0  0.00000000000E+00  0.00000000000E+00  0.14999999963E+04  0.15000000000E+04  0.10566000000E+00 0. -1.
        994   -1    0    0    0    0 -0.00000000000E+00 -0.00000000000E+00  0.11368683772E-12  0.17120000000E+03  0.17120000000E+03 0.  0.
         13    1    1    2    0    0  0.12038872083E+02  0.50422189225E+01  0.13624608047E+02  0.18867949575E+02  0.10566000000E+00 0. -1.
        994    1    1    2    0    0 -0.10428910532E+02 -0.43492142294E+01  0.57468488328E+01  0.17166870452E+03  0.17120000000E+03 0.  0.
        998    1    1    2    0    0 -0.16099615512E+01 -0.69300469308E+00  0.14806285394E+04  0.14806633459E+04  0.10000000000E+02 0. -1.
</event>
<event>
 5    1  0.1141915E-008  0.3836267E+03  0.7957747E-01  0.3435517E+00
         13   -1    0    0    0    0  0.00000000000E+00  0.00000000000E+00  0.14999999963E+04  0.15000000000E+04  0.10566000000E+00 0.  1.
        994   -1    0    0    0    0 -0.00000000000E+00 -0.00000000000E+00  0.11368683772E-12  0.17120000000E+03  0.17120000000E+03 0.  0.
         13    1    1    2    0    0 -0.10888501059E+02  0.53571032487E+01  0.31026252306E+02  0.33315124294E+02  0.10566000000E+00 0.  1.
        994    1    1    2    0    0  0.70335238982E+01 -0.63824667097E+01  0.26115288976E+01  0.17148313743E+03  0.17120000000E+03 0.  0.
        998    1    1    2    0    0  0.38549771604E+01  0.10253634610E+01  0.14663622151E+04  0.14664017383E+04  0.10000000000E+02 0.  1.
</event>
<event>
 5    1  0.1141915E-008  0.3764756E+03  0.7957747E-01  0.3466650E+00
         13   -1    0    0    0    0  0.00000000000E+00  0.00000000000E+00  0.14999999963E+04  0.15000000000E+04  0.10566000000E+00 0.  1.
        994   -1    0    0    0    0 -0.00000000000E+00 -0.00000000000E+00  0.11368683772E-12  0.17120000000E+03  0.17120000000E+03 0.  0.
         13    1    1    2    0    0 -0.22731248498E+02 -0.40629790154E+02  0.74411687933E+02  0.87775850730E+02  0.10566000000E+00 0.  1.
        994    1    1    2    0    0  0.61667869717E+02 -0.23425671449E+02  0.30140903371E+02  0.18592902488E+03  0.17120000000E+03 0.  0.
        998    1    1    2    0    0 -0.38936621220E+02  0.64055461603E+02  0.13954474050E+04  0.13974951244E+04  0.10000000000E+02 0.  1.
</event>
<event>
 5    1  0.1141915E-008  0.3821325E+03  0.7957747E-01  0.3441925E+00
         13   -1    0    0    0    0  0.00000000000E+00  0.00000000000E+00  0.14999999963E+04  0.15000000000E+04  0.10566000000E+00 0.  1.
        994   -1    0    0    0    0 -0.00000000000E+00 -0.00000000000E+00  0.11368683772E-12  0.17120000000E+03  0.17120000000E+03 0.  0.
         13    1    1    2    0    0  0.56795842242E+01  0.98609445796E+01  0.22032463323E+02  0.24797913402E+02  0.10566000000E+00 0.  1.
        994    1    1    2    0    0  0.39349009855E+02  0.58678860073E+01  0.83324562595E+01  0.17595921826E+03  0.17120000000E+03 0.  0.
        998    1    1    2    0    0 -0.45028594079E+02 -0.15728830587E+02  0.14696350767E+04  0.14704428683E+04  0.10000000000E+02 0.  1.
</event>
<event>
 5    1  0.1141915E-008  0.3732187E+03  0.7957747E-01  0.3481228E+00
         13   -1    0    0    0    0  0.00000000000E+00  0.00000000000E+00  0.14999999963E+04  0.15000000000E+04  0.10566000000E+00 0. -1.
        994   -1    0    0    0    0 -0.00000000000E+00 -0.00000000000E+00  0.11368683772E-12  0.17120000000E+03  0.17120000000E+03 0.  0.
         13    1    1    2    0    0 -0.35907232337E+00 -0.15486547416E+02  0.38236312874E+01  0.15955983331E+02  0.10566000000E+00 0. -1.
        994    1    1    2    0    0 -0.47042249299E+02  0.17570641760E+01  0.20528145305E+02  0.17873697223E+03  0.17120000000E+03 0.  0.
        998    1    1    2    0    0  0.47401321623E+02  0.13729483240E+02  0.14756482197E+04  0.14765070444E+04  0.10000000000E+02 0. -1.
</event>
<event>
 5    1  0.1141915E-008  0.3803352E+03  0.7957747E-01  0.3449700E+00
         13   -1    0    0    0    0  0.00000000000E+00  0.00000000000E+00  0.14999999963E+04  0.15000000000E+04  0.10566000000E+00 0.  1.
        994   -1    0    0    0    0 -0.00000000000E+00 -0.00000000000E+00  0.11368683772E-12  0.17120000000E+03  0.17120000000E+03 0.  0.
         13    1    1    2    0    0  0.26300335497E+02 -0.12850376452E+02  0.95191887368E+02  0.99590895201E+02  0.10566000000E+00 0.  1.
        994    1    1    2    0    0 -0.36109876438E+02  0.18209458196E+02  0.94447296146E+01  0.17616512272E+03  0.17120000000E+03 0.  0.
        998    1    1    2    0    0  0.98095409404E+01 -0.53590817434E+01  0.13953633793E+04  0.13954439821E+04  0.10000000000E+02 0.  1.
</event>
<event>
 5    1  0.1141915E-008  0.3845552E+03  0.7957747E-01  0.3431561E+00
         13   -1    0    0    0    0  0.00000000000E+00  0.00000000000E+00  0.14999999963E+04  0.15000000000E+04  0.10566000000E+00 0. -1.
        994   -1    0    0    0    0 -0.00000000000E+00 -0.00000000000E+00  0.11368683772E-12  0.17120000000E+03  0.17120000000E+03 0.  0.
         13    1    1    2    0    0 -0.16774896690E+02 -0.12454378683E+02  0.11897332891E+03  0.12079392726E+03  0.10566000000E+00 0. -1.
        994    1    1    2    0    0  0.17439241598E+02 -0.33429319727E+01  0.28902316696E+01  0.17214266113E+03  0.17120000000E+03 0.  0.
        998    1    1    2    0    0 -0.66434490764E+00  0.15797310655E+02  0.13781364357E+04  0.13782634116E+04  0.10000000000E+02 0. -1.
</event>
<event>
 5    1  0.1141915E-008  0.3838959E+03  0.7957747E-01  0.3434368E+00
         13   -1    0    0    0    0  0.00000000000E+00  0.00000000000E+00  0.14999999963E+04  0.15000000000E+04  0.10566000000E+00 0. -1.
        994   -1    0    0    0    0 -0.00000000000E+00 -0.00000000000E+00  0.11368683772E-12  0.17120000000E+03  0.17120000000E+03 0.  0.
         13    1    1    2    0    0 -0.13461252166E+02  0.12447987904E+02  0.76950736879E+02  0.79104897338E+02  0.10566000000E+00 0. -1.
        994    1    1    2    0    0  0.96280616767E+01 -0.60226510343E+01  0.26050930498E+01  0.17159603261E+03  0.17120000000E+03 0.  0.
        998    1    1    2    0    0  0.38331904898E+01 -0.64253368700E+01  0.14204441664E+04  0.14204990701E+04  0.10000000000E+02 0. -1.
</event>
<event>
 5    1  0.1141915E-008  0.3751561E+03  0.7957747E-01  0.3472525E+00
         13   -1    0    0    0    0  0.00000000000E+00  0.00000000000E+00  0.14999999963E+04  0.15000000000E+04  0.10566000000E+00 0. -1.
        994   -1    0    0    0    0 -0.00000000000E+00 -0.00000000000E+00  0.11368683772E-12  0.17120000000E+03  0.17120000000E+03 0.  0.
         13    1    1    2    0    0 -0.25080272099E+02 -0.76635768439E+01  0.53619752682E+02  0.59689525885E+02  0.10566000000E+00 0. -1.
        994    1    1    2    0    0 -0.95784248747E+01  0.72596345411E+01  0.70895123649E+01  0.17176772020E+03  0.17120000000E+03 0.  0.
        998    1    1    2    0    0  0.34658696974E+02  0.40394230278E+00  0.14392907312E+04  0.14397427539E+04  0.10000000000E+02 0. -1.
</event>
<event>
 5    1  0.1141915E-008  0.3726802E+03  0.7957747E-01  0.3483663E+00
         13   -1    0    0    0    0  0.00000000000E+00  0.00000000000E+00  0.14999999963E+04  0.15000000000E+04  0.10566000000E+00 0. -1.
        994   -1    0    0    0    0 -0.00000000000E+00 -0.00000000000E+00  0.11368683772E-12  0.17120000000E+03  0.17120000000E+03 0.  0.
         13    1    1    2    0    0  0.10307899141E+03  0.84933736367E+02  0.68866501154E+03  0.70149734663E+03  0.10566000000E+00 0. -1.
        994    1    1    2    0    0 -0.87606107293E+02 -0.84135412931E+02  0.60244706306E+02  0.21838603981E+03  0.17120000000E+03 0.  0.
        998    1    1    2    0    0 -0.15472884121E+02 -0.79832343626E+00  0.75109027843E+03  0.75131661356E+03  0.10000000000E+02 0.  1.
</event>
<event>
 5    1  0.1141915E-008  0.3799391E+03  0.7957747E-01  0.3451424E+00
         13   -1    0    0    0    0  0.00000000000E+00  0.00000000000E+00  0.14999999963E+04  0.15000000000E+04  0.10566000000E+00 0.  1.
        994   -1    0    0    0    0 -0.00000000000E+00 -0.00000000000E+00  0.11368683772E-12  0.17120000000E+03  0.17120000000E+03 0.  0.
         13    1    1    2    0    0  0.11069810304E+02  0.87551409033E+01  0.22368412781E+02  0.26449012208E+02  0.10566000000E+00 0.  1.
        994    1    1    2    0    0 -0.59949370893E+01 -0.39785464823E+01  0.43370188327E+01  0.17140600291E+03  0.17120000000E+03 0.  0.
        998    1    1    2    0    0 -0.50748732142E+01 -0.47765944211E+01  0.14732945647E+04  0.14733449849E+04  0.10000000000E+02 0.  1.
</event>
<event>
 5    1  0.1141915E-008  0.3861738E+03  0.7957747E-01  0.3424709E+00
         13   -1    0    0    0    0  0.00000000000E+00  0.00000000000E+00  0.14999999963E+04  0.15000000000E+04  0.10566000000E+00 0.  1.
        994   -1    0    0    0    0 -0.00000000000E+00 -0.00000000000E+00  0.11368683772E-12  0.17120000000E+03  0.17120000000E+03 0.  0.
         13    1    1    2    0    0 -0.81691746430E+01  0.75756505222E+01  0.64112031154E+02  0.65072955965E+02  0.10566000000E+00 0.  1.
        994    1    1    2    0    0 -0.93839279495E+01 -0.93725744551E+01  0.16249679627E+01  0.17172065623E+03  0.17120000000E+03 0.  0.
        998    1    1    2    0    0  0.17553102592E+02  0.17969239329E+01  0.14342629972E+04  0.14344063878E+04  0.10000000000E+02 0.  1.
</event>
<event>
 5    1  0.1141915E-008  0.3830184E+03  0.7957747E-01  0.3438120E+00
         13   -1    0    0    0    0  0.00000000000E+00  0.00000000000E+00  0.14999999963E+04  0.15000000000E+04  0.10566000000E+00 0. -1.
        994   -1    0    0    0    0 -0.00000000000E+00 -0.00000000000E+00  0.11368683772E-12  0.17120000000E+03  0.17120000000E+03 0.  0.
         13    1    1    2    0    0 -0.91810144710E+01  0.18584080976E+02  0.90367265890E+02  0.92714146714E+02  0.10566000000E+00 0. -1.
        994    1    1    2    0    0  0.16217651557E+02  0.12186913554E+02  0.39804726284E+01  0.17244366398E+03  0.17120000000E+03 0.  0.
        998    1    1    2    0    0 -0.70366370863E+01 -0.30770994530E+02  0.14056522578E+04  0.14060421893E+04  0.10000000000E+02 0. -1.
</event>
<event>
 5    1  0.1141915E-008  0.3701367E+03  0.7957747E-01  0.3495263E+00
         13   -1    0    0    0    0  0.00000000000E+00  0.00000000000E+00  0.14999999963E+04  0.15000000000E+04  0.10566000000E+00 0. -1.
        994   -1    0    0    0    0 -0.00000000000E+00 -0.00000000000E+00  0.11368683772E-12  0.17120000000E+03  0.17120000000E+03 0.  0.
         13    1    1    2    0    0  0.41364878740E+02  0.46561977805E+02  0.25168345062E+03  0.25927522337E+03  0.10566000000E+00 0. -1.
        994    1    1    2    0    0 -0.27522873367E+01 -0.41331313567E+01  0.92828535003E+01  0.17152337808E+03  0.17120000000E+03 0.  0.
        998    1    1    2    0    0 -0.38612591403E+02 -0.42428846448E+02  0.12390336922E+04  0.12404013985E+04  0.10000000000E+02 0. -1.
</event>
<event>
 5    1  0.1141915E-008  0.3794561E+03  0.7957747E-01  0.3453530E+00
         13   -1    0    0    0    0  0.00000000000E+00  0.00000000000E+00  0.14999999963E+04  0.15000000000E+04  0.10566000000E+00 0.  1.
        994   -1    0    0    0    0 -0.00000000000E+00 -0.00000000000E+00  0.11368683772E-12  0.17120000000E+03  0.17120000000E+03 0.  0.
         13    1    1    2    0    0  0.12327378383E+02  0.71806118380E+02  0.37503785782E+03  0.38204906603E+03  0.10566000000E+00 0.  1.
        994    1    1    2    0    0 -0.25862728213E+02 -0.87344231650E+02  0.32718089332E+02  0.19666674575E+03  0.17120000000E+03 0.  0.
        998    1    1    2    0    0  0.13535349829E+02  0.15538113270E+02  0.10922440491E+04  0.10924841882E+04  0.10000000000E+02 0.  1.
</event>
<event>
 5    1  0.1141915E-008  0.3765615E+03  0.7957747E-01  0.3466268E+00
         13   -1    0    0    0    0  0.00000000000E+00  0.00000000000E+00  0.14999999963E+04  0.15000000000E+04  0.10566000000E+00 0. -1.
        994   -1    0    0    0    0 -0.00000000000E+00 -0.00000000000E+00  0.11368683772E-12  0.17120000000E+03  0.17120000000E+03 0.  0.
         13    1    1    2    0    0 -0.16565230325E+01  0.30864844183E+02  0.86893637895E+02  0.92227426212E+02  0.10566000000E+00 0. -1.
        994    1    1    2    0    0  0.44274989545E+01  0.33888509379E+01  0.59841592253E+01  0.17139526604E+03  0.17120000000E+03 0.  0.
        998    1    1    2    0    0 -0.27709759220E+01 -0.34253695121E+02  0.14071221992E+04  0.14075773078E+04  0.10000000000E+02 0. -1.
</event>
<event>
 5    1  0.1141915E-008  0.3727238E+03  0.7957747E-01  0.3483466E+00
         13   -1    0    0    0    0  0.00000000000E+00  0.00000000000E+00  0.14999999963E+04  0.15000000000E+04  0.10566000000E+00 0. -1.
        994   -1    0    0    0    0 -0.00000000000E+00 -0.00000000000E+00  0.11368683772E-12  0.17120000000E+03  0.17120000000E+03 0.  0.
         13    1    1    2    0    0 -0.12372607373E+02 -0.26166306431E+02  0.49561174518E+02  0.57394060573E+02  0.10566000000E+00 0. -1.
        994    1    1    2    0    0  0.10359599803E+02  0.21725013508E+02  0.98391964251E+01  0.17316335440E+03  0.17120000000E+03 0.  0.
        998    1    1    2    0    0  0.20130075697E+01  0.44412929224E+01  0.14405996253E+04  0.14406425850E+04  0.10000000000E+02 0. -1.
</event>
<event>
 5    1  0.1141915E-008  0.3808493E+03  0.7957747E-01  0.3447469E+00
         13   -1    0    0    0    0  0.00000000000E+00  0.00000000000E+00  0.14999999963E+04  0.15000000000E+04  0.10566000000E+00 0.  1.
        994   -1    0    0    0    0 -0.00000000000E+00 -0.00000000000E+00  0.11368683772E-12  0.17120000000E+03  0.17120000000E+03 0.  0.
         13    1    1    2    0    0 -0.57478890468E+02 -0.55993418718E+01  0.90909077901E+02  0.10770165778E+03  0.10566000000E+00 0.  1.
        994    1    1    2    0    0  0.49000212414E+02 -0.15680118588E+01  0.25582658764E+02  0.17990939916E+03  0.17120000000E+03 0.  0.
        998    1    1    2    0    0  0.84786780539E+01  0.71673537306E+01  0.13835082596E+04  0.13835889431E+04  0.10000000000E+02 0.  1.
</event>
<event>
 5    1  0.1141915E-008  0.3840618E+03  0.7957747E-01  0.3433661E+00
         13   -1    0    0    0    0  0.00000000000E+00  0.00000000000E+00  0.14999999963E+04  0.15000000000E+04  0.10566000000E+00 0. -1.
        994   -1    0    0    0    0 -0.00000000000E+00 -0.00000000000E+00  0.11368683772E-12  0.17120000000E+03  0.17120000000E+03 0.  0.
         13    1    1    2    0    0 -0.54207536044E+01 -0.89000904009E+01  0.25121410199E+02  0.27197290181E+02  0.10566000000E+00 0. -1.
        994    1    1    2    0    0 -0.46178480517E+01  0.13270712574E+02  0.27481932327E+01  0.17179763939E+03  0.17120000000E+03 0.  0.
        998    1    1    2    0    0  0.10038601656E+02 -0.43706221729E+01  0.14721303928E+04  0.14722050704E+04  0.10000000000E+02 0. -1.
</event>
<event>
 5    1  0.1141915E-008  0.3761646E+03  0.7957747E-01  0.3468031E+00
         13   -1    0    0    0    0  0.00000000000E+00  0.00000000000E+00  0.14999999963E+04  0.15000000000E+04  0.10566000000E+00 0. -1.
        994   -1    0    0    0    0 -0.00000000000E+00 -0.00000000000E+00  0.11368683772E-12  0.17120000000E+03  0.17120000000E+03 0.  0.
         13    1    1    2    0    0 -0.60563514008E+01 -0.35112872127E+02  0.10691530155E+03  0.11269643317E+03  0.10566000000E+00 0. -1.
        994    1    1    2    0    0 -0.96143250897E+01  0.13700669779E+02  0.70310124555E+01  0.17215986389E+03  0.17120000000E+03 0.  0.
        998    1    1    2    0    0  0.15670676491E+02  0.21412202348E+02  0.13860536823E+04  0.13863437029E+04  0.10000000000E+02 0. -1.
</event>
<event>
 5    1  0.1141915E-008  0.3791778E+03  0.7957747E-01  0.3454747E+00
         13   -1    0    0    0    0  0.00000000000E+00  0.00000000000E+00  0.14999999963E+04  0.15000000000E+04  0.10566000000E+00 0. -1.
        994   -1    0    0    0    0 -0.00000000000E+00 -0.00000000000E+00  0.11368683772E-12  0.17120000000E+03  0.17120000000E+03 0.  0.
         13    1    1    2    0    0  0.58261935464E+01 -0.40087002505E+02  0.20781498366E+03  0.21172621685E+03  0.10566000000E+00 0. -1.
        994    1    1    2    0    0 -0.36183925197E+02 -0.13535804058E+00  0.89500870081E+01  0.17521084105E+03  0.17120000000E+03 0.  0.
        998    1    1    2    0    0  0.30357731651E+02  0.40222360546E+02  0.12832349256E+04  0.12842629421E+04  0.10000000000E+02 0. -1.
</event>
<event>
 5    1  0.1141915E-008  0.3792730E+03  0.7957747E-01  0.3454330E+00
         13   -1    0    0    0    0  0.00000000000E+00  0.00000000000E+00  0.14999999963E+04  0.15000000000E+04  0.10566000000E+00 0. -1.
        994   -1    0    0    0    0 -0.00000000000E+00 -0.00000000000E+00  0.11368683772E-12  0.17120000000E+03  0.17120000000E+03 0.  0.
         13    1    1    2    0    0 -0.91610653318E+01  0.35561286686E+02  0.19218985780E+03  0.19566676477E+03  0.10566000000E+00 0. -1.
        994    1    1    2    0    0  0.13587107336E+03  0.19279262868E+02  0.70438549985E+02  0.23044233091E+03  0.17120000000E+03 0.  0.
        998    1    1    2    0    0 -0.12671000803E+03 -0.54840549554E+02  0.12373715885E+04  0.12450909043E+04  0.10000000000E+02 0. -1.
</event>
<event>
 5    1  0.1141915E-008  0.3814493E+03  0.7957747E-01  0.3444872E+00
         13   -1    0    0    0    0  0.00000000000E+00  0.00000000000E+00  0.14999999963E+04  0.15000000000E+04  0.10566000000E+00 0.  1.
        994   -1    0    0    0    0 -0.00000000000E+00 -0.00000000000E+00  0.11368683772E-12  0.17120000000E+03  0.17120000000E+03 0.  0.
         13    1    1    2    0    0  0.72067989466E+02 -0.10547980946E+03  0.36203163637E+03  0.38390975789E+03  0.10566000000E+00 0.  1.
        994    1    1    2    0    0 -0.54074098413E+02  0.10970526166E+03  0.73881513983E+02  0.22299589831E+03  0.17120000000E+03 0.  0.
        998    1    1    2    0    0 -0.17993891053E+02 -0.42254522023E+01  0.10640868459E+04  0.10642943438E+04  0.10000000000E+02 0.  1.
</event>
<event>
 5    1  0.1141915E-008  0.3833921E+03  0.7957747E-01  0.3436520E+00
         13   -1    0    0    0    0  0.00000000000E+00  0.00000000000E+00  0.14999999963E+04  0.15000000000E+04  0.10566000000E+00 0.  1.
        994   -1    0    0    0    0 -0.00000000000E+00 -0.00000000000E+00  0.11368683772E-12  0.17120000000E+03  0.17120000000E+03 0.  0.
         13    1    1    2    0    0 -0.49603425086E+01 -0.16859041335E+02  0.60549875925E+02  0.63048639249E+02  0.10566000000E+00 0.  1.
        994    1    1    2    0    0  0.60895684248E+00  0.19528251113E+02  0.36934790157E+01  0.17235082015E+03  0.17120000000E+03 0.  0.
        998    1    1    2    0    0  0.43513856661E+01 -0.26692097774E+01  0.14357566413E+04  0.14358005406E+04  0.10000000000E+02 0.  1.
</event>
<event>
 5    1  0.1141915E-008  0.3837020E+03  0.7957747E-01  0.3435196E+00
         13   -1    0    0    0    0  0.00000000000E+00  0.00000000000E+00  0.14999999963E+04  0.15000000000E+04  0.10566000000E+00 0.  1.
        994   -1    0    0    0    0 -0.00000000000E+00 -0.00000000000E+00  0.11368683772E-12  0.17120000000E+03  0.17120000000E+03 0.  0.
         13    1    1    2    0    0 -0.16305792319E+02 -0.48174059191E+01  0.61436766898E+02  0.63746166582E+02  0.10566000000E+00 0.  1.
        994    1    1    2    0    0  0.10795018192E+02  0.19806357132E+02  0.39581469831E+01  0.17272501593E+03  0.17120000000E+03 0.  0.
        998    1    1    2    0    0  0.55107741263E+01 -0.14988951213E+02  0.14346050824E+04  0.14347288175E+04  0.10000000000E+02 0.  1.
</event>
<event>
 5    1  0.1141915E-008  0.3787008E+03  0.7957747E-01  0.3456835E+00
         13   -1    0    0    0    0  0.00000000000E+00  0.00000000000E+00  0.14999999963E+04  0.15000000000E+04  0.10566000000E+00 0.  1.
        994   -1    0    0    0    0 -0.00000000000E+00 -0.00000000000E+00  0.11368683772E-12  0.17120000000E+03  0.17120000000E+03 0.  0.
         13    1    1    2    0    0  0.37288303746E+01 -0.27957857598E+02  0.86194527731E+02  0.90692082082E+02  0.10566000000E+00 0.  1.
        994    1    1    2    0    0 -0.46290195415E+01  0.40364327886E+01  0.49170691505E+01  0.17138068205E+03  0.17120000000E+03 0.  0.
        998    1    1    2    0    0  0.90018916685E+00  0.23921424809E+02  0.14088883994E+04  0.14091272359E+04  0.10000000000E+02 0.  1.
</event>
<event>
 5    1  0.1141915E-008  0.3795999E+03  0.7957747E-01  0.3452903E+00
         13   -1    0    0    0    0  0.00000000000E+00  0.00000000000E+00  0.14999999963E+04  0.15000000000E+04  0.10566000000E+00 0.  1.
        994   -1    0    0    0    0 -0.00000000000E+00 -0.00000000000E+00  0.11368683772E-12  0.17120000000E+03  0.17120000000E+03 0.  0.
         13    1    1    2    0    0  0.14304893843E+02 -0.20870163902E+02  0.72824590002E+02  0.77094914243E+02  0.10566000000E+00 0.  1.
        994    1    1    2    0    0  0.19298873098E+01  0.18572303645E+02  0.55032015004E+01  0.17230316351E+03  0.17120000000E+03 0.  0.
        998    1    1    2    0    0 -0.16234781152E+02  0.22978602571E+01  0.14216722048E+04  0.14218019223E+04  0.10000000000E+02 0.  1.
</event>
<event>
 5    1  0.1141915E-008  0.3756603E+03  0.7957747E-01  0.3470275E+00
         13   -1    0    0    0    0  0.00000000000E+00  0.00000000000E+00  0.14999999963E+04  0.15000000000E+04  0.10566000000E+00 0.  1.
        994   -1    0    0    0    0 -0.00000000000E+00 -0.00000000000E+00  0.11368683772E-12  0.17120000000E+03  0.17120000000E+03 0.  0.
         13    1    1    2    0    0  0.22757325529E+02 -0.63703848216E+00  0.38407390960E+02  0.44647962189E+02  0.10566000000E+00 0.  1.
        994    1    1    2    0    0 -0.14486756805E+02  0.64148068328E+01  0.71918304698E+01  0.17208189415E+03  0.17120000000E+03 0.  0.
        998    1    1    2    0    0 -0.82705687239E+01 -0.57777683507E+01  0.14544007748E+04  0.14544701437E+04  0.10000000000E+02 0.  1.
</event>
<event>
 5    1  0.1141915E-008  0.3895571E+03  0.7957747E-01  0.3410572E+00
         13   -1    0    0    0    0  0.00000000000E+00  0.00000000000E+00  0.14999999963E+04  0.15000000000E+04  0.10566000000E+00 0.  1.
        994   -1    0    0    0    0 -0.00000000000E+00 -0.00000000000E+00  0.11368683772E-12  0.17120000000E+03  0.17120000000E+03 0.  0.
         13    1    1    2    0    0 -0.96907812253E+02  0.76686371234E+02  0.29294294657E+03  0.31794261231E+03  0.10566000000E+00 0.  1.
        994    1    1    2    0    0  0.80226657087E+02 -0.75826880428E+02  0.69057946396E+02  0.21509177637E+03  0.17120000000E+03 0.  0.
        998    1    1    2    0    0  0.16681155166E+02 -0.85949080574E+00  0.11379991033E+04  0.11381656113E+04  0.10000000000E+02 0.  1.
</event>
<event>
 5    1  0.1141915E-008  0.3747973E+03  0.7957747E-01  0.3474130E+00
         13   -1    0    0    0    0  0.00000000000E+00  0.00000000000E+00  0.14999999963E+04  0.15000000000E+04  0.10566000000E+00 0. -1.
        994   -1    0    0    0    0 -0.00000000000E+00 -0.00000000000E+00  0.11368683772E-12  0.17120000000E+03  0.17120000000E+03 0.  0.
         13    1    1    2    0    0  0.21262516407E+02  0.11945629003E+02  0.40023410110E+02  0.46868722803E+02  0.10566000000E+00 0. -1.
        994    1    1    2    0    0 -0.22993211592E+02 -0.11698851176E+02  0.90500659672E+01  0.17336924350E+03  0.17120000000E+03 0.  0.
        998    1    1    2    0    0  0.17306951843E+01 -0.24677782697E+00  0.14509265202E+04  0.14509620337E+04  0.10000000000E+02 0. -1.
</event>
<event>
 5    1  0.1141915E-008  0.3963822E+03  0.7957747E-01  0.3382788E+00
         13   -1    0    0    0    0  0.00000000000E+00  0.00000000000E+00  0.14999999963E+04  0.15000000000E+04  0.10566000000E+00 0. -1.
        994   -1    0    0    0    0 -0.00000000000E+00 -0.00000000000E+00  0.11368683772E-12  0.17120000000E+03  0.17120000000E+03 0.  0.
         13    1    1    2    0    0  0.11075209494E+03 -0.89293610246E+02  0.28307573153E+03  0.31681422997E+03  0.10566000000E+00 0. -1.
        994    1    1    2    0    0 -0.11474967714E+03  0.10314363063E+03  0.12473943630E+03  0.26206003875E+03  0.17120000000E+03 0.  0.
        998    1    1    2    0    0  0.39975822022E+01 -0.13850020380E+02  0.10921848284E+04  0.10923257313E+04  0.10000000000E+02 0. -1.
</event>
<event>
 5    1  0.1141915E-008  0.3781612E+03  0.7957747E-01  0.3459204E+00
         13   -1    0    0    0    0  0.00000000000E+00  0.00000000000E+00  0.14999999963E+04  0.15000000000E+04  0.10566000000E+00 0. -1.
        994   -1    0    0    0    0 -0.00000000000E+00 -0.00000000000E+00  0.11368683772E-12  0.17120000000E+03  0.17120000000E+03 0.  0.
         13    1    1    2    0    0  0.11277437629E+02 -0.96454011633E+01  0.19175592731E+02  0.24247244869E+02  0.10566000000E+00 0. -1.
        994    1    1    2    0    0 -0.15795175397E+02  0.10397258063E+02  0.62678740115E+01  0.17235520528E+03  0.17120000000E+03 0.  0.
        998    1    1    2    0    0  0.45177377682E+01 -0.75185689990E+00  0.14745565295E+04  0.14745975499E+04  0.10000000000E+02 0. -1.
</event>
<event>
 5    1  0.1141915E-008  0.3826233E+03  0.7957747E-01  0.3439815E+00
         13   -1    0    0    0    0  0.00000000000E+00  0.00000000000E+00  0.14999999963E+04  0.15000000000E+04  0.10566000000E+00 0.  1.
        994   -1    0    0    0    0 -0.00000000000E+00 -0.00000000000E+00  0.11368683772E-12  0.17120000000E+03  0.17120000000E+03 0.  0.
         13    1    1    2    0    0 -0.57425252678E+01  0.16141782789E+02  0.50561646943E+02  0.53385625909E+02  0.10566000000E+00 0.  1.
        994    1    1    2    0    0  0.14302830792E+01 -0.14701147734E+02  0.35381203406E+01  0.17187241707E+03  0.17120000000E+03 0.  0.
        998    1    1    2    0    0  0.43122421886E+01 -0.14406350555E+01  0.14459002290E+04  0.14459419570E+04  0.10000000000E+02 0.  1.
</event>
<event>
 5    1  0.1141915E-008  0.3827577E+03  0.7957747E-01  0.3439238E+00
         13   -1    0    0    0    0  0.00000000000E+00  0.00000000000E+00  0.14999999963E+04  0.15000000000E+04  0.10566000000E+00 0. -1.
        994   -1    0    0    0    0 -0.00000000000E+00 -0.00000000000E+00  0.11368683772E-12  0.17120000000E+03  0.17120000000E+03 0.  0.
         13    1    1    2    0    0  0.26391685476E+02  0.14010982326E+01  0.12851210416E+03  0.13120158618E+03  0.10566000000E+00 0. -1.
        994    1    1    2    0    0 -0.13223805752E+02 -0.61101185407E+01  0.34507821814E+01  0.17185328186E+03  0.17120000000E+03 0.  0.
        998    1    1    2    0    0 -0.13167879724E+02  0.47090203081E+01  0.13680371099E+04  0.13681451320E+04  0.10000000000E+02 0. -1.
</event>
<event>
 5    1  0.1141915E-008  0.3819897E+03  0.7957747E-01  0.3442541E+00
         13   -1    0    0    0    0  0.00000000000E+00  0.00000000000E+00  0.14999999963E+04  0.15000000000E+04  0.10566000000E+00 0.  1.
        994   -1    0    0    0    0 -0.00000000000E+00 -0.00000000000E+00  0.11368683772E-12  0.17120000000E+03  0.17120000000E+03 0.  0.
         13    1    1    2    0    0  0.19824544396E+02 -0.19068208418E+02  0.12791630448E+03  0.13084036552E+03  0.10566000000E+00 0.  1.
        994    1    1    2    0    0 -0.12921651050E+01  0.83665600970E+01  0.33701882858E+01  0.17144231446E+03  0.17120000000E+03 0.  0.
        998    1    1    2    0    0 -0.18532379291E+02  0.10701648321E+02  0.13687135035E+04  0.13689173200E+04  0.10000000000E+02 0.  1.
</event>
<event>
 5    1  0.1141915E-008  0.3852973E+03  0.7957747E-01  0.3428412E+00
         13   -1    0    0    0    0  0.00000000000E+00  0.00000000000E+00  0.14999999963E+04  0.15000000000E+04  0.10566000000E+00 0. -1.
        994   -1    0    0    0    0 -0.00000000000E+00 -0.00000000000E+00  0.11368683772E-12  0.17120000000E+03  0.17120000000E+03 0.  0.
         13    1    1    2    0    0 -0.47379947272E+01  0.13468087119E+02  0.71649317920E+02  0.73058017268E+02  0.10566000000E+00 0. -1.
        994    1    1    2    0    0  0.87752526013E+01 -0.11583991343E+01  0.17400562816E+01  0.17143749515E+03  0.17120000000E+03 0.  0.
        998    1    1    2    0    0 -0.40372578741E+01 -0.12309687985E+02  0.14266106221E+04  0.14267044876E+04  0.10000000000E+02 0. -1.
</event>
<event>
 5    1  0.1141915E-008  0.3849051E+03  0.7957747E-01  0.3430075E+00
         13   -1    0    0    0    0  0.00000000000E+00  0.00000000000E+00  0.14999999963E+04  0.15000000000E+04  0.10566000000E+00 0. -1.
        994   -1    0    0    0    0 -0.00000000000E+00 -0.00000000000E+00  0.11368683772E-12  0.17120000000E+03  0.17120000000E+03 0.  0.
         13    1    1    2    0    0 -0.12935807138E+02  0.11022832626E+02  0.82274396619E+02  0.84011460221E+02  0.10566000000E+00 0. -1.
        994    1    1    2    0    0  0.14812769553E+02 -0.96302768505E+01  0.27048465360E+01  0.17213052190E+03  0.17120000000E+03 0.  0.
        998    1    1    2    0    0 -0.18769624151E+01 -0.13925557750E+01  0.14150207531E+04  0.14150580179E+04  0.10000000000E+02 0. -1.
</event>
<event>
 5    1  0.1141915E-008  0.3770351E+03  0.7957747E-01  0.3464171E+00
         13   -1    0    0    0    0  0.00000000000E+00  0.00000000000E+00  0.14999999963E+04  0.15000000000E+04  0.10566000000E+00 0. -1.
        994   -1    0    0    0    0 -0.00000000000E+00 -0.00000000000E+00  0.11368683772E-12  0.17120000000E+03  0.17120000000E+03 0.  0.
         13    1    1    2    0    0 -0.38976567256E+02 -0.43761474333E+02  0.28478677050E+03  0.29075377082E+03  0.10566000000E+00 0. -1.
        994    1    1    2    0    0  0.34837595409E+02  0.24359269339E+02  0.11762390816E+02  0.17679034446E+03  0.17120000000E+03 0.  0.
        998    1    1    2    0    0  0.41389718474E+01  0.19402204994E+02  0.12034508350E+04  0.12036558847E+04  0.10000000000E+02 0. -1.
</event>
<event>
 5    1  0.1141915E-008  0.3843415E+03  0.7957747E-01  0.3432470E+00
         13   -1    0    0    0    0  0.00000000000E+00  0.00000000000E+00  0.14999999963E+04  0.15000000000E+04  0.10566000000E+00 0.  1.
        994   -1    0    0    0    0 -0.00000000000E+00 -0.00000000000E+00  0.11368683772E-12  0.17120000000E+03  0.17120000000E+03 0.  0.
         13    1    1    2    0    0 -0.93757847876E+01 -0.23567314850E+02  0.14458241057E+03  0.14679035486E+03  0.10566000000E+00 0.  1.
        994    1    1    2    0    0  0.73736017847E+01  0.29528681765E+02  0.50162576156E+01  0.17395664946E+03  0.17120000000E+03 0.  0.
        998    1    1    2    0    0  0.20021830029E+01 -0.59613669143E+01  0.13504013281E+04  0.13504529957E+04  0.10000000000E+02 0.  1.
</event>
<event>
 5    1  0.1141915E-008  0.3847714E+03  0.7957747E-01  0.3430642E+00
         13   -1    0    0    0    0  0.00000000000E+00  0.00000000000E+00  0.14999999963E+04  0.15000000000E+04  0.10566000000E+00 0. -1.
        994   -1    0    0    0    0 -0.00000000000E+00 -0.00000000000E+00  0.11368683772E-12  0.17120000000E+03  0.17120000000E+03 0.  0.
         13    1    1    2    0    0  0.12335642814E+02  0.90559713781E+01  0.68832760673E+02  0.70513394523E+02  0.10566000000E+00 0. -1.
        994    1    1    2    0    0 -0.14345808421E+01 -0.80833536433E+01  0.19655151255E+01  0.17140799829E+03  0.17120000000E+03 0.  0.
        998    1    1    2    0    0 -0.10901061972E+02 -0.97261773478E+00  0.14292017205E+04  0.14292786072E+04  0.10000000000E+02 0. -1.
</event>
<event>
 5    1  0.1312795E-008  0.3854369E+03  0.7957747E-01  0.3427821E+00
         13   -1    0    0    0    0  0.00000000000E+00  0.00000000000E+00  0.14999999963E+04  0.15000000000E+04  0.10566000000E+00 0.  1.
        994   -1    0    0    0    0 -0.00000000000E+00 -0.00000000000E+00  0.11368683772E-12  0.17120000000E+03  0.17120000000E+03 0.  0.
         13    1    1    2    0    0 -0.77556481334E+01 -0.12966971996E+02  0.76336829684E+02  0.77817833245E+02  0.10566000000E+00 0.  1.
        994    1    1    2    0    0  0.10596983912E+02  0.14930096217E+02  0.25149450507E+01  0.17219456667E+03  0.17120000000E+03 0.  0.
        998    1    1    2    0    0 -0.28413357789E+01 -0.19631242204E+01  0.14211482215E+04  0.14211876001E+04  0.10000000000E+02 0.  1.
</event>
<event>
 5    1  0.1141915E-008  0.3801593E+03  0.7957747E-01  0.3450465E+00
         13   -1    0    0    0    0  0.00000000000E+00  0.00000000000E+00  0.14999999963E+04  0.15000000000E+04  0.10566000000E+00 0. -1.
        994   -1    0    0    0    0 -0.00000000000E+00 -0.00000000000E+00  0.11368683772E-12  0.17120000000E+03  0.17120000000E+03 0.  0.
         13    1    1    2    0    0  0.26755071596E+02  0.39309536301E+01  0.99983258084E+02  0.10357581433E+03  0.10566000000E+00 0. -1.
        994    1    1    2    0    0  0.69482552876E+01 -0.72163494856E+01  0.43880993236E+01  0.17154897076E+03  0.17120000000E+03 0.  0.
        998    1    1    2    0    0 -0.33703326883E+02  0.32853958555E+01  0.13956286389E+04  0.13960752149E+04  0.10000000000E+02 0. -1.
</event>
<event>
 5    1  0.1141915E-008  0.3812230E+03  0.7957747E-01  0.3445851E+00
         13   -1    0    0    0    0  0.00000000000E+00  0.00000000000E+00  0.14999999963E+04  0.15000000000E+04  0.10566000000E+00 0.  1.
        994   -1    0    0    0    0 -0.00000000000E+00 -0.00000000000E+00  0.11368683772E-12  0.17120000000E+03  0.17120000000E+03 0.  0.
         13    1    1    2    0    0 -0.16121267047E+02  0.31620839825E+02  0.16965695158E+03  0.17332993148E+03  0.10566000000E+00 0.  1.
        994    1    1    2    0    0  0.23864039489E+02 -0.18760381755E+02  0.65910469229E+01  0.17399519017E+03  0.17120000000E+03 0.  0.
        998    1    1    2    0    0 -0.77427724416E+01 -0.12860458070E+02  0.13237519978E+04  0.13238748783E+04  0.10000000000E+02 0.  1.
</event>
<event>
 5    1  0.1141915E-008  0.3798656E+03  0.7957747E-01  0.3451744E+00
         13   -1    0    0    0    0  0.00000000000E+00  0.00000000000E+00  0.14999999963E+04  0.15000000000E+04  0.10566000000E+00 0.  1.
        994   -1    0    0    0    0 -0.00000000000E+00 -0.00000000000E+00  0.11368683772E-12  0.17120000000E+03  0.17120000000E+03 0.  0.
         13    1    1    2    0    0 -0.16677002012E+02  0.14200265063E+02  0.56578658203E+02  0.60670632534E+02  0.10566000000E+00 0.  1.
        994    1    1    2    0    0  0.94313090975E+01 -0.35582463376E+01  0.45409254730E+01  0.17155661081E+03  0.17120000000E+03 0.  0.
        998    1    1    2    0    0  0.72456929148E+01 -0.10642018725E+02  0.14388804126E+04  0.14389727567E+04  0.10000000000E+02 0.  1.
</event>
<event>
 5    1  0.1141915E-008  0.3827736E+03  0.7957747E-01  0.3439170E+00
         13   -1    0    0    0    0  0.00000000000E+00  0.00000000000E+00  0.14999999963E+04  0.15000000000E+04  0.10566000000E+00 0. -1.
        994   -1    0    0    0    0 -0.00000000000E+00 -0.00000000000E+00  0.11368683772E-12  0.17120000000E+03  0.17120000000E+03 0.  0.
         13    1    1    2    0    0  0.24461300925E+02  0.89375027092E+01  0.10993723004E+03  0.11297982081E+03  0.10566000000E+00 0. -1.
        994    1    1    2    0    0 -0.31143152867E+02 -0.12289441922E+02  0.64615664554E+01  0.17456264834E+03  0.17120000000E+03 0.  0.
        998    1    1    2    0    0  0.66818519415E+01  0.33519392132E+01  0.13836011998E+04  0.13836575309E+04  0.10000000000E+02 0. -1.
</event>
<event>
 5    1  0.1141915E-008  0.3825347E+03  0.7957747E-01  0.3440195E+00
         13   -1    0    0    0    0  0.00000000000E+00  0.00000000000E+00  0.14999999963E+04  0.15000000000E+04  0.10566000000E+00 0.  1.
        994   -1    0    0    0    0 -0.00000000000E+00 -0.00000000000E+00  0.11368683772E-12  0.17120000000E+03  0.17120000000E+03 0.  0.
         13    1    1    2    0    0 -0.14291259042E+02  0.41160904744E+01  0.38188140730E+02  0.40982039265E+02  0.10566000000E+00 0.  1.
        994    1    1    2    0    0  0.74805702535E+01  0.15295418983E+01  0.30523537400E+01  0.17139736081E+03  0.17120000000E+03 0.  0.
        998    1    1    2    0    0  0.68106887890E+01 -0.56456323727E+01  0.14587595018E+04  0.14588205999E+04  0.10000000000E+02 0.  1.
</event>
<event>
 5    1  0.1141915E-008  0.3787841E+03  0.7957747E-01  0.3456470E+00
         13   -1    0    0    0    0  0.00000000000E+00  0.00000000000E+00  0.14999999963E+04  0.15000000000E+04  0.10566000000E+00 0. -1.
        994   -1    0    0    0    0 -0.00000000000E+00 -0.00000000000E+00  0.11368683772E-12  0.17120000000E+03  0.17120000000E+03 0.  0.
         13    1    1    2    0    0  0.30313624873E+02  0.15291254789E+02  0.29998944481E+02  0.45306579655E+02  0.10566000000E+00 0. -1.
        994    1    1    2    0    0 -0.28862238723E+02 -0.15402696190E+02  0.19531522050E+02  0.17538868900E+03  0.17120000000E+03 0.  0.
        998    1    1    2    0    0 -0.14513861499E+01  0.11144140114E+00  0.14504695297E+04  0.14505047313E+04  0.10000000000E+02 0. -1.
</event>
<event>
 5    1  0.1141915E-008  0.3736317E+03  0.7957747E-01  0.3479365E+00
         13   -1    0    0    0    0  0.00000000000E+00  0.00000000000E+00  0.14999999963E+04  0.15000000000E+04  0.10566000000E+00 0. -1.
        994   -1    0    0    0    0 -0.00000000000E+00 -0.00000000000E+00  0.11368683772E-12  0.17120000000E+03  0.17120000000E+03 0.  0.
         13    1    1    2    0    0 -0.86269422078E+02  0.13173427188E+02  0.51697399416E+03  0.52428815948E+03  0.10566000000E+00 0. -1.
        994    1    1    2    0    0  0.47387650901E+02 -0.22536263540E+02  0.16845025093E+02  0.17985179316E+03  0.17120000000E+03 0.  0.
        998    1    1    2    0    0  0.38881771177E+02  0.93628363525E+01  0.96618097702E+03  0.96706004736E+03  0.10000000000E+02 0. -1.
</event>
<event>
 5    1  0.1141915E-008  0.3850983E+03  0.7957747E-01  0.3429256E+00
         13   -1    0    0    0    0  0.00000000000E+00  0.00000000000E+00  0.14999999963E+04  0.15000000000E+04  0.10566000000E+00 0. -1.
        994   -1    0    0    0    0 -0.00000000000E+00 -0.00000000000E+00  0.11368683772E-12  0.17120000000E+03  0.17120000000E+03 0.  0.
         13    1    1    2    0    0  0.92774624768E+01 -0.99800132041E+01  0.55907473420E+02  0.57544145851E+02  0.10566000000E+00 0. -1.
        994    1    1    2    0    0 -0.84931979731E+01  0.15923753966E+02  0.26528623874E+01  0.17216903912E+03  0.17120000000E+03 0.  0.
        998    1    1    2    0    0 -0.78426450375E+00 -0.59437407615E+01  0.14414396605E+04  0.14414868150E+04  0.10000000000E+02 0. -1.
</event>
<event>
 5    1  0.1141915E-008  0.3859878E+03  0.7957747E-01  0.3425494E+00
         13   -1    0    0    0    0  0.00000000000E+00  0.00000000000E+00  0.14999999963E+04  0.15000000000E+04  0.10566000000E+00 0. -1.
        994   -1    0    0    0    0 -0.00000000000E+00 -0.00000000000E+00  0.11368683772E-12  0.17120000000E+03  0.17120000000E+03 0.  0.
         13    1    1    2    0    0  0.11311779676E+02  0.83464898335E+00  0.59897694710E+02  0.60962266969E+02  0.10566000000E+00 0. -1.
        994    1    1    2    0    0 -0.41205509533E+00 -0.84666002678E+01  0.13760951808E+01  0.17141524654E+03  0.17120000000E+03 0.  0.
        998    1    1    2    0    0 -0.10899724581E+02  0.76319512844E+01  0.14387262064E+04  0.14388224865E+04  0.10000000000E+02 0. -1.
</event>
<event>
 5    1  0.1141915E-008  0.3821855E+03  0.7957747E-01  0.3441697E+00
         13   -1    0    0    0    0  0.00000000000E+00  0.00000000000E+00  0.14999999963E+04  0.15000000000E+04  0.10566000000E+00 0.  1.
        994   -1    0    0    0    0 -0.00000000000E+00 -0.00000000000E+00  0.11368683772E-12  0.17120000000E+03  0.17120000000E+03 0.  0.
         13    1    1    2    0    0  0.39351959026E+02  0.66618745812E+02  0.45845553275E+03  0.46493883538E+03  0.10566000000E+00 0.  1.
        994    1    1    2    0    0 -0.82731356259E+02 -0.78289030668E+02  0.47359865291E+02  0.21101195813E+03  0.17120000000E+03 0.  0.
        998    1    1    2    0    0  0.43379397232E+02  0.11670284857E+02  0.99418459824E+03  0.99524920649E+03  0.10000000000E+02 0.  1.
</event>
<event>
 5    1  0.1141915E-008  0.3739004E+03  0.7957747E-01  0.3478155E+00
         13   -1    0    0    0    0  0.00000000000E+00  0.00000000000E+00  0.14999999963E+04  0.15000000000E+04  0.10566000000E+00 0.  1.
        994   -1    0    0    0    0 -0.00000000000E+00 -0.00000000000E+00  0.11368683772E-12  0.17120000000E+03  0.17120000000E+03 0.  0.
         13    1    1    2    0    0  0.11326678945E+02 -0.35153092680E+02  0.11488287259E+03  0.12067360589E+03  0.10566000000E+00 0.  1.
        994    1    1    2    0    0  0.37073421228E+02 -0.17164257653E+02  0.12960462351E+02  0.17648360798E+03  0.17120000000E+03 0.  0.
        998    1    1    2    0    0 -0.48400100173E+02  0.52317350333E+02  0.13721566613E+04  0.13740427861E+04  0.10000000000E+02 0.  1.
</event>
<event>
 5    1  0.1141915E-008  0.3745606E+03  0.7957747E-01  0.3475190E+00
         13   -1    0    0    0    0  0.00000000000E+00  0.00000000000E+00  0.14999999963E+04  0.15000000000E+04  0.10566000000E+00 0.  1.
        994   -1    0    0    0    0 -0.00000000000E+00 -0.00000000000E+00  0.11368683772E-12  0.17120000000E+03  0.17120000000E+03 0.  0.
         13    1    1    2    0    0  0.49091241373E+02  0.33888842161E+02  0.15350920158E+03  0.16469210587E+03  0.10566000000E+00 0.  1.
        994    1    1    2    0    0 -0.38748355659E+02  0.64349149308E+02  0.33698539588E+02  0.18996652245E+03  0.17120000000E+03 0.  0.
        998    1    1    2    0    0 -0.10342885714E+02 -0.98237991469E+02  0.13127922551E+04  0.13165413717E+04  0.10000000000E+02 0.  1.
</event>
<event>
 5    1  0.1141915E-008  0.3820100E+03  0.7957747E-01  0.3442453E+00
         13   -1    0    0    0    0  0.00000000000E+00  0.00000000000E+00  0.14999999963E+04  0.15000000000E+04  0.10566000000E+00 0.  1.
        994   -1    0    0    0    0 -0.00000000000E+00 -0.00000000000E+00  0.11368683772E-12  0.17120000000E+03  0.17120000000E+03 0.  0.
         13    1    1    2    0    0 -0.39859071178E+02 -0.12501218541E+01  0.38784909028E+02  0.55629027425E+02  0.10566000000E+00 0.  1.
        994    1    1    2    0    0  0.31009593889E+02 -0.61340161658E+01  0.21091779944E+02  0.17536682767E+03  0.17120000000E+03 0.  0.
        998    1    1    2    0    0  0.88494772894E+01  0.73841380199E+01  0.14401233073E+04  0.14402041449E+04  0.10000000000E+02 0.  1.
</event>
<event>
 5    1  0.1141915E-008  0.3861692E+03  0.7957747E-01  0.3424729E+00
         13   -1    0    0    0    0  0.00000000000E+00  0.00000000000E+00  0.14999999963E+04  0.15000000000E+04  0.10566000000E+00 0. -1.
        994   -1    0    0    0    0 -0.00000000000E+00 -0.00000000000E+00  0.11368683772E-12  0.17120000000E+03  0.17120000000E+03 0.  0.
         13    1    1    2    0    0 -0.81183396021E+01 -0.82240199858E+01  0.63430298833E+02  0.64474459414E+02  0.10566000000E+00 0. -1.
        994    1    1    2    0    0  0.88581521412E+00  0.13115800150E+02  0.16171370276E+01  0.17171157216E+03  0.17120000000E+03 0.  0.
        998    1    1    2    0    0  0.72325243880E+01 -0.48917801645E+01  0.14349525604E+04  0.14350139684E+04  0.10000000000E+02 0. -1.
</event>
<event>
 5    1  0.1944559E-008  0.3845763E+03  0.7957747E-01  0.3431471E+00
         13   -1    0    0    0    0  0.00000000000E+00  0.00000000000E+00  0.14999999963E+04  0.15000000000E+04  0.10566000000E+00 0.  1.
        994   -1    0    0    0    0 -0.00000000000E+00 -0.00000000000E+00  0.11368683772E-12  0.17120000000E+03  0.17120000000E+03 0.  0.
         13    1    1    2    0    0 -0.49238819304E+01 -0.95995270399E+01  0.31326785521E+02  0.33132675530E+02  0.10566000000E+00 0.  1.
        994    1    1    2    0    0  0.29687706067E+01  0.59764303649E+01  0.19872864091E+01  0.17134153211E+03  0.17120000000E+03 0.  0.
        998    1    1    2    0    0  0.19551113237E+01  0.36230966750E+01  0.14666859243E+04  0.14667257924E+04  0.10000000000E+02 0.  1.
</event>
<event>
 5    1  0.1141915E-008  0.3795855E+03  0.7957747E-01  0.3452965E+00
         13   -1    0    0    0    0  0.00000000000E+00  0.00000000000E+00  0.14999999963E+04  0.15000000000E+04  0.10566000000E+00 0. -1.
        994   -1    0    0    0    0 -0.00000000000E+00 -0.00000000000E+00  0.11368683772E-12  0.17120000000E+03  0.17120000000E+03 0.  0.
         13    1    1    2    0    0 -0.13552505777E+02  0.20021317274E+02  0.59081052261E+02  0.63836552683E+02  0.10566000000E+00 0. -1.
        994    1    1    2    0    0  0.22330538762E+02 -0.36095093717E+02  0.10396788917E+02  0.17668911107E+03  0.17120000000E+03 0.  0.
        998    1    1    2    0    0 -0.87780329851E+01  0.16073776443E+02  0.14305221551E+04  0.14306743362E+04  0.10000000000E+02 0. -1.
</event>
<event>
 5    1  0.1141915E-008  0.3804494E+03  0.7957747E-01  0.3449204E+00
         13   -1    0    0    0    0  0.00000000000E+00  0.00000000000E+00  0.14999999963E+04  0.15000000000E+04  0.10566000000E+00 0. -1.
        994   -1    0    0    0    0 -0.00000000000E+00 -0.00000000000E+00  0.11368683772E-12  0.17120000000E+03  0.17120000000E+03 0.  0.
         13    1    1    2    0    0 -0.19692370170E+02 -0.38075940411E+02  0.25625761429E+03  0.25981828790E+03  0.10566000000E+00 0. -1.
        994    1    1    2    0    0  0.97716120422E+01  0.11017769267E+02  0.46307270419E+01  0.17189461677E+03  0.17120000000E+03 0.  0.
        998    1    1    2    0    0  0.99207581280E+01  0.27058171144E+02  0.12391116549E+04  0.12394870953E+04  0.10000000000E+02 0. -1.
</event>
<event>
 5    1  0.1211952E-008  0.3859054E+03  0.7957747E-01  0.3425841E+00
         13   -1    0    0    0    0  0.00000000000E+00  0.00000000000E+00  0.14999999963E+04  0.15000000000E+04  0.10566000000E+00 0.  1.
        994   -1    0    0    0    0 -0.00000000000E+00 -0.00000000000E+00  0.11368683772E-12  0.17120000000E+03  0.17120000000E+03 0.  0.
         13    1    1    2    0    0  0.12021045505E+02 -0.58902611964E+01  0.75972129072E+02  0.77142571073E+02  0.10566000000E+00 0.  1.
        994    1    1    2    0    0 -0.83506548825E+01  0.53948027693E+01  0.15054331847E+01  0.17149502518E+03  0.17120000000E+03 0.  0.
        998    1    1    2    0    0 -0.36703906225E+01  0.49545842711E+00  0.14225224340E+04  0.14225624037E+04  0.10000000000E+02 0.  1.
</event>
<event>
 5    1  0.1141915E-008  0.3849972E+03  0.7957747E-01  0.3429684E+00
         13   -1    0    0    0    0  0.00000000000E+00  0.00000000000E+00  0.14999999963E+04  0.15000000000E+04  0.10566000000E+00 0. -1.
        994   -1    0    0    0    0 -0.00000000000E+00 -0.00000000000E+00  0.11368683772E-12  0.17120000000E+03  0.17120000000E+03 0.  0.
         13    1    1    2    0    0 -0.37434377439E+01 -0.99621828663E+01  0.33551895011E+02  0.35199420968E+02  0.10566000000E+00 0. -1.
        994    1    1    2    0    0  0.22350967628E+01  0.13479878948E+02  0.22457661490E+01  0.17175909367E+03  0.17120000000E+03 0.  0.
        998    1    1    2    0    0  0.15083409811E+01 -0.35176960814E+01  0.14642023351E+04  0.14642414854E+04  0.10000000000E+02 0. -1.
</event>
<event>
 5    1  0.1141915E-008  0.3846376E+03  0.7957747E-01  0.3431211E+00
         13   -1    0    0    0    0  0.00000000000E+00  0.00000000000E+00  0.14999999963E+04  0.15000000000E+04  0.10566000000E+00 0. -1.
        994   -1    0    0    0    0 -0.00000000000E+00 -0.00000000000E+00  0.11368683772E-12  0.17120000000E+03  0.17120000000E+03 0.  0.
         13    1    1    2    0    0 -0.11345778475E+02  0.40486350449E+01  0.43891488387E+02  0.45514745433E+02  0.10566000000E+00 0. -1.
        994    1    1    2    0    0 -0.79433493605E+01  0.10734741754E+02  0.23975448272E+01  0.17173677446E+03  0.17120000000E+03 0.  0.
        998    1    1    2    0    0  0.19289127836E+02 -0.14783376799E+02  0.14537109631E+04  0.14539484801E+04  0.10000000000E+02 0. -1.
</event>
<event>
 5    1  0.1141915E-008  0.3861774E+03  0.7957747E-01  0.3424694E+00
         13   -1    0    0    0    0  0.00000000000E+00  0.00000000000E+00  0.14999999963E+04  0.15000000000E+04  0.10566000000E+00 0.  1.
        994   -1    0    0    0    0 -0.00000000000E+00 -0.00000000000E+00  0.11368683772E-12  0.17120000000E+03  0.17120000000E+03 0.  0.
         13    1    1    2    0    0 -0.86871772891E+01  0.68041103017E+01  0.59841514749E+02  0.60850480834E+02  0.10566000000E+00 0.  1.
        994    1    1    2    0    0 -0.53440704170E+00 -0.99270683155E+01  0.13705326290E+01  0.17149387930E+03  0.17120000000E+03 0.  0.
        998    1    1    2    0    0  0.92215843308E+01  0.31229580138E+01  0.14387879489E+04  0.14388556399E+04  0.10000000000E+02 0.  1.
</event>
<event>
 5    1  0.1141915E-008  0.4086886E+03  0.7957747E-01  0.3335026E+00
         13   -1    0    0    0    0  0.00000000000E+00  0.00000000000E+00  0.14999999963E+04  0.15000000000E+04  0.10566000000E+00 0. -1.
        994   -1    0    0    0    0 -0.00000000000E+00 -0.00000000000E+00  0.11368683772E-12  0.17120000000E+03  0.17120000000E+03 0.  0.
         13    1    1    2    0    0 -0.38426915522E+02  0.45638097788E+02  0.41185411590E+02  0.72496297134E+02  0.10566000000E+00 0. -1.
        994    1    1    2    0    0  0.35118409812E+02 -0.46753158049E+02  0.47089053871E+02  0.18693843770E+03  0.17120000000E+03 0.  0.
        998    1    1    2    0    0  0.33085057101E+01  0.11150602617E+01  0.14117255308E+04  0.14117652652E+04  0.10000000000E+02 0. -1.
</event>
<event>
 5    1  0.1141915E-008  0.3766935E+03  0.7957747E-01  0.3465683E+00
         13   -1    0    0    0    0  0.00000000000E+00  0.00000000000E+00  0.14999999963E+04  0.15000000000E+04  0.10566000000E+00 0. -1.
        994   -1    0    0    0    0 -0.00000000000E+00 -0.00000000000E+00  0.11368683772E-12  0.17120000000E+03  0.17120000000E+03 0.  0.
         13    1    1    2    0    0 -0.52576479994E+02 -0.17242094429E+03  0.92299392245E+03  0.94043131611E+03  0.10566000000E+00 0. -1.
        994    1    1    2    0    0  0.30992267467E+02  0.17889450177E+03  0.12684614758E+03  0.27993418613E+03  0.17120000000E+03 0.  0.
        998    1    1    2    0    0  0.21584212527E+02 -0.64735574783E+01  0.45015992625E+03  0.45083449777E+03  0.10000000000E+02 0. -1.
</event>
<event>
 5    1  0.1141915E-008  0.3851220E+03  0.7957747E-01  0.3429155E+00
         13   -1    0    0    0    0  0.00000000000E+00  0.00000000000E+00  0.14999999963E+04  0.15000000000E+04  0.10566000000E+00 0.  1.
        994   -1    0    0    0    0 -0.00000000000E+00 -0.00000000000E+00  0.11368683772E-12  0.17120000000E+03  0.17120000000E+03 0.  0.
         13    1    1    2    0    0 -0.40100084941E+01  0.15453200574E+02  0.62241420491E+02  0.64256417305E+02  0.10566000000E+00 0.  1.
        994    1    1    2    0    0  0.31567148073E+02 -0.48639373422E+02  0.12701684438E+02  0.18119891355E+03  0.17120000000E+03 0.  0.
        998    1    1    2    0    0 -0.27557139579E+02  0.33186172849E+02  0.14250568913E+04  0.14257446691E+04  0.10000000000E+02 0.  1.
</event>
<event>
 5    1  0.1141915E-008  0.3790368E+03  0.7957747E-01  0.3455363E+00
         13   -1    0    0    0    0  0.00000000000E+00  0.00000000000E+00  0.14999999963E+04  0.15000000000E+04  0.10566000000E+00 0.  1.
        994   -1    0    0    0    0 -0.00000000000E+00 -0.00000000000E+00  0.11368683772E-12  0.17120000000E+03  0.17120000000E+03 0.  0.
         13    1    1    2    0    0 -0.17151141893E+02 -0.57389146679E+02  0.11205855362E+03  0.12706221479E+03  0.10566000000E+00 0.  1.
        994    1    1    2    0    0 -0.47609892544E+02  0.44191124891E+02  0.31197153570E+02  0.18574783923E+03  0.17120000000E+03 0.  0.
        998    1    1    2    0    0  0.64761034438E+02  0.13198021788E+02  0.13567442891E+04  0.13583899460E+04  0.10000000000E+02 0.  1.
</event>
<event>
 5    1  0.1141915E-008  0.3791131E+03  0.7957747E-01  0.3455030E+00
         13   -1    0    0    0    0  0.00000000000E+00  0.00000000000E+00  0.14999999963E+04  0.15000000000E+04  0.10566000000E+00 0.  1.
        994   -1    0    0    0    0 -0.00000000000E+00 -0.00000000000E+00  0.11368683772E-12  0.17120000000E+03  0.17120000000E+03 0.  0.
         13    1    1    2    0    0 -0.32067042316E+02 -0.35108765755E+02  0.28332962762E+03  0.28729185454E+03  0.10566000000E+00 0.  1.
        994    1    1    2    0    0 -0.42042145491E+00  0.15307823587E+02  0.53681679181E+01  0.17196733249E+03  0.17120000000E+03 0.  0.
        998    1    1    2    0    0  0.32487463771E+02  0.19800942168E+02  0.12113022007E+04  0.12119408130E+04  0.10000000000E+02 0.  1.
</event>
<event>
 5    1  0.1141915E-008  0.3722660E+03  0.7957747E-01  0.3485541E+00
         13   -1    0    0    0    0  0.00000000000E+00  0.00000000000E+00  0.14999999963E+04  0.15000000000E+04  0.10566000000E+00 0. -1.
        994   -1    0    0    0    0 -0.00000000000E+00 -0.00000000000E+00  0.11368683772E-12  0.17120000000E+03  0.17120000000E+03 0.  0.
         13    1    1    2    0    0  0.12940516944E+02  0.62587455962E+01  0.90797886678E+01  0.17002429282E+02  0.10566000000E+00 0. -1.
        994    1    1    2    0    0 -0.11112059854E+02 -0.66874056444E+01  0.86666941092E+01  0.17190913546E+03  0.17120000000E+03 0.  0.
        998    1    1    2    0    0 -0.18284570898E+01  0.42866004822E+00  0.14822535135E+04  0.14822884353E+04  0.10000000000E+02 0. -1.
</event>
<event>
 5    1  0.1141915E-008  0.3763012E+03  0.7957747E-01  0.3467423E+00
         13   -1    0    0    0    0  0.00000000000E+00  0.00000000000E+00  0.14999999963E+04  0.15000000000E+04  0.10566000000E+00 0. -1.
        994   -1    0    0    0    0 -0.00000000000E+00 -0.00000000000E+00  0.11368683772E-12  0.17120000000E+03  0.17120000000E+03 0.  0.
         13    1    1    2    0    0  0.26973890881E+02 -0.48866313129E+02  0.93063825503E+02  0.10851909569E+03  0.10566000000E+00 0. -1.
        994    1    1    2    0    0 -0.16739437526E+02  0.71537117931E+02  0.33869390734E+02  0.18935243236E+03  0.17120000000E+03 0.  0.
        998    1    1    2    0    0 -0.10234453354E+02 -0.22670804802E+02  0.13730667800E+04  0.13733284720E+04  0.10000000000E+02 0. -1.
</event>
<event>
 5    1  0.1141915E-008  0.3773698E+03  0.7957747E-01  0.3462692E+00
         13   -1    0    0    0    0  0.00000000000E+00  0.00000000000E+00  0.14999999963E+04  0.15000000000E+04  0.10566000000E+00 0.  1.
        994   -1    0    0    0    0 -0.00000000000E+00 -0.00000000000E+00  0.11368683772E-12  0.17120000000E+03  0.17120000000E+03 0.  0.
         13    1    1    2    0    0 -0.34170422192E+02 -0.60404920299E+02  0.34320995807E+03  0.35015633455E+03  0.10566000000E+00 0.  1.
        994    1    1    2    0    0  0.25702203147E+02  0.63699104844E+02  0.21546668179E+02  0.18571989154E+03  0.17120000000E+03 0.  0.
        998    1    1    2    0    0  0.84682190447E+01 -0.32941845454E+01  0.11352433700E+04  0.11353237739E+04  0.10000000000E+02 0.  1.
</event>
<event>
 5    1  0.1141915E-008  0.3791463E+03  0.7957747E-01  0.3454884E+00
         13   -1    0    0    0    0  0.00000000000E+00  0.00000000000E+00  0.14999999963E+04  0.15000000000E+04  0.10566000000E+00 0.  1.
        994   -1    0    0    0    0 -0.00000000000E+00 -0.00000000000E+00  0.11368683772E-12  0.17120000000E+03  0.17120000000E+03 0.  0.
         13    1    1    2    0    0  0.12300433749E+01  0.12930068153E+02  0.16351207068E+02  0.20882356326E+02  0.10566000000E+00 0.  1.
        994    1    1    2    0    0 -0.22257127469E+01 -0.13187310638E+02  0.51645395584E+01  0.17179921836E+03  0.17120000000E+03 0.  0.
        998    1    1    2    0    0  0.99566937199E+00  0.25724248491E+00  0.14784842497E+04  0.14785184253E+04  0.10000000000E+02 0.  1.
</event>
<event>
 5    1  0.1141915E-008  0.3781682E+03  0.7957747E-01  0.3459173E+00
         13   -1    0    0    0    0  0.00000000000E+00  0.00000000000E+00  0.14999999963E+04  0.15000000000E+04  0.10566000000E+00 0.  1.
        994   -1    0    0    0    0 -0.00000000000E+00 -0.00000000000E+00  0.11368683772E-12  0.17120000000E+03  0.17120000000E+03 0.  0.
         13    1    1    2    0    0  0.15793967744E+03  0.16550487628E+03  0.11008186492E+04  0.11243391460E+04  0.10566000000E+00 0.  1.
        994    1    1    2    0    0 -0.15153862643E+03 -0.15940408559E+03  0.19014597467E+03  0.33739968803E+03  0.17120000000E+03 0.  0.
        998    1    1    2    0    0 -0.64010510124E+01 -0.61007906913E+01  0.20903537246E+03  0.20946116595E+03  0.10000000000E+02 0.  0.
</event>
<event>
 5    1  0.1141915E-008  0.3791991E+03  0.7957747E-01  0.3454653E+00
         13   -1    0    0    0    0  0.00000000000E+00  0.00000000000E+00  0.14999999963E+04  0.15000000000E+04  0.10566000000E+00 0. -1.
        994   -1    0    0    0    0 -0.00000000000E+00 -0.00000000000E+00  0.11368683772E-12  0.17120000000E+03  0.17120000000E+03 0.  0.
         13    1    1    2    0    0  0.96324342356E+01  0.29076468817E+01  0.89786214370E+01  0.13485733448E+02  0.10566000000E+00 0. -1.
        994    1    1    2    0    0 -0.16318815598E+02  0.55618798949E+01  0.55348681922E+01  0.17215490994E+03  0.17120000000E+03 0.  0.
        998    1    1    2    0    0  0.66863813628E+01 -0.84695267766E+01  0.14854865066E+04  0.14855593566E+04  0.10000000000E+02 0. -1.
</event>
<event>
 5    1  0.1141915E-008  0.3847731E+03  0.7957747E-01  0.3430635E+00
         13   -1    0    0    0    0  0.00000000000E+00  0.00000000000E+00  0.14999999963E+04  0.15000000000E+04  0.10566000000E+00 0. -1.
        994   -1    0    0    0    0 -0.00000000000E+00 -0.00000000000E+00  0.11368683772E-12  0.17120000000E+03  0.17120000000E+03 0.  0.
         13    1    1    2    0    0 -0.75364157197E+01 -0.15202509960E+02  0.81201193610E+02  0.82955161857E+02  0.10566000000E+00 0. -1.
        994    1    1    2    0    0  0.36528314753E+01  0.13082533051E+02  0.23502407281E+01  0.17175406685E+03  0.17120000000E+03 0.  0.
        998    1    1    2    0    0  0.38835842445E+01  0.21199769084E+01  0.14164485619E+04  0.14164907713E+04  0.10000000000E+02 0. -1.
</event>
<event>
 5    1  0.1141915E-008  0.3767694E+03  0.7957747E-01  0.3465347E+00
         13   -1    0    0    0    0  0.00000000000E+00  0.00000000000E+00  0.14999999963E+04  0.15000000000E+04  0.10566000000E+00 0.  1.
        994   -1    0    0    0    0 -0.00000000000E+00 -0.00000000000E+00  0.11368683772E-12  0.17120000000E+03  0.17120000000E+03 0.  0.
         13    1    1    2    0    0 -0.65381168043E+01  0.25238572134E+02  0.58868297266E+02  0.64383383584E+02  0.10566000000E+00 0.  1.
        994    1    1    2    0    0  0.57829489039E+01 -0.48268280845E+01  0.59646712642E+01  0.17146940856E+03  0.17120000000E+03 0.  0.
        998    1    1    2    0    0  0.75516790040E+00 -0.20411744049E+02  0.14351670277E+04  0.14353472079E+04  0.10000000000E+02 0.  1.
</event>
<event>
 5    1  0.1141915E-008  0.3835151E+03  0.7957747E-01  0.3435994E+00
         13   -1    0    0    0    0  0.00000000000E+00  0.00000000000E+00  0.14999999963E+04  0.15000000000E+04  0.10566000000E+00 0.  1.
        994   -1    0    0    0    0 -0.00000000000E+00 -0.00000000000E+00  0.11368683772E-12  0.17120000000E+03  0.17120000000E+03 0.  0.
         13    1    1    2    0    0  0.25468088526E+02  0.88345512282E+01  0.16181742617E+03  0.16404744255E+03  0.10566000000E+00 0.  1.
        994    1    1    2    0    0 -0.10128779011E+02  0.41604976720E+00  0.27088371678E+01  0.17152126125E+03  0.17120000000E+03 0.  0.
        998    1    1    2    0    0 -0.15339309516E+02 -0.92506009954E+01  0.13354737329E+04  0.13356312962E+04  0.10000000000E+02 0.  1.
</event>
<event>
 5    1  0.1141915E-008  0.4142528E+03  0.7957747E-01  0.3314354E+00
         13   -1    0    0    0    0  0.00000000000E+00  0.00000000000E+00  0.14999999963E+04  0.15000000000E+04  0.10566000000E+00 0.  1.
        994   -1    0    0    0    0 -0.00000000000E+00 -0.00000000000E+00  0.11368683772E-12  0.17120000000E+03  0.17120000000E+03 0.  0.
         13    1    1    2    0    0  0.77579413615E+02 -0.77331947134E+00  0.65973793591E+02  0.10184162236E+03  0.10566000000E+00 0.  1.
        994    1    1    2    0    0 -0.85623087469E+02  0.40002760945E+01  0.67862643913E+02  0.20313073070E+03  0.17120000000E+03 0.  0.
        998    1    1    2    0    0  0.80436738538E+01 -0.32269566232E+01  0.13661635588E+04  0.13662276469E+04  0.10000000000E+02 0.  1.
</event>
<event>
 5    1  0.1141915E-008  0.3860687E+03  0.7957747E-01  0.3425152E+00
         13   -1    0    0    0    0  0.00000000000E+00  0.00000000000E+00  0.14999999963E+04  0.15000000000E+04  0.10566000000E+00 0. -1.
        994   -1    0    0    0    0 -0.00000000000E+00 -0.00000000000E+00  0.11368683772E-12  0.17120000000E+03  0.17120000000E+03 0.  0.
         13    1    1    2    0    0 -0.85045589084E+01  0.57750821627E+01  0.54453504484E+02  0.55415470862E+02  0.10566000000E+00 0. -1.
        994    1    1    2    0    0 -0.13469315325E+02 -0.44202206139E+01  0.17593568556E+01  0.17179492467E+03  0.17120000000E+03 0.  0.
        998    1    1    2    0    0  0.21973874234E+02 -0.13548615488E+01  0.14437871349E+04  0.14439896045E+04  0.10000000000E+02 0. -1.
</event>
<event>
 5    1  0.1141915E-008  0.3853117E+03  0.7957747E-01  0.3428351E+00
         13   -1    0    0    0    0  0.00000000000E+00  0.00000000000E+00  0.14999999963E+04  0.15000000000E+04  0.10566000000E+00 0.  1.
        994   -1    0    0    0    0 -0.00000000000E+00 -0.00000000000E+00  0.11368683772E-12  0.17120000000E+03  0.17120000000E+03 0.  0.
         13    1    1    2    0    0  0.52137558836E+01 -0.10075075679E+02  0.42087650994E+02  0.43589814527E+02  0.10566000000E+00 0.  1.
        994    1    1    2    0    0 -0.17449664029E+02  0.74460019148E+01  0.26588512601E+01  0.17226852066E+03  0.17120000000E+03 0.  0.
        998    1    1    2    0    0  0.12235908145E+02  0.26290737638E+01  0.14552534940E+04  0.14553416648E+04  0.10000000000E+02 0.  1.
</event>
<event>
 5    1  0.1141915E-008  0.3715762E+03  0.7957747E-01  0.3488678E+00
         13   -1    0    0    0    0  0.00000000000E+00  0.00000000000E+00  0.14999999963E+04  0.15000000000E+04  0.10566000000E+00 0. -1.
        994   -1    0    0    0    0 -0.00000000000E+00 -0.00000000000E+00  0.11368683772E-12  0.17120000000E+03  0.17120000000E+03 0.  0.
         13    1    1    2    0    0 -0.99415148475E+01 -0.29764967131E+01  0.25053432263E+01  0.10676195899E+02  0.10566000000E+00 0. -1.
        994    1    1    2    0    0  0.32731100586E+01 -0.11417328250E+02  0.89327961394E+01  0.17184383457E+03  0.17120000000E+03 0.  0.
        998    1    1    2    0    0  0.66684047889E+01  0.14393824964E+02  0.14885618569E+04  0.14886799695E+04  0.10000000000E+02 0. -1.
</event>
<event>
 5    1  0.1141915E-008  0.3854053E+03  0.7957747E-01  0.3427955E+00
         13   -1    0    0    0    0  0.00000000000E+00  0.00000000000E+00  0.14999999963E+04  0.15000000000E+04  0.10566000000E+00 0.  1.
        994   -1    0    0    0    0 -0.00000000000E+00 -0.00000000000E+00  0.11368683772E-12  0.17120000000E+03  0.17120000000E+03 0.  0.
         13    1    1    2    0    0  0.90089896486E+01  0.55482299987E+01  0.37945928346E+02  0.39393519679E+02  0.10566000000E+00 0.  1.
        994    1    1    2    0    0 -0.99610649272E+01 -0.96747554228E+01  0.20625897795E+01  0.17177461391E+03  0.17120000000E+03 0.  0.
        998    1    1    2    0    0  0.95207527864E+00  0.41265254241E+01  0.14599914782E+04  0.14600318664E+04  0.10000000000E+02 0.  1.
</event>
<event>
 5    1  0.1141915E-008  0.3857321E+03  0.7957747E-01  0.3426573E+00
         13   -1    0    0    0    0  0.00000000000E+00  0.00000000000E+00  0.14999999963E+04  0.15000000000E+04  0.10566000000E+00 0.  1.
        994   -1    0    0    0    0 -0.00000000000E+00 -0.00000000000E+00  0.11368683772E-12  0.17120000000E+03  0.17120000000E+03 0.  0.
         13    1    1    2    0    0 -0.10359002784E+02 -0.20411010366E+01  0.43447608238E+02  0.44712200323E+02  0.10566000000E+00 0.  1.
        994    1    1    2    0    0  0.11855418926E+02 -0.58645957892E+01  0.18412573224E+01  0.17172004737E+03  0.17120000000E+03 0.  0.
        998    1    1    2    0    0 -0.14964161421E+01  0.79056968258E+01  0.14547111307E+04  0.14547677523E+04  0.10000000000E+02 0.  1.
</event>
<event>
 5    1  0.1141915E-008  0.3854497E+03  0.7957747E-01  0.3427767E+00
         13   -1    0    0    0    0  0.00000000000E+00  0.00000000000E+00  0.14999999963E+04  0.15000000000E+04  0.10566000000E+00 0.  1.
        994   -1    0    0    0    0 -0.00000000000E+00 -0.00000000000E+00  0.11368683772E-12  0.17120000000E+03  0.17120000000E+03 0.  0.
         13    1    1    2    0    0  0.11127391245E+02 -0.43986413769E+00  0.43853175844E+02  0.45245160095E+02  0.10566000000E+00 0.  1.
        994    1    1    2    0    0 -0.88272335183E+01  0.27665129287E+01  0.16880879052E+01  0.17145805110E+03  0.17120000000E+03 0.  0.
        998    1    1    2    0    0 -0.23001577267E+01 -0.23266487910E+01  0.14544587325E+04  0.14544967888E+04  0.10000000000E+02 0.  1.
</event>
<event>
 5    1  0.1141915E-008  0.3797061E+03  0.7957747E-01  0.3452439E+00
         13   -1    0    0    0    0  0.00000000000E+00  0.00000000000E+00  0.14999999963E+04  0.15000000000E+04  0.10566000000E+00 0. -1.
        994   -1    0    0    0    0 -0.00000000000E+00 -0.00000000000E+00  0.11368683772E-12  0.17120000000E+03  0.17120000000E+03 0.  0.
         13    1    1    2    0    0 -0.83343955304E+01  0.16471236294E+02  0.34525989866E+01  0.18780185774E+02  0.10566000000E+00 0. -1.
        994    1    1    2    0    0  0.12794110845E+02  0.49754061524E+00  0.16759612195E+02  0.17249423590E+03  0.17120000000E+03 0.  0.
        998    1    1    2    0    0 -0.44597153149E+01 -0.16968776910E+02  0.14797877851E+04  0.14799255783E+04  0.10000000000E+02 0. -1.
</event>
<event>
 5    1  0.1141915E-008  0.3920687E+03  0.7957747E-01  0.3400235E+00
         13   -1    0    0    0    0  0.00000000000E+00  0.00000000000E+00  0.14999999963E+04  0.15000000000E+04  0.10566000000E+00 0. -1.
        994   -1    0    0    0    0 -0.00000000000E+00 -0.00000000000E+00  0.11368683772E-12  0.17120000000E+03  0.17120000000E+03 0.  0.
         13    1    1    2    0    0 -0.24608356018E+02  0.87891942992E+01  0.47295730631E+01  0.26555623656E+02  0.10566000000E+00 0. -1.
        994    1    1    2    0    0  0.26013951828E+02 -0.87373152885E+01  0.25982100165E+02  0.17532135037E+03  0.17120000000E+03 0.  0.
        998    1    1    2    0    0 -0.14055958091E+01 -0.51879010723E-01  0.14692883231E+04  0.14693230260E+04  0.10000000000E+02 0. -1.
</event>
<event>
 5    1  0.1141915E-008  0.3693927E+03  0.7957747E-01  0.3498686E+00
         13   -1    0    0    0    0  0.00000000000E+00  0.00000000000E+00  0.14999999963E+04  0.15000000000E+04  0.10566000000E+00 0.  1.
        994   -1    0    0    0    0 -0.00000000000E+00 -0.00000000000E+00  0.11368683772E-12  0.17120000000E+03  0.17120000000E+03 0.  0.
         13    1    1    2    0    0 -0.25032994528E+02  0.12561206501E+02  0.36027368483E+02  0.45633509263E+02  0.10566000000E+00 0.  1.
        994    1    1    2    0    0  0.24674455012E+02 -0.18041947600E+02  0.12831080379E+02  0.17438009412E+03  0.17120000000E+03 0.  0.
        998    1    1    2    0    0  0.35853951568E+00  0.54807410985E+01  0.14511415474E+04  0.14511863966E+04  0.10000000000E+02 0.  1.
</event>
<event>
 5    1  0.1141915E-008  0.3813971E+03  0.7957747E-01  0.3445098E+00
         13   -1    0    0    0    0  0.00000000000E+00  0.00000000000E+00  0.14999999963E+04  0.15000000000E+04  0.10566000000E+00 0. -1.
        994   -1    0    0    0    0 -0.00000000000E+00 -0.00000000000E+00  0.11368683772E-12  0.17120000000E+03  0.17120000000E+03 0.  0.
         13    1    1    2    0    0 -0.26744106622E+02  0.10170357239E+02  0.11003714296E+03  0.11369638253E+03  0.10566000000E+00 0. -1.
        994    1    1    2    0    0  0.27379241091E+02 -0.11463985596E+02  0.63668293748E+01  0.17387070577E+03  0.17120000000E+03 0.  0.
        998    1    1    2    0    0 -0.63513446864E+00  0.12936283561E+01  0.13835960239E+04  0.13836329117E+04  0.10000000000E+02 0. -1.
</event>
<event>
 5    1  0.1141915E-008  0.3833257E+03  0.7957747E-01  0.3436804E+00
         13   -1    0    0    0    0  0.00000000000E+00  0.00000000000E+00  0.14999999963E+04  0.15000000000E+04  0.10566000000E+00 0. -1.
        994   -1    0    0    0    0 -0.00000000000E+00 -0.00000000000E+00  0.11368683772E-12  0.17120000000E+03  0.17120000000E+03 0.  0.
         13    1    1    2    0    0  0.21964433199E+02 -0.21808434015E+02  0.14114685149E+03  0.14450082688E+03  0.10566000000E+00 0. -1.
        994    1    1    2    0    0 -0.56198378998E+02  0.31366637938E+02  0.16282649902E+02  0.18362104581E+03  0.17120000000E+03 0.  0.
        998    1    1    2    0    0  0.34233945798E+02 -0.95582039231E+01  0.13425704949E+04  0.13430781273E+04  0.10000000000E+02 0. -1.
</event>
<event>
 5    1  0.1141915E-008  0.3741003E+03  0.7957747E-01  0.3477256E+00
         13   -1    0    0    0    0  0.00000000000E+00  0.00000000000E+00  0.14999999963E+04  0.15000000000E+04  0.10566000000E+00 0. -1.
        994   -1    0    0    0    0 -0.00000000000E+00 -0.00000000000E+00  0.11368683772E-12  0.17120000000E+03  0.17120000000E+03 0.  0.
         13    1    1    2    0    0 -0.33254840541E+02  0.43894986971E+02  0.18235294675E+03  0.19048690940E+03  0.10566000000E+00 0. -1.
        994    1    1    2    0    0  0.39248812166E+02 -0.43031704253E+02  0.18796791160E+02  0.18181022024E+03  0.17120000000E+03 0.  0.
        998    1    1    2    0    0 -0.59939716256E+01 -0.86328271737E+00  0.12988502584E+04  0.12989028704E+04  0.10000000000E+02 0. -1.
</event>
<event>
 5    1  0.1141915E-008  0.3806753E+03  0.7957747E-01  0.3448223E+00
         13   -1    0    0    0    0  0.00000000000E+00  0.00000000000E+00  0.14999999963E+04  0.15000000000E+04  0.10566000000E+00 0.  1.
        994   -1    0    0    0    0 -0.00000000000E+00 -0.00000000000E+00  0.11368683772E-12  0.17120000000E+03  0.17120000000E+03 0.  0.
         13    1    1    2    0    0 -0.42714448526E+02  0.80306349309E+02  0.37570579885E+03  0.38655981724E+03  0.10566000000E+00 0.  1.
        994    1    1    2    0    0  0.12961316810E+02  0.23393404043E+02  0.19301032071E+02  0.17434797654E+03  0.17120000000E+03 0.  0.
        998    1    1    2    0    0  0.29753131717E+02 -0.10369975335E+03  0.11049931654E+04  0.11102922062E+04  0.10000000000E+02 0.  1.
</event>
<event>
 5    1  0.1141915E-008  0.3967893E+03  0.7957747E-01  0.3381161E+00
         13   -1    0    0    0    0  0.00000000000E+00  0.00000000000E+00  0.14999999963E+04  0.15000000000E+04  0.10566000000E+00 0. -1.
        994   -1    0    0    0    0 -0.00000000000E+00 -0.00000000000E+00  0.11368683772E-12  0.17120000000E+03  0.17120000000E+03 0.  0.
         13    1    1    2    0    0  0.73648705669E+02  0.79282227725E+02  0.27033976909E+03  0.29119307237E+03  0.10566000000E+00 0. -1.
        994    1    1    2    0    0 -0.87308372070E+02  0.48905200117E+02  0.65723411443E+02  0.20891021335E+03  0.17120000000E+03 0.  0.
        998    1    1    2    0    0  0.13659666402E+02 -0.12818742784E+03  0.11639368157E+04  0.11710967143E+04  0.10000000000E+02 0. -1.
</event>
<event>
 5    1  0.1141915E-008  0.3800583E+03  0.7957747E-01  0.3450905E+00
         13   -1    0    0    0    0  0.00000000000E+00  0.00000000000E+00  0.14999999963E+04  0.15000000000E+04  0.10566000000E+00 0.  1.
        994   -1    0    0    0    0 -0.00000000000E+00 -0.00000000000E+00  0.11368683772E-12  0.17120000000E+03  0.17120000000E+03 0.  0.
         13    1    1    2    0    0  0.80404196705E+01  0.15170500228E+02  0.11466822089E+01  0.17208093148E+02  0.10566000000E+00 0.  1.
        994    1    1    2    0    0 -0.22605154259E+02 -0.40664974017E+02  0.24246092654E+02  0.17905849916E+03  0.17120000000E+03 0.  0.
        998    1    1    2    0    0  0.14564734589E+02  0.25494473789E+02  0.14746072214E+04  0.14749334077E+04  0.10000000000E+02 0.  1.
</event>
<event>
 5    1  0.1141915E-008  0.3823940E+03  0.7957747E-01  0.3440800E+00
         13   -1    0    0    0    0  0.00000000000E+00  0.00000000000E+00  0.14999999963E+04  0.15000000000E+04  0.10566000000E+00 0. -1.
        994   -1    0    0    0    0 -0.00000000000E+00 -0.00000000000E+00  0.11368683772E-12  0.17120000000E+03  0.17120000000E+03 0.  0.
         13    1    1    2    0    0  0.16719752892E+02 -0.74826192279E+01  0.59422401988E+02  0.62181771842E+02  0.10566000000E+00 0. -1.
        994    1    1    2    0    0 -0.51766655695E+01 -0.10133677344E+02  0.33591041179E+01  0.17161064321E+03  0.17120000000E+03 0.  0.
        998    1    1    2    0    0 -0.11543087322E+02  0.17616296572E+02  0.14372184902E+04  0.14374075849E+04  0.10000000000E+02 0. -1.
</event>
<event>
 5    1  0.1141915E-008  0.3832355E+03  0.7957747E-01  0.3437190E+00
         13   -1    0    0    0    0  0.00000000000E+00  0.00000000000E+00  0.14999999963E+04  0.15000000000E+04  0.10566000000E+00 0. -1.
        994   -1    0    0    0    0 -0.00000000000E+00 -0.00000000000E+00  0.11368683772E-12  0.17120000000E+03  0.17120000000E+03 0.  0.
         13    1    1    2    0    0 -0.17109186556E+02 -0.15233709862E+02  0.95961392296E+02  0.98657945226E+02  0.10566000000E+00 0. -1.
        994    1    1    2    0    0  0.15667977129E+02  0.23139333776E+02  0.50959200529E+01  0.17354055052E+03  0.17120000000E+03 0.  0.
        998    1    1    2    0    0  0.14412094269E+01 -0.79056239142E+01  0.13989426839E+04  0.13990015043E+04  0.10000000000E+02 0. -1.
</event>
<event>
 5    1  0.1141915E-008  0.3845280E+03  0.7957747E-01  0.3431676E+00
         13   -1    0    0    0    0  0.00000000000E+00  0.00000000000E+00  0.14999999963E+04  0.15000000000E+04  0.10566000000E+00 0. -1.
        994   -1    0    0    0    0 -0.00000000000E+00 -0.00000000000E+00  0.11368683772E-12  0.17120000000E+03  0.17120000000E+03 0.  0.
         13    1    1    2    0    0 -0.10250280938E+02 -0.56818419564E+01  0.35471996312E+02  0.37358068389E+02  0.10566000000E+00 0. -1.
        994    1    1    2    0    0  0.16095027763E+02  0.27277334756E+00  0.27185751629E+01  0.17197661171E+03  0.17120000000E+03 0.  0.
        998    1    1    2    0    0 -0.58447468247E+01  0.54090686088E+01  0.14618094248E+04  0.14618653199E+04  0.10000000000E+02 0. -1.
</event>
<event>
 5    1  0.1141915E-008  0.3838451E+03  0.7957747E-01  0.3434585E+00
         13   -1    0    0    0    0  0.00000000000E+00  0.00000000000E+00  0.14999999963E+04  0.15000000000E+04  0.10566000000E+00 0. -1.
        994   -1    0    0    0    0 -0.00000000000E+00 -0.00000000000E+00  0.11368683772E-12  0.17120000000E+03  0.17120000000E+03 0.  0.
         13    1    1    2    0    0  0.86515559824E+01 -0.84336712529E+01  0.31818469094E+02  0.34035310653E+02  0.10566000000E+00 0. -1.
        994    1    1    2    0    0 -0.62041313951E+01  0.12909876690E+02  0.28821411660E+01  0.17182230036E+03  0.17120000000E+03 0.  0.
        998    1    1    2    0    0 -0.24474245873E+01 -0.44762054373E+01  0.14652993860E+04  0.14653423890E+04  0.10000000000E+02 0. -1.
</event>
<event>
 5    1  0.1141915E-008  0.3780831E+03  0.7957747E-01  0.3459548E+00
         13   -1    0    0    0    0  0.00000000000E+00  0.00000000000E+00  0.14999999963E+04  0.15000000000E+04  0.10566000000E+00 0.  1.
        994   -1    0    0    0    0 -0.00000000000E+00 -0.00000000000E+00  0.11368683772E-12  0.17120000000E+03  0.17120000000E+03 0.  0.
         13    1    1    2    0    0  0.88317957854E+02  0.35295125542E+02  0.27853084271E+03  0.29432167618E+03  0.10566000000E+00 0.  1.
        994    1    1    2    0    0 -0.58094593775E+02 -0.31388009696E+02  0.31139164037E+02  0.18611629836E+03  0.17120000000E+03 0.  0.
        998    1    1    2    0    0 -0.30223364079E+02 -0.39071158465E+01  0.11903299895E+04  0.11907620255E+04  0.10000000000E+02 0.  1.
</event>
<event>
 5    1  0.1141915E-008  0.3808198E+03  0.7957747E-01  0.3447596E+00
         13   -1    0    0    0    0  0.00000000000E+00  0.00000000000E+00  0.14999999963E+04  0.15000000000E+04  0.10566000000E+00 0.  1.
        994   -1    0    0    0    0 -0.00000000000E+00 -0.00000000000E+00  0.11368683772E-12  0.17120000000E+03  0.17120000000E+03 0.  0.
         13    1    1    2    0    0  0.99948668907E+01  0.20236081406E+02  0.64351084128E+02  0.68194351286E+02  0.10566000000E+00 0.  1.
        994    1    1    2    0    0  0.12346113864E+02 -0.33403386007E+02  0.79595056644E+01  0.17504572675E+03  0.17120000000E+03 0.  0.
        998    1    1    2    0    0 -0.22340980755E+02  0.13167304601E+02  0.14276894065E+04  0.14279599220E+04  0.10000000000E+02 0.  1.
</event>
<event>
 5    1  0.1141915E-008  0.3792453E+03  0.7957747E-01  0.3454451E+00
         13   -1    0    0    0    0  0.00000000000E+00  0.00000000000E+00  0.14999999963E+04  0.15000000000E+04  0.10566000000E+00 0.  1.
        994   -1    0    0    0    0 -0.00000000000E+00 -0.00000000000E+00  0.11368683772E-12  0.17120000000E+03  0.17120000000E+03 0.  0.
         13    1    1    2    0    0  0.24589678711E+02 -0.99175649313E+01  0.74250252683E+02  0.78842384419E+02  0.10566000000E+00 0.  1.
        994    1    1    2    0    0 -0.32529452542E+02 -0.18861306507E+02  0.92676064155E+01  0.17552561834E+03  0.17120000000E+03 0.  0.
        998    1    1    2    0    0  0.79397738314E+01  0.28778871438E+02  0.14164821372E+04  0.14168319972E+04  0.10000000000E+02 0.  1.
</event>
<event>
 5    1  0.1141915E-008  0.3755344E+03  0.7957747E-01  0.3470836E+00
         13   -1    0    0    0    0  0.00000000000E+00  0.00000000000E+00  0.14999999963E+04  0.15000000000E+04  0.10566000000E+00 0.  1.
        994   -1    0    0    0    0 -0.00000000000E+00 -0.00000000000E+00  0.11368683772E-12  0.17120000000E+03  0.17120000000E+03 0.  0.
         13    1    1    2    0    0 -0.49813905320E+02 -0.50621870941E+02  0.35260809865E+03  0.35968942351E+03  0.10566000000E+00 0.  1.
        994    1    1    2    0    0  0.37415938146E+02  0.37582714663E+02  0.16007723664E+02  0.17993915662E+03  0.17120000000E+03 0.  0.
        998    1    1    2    0    0  0.12397967174E+02  0.13039156278E+02  0.11313841740E+04  0.11315714199E+04  0.10000000000E+02 0.  1.
</event>
<event>
 5    1  0.2529185E-008  0.3862590E+03  0.7957747E-01  0.3424350E+00
         13   -1    0    0    0    0  0.00000000000E+00  0.00000000000E+00  0.14999999963E+04  0.15000000000E+04  0.10566000000E+00 0. -1.
        994   -1    0    0    0    0 -0.00000000000E+00 -0.00000000000E+00  0.11368683772E-12  0.17120000000E+03  0.17120000000E+03 0.  0.
         13    1    1    2    0    0 -0.88989858758E+01 -0.77018531393E+01  0.67502553776E+02  0.68520919592E+02  0.10566000000E+00 0. -1.
        994    1    1    2    0    0  0.10280838162E+02  0.67771431060E+01  0.15031094244E+01  0.17164884107E+03  0.17120000000E+03 0.  0.
        998    1    1    2    0    0 -0.13818522858E+01  0.92471003330E+00  0.14309943331E+04  0.14310302393E+04  0.10000000000E+02 0. -1.
</event>
<event>
 5    1  0.1141915E-008  0.3812741E+03  0.7957747E-01  0.3445629E+00
         13   -1    0    0    0    0  0.00000000000E+00  0.00000000000E+00  0.14999999963E+04  0.15000000000E+04  0.10566000000E+00 0. -1.
        994   -1    0    0    0    0 -0.00000000000E+00 -0.00000000000E+00  0.11368683772E-12  0.17120000000E+03  0.17120000000E+03 0.  0.
         13    1    1    2    0    0 -0.42706561063E+01  0.23518393256E+02  0.73591387083E+02  0.77376073445E+02  0.10566000000E+00 0. -1.
        994    1    1    2    0    0  0.34962743579E+01 -0.34231257912E+02  0.74428293959E+01  0.17478226072E+03  0.17120000000E+03 0.  0.
        998    1    1    2    0    0  0.77438174845E+00  0.10712864657E+02  0.14189657798E+04  0.14190416658E+04  0.10000000000E+02 0. -1.
</event>
<event>
 5    1  0.1141915E-008  0.3742463E+03  0.7957747E-01  0.3476600E+00
         13   -1    0    0    0    0  0.00000000000E+00  0.00000000000E+00  0.14999999963E+04  0.15000000000E+04  0.10566000000E+00 0. -1.
        994   -1    0    0    0    0 -0.00000000000E+00 -0.00000000000E+00  0.11368683772E-12  0.17120000000E+03  0.17120000000E+03 0.  0.
         13    1    1    2    0    0 -0.14363709757E+02  0.24715179638E+02  0.60638664291E+02  0.67038906864E+02  0.10566000000E+00 0. -1.
        994    1    1    2    0    0 -0.46710439520E+01  0.88807785973E+01  0.74094703713E+01  0.17165380022E+03  0.17120000000E+03 0.  0.
        998    1    1    2    0    0  0.19034753709E+02 -0.33595958236E+02  0.14319518616E+04  0.14325072929E+04  0.10000000000E+02 0. -1.
</event>
<event>
 5    1  0.1141915E-008  0.3705003E+03  0.7957747E-01  0.3493595E+00
         13   -1    0    0    0    0  0.00000000000E+00  0.00000000000E+00  0.14999999963E+04  0.15000000000E+04  0.10566000000E+00 0.  1.
        994   -1    0    0    0    0 -0.00000000000E+00 -0.00000000000E+00  0.11368683772E-12  0.17120000000E+03  0.17120000000E+03 0.  0.
         13    1    1    2    0    0 -0.67627451499E+02  0.22034321872E+02  0.23422435736E+03  0.24478571094E+03  0.10566000000E+00 0.  1.
        994    1    1    2    0    0  0.69674308415E+02 -0.17112893472E+02  0.26990611059E+02  0.18757743324E+03  0.17120000000E+03 0.  0.
        998    1    1    2    0    0 -0.20468569156E+01 -0.49214284003E+01  0.12387850279E+04  0.12388368558E+04  0.10000000000E+02 0.  1.
</event>
<event>
 5    1  0.1141915E-008  0.3781490E+03  0.7957747E-01  0.3459258E+00
         13   -1    0    0    0    0  0.00000000000E+00  0.00000000000E+00  0.14999999963E+04  0.15000000000E+04  0.10566000000E+00 0.  1.
        994   -1    0    0    0    0 -0.00000000000E+00 -0.00000000000E+00  0.11368683772E-12  0.17120000000E+03  0.17120000000E+03 0.  0.
         13    1    1    2    0    0  0.42774877674E+01  0.18386855080E+02  0.36670185903E+02  0.41244236440E+02  0.10566000000E+00 0.  1.
        994    1    1    2    0    0 -0.59393189322E+01  0.22424922735E+02  0.68826001166E+01  0.17290159876E+03  0.17120000000E+03 0.  0.
        998    1    1    2    0    0  0.16618311648E+01 -0.40811777816E+02  0.14564472103E+04  0.14570541648E+04  0.10000000000E+02 0.  1.
</event>
<event>
 5    1  0.1141915E-008  0.3753868E+03  0.7957747E-01  0.3471495E+00
         13   -1    0    0    0    0  0.00000000000E+00  0.00000000000E+00  0.14999999963E+04  0.15000000000E+04  0.10566000000E+00 0.  1.
        994   -1    0    0    0    0 -0.00000000000E+00 -0.00000000000E+00  0.11368683772E-12  0.17120000000E+03  0.17120000000E+03 0.  0.
         13    1    1    2    0    0 -0.73821603850E+01 -0.85632042038E+01  0.68457129111E+01  0.13217401692E+02  0.10566000000E+00 0.  1.
        994    1    1    2    0    0  0.75400491492E+01  0.89641759392E+01  0.69461775597E+01  0.17174078774E+03  0.17120000000E+03 0.  0.
        998    1    1    2    0    0 -0.15788876420E+00 -0.40097173541E+00  0.14862081058E+04  0.14862418106E+04  0.10000000000E+02 0.  1.
</event>
<event>
 5    1  0.1141915E-008  0.3856461E+03  0.7957747E-01  0.3426937E+00
         13   -1    0    0    0    0  0.00000000000E+00  0.00000000000E+00  0.14999999963E+04  0.15000000000E+04  0.10566000000E+00 0. -1.
        994   -1    0    0    0    0 -0.00000000000E+00 -0.00000000000E+00  0.11368683772E-12  0.17120000000E+03  0.17120000000E+03 0.  0.
         13    1    1    2    0    0  0.14355460434E+02  0.16346275215E+01  0.80109296891E+02  0.81401854179E+02  0.10566000000E+00 0. -1.
        994    1    1    2    0    0 -0.10189926140E+02  0.38917650075E+01  0.17002572601E+01  0.17155556332E+03  0.17120000000E+03 0.  0.
        998    1    1    2    0    0 -0.41655342946E+01 -0.55263925290E+01  0.14181904421E+04  0.14182425825E+04  0.10000000000E+02 0. -1.
</event>
<event>
 5    1  0.1141915E-008  0.3769757E+03  0.7957747E-01  0.3464434E+00
         13   -1    0    0    0    0  0.00000000000E+00  0.00000000000E+00  0.14999999963E+04  0.15000000000E+04  0.10566000000E+00 0. -1.
        994   -1    0    0    0    0 -0.00000000000E+00 -0.00000000000E+00  0.11368683772E-12  0.17120000000E+03  0.17120000000E+03 0.  0.
         13    1    1    2    0    0  0.64921097161E+01  0.26204961677E+02  0.57270135881E+02  0.63314509655E+02  0.10566000000E+00 0. -1.
        994    1    1    2    0    0 -0.18202732664E+02 -0.37201493728E+02  0.11481658704E+02  0.17651220666E+03  0.17120000000E+03 0.  0.
        998    1    1    2    0    0  0.11710622948E+02  0.10996532051E+02  0.14312482017E+04  0.14313732837E+04  0.10000000000E+02 0. -1.
</event>
<event>
 5    1  0.1141915E-008  0.3730679E+03  0.7957747E-01  0.3481909E+00
         13   -1    0    0    0    0  0.00000000000E+00  0.00000000000E+00  0.14999999963E+04  0.15000000000E+04  0.10566000000E+00 0. -1.
        994   -1    0    0    0    0 -0.00000000000E+00 -0.00000000000E+00  0.11368683772E-12  0.17120000000E+03  0.17120000000E+03 0.  0.
         13    1    1    2    0    0  0.34479067964E+01 -0.25929723459E+02  0.42048593306E+02  0.49521045859E+02  0.10566000000E+00 0. -1.
        994    1    1    2    0    0 -0.24205970681E+02  0.10012534899E+02  0.10025613654E+02  0.17348237029E+03  0.17120000000E+03 0.  0.
        998    1    1    2    0    0  0.20758063885E+02  0.15917188560E+02  0.14479257893E+04  0.14481965839E+04  0.10000000000E+02 0. -1.
</event>
<event>
 5    1  0.1141915E-008  0.3835307E+03  0.7957747E-01  0.3435928E+00
         13   -1    0    0    0    0  0.00000000000E+00  0.00000000000E+00  0.14999999963E+04  0.15000000000E+04  0.10566000000E+00 0. -1.
        994   -1    0    0    0    0 -0.00000000000E+00 -0.00000000000E+00  0.11368683772E-12  0.17120000000E+03  0.17120000000E+03 0.  0.
         13    1    1    2    0    0  0.23420435287E+01 -0.28057636910E+02  0.15718324365E+03  0.15968500056E+03  0.10566000000E+00 0. -1.
        994    1    1    2    0    0 -0.12501657216E+02  0.23506460080E+02  0.47072151974E+01  0.17332179024E+03  0.17120000000E+03 0.  0.
        998    1    1    2    0    0  0.10159613687E+02  0.45511768303E+01  0.13381095374E+04  0.13381932092E+04  0.10000000000E+02 0. -1.
</event>
<event>
 5    1  0.1141915E-008  0.3836689E+03  0.7957747E-01  0.3435337E+00
         13   -1    0    0    0    0  0.00000000000E+00  0.00000000000E+00  0.14999999963E+04  0.15000000000E+04  0.10566000000E+00 0.  1.
        994   -1    0    0    0    0 -0.00000000000E+00 -0.00000000000E+00  0.11368683772E-12  0.17120000000E+03  0.17120000000E+03 0.  0.
         13    1    1    2    0    0 -0.23689846270E+02 -0.30244470822E+01  0.12474773502E+03  0.12701324598E+03  0.10566000000E+00 0.  1.
        994    1    1    2    0    0  0.11514264555E+02  0.23327118278E+02  0.45308208943E+01  0.17322442401E+03  0.17120000000E+03 0.  0.
        998    1    1    2    0    0  0.12175581715E+02 -0.20302671195E+02  0.13707214404E+04  0.13709623300E+04  0.10000000000E+02 0.  1.
</event>
<event>
 5    1  0.1141915E-008  0.3796492E+03  0.7957747E-01  0.3452687E+00
         13   -1    0    0    0    0  0.00000000000E+00  0.00000000000E+00  0.14999999963E+04  0.15000000000E+04  0.10566000000E+00 0. -1.
        994   -1    0    0    0    0 -0.00000000000E+00 -0.00000000000E+00  0.11368683772E-12  0.17120000000E+03  0.17120000000E+03 0.  0.
         13    1    1    2    0    0  0.81174155834E+01  0.23407544168E+02  0.75756811115E+02  0.79705151365E+02  0.10566000000E+00 0. -1.
        994    1    1    2    0    0 -0.65480648293E+01  0.56490169298E+01  0.45606776782E+01  0.17147894426E+03  0.17120000000E+03 0.  0.
        998    1    1    2    0    0 -0.15693507541E+01 -0.29056561098E+02  0.14196825075E+04  0.14200159044E+04  0.10000000000E+02 0. -1.
</event>
<event>
 5    1  0.1141915E-008  0.3819204E+03  0.7957747E-01  0.3442839E+00
         13   -1    0    0    0    0  0.00000000000E+00  0.00000000000E+00  0.14999999963E+04  0.15000000000E+04  0.10566000000E+00 0.  1.
        994   -1    0    0    0    0 -0.00000000000E+00 -0.00000000000E+00  0.11368683772E-12  0.17120000000E+03  0.17120000000E+03 0.  0.
         13    1    1    2    0    0  0.30126090535E+02 -0.22099289307E+00  0.17631118493E+03  0.17886664100E+03  0.10566000000E+00 0.  1.
        994    1    1    2    0    0  0.85862784133E+01 -0.52035673992E+01  0.35018078146E+01  0.17152989229E+03  0.17120000000E+03 0.  0.
        998    1    1    2    0    0 -0.38712368948E+02  0.54245602922E+01  0.13201870035E+04  0.13208034667E+04  0.10000000000E+02 0.  1.
</event>
<event>
 5    1  0.1141915E-008  0.3711066E+03  0.7957747E-01  0.3490821E+00
         13   -1    0    0    0    0  0.00000000000E+00  0.00000000000E+00  0.14999999963E+04  0.15000000000E+04  0.10566000000E+00 0.  1.
        994   -1    0    0    0    0 -0.00000000000E+00 -0.00000000000E+00  0.11368683772E-12  0.17120000000E+03  0.17120000000E+03 0.  0.
         13    1    1    2    0    0  0.37553669672E+01 -0.43264615787E+02  0.76827686454E+02  0.88252106662E+02  0.10566000000E+00 0.  1.
        994    1    1    2    0    0 -0.25436047856E+01  0.31886046958E+02  0.15124561951E+02  0.17481814062E+03  0.17120000000E+03 0.  0.
        998    1    1    2    0    0 -0.12117621816E+01  0.11378568830E+02  0.14080477479E+04  0.14081297527E+04  0.10000000000E+02 0.  1.
</event>
<event>
 5    1  0.1141915E-008  0.3839777E+03  0.7957747E-01  0.3434019E+00
         13   -1    0    0    0    0  0.00000000000E+00  0.00000000000E+00  0.14999999963E+04  0.15000000000E+04  0.10566000000E+00 0.  1.
        994   -1    0    0    0    0 -0.00000000000E+00 -0.00000000000E+00  0.11368683772E-12  0.17120000000E+03  0.17120000000E+03 0.  0.
         13    1    1    2    0    0 -0.11758372867E+02 -0.10174381329E+02  0.69588144269E+02  0.71304266035E+02  0.10566000000E+00 0.  1.
        994    1    1    2    0    0  0.79452693416E+00 -0.38812463126E+02  0.71270433734E+01  0.17569084585E+03  0.17120000000E+03 0.  0.
        998    1    1    2    0    0  0.10963845933E+02  0.48986844455E+02  0.14232848086E+04  0.14242048881E+04  0.10000000000E+02 0.  1.
</event>
<event>
 5    1  0.1141915E-008  0.3846780E+03  0.7957747E-01  0.3431039E+00
         13   -1    0    0    0    0  0.00000000000E+00  0.00000000000E+00  0.14999999963E+04  0.15000000000E+04  0.10566000000E+00 0.  1.
        994   -1    0    0    0    0 -0.00000000000E+00 -0.00000000000E+00  0.11368683772E-12  0.17120000000E+03  0.17120000000E+03 0.  0.
         13    1    1    2    0    0 -0.95495234555E+01 -0.12526804243E+02  0.93065720294E+02  0.94389372710E+02  0.10566000000E+00 0.  1.
        994    1    1    2    0    0  0.29873879906E+01 -0.36680906305E+02  0.62616810612E+01  0.17522289241E+03  0.17120000000E+03 0.  0.
        998    1    1    2    0    0  0.65621354649E+01  0.49207710548E+02  0.14006725949E+04  0.14015877349E+04  0.10000000000E+02 0.  1.
</event>
<event>
 5    1  0.1141915E-008  0.3806265E+03  0.7957747E-01  0.3448435E+00
         13   -1    0    0    0    0  0.00000000000E+00  0.00000000000E+00  0.14999999963E+04  0.15000000000E+04  0.10566000000E+00 0. -1.
        994   -1    0    0    0    0 -0.00000000000E+00 -0.00000000000E+00  0.11368683772E-12  0.17120000000E+03  0.17120000000E+03 0.  0.
         13    1    1    2    0    0  0.14214650950E+02  0.34048749108E+02  0.18590253047E+03  0.18952871977E+03  0.10566000000E+00 0. -1.
        994    1    1    2    0    0 -0.67343929838E+00 -0.15854553747E+02  0.46577277718E+01  0.17199696167E+03  0.17120000000E+03 0.  0.
        998    1    1    2    0    0 -0.13541211651E+02 -0.18194195361E+02  0.13094397380E+04  0.13096743186E+04  0.10000000000E+02 0. -1.
</event>
<event>
 5    1  0.1141915E-008  0.3845553E+03  0.7957747E-01  0.3431560E+00
         13   -1    0    0    0    0  0.00000000000E+00  0.00000000000E+00  0.14999999963E+04  0.15000000000E+04  0.10566000000E+00 0.  1.
        994   -1    0    0    0    0 -0.00000000000E+00 -0.00000000000E+00  0.11368683772E-12  0.17120000000E+03  0.17120000000E+03 0.  0.
         13    1    1    2    0    0  0.23005262590E+02  0.98241300908E+01  0.12793997890E+03  0.13036259050E+03  0.10566000000E+00 0.  1.
        994    1    1    2    0    0 -0.43737626654E+02 -0.24948492013E+02  0.10246259008E+02  0.17874516235E+03  0.17120000000E+03 0.  0.
        998    1    1    2    0    0  0.20732364064E+02  0.15124361922E+02  0.13618137584E+04  0.13620922471E+04  0.10000000000E+02 0.  1.
</event>
<event>
 5    1  0.1141915E-008  0.3837005E+03  0.7957747E-01  0.3435202E+00
         13   -1    0    0    0    0  0.00000000000E+00  0.00000000000E+00  0.14999999963E+04  0.15000000000E+04  0.10566000000E+00 0.  1.
        994   -1    0    0    0    0 -0.00000000000E+00 -0.00000000000E+00  0.11368683772E-12  0.17120000000E+03  0.17120000000E+03 0.  0.
         13    1    1    2    0    0  0.62271131306E+01  0.10803012014E+02  0.40236846046E+02  0.42124778341E+02  0.10566000000E+00 0.  1.
        994    1    1    2    0    0 -0.21213694914E+02  0.48713502934E+02  0.11656336164E+02  0.17963389545E+03  0.17120000000E+03 0.  0.
        998    1    1    2    0    0  0.14986581783E+02 -0.59516514948E+02  0.14481068141E+04  0.14494413262E+04  0.10000000000E+02 0.  1.
</event>
<event>
 5    1  0.1141915E-008  0.3824883E+03  0.7957747E-01  0.3440395E+00
         13   -1    0    0    0    0  0.00000000000E+00  0.00000000000E+00  0.14999999963E+04  0.15000000000E+04  0.10566000000E+00 0. -1.
        994   -1    0    0    0    0 -0.00000000000E+00 -0.00000000000E+00  0.11368683772E-12  0.17120000000E+03  0.17120000000E+03 0.  0.
         13    1    1    2    0    0 -0.20141934980E+02  0.26483005969E+02  0.17411760343E+03  0.17726815320E+03  0.10566000000E+00 0. -1.
        994    1    1    2    0    0  0.91055144592E+01 -0.32637589176E+02  0.66984204859E+01  0.17464945307E+03  0.17120000000E+03 0.  0.
        998    1    1    2    0    0  0.11036420521E+02  0.61545832064E+01  0.13191839724E+04  0.13192823937E+04  0.10000000000E+02 0. -1.
</event>
<event>
 5    1  0.1141915E-008  0.3746171E+03  0.7957747E-01  0.3474937E+00
         13   -1    0    0    0    0  0.00000000000E+00  0.00000000000E+00  0.14999999963E+04  0.15000000000E+04  0.10566000000E+00 0. -1.
        994   -1    0    0    0    0 -0.00000000000E+00 -0.00000000000E+00  0.11368683772E-12  0.17120000000E+03  0.17120000000E+03 0.  0.
         13    1    1    2    0    0 -0.63720823494E+01  0.34739650376E+02  0.82669245474E+02  0.89898064790E+02  0.10566000000E+00 0. -1.
        994    1    1    2    0    0  0.81809092526E+01 -0.38134517581E+02  0.12070530978E+02  0.17600087052E+03  0.17120000000E+03 0.  0.
        998    1    1    2    0    0 -0.18088269032E+01  0.33948672043E+01  0.14052602198E+04  0.14053010647E+04  0.10000000000E+02 0. -1.
</event>
<event>
 5    1  0.1141915E-008  0.3722507E+03  0.7957747E-01  0.3485611E+00
         13   -1    0    0    0    0  0.00000000000E+00  0.00000000000E+00  0.14999999963E+04  0.15000000000E+04  0.10566000000E+00 0.  1.
        994   -1    0    0    0    0 -0.00000000000E+00 -0.00000000000E+00  0.11368683772E-12  0.17120000000E+03  0.17120000000E+03 0.  0.
         13    1    1    2    0    0  0.48319285665E+02 -0.56101287887E+02  0.25909970274E+03  0.26947128789E+03  0.10566000000E+00 0.  1.
        994    1    1    2    0    0 -0.61355590494E+02  0.58768556665E+02  0.33285259120E+02  0.19399896962E+03  0.17120000000E+03 0.  0.
        998    1    1    2    0    0  0.13036304829E+02 -0.26672687788E+01  0.12076150344E+04  0.12077297425E+04  0.10000000000E+02 0.  1.
</event>
<event>
 5    1  0.1141915E-008  0.3844653E+03  0.7957747E-01  0.3431943E+00
         13   -1    0    0    0    0  0.00000000000E+00  0.00000000000E+00  0.14999999963E+04  0.15000000000E+04  0.10566000000E+00 0.  1.
        994   -1    0    0    0    0 -0.00000000000E+00 -0.00000000000E+00  0.11368683772E-12  0.17120000000E+03  0.17120000000E+03 0.  0.
         13    1    1    2    0    0 -0.15820584847E+02 -0.16196139410E+02  0.12485453588E+03  0.12689078820E+03  0.10566000000E+00 0.  1.
        994    1    1    2    0    0  0.39423977392E+02 -0.33028723215E+01  0.70691533187E+01  0.17585383672E+03  0.17120000000E+03 0.  0.
        998    1    1    2    0    0 -0.23603392545E+02  0.19499011732E+02  0.13680763071E+04  0.13684553751E+04  0.10000000000E+02 0.  1.
</event>
<event>
 5    1  0.1141915E-008  0.3747971E+03  0.7957747E-01  0.3474131E+00
         13   -1    0    0    0    0  0.00000000000E+00  0.00000000000E+00  0.14999999963E+04  0.15000000000E+04  0.10566000000E+00 0.  1.
        994   -1    0    0    0    0 -0.00000000000E+00 -0.00000000000E+00  0.11368683772E-12  0.17120000000E+03  0.17120000000E+03 0.  0.
         13    1    1    2    0    0 -0.92407713423E+01  0.72893560253E+02  0.20558236248E+03  0.21831853313E+03  0.10566000000E+00 0.  1.
        994    1    1    2    0    0  0.31476967013E+02 -0.30581177242E+02  0.20378231591E+02  0.17790649279E+03  0.17120000000E+03 0.  0.
        998    1    1    2    0    0 -0.22236195670E+02 -0.42312383010E+02  0.12740394022E+04  0.12749749741E+04  0.10000000000E+02 0.  1.
</event>
<event>
 5    1  0.1141915E-008  0.3757607E+03  0.7957747E-01  0.3469828E+00
         13   -1    0    0    0    0  0.00000000000E+00  0.00000000000E+00  0.14999999963E+04  0.15000000000E+04  0.10566000000E+00 0. -1.
        994   -1    0    0    0    0 -0.00000000000E+00 -0.00000000000E+00  0.11368683772E-12  0.17120000000E+03  0.17120000000E+03 0.  0.
         13    1    1    2    0    0 -0.45004849960E+01  0.28831548744E+02  0.60260793912E+02  0.66954365168E+02  0.10566000000E+00 0. -1.
        994    1    1    2    0    0  0.15766822778E+02 -0.39944968007E+02  0.12567076525E+02  0.17695074055E+03  0.17120000000E+03 0.  0.
        998    1    1    2    0    0 -0.11266337782E+02  0.11113419262E+02  0.14271721258E+04  0.14272948943E+04  0.10000000000E+02 0. -1.
</event>
<event>
 5    1  0.1141915E-008  0.3708270E+03  0.7957747E-01  0.3492099E+00
         13   -1    0    0    0    0  0.00000000000E+00  0.00000000000E+00  0.14999999963E+04  0.15000000000E+04  0.10566000000E+00 0.  1.
        994   -1    0    0    0    0 -0.00000000000E+00 -0.00000000000E+00  0.11368683772E-12  0.17120000000E+03  0.17120000000E+03 0.  0.
         13    1    1    2    0    0 -0.60579815827E+02  0.70309453379E+02  0.28732933100E+03  0.30194616894E+03  0.10566000000E+00 0.  1.
        994    1    1    2    0    0  0.82087348798E+02 -0.61766288448E+02  0.49357106926E+02  0.20566713696E+03  0.17120000000E+03 0.  0.
        998    1    1    2    0    0 -0.21507532971E+02 -0.85431649302E+01  0.11633135584E+04  0.11635866941E+04  0.10000000000E+02 0.  1.
</event>
<event>
 5    1  0.1141915E-008  0.3500851E+03  0.7957747E-01  0.3592741E+00
         13   -1    0    0    0    0  0.00000000000E+00  0.00000000000E+00  0.14999999963E+04  0.15000000000E+04  0.10566000000E+00 0. -1.
        994   -1    0    0    0    0 -0.00000000000E+00 -0.00000000000E+00  0.11368683772E-12  0.17120000000E+03  0.17120000000E+03 0.  0.
         13    1    1    2    0    0  0.19970666488E+02 -0.27944730566E+03  0.77421926002E+03  0.82334992434E+03  0.10566000000E+00 0. -1.
        994    1    1    2    0    0 -0.18814530416E+02  0.28614376964E+03  0.39678748670E+03  0.51863473954E+03  0.17120000000E+03 0.  0.
        998    1    1    2    0    0 -0.11561360719E+01 -0.66964639713E+01  0.32899324956E+03  0.32921533612E+03  0.10000000000E+02 0.  0.
</event>
<event>
 5    1  0.1141915E-008  0.3841444E+03  0.7957747E-01  0.3433309E+00
         13   -1    0    0    0    0  0.00000000000E+00  0.00000000000E+00  0.14999999963E+04  0.15000000000E+04  0.10566000000E+00 0.  1.
        994   -1    0    0    0    0 -0.00000000000E+00 -0.00000000000E+00  0.11368683772E-12  0.17120000000E+03  0.17120000000E+03 0.  0.
         13    1    1    2    0    0  0.12695413744E+02 -0.21187789031E+02  0.14222914543E+03  0.14435801643E+03  0.10566000000E+00 0.  1.
        994    1    1    2    0    0 -0.10665705655E+02  0.16617507236E+02  0.33423844117E+01  0.17236737034E+03  0.17120000000E+03 0.  0.
        998    1    1    2    0    0 -0.20297080887E+01  0.45702817952E+01  0.13544284664E+04  0.13544746132E+04  0.10000000000E+02 0.  0.
</event>
<event>
 5    1  0.1141915E-008  0.3750651E+03  0.7957747E-01  0.3472932E+00
         13   -1    0    0    0    0  0.00000000000E+00  0.00000000000E+00  0.14999999963E+04  0.15000000000E+04  0.10566000000E+00 0. -1.
        994   -1    0    0    0    0 -0.00000000000E+00 -0.00000000000E+00  0.11368683772E-12  0.17120000000E+03  0.17120000000E+03 0.  0.
         13    1    1    2    0    0  0.67438292719E+01 -0.79324917546E+01  0.52623914516E+01  0.11666515611E+02  0.10566000000E+00 0. -1.
        994    1    1    2    0    0  0.98885152845E+01  0.25796760031E+00  0.69779331888E+01  0.17162744779E+03  0.17120000000E+03 0.  0.
        998    1    1    2    0    0 -0.16632344556E+02  0.76745241543E+01  0.14877596716E+04  0.14879060366E+04  0.10000000000E+02 0. -1.
</event>
<event>
 5    1  0.1141915E-008  0.3725120E+03  0.7957747E-01  0.3484425E+00
         13   -1    0    0    0    0  0.00000000000E+00  0.00000000000E+00  0.14999999963E+04  0.15000000000E+04  0.10566000000E+00 0. -1.
        994   -1    0    0    0    0 -0.00000000000E+00 -0.00000000000E+00  0.11368683772E-12  0.17120000000E+03  0.17120000000E+03 0.  0.
         13    1    1    2    0    0  0.89427253741E+01  0.55286797431E+01 -0.12404036381E+01  0.10587181024E+02  0.10566000000E+00 0. -1.
        994    1    1    2    0    0 -0.75598993605E+01 -0.45542030078E+01  0.12548101167E+02  0.17188597292E+03  0.17120000000E+03 0.  0.
        998    1    1    2    0    0 -0.13828260136E+01 -0.97447673531E+00  0.14886922988E+04  0.14887268461E+04  0.10000000000E+02 0. -1.
</event>
<event>
 5    1  0.1141915E-008  0.3826792E+03  0.7957747E-01  0.3439575E+00
         13   -1    0    0    0    0  0.00000000000E+00  0.00000000000E+00  0.14999999963E+04  0.15000000000E+04  0.10566000000E+00 0.  1.
        994   -1    0    0    0    0 -0.00000000000E+00 -0.00000000000E+00  0.11368683772E-12  0.17120000000E+03  0.17120000000E+03 0.  0.
         13    1    1    2    0    0  0.24141076824E+02  0.12449270977E+02  0.15698980646E+03  0.15932227225E+03  0.10566000000E+00 0.  1.
        994    1    1    2    0    0 -0.27068767638E+01  0.16974228801E+02  0.37663738956E+01  0.17210193839E+03  0.17120000000E+03 0.  0.
        998    1    1    2    0    0 -0.21434200060E+02 -0.29423499778E+02  0.13392438159E+04  0.13397757894E+04  0.10000000000E+02 0.  1.
</event>
<event>
 5    1  0.1141915E-008  0.3818719E+03  0.7957747E-01  0.3443048E+00
         13   -1    0    0    0    0  0.00000000000E+00  0.00000000000E+00  0.14999999963E+04  0.15000000000E+04  0.10566000000E+00 0. -1.
        994   -1    0    0    0    0 -0.00000000000E+00 -0.00000000000E+00  0.11368683772E-12  0.17120000000E+03  0.17120000000E+03 0.  0.
         13    1    1    2    0    0  0.31215475006E+02 -0.32662169933E+01  0.15018735273E+03  0.15343182896E+03  0.10566000000E+00 0. -1.
        994    1    1    2    0    0 -0.22401331989E+02 -0.67915674029E+01  0.50137660002E+01  0.17286562097E+03  0.17120000000E+03 0.  0.
        998    1    1    2    0    0 -0.88141430176E+01  0.10057784396E+02  0.13447988775E+04  0.13449025501E+04  0.10000000000E+02 0. -1.
</event>
<event>
 5    1  0.1141915E-008  0.3790244E+03  0.7957747E-01  0.3455417E+00
         13   -1    0    0    0    0  0.00000000000E+00  0.00000000000E+00  0.14999999963E+04  0.15000000000E+04  0.10566000000E+00 0.  1.
        994   -1    0    0    0    0 -0.00000000000E+00 -0.00000000000E+00  0.11368683772E-12  0.17120000000E+03  0.17120000000E+03 0.  0.
         13    1    1    2    0    0 -0.13869428657E+02 -0.46147199283E+02  0.23243114571E+03  0.23737348991E+03  0.10566000000E+00 0.  1.
        994    1    1    2    0    0  0.29926467133E+02  0.30153138861E+02  0.10703162008E+02  0.17671673066E+03  0.17120000000E+03 0.  0.
        998    1    1    2    0    0 -0.16057038475E+02  0.15994060422E+02  0.12568656886E+04  0.12571097794E+04  0.10000000000E+02 0.  1.
</event>
<event>
 5    1  0.1141915E-008  0.3820969E+03  0.7957747E-01  0.3442079E+00
         13   -1    0    0    0    0  0.00000000000E+00  0.00000000000E+00  0.14999999963E+04  0.15000000000E+04  0.10566000000E+00 0.  1.
        994   -1    0    0    0    0 -0.00000000000E+00 -0.00000000000E+00  0.11368683772E-12  0.17120000000E+03  0.17120000000E+03 0.  0.
         13    1    1    2    0    0  0.14674499806E+02 -0.35382871361E+01  0.35549577615E+02  0.38621807999E+02  0.10566000000E+00 0.  1.
        994    1    1    2    0    0 -0.13845553811E+02 -0.20361735786E+01  0.37288215749E+01  0.17181149401E+03  0.17120000000E+03 0.  0.
        998    1    1    2    0    0 -0.82894599482E+00  0.55744607147E+01  0.14607215971E+04  0.14607666980E+04  0.10000000000E+02 0.  1.
</event>
<event>
 5    1  0.1141915E-008  0.3823494E+03  0.7957747E-01  0.3440992E+00
         13   -1    0    0    0    0  0.00000000000E+00  0.00000000000E+00  0.14999999963E+04  0.15000000000E+04  0.10566000000E+00 0.  1.
        994   -1    0    0    0    0 -0.00000000000E+00 -0.00000000000E+00  0.11368683772E-12  0.17120000000E+03  0.17120000000E+03 0.  0.
         13    1    1    2    0    0 -0.58158478330E+01 -0.22810478501E+02  0.98956668252E+02  0.10171811722E+03  0.10566000000E+00 0.  1.
        994    1    1    2    0    0  0.22148909717E+02 -0.87303213214E+00  0.45834082757E+01  0.17268984920E+03  0.17120000000E+03 0.  0.
        998    1    1    2    0    0 -0.16333061884E+02  0.23683510633E+02  0.13964599198E+04  0.13967920336E+04  0.10000000000E+02 0.  1.
</event>
<event>
 5    1  0.1141915E-008  0.3826861E+03  0.7957747E-01  0.3439545E+00
         13   -1    0    0    0    0  0.00000000000E+00  0.00000000000E+00  0.14999999963E+04  0.15000000000E+04  0.10566000000E+00 0.  1.
        994   -1    0    0    0    0 -0.00000000000E+00 -0.00000000000E+00  0.11368683772E-12  0.17120000000E+03  0.17120000000E+03 0.  0.
         13    1    1    2    0    0  0.15709297429E+02  0.20970864126E+01  0.42897381535E+02  0.45731567912E+02  0.10566000000E+00 0.  1.
        994    1    1    2    0    0 -0.17632921403E+02 -0.35555390903E+01  0.38561666077E+01  0.17218557372E+03  0.17120000000E+03 0.  0.
        998    1    1    2    0    0  0.19236239743E+01  0.14584526777E+01  0.14532464481E+04  0.14532828584E+04  0.10000000000E+02 0.  1.
</event>
<event>
 5    1  0.1141915E-008  0.3808865E+03  0.7957747E-01  0.3447308E+00
         13   -1    0    0    0    0  0.00000000000E+00  0.00000000000E+00  0.14999999963E+04  0.15000000000E+04  0.10566000000E+00 0. -1.
        994   -1    0    0    0    0 -0.00000000000E+00 -0.00000000000E+00  0.11368683772E-12  0.17120000000E+03  0.17120000000E+03 0.  0.
         13    1    1    2    0    0 -0.77467872910E+01  0.12945083492E+02  0.28846471830E+02  0.32553310139E+02  0.10566000000E+00 0. -1.
        994    1    1    2    0    0  0.11488292580E+02 -0.12571537738E+02  0.46536243432E+01  0.17210787503E+03  0.17120000000E+03 0.  0.
        998    1    1    2    0    0 -0.37415052887E+01 -0.37354575472E+00  0.14664999001E+04  0.14665388148E+04  0.10000000000E+02 0. -1.
</event>
<event>
 5    1  0.1141915E-008  0.3840156E+03  0.7957747E-01  0.3433858E+00
         13   -1    0    0    0    0  0.00000000000E+00  0.00000000000E+00  0.14999999963E+04  0.15000000000E+04  0.10566000000E+00 0. -1.
        994   -1    0    0    0    0 -0.00000000000E+00 -0.00000000000E+00  0.11368683772E-12  0.17120000000E+03  0.17120000000E+03 0.  0.
         13    1    1    2    0    0 -0.84847817988E-01  0.16449784198E+02  0.60757129693E+02  0.62944758097E+02  0.10566000000E+00 0. -1.
        994    1    1    2    0    0 -0.44099262717E+01 -0.18684361689E+02  0.33365448586E+01  0.17230532596E+03  0.17120000000E+03 0.  0.
        998    1    1    2    0    0  0.44947740897E+01  0.22345774912E+01  0.14359063217E+04  0.14359499159E+04  0.10000000000E+02 0. -1.
</event>
<event>
 5    1  0.1141915E-008  0.3826215E+03  0.7957747E-01  0.3439823E+00
         13   -1    0    0    0    0  0.00000000000E+00  0.00000000000E+00  0.14999999963E+04  0.15000000000E+04  0.10566000000E+00 0.  1.
        994   -1    0    0    0    0 -0.00000000000E+00 -0.00000000000E+00  0.11368683772E-12  0.17120000000E+03  0.17120000000E+03 0.  0.
         13    1    1    2    0    0  0.12229018630E+02  0.43305699628E+02  0.27097257640E+03  0.27468360133E+03  0.10566000000E+00 0.  1.
        994    1    1    2    0    0  0.41468687159E+00 -0.56701938052E+02  0.13545844317E+02  0.18085411702E+03  0.17120000000E+03 0.  0.
        998    1    1    2    0    0 -0.12643705501E+02  0.13396238424E+02  0.12154815756E+04  0.12156622817E+04  0.10000000000E+02 0.  1.
</event>
<event>
 5    1  0.1141915E-008  0.3691556E+03  0.7957747E-01  0.3499781E+00
         13   -1    0    0    0    0  0.00000000000E+00  0.00000000000E+00  0.14999999963E+04  0.15000000000E+04  0.10566000000E+00 0. -1.
        994   -1    0    0    0    0 -0.00000000000E+00 -0.00000000000E+00  0.11368683772E-12  0.17120000000E+03  0.17120000000E+03 0.  0.
         13    1    1    2    0    0  0.72838744654E+01 -0.45460446335E+02  0.10349110870E+03  0.11327015385E+03  0.10566000000E+00 0. -1.
        994    1    1    2    0    0  0.15341658209E+01  0.35299040310E+02  0.14052533680E+02  0.17537186095E+03  0.17120000000E+03 0.  0.
        998    1    1    2    0    0 -0.88180402862E+01  0.10161406025E+02  0.13824563539E+04  0.13825579852E+04  0.10000000000E+02 0. -1.
</event>
<event>
 5    1  0.1141915E-008  0.3726879E+03  0.7957747E-01  0.3483628E+00
         13   -1    0    0    0    0  0.00000000000E+00  0.00000000000E+00  0.14999999963E+04  0.15000000000E+04  0.10566000000E+00 0.  1.
        994   -1    0    0    0    0 -0.00000000000E+00 -0.00000000000E+00  0.11368683772E-12  0.17120000000E+03  0.17120000000E+03 0.  0.
         13    1    1    2    0    0  0.68883421877E+02  0.11309091971E+02  0.25054794427E+03  0.26009057060E+03  0.10566000000E+00 0.  1.
        994    1    1    2    0    0 -0.81549535770E+02  0.32847328377E+02  0.34833535975E+02  0.19558141270E+03  0.17120000000E+03 0.  0.
        998    1    1    2    0    0  0.12666113893E+02 -0.44156420347E+02  0.12146185160E+04  0.12155280167E+04  0.10000000000E+02 0.  1.
</event>
<event>
 5    1  0.1141915E-008  0.3852291E+03  0.7957747E-01  0.3428701E+00
         13   -1    0    0    0    0  0.00000000000E+00  0.00000000000E+00  0.14999999963E+04  0.15000000000E+04  0.10566000000E+00 0.  1.
        994   -1    0    0    0    0 -0.00000000000E+00 -0.00000000000E+00  0.11368683772E-12  0.17120000000E+03  0.17120000000E+03 0.  0.
         13    1    1    2    0    0  0.10459964473E+02  0.93836014047E+01  0.66764118873E+02  0.68226985607E+02  0.10566000000E+00 0.  1.
        994    1    1    2    0    0 -0.12383487238E+01 -0.74303657207E+01  0.17029282460E+01  0.17137410483E+03  0.17120000000E+03 0.  0.
        998    1    1    2    0    0 -0.92216157496E+01 -0.19532356840E+01  0.14315329492E+04  0.14315989096E+04  0.10000000000E+02 0.  1.
</event>
<event>
 5    1  0.1141915E-008  0.3828021E+03  0.7957747E-01  0.3439047E+00
         13   -1    0    0    0    0  0.00000000000E+00  0.00000000000E+00  0.14999999963E+04  0.15000000000E+04  0.10566000000E+00 0.  1.
        994   -1    0    0    0    0 -0.00000000000E+00 -0.00000000000E+00  0.11368683772E-12  0.17120000000E+03  0.17120000000E+03 0.  0.
         13    1    1    2    0    0 -0.16366472023E+02  0.24531363051E+02  0.16310458625E+03  0.16574910679E+03  0.10566000000E+00 0.  1.
        994    1    1    2    0    0  0.12461548378E+02 -0.86830623811E+01  0.34897446783E+01  0.17190783600E+03  0.17120000000E+03 0.  0.
        998    1    1    2    0    0  0.39049236445E+01 -0.15848300670E+02  0.13334056653E+04  0.13335430572E+04  0.10000000000E+02 0.  1.
</event>
<event>
 5    1  0.1141915E-008  0.3838769E+03  0.7957747E-01  0.3434449E+00
         13   -1    0    0    0    0  0.00000000000E+00  0.00000000000E+00  0.14999999963E+04  0.15000000000E+04  0.10566000000E+00 0. -1.
        994   -1    0    0    0    0 -0.00000000000E+00 -0.00000000000E+00  0.11368683772E-12  0.17120000000E+03  0.17120000000E+03 0.  0.
         13    1    1    2    0    0  0.20512829801E+02 -0.12908601889E+02  0.13633173446E+03  0.13846935102E+03  0.10566000000E+00 0. -1.
        994    1    1    2    0    0 -0.76782335293E+01  0.11064018813E+02  0.27876250296E+01  0.17175150257E+03  0.17120000000E+03 0.  0.
        998    1    1    2    0    0 -0.12834596272E+02  0.18445830758E+01  0.13608806368E+04  0.13609791464E+04  0.10000000000E+02 0. -1.
</event>
<event>
 5    1  0.1141915E-008  0.3789872E+03  0.7957747E-01  0.3455581E+00
         13   -1    0    0    0    0  0.00000000000E+00  0.00000000000E+00  0.14999999963E+04  0.15000000000E+04  0.10566000000E+00 0.  1.
        994   -1    0    0    0    0 -0.00000000000E+00 -0.00000000000E+00  0.11368683772E-12  0.17120000000E+03  0.17120000000E+03 0.  0.
         13    1    1    2    0    0 -0.29862739167E+02 -0.47600997118E+01  0.95953008533E+02  0.10060533162E+03  0.10566000000E+00 0.  1.
        994    1    1    2    0    0  0.16901670521E+02  0.24681413616E+02  0.76525376343E+01  0.17396217973E+03  0.17120000000E+03 0.  0.
        998    1    1    2    0    0  0.12961068647E+02 -0.19921313904E+02  0.13963944501E+04  0.13966324886E+04  0.10000000000E+02 0.  1.
</event>
<event>
 5    1  0.1141915E-008  0.3822637E+03  0.7957747E-01  0.3441361E+00
         13   -1    0    0    0    0  0.00000000000E+00  0.00000000000E+00  0.14999999963E+04  0.15000000000E+04  0.10566000000E+00 0. -1.
        994   -1    0    0    0    0 -0.00000000000E+00 -0.00000000000E+00  0.11368683772E-12  0.17120000000E+03  0.17120000000E+03 0.  0.
         13    1    1    2    0    0 -0.15159838811E+02  0.26031917173E+02  0.18321891924E+02  0.35258818928E+02  0.10566000000E+00 0. -1.
        994    1    1    2    0    0  0.12679085875E+02 -0.25116531207E+02  0.20473906388E+02  0.17470037264E+03  0.17120000000E+03 0.  0.
        998    1    1    2    0    0  0.24807529364E+01 -0.91538596589E+00  0.14612041980E+04  0.14612408084E+04  0.10000000000E+02 0. -1.
</event>
<event>
 5    1  0.1141915E-008  0.3853375E+03  0.7957747E-01  0.3428242E+00
         13   -1    0    0    0    0  0.00000000000E+00  0.00000000000E+00  0.14999999963E+04  0.15000000000E+04  0.10566000000E+00 0.  1.
        994   -1    0    0    0    0 -0.00000000000E+00 -0.00000000000E+00  0.11368683772E-12  0.17120000000E+03  0.17120000000E+03 0.  0.
         13    1    1    2    0    0 -0.13242936268E+02 -0.37610593206E+01  0.65664414615E+02  0.67092081791E+02  0.10566000000E+00 0.  1.
        994    1    1    2    0    0  0.78484683637E+01  0.19488514939E+00  0.16651646195E+01  0.17138800778E+03  0.17120000000E+03 0.  0.
        998    1    1    2    0    0  0.53944679043E+01  0.35661741713E+01  0.14326704170E+04  0.14327199104E+04  0.10000000000E+02 0.  0.
</event>
<event>
 5    1  0.1141915E-008  0.3816305E+03  0.7957747E-01  0.3444090E+00
         13   -1    0    0    0    0  0.00000000000E+00  0.00000000000E+00  0.14999999963E+04  0.15000000000E+04  0.10566000000E+00 0. -1.
        994   -1    0    0    0    0 -0.00000000000E+00 -0.00000000000E+00  0.11368683772E-12  0.17120000000E+03  0.17120000000E+03 0.  0.
         13    1    1    2    0    0 -0.21820290944E+02  0.29103758285E+02  0.18712099030E+03  0.19062379185E+03  0.10566000000E+00 0. -1.
        994    1    1    2    0    0  0.27028318032E+02 -0.16005673046E+02  0.66001058090E+01  0.17418298695E+03  0.17120000000E+03 0.  0.
        998    1    1    2    0    0 -0.52080270882E+01 -0.13098085238E+02  0.13062789002E+04  0.13063932212E+04  0.10000000000E+02 0. -1.
</event>
<event>
 5    1  0.1141915E-008  0.3786982E+03  0.7957747E-01  0.3456847E+00
         13   -1    0    0    0    0  0.00000000000E+00  0.00000000000E+00  0.14999999963E+04  0.15000000000E+04  0.10566000000E+00 0.  1.
        994   -1    0    0    0    0 -0.00000000000E+00 -0.00000000000E+00  0.11368683772E-12  0.17120000000E+03  0.17120000000E+03 0.  0.
         13    1    1    2    0    0  0.28395127504E+02 -0.16634454911E+02  0.11211856943E+03  0.11684850504E+03  0.10566000000E+00 0.  1.
        994    1    1    2    0    0 -0.28243246639E+02 -0.10876616458E+02  0.78731383837E+01  0.17403277874E+03  0.17120000000E+03 0.  0.
        998    1    1    2    0    0 -0.15188086491E+00  0.27511071368E+02  0.13800082885E+04  0.13803187162E+04  0.10000000000E+02 0.  1.
</event>
<event>
 5    1  0.1141915E-008  0.3823986E+03  0.7957747E-01  0.3440781E+00
         13   -1    0    0    0    0  0.00000000000E+00  0.00000000000E+00  0.14999999963E+04  0.15000000000E+04  0.10566000000E+00 0. -1.
        994   -1    0    0    0    0 -0.00000000000E+00 -0.00000000000E+00  0.11368683772E-12  0.17120000000E+03  0.17120000000E+03 0.  0.
         13    1    1    2    0    0  0.12931225055E+03  0.16980816619E+03  0.11839587069E+04  0.12030439320E+04  0.10566000000E+00 0. -1.
        994    1    1    2    0    0 -0.12655150799E+03 -0.16638813908E+03  0.16474480475E+03  0.31646577649E+03  0.17120000000E+03 0.  0.
        998    1    1    2    0    0 -0.27607425610E+01 -0.34200271174E+01  0.15129648462E+03  0.15169029153E+03  0.10000000000E+02 0.  0.
</event>
<event>
 5    1  0.1141915E-008  0.3857454E+03  0.7957747E-01  0.3426517E+00
         13   -1    0    0    0    0  0.00000000000E+00  0.00000000000E+00  0.14999999963E+04  0.15000000000E+04  0.10566000000E+00 0. -1.
        994   -1    0    0    0    0 -0.00000000000E+00 -0.00000000000E+00  0.11368683772E-12  0.17120000000E+03  0.17120000000E+03 0.  0.
         13    1    1    2    0    0  0.16170935859E+01  0.11158953500E+02  0.51640916035E+02  0.52857663662E+02  0.10566000000E+00 0. -1.
        994    1    1    2    0    0  0.96019824656E+01 -0.66623111642E+01  0.17087426356E+01  0.17160694700E+03  0.17120000000E+03 0.  0.
        998    1    1    2    0    0 -0.11219076052E+02 -0.44966423358E+01  0.14466503376E+04  0.14467353893E+04  0.10000000000E+02 0. -1.
</event>
<event>
 5    1  0.1141915E-008  0.3779169E+03  0.7957747E-01  0.3460279E+00
         13   -1    0    0    0    0  0.00000000000E+00  0.00000000000E+00  0.14999999963E+04  0.15000000000E+04  0.10566000000E+00 0.  1.
        994   -1    0    0    0    0 -0.00000000000E+00 -0.00000000000E+00  0.11368683772E-12  0.17120000000E+03  0.17120000000E+03 0.  0.
         13    1    1    2    0    0  0.31140166533E+02 -0.24322453071E+02  0.16092283416E+03  0.16570293122E+03  0.10566000000E+00 0.  1.
        994    1    1    2    0    0 -0.11329067415E+02  0.17849704846E+01  0.56312707856E+01  0.17167610521E+03  0.17120000000E+03 0.  0.
        998    1    1    2    0    0 -0.19811099118E+02  0.22537482586E+02  0.13334458913E+04  0.13338209636E+04  0.10000000000E+02 0.  1.
</event>
<event>
 5    1  0.1141915E-008  0.3831508E+03  0.7957747E-01  0.3437553E+00
         13   -1    0    0    0    0  0.00000000000E+00  0.00000000000E+00  0.14999999963E+04  0.15000000000E+04  0.10566000000E+00 0. -1.
        994   -1    0    0    0    0 -0.00000000000E+00 -0.00000000000E+00  0.11368683772E-12  0.17120000000E+03  0.17120000000E+03 0.  0.
         13    1    1    2    0    0 -0.12095746966E+02 -0.78235901093E+01  0.39127905312E+02  0.41695560855E+02  0.10566000000E+00 0. -1.
        994    1    1    2    0    0  0.11192584207E+02  0.91377673737E+01  0.32420638670E+01  0.17183923799E+03  0.17120000000E+03 0.  0.
        998    1    1    2    0    0  0.90316275953E+00 -0.13141772644E+01  0.14576300271E+04  0.14576652012E+04  0.10000000000E+02 0. -1.
</event>
<event>
 5    1  0.1141915E-008  0.3775725E+03  0.7957747E-01  0.3461797E+00
         13   -1    0    0    0    0  0.00000000000E+00  0.00000000000E+00  0.14999999963E+04  0.15000000000E+04  0.10566000000E+00 0.  1.
        994   -1    0    0    0    0 -0.00000000000E+00 -0.00000000000E+00  0.11368683772E-12  0.17120000000E+03  0.17120000000E+03 0.  0.
         13    1    1    2    0    0 -0.11952467473E+02 -0.19818235906E+01  0.10561962227E+02  0.16073435026E+02  0.10566000000E+00 0.  1.
        994    1    1    2    0    0  0.35968979817E+02  0.97890401550E+01  0.10060798400E+02  0.17550000707E+03  0.17120000000E+03 0.  0.
        998    1    1    2    0    0 -0.24016512344E+02 -0.78072165644E+01  0.14793772357E+04  0.14796265579E+04  0.10000000000E+02 0.  1.
</event>
<event>
 5    1  0.1141915E-008  0.3811350E+03  0.7957747E-01  0.3446231E+00
         13   -1    0    0    0    0  0.00000000000E+00  0.00000000000E+00  0.14999999963E+04  0.15000000000E+04  0.10566000000E+00 0.  1.
        994   -1    0    0    0    0 -0.00000000000E+00 -0.00000000000E+00  0.11368683772E-12  0.17120000000E+03  0.17120000000E+03 0.  0.
         13    1    1    2    0    0 -0.75976484072E+01 -0.97689959763E+01  0.19832497868E+02  0.23377268434E+02  0.10566000000E+00 0.  1.
        994    1    1    2    0    0  0.66927559971E+01  0.10784749295E+02  0.40980422314E+01  0.17171877518E+03  0.17120000000E+03 0.  0.
        998    1    1    2    0    0  0.90489241016E+00 -0.10157533184E+01  0.14760694562E+04  0.14761039564E+04  0.10000000000E+02 0.  1.
</event>
<event>
 5    1  0.1141915E-008  0.3843673E+03  0.7957747E-01  0.3432360E+00
         13   -1    0    0    0    0  0.00000000000E+00  0.00000000000E+00  0.14999999963E+04  0.15000000000E+04  0.10566000000E+00 0.  1.
        994   -1    0    0    0    0 -0.00000000000E+00 -0.00000000000E+00  0.11368683772E-12  0.17120000000E+03  0.17120000000E+03 0.  0.
         13    1    1    2    0    0 -0.13351513273E+02 -0.24304079002E+01  0.52324626724E+02  0.54055966508E+02  0.10566000000E+00 0.  1.
        994    1    1    2    0    0 -0.10487560318E+02 -0.35964943763E+01  0.23497974965E+01  0.17157472204E+03  0.17120000000E+03 0.  0.
        998    1    1    2    0    0  0.23839073592E+02  0.60269022765E+01  0.14453255721E+04  0.14455693115E+04  0.10000000000E+02 0.  1.
</event>
<event>
 5    1  0.2735023E-008  0.3853422E+03  0.7957747E-01  0.3428222E+00
         13   -1    0    0    0    0  0.00000000000E+00  0.00000000000E+00  0.14999999963E+04  0.15000000000E+04  0.10566000000E+00 0. -1.
        994   -1    0    0    0    0 -0.00000000000E+00 -0.00000000000E+00  0.11368683772E-12  0.17120000000E+03  0.17120000000E+03 0.  0.
         13    1    1    2    0    0 -0.97870800559E+01 -0.37667024605E+01  0.37736816659E+02  0.39166994767E+02  0.10566000000E+00 0. -1.
        994    1    1    2    0    0  0.61702213150E+01  0.26649698190E+01  0.16087328260E+01  0.17133943421E+03  0.17120000000E+03 0.  0.
        998    1    1    2    0    0  0.36168587409E+01  0.11017326415E+01  0.14606544468E+04  0.14606935710E+04  0.10000000000E+02 0. -1.
</event>
<event>
 5    1  0.1141915E-008  0.3791163E+03  0.7957747E-01  0.3455015E+00
         13   -1    0    0    0    0  0.00000000000E+00  0.00000000000E+00  0.14999999963E+04  0.15000000000E+04  0.10566000000E+00 0.  1.
        994   -1    0    0    0    0 -0.00000000000E+00 -0.00000000000E+00  0.11368683772E-12  0.17120000000E+03  0.17120000000E+03 0.  0.
         13    1    1    2    0    0  0.13763170020E+02  0.51943498145E+01  0.21692185384E+02  0.26210078019E+02  0.10566000000E+00 0.  1.
        994    1    1    2    0    0 -0.85272264858E+01 -0.74948635295E+01  0.50121261944E+01  0.17164920035E+03  0.17120000000E+03 0.  0.
        998    1    1    2    0    0 -0.52359435338E+01  0.23005137150E+01  0.14732956847E+04  0.14733407216E+04  0.10000000000E+02 0.  1.
</event>
<event>
 5    1  0.1141915E-008  0.2767627E+03  0.7957747E-01  0.4077282E+00
         13   -1    0    0    0    0  0.00000000000E+00  0.00000000000E+00  0.14999999963E+04  0.15000000000E+04  0.10566000000E+00 0. -1.
        994   -1    0    0    0    0 -0.00000000000E+00 -0.00000000000E+00  0.11368683772E-12  0.17120000000E+03  0.17120000000E+03 0.  0.
         13    1    1    2    0    0 -0.17394388447E+03 -0.32561311411E+01  0.26254893249E+03  0.31495877580E+03  0.10566000000E+00 0. -1.
        994    1    1    2    0    0  0.28212226603E+03  0.47304618825E+02  0.44959080321E+03  0.55970709329E+03  0.17120000000E+03 0.  0.
        998    1    1    2    0    0 -0.10817838156E+03 -0.44048487684E+02  0.78786026058E+03  0.79653413091E+03  0.10000000000E+02 0. -1.
</event>
<event>
 5    1  0.1141915E-008  0.4245971E+03  0.7957747E-01  0.3277340E+00
         13   -1    0    0    0    0  0.00000000000E+00  0.00000000000E+00  0.14999999963E+04  0.15000000000E+04  0.10566000000E+00 0.  1.
        994   -1    0    0    0    0 -0.00000000000E+00 -0.00000000000E+00  0.11368683772E-12  0.17120000000E+03  0.17120000000E+03 0.  0.
         13    1    1    2    0    0  0.73824530064E+02  0.77121352943E+02  0.12301376080E+03  0.16288081786E+03  0.10566000000E+00 0.  1.
        994    1    1    2    0    0 -0.48910045794E+02 -0.53249971743E+02  0.66561618809E+02  0.19740223192E+03  0.17120000000E+03 0.  0.
        998    1    1    2    0    0 -0.24914484271E+02 -0.23871381200E+02  0.13104246167E+04  0.13109169502E+04  0.10000000000E+02 0.  1.
</event>
<event>
 5    1  0.1141915E-008  0.3834534E+03  0.7957747E-01  0.3436258E+00
         13   -1    0    0    0    0  0.00000000000E+00  0.00000000000E+00  0.14999999963E+04  0.15000000000E+04  0.10566000000E+00 0. -1.
        994   -1    0    0    0    0 -0.00000000000E+00 -0.00000000000E+00  0.11368683772E-12  0.17120000000E+03  0.17120000000E+03 0.  0.
         13    1    1    2    0    0 -0.69726701418E+01  0.11781989275E+02  0.37595559496E+02  0.40010881745E+02  0.10566000000E+00 0. -1.
        994    1    1    2    0    0  0.65947298016E+01 -0.12379479822E+02  0.30504710004E+01  0.17180071989E+03  0.17120000000E+03 0.  0.
        998    1    1    2    0    0  0.37794034021E+00  0.59749054689E+00  0.14593539658E+04  0.14593883984E+04  0.10000000000E+02 0.  0.
</event>
<event>
 5    1  0.1141915E-008  0.3842228E+03  0.7957747E-01  0.3432975E+00
         13   -1    0    0    0    0  0.00000000000E+00  0.00000000000E+00  0.14999999963E+04  0.15000000000E+04  0.10566000000E+00 0. -1.
        994   -1    0    0    0    0 -0.00000000000E+00 -0.00000000000E+00  0.11368683772E-12  0.17120000000E+03  0.17120000000E+03 0.  0.
         13    1    1    2    0    0  0.76027289567E+02  0.15436457067E+02  0.13847407718E+03  0.15872464893E+03  0.10566000000E+00 0. -1.
        994    1    1    2    0    0 -0.81960055354E+02 -0.13646901547E+02  0.44544515662E+02  0.19544140419E+03  0.17120000000E+03 0.  0.
        998    1    1    2    0    0  0.59327657874E+01 -0.17895555193E+01  0.13169814034E+04  0.13170339469E+04  0.10000000000E+02 0. -1.
</event>
<event>
 5    1  0.1141915E-008  0.3819970E+03  0.7957747E-01  0.3442509E+00
         13   -1    0    0    0    0  0.00000000000E+00  0.00000000000E+00  0.14999999963E+04  0.15000000000E+04  0.10566000000E+00 0.  1.
        994   -1    0    0    0    0 -0.00000000000E+00 -0.00000000000E+00  0.11368683772E-12  0.17120000000E+03  0.17120000000E+03 0.  0.
         13    1    1    2    0    0  0.52503677274E+01  0.10181521753E+02  0.19817623982E+02  0.22890590443E+02  0.10566000000E+00 0.  1.
        994    1    1    2    0    0  0.34936245639E+01 -0.92265335935E+01  0.34517883642E+01  0.17151877209E+03  0.17120000000E+03 0.  0.
        998    1    1    2    0    0 -0.87439922913E+01 -0.95498815986E+00  0.14767305839E+04  0.14767906375E+04  0.10000000000E+02 0.  1.
</event>
<event>
 5    1  0.1141915E-008  0.3776228E+03  0.7957747E-01  0.3461575E+00
         13   -1    0    0    0    0  0.00000000000E+00  0.00000000000E+00  0.14999999963E+04  0.15000000000E+04  0.10566000000E+00 0.  1.
        994   -1    0    0    0    0 -0.00000000000E+00 -0.00000000000E+00  0.11368683772E-12  0.17120000000E+03  0.17120000000E+03 0.  0.
         13    1    1    2    0    0 -0.36699672125E+02 -0.36812166061E+02  0.20590823282E+03  0.21236810733E+03  0.10566000000E+00 0.  1.
        994    1    1    2    0    0  0.33226414557E+02  0.52563181405E+02  0.18479772611E+02  0.18307873896E+03  0.17120000000E+03 0.  0.
        998    1    1    2    0    0  0.34732575683E+01 -0.15751015344E+02  0.12756119909E+04  0.12757531537E+04  0.10000000000E+02 0. -1.
</event>
<event>
 5    1  0.1141915E-008  0.3852640E+03  0.7957747E-01  0.3428553E+00
         13   -1    0    0    0    0  0.00000000000E+00  0.00000000000E+00  0.14999999963E+04  0.15000000000E+04  0.10566000000E+00 0. -1.
        994   -1    0    0    0    0 -0.00000000000E+00 -0.00000000000E+00  0.11368683772E-12  0.17120000000E+03  0.17120000000E+03 0.  0.
         13    1    1    2    0    0  0.12970317846E+02  0.81253077738E+00  0.53369998089E+02  0.54929565913E+02  0.10566000000E+00 0. -1.
        994    1    1    2    0    0 -0.17805725070E+02 -0.62905752695E+01  0.26717659292E+01  0.17225908834E+03  0.17120000000E+03 0.  0.
        998    1    1    2    0    0  0.48354072240E+01  0.54780444921E+01  0.14439582323E+04  0.14440113457E+04  0.10000000000E+02 0. -1.
</event>
<event>
 5    1  0.1141915E-008  0.3819697E+03  0.7957747E-01  0.3442626E+00
         13   -1    0    0    0    0  0.00000000000E+00  0.00000000000E+00  0.14999999963E+04  0.15000000000E+04  0.10566000000E+00 0.  1.
        994   -1    0    0    0    0 -0.00000000000E+00 -0.00000000000E+00  0.11368683772E-12  0.17120000000E+03  0.17120000000E+03 0.  0.
         13    1    1    2    0    0 -0.17870765284E+02 -0.55884857177E+00  0.48239946740E+02  0.51446867632E+02  0.10566000000E+00 0.  1.
        994    1    1    2    0    0  0.19397977554E+02  0.25304286102E+01  0.44141699639E+01  0.17237055868E+03  0.17120000000E+03 0.  0.
        998    1    1    2    0    0 -0.15272122701E+01 -0.19715800384E+01  0.14473458796E+04  0.14473825737E+04  0.10000000000E+02 0.  1.
</event>
<event>
 5    1  0.1141915E-008  0.3808017E+03  0.7957747E-01  0.3447675E+00
         13   -1    0    0    0    0  0.00000000000E+00  0.00000000000E+00  0.14999999963E+04  0.15000000000E+04  0.10566000000E+00 0.  1.
        994   -1    0    0    0    0 -0.00000000000E+00 -0.00000000000E+00  0.11368683772E-12  0.17120000000E+03  0.17120000000E+03 0.  0.
         13    1    1    2    0    0  0.13495927598E+02 -0.23304783187E+00  0.22623226732E+02  0.26344181992E+02  0.10566000000E+00 0.  1.
        994    1    1    2    0    0 -0.14004898297E+02 -0.28208443906E+01  0.44097732273E+01  0.17185162332E+03  0.17120000000E+03 0.  0.
        998    1    1    2    0    0  0.50897069933E+00  0.30538922224E+01  0.14729669963E+04  0.14730041947E+04  0.10000000000E+02 0.  1.
</event>
<event>
 5    1  0.1141915E-008  0.3816260E+03  0.7957747E-01  0.3444109E+00
         13   -1    0    0    0    0  0.00000000000E+00  0.00000000000E+00  0.14999999963E+04  0.15000000000E+04  0.10566000000E+00 0.  1.
        994   -1    0    0    0    0 -0.00000000000E+00 -0.00000000000E+00  0.11368683772E-12  0.17120000000E+03  0.17120000000E+03 0.  0.
         13    1    1    2    0    0 -0.16216854696E+02  0.11688171846E+01  0.38908242219E+02  0.42168886474E+02  0.10566000000E+00 0.  1.
        994    1    1    2    0    0  0.90449390574E+01 -0.33554496967E+01  0.36241272555E+01  0.17150989553E+03  0.17120000000E+03 0.  0.
        998    1    1    2    0    0  0.71719156391E+01  0.21866325122E+01  0.14574676268E+04  0.14575212180E+04  0.10000000000E+02 0.  1.
</event>
<event>
 5    1  0.1141915E-008  0.3647600E+03  0.7957747E-01  0.3520325E+00
         13   -1    0    0    0    0  0.00000000000E+00  0.00000000000E+00  0.14999999963E+04  0.15000000000E+04  0.10566000000E+00 0.  1.
        994   -1    0    0    0    0 -0.00000000000E+00 -0.00000000000E+00  0.11368683772E-12  0.17120000000E+03  0.17120000000E+03 0.  0.
         13    1    1    2    0    0  0.13369892462E+03 -0.29220304216E+03  0.53257846102E+03  0.62201113222E+03  0.10566000000E+00 0.  1.
        994    1    1    2    0    0 -0.17012951402E+03  0.26231372821E+03  0.87837006058E+03  0.94794300824E+03  0.17120000000E+03 0.  0.
        998    1    1    2    0    0  0.36430589397E+02  0.29889313956E+02  0.89051474678E+02  0.10124585954E+03  0.10000000000E+02 0.  1.
</event>
<event>
 5    1  0.1141915E-008  0.3797624E+03  0.7957747E-01  0.3452194E+00
         13   -1    0    0    0    0  0.00000000000E+00  0.00000000000E+00  0.14999999963E+04  0.15000000000E+04  0.10566000000E+00 0.  1.
        994   -1    0    0    0    0 -0.00000000000E+00 -0.00000000000E+00  0.11368683772E-12  0.17120000000E+03  0.17120000000E+03 0.  0.
         13    1    1    2    0    0  0.36106611390E+02  0.97650251670E+02  0.22518359863E+03  0.24808652380E+03  0.10566000000E+00 0.  1.
        994    1    1    2    0    0 -0.92572755057E+01 -0.15085602158E+03  0.10433747311E+03  0.25107565532E+03  0.17120000000E+03 0.  0.
        998    1    1    2    0    0 -0.26849335884E+02  0.53205769912E+02  0.11704789245E+04  0.11720378209E+04  0.10000000000E+02 0.  1.
</event>
<event>
 5    1  0.1141915E-008  0.3811776E+03  0.7957747E-01  0.3446047E+00
         13   -1    0    0    0    0  0.00000000000E+00  0.00000000000E+00  0.14999999963E+04  0.15000000000E+04  0.10566000000E+00 0. -1.
        994   -1    0    0    0    0 -0.00000000000E+00 -0.00000000000E+00  0.11368683772E-12  0.17120000000E+03  0.17120000000E+03 0.  0.
         13    1    1    2    0    0  0.10294272624E+02  0.33266125896E+02  0.15345215331E+03  0.15735368347E+03  0.10566000000E+00 0. -1.
        994    1    1    2    0    0  0.26719039046E+01 -0.38453647690E+02  0.85034623259E+01  0.17569169292E+03  0.17120000000E+03 0.  0.
        998    1    1    2    0    0 -0.12966176529E+02  0.51875217939E+01  0.13380443806E+04  0.13381546236E+04  0.10000000000E+02 0. -1.
</event>
<event>
 5    1  0.1141915E-008  0.3812122E+03  0.7957747E-01  0.3445897E+00
         13   -1    0    0    0    0  0.00000000000E+00  0.00000000000E+00  0.14999999963E+04  0.15000000000E+04  0.10566000000E+00 0. -1.
        994   -1    0    0    0    0 -0.00000000000E+00 -0.00000000000E+00  0.11368683772E-12  0.17120000000E+03  0.17120000000E+03 0.  0.
         13    1    1    2    0    0  0.33913306501E+01 -0.10024955682E+02  0.14275647768E+02  0.17770935351E+02  0.10566000000E+00 0. -1.
        994    1    1    2    0    0 -0.30724853637E+01  0.10799660846E+02  0.39423604009E+01  0.17161309695E+03  0.17120000000E+03 0.  0.
        998    1    1    2    0    0 -0.31884528640E+00 -0.77470516406E+00  0.14817819881E+04  0.14818159677E+04  0.10000000000E+02 0. -1.
</event>
<event>
 5    1  0.1141915E-008  0.3732749E+03  0.7957747E-01  0.3480974E+00
         13   -1    0    0    0    0  0.00000000000E+00  0.00000000000E+00  0.14999999963E+04  0.15000000000E+04  0.10566000000E+00 0.  1.
        994   -1    0    0    0    0 -0.00000000000E+00 -0.00000000000E+00  0.11368683772E-12  0.17120000000E+03  0.17120000000E+03 0.  0.
         13    1    1    2    0    0  0.33402950921E+02  0.44767300264E+00  0.38105349983E+02  0.50675303677E+02  0.10566000000E+00 0.  1.
        994    1    1    2    0    0 -0.32926809283E+02  0.57508045407E+01  0.16642513977E+02  0.17522459814E+03  0.17120000000E+03 0.  0.
        998    1    1    2    0    0 -0.47614163756E+00 -0.61984775433E+01  0.14452521323E+04  0.14453000982E+04  0.10000000000E+02 0.  1.
</event>
<event>
 5    1  0.1141915E-008  0.3810593E+03  0.7957747E-01  0.3446559E+00
         13   -1    0    0    0    0  0.00000000000E+00  0.00000000000E+00  0.14999999963E+04  0.15000000000E+04  0.10566000000E+00 0.  1.
        994   -1    0    0    0    0 -0.00000000000E+00 -0.00000000000E+00  0.11368683772E-12  0.17120000000E+03  0.17120000000E+03 0.  0.
         13    1    1    2    0    0 -0.34007243796E+01  0.38600942282E+02  0.21335306945E+03  0.21684358667E+03  0.10566000000E+00 0.  1.
        994    1    1    2    0    0  0.21638402909E+02 -0.17745738142E+02  0.62125573454E+01  0.17358331594E+03  0.17120000000E+03 0.  0.
        998    1    1    2    0    0 -0.18237678530E+02 -0.20855204140E+02  0.12804343695E+04  0.12807730974E+04  0.10000000000E+02 0.  1.
</event>
<event>
 5    1  0.1141915E-008  0.3805414E+03  0.7957747E-01  0.3448805E+00
         13   -1    0    0    0    0  0.00000000000E+00  0.00000000000E+00  0.14999999963E+04  0.15000000000E+04  0.10566000000E+00 0. -1.
        994   -1    0    0    0    0 -0.00000000000E+00 -0.00000000000E+00  0.11368683772E-12  0.17120000000E+03  0.17120000000E+03 0.  0.
         13    1    1    2    0    0 -0.87139869708E+01  0.22256162824E+02  0.78996044806E+02  0.82532760838E+02  0.10566000000E+00 0. -1.
        994    1    1    2    0    0  0.17618665719E+02  0.93480458448E+01  0.51886839554E+01  0.17243597590E+03  0.17120000000E+03 0.  0.
        998    1    1    2    0    0 -0.89046787486E+01 -0.31604208669E+02  0.14158152675E+04  0.14162312633E+04  0.10000000000E+02 0. -1.
</event>
<event>
 5    1  0.1141915E-008  0.3746954E+03  0.7957747E-01  0.3474586E+00
         13   -1    0    0    0    0  0.00000000000E+00  0.00000000000E+00  0.14999999963E+04  0.15000000000E+04  0.10566000000E+00 0.  1.
        994   -1    0    0    0    0 -0.00000000000E+00 -0.00000000000E+00  0.11368683772E-12  0.17120000000E+03  0.17120000000E+03 0.  0.
         13    1    1    2    0    0  0.42369488186E+02  0.46582643844E+02  0.34609541141E+03  0.35177714706E+03  0.10566000000E+00 0.  1.
        994    1    1    2    0    0  0.78295459516E+01 -0.27515219615E+02  0.96250106769E+01  0.17384035760E+03  0.17120000000E+03 0.  0.
        998    1    1    2    0    0 -0.50199034138E+02 -0.19067424229E+02  0.11442795742E+04  0.11455824953E+04  0.10000000000E+02 0. -1.
</event>
<event>
 5    1  0.1141915E-008  0.3847525E+03  0.7957747E-01  0.3430723E+00
         13   -1    0    0    0    0  0.00000000000E+00  0.00000000000E+00  0.14999999963E+04  0.15000000000E+04  0.10566000000E+00 0. -1.
        994   -1    0    0    0    0 -0.00000000000E+00 -0.00000000000E+00  0.11368683772E-12  0.17120000000E+03  0.17120000000E+03 0.  0.
         13    1    1    2    0    0  0.42779300305E+01  0.12709595357E+02  0.52132600274E+02  0.53829858581E+02  0.10566000000E+00 0. -1.
        994    1    1    2    0    0 -0.53423982995E+01 -0.39243617937E+01  0.18977083827E+01  0.17133879634E+03  0.17120000000E+03 0.  0.
        998    1    1    2    0    0  0.10644682691E+01 -0.87852335633E+01  0.14459696876E+04  0.14460313451E+04  0.10000000000E+02 0. -1.
</event>
<event>
 5    1  0.1141915E-008  0.3766224E+03  0.7957747E-01  0.3465998E+00
         13   -1    0    0    0    0  0.00000000000E+00  0.00000000000E+00  0.14999999963E+04  0.15000000000E+04  0.10566000000E+00 0. -1.
        994   -1    0    0    0    0 -0.00000000000E+00 -0.00000000000E+00  0.11368683772E-12  0.17120000000E+03  0.17120000000E+03 0.  0.
         13    1    1    2    0    0  0.41594745978E+02 -0.51973029061E+02  0.33796362671E+03  0.34445717119E+03  0.10566000000E+00 0. -1.
        994    1    1    2    0    0 -0.80825688961E+02  0.80273440765E+01  0.28487186785E+02  0.19161991039E+03  0.17120000000E+03 0.  0.
        998    1    1    2    0    0  0.39230942982E+02  0.43945684984E+02  0.11335491828E+04  0.11351229184E+04  0.10000000000E+02 0. -1.
</event>
<event>
 5    1  0.1141915E-008  0.3811781E+03  0.7957747E-01  0.3446045E+00
         13   -1    0    0    0    0  0.00000000000E+00  0.00000000000E+00  0.14999999963E+04  0.15000000000E+04  0.10566000000E+00 0. -1.
        994   -1    0    0    0    0 -0.00000000000E+00 -0.00000000000E+00  0.11368683772E-12  0.17120000000E+03  0.17120000000E+03 0.  0.
         13    1    1    2    0    0 -0.11245358268E+03 -0.66569256399E+02  0.36208034583E+03  0.38494085540E+03  0.10566000000E+00 0. -1.
        994    1    1    2    0    0  0.11261252945E+03  0.68127119403E+02  0.83087095523E+02  0.23137802754E+03  0.17120000000E+03 0.  0.
        998    1    1    2    0    0 -0.15894676793E+00 -0.15578630046E+01  0.10548325549E+04  0.10548811171E+04  0.10000000000E+02 0.  0.
</event>
<event>
 5    1  0.1141915E-008  0.3790428E+03  0.7957747E-01  0.3455337E+00
         13   -1    0    0    0    0  0.00000000000E+00  0.00000000000E+00  0.14999999963E+04  0.15000000000E+04  0.10566000000E+00 0.  1.
        994   -1    0    0    0    0 -0.00000000000E+00 -0.00000000000E+00  0.11368683772E-12  0.17120000000E+03  0.17120000000E+03 0.  0.
         13    1    1    2    0    0 -0.22895217669E+02  0.12684441222E+01  0.54153126709E+02  0.58807926668E+02  0.10566000000E+00 0.  1.
        994    1    1    2    0    0  0.19974682110E+02 -0.11203171717E+01  0.59604885654E+01  0.17246799836E+03  0.17120000000E+03 0.  0.
        998    1    1    2    0    0  0.29205355590E+01 -0.14812695051E+00  0.14398863810E+04  0.14399240750E+04  0.10000000000E+02 0.  1.
</event>
<event>
 5    1  0.1141915E-008  0.3775685E+03  0.7957747E-01  0.3461815E+00
         13   -1    0    0    0    0  0.00000000000E+00  0.00000000000E+00  0.14999999963E+04  0.15000000000E+04  0.10566000000E+00 0. -1.
        994   -1    0    0    0    0 -0.00000000000E+00 -0.00000000000E+00  0.11368683772E-12  0.17120000000E+03  0.17120000000E+03 0.  0.
         13    1    1    2    0    0 -0.23124086899E+02 -0.18044878870E+02  0.77055735543E+02  0.82449612446E+02  0.10566000000E+00 0. -1.
        994    1    1    2    0    0  0.19808034319E+02  0.10332836554E+02  0.70495029507E+01  0.17279543173E+03  0.17120000000E+03 0.  0.
        998    1    1    2    0    0  0.33160525797E+01  0.77120423158E+01  0.14158947578E+04  0.14159549558E+04  0.10000000000E+02 0. -1.
</event>
<event>
 5    1  0.1141915E-008  0.2768079E+03  0.7957747E-01  0.4076897E+00
         13   -1    0    0    0    0  0.00000000000E+00  0.00000000000E+00  0.14999999963E+04  0.15000000000E+04  0.10566000000E+00 0. -1.
        994   -1    0    0    0    0 -0.00000000000E+00 -0.00000000000E+00  0.11368683772E-12  0.17120000000E+03  0.17120000000E+03 0.  0.
         13    1    1    2    0    0 -0.16299008794E+03 -0.54469760667E+02  0.50716084837E+03  0.53548563088E+03  0.10566000000E+00 0. -1.
        994    1    1    2    0    0  0.16421908309E+03  0.19032472966E+02  0.12826264741E+03  0.27035326704E+03  0.17120000000E+03 0.  0.
        998    1    1    2    0    0 -0.12289951517E+01  0.35437287701E+02  0.86457650050E+03  0.86536110209E+03  0.10000000000E+02 0.  1.
</event>
<event>
 5    1  0.1141915E-008  0.3846588E+03  0.7957747E-01  0.3431120E+00
         13   -1    0    0    0    0  0.00000000000E+00  0.00000000000E+00  0.14999999963E+04  0.15000000000E+04  0.10566000000E+00 0.  1.
        994   -1    0    0    0    0 -0.00000000000E+00 -0.00000000000E+00  0.11368683772E-12  0.17120000000E+03  0.17120000000E+03 0.  0.
         13    1    1    2    0    0 -0.84539250172E+01  0.16006956300E+02  0.89273152709E+02  0.91090056849E+02  0.10566000000E+00 0.  1.
        994    1    1    2    0    0  0.27167348258E+02 -0.25170705080E+01  0.42542447434E+01  0.17341262657E+03  0.17120000000E+03 0.  0.
        998    1    1    2    0    0 -0.18713423241E+02 -0.13489885792E+02  0.14064725988E+04  0.14066973166E+04  0.10000000000E+02 0.  1.
</event>
<event>
 5    1  0.1141915E-008  0.3687273E+03  0.7957747E-01  0.3501761E+00
         13   -1    0    0    0    0  0.00000000000E+00  0.00000000000E+00  0.14999999963E+04  0.15000000000E+04  0.10566000000E+00 0.  1.
        994   -1    0    0    0    0 -0.00000000000E+00 -0.00000000000E+00  0.11368683772E-12  0.17120000000E+03  0.17120000000E+03 0.  0.
         13    1    1    2    0    0  0.13500263469E+02 -0.91226217930E+01  0.88165346075E+01  0.18526245940E+02  0.10566000000E+00 0.  1.
        994    1    1    2    0    0 -0.14951740525E+02  0.71422866099E+01  0.10889935880E+02  0.17234441536E+03  0.17120000000E+03 0.  0.
        998    1    1    2    0    0  0.14514770567E+01  0.19803351831E+01  0.14802935258E+04  0.14803293387E+04  0.10000000000E+02 0.  1.
</event>
<event>
 5    1  0.1141915E-008  0.3846679E+03  0.7957747E-01  0.3431082E+00
         13   -1    0    0    0    0  0.00000000000E+00  0.00000000000E+00  0.14999999963E+04  0.15000000000E+04  0.10566000000E+00 0.  1.
        994   -1    0    0    0    0 -0.00000000000E+00 -0.00000000000E+00  0.11368683772E-12  0.17120000000E+03  0.17120000000E+03 0.  0.
         13    1    1    2    0    0 -0.75416373033E+01 -0.16148956997E+02  0.83822051591E+02  0.85696047763E+02  0.10566000000E+00 0.  1.
        994    1    1    2    0    0  0.11107650029E+02  0.16012390126E+02  0.30463991953E+01  0.17233251891E+03  0.17120000000E+03 0.  0.
        998    1    1    2    0    0 -0.35660127256E+01  0.13656687152E+00  0.14131315455E+04  0.14131714333E+04  0.10000000000E+02 0.  1.
</event>
<event>
 5    1  0.1141915E-008  0.3797701E+03  0.7957747E-01  0.3452160E+00
         13   -1    0    0    0    0  0.00000000000E+00  0.00000000000E+00  0.14999999963E+04  0.15000000000E+04  0.10566000000E+00 0. -1.
        994   -1    0    0    0    0 -0.00000000000E+00 -0.00000000000E+00  0.11368683772E-12  0.17120000000E+03  0.17120000000E+03 0.  0.
         13    1    1    2    0    0  0.11670458418E+02  0.23603964197E+02  0.77347039883E+02  0.81706318411E+02  0.10566000000E+00 0. -1.
        994    1    1    2    0    0 -0.36145276027E+01 -0.25165615806E+02  0.64146588174E+01  0.17319630734E+03  0.17120000000E+03 0.  0.
        998    1    1    2    0    0 -0.80559308150E+01  0.15616516092E+01  0.14162382976E+04  0.14162973742E+04  0.10000000000E+02 0. -1.
</event>
<event>
 5    1  0.1141915E-008  0.3764608E+03  0.7957747E-01  0.3466715E+00
         13   -1    0    0    0    0  0.00000000000E+00  0.00000000000E+00  0.14999999963E+04  0.15000000000E+04  0.10566000000E+00 0.  1.
        994   -1    0    0    0    0 -0.00000000000E+00 -0.00000000000E+00  0.11368683772E-12  0.17120000000E+03  0.17120000000E+03 0.  0.
         13    1    1    2    0    0  0.59227651154E+02  0.19792410471E+01  0.10930233127E+03  0.12433359498E+03  0.10566000000E+00 0.  1.
        994    1    1    2    0    0 -0.58205509147E+02 -0.16381609017E+02  0.27593788397E+02  0.18364938216E+03  0.17120000000E+03 0.  0.
        998    1    1    2    0    0 -0.10221420066E+01  0.14402367970E+02  0.13631038766E+04  0.13632170229E+04  0.10000000000E+02 0.  1.
</event>
<event>
 5    1  0.1141915E-008  0.3838513E+03  0.7957747E-01  0.3434559E+00
         13   -1    0    0    0    0  0.00000000000E+00  0.00000000000E+00  0.14999999963E+04  0.15000000000E+04  0.10566000000E+00 0.  1.
        994   -1    0    0    0    0 -0.00000000000E+00 -0.00000000000E+00  0.11368683772E-12  0.17120000000E+03  0.17120000000E+03 0.  0.
         13    1    1    2    0    0  0.14501650460E+02 -0.10929374457E+02  0.71978007095E+02  0.74233373636E+02  0.10566000000E+00 0.  1.
        994    1    1    2    0    0 -0.15428360758E+02  0.85629080142E+01  0.32299646674E+01  0.17213724286E+03  0.17120000000E+03 0.  0.
        998    1    1    2    0    0  0.92671029844E+00  0.23664664432E+01  0.14247920245E+04  0.14248293835E+04  0.10000000000E+02 0.  1.
</event>
<event>
 5    1  0.1141915E-008  0.3848308E+03  0.7957747E-01  0.3430390E+00
         13   -1    0    0    0    0  0.00000000000E+00  0.00000000000E+00  0.14999999963E+04  0.15000000000E+04  0.10566000000E+00 0.  1.
        994   -1    0    0    0    0 -0.00000000000E+00 -0.00000000000E+00  0.11368683772E-12  0.17120000000E+03  0.17120000000E+03 0.  0.
         13    1    1    2    0    0  0.13062946472E+02  0.41086318434E+01  0.56306804189E+02  0.57948156038E+02  0.10566000000E+00 0.  1.
        994    1    1    2    0    0 -0.59212878270E+01  0.61267711686E+01  0.19530710005E+01  0.17142302489E+03  0.17120000000E+03 0.  0.
        998    1    1    2    0    0 -0.71416586447E+01 -0.10235403012E+02  0.14417401211E+04  0.14418288191E+04  0.10000000000E+02 0.  1.
</event>
<event>
 5    1  0.1141915E-008  0.3685098E+03  0.7957747E-01  0.3502768E+00
         13   -1    0    0    0    0  0.00000000000E+00  0.00000000000E+00  0.14999999963E+04  0.15000000000E+04  0.10566000000E+00 0. -1.
        994   -1    0    0    0    0 -0.00000000000E+00 -0.00000000000E+00  0.11368683772E-12  0.17120000000E+03  0.17120000000E+03 0.  0.
         13    1    1    2    0    0 -0.66895462294E+02  0.32356613968E+02  0.34431807044E+03  0.35224550833E+03  0.10566000000E+00 0. -1.
        994    1    1    2    0    0  0.10175313753E+02 -0.13846464856E+01  0.10416673319E+02  0.17182375080E+03  0.17120000000E+03 0.  0.
        998    1    1    2    0    0  0.56720148541E+02 -0.30971967483E+02  0.11452652525E+04  0.11471307409E+04  0.10000000000E+02 0. -1.
</event>
<event>
 5    1  0.1141915E-008  0.3745925E+03  0.7957747E-01  0.3475047E+00
         13   -1    0    0    0    0  0.00000000000E+00  0.00000000000E+00  0.14999999963E+04  0.15000000000E+04  0.10566000000E+00 0. -1.
        994   -1    0    0    0    0 -0.00000000000E+00 -0.00000000000E+00  0.11368683772E-12  0.17120000000E+03  0.17120000000E+03 0.  0.
         13    1    1    2    0    0 -0.51765601892E+01  0.14865124439E+02  0.14777971337E+02  0.21590930986E+02  0.10566000000E+00 0. -1.
        994    1    1    2    0    0  0.45009970724E+01 -0.16130049285E+02  0.78432988902E+01  0.17219580367E+03  0.17120000000E+03 0.  0.
        998    1    1    2    0    0  0.67556311680E+00  0.12649248462E+01  0.14773787261E+04  0.14774132653E+04  0.10000000000E+02 0. -1.
</event>
<event>
 5    1  0.1141915E-008  0.3811577E+03  0.7957747E-01  0.3446133E+00
         13   -1    0    0    0    0  0.00000000000E+00  0.00000000000E+00  0.14999999963E+04  0.15000000000E+04  0.10566000000E+00 0.  1.
        994   -1    0    0    0    0 -0.00000000000E+00 -0.00000000000E+00  0.11368683772E-12  0.17120000000E+03  0.17120000000E+03 0.  0.
         13    1    1    2    0    0 -0.37341031443E+02  0.10477769780E+02  0.19013667546E+03  0.19405180445E+03  0.10566000000E+00 0.  1.
        994    1    1    2    0    0  0.34982005118E+02 -0.86002132768E+01  0.78835281718E+01  0.17512650961E+03  0.17120000000E+03 0.  0.
        998    1    1    2    0    0  0.23590263249E+01 -0.18775565033E+01  0.13019797926E+04  0.13020216859E+04  0.10000000000E+02 0.  1.
</event>
<event>
 5    1  0.1141915E-008  0.3810727E+03  0.7957747E-01  0.3446501E+00
         13   -1    0    0    0    0  0.00000000000E+00  0.00000000000E+00  0.14999999963E+04  0.15000000000E+04  0.10566000000E+00 0. -1.
        994   -1    0    0    0    0 -0.00000000000E+00 -0.00000000000E+00  0.11368683772E-12  0.17120000000E+03  0.17120000000E+03 0.  0.
         13    1    1    2    0    0 -0.36627998270E+01  0.28205290085E+02  0.11899923095E+03  0.12235106302E+03  0.10566000000E+00 0. -1.
        994    1    1    2    0    0 -0.15677026381E+01 -0.64450973268E+01  0.37391945528E+01  0.17136924621E+03  0.17120000000E+03 0.  0.
        998    1    1    2    0    0  0.52305024651E+01 -0.21760192758E+02  0.13772615708E+04  0.13774796908E+04  0.10000000000E+02 0. -1.
</event>
<event>
 5    1  0.1141915E-008  0.3820316E+03  0.7957747E-01  0.3442360E+00
         13   -1    0    0    0    0  0.00000000000E+00  0.00000000000E+00  0.14999999963E+04  0.15000000000E+04  0.10566000000E+00 0. -1.
        994   -1    0    0    0    0 -0.00000000000E+00 -0.00000000000E+00  0.11368683772E-12  0.17120000000E+03  0.17120000000E+03 0.  0.
         13    1    1    2    0    0  0.29518972666E+02 -0.17960582296E+02  0.15940781359E+03  0.16310982332E+03  0.10566000000E+00 0. -1.
        994    1    1    2    0    0 -0.32512346957E+02  0.34038362763E+02  0.10503644086E+02  0.17786351336E+03  0.17120000000E+03 0.  0.
        998    1    1    2    0    0  0.29933742913E+01 -0.16077780467E+02  0.13300885386E+04  0.13302266633E+04  0.10000000000E+02 0. -1.
</event>
<event>
 5    1  0.1141915E-008  0.3809895E+03  0.7957747E-01  0.3446861E+00
         13   -1    0    0    0    0  0.00000000000E+00  0.00000000000E+00  0.14999999963E+04  0.15000000000E+04  0.10566000000E+00 0.  1.
        994   -1    0    0    0    0 -0.00000000000E+00 -0.00000000000E+00  0.11368683772E-12  0.17120000000E+03  0.17120000000E+03 0.  0.
         13    1    1    2    0    0  0.13248662538E+02  0.49200978536E+02  0.66762385749E+02  0.83985062142E+02  0.10566000000E+00 0.  1.
        994    1    1    2    0    0 -0.19636893645E+02 -0.53947274779E+02  0.28957551275E+02  0.18287672302E+03  0.17120000000E+03 0.  0.
        998    1    1    2    0    0  0.63882311064E+01  0.47462962428E+01  0.14042800593E+04  0.14043382148E+04  0.10000000000E+02 0.  1.
</event>
<event>
 5    1  0.1141915E-008  0.3853538E+03  0.7957747E-01  0.3428173E+00
         13   -1    0    0    0    0  0.00000000000E+00  0.00000000000E+00  0.14999999963E+04  0.15000000000E+04  0.10566000000E+00 0. -1.
        994   -1    0    0    0    0 -0.00000000000E+00 -0.00000000000E+00  0.11368683772E-12  0.17120000000E+03  0.17120000000E+03 0.  0.
         13    1    1    2    0    0  0.10871973015E+02 -0.61853302826E+01  0.58763830968E+02  0.60080421952E+02  0.10566000000E+00 0. -1.
        994    1    1    2    0    0  0.76692359339E+01  0.37091473213E+01  0.16930357568E+01  0.17142018937E+03  0.17120000000E+03 0.  0.
        998    1    1    2    0    0 -0.18541208949E+02  0.24761829613E+01  0.14395431296E+04  0.14396993887E+04  0.10000000000E+02 0. -1.
</event>
<event>
 5    1  0.1141915E-008  0.3768271E+03  0.7957747E-01  0.3465092E+00
         13   -1    0    0    0    0  0.00000000000E+00  0.00000000000E+00  0.14999999963E+04  0.15000000000E+04  0.10566000000E+00 0.  1.
        994   -1    0    0    0    0 -0.00000000000E+00 -0.00000000000E+00  0.11368683772E-12  0.17120000000E+03  0.17120000000E+03 0.  0.
         13    1    1    2    0    0 -0.84446849511E+02 -0.43753817655E+02  0.32298980944E+03  0.33670178960E+03  0.10566000000E+00 0.  1.
        994    1    1    2    0    0  0.13830206352E+03  0.10478243859E+03  0.11534010886E+03  0.26966572070E+03  0.17120000000E+03 0.  0.
        998    1    1    2    0    0 -0.53855214006E+02 -0.61028620936E+02  0.10616700780E+04  0.10648324897E+04  0.10000000000E+02 0. -1.
</event>
<event>
 5    1  0.1141915E-008  0.3961485E+03  0.7957747E-01  0.3383724E+00
         13   -1    0    0    0    0  0.00000000000E+00  0.00000000000E+00  0.14999999963E+04  0.15000000000E+04  0.10566000000E+00 0. -1.
        994   -1    0    0    0    0 -0.00000000000E+00 -0.00000000000E+00  0.11368683772E-12  0.17120000000E+03  0.17120000000E+03 0.  0.
         13    1    1    2    0    0  0.95290034078E+01 -0.81660206212E+01 -0.85552152853E+01  0.15188438740E+02  0.10566000000E+00 0. -1.
        994    1    1    2    0    0 -0.16819141247E+02  0.15074294558E+02  0.27465419952E+02  0.17485395953E+03  0.17120000000E+03 0.  0.
        998    1    1    2    0    0  0.72901378391E+01 -0.69082739368E+01  0.14810897916E+04  0.14811576017E+04  0.10000000000E+02 0. -1.
</event>
<event>
 5    1  0.1141915E-008  0.3857229E+03  0.7957747E-01  0.3426612E+00
         13   -1    0    0    0    0  0.00000000000E+00  0.00000000000E+00  0.14999999963E+04  0.15000000000E+04  0.10566000000E+00 0.  1.
        994   -1    0    0    0    0 -0.00000000000E+00 -0.00000000000E+00  0.11368683772E-12  0.17120000000E+03  0.17120000000E+03 0.  0.
         13    1    1    2    0    0  0.15079674142E+02 -0.93127286140E+00  0.86303132747E+02  0.87615670558E+02  0.10566000000E+00 0.  1.
        994    1    1    2    0    0 -0.15423941264E+02  0.22245555011E+01  0.20688214797E+01  0.17192023335E+03  0.17120000000E+03 0.  0.
        998    1    1    2    0    0  0.34426712194E+00 -0.12932826397E+01  0.14116280421E+04  0.14116640961E+04  0.10000000000E+02 0.  1.
</event>
<event>
 5    1  0.1141915E-008  0.4049338E+03  0.7957747E-01  0.3349293E+00
         13   -1    0    0    0    0  0.00000000000E+00  0.00000000000E+00  0.14999999963E+04  0.15000000000E+04  0.10566000000E+00 0.  1.
        994   -1    0    0    0    0 -0.00000000000E+00 -0.00000000000E+00  0.11368683772E-12  0.17120000000E+03  0.17120000000E+03 0.  0.
         13    1    1    2    0    0  0.27212073802E+02 -0.33167701304E+02  0.16641647854E+02  0.46016833635E+02  0.10566000000E+00 0.  1.
        994    1    1    2    0    0 -0.13022040144E+02  0.64677532109E+02  0.48366789694E+02  0.18974072582E+03  0.17120000000E+03 0.  0.
        998    1    1    2    0    0 -0.14190033658E+02 -0.31509830804E+02  0.14349915587E+04  0.14354424405E+04  0.10000000000E+02 0.  1.
</event>
<event>
 5    1  0.1141915E-008  0.3847169E+03  0.7957747E-01  0.3430874E+00
         13   -1    0    0    0    0  0.00000000000E+00  0.00000000000E+00  0.14999999963E+04  0.15000000000E+04  0.10566000000E+00 0.  1.
        994   -1    0    0    0    0 -0.00000000000E+00 -0.00000000000E+00  0.11368683772E-12  0.17120000000E+03  0.17120000000E+03 0.  0.
         13    1    1    2    0    0  0.25858059163E+01 -0.13162810860E+02  0.51321304842E+02  0.53045579238E+02  0.10566000000E+00 0.  1.
        994    1    1    2    0    0 -0.74121105649E+01  0.51491400753E+01  0.20389263854E+01  0.17144984762E+03  0.17120000000E+03 0.  0.
        998    1    1    2    0    0  0.48263046486E+01  0.80136707842E+01  0.14466397651E+04  0.14467045731E+04  0.10000000000E+02 0.  1.
</event>
<event>
 5    1  0.1141915E-008  0.4542703E+03  0.7957747E-01  0.3180297E+00
         13   -1    0    0    0    0  0.00000000000E+00  0.00000000000E+00  0.14999999963E+04  0.15000000000E+04  0.10566000000E+00 0. -1.
        994   -1    0    0    0    0 -0.00000000000E+00 -0.00000000000E+00  0.11368683772E-12  0.17120000000E+03  0.17120000000E+03 0.  0.
         13    1    1    2    0    0 -0.33968247377E+02 -0.49887833782E+02  0.49980900383E+01  0.60560959846E+02  0.10566000000E+00 0. -1.
        994    1    1    2    0    0  0.34146723506E+02  0.56312863352E+02  0.87753176709E+02  0.20334010261E+03  0.17120000000E+03 0.  0.
        998    1    1    2    0    0 -0.17847612854E+00 -0.64250295697E+01  0.14072487295E+04  0.14072989375E+04  0.10000000000E+02 0. -1.
</event>
<event>
 5    1  0.1141915E-008  0.3851225E+03  0.7957747E-01  0.3429153E+00
         13   -1    0    0    0    0  0.00000000000E+00  0.00000000000E+00  0.14999999963E+04  0.15000000000E+04  0.10566000000E+00 0. -1.
        994   -1    0    0    0    0 -0.00000000000E+00 -0.00000000000E+00  0.11368683772E-12  0.17120000000E+03  0.17120000000E+03 0.  0.
         13    1    1    2    0    0 -0.13201181699E+02  0.59259697145E-01  0.56113575706E+02  0.57645635156E+02  0.10566000000E+00 0. -1.
        994    1    1    2    0    0  0.71547347269E+01 -0.12610798554E+01  0.17428442142E+01  0.17136294249E+03  0.17120000000E+03 0.  0.
        998    1    1    2    0    0  0.60464469717E+01  0.12018201582E+01  0.14421435764E+04  0.14421914224E+04  0.10000000000E+02 0. -1.
</event>
<event>
 5    1  0.1141915E-008  0.3735770E+03  0.7957747E-01  0.3479611E+00
         13   -1    0    0    0    0  0.00000000000E+00  0.00000000000E+00  0.14999999963E+04  0.15000000000E+04  0.10566000000E+00 0.  1.
        994   -1    0    0    0    0 -0.00000000000E+00 -0.00000000000E+00  0.11368683772E-12  0.17120000000E+03  0.17120000000E+03 0.  0.
         13    1    1    2    0    0 -0.41261066962E+02  0.17091694993E+02  0.96605139109E+02  0.10642915837E+03  0.10566000000E+00 0.  1.
        994    1    1    2    0    0 -0.63387083013E+02 -0.85558013897E+01  0.27471958888E+02  0.18481145136E+03  0.17120000000E+03 0.  0.
        998    1    1    2    0    0  0.10464814997E+03 -0.85358936037E+01  0.13759228983E+04  0.13799593903E+04  0.10000000000E+02 0.  1.
</event>
<event>
 5    1  0.1141915E-008  0.3759520E+03  0.7957747E-01  0.3468976E+00
         13   -1    0    0    0    0  0.00000000000E+00  0.00000000000E+00  0.14999999963E+04  0.15000000000E+04  0.10566000000E+00 0. -1.
        994   -1    0    0    0    0 -0.00000000000E+00 -0.00000000000E+00  0.11368683772E-12  0.17120000000E+03  0.17120000000E+03 0.  0.
         13    1    1    2    0    0 -0.18465509171E+02 -0.60478225950E+02  0.24825490668E+03  0.25618177277E+03  0.10566000000E+00 0. -1.
        994    1    1    2    0    0 -0.15321033219E+01  0.78860563011E+02  0.27570778286E+02  0.19050176785E+03  0.17120000000E+03 0.  0.
        998    1    1    2    0    0  0.19997612492E+02 -0.18382337061E+02  0.12241743113E+04  0.12245164594E+04  0.10000000000E+02 0. -1.
</event>
<event>
 5    1  0.1141915E-008  0.3846439E+03  0.7957747E-01  0.3431184E+00
         13   -1    0    0    0    0  0.00000000000E+00  0.00000000000E+00  0.14999999963E+04  0.15000000000E+04  0.10566000000E+00 0.  1.
        994   -1    0    0    0    0 -0.00000000000E+00 -0.00000000000E+00  0.11368683772E-12  0.17120000000E+03  0.17120000000E+03 0.  0.
         13    1    1    2    0    0 -0.14784856997E+01  0.12219631441E+02  0.40794536431E+02  0.42611156746E+02  0.10566000000E+00 0.  1.
        994    1    1    2    0    0  0.20268998663E+01 -0.12436968020E+02  0.23299865964E+01  0.17167893096E+03  0.17120000000E+03 0.  0.
        998    1    1    2    0    0 -0.54841416655E+00  0.21733657815E+00  0.14568754733E+04  0.14569099123E+04  0.10000000000E+02 0.  0.
</event>
<event>
 5    1  0.1141915E-008  0.3844481E+03  0.7957747E-01  0.3432016E+00
         13   -1    0    0    0    0  0.00000000000E+00  0.00000000000E+00  0.14999999963E+04  0.15000000000E+04  0.10566000000E+00 0.  1.
        994   -1    0    0    0    0 -0.00000000000E+00 -0.00000000000E+00  0.11368683772E-12  0.17120000000E+03  0.17120000000E+03 0.  0.
         13    1    1    2    0    0  0.30223448858E+01 -0.11629117002E+02  0.36148245691E+02  0.38093014602E+02  0.10566000000E+00 0.  1.
        994    1    1    2    0    0 -0.16441197482E+01  0.16640351249E+02  0.28261088041E+01  0.17203787755E+03  0.17120000000E+03 0.  0.
        998    1    1    2    0    0 -0.13782251376E+01 -0.50112342476E+01  0.14610256418E+04  0.14610691079E+04  0.10000000000E+02 0.  1.
</event>
<event>
 5    1  0.1141915E-008  0.3816644E+03  0.7957747E-01  0.3443943E+00
         13   -1    0    0    0    0  0.00000000000E+00  0.00000000000E+00  0.14999999963E+04  0.15000000000E+04  0.10566000000E+00 0. -1.
        994   -1    0    0    0    0 -0.00000000000E+00 -0.00000000000E+00  0.11368683772E-12  0.17120000000E+03  0.17120000000E+03 0.  0.
         13    1    1    2    0    0  0.28681623832E+01  0.15839886354E+02  0.39246740230E+02  0.42419879041E+02  0.10566000000E+00 0. -1.
        994    1    1    2    0    0  0.81001093463E+01 -0.44968647342E+01  0.35807583753E+01  0.17148788702E+03  0.17120000000E+03 0.  0.
        998    1    1    2    0    0 -0.10968271730E+02 -0.11343021620E+02  0.14571724977E+04  0.14572922339E+04  0.10000000000E+02 0. -1.
</event>
<event>
 5    1  0.1141915E-008  0.3810157E+03  0.7957747E-01  0.3446748E+00
         13   -1    0    0    0    0  0.00000000000E+00  0.00000000000E+00  0.14999999963E+04  0.15000000000E+04  0.10566000000E+00 0.  1.
        994   -1    0    0    0    0 -0.00000000000E+00 -0.00000000000E+00  0.11368683772E-12  0.17120000000E+03  0.17120000000E+03 0.  0.
         13    1    1    2    0    0 -0.18768915955E+02 -0.12903041998E+02  0.79002300040E+01  0.24107789137E+02  0.10566000000E+00 0.  1.
        994    1    1    2    0    0  0.15930379510E+02  0.16159176060E+02  0.18761140409E+02  0.17371331656E+03  0.17120000000E+03 0.  0.
        998    1    1    2    0    0  0.28385364444E+01 -0.32561340620E+01  0.14733386259E+04  0.14733788943E+04  0.10000000000E+02 0.  1.
</event>
<event>
 5    1  0.1141915E-008  0.3739036E+03  0.7957747E-01  0.3478141E+00
         13   -1    0    0    0    0  0.00000000000E+00  0.00000000000E+00  0.14999999963E+04  0.15000000000E+04  0.10566000000E+00 0. -1.
        994   -1    0    0    0    0 -0.00000000000E+00 -0.00000000000E+00  0.11368683772E-12  0.17120000000E+03  0.17120000000E+03 0.  0.
         13    1    1    2    0    0 -0.51933090216E+01 -0.69785174005E+02  0.34742236384E+03  0.35439984626E+03  0.10566000000E+00 0. -1.
        994    1    1    2    0    0  0.60282292138E-01  0.35798460041E+02  0.11627751360E+02  0.17528884156E+03  0.17120000000E+03 0.  0.
        998    1    1    2    0    0  0.51330267295E+01  0.33986713964E+02  0.11409498811E+04  0.11415113122E+04  0.10000000000E+02 0. -1.
</event>
<event>
 5    1  0.1141915E-008  0.3836686E+03  0.7957747E-01  0.3435338E+00
         13   -1    0    0    0    0  0.00000000000E+00  0.00000000000E+00  0.14999999963E+04  0.15000000000E+04  0.10566000000E+00 0. -1.
        994   -1    0    0    0    0 -0.00000000000E+00 -0.00000000000E+00  0.11368683772E-12  0.17120000000E+03  0.17120000000E+03 0.  0.
         13    1    1    2    0    0  0.13820577424E+02  0.85070088994E+01  0.61601677206E+02  0.63703652638E+02  0.10566000000E+00 0. -1.
        994    1    1    2    0    0  0.61713568510E+00  0.71392031206E+01  0.24621953744E+01  0.17136759170E+03  0.17120000000E+03 0.  0.
        998    1    1    2    0    0 -0.14437713109E+02 -0.15646212020E+02  0.14359361237E+04  0.14361287557E+04  0.10000000000E+02 0. -1.
</event>
<event>
 5    1  0.1141915E-008  0.3844412E+03  0.7957747E-01  0.3432046E+00
         13   -1    0    0    0    0  0.00000000000E+00  0.00000000000E+00  0.14999999963E+04  0.15000000000E+04  0.10566000000E+00 0.  1.
        994   -1    0    0    0    0 -0.00000000000E+00 -0.00000000000E+00  0.11368683772E-12  0.17120000000E+03  0.17120000000E+03 0.  0.
         13    1    1    2    0    0  0.13101070066E+02 -0.10208276213E+02  0.71616617877E+02  0.73517331700E+02  0.10566000000E+00 0.  1.
        994    1    1    2    0    0 -0.89882490205E+01  0.76148476375E+01  0.23651806763E+01  0.17162111934E+03  0.17120000000E+03 0.  0.
        998    1    1    2    0    0 -0.41128210456E+01  0.25934285759E+01  0.14260181977E+04  0.14260615490E+04  0.10000000000E+02 0.  1.
</event>
<event>
 5    1  0.1141915E-008  0.3805476E+03  0.7957747E-01  0.3448778E+00
         13   -1    0    0    0    0  0.00000000000E+00  0.00000000000E+00  0.14999999963E+04  0.15000000000E+04  0.10566000000E+00 0.  1.
        994   -1    0    0    0    0 -0.00000000000E+00 -0.00000000000E+00  0.11368683772E-12  0.17120000000E+03  0.17120000000E+03 0.  0.
         13    1    1    2    0    0 -0.16103242639E+02  0.11752109948E+02  0.49899871409E+02  0.53734856865E+02  0.10566000000E+00 0.  1.
        994    1    1    2    0    0  0.11843129185E+02 -0.76669081876E+01  0.45214414348E+01  0.17183982258E+03  0.17120000000E+03 0.  0.
        998    1    1    2    0    0  0.42601134542E+01 -0.40852017604E+01  0.14455786834E+04  0.14456253206E+04  0.10000000000E+02 0.  1.
</event>
<event>
 5    1  0.1141915E-008  0.3918162E+03  0.7957747E-01  0.3401268E+00
         13   -1    0    0    0    0  0.00000000000E+00  0.00000000000E+00  0.14999999963E+04  0.15000000000E+04  0.10566000000E+00 0.  1.
        994   -1    0    0    0    0 -0.00000000000E+00 -0.00000000000E+00  0.11368683772E-12  0.17120000000E+03  0.17120000000E+03 0.  0.
         13    1    1    2    0    0 -0.57845415044E+02  0.69562518478E+02  0.15883470380E+03  0.18279362766E+03  0.10566000000E+00 0.  1.
        994    1    1    2    0    0  0.39243328524E+02 -0.72597615270E+02  0.49270113955E+02  0.19633501141E+03  0.17120000000E+03 0.  0.
        998    1    1    2    0    0  0.18602086519E+02  0.30350967920E+01  0.12918951785E+04  0.12920713609E+04  0.10000000000E+02 0.  1.
</event>
<event>
 5    1  0.1141915E-008  0.3854227E+03  0.7957747E-01  0.3427882E+00
         13   -1    0    0    0    0  0.00000000000E+00  0.00000000000E+00  0.14999999963E+04  0.15000000000E+04  0.10566000000E+00 0. -1.
        994   -1    0    0    0    0 -0.00000000000E+00 -0.00000000000E+00  0.11368683772E-12  0.17120000000E+03  0.17120000000E+03 0.  0.
         13    1    1    2    0    0 -0.53182185814E+01 -0.86124259370E+01  0.36103147326E+02  0.37495409589E+02  0.10566000000E+00 0. -1.
        994    1    1    2    0    0  0.75916348443E+01  0.33456638198E+01  0.16465058506E+01  0.17140880190E+03  0.17120000000E+03 0.  0.
        998    1    1    2    0    0 -0.22734162630E+01  0.52667621171E+01  0.14622503431E+04  0.14622957885E+04  0.10000000000E+02 0. -1.
</event>
<event>
 5    1  0.1310720E-008  0.3856111E+03  0.7957747E-01  0.3427085E+00
         13   -1    0    0    0    0  0.00000000000E+00  0.00000000000E+00  0.14999999963E+04  0.15000000000E+04  0.10566000000E+00 0. -1.
        994   -1    0    0    0    0 -0.00000000000E+00 -0.00000000000E+00  0.11368683772E-12  0.17120000000E+03  0.17120000000E+03 0.  0.
         13    1    1    2    0    0  0.46091796520E+01  0.91224340713E+01  0.38961663345E+02  0.40280090803E+02  0.10566000000E+00 0. -1.
        994    1    1    2    0    0 -0.29715015539E+01 -0.92446562460E+01  0.16365863824E+01  0.17148297847E+03  0.17120000000E+03 0.  0.
        998    1    1    2    0    0 -0.16376780981E+01  0.12222217472E+00  0.14594017466E+04  0.14594369307E+04  0.10000000000E+02 0. -1.
</event>
<event>
 5    1  0.1141915E-008  0.3829511E+03  0.7957747E-01  0.3438409E+00
         13   -1    0    0    0    0  0.00000000000E+00  0.00000000000E+00  0.14999999963E+04  0.15000000000E+04  0.10566000000E+00 0. -1.
        994   -1    0    0    0    0 -0.00000000000E+00 -0.00000000000E+00  0.11368683772E-12  0.17120000000E+03  0.17120000000E+03 0.  0.
         13    1    1    2    0    0  0.17925250861E+02 -0.16058944166E+02  0.11448097701E+03  0.11698337304E+03  0.10566000000E+00 0. -1.
        994    1    1    2    0    0 -0.56929654060E+01  0.38714039867E+01  0.28077401404E+01  0.17136137554E+03  0.17120000000E+03 0.  0.
        998    1    1    2    0    0 -0.12232285455E+02  0.12187540180E+02  0.13827112791E+04  0.13828552514E+04  0.10000000000E+02 0. -1.
</event>
<event>
 5    1  0.1141915E-008  0.3833321E+03  0.7957747E-01  0.3436777E+00
         13   -1    0    0    0    0  0.00000000000E+00  0.00000000000E+00  0.14999999963E+04  0.15000000000E+04  0.10566000000E+00 0. -1.
        994   -1    0    0    0    0 -0.00000000000E+00 -0.00000000000E+00  0.11368683772E-12  0.17120000000E+03  0.17120000000E+03 0.  0.
         13    1    1    2    0    0 -0.14758939187E+02  0.16660374748E+02  0.98812648526E+02  0.10128842503E+03  0.10566000000E+00 0. -1.
        994    1    1    2    0    0  0.37243084453E+01 -0.17858783204E+02  0.35616949902E+01  0.17220607504E+03  0.17120000000E+03 0.  0.
        998    1    1    2    0    0  0.11034630741E+02  0.11984084563E+01  0.13976256528E+04  0.13977054999E+04  0.10000000000E+02 0. -1.
</event>
<event>
 5    1  0.1141915E-008  0.3833031E+03  0.7957747E-01  0.3436901E+00
         13   -1    0    0    0    0  0.00000000000E+00  0.00000000000E+00  0.14999999963E+04  0.15000000000E+04  0.10566000000E+00 0.  1.
        994   -1    0    0    0    0 -0.00000000000E+00 -0.00000000000E+00  0.11368683772E-12  0.17120000000E+03  0.17120000000E+03 0.  0.
         13    1    1    2    0    0  0.10331998348E+01  0.17396143698E+02  0.65803063040E+02  0.68071635701E+02  0.10566000000E+00 0.  1.
        994    1    1    2    0    0  0.69002987442E+01  0.34488574603E+01  0.26717676596E+01  0.17139453633E+03  0.17120000000E+03 0.  0.
        998    1    1    2    0    0 -0.79334985790E+01 -0.20845001158E+02  0.14315251656E+04  0.14317338280E+04  0.10000000000E+02 0.  1.
</event>
<event>
 5    1  0.1141915E-008  0.3808533E+03  0.7957747E-01  0.3447451E+00
         13   -1    0    0    0    0  0.00000000000E+00  0.00000000000E+00  0.14999999963E+04  0.15000000000E+04  0.10566000000E+00 0.  1.
        994   -1    0    0    0    0 -0.00000000000E+00 -0.00000000000E+00  0.11368683772E-12  0.17120000000E+03  0.17120000000E+03 0.  0.
         13    1    1    2    0    0 -0.22036759370E+02  0.11208244754E+02  0.11115874313E+02  0.27107514452E+02  0.10566000000E+00 0.  1.
        994    1    1    2    0    0  0.19683807905E+02  0.66405160965E+01  0.18366892122E+02  0.17343105683E+03  0.17120000000E+03 0.  0.
        998    1    1    2    0    0  0.23529514653E+01 -0.17848760850E+02  0.14705172298E+04  0.14706614287E+04  0.10000000000E+02 0.  1.
</event>
<event>
 5    1  0.1141915E-008  0.3738840E+03  0.7957747E-01  0.3478229E+00
         13   -1    0    0    0    0  0.00000000000E+00  0.00000000000E+00  0.14999999963E+04  0.15000000000E+04  0.10566000000E+00 0.  1.
        994   -1    0    0    0    0 -0.00000000000E+00 -0.00000000000E+00  0.11368683772E-12  0.17120000000E+03  0.17120000000E+03 0.  0.
         13    1    1    2    0    0 -0.15745723645E+02  0.36423260573E+02  0.54013731913E+02  0.67022952211E+02  0.10566000000E+00 0.  1.
        994    1    1    2    0    0  0.18307309594E+02 -0.33668729005E+02  0.18231024454E+02  0.17638183339E+03  0.17120000000E+03 0.  0.
        998    1    1    2    0    0 -0.25615859489E+01 -0.27545315673E+01  0.14277552399E+04  0.14277952144E+04  0.10000000000E+02 0.  0.
</event>
<event>
 5    1  0.1141915E-008  0.3830133E+03  0.7957747E-01  0.3438142E+00
         13   -1    0    0    0    0  0.00000000000E+00  0.00000000000E+00  0.14999999963E+04  0.15000000000E+04  0.10566000000E+00 0. -1.
        994   -1    0    0    0    0 -0.00000000000E+00 -0.00000000000E+00  0.11368683772E-12  0.17120000000E+03  0.17120000000E+03 0.  0.
         13    1    1    2    0    0 -0.20500841290E+02  0.25616765428E+02  0.18141732066E+03  0.18436040400E+03  0.10566000000E+00 0. -1.
        994    1    1    2    0    0  0.26205992896E+02 -0.22052570710E+02  0.65122520931E+01  0.17471382134E+03  0.17120000000E+03 0.  0.
        998    1    1    2    0    0 -0.57051516065E+01 -0.35641947178E+01  0.13120704235E+04  0.13121257747E+04  0.10000000000E+02 0. -1.
</event>
<event>
 5    1  0.1141915E-008  0.3859909E+03  0.7957747E-01  0.3425481E+00
         13   -1    0    0    0    0  0.00000000000E+00  0.00000000000E+00  0.14999999963E+04  0.15000000000E+04  0.10566000000E+00 0.  1.
        994   -1    0    0    0    0 -0.00000000000E+00 -0.00000000000E+00  0.11368683772E-12  0.17120000000E+03  0.17120000000E+03 0.  0.
         13    1    1    2    0    0  0.95655391302E+01  0.75487118802E+01  0.62990256239E+02  0.64158133818E+02  0.10566000000E+00 0.  1.
        994    1    1    2    0    0 -0.15400206657E+02 -0.37489025291E+01  0.19629518740E+01  0.17194334478E+03  0.17120000000E+03 0.  0.
        998    1    1    2    0    0  0.58346675263E+01 -0.37998093511E+01  0.14350467882E+04  0.14350985214E+04  0.10000000000E+02 0.  1.
</event>
<event>
 5    1  0.1141915E-008  0.3746020E+03  0.7957747E-01  0.3475005E+00
         13   -1    0    0    0    0  0.00000000000E+00  0.00000000000E+00  0.14999999963E+04  0.15000000000E+04  0.10566000000E+00 0.  1.
        994   -1    0    0    0    0 -0.00000000000E+00 -0.00000000000E+00  0.11368683772E-12  0.17120000000E+03  0.17120000000E+03 0.  0.
         13    1    1    2    0    0 -0.22530106830E+02 -0.30311402000E+01  0.32721128073E+02  0.39843153880E+02  0.10566000000E+00 0.  1.
        994    1    1    2    0    0  0.36271994343E+02  0.89957101286E+01  0.11651741895E+02  0.17561828909E+03  0.17120000000E+03 0.  0.
        998    1    1    2    0    0 -0.13741887513E+02 -0.59645699286E+01  0.14556271263E+04  0.14557385570E+04  0.10000000000E+02 0.  1.
</event>
<event>
 5    1  0.1141915E-008  0.3751855E+03  0.7957747E-01  0.3472394E+00
         13   -1    0    0    0    0  0.00000000000E+00  0.00000000000E+00  0.14999999963E+04  0.15000000000E+04  0.10566000000E+00 0. -1.
        994   -1    0    0    0    0 -0.00000000000E+00 -0.00000000000E+00  0.11368683772E-12  0.17120000000E+03  0.17120000000E+03 0.  0.
         13    1    1    2    0    0 -0.83636965129E+02  0.25258739010E+01  0.35251671125E+03  0.36231141971E+03  0.10566000000E+00 0. -1.
        994    1    1    2    0    0  0.10111682448E+03  0.26074489270E+02  0.44578489495E+02  0.20542924064E+03  0.17120000000E+03 0.  0.
        998    1    1    2    0    0 -0.17479859355E+02 -0.28600363171E+02  0.11029047955E+04  0.11034593397E+04  0.10000000000E+02 0. -1.
</event>
<event>
 5    1  0.1141915E-008  0.3765737E+03  0.7957747E-01  0.3466214E+00
         13   -1    0    0    0    0  0.00000000000E+00  0.00000000000E+00  0.14999999963E+04  0.15000000000E+04  0.10566000000E+00 0. -1.
        994   -1    0    0    0    0 -0.00000000000E+00 -0.00000000000E+00  0.11368683772E-12  0.17120000000E+03  0.17120000000E+03 0.  0.
         13    1    1    2    0    0  0.25689033517E+02  0.14469219680E+02  0.71598654010E+02  0.77431667819E+02  0.10566000000E+00 0. -1.
        994    1    1    2    0    0 -0.21556039834E+02 -0.14402433940E+01  0.74525457308E+01  0.17271860812E+03  0.17120000000E+03 0.  0.
        998    1    1    2    0    0 -0.41329936829E+01 -0.13028976286E+02  0.14209487965E+04  0.14210497241E+04  0.10000000000E+02 0. -1.
</event>
<event>
 5    1  0.1141915E-008  0.3725079E+03  0.7957747E-01  0.3484444E+00
         13   -1    0    0    0    0  0.00000000000E+00  0.00000000000E+00  0.14999999963E+04  0.15000000000E+04  0.10566000000E+00 0.  1.
        994   -1    0    0    0    0 -0.00000000000E+00 -0.00000000000E+00  0.11368683772E-12  0.17120000000E+03  0.17120000000E+03 0.  0.
         13    1    1    2    0    0  0.21753002540E+02  0.61495578764E+02  0.36842175319E+03  0.37415170548E+03  0.10566000000E+00 0.  1.
        994    1    1    2    0    0 -0.13979060244E+02  0.65746644995E+01  0.87825332069E+01  0.17211976420E+03  0.17120000000E+03 0.  0.
        998    1    1    2    0    0 -0.77739422963E+01 -0.68070243264E+02  0.11227957099E+04  0.11249285303E+04  0.10000000000E+02 0.  1.
</event>
<event>
 5    1  0.1141915E-008  0.3858837E+03  0.7957747E-01  0.3425933E+00
         13   -1    0    0    0    0  0.00000000000E+00  0.00000000000E+00  0.14999999963E+04  0.15000000000E+04  0.10566000000E+00 0. -1.
        994   -1    0    0    0    0 -0.00000000000E+00 -0.00000000000E+00  0.11368683772E-12  0.17120000000E+03  0.17120000000E+03 0.  0.
         13    1    1    2    0    0  0.11196945076E+02 -0.85703247594E+01  0.81692066646E+02  0.82900102306E+02  0.10566000000E+00 0. -1.
        994    1    1    2    0    0 -0.93237220684E+01  0.90585987563E+01  0.17463684473E+01  0.17170171754E+03  0.17120000000E+03 0.  0.
        998    1    1    2    0    0 -0.18732230075E+01 -0.48827399685E+00  0.14165615612E+04  0.14165981802E+04  0.10000000000E+02 0.  0.
</event>
<event>
 5    1  0.1141915E-008  0.3860836E+03  0.7957747E-01  0.3425089E+00
         13   -1    0    0    0    0  0.00000000000E+00  0.00000000000E+00  0.14999999963E+04  0.15000000000E+04  0.10566000000E+00 0.  1.
        994   -1    0    0    0    0 -0.00000000000E+00 -0.00000000000E+00  0.11368683772E-12  0.17120000000E+03  0.17120000000E+03 0.  0.
         13    1    1    2    0    0  0.11460885822E+01 -0.11349587962E+02  0.57925609921E+02  0.59038242815E+02  0.10566000000E+00 0.  1.
        994    1    1    2    0    0  0.29237371657E+01  0.13634344406E+02  0.17305675783E+01  0.17177566315E+03  0.17120000000E+03 0.  0.
        998    1    1    2    0    0 -0.40698257480E+01 -0.22847564443E+01  0.14403438188E+04  0.14403860940E+04  0.10000000000E+02 0.  1.
</event>
<event>
 5    1  0.1141915E-008  0.3848201E+03  0.7957747E-01  0.3430436E+00
         13   -1    0    0    0    0  0.00000000000E+00  0.00000000000E+00  0.14999999963E+04  0.15000000000E+04  0.10566000000E+00 0. -1.
        994   -1    0    0    0    0 -0.00000000000E+00 -0.00000000000E+00  0.11368683772E-12  0.17120000000E+03  0.17120000000E+03 0.  0.
         13    1    1    2    0    0  0.17215335319E+02  0.12227935134E+01  0.93888746095E+02  0.95461881405E+02  0.10566000000E+00 0. -1.
        994    1    1    2    0    0  0.47081285835E+00 -0.25381134141E+02  0.38428807209E+01  0.17311450363E+03  0.17120000000E+03 0.  0.
        998    1    1    2    0    0 -0.17686148178E+02  0.24158340627E+02  0.14022683695E+04  0.14026236150E+04  0.10000000000E+02 0. -1.
</event>
<event>
 5    1  0.1141915E-008  0.3826814E+03  0.7957747E-01  0.3439566E+00
         13   -1    0    0    0    0  0.00000000000E+00  0.00000000000E+00  0.14999999963E+04  0.15000000000E+04  0.10566000000E+00 0.  1.
        994   -1    0    0    0    0 -0.00000000000E+00 -0.00000000000E+00  0.11368683772E-12  0.17120000000E+03  0.17120000000E+03 0.  0.
         13    1    1    2    0    0 -0.20440413343E+02  0.35474622379E+01  0.72410780787E+02  0.75324148347E+02  0.10566000000E+00 0.  1.
        994    1    1    2    0    0  0.21576170579E+02 -0.13756903312E+02  0.49583672112E+01  0.17317277191E+03  0.17120000000E+03 0.  0.
        998    1    1    2    0    0 -0.11357572367E+01  0.10209441074E+02  0.14226308483E+04  0.14227030797E+04  0.10000000000E+02 0.  1.
</event>
<event>
 5    1  0.1141915E-008  0.3799608E+03  0.7957747E-01  0.3451329E+00
         13   -1    0    0    0    0  0.00000000000E+00  0.00000000000E+00  0.14999999963E+04  0.15000000000E+04  0.10566000000E+00 0. -1.
        994   -1    0    0    0    0 -0.00000000000E+00 -0.00000000000E+00  0.11368683772E-12  0.17120000000E+03  0.17120000000E+03 0.  0.
         13    1    1    2    0    0  0.11811570793E+02 -0.45042330259E+02  0.22617269334E+03  0.23091648511E+03  0.10566000000E+00 0. -1.
        994    1    1    2    0    0 -0.12597208734E+02  0.42746222572E+02  0.10821342946E+02  0.17723563602E+03  0.17120000000E+03 0.  0.
        998    1    1    2    0    0  0.78563794158E+00  0.22961076871E+01  0.12630059600E+04  0.12630478789E+04  0.10000000000E+02 0.  0.
</event>
<event>
 5    1  0.1141915E-008  0.3793539E+03  0.7957747E-01  0.3453976E+00
         13   -1    0    0    0    0  0.00000000000E+00  0.00000000000E+00  0.14999999963E+04  0.15000000000E+04  0.10566000000E+00 0. -1.
        994   -1    0    0    0    0 -0.00000000000E+00 -0.00000000000E+00  0.11368683772E-12  0.17120000000E+03  0.17120000000E+03 0.  0.
         13    1    1    2    0    0 -0.12093526814E+02 -0.89514376135E+01  0.23281037034E+02  0.27720019401E+02  0.10566000000E+00 0. -1.
        994    1    1    2    0    0  0.10951625630E+02  0.94627641968E+01  0.51617229160E+01  0.17188823518E+03  0.17120000000E+03 0.  0.
        998    1    1    2    0    0  0.11419011837E+01 -0.51132658329E+00  0.14715572363E+04  0.14715917454E+04  0.10000000000E+02 0.  0.
</event>
<event>
 5    1  0.1141915E-008  0.3774860E+03  0.7957747E-01  0.3462178E+00
         13   -1    0    0    0    0  0.00000000000E+00  0.00000000000E+00  0.14999999963E+04  0.15000000000E+04  0.10566000000E+00 0. -1.
        994   -1    0    0    0    0 -0.00000000000E+00 -0.00000000000E+00  0.11368683772E-12  0.17120000000E+03  0.17120000000E+03 0.  0.
         13    1    1    2    0    0  0.32192655257E+02 -0.11633613932E+02  0.10947202590E+03  0.11469892608E+03  0.10566000000E+00 0. -1.
        994    1    1    2    0    0 -0.19057143398E+02 -0.86008675107E+01  0.68825848540E+01  0.17260926861E+03  0.17120000000E+03 0.  0.
        998    1    1    2    0    0 -0.13135511859E+02  0.20234481442E+02  0.13836453855E+04  0.13838918053E+04  0.10000000000E+02 0. -1.
</event>
<event>
 5    1  0.1141915E-008  0.3695206E+03  0.7957747E-01  0.3498097E+00
         13   -1    0    0    0    0  0.00000000000E+00  0.00000000000E+00  0.14999999963E+04  0.15000000000E+04  0.10566000000E+00 0.  1.
        994   -1    0    0    0    0 -0.00000000000E+00 -0.00000000000E+00  0.11368683772E-12  0.17120000000E+03  0.17120000000E+03 0.  0.
         13    1    1    2    0    0 -0.55114396519E+02  0.94629603245E+02  0.41837720754E+03  0.43247179962E+03  0.10566000000E+00 0.  1.
        994    1    1    2    0    0  0.52573058729E+02 -0.87449314522E+02  0.47961365473E+02  0.20499034536E+03  0.17120000000E+03 0.  0.
        998    1    1    2    0    0  0.25413377904E+01 -0.71802887224E+01  0.10336614233E+04  0.10337378550E+04  0.10000000000E+02 0.  0.
</event>
<event>
 5    1  0.1141915E-008  0.3859397E+03  0.7957747E-01  0.3425697E+00
         13   -1    0    0    0    0  0.00000000000E+00  0.00000000000E+00  0.14999999963E+04  0.15000000000E+04  0.10566000000E+00 0. -1.
        994   -1    0    0    0    0 -0.00000000000E+00 -0.00000000000E+00  0.11368683772E-12  0.17120000000E+03  0.17120000000E+03 0.  0.
         13    1    1    2    0    0 -0.12820199958E+02 -0.79316368010E+01  0.78032100750E+02  0.79475079747E+02  0.10566000000E+00 0. -1.
        994    1    1    2    0    0  0.25257549029E+02  0.35756716695E+02  0.74731810944E+01  0.17686654576E+03  0.17120000000E+03 0.  0.
        998    1    1    2    0    0 -0.12437349072E+02 -0.27825079894E+02  0.14144947144E+04  0.14148583745E+04  0.10000000000E+02 0. -1.
</event>
<event>
 5    1  0.1558405E-008  0.3861565E+03  0.7957747E-01  0.3424782E+00
         13   -1    0    0    0    0  0.00000000000E+00  0.00000000000E+00  0.14999999963E+04  0.15000000000E+04  0.10566000000E+00 0. -1.
        994   -1    0    0    0    0 -0.00000000000E+00 -0.00000000000E+00  0.11368683772E-12  0.17120000000E+03  0.17120000000E+03 0.  0.
         13    1    1    2    0    0 -0.94049900882E+01  0.59029991000E+01  0.56170415761E+02  0.57257541056E+02  0.10566000000E+00 0. -1.
        994    1    1    2    0    0  0.13800901397E+02 -0.56636067687E+01  0.17865164283E+01  0.17185800232E+03  0.17120000000E+03 0.  0.
        998    1    1    2    0    0 -0.43959113091E+01 -0.23939233127E+00  0.14420430641E+04  0.14420844566E+04  0.10000000000E+02 0. -1.
</event>
<event>
 5    1  0.1141915E-008  0.3797368E+03  0.7957747E-01  0.3452306E+00
         13   -1    0    0    0    0  0.00000000000E+00  0.00000000000E+00  0.14999999963E+04  0.15000000000E+04  0.10566000000E+00 0. -1.
        994   -1    0    0    0    0 -0.00000000000E+00 -0.00000000000E+00  0.11368683772E-12  0.17120000000E+03  0.17120000000E+03 0.  0.
         13    1    1    2    0    0  0.11296317044E+02  0.11461469946E+02  0.28184467258E+02  0.32455314368E+02  0.10566000000E+00 0. -1.
        994    1    1    2    0    0 -0.15467595847E+02 -0.77450151910E+01  0.52679012956E+01  0.17215232373E+03  0.17120000000E+03 0.  0.
        998    1    1    2    0    0  0.41712788035E+01 -0.37164547550E+01  0.14665476277E+04  0.14665923619E+04  0.10000000000E+02 0. -1.
</event>
<event>
 5    1  0.1141915E-008  0.3758687E+03  0.7957747E-01  0.3469347E+00
         13   -1    0    0    0    0  0.00000000000E+00  0.00000000000E+00  0.14999999963E+04  0.15000000000E+04  0.10566000000E+00 0.  1.
        994   -1    0    0    0    0 -0.00000000000E+00 -0.00000000000E+00  0.11368683772E-12  0.17120000000E+03  0.17120000000E+03 0.  0.
         13    1    1    2    0    0  0.28202054466E+02  0.44108641193E+01  0.61877989772E+02  0.68144760478E+02  0.10566000000E+00 0.  1.
        994    1    1    2    0    0 -0.22210615335E+02 -0.96920288329E+01  0.82261967455E+01  0.17310215819E+03  0.17120000000E+03 0.  0.
        998    1    1    2    0    0 -0.59914391310E+01  0.52811647136E+01  0.14298958098E+04  0.14299530813E+04  0.10000000000E+02 0.  1.
</event>
<event>
 5    1  0.1141915E-008  0.3850751E+03  0.7957747E-01  0.3429354E+00
         13   -1    0    0    0    0  0.00000000000E+00  0.00000000000E+00  0.14999999963E+04  0.15000000000E+04  0.10566000000E+00 0.  1.
        994   -1    0    0    0    0 -0.00000000000E+00 -0.00000000000E+00  0.11368683772E-12  0.17120000000E+03  0.17120000000E+03 0.  0.
         13    1    1    2    0    0  0.11090270461E+02  0.38051975275E+01  0.42412995116E+02  0.44003942390E+02  0.10566000000E+00 0.  1.
        994    1    1    2    0    0 -0.96897807850E+01 -0.53810411021E+01  0.19968492239E+01  0.17157002903E+03  0.17120000000E+03 0.  0.
        998    1    1    2    0    0 -0.14004896759E+01  0.15758435745E+01  0.14555901519E+04  0.14556260286E+04  0.10000000000E+02 0.  1.
</event>
<event>
 5    1  0.1141915E-008  0.3785933E+03  0.7957747E-01  0.3457307E+00
         13   -1    0    0    0    0  0.00000000000E+00  0.00000000000E+00  0.14999999963E+04  0.15000000000E+04  0.10566000000E+00 0. -1.
        994   -1    0    0    0    0 -0.00000000000E+00 -0.00000000000E+00  0.11368683772E-12  0.17120000000E+03  0.17120000000E+03 0.  0.
         13    1    1    2    0    0  0.16337486013E+02  0.44956881362E+01  0.27034009812E+02  0.31905697166E+02  0.10566000000E+00 0. -1.
        994    1    1    2    0    0 -0.19567875083E+02 -0.25962741554E+01  0.61546412862E+01  0.17244408364E+03  0.17120000000E+03 0.  0.
        998    1    1    2    0    0  0.32303890698E+01 -0.18994139808E+01  0.14668113452E+04  0.14668502192E+04  0.10000000000E+02 0. -1.
</event>
<event>
 5    1  0.1141915E-008  0.3769381E+03  0.7957747E-01  0.3464600E+00
         13   -1    0    0    0    0  0.00000000000E+00  0.00000000000E+00  0.14999999963E+04  0.15000000000E+04  0.10566000000E+00 0. -1.
        994   -1    0    0    0    0 -0.00000000000E+00 -0.00000000000E+00  0.11368683772E-12  0.17120000000E+03  0.17120000000E+03 0.  0.
         13    1    1    2    0    0 -0.62806303123E+01 -0.77332743511E+02  0.40587397828E+03  0.41322330155E+03  0.10566000000E+00 0. -1.
        994    1    1    2    0    0  0.45466640363E+02  0.71798782845E+02  0.30480078408E+02  0.19354781266E+03  0.17120000000E+03 0.  0.
        998    1    1    2    0    0 -0.39186010051E+02  0.55339606660E+01  0.10636459396E+04  0.10644288858E+04  0.10000000000E+02 0. -1.
</event>
<event>
 5    1  0.1141915E-008  0.4245393E+03  0.7957747E-01  0.3277542E+00
         13   -1    0    0    0    0  0.00000000000E+00  0.00000000000E+00  0.14999999963E+04  0.15000000000E+04  0.10566000000E+00 0.  1.
        994   -1    0    0    0    0 -0.00000000000E+00 -0.00000000000E+00  0.11368683772E-12  0.17120000000E+03  0.17120000000E+03 0.  0.
         13    1    1    2    0    0 -0.16114955253E+02  0.10721708976E+03  0.11523643788E+03  0.15822339870E+03  0.10566000000E+00 0.  1.
        994    1    1    2    0    0  0.86822501746E+01 -0.10437049218E+03  0.93077178985E+02  0.22122699282E+03  0.17120000000E+03 0.  0.
        998    1    1    2    0    0  0.74327050785E+01 -0.28465975737E+01  0.12916863794E+04  0.12917496085E+04  0.10000000000E+02 0.  1.
</event>
<event>
 5    1  0.1141915E-008  0.3824297E+03  0.7957747E-01  0.3440647E+00
         13   -1    0    0    0    0  0.00000000000E+00  0.00000000000E+00  0.14999999963E+04  0.15000000000E+04  0.10566000000E+00 0. -1.
        994   -1    0    0    0    0 -0.00000000000E+00 -0.00000000000E+00  0.11368683772E-12  0.17120000000E+03  0.17120000000E+03 0.  0.
         13    1    1    2    0    0 -0.54222420259E+01 -0.12689014342E+02  0.36406808605E+02  0.38934286566E+02  0.10566000000E+00 0. -1.
        994    1    1    2    0    0 -0.31094262080E+02 -0.16180137332E+02  0.69969400729E+01  0.17489152967E+03  0.17120000000E+03 0.  0.
        998    1    1    2    0    0  0.36516504105E+02  0.28869151674E+02  0.14565962476E+04  0.14573741838E+04  0.10000000000E+02 0. -1.
</event>
<event>
 5    1  0.1141915E-008  0.3775070E+03  0.7957747E-01  0.3462086E+00
         13   -1    0    0    0    0  0.00000000000E+00  0.00000000000E+00  0.14999999963E+04  0.15000000000E+04  0.10566000000E+00 0.  1.
        994   -1    0    0    0    0 -0.00000000000E+00 -0.00000000000E+00  0.11368683772E-12  0.17120000000E+03  0.17120000000E+03 0.  0.
         13    1    1    2    0    0  0.79021706912E-01  0.40935430574E+02  0.17861625352E+03  0.18324708157E+03  0.10566000000E+00 0.  1.
        994    1    1    2    0    0 -0.17852423821E+02 -0.12658063993E+00  0.64719590470E+01  0.17224996753E+03  0.17120000000E+03 0.  0.
        998    1    1    2    0    0  0.17773402114E+02 -0.40808849934E+02  0.13149117837E+04  0.13157029509E+04  0.10000000000E+02 0.  1.
</event>
<event>
 5    1  0.1141915E-008  0.3903580E+03  0.7957747E-01  0.3407261E+00
         13   -1    0    0    0    0  0.00000000000E+00  0.00000000000E+00  0.14999999963E+04  0.15000000000E+04  0.10566000000E+00 0. -1.
        994   -1    0    0    0    0 -0.00000000000E+00 -0.00000000000E+00  0.11368683772E-12  0.17120000000E+03  0.17120000000E+03 0.  0.
         13    1    1    2    0    0 -0.71065243510E+02  0.78205512025E+02  0.23305308582E+03  0.25589084180E+03  0.10566000000E+00 0. -1.
        994    1    1    2    0    0  0.77941558804E+02 -0.36226207346E+02  0.50541279923E+02  0.19811886751E+03  0.17120000000E+03 0.  0.
        998    1    1    2    0    0 -0.68763152940E+01 -0.41979304679E+02  0.12164056305E+04  0.12171902907E+04  0.10000000000E+02 0. -1.
</event>
<event>
 5    1  0.1141915E-008  0.3842155E+03  0.7957747E-01  0.3433006E+00
         13   -1    0    0    0    0  0.00000000000E+00  0.00000000000E+00  0.14999999963E+04  0.15000000000E+04  0.10566000000E+00 0. -1.
        994   -1    0    0    0    0 -0.00000000000E+00 -0.00000000000E+00  0.11368683772E-12  0.17120000000E+03  0.17120000000E+03 0.  0.
         13    1    1    2    0    0 -0.16661749950E+02  0.51930909809E+01  0.71799338443E+02  0.73890041753E+02  0.10566000000E+00 0. -1.
        994    1    1    2    0    0  0.20828857220E+02  0.36600752865E+01  0.34960563939E+01  0.17253666235E+03  0.17120000000E+03 0.  0.
        998    1    1    2    0    0 -0.41671072700E+01 -0.88531662674E+01  0.14247046014E+04  0.14247732959E+04  0.10000000000E+02 0. -1.
</event>
<event>
 5    1  0.1141915E-008  0.3733931E+03  0.7957747E-01  0.3480441E+00
         13   -1    0    0    0    0  0.00000000000E+00  0.00000000000E+00  0.14999999963E+04  0.15000000000E+04  0.10566000000E+00 0. -1.
        994   -1    0    0    0    0 -0.00000000000E+00 -0.00000000000E+00  0.11368683772E-12  0.17120000000E+03  0.17120000000E+03 0.  0.
         13    1    1    2    0    0 -0.17762348146E+02 -0.30740496590E+02  0.43991919694E+02  0.56531224157E+02  0.10566000000E+00 0. -1.
        994    1    1    2    0    0  0.16256036637E+02  0.24666775811E+02  0.15838168325E+02  0.17445055498E+03  0.17120000000E+03 0.  0.
        998    1    1    2    0    0  0.15063115088E+01  0.60737207793E+01  0.14401699083E+04  0.14402182209E+04  0.10000000000E+02 0. -1.
</event>
<event>
 5    1  0.1141915E-008  0.3856524E+03  0.7957747E-01  0.3426910E+00
         13   -1    0    0    0    0  0.00000000000E+00  0.00000000000E+00  0.14999999963E+04  0.15000000000E+04  0.10566000000E+00 0. -1.
        994   -1    0    0    0    0 -0.00000000000E+00 -0.00000000000E+00  0.11368683772E-12  0.17120000000E+03  0.17120000000E+03 0.  0.
         13    1    1    2    0    0  0.14034642967E+02 -0.27176224043E+01  0.69724950386E+02  0.71175392834E+02  0.10566000000E+00 0. -1.
        994    1    1    2    0    0 -0.24402192185E+02  0.13800643820E+02  0.38899872771E+01  0.17352376423E+03  0.17120000000E+03 0.  0.
        998    1    1    2    0    0  0.10367549217E+02 -0.11083021415E+02  0.14263850586E+04  0.14265008429E+04  0.10000000000E+02 0. -1.
</event>
<event>
 5    1  0.1141915E-008  0.3836066E+03  0.7957747E-01  0.3435603E+00
         13   -1    0    0    0    0  0.00000000000E+00  0.00000000000E+00  0.14999999963E+04  0.15000000000E+04  0.10566000000E+00 0. -1.
        994   -1    0    0    0    0 -0.00000000000E+00 -0.00000000000E+00  0.11368683772E-12  0.17120000000E+03  0.17120000000E+03 0.  0.
         13    1    1    2    0    0  0.17538373480E+02 -0.17467680319E+02  0.13960406591E+03  0.14178159536E+03  0.10566000000E+00 0. -1.
        994    1    1    2    0    0 -0.31100217836E+01  0.72986870392E+01  0.25314993096E+01  0.17140242576E+03  0.17120000000E+03 0.  0.
        998    1    1    2    0    0 -0.14428351696E+02  0.10168993280E+02  0.13578644311E+04  0.13580159789E+04  0.10000000000E+02 0. -1.
</event>
<event>
 5    1  0.1141915E-008  0.3811428E+03  0.7957747E-01  0.3446198E+00
         13   -1    0    0    0    0  0.00000000000E+00  0.00000000000E+00  0.14999999963E+04  0.15000000000E+04  0.10566000000E+00 0.  1.
        994   -1    0    0    0    0 -0.00000000000E+00 -0.00000000000E+00  0.11368683772E-12  0.17120000000E+03  0.17120000000E+03 0.  0.
         13    1    1    2    0    0 -0.10562436870E+02 -0.87231065089E+00  0.14046343852E+02  0.17596503577E+02  0.10566000000E+00 0.  1.
        994    1    1    2    0    0  0.15251821986E+02 -0.15683803699E+02  0.51529190098E+01  0.17266902544E+03  0.17120000000E+03 0.  0.
        998    1    1    2    0    0 -0.46893851165E+01  0.16556114350E+02  0.14808007334E+04  0.14809344710E+04  0.10000000000E+02 0.  1.
</event>
<event>
 5    1  0.1141915E-008  0.3790951E+03  0.7957747E-01  0.3455108E+00
         13   -1    0    0    0    0  0.00000000000E+00  0.00000000000E+00  0.14999999963E+04  0.15000000000E+04  0.10566000000E+00 0. -1.
        994   -1    0    0    0    0 -0.00000000000E+00 -0.00000000000E+00  0.11368683772E-12  0.17120000000E+03  0.17120000000E+03 0.  0.
         13    1    1    2    0    0 -0.73806266456E+01 -0.19467937602E+02  0.45285351319E+02  0.49842235627E+02  0.10566000000E+00 0. -1.
        994    1    1    2    0    0  0.11992098270E+02  0.11251619736E+02  0.54977915829E+01  0.17207578296E+03  0.17120000000E+03 0.  0.
        998    1    1    2    0    0 -0.46114716247E+01  0.82163178661E+01  0.14492168534E+04  0.14492819814E+04  0.10000000000E+02 0. -1.
</event>
<event>
 5    1  0.1141915E-008  0.3728515E+03  0.7957747E-01  0.3482888E+00
         13   -1    0    0    0    0  0.00000000000E+00  0.00000000000E+00  0.14999999963E+04  0.15000000000E+04  0.10566000000E+00 0. -1.
        994   -1    0    0    0    0 -0.00000000000E+00 -0.00000000000E+00  0.11368683772E-12  0.17120000000E+03  0.17120000000E+03 0.  0.
         13    1    1    2    0    0 -0.25013999839E+02 -0.12062621464E+02  0.25517535256E+02  0.37714225355E+02  0.10566000000E+00 0. -1.
        994    1    1    2    0    0  0.29144259918E+02 -0.28494753189E+01  0.15488587331E+02  0.17437558239E+03  0.17120000000E+03 0.  0.
        998    1    1    2    0    0 -0.41302600793E+01  0.14912096783E+02  0.14589938737E+04  0.14591101923E+04  0.10000000000E+02 0. -1.
</event>
<event>
 5    1  0.1141915E-008  0.3698492E+03  0.7957747E-01  0.3496584E+00
         13   -1    0    0    0    0  0.00000000000E+00  0.00000000000E+00  0.14999999963E+04  0.15000000000E+04  0.10566000000E+00 0. -1.
        994   -1    0    0    0    0 -0.00000000000E+00 -0.00000000000E+00  0.11368683772E-12  0.17120000000E+03  0.17120000000E+03 0.  0.
         13    1    1    2    0    0 -0.11284384642E+02 -0.17727820066E+02  0.15385498534E+02  0.26044916399E+02  0.10566000000E+00 0. -1.
        994    1    1    2    0    0  0.10799510489E+02  0.19608914468E+02  0.12612090580E+02  0.17311742773E+03  0.17120000000E+03 0.  0.
        998    1    1    2    0    0  0.48487415269E+00 -0.18810944024E+01  0.14720024072E+04  0.14720376559E+04  0.10000000000E+02 0. -1.
</event>
<event>
 5    1  0.1141915E-008  0.3833626E+03  0.7957747E-01  0.3436646E+00
         13   -1    0    0    0    0  0.00000000000E+00  0.00000000000E+00  0.14999999963E+04  0.15000000000E+04  0.10566000000E+00 0.  1.
        994   -1    0    0    0    0 -0.00000000000E+00 -0.00000000000E+00  0.11368683772E-12  0.17120000000E+03  0.17120000000E+03 0.  0.
         13    1    1    2    0    0  0.12917270293E+01 -0.17752764804E+02  0.66564681565E+02  0.68903535561E+02  0.10566000000E+00 0.  1.
        994    1    1    2    0    0  0.85135730863E+01  0.52783257035E+01  0.27770670734E+01  0.17151528722E+03  0.17120000000E+03 0.  0.
        998    1    1    2    0    0 -0.98053001155E+01  0.12474439100E+02  0.14306582476E+04  0.14307811772E+04  0.10000000000E+02 0.  1.
</event>
<event>
 5    1  0.1141915E-008  0.3815070E+03  0.7957747E-01  0.3444623E+00
         13   -1    0    0    0    0  0.00000000000E+00  0.00000000000E+00  0.14999999963E+04  0.15000000000E+04  0.10566000000E+00 0.  1.
        994   -1    0    0    0    0 -0.00000000000E+00 -0.00000000000E+00  0.11368683772E-12  0.17120000000E+03  0.17120000000E+03 0.  0.
         13    1    1    2    0    0  0.50193311428E+01 -0.93825869112E+01  0.15236326481E+02  0.18584494369E+02  0.10566000000E+00 0.  1.
        994    1    1    2    0    0 -0.36103250200E+01  0.10484631043E+02  0.37834615261E+01  0.17160045605E+03  0.17120000000E+03 0.  0.
        998    1    1    2    0    0 -0.14090061228E+01 -0.11020441317E+01  0.14809802083E+04  0.14810150496E+04  0.10000000000E+02 0.  1.
</event>
<event>
 5    1  0.1141915E-008  0.3800661E+03  0.7957747E-01  0.3450871E+00
         13   -1    0    0    0    0  0.00000000000E+00  0.00000000000E+00  0.14999999963E+04  0.15000000000E+04  0.10566000000E+00 0.  1.
        994   -1    0    0    0    0 -0.00000000000E+00 -0.00000000000E+00  0.11368683772E-12  0.17120000000E+03  0.17120000000E+03 0.  0.
         13    1    1    2    0    0  0.37301465629E+02 -0.21557478775E+02  0.49653219544E+02  0.65738707048E+02  0.10566000000E+00 0.  1.
        994    1    1    2    0    0 -0.37166697393E+02  0.12031237712E+02  0.21915029073E+02  0.17696277172E+03  0.17120000000E+03 0.  0.
        998    1    1    2    0    0 -0.13476823559E+00  0.95262410632E+01  0.14284317477E+04  0.14284985212E+04  0.10000000000E+02 0.  1.
</event>
<event>
 5    1  0.1141915E-008  0.3784843E+03  0.7957747E-01  0.3457785E+00
         13   -1    0    0    0    0  0.00000000000E+00  0.00000000000E+00  0.14999999963E+04  0.15000000000E+04  0.10566000000E+00 0. -1.
        994   -1    0    0    0    0 -0.00000000000E+00 -0.00000000000E+00  0.11368683772E-12  0.17120000000E+03  0.17120000000E+03 0.  0.
         13    1    1    2    0    0 -0.11646789191E+02  0.25137851320E+02  0.80675461852E+02  0.85300061996E+02  0.10566000000E+00 0. -1.
        994    1    1    2    0    0  0.16262134049E+01 -0.49540907639E+01  0.49915533041E+01  0.17135210296E+03  0.17120000000E+03 0.  0.
        998    1    1    2    0    0  0.10020575786E+02 -0.20183760556E+02  0.14143329811E+04  0.14145478350E+04  0.10000000000E+02 0. -1.
</event>
<event>
 5    1  0.1141915E-008  0.3825941E+03  0.7957747E-01  0.3439940E+00
         13   -1    0    0    0    0  0.00000000000E+00  0.00000000000E+00  0.14999999963E+04  0.15000000000E+04  0.10566000000E+00 0.  1.
        994   -1    0    0    0    0 -0.00000000000E+00 -0.00000000000E+00  0.11368683772E-12  0.17120000000E+03  0.17120000000E+03 0.  0.
         13    1    1    2    0    0  0.36204930049E+01 -0.22995301503E+02  0.90034618069E+02  0.92995351903E+02  0.10566000000E+00 0.  1.
        994    1    1    2    0    0 -0.16667488971E+02  0.21502950965E+02  0.52865678376E+01  0.17342886117E+03  0.17120000000E+03 0.  0.
        998    1    1    2    0    0  0.13046995967E+02  0.14923505378E+01  0.14046788104E+04  0.14047757869E+04  0.10000000000E+02 0.  1.
</event>
<event>
 5    1  0.1141915E-008  0.3857960E+03  0.7957747E-01  0.3426303E+00
         13   -1    0    0    0    0  0.00000000000E+00  0.00000000000E+00  0.14999999963E+04  0.15000000000E+04  0.10566000000E+00 0.  1.
        994   -1    0    0    0    0 -0.00000000000E+00 -0.00000000000E+00  0.11368683772E-12  0.17120000000E+03  0.17120000000E+03 0.  0.
         13    1    1    2    0    0  0.33535124557E+01  0.98316996079E+01  0.43202983168E+02  0.44434415509E+02  0.10566000000E+00 0.  1.
        994    1    1    2    0    0 -0.38179774708E+01 -0.94539081086E+01  0.15764892510E+01  0.17151057882E+03  0.17120000000E+03 0.  0.
        998    1    1    2    0    0  0.46446501509E+00 -0.37779149928E+00  0.14552205239E+04  0.14552550057E+04  0.10000000000E+02 0.  0.
</event>
<event>
 5    1  0.1141915E-008  0.3758657E+03  0.7957747E-01  0.3469360E+00
         13   -1    0    0    0    0  0.00000000000E+00  0.00000000000E+00  0.14999999963E+04  0.15000000000E+04  0.10566000000E+00 0.  1.
        994   -1    0    0    0    0 -0.00000000000E+00 -0.00000000000E+00  0.11368683772E-12  0.17120000000E+03  0.17120000000E+03 0.  0.
         13    1    1    2    0    0 -0.10398199979E+02  0.39341300147E+01  0.69423666240E+01  0.13107538295E+02  0.10566000000E+00 0.  1.
        994    1    1    2    0    0  0.12065662982E+02 -0.11886216461E+02  0.72077147783E+01  0.17218668217E+03  0.17120000000E+03 0.  0.
        998    1    1    2    0    0 -0.16674630021E+01  0.79520864459E+01  0.14858499149E+04  0.14859057795E+04  0.10000000000E+02 0.  1.
</event>
<event>
 5    1  0.1141915E-008  0.3719883E+03  0.7957747E-01  0.3486803E+00
         13   -1    0    0    0    0  0.00000000000E+00  0.00000000000E+00  0.14999999963E+04  0.15000000000E+04  0.10566000000E+00 0.  1.
        994   -1    0    0    0    0 -0.00000000000E+00 -0.00000000000E+00  0.11368683772E-12  0.17120000000E+03  0.17120000000E+03 0.  0.
         13    1    1    2    0    0 -0.57302633803E+01  0.16417473605E+02  0.14583452820E+02  0.22694880881E+02  0.10566000000E+00 0.  1.
        994    1    1    2    0    0  0.93829122541E+01 -0.15405033443E+02  0.93515738928E+01  0.17240140960E+03  0.17120000000E+03 0.  0.
        998    1    1    2    0    0 -0.36526488738E+01 -0.10124401627E+01  0.14760649696E+04  0.14761037095E+04  0.10000000000E+02 0.  1.
</event>
<event>
 5    1  0.1141915E-008  0.3799371E+03  0.7957747E-01  0.3451432E+00
         13   -1    0    0    0    0  0.00000000000E+00  0.00000000000E+00  0.14999999963E+04  0.15000000000E+04  0.10566000000E+00 0.  1.
        994   -1    0    0    0    0 -0.00000000000E+00 -0.00000000000E+00  0.11368683772E-12  0.17120000000E+03  0.17120000000E+03 0.  0.
         13    1    1    2    0    0  0.18981839675E+02  0.12649136924E+01  0.41788085716E+02  0.45914763595E+02  0.10566000000E+00 0.  1.
        994    1    1    2    0    0 -0.12474207011E+02 -0.10053555023E+02  0.50236103371E+01  0.17202138376E+03  0.17120000000E+03 0.  0.
        998    1    1    2    0    0 -0.65076326644E+01  0.87886413310E+01  0.14531883002E+04  0.14532638526E+04  0.10000000000E+02 0.  1.
</event>
<event>
 5    1  0.1141915E-008  0.3825511E+03  0.7957747E-01  0.3440125E+00
         13   -1    0    0    0    0  0.00000000000E+00  0.00000000000E+00  0.14999999963E+04  0.15000000000E+04  0.10566000000E+00 0. -1.
        994   -1    0    0    0    0 -0.00000000000E+00 -0.00000000000E+00  0.11368683772E-12  0.17120000000E+03  0.17120000000E+03 0.  0.
         13    1    1    2    0    0  0.90772201283E+01  0.17399466151E+02  0.63492194247E+02  0.66456054968E+02  0.10566000000E+00 0. -1.
        994    1    1    2    0    0 -0.98069678036E+01 -0.20468464857E+02  0.45603794317E+01  0.17275813073E+03  0.17120000000E+03 0.  0.
        998    1    1    2    0    0  0.72974767535E+00  0.30689987054E+01  0.14319474226E+04  0.14319858143E+04  0.10000000000E+02 0. -1.
</event>
<event>
 5    1  0.1141915E-008  0.3766380E+03  0.7957747E-01  0.3465929E+00
         13   -1    0    0    0    0  0.00000000000E+00  0.00000000000E+00  0.14999999963E+04  0.15000000000E+04  0.10566000000E+00 0.  1.
        994   -1    0    0    0    0 -0.00000000000E+00 -0.00000000000E+00  0.11368683772E-12  0.17120000000E+03  0.17120000000E+03 0.  0.
         13    1    1    2    0    0 -0.15515050071E+00  0.26386828947E+02  0.61714290663E+02  0.67118951494E+02  0.10566000000E+00 0.  1.
        994    1    1    2    0    0  0.78086575921E+01  0.31731595928E+01  0.60801919873E+01  0.17151516787E+03  0.17120000000E+03 0.  0.
        998    1    1    2    0    0 -0.76535070914E+01 -0.29559988539E+02  0.14322055136E+04  0.14325658806E+04  0.10000000000E+02 0.  1.
</event>
<event>
 5    1  0.1141915E-008  0.3830809E+03  0.7957747E-01  0.3437852E+00
         13   -1    0    0    0    0  0.00000000000E+00  0.00000000000E+00  0.14999999963E+04  0.15000000000E+04  0.10566000000E+00 0. -1.
        994   -1    0    0    0    0 -0.00000000000E+00 -0.00000000000E+00  0.11368683772E-12  0.17120000000E+03  0.17120000000E+03 0.  0.
         13    1    1    2    0    0 -0.98145020538E+01 -0.25988853015E+01  0.18755331794E+02  0.21327266354E+02  0.10566000000E+00 0. -1.
        994    1    1    2    0    0  0.88927495201E+01  0.85502062460E+01  0.30897264935E+01  0.17167170248E+03  0.17120000000E+03 0.  0.
        998    1    1    2    0    0  0.92175253366E+00 -0.59513209445E+01  0.14781549380E+04  0.14782010312E+04  0.10000000000E+02 0. -1.
</event>
<event>
 5    1  0.1141915E-008  0.3837370E+03  0.7957747E-01  0.3435046E+00
         13   -1    0    0    0    0  0.00000000000E+00  0.00000000000E+00  0.14999999963E+04  0.15000000000E+04  0.10566000000E+00 0. -1.
        994   -1    0    0    0    0 -0.00000000000E+00 -0.00000000000E+00  0.11368683772E-12  0.17120000000E+03  0.17120000000E+03 0.  0.
         13    1    1    2    0    0  0.27376161814E+02 -0.25419838621E+01  0.14705334274E+03  0.14960151301E+03  0.10566000000E+00 0. -1.
        994    1    1    2    0    0 -0.31860902295E+02  0.42257999488E+01  0.56770209197E+01  0.17428322652E+03  0.17120000000E+03 0.  0.
        998    1    1    2    0    0  0.44847404811E+01 -0.16838160867E+01  0.13472696326E+04  0.13473152605E+04  0.10000000000E+02 0. -1.
</event>
<event>
 5    1  0.1141915E-008  0.3843448E+03  0.7957747E-01  0.3432456E+00
         13   -1    0    0    0    0  0.00000000000E+00  0.00000000000E+00  0.14999999963E+04  0.15000000000E+04  0.10566000000E+00 0. -1.
        994   -1    0    0    0    0 -0.00000000000E+00 -0.00000000000E+00  0.11368683772E-12  0.17120000000E+03  0.17120000000E+03 0.  0.
         13    1    1    2    0    0  0.29262133545E+01 -0.21197654041E+02  0.10633795330E+03  0.10846969502E+03  0.10566000000E+00 0. -1.
        994    1    1    2    0    0  0.10894028339E+02  0.28227719365E+02  0.49787453311E+01  0.17392444308E+03  0.17120000000E+03 0.  0.
        998    1    1    2    0    0 -0.13820241693E+02 -0.70300653241E+01  0.13886832976E+04  0.13888058619E+04  0.10000000000E+02 0. -1.
</event>
<event>
 5    1  0.1141915E-008  0.3790543E+03  0.7957747E-01  0.3455287E+00
         13   -1    0    0    0    0  0.00000000000E+00  0.00000000000E+00  0.14999999963E+04  0.15000000000E+04  0.10566000000E+00 0. -1.
        994   -1    0    0    0    0 -0.00000000000E+00 -0.00000000000E+00  0.11368683772E-12  0.17120000000E+03  0.17120000000E+03 0.  0.
         13    1    1    2    0    0 -0.29714954819E+01  0.70453970376E+02  0.35503532544E+03  0.36197055847E+03  0.10566000000E+00 0. -1.
        994    1    1    2    0    0  0.25261424342E+02 -0.84994362028E+02  0.31444995999E+02  0.19534689378E+03  0.17120000000E+03 0.  0.
        998    1    1    2    0    0 -0.22289928860E+02  0.14540391652E+02  0.11135196748E+04  0.11138825477E+04  0.10000000000E+02 0. -1.
</event>
<event>
 5    1  0.1141915E-008  0.3779754E+03  0.7957747E-01  0.3460022E+00
         13   -1    0    0    0    0  0.00000000000E+00  0.00000000000E+00  0.14999999963E+04  0.15000000000E+04  0.10566000000E+00 0. -1.
        994   -1    0    0    0    0 -0.00000000000E+00 -0.00000000000E+00  0.11368683772E-12  0.17120000000E+03  0.17120000000E+03 0.  0.
         13    1    1    2    0    0 -0.36081314577E+02  0.21424213863E+02  0.14393787939E+03  0.14992992526E+03  0.10566000000E+00 0. -1.
        994    1    1    2    0    0  0.47317539976E+02 -0.25442012501E+02  0.14934407490E+02  0.18005199837E+03  0.17120000000E+03 0.  0.
        998    1    1    2    0    0 -0.11236225399E+02  0.40177986380E+01  0.13411277094E+04  0.13412180764E+04  0.10000000000E+02 0. -1.
</event>
<event>
 5    1  0.1141915E-008  0.3803245E+03  0.7957747E-01  0.3449747E+00
         13   -1    0    0    0    0  0.00000000000E+00  0.00000000000E+00  0.14999999963E+04  0.15000000000E+04  0.10566000000E+00 0.  1.
        994   -1    0    0    0    0 -0.00000000000E+00 -0.00000000000E+00  0.11368683772E-12  0.17120000000E+03  0.17120000000E+03 0.  0.
         13    1    1    2    0    0  0.35511007821E+01 -0.15879662335E+02  0.33107748095E+02  0.36890488484E+02  0.10566000000E+00 0.  1.
        994    1    1    2    0    0 -0.19225476998E+02 -0.57767159249E+01  0.53163110293E+01  0.17245490012E+03  0.17120000000E+03 0.  0.
        998    1    1    2    0    0  0.15674376216E+02  0.21656378260E+02  0.14615759372E+04  0.14618546114E+04  0.10000000000E+02 0.  1.
</event>
<event>
 5    1  0.1141915E-008  0.3852848E+03  0.7957747E-01  0.3428465E+00
         13   -1    0    0    0    0  0.00000000000E+00  0.00000000000E+00  0.14999999963E+04  0.15000000000E+04  0.10566000000E+00 0.  1.
        994   -1    0    0    0    0 -0.00000000000E+00 -0.00000000000E+00  0.11368683772E-12  0.17120000000E+03  0.17120000000E+03 0.  0.
         13    1    1    2    0    0  0.77228875671E+01  0.75466069675E+01  0.37976931733E+02  0.39482309671E+02  0.10566000000E+00 0.  1.
        994    1    1    2    0    0 -0.59498158407E+01 -0.12948088499E+02  0.21562298979E+01  0.17180553726E+03  0.17120000000E+03 0.  0.
        998    1    1    2    0    0 -0.17730717264E+01  0.54014815311E+01  0.14598668346E+04  0.14599121531E+04  0.10000000000E+02 0.  1.
</event>
<event>
 5    1  0.1141915E-008  0.3842984E+03  0.7957747E-01  0.3432653E+00
         13   -1    0    0    0    0  0.00000000000E+00  0.00000000000E+00  0.14999999963E+04  0.15000000000E+04  0.10566000000E+00 0. -1.
        994   -1    0    0    0    0 -0.00000000000E+00 -0.00000000000E+00  0.11368683772E-12  0.17120000000E+03  0.17120000000E+03 0.  0.
         13    1    1    2    0    0 -0.75262880869E+01 -0.12002923832E+02  0.51799689856E+02  0.53702273938E+02  0.10566000000E+00 0. -1.
        994    1    1    2    0    0 -0.34776751269E+01  0.69523871029E+01  0.21780833668E+01  0.17139023881E+03  0.17120000000E+03 0.  0.
        998    1    1    2    0    0  0.11003963214E+02  0.50505367291E+01  0.14460222231E+04  0.14461074873E+04  0.10000000000E+02 0. -1.
</event>
<event>
 5    1  0.1141915E-008  0.3720816E+03  0.7957747E-01  0.3486379E+00
         13   -1    0    0    0    0  0.00000000000E+00  0.00000000000E+00  0.14999999963E+04  0.15000000000E+04  0.10566000000E+00 0.  1.
        994   -1    0    0    0    0 -0.00000000000E+00 -0.00000000000E+00  0.11368683772E-12  0.17120000000E+03  0.17120000000E+03 0.  0.
         13    1    1    2    0    0 -0.17449339573E+02  0.32109576757E+02  0.75233436792E+02  0.83639617088E+02  0.10566000000E+00 0.  1.
        994    1    1    2    0    0  0.13022792928E+02 -0.33677125044E+02  0.12674059085E+02  0.17542466663E+03  0.17120000000E+03 0.  0.
        998    1    1    2    0    0  0.44265466449E+01  0.15675482874E+01  0.14120925004E+04  0.14121357163E+04  0.10000000000E+02 0.  1.
</event>
<event>
 5    1  0.1141915E-008  0.3790027E+03  0.7957747E-01  0.3455513E+00
         13   -1    0    0    0    0  0.00000000000E+00  0.00000000000E+00  0.14999999963E+04  0.15000000000E+04  0.10566000000E+00 0. -1.
        994   -1    0    0    0    0 -0.00000000000E+00 -0.00000000000E+00  0.11368683772E-12  0.17120000000E+03  0.17120000000E+03 0.  0.
         13    1    1    2    0    0  0.15308834683E+02 -0.41726882080E+02  0.22899065849E+03  0.23326428348E+03  0.10566000000E+00 0. -1.
        994    1    1    2    0    0 -0.18383112350E+02  0.96697117632E+01  0.60858187670E+01  0.17256279824E+03  0.17120000000E+03 0.  0.
        998    1    1    2    0    0  0.30742776668E+01  0.32057170316E+02  0.12649235190E+04  0.12653729183E+04  0.10000000000E+02 0. -1.
</event>
<event>
 5    1  0.1141915E-008  0.3803965E+03  0.7957747E-01  0.3449434E+00
         13   -1    0    0    0    0  0.00000000000E+00  0.00000000000E+00  0.14999999963E+04  0.15000000000E+04  0.10566000000E+00 0.  1.
        994   -1    0    0    0    0 -0.00000000000E+00 -0.00000000000E+00  0.11368683772E-12  0.17120000000E+03  0.17120000000E+03 0.  0.
         13    1    1    2    0    0  0.20527194664E+02 -0.21809389961E+02  0.14559670481E+03  0.14864530543E+03  0.10566000000E+00 0.  1.
        994    1    1    2    0    0  0.20308141495E+02 -0.90958010519E+01  0.55879790799E+01  0.17273048289E+03  0.17120000000E+03 0.  0.
        998    1    1    2    0    0 -0.40835336159E+02  0.30905191013E+02  0.13488153124E+04  0.13498242117E+04  0.10000000000E+02 0.  1.
</event>
<event>
 5    1  0.1141915E-008  0.3814727E+03  0.7957747E-01  0.3444771E+00
         13   -1    0    0    0    0  0.00000000000E+00  0.00000000000E+00  0.14999999963E+04  0.15000000000E+04  0.10566000000E+00 0.  1.
        994   -1    0    0    0    0 -0.00000000000E+00 -0.00000000000E+00  0.11368683772E-12  0.17120000000E+03  0.17120000000E+03 0.  0.
         13    1    1    2    0    0 -0.16141904183E+02  0.31062128433E+02  0.17060183442E+03  0.17415629177E+03  0.10566000000E+00 0.  1.
        994    1    1    2    0    0  0.98822096284E+00 -0.30650034654E+02  0.65263201964E+01  0.17404721790E+03  0.17120000000E+03 0.  0.
        998    1    1    2    0    0  0.15153683220E+02 -0.41209377862E+00  0.13228718417E+04  0.13229964903E+04  0.10000000000E+02 0.  1.
</event>
<event>
 5    1  0.1141915E-008  0.3827180E+03  0.7957747E-01  0.3439409E+00
         13   -1    0    0    0    0  0.00000000000E+00  0.00000000000E+00  0.14999999963E+04  0.15000000000E+04  0.10566000000E+00 0.  1.
        994   -1    0    0    0    0 -0.00000000000E+00 -0.00000000000E+00  0.11368683772E-12  0.17120000000E+03  0.17120000000E+03 0.  0.
         13    1    1    2    0    0  0.10851809995E+02 -0.77096589804E+01  0.30500917347E+02  0.33279389189E+02  0.10566000000E+00 0.  1.
        994    1    1    2    0    0 -0.14372230043E+02  0.41736761995E+01  0.35098066250E+01  0.17188874109E+03  0.17120000000E+03 0.  0.
        998    1    1    2    0    0  0.35204200477E+01  0.35359827809E+01  0.14659892723E+04  0.14660318697E+04  0.10000000000E+02 0.  1.
</event>
<event>
 5    1  0.1141915E-008  0.3807807E+03  0.7957747E-01  0.3447766E+00
         13   -1    0    0    0    0  0.00000000000E+00  0.00000000000E+00  0.14999999963E+04  0.15000000000E+04  0.10566000000E+00 0. -1.
        994   -1    0    0    0    0 -0.00000000000E+00 -0.00000000000E+00  0.11368683772E-12  0.17120000000E+03  0.17120000000E+03 0.  0.
         13    1    1    2    0    0 -0.17786475605E+02 -0.37494057551E+02  0.21007505298E+03  0.21413477559E+03  0.10566000000E+00 0. -1.
        994    1    1    2    0    0  0.18903949365E+02  0.29687770886E+02  0.78808836921E+01  0.17495791314E+03  0.17120000000E+03 0.  0.
        998    1    1    2    0    0 -0.11174737606E+01  0.78062866652E+01  0.12820440596E+04  0.12821073113E+04  0.10000000000E+02 0. -1.
</event>
<event>
 5    1  0.1141915E-008  0.3861204E+03  0.7957747E-01  0.3424934E+00
         13   -1    0    0    0    0  0.00000000000E+00  0.00000000000E+00  0.14999999963E+04  0.15000000000E+04  0.10566000000E+00 0. -1.
        994   -1    0    0    0    0 -0.00000000000E+00 -0.00000000000E+00  0.11368683772E-12  0.17120000000E+03  0.17120000000E+03 0.  0.
         13    1    1    2    0    0  0.61150995149E+01 -0.92311903598E+01  0.61882149754E+02  0.62865101128E+02  0.10566000000E+00 0. -1.
        994    1    1    2    0    0  0.91925847038E+01  0.45603848991E+01  0.14200268398E+01  0.17151314002E+03  0.17120000000E+03 0.  0.
        998    1    1    2    0    0 -0.15307684219E+02  0.46708054607E+01  0.14366978197E+04  0.14368217589E+04  0.10000000000E+02 0. -1.
</event>
<event>
 5    1  0.1141915E-008  0.3795244E+03  0.7957747E-01  0.3453232E+00
         13   -1    0    0    0    0  0.00000000000E+00  0.00000000000E+00  0.14999999963E+04  0.15000000000E+04  0.10566000000E+00 0.  1.
        994   -1    0    0    0    0 -0.00000000000E+00 -0.00000000000E+00  0.11368683772E-12  0.17120000000E+03  0.17120000000E+03 0.  0.
         13    1    1    2    0    0 -0.13843583144E+02  0.42395680236E+02  0.24617770920E+03  0.25018495991E+03  0.10566000000E+00 0.  1.
        994    1    1    2    0    0  0.53096075811E+02 -0.30126885820E+01  0.13901817564E+02  0.17980814801E+03  0.17120000000E+03 0.  0.
        998    1    1    2    0    0 -0.39252492667E+02 -0.39382991654E+02  0.12399204695E+04  0.12412068921E+04  0.10000000000E+02 0.  1.
</event>
<event>
 5    1  0.1141915E-008  0.3792424E+03  0.7957747E-01  0.3454464E+00
         13   -1    0    0    0    0  0.00000000000E+00  0.00000000000E+00  0.14999999963E+04  0.15000000000E+04  0.10566000000E+00 0.  1.
        994   -1    0    0    0    0 -0.00000000000E+00 -0.00000000000E+00  0.11368683772E-12  0.17120000000E+03  0.17120000000E+03 0.  0.
         13    1    1    2    0    0  0.76554052087E+02 -0.58517551255E+02  0.27182039436E+03  0.28839411341E+03  0.10566000000E+00 0.  1.
        994    1    1    2    0    0 -0.81332101940E+02  0.82095996906E+01  0.40474774752E+02  0.19398442134E+03  0.17120000000E+03 0.  0.
        998    1    1    2    0    0  0.47780498530E+01  0.50307951565E+02  0.11877048272E+04  0.11888214652E+04  0.10000000000E+02 0.  1.
</event>
<event>
 5    1  0.1141915E-008  0.3786292E+03  0.7957747E-01  0.3457149E+00
         13   -1    0    0    0    0  0.00000000000E+00  0.00000000000E+00  0.14999999963E+04  0.15000000000E+04  0.10566000000E+00 0.  1.
        994   -1    0    0    0    0 -0.00000000000E+00 -0.00000000000E+00  0.11368683772E-12  0.17120000000E+03  0.17120000000E+03 0.  0.
         13    1    1    2    0    0  0.31694664664E+02  0.31571382317E+01  0.10603449433E+03  0.11071515001E+03  0.10566000000E+00 0.  1.
        994    1    1    2    0    0 -0.22856487963E+02  0.58821346236E+02  0.18318496077E+02  0.18337768979E+03  0.17120000000E+03 0.  0.
        998    1    1    2    0    0 -0.88381767006E+01 -0.61978484467E+02  0.13756470059E+04  0.13771071602E+04  0.10000000000E+02 0.  1.
</event>
<event>
 5    1  0.1141915E-008  0.3859863E+03  0.7957747E-01  0.3425500E+00
         13   -1    0    0    0    0  0.00000000000E+00  0.00000000000E+00  0.14999999963E+04  0.15000000000E+04  0.10566000000E+00 0. -1.
        994   -1    0    0    0    0 -0.00000000000E+00 -0.00000000000E+00  0.11368683772E-12  0.17120000000E+03  0.17120000000E+03 0.  0.
         13    1    1    2    0    0 -0.34613689083E+01  0.12985180016E+02  0.80220311879E+02  0.81338217197E+02  0.10566000000E+00 0. -1.
        994    1    1    2    0    0  0.50156013943E+01 -0.74794452444E+01  0.14071538630E+01  0.17144246394E+03  0.17120000000E+03 0.  0.
        998    1    1    2    0    0 -0.15542324859E+01 -0.55057347715E+01  0.14183725305E+04  0.14184193189E+04  0.10000000000E+02 0. -1.
</event>
<event>
 5    1  0.1141915E-008  0.4064762E+03  0.7957747E-01  0.3343401E+00
         13   -1    0    0    0    0  0.00000000000E+00  0.00000000000E+00  0.14999999963E+04  0.15000000000E+04  0.10566000000E+00 0.  1.
        994   -1    0    0    0    0 -0.00000000000E+00 -0.00000000000E+00  0.11368683772E-12  0.17120000000E+03  0.17120000000E+03 0.  0.
         13    1    1    2    0    0  0.64372495934E+02 -0.98657799587E+01  0.51300662171E+02  0.82903081668E+02  0.10566000000E+00 0.  1.
        994    1    1    2    0    0 -0.80319987512E+02  0.28257632963E+02  0.61505655903E+02  0.20085362810E+03  0.17120000000E+03 0.  0.
        998    1    1    2    0    0  0.15947491578E+02 -0.18391853005E+02  0.13871936782E+04  0.13874432902E+04  0.10000000000E+02 0.  1.
</event>
<event>
 5    1  0.1141915E-008  0.3703798E+03  0.7957747E-01  0.3494147E+00
         13   -1    0    0    0    0  0.00000000000E+00  0.00000000000E+00  0.14999999963E+04  0.15000000000E+04  0.10566000000E+00 0.  1.
        994   -1    0    0    0    0 -0.00000000000E+00 -0.00000000000E+00  0.11368683772E-12  0.17120000000E+03  0.17120000000E+03 0.  0.
         13    1    1    2    0    0 -0.45527036912E+02  0.10446987171E+03  0.49569562142E+03  0.50862641049E+03  0.10566000000E+00 0.  1.
        994    1    1    2    0    0  0.49804546260E+02 -0.95305759648E+02  0.50130222314E+02  0.20829344646E+03  0.17120000000E+03 0.  0.
        998    1    1    2    0    0 -0.42775093474E+01 -0.91641120650E+01  0.95417415254E+03  0.95428014305E+03  0.10000000000E+02 0.  1.
</event>
<event>
 5    1  0.1141915E-008  0.3742062E+03  0.7957747E-01  0.3476781E+00
         13   -1    0    0    0    0  0.00000000000E+00  0.00000000000E+00  0.14999999963E+04  0.15000000000E+04  0.10566000000E+00 0. -1.
        994   -1    0    0    0    0 -0.00000000000E+00 -0.00000000000E+00  0.11368683772E-12  0.17120000000E+03  0.17120000000E+03 0.  0.
         13    1    1    2    0    0 -0.47561630107E+02 -0.18518546273E+02  0.16374789552E+03  0.17151801557E+03  0.10566000000E+00 0. -1.
        994    1    1    2    0    0  0.45938642742E+02  0.19079341329E+02  0.15567668754E+02  0.17895857753E+03  0.17120000000E+03 0.  0.
        998    1    1    2    0    0  0.16229873655E+01 -0.56079505644E+00  0.13206844320E+04  0.13207234069E+04  0.10000000000E+02 0. -1.
</event>
<event>
 5    1  0.1141915E-008  0.3844542E+03  0.7957747E-01  0.3431990E+00
         13   -1    0    0    0    0  0.00000000000E+00  0.00000000000E+00  0.14999999963E+04  0.15000000000E+04  0.10566000000E+00 0.  1.
        994   -1    0    0    0    0 -0.00000000000E+00 -0.00000000000E+00  0.11368683772E-12  0.17120000000E+03  0.17120000000E+03 0.  0.
         13    1    1    2    0    0  0.12568118198E+02  0.43516761137E+01  0.46285597930E+02  0.48158721119E+02  0.10566000000E+00 0.  1.
        994    1    1    2    0    0 -0.96614811680E+01  0.17610142878E+01  0.22191490611E+01  0.17149580173E+03  0.17120000000E+03 0.  0.
        998    1    1    2    0    0 -0.29066370304E+01 -0.61126904014E+01  0.14514952493E+04  0.14515454771E+04  0.10000000000E+02 0.  1.
</event>
<event>
 5    1  0.1141915E-008  0.4192365E+03  0.7957747E-01  0.3296297E+00
         13   -1    0    0    0    0  0.00000000000E+00  0.00000000000E+00  0.14999999963E+04  0.15000000000E+04  0.10566000000E+00 0.  1.
        994   -1    0    0    0    0 -0.00000000000E+00 -0.00000000000E+00  0.11368683772E-12  0.17120000000E+03  0.17120000000E+03 0.  0.
         13    1    1    2    0    0 -0.34210868939E+02  0.30574582046E+02  0.11006935588E+02  0.47184239062E+02  0.10566000000E+00 0.  1.
        994    1    1    2    0    0  0.26270766149E+02 -0.40159795375E+02  0.49673039369E+02  0.18460718610E+03  0.17120000000E+03 0.  0.
        998    1    1    2    0    0  0.79401027898E+01  0.95852133294E+01  0.14393200213E+04  0.14394085748E+04  0.10000000000E+02 0.  1.
</event>
<event>
 5    1  0.1141915E-008  0.3735861E+03  0.7957747E-01  0.3479570E+00
         13   -1    0    0    0    0  0.00000000000E+00  0.00000000000E+00  0.14999999963E+04  0.15000000000E+04  0.10566000000E+00 0.  1.
        994   -1    0    0    0    0 -0.00000000000E+00 -0.00000000000E+00  0.11368683772E-12  0.17120000000E+03  0.17120000000E+03 0.  0.
         13    1    1    2    0    0  0.32127261088E+02 -0.18545436118E+02  0.10454199295E+03  0.11092850652E+03  0.10566000000E+00 0.  1.
        994    1    1    2    0    0  0.18658545751E+02  0.81158229086E+01  0.88219019353E+01  0.17263045463E+03  0.17120000000E+03 0.  0.
        998    1    1    2    0    0 -0.50785806839E+02  0.10429613209E+02  0.13866361014E+04  0.13876410389E+04  0.10000000000E+02 0.  1.
</event>
<event>
 5    1  0.1141915E-008  0.3858480E+03  0.7957747E-01  0.3426084E+00
         13   -1    0    0    0    0  0.00000000000E+00  0.00000000000E+00  0.14999999963E+04  0.15000000000E+04  0.10566000000E+00 0. -1.
        994   -1    0    0    0    0 -0.00000000000E+00 -0.00000000000E+00  0.11368683772E-12  0.17120000000E+03  0.17120000000E+03 0.  0.
         13    1    1    2    0    0  0.62787241649E+01  0.10349525050E+02  0.62330906312E+02  0.63495575370E+02  0.10566000000E+00 0. -1.
        994    1    1    2    0    0  0.47973442999E+01 -0.93464446311E+01  0.15717854062E+01  0.17152924255E+03  0.17120000000E+03 0.  0.
        998    1    1    2    0    0 -0.11076068465E+02 -0.10030804187E+01  0.14360973046E+04  0.14361751821E+04  0.10000000000E+02 0. -1.
</event>
<event>
 5    1  0.1141915E-008  0.3786577E+03  0.7957747E-01  0.3457024E+00
         13   -1    0    0    0    0  0.00000000000E+00  0.00000000000E+00  0.14999999963E+04  0.15000000000E+04  0.10566000000E+00 0.  1.
        994   -1    0    0    0    0 -0.00000000000E+00 -0.00000000000E+00  0.11368683772E-12  0.17120000000E+03  0.17120000000E+03 0.  0.
         13    1    1    2    0    0  0.26036751892E+02  0.12732283921E+03  0.44272596998E+03  0.46140580132E+03  0.10566000000E+00 0.  1.
        994    1    1    2    0    0 -0.29287422347E+02 -0.10093325353E+03  0.56585112830E+02  0.20870215564E+03  0.17120000000E+03 0.  0.
        998    1    1    2    0    0  0.32506704552E+01 -0.26389585677E+02  0.10006889135E+04  0.10010920430E+04  0.10000000000E+02 0.  1.
</event>
<event>
 5    1  0.1141915E-008  0.3804686E+03  0.7957747E-01  0.3449120E+00
         13   -1    0    0    0    0  0.00000000000E+00  0.00000000000E+00  0.14999999963E+04  0.15000000000E+04  0.10566000000E+00 0. -1.
        994   -1    0    0    0    0 -0.00000000000E+00 -0.00000000000E+00  0.11368683772E-12  0.17120000000E+03  0.17120000000E+03 0.  0.
         13    1    1    2    0    0 -0.12505118317E+02  0.40118815860E+01  0.19775498957E+02  0.23739307088E+02  0.10566000000E+00 0. -1.
        994    1    1    2    0    0  0.24891283368E+02  0.34515582860E+01  0.60073666239E+01  0.17313872385E+03  0.17120000000E+03 0.  0.
        998    1    1    2    0    0 -0.12386165052E+02 -0.74634398720E+01  0.14742171307E+04  0.14743219691E+04  0.10000000000E+02 0. -1.
</event>
<event>
 5    1  0.1141915E-008  0.3838264E+03  0.7957747E-01  0.3434665E+00
         13   -1    0    0    0    0  0.00000000000E+00  0.00000000000E+00  0.14999999963E+04  0.15000000000E+04  0.10566000000E+00 0.  1.
        994   -1    0    0    0    0 -0.00000000000E+00 -0.00000000000E+00  0.11368683772E-12  0.17120000000E+03  0.17120000000E+03 0.  0.
         13    1    1    2    0    0  0.11655093469E+02 -0.94924635806E+01  0.50354041432E+02  0.52549868898E+02  0.10566000000E+00 0.  1.
        994    1    1    2    0    0 -0.54046640816E+01  0.10100433431E+02  0.26472595840E+01  0.17160325502E+03  0.17120000000E+03 0.  0.
        998    1    1    2    0    0 -0.62504293871E+01 -0.60796985041E+00  0.14469986953E+04  0.14470468761E+04  0.10000000000E+02 0.  1.
</event>
<event>
 5    1  0.1141915E-008  0.3724887E+03  0.7957747E-01  0.3484531E+00
         13   -1    0    0    0    0  0.00000000000E+00  0.00000000000E+00  0.14999999963E+04  0.15000000000E+04  0.10566000000E+00 0.  1.
        994   -1    0    0    0    0 -0.00000000000E+00 -0.00000000000E+00  0.11368683772E-12  0.17120000000E+03  0.17120000000E+03 0.  0.
         13    1    1    2    0    0 -0.48001251619E+02  0.51870267882E+02  0.36232592864E+03  0.36915407972E+03  0.10566000000E+00 0.  1.
        994    1    1    2    0    0  0.74728874361E+01 -0.22415524081E+02  0.98903794962E+01  0.17310563068E+03  0.17120000000E+03 0.  0.
        998    1    1    2    0    0  0.40528364183E+02 -0.29454743801E+02  0.11277836881E+04  0.11289402896E+04  0.10000000000E+02 0.  1.
</event>
<event>
 5    1  0.1141915E-008  0.3860062E+03  0.7957747E-01  0.3425416E+00
         13   -1    0    0    0    0  0.00000000000E+00  0.00000000000E+00  0.14999999963E+04  0.15000000000E+04  0.10566000000E+00 0.  1.
        994   -1    0    0    0    0 -0.00000000000E+00 -0.00000000000E+00  0.11368683772E-12  0.17120000000E+03  0.17120000000E+03 0.  0.
         13    1    1    2    0    0 -0.75539470233E+01  0.85551051830E+01  0.57040793990E+02  0.58171430130E+02  0.10566000000E+00 0.  1.
        994    1    1    2    0    0  0.16885895211E+02  0.42005628145E+00  0.20671682535E+01  0.17204366623E+03  0.17120000000E+03 0.  0.
        998    1    1    2    0    0 -0.93319481875E+01 -0.89751614644E+01  0.14408920340E+04  0.14409849036E+04  0.10000000000E+02 0.  1.
</event>
<event>
 5    1  0.1141915E-008  0.3827568E+03  0.7957747E-01  0.3439242E+00
         13   -1    0    0    0    0  0.00000000000E+00  0.00000000000E+00  0.14999999963E+04  0.15000000000E+04  0.10566000000E+00 0. -1.
        994   -1    0    0    0    0 -0.00000000000E+00 -0.00000000000E+00  0.11368683772E-12  0.17120000000E+03  0.17120000000E+03 0.  0.
         13    1    1    2    0    0  0.13888877997E+01  0.15127214809E+02  0.39675885323E+02  0.42484687564E+02  0.10566000000E+00 0. -1.
        994    1    1    2    0    0 -0.11751810051E+01 -0.18934506289E+02  0.39410956047E+01  0.17229297378E+03  0.17120000000E+03 0.  0.
        998    1    1    2    0    0 -0.21370679459E+00  0.38072914801E+01  0.14563830154E+04  0.14564223387E+04  0.10000000000E+02 0. -1.
</event>
<event>
 5    1  0.1473268E-008  0.3864488E+03  0.7957747E-01  0.3423551E+00
         13   -1    0    0    0    0  0.00000000000E+00  0.00000000000E+00  0.14999999963E+04  0.15000000000E+04  0.10566000000E+00 0.  1.
        994   -1    0    0    0    0 -0.00000000000E+00 -0.00000000000E+00  0.11368683772E-12  0.17120000000E+03  0.17120000000E+03 0.  0.
         13    1    1    2    0    0  0.11813177170E+02  0.17623460000E+00  0.65060461866E+02  0.66124557282E+02  0.10566000000E+00 0.  1.
        994    1    1    2    0    0 -0.30249815392E+02 -0.37639261297E+01  0.39600382348E+01  0.17393774856E+03  0.17120000000E+03 0.  0.
        998    1    1    2    0    0  0.18436638222E+02  0.35876915297E+01  0.14309794962E+04  0.14311376942E+04  0.10000000000E+02 0.  1.
</event>
<event>
 5    1  0.1141915E-008  0.3775014E+03  0.7957747E-01  0.3462111E+00
         13   -1    0    0    0    0  0.00000000000E+00  0.00000000000E+00  0.14999999963E+04  0.15000000000E+04  0.10566000000E+00 0. -1.
        994   -1    0    0    0    0 -0.00000000000E+00 -0.00000000000E+00  0.11368683772E-12  0.17120000000E+03  0.17120000000E+03 0.  0.
         13    1    1    2    0    0 -0.20654338329E+02  0.12885488864E+02  0.13509058868E+02  0.27841396348E+02  0.10566000000E+00 0. -1.
        994    1    1    2    0    0  0.20889757363E+02  0.54526089048E+01  0.16636857953E+02  0.17335610156E+03  0.17120000000E+03 0.  0.
        998    1    1    2    0    0 -0.23541903475E+00 -0.18338097768E+02  0.14698540795E+04  0.14700025021E+04  0.10000000000E+02 0. -1.
</event>
<event>
 5    1  0.1141915E-008  0.3748296E+03  0.7957747E-01  0.3473985E+00
         13   -1    0    0    0    0  0.00000000000E+00  0.00000000000E+00  0.14999999963E+04  0.15000000000E+04  0.10566000000E+00 0.  1.
        994   -1    0    0    0    0 -0.00000000000E+00 -0.00000000000E+00  0.11368683772E-12  0.17120000000E+03  0.17120000000E+03 0.  0.
         13    1    1    2    0    0 -0.54416290488E+02 -0.26062416114E+02  0.35618372461E+03  0.36125785672E+03  0.10566000000E+00 0.  1.
        994    1    1    2    0    0  0.37614646790E+01 -0.40086074770E+01  0.68690230406E+01  0.17142590536E+03  0.17120000000E+03 0.  0.
        998    1    1    2    0    0  0.50654825809E+02  0.30071023591E+02  0.11369472486E+04  0.11385162379E+04  0.10000000000E+02 0.  1.
</event>
<event>
 5    1  0.1141915E-008  0.3805921E+03  0.7957747E-01  0.3448584E+00
         13   -1    0    0    0    0  0.00000000000E+00  0.00000000000E+00  0.14999999963E+04  0.15000000000E+04  0.10566000000E+00 0. -1.
        994   -1    0    0    0    0 -0.00000000000E+00 -0.00000000000E+00  0.11368683772E-12  0.17120000000E+03  0.17120000000E+03 0.  0.
         13    1    1    2    0    0  0.48995451596E+01  0.40457825347E+02  0.18217760888E+03  0.18668029761E+03  0.10566000000E+00 0. -1.
        994    1    1    2    0    0  0.10293604315E+02 -0.49152763418E+02  0.12295019703E+02  0.17883668514E+03  0.17120000000E+03 0.  0.
        998    1    1    2    0    0 -0.15193149475E+02  0.86949380710E+01  0.13055273677E+04  0.13056830173E+04  0.10000000000E+02 0. -1.
</event>
<event>
 5    1  0.1141915E-008  0.3792130E+03  0.7957747E-01  0.3454593E+00
         13   -1    0    0    0    0  0.00000000000E+00  0.00000000000E+00  0.14999999963E+04  0.15000000000E+04  0.10566000000E+00 0. -1.
        994   -1    0    0    0    0 -0.00000000000E+00 -0.00000000000E+00  0.11368683772E-12  0.17120000000E+03  0.17120000000E+03 0.  0.
         13    1    1    2    0    0  0.18586719257E+02  0.29818674286E+02  0.13045462102E+03  0.13510380742E+03  0.10566000000E+00 0. -1.
        994    1    1    2    0    0 -0.25752875416E+02 -0.15414555375E+02  0.75560581912E+01  0.17397515088E+03  0.17120000000E+03 0.  0.
        998    1    1    2    0    0  0.71661561595E+01 -0.14404118911E+02  0.13619893171E+04  0.13621210417E+04  0.10000000000E+02 0. -1.
</event>
<event>
 5    1  0.1141915E-008  0.3834350E+03  0.7957747E-01  0.3436337E+00
         13   -1    0    0    0    0  0.00000000000E+00  0.00000000000E+00  0.14999999963E+04  0.15000000000E+04  0.10566000000E+00 0. -1.
        994   -1    0    0    0    0 -0.00000000000E+00 -0.00000000000E+00  0.11368683772E-12  0.17120000000E+03  0.17120000000E+03 0.  0.
         13    1    1    2    0    0  0.17272829257E+02 -0.22587029565E+02  0.16874928369E+03  0.17112818718E+03  0.10566000000E+00 0. -1.
        994    1    1    2    0    0  0.26203270810E+02  0.45520655618E+02  0.11581927393E+02  0.17945005581E+03  0.17120000000E+03 0.  0.
        998    1    1    2    0    0 -0.43476100067E+02 -0.22933626053E+02  0.13196687852E+04  0.13206217570E+04  0.10000000000E+02 0. -1.
</event>
<event>
 5    1  0.1141915E-008  0.3814524E+03  0.7957747E-01  0.3444859E+00
         13   -1    0    0    0    0  0.00000000000E+00  0.00000000000E+00  0.14999999963E+04  0.15000000000E+04  0.10566000000E+00 0.  1.
        994   -1    0    0    0    0 -0.00000000000E+00 -0.00000000000E+00  0.11368683772E-12  0.17120000000E+03  0.17120000000E+03 0.  0.
         13    1    1    2    0    0  0.22383397112E+02  0.26916954119E+02  0.19360596577E+03  0.19674557182E+03  0.10566000000E+00 0.  1.
        994    1    1    2    0    0 -0.12430745962E+02 -0.35807222604E+01  0.39587288553E+01  0.17173367914E+03  0.17120000000E+03 0.  0.
        998    1    1    2    0    0 -0.99526511494E+01 -0.23336231859E+02  0.13024353017E+04  0.13027207490E+04  0.10000000000E+02 0.  1.
</event>
<event>
 5    1  0.1141915E-008  0.3771318E+03  0.7957747E-01  0.3463743E+00
         13   -1    0    0    0    0  0.00000000000E+00  0.00000000000E+00  0.14999999963E+04  0.15000000000E+04  0.10566000000E+00 0. -1.
        994   -1    0    0    0    0 -0.00000000000E+00 -0.00000000000E+00  0.11368683772E-12  0.17120000000E+03  0.17120000000E+03 0.  0.
         13    1    1    2    0    0 -0.29579085876E+02 -0.11983102230E+02  0.84932300300E+02  0.90730501258E+02  0.10566000000E+00 0. -1.
        994    1    1    2    0    0  0.20913619099E+02  0.31923040827E+02  0.10519314215E+02  0.17571726145E+03  0.17120000000E+03 0.  0.
        998    1    1    2    0    0  0.86654667768E+01 -0.19939938598E+02  0.14045483818E+04  0.14047522373E+04  0.10000000000E+02 0. -1.
</event>
<event>
 5    1  0.1141915E-008  0.3541145E+03  0.7957747E-01  0.3572243E+00
         13   -1    0    0    0    0  0.00000000000E+00  0.00000000000E+00  0.14999999963E+04  0.15000000000E+04  0.10566000000E+00 0. -1.
        994   -1    0    0    0    0 -0.00000000000E+00 -0.00000000000E+00  0.11368683772E-12  0.17120000000E+03  0.17120000000E+03 0.  0.
         13    1    1    2    0    0 -0.10522231314E+03 -0.28116050157E+03  0.59482325362E+03  0.66628648271E+03  0.10566000000E+00 0. -1.
        994    1    1    2    0    0  0.94042770076E+02  0.30608884139E+03  0.62185842352E+03  0.72010538141E+03  0.17120000000E+03 0.  0.
        998    1    1    2    0    0  0.11179543062E+02 -0.24928339825E+02  0.28331831913E+03  0.28480813589E+03  0.10000000000E+02 0. -1.
</event>
<event>
 5    1  0.1141915E-008  0.3813688E+03  0.7957747E-01  0.3445220E+00
         13   -1    0    0    0    0  0.00000000000E+00  0.00000000000E+00  0.14999999963E+04  0.15000000000E+04  0.10566000000E+00 0.  1.
        994   -1    0    0    0    0 -0.00000000000E+00 -0.00000000000E+00  0.11368683772E-12  0.17120000000E+03  0.17120000000E+03 0.  0.
         13    1    1    2    0    0  0.23714658259E+02  0.28023242656E+01  0.85932031465E+02  0.89188358171E+02  0.10566000000E+00 0.  1.
        994    1    1    2    0    0 -0.24226420835E+01 -0.27456064913E+02  0.59760952430E+01  0.17350751687E+03  0.17120000000E+03 0.  0.
        998    1    1    2    0    0 -0.21292016176E+02  0.24653740647E+02  0.14080918696E+04  0.14085041250E+04  0.10000000000E+02 0.  1.
</event>
<event>
 5    1  0.1141915E-008  0.3786870E+03  0.7957747E-01  0.3456896E+00
         13   -1    0    0    0    0  0.00000000000E+00  0.00000000000E+00  0.14999999963E+04  0.15000000000E+04  0.10566000000E+00 0.  1.
        994   -1    0    0    0    0 -0.00000000000E+00 -0.00000000000E+00  0.11368683772E-12  0.17120000000E+03  0.17120000000E+03 0.  0.
         13    1    1    2    0    0  0.18858875489E+02  0.13012820628E+02  0.56422665669E+02  0.60897611206E+02  0.10566000000E+00 0.  1.
        994    1    1    2    0    0 -0.55396370036E+01  0.12158385300E+02  0.53969825964E+01  0.17180535886E+03  0.17120000000E+03 0.  0.
        998    1    1    2    0    0 -0.13319238485E+02 -0.25171205928E+02  0.14381803480E+04  0.14384970299E+04  0.10000000000E+02 0.  1.
</event>
<event>
 5    1  0.1141915E-008  0.3831815E+03  0.7957747E-01  0.3437422E+00
         13   -1    0    0    0    0  0.00000000000E+00  0.00000000000E+00  0.14999999963E+04  0.15000000000E+04  0.10566000000E+00 0.  1.
        994   -1    0    0    0    0 -0.00000000000E+00 -0.00000000000E+00  0.11368683772E-12  0.17120000000E+03  0.17120000000E+03 0.  0.
         13    1    1    2    0    0  0.16322477559E+02  0.38486494121E+01  0.48902511024E+02  0.51698182989E+02  0.10566000000E+00 0.  1.
        994    1    1    2    0    0 -0.34261357742E+02 -0.11965912061E+02  0.69048503099E+01  0.17514034556E+03  0.17120000000E+03 0.  0.
        998    1    1    2    0    0  0.17938880182E+02  0.81172626487E+01  0.14441926349E+04  0.14443614714E+04  0.10000000000E+02 0.  1.
</event>
<event>
 5    1  0.1141915E-008  0.3787020E+03  0.7957747E-01  0.3456830E+00
         13   -1    0    0    0    0  0.00000000000E+00  0.00000000000E+00  0.14999999963E+04  0.15000000000E+04  0.10566000000E+00 0. -1.
        994   -1    0    0    0    0 -0.00000000000E+00 -0.00000000000E+00  0.11368683772E-12  0.17120000000E+03  0.17120000000E+03 0.  0.
         13    1    1    2    0    0 -0.25591213613E+02 -0.33073654837E+02  0.22159554952E+03  0.22550693024E+03  0.10566000000E+00 0. -1.
        994    1    1    2    0    0 -0.57272191559E+01  0.11908672347E+01  0.49046841191E+01  0.17137011154E+03  0.17120000000E+03 0.  0.
        998    1    1    2    0    0  0.31318432769E+02  0.31882787602E+02  0.12734997626E+04  0.12743229582E+04  0.10000000000E+02 0. -1.
</event>
<event>
 5    1  0.1141915E-008  0.3780885E+03  0.7957747E-01  0.3459524E+00
         13   -1    0    0    0    0  0.00000000000E+00  0.00000000000E+00  0.14999999963E+04  0.15000000000E+04  0.10566000000E+00 0.  1.
        994   -1    0    0    0    0 -0.00000000000E+00 -0.00000000000E+00  0.11368683772E-12  0.17120000000E+03  0.17120000000E+03 0.  0.
         13    1    1    2    0    0 -0.26169414032E+02 -0.32183614120E+01  0.64658102893E+02  0.69827483949E+02  0.10566000000E+00 0.  1.
        994    1    1    2    0    0  0.22697667106E+02  0.41493309032E+01  0.68943349772E+01  0.17288543286E+03  0.17120000000E+03 0.  0.
        998    1    1    2    0    0  0.34717469263E+01 -0.93096949123E+00  0.14284475584E+04  0.14284870832E+04  0.10000000000E+02 0.  1.
</event>
<event>
 5    1  0.1141915E-008  0.3114274E+03  0.7957747E-01  0.3817670E+00
         13   -1    0    0    0    0  0.00000000000E+00  0.00000000000E+00  0.14999999963E+04  0.15000000000E+04  0.10566000000E+00 0.  1.
        994   -1    0    0    0    0 -0.00000000000E+00 -0.00000000000E+00  0.11368683772E-12  0.17120000000E+03  0.17120000000E+03 0.  0.
         13    1    1    2    0    0 -0.43544974237E+02 -0.23909745184E+03  0.56472891702E+03  0.61480282786E+03  0.10566000000E+00 0.  1.
        994    1    1    2    0    0  0.39196369807E+02  0.23978905096E+03  0.30444960821E+03  0.42548107867E+03  0.17120000000E+03 0.  0.
        998    1    1    2    0    0  0.43486044300E+01 -0.69159911779E+00  0.63082147105E+03  0.63091609347E+03  0.10000000000E+02 0.  0.
</event>
<event>
 5    1  0.1141915E-008  0.3791380E+03  0.7957747E-01  0.3454921E+00
         13   -1    0    0    0    0  0.00000000000E+00  0.00000000000E+00  0.14999999963E+04  0.15000000000E+04  0.10566000000E+00 0.  1.
        994   -1    0    0    0    0 -0.00000000000E+00 -0.00000000000E+00  0.11368683772E-12  0.17120000000E+03  0.17120000000E+03 0.  0.
         13    1    1    2    0    0 -0.18326326954E+02 -0.85295812964E+01  0.40397710441E+02  0.45172936473E+02  0.10566000000E+00 0.  1.
        994    1    1    2    0    0  0.16228785996E+02  0.40419071695E+02  0.10955228227E+02  0.17699302776E+03  0.17120000000E+03 0.  0.
        998    1    1    2    0    0  0.20975409578E+01 -0.31889490398E+02  0.14486470576E+04  0.14490340358E+04  0.10000000000E+02 0.  1.
</event>
<event>
 5    1  0.1141915E-008  0.3697716E+03  0.7957747E-01  0.3496941E+00
         13   -1    0    0    0    0  0.00000000000E+00  0.00000000000E+00  0.14999999963E+04  0.15000000000E+04  0.10566000000E+00 0. -1.
        994   -1    0    0    0    0 -0.00000000000E+00 -0.00000000000E+00  0.11368683772E-12  0.17120000000E+03  0.17120000000E+03 0.  0.
         13    1    1    2    0    0  0.30551230943E+02  0.20568050486E+01  0.40246301416E+02  0.50570585332E+02  0.10566000000E+00 0. -1.
        994    1    1    2    0    0 -0.10757305711E+02  0.19089782344E+02  0.12497064038E+02  0.17304842104E+03  0.17120000000E+03 0.  0.
        998    1    1    2    0    0 -0.19793925232E+02 -0.21146587393E+02  0.14472566308E+04  0.14475809936E+04  0.10000000000E+02 0. -1.
</event>
<event>
 5    1  0.1141915E-008  0.3836451E+03  0.7957747E-01  0.3435439E+00
         13   -1    0    0    0    0  0.00000000000E+00  0.00000000000E+00  0.14999999963E+04  0.15000000000E+04  0.10566000000E+00 0.  1.
        994   -1    0    0    0    0 -0.00000000000E+00 -0.00000000000E+00  0.11368683772E-12  0.17120000000E+03  0.17120000000E+03 0.  0.
         13    1    1    2    0    0  0.15249386911E+02  0.59600090701E+01  0.56752807896E+02  0.59067401140E+02  0.10566000000E+00 0.  1.
        994    1    1    2    0    0 -0.17788460405E+02  0.76328999190E+01  0.35429788078E+01  0.17232725607E+03  0.17120000000E+03 0.  0.
        998    1    1    2    0    0  0.25390734940E+01 -0.13592908989E+02  0.14397042096E+04  0.14398053428E+04  0.10000000000E+02 0.  1.
</event>
<event>
 5    1  0.1141915E-008  0.3770912E+03  0.7957747E-01  0.3463923E+00
         13   -1    0    0    0    0  0.00000000000E+00  0.00000000000E+00  0.14999999963E+04  0.15000000000E+04  0.10566000000E+00 0.  1.
        994   -1    0    0    0    0 -0.00000000000E+00 -0.00000000000E+00  0.11368683772E-12  0.17120000000E+03  0.17120000000E+03 0.  0.
         13    1    1    2    0    0 -0.20534165425E+03  0.95275525543E+02  0.90660491984E+03  0.93443839421E+03  0.10566000000E+00 0.  1.
        994    1    1    2    0    0  0.20791541828E+03 -0.11732307877E+03  0.23143967312E+03  0.37398835311E+03  0.17120000000E+03 0.  0.
        998    1    1    2    0    0 -0.25737640277E+01  0.22047553224E+02  0.36195540332E+03  0.36277325268E+03  0.10000000000E+02 0. -1.
</event>
<event>
 5    1  0.1141915E-008  0.3852025E+03  0.7957747E-01  0.3428814E+00
         13   -1    0    0    0    0  0.00000000000E+00  0.00000000000E+00  0.14999999963E+04  0.15000000000E+04  0.10566000000E+00 0.  1.
        994   -1    0    0    0    0 -0.00000000000E+00 -0.00000000000E+00  0.11368683772E-12  0.17120000000E+03  0.17120000000E+03 0.  0.
         13    1    1    2    0    0 -0.79350753805E+01 -0.92031500225E+01  0.48109399539E+02  0.49620448201E+02  0.10566000000E+00 0.  1.
        994    1    1    2    0    0  0.86740160446E+01  0.42453166046E+01  0.18361794161E+01  0.17148198979E+03  0.17120000000E+03 0.  0.
        998    1    1    2    0    0 -0.73894066413E+00  0.49578334179E+01  0.14500544173E+04  0.14500975620E+04  0.10000000000E+02 0.  1.
</event>
<event>
 5    1  0.1141915E-008  0.3856814E+03  0.7957747E-01  0.3426787E+00
         13   -1    0    0    0    0  0.00000000000E+00  0.00000000000E+00  0.14999999963E+04  0.15000000000E+04  0.10566000000E+00 0. -1.
        994   -1    0    0    0    0 -0.00000000000E+00 -0.00000000000E+00  0.11368683772E-12  0.17120000000E+03  0.17120000000E+03 0.  0.
         13    1    1    2    0    0 -0.90413071719E+01 -0.96012524568E+01  0.63481432772E+02  0.64836970587E+02  0.10566000000E+00 0. -1.
        994    1    1    2    0    0  0.10226345627E+02  0.15451188051E+02  0.24195774024E+01  0.17221675793E+03  0.17120000000E+03 0.  0.
        998    1    1    2    0    0 -0.11850384556E+01 -0.58499355947E+01  0.14340989861E+04  0.14341462715E+04  0.10000000000E+02 0. -1.
</event>
<event>
 5    1  0.1141915E-008  0.3804600E+03  0.7957747E-01  0.3449158E+00
         13   -1    0    0    0    0  0.00000000000E+00  0.00000000000E+00  0.14999999963E+04  0.15000000000E+04  0.10566000000E+00 0. -1.
        994   -1    0    0    0    0 -0.00000000000E+00 -0.00000000000E+00  0.11368683772E-12  0.17120000000E+03  0.17120000000E+03 0.  0.
         13    1    1    2    0    0  0.10135015572E+01 -0.33594746097E+02  0.26722539273E+02  0.42938786894E+02  0.10566000000E+00 0. -1.
        994    1    1    2    0    0  0.65611840193E+01  0.35745373518E+02  0.21389120037E+02  0.17631708743E+03  0.17120000000E+03 0.  0.
        998    1    1    2    0    0 -0.75746855764E+01 -0.21506274216E+01  0.14518883370E+04  0.14519441257E+04  0.10000000000E+02 0. -1.
</event>
<event>
 5    1  0.1141915E-008  0.3852919E+03  0.7957747E-01  0.3428435E+00
         13   -1    0    0    0    0  0.00000000000E+00  0.00000000000E+00  0.14999999963E+04  0.15000000000E+04  0.10566000000E+00 0.  1.
        994   -1    0    0    0    0 -0.00000000000E+00 -0.00000000000E+00  0.11368683772E-12  0.17120000000E+03  0.17120000000E+03 0.  0.
         13    1    1    2    0    0  0.93851311954E+01  0.11809792778E+02  0.72496401897E+02  0.74049249456E+02  0.10566000000E+00 0.  1.
        994    1    1    2    0    0 -0.58356522100E+01 -0.18817361378E+02  0.27615986199E+01  0.17235200710E+03  0.17120000000E+03 0.  0.
        998    1    1    2    0    0 -0.35494789854E+01  0.70075685999E+01  0.14247419958E+04  0.14247987434E+04  0.10000000000E+02 0.  1.
</event>
<event>
 5    1  0.1141915E-008  0.3778229E+03  0.7957747E-01  0.3460693E+00
         13   -1    0    0    0    0  0.00000000000E+00  0.00000000000E+00  0.14999999963E+04  0.15000000000E+04  0.10566000000E+00 0.  1.
        994   -1    0    0    0    0 -0.00000000000E+00 -0.00000000000E+00  0.11368683772E-12  0.17120000000E+03  0.17120000000E+03 0.  0.
         13    1    1    2    0    0  0.96544347562E+01  0.14434466487E+02  0.25668004591E+02  0.30990636601E+02  0.10566000000E+00 0.  1.
        994    1    1    2    0    0 -0.40608623787E+02 -0.28600992834E+01  0.10836737958E+02  0.17630687843E+03  0.17120000000E+03 0.  0.
        998    1    1    2    0    0  0.30954189031E+02 -0.11574367203E+02  0.14634952537E+04  0.14639024850E+04  0.10000000000E+02 0.  1.
</event>
<event>
 5    1  0.1141915E-008  0.3844083E+03  0.7957747E-01  0.3432186E+00
         13   -1    0    0    0    0  0.00000000000E+00  0.00000000000E+00  0.14999999963E+04  0.15000000000E+04  0.10566000000E+00 0.  1.
        994   -1    0    0    0    0 -0.00000000000E+00 -0.00000000000E+00  0.11368683772E-12  0.17120000000E+03  0.17120000000E+03 0.  0.
         13    1    1    2    0    0 -0.19144641635E+02  0.24744888703E+02  0.14673829042E+03  0.15003654174E+03  0.10566000000E+00 0.  1.
        994    1    1    2    0    0  0.30094510200E+02 -0.88384544346E+02  0.31196771736E+02  0.19748464697E+03  0.17120000000E+03 0.  0.
        998    1    1    2    0    0 -0.10949868565E+02  0.63639655643E+02  0.13220649341E+04  0.13236788113E+04  0.10000000000E+02 0.  1.
</event>
<event>
 5    1  0.1141915E-008  0.3830521E+03  0.7957747E-01  0.3437976E+00
         13   -1    0    0    0    0  0.00000000000E+00  0.00000000000E+00  0.14999999963E+04  0.15000000000E+04  0.10566000000E+00 0.  1.
        994   -1    0    0    0    0 -0.00000000000E+00 -0.00000000000E+00  0.11368683772E-12  0.17120000000E+03  0.17120000000E+03 0.  0.
         13    1    1    2    0    0 -0.16784582627E+02  0.29327805390E+02  0.18652385228E+03  0.18956001956E+03  0.10566000000E+00 0.  1.
        994    1    1    2    0    0  0.23255852059E+02 -0.31007113220E+02  0.75881664209E+01  0.17569660212E+03  0.17120000000E+03 0.  0.
        998    1    1    2    0    0 -0.64712694320E+01  0.16793078304E+01  0.13058879776E+04  0.13059433783E+04  0.10000000000E+02 0.  1.
</event>
<event>
 5    1  0.1141915E-008  0.3749113E+03  0.7957747E-01  0.3473619E+00
         13   -1    0    0    0    0  0.00000000000E+00  0.00000000000E+00  0.14999999963E+04  0.15000000000E+04  0.10566000000E+00 0.  1.
        994   -1    0    0    0    0 -0.00000000000E+00 -0.00000000000E+00  0.11368683772E-12  0.17120000000E+03  0.17120000000E+03 0.  0.
         13    1    1    2    0    0 -0.72559761873E+01  0.83003835658E+01  0.60375453661E+01  0.12570150192E+02  0.10566000000E+00 0.  1.
        994    1    1    2    0    0  0.14420856473E+02  0.10645278922E+02  0.78174589412E+01  0.17231319082E+03  0.17120000000E+03 0.  0.
        998    1    1    2    0    0 -0.71648802852E+01 -0.18945662488E+02  0.14861449920E+04  0.14863166590E+04  0.10000000000E+02 0.  1.
</event>
<event>
 5    1  0.1141915E-008  0.3773106E+03  0.7957747E-01  0.3462953E+00
         13   -1    0    0    0    0  0.00000000000E+00  0.00000000000E+00  0.14999999963E+04  0.15000000000E+04  0.10566000000E+00 0. -1.
        994   -1    0    0    0    0 -0.00000000000E+00 -0.00000000000E+00  0.11368683772E-12  0.17120000000E+03  0.17120000000E+03 0.  0.
         13    1    1    2    0    0  0.65616005664E+02 -0.68511719322E+02  0.48861037482E+03  0.49773429200E+03  0.10566000000E+00 0. -1.
        994    1    1    2    0    0 -0.92241942762E+02  0.57542437958E+02  0.46462870462E+02  0.20805755574E+03  0.17120000000E+03 0.  0.
        998    1    1    2    0    0  0.26625937098E+02  0.10969281364E+02  0.96492675100E+03  0.96540815226E+03  0.10000000000E+02 0. -1.
</event>
<event>
 5    1  0.1141915E-008  0.3918694E+03  0.7957747E-01  0.3401051E+00
         13   -1    0    0    0    0  0.00000000000E+00  0.00000000000E+00  0.14999999963E+04  0.15000000000E+04  0.10566000000E+00 0. -1.
        994   -1    0    0    0    0 -0.00000000000E+00 -0.00000000000E+00  0.11368683772E-12  0.17120000000E+03  0.17120000000E+03 0.  0.
         13    1    1    2    0    0 -0.11260074653E+02 -0.33044588171E+02  0.17401422669E+02  0.39007111704E+02  0.10566000000E+00 0. -1.
        994    1    1    2    0    0  0.56509711461E+01  0.22972137015E+02  0.25129794810E+02  0.17464420729E+03  0.17120000000E+03 0.  0.
        998    1    1    2    0    0  0.56091035065E+01  0.10072451156E+02  0.14574687788E+04  0.14575486810E+04  0.10000000000E+02 0. -1.
</event>
<event>
 5    1  0.1141915E-008  0.3816935E+03  0.7957747E-01  0.3443818E+00
         13   -1    0    0    0    0  0.00000000000E+00  0.00000000000E+00  0.14999999963E+04  0.15000000000E+04  0.10566000000E+00 0. -1.
        994   -1    0    0    0    0 -0.00000000000E+00 -0.00000000000E+00  0.11368683772E-12  0.17120000000E+03  0.17120000000E+03 0.  0.
         13    1    1    2    0    0  0.10385534988E+02 -0.22481009272E+02  0.10628430088E+03  0.10913120036E+03  0.10566000000E+00 0. -1.
        994    1    1    2    0    0 -0.75883367549E+01 -0.12277922413E+02  0.39735956853E+01  0.17185330866E+03  0.17120000000E+03 0.  0.
        998    1    1    2    0    0 -0.27971982334E+01  0.34758931684E+02  0.13897420997E+04  0.13902154910E+04  0.10000000000E+02 0. -1.
</event>
<event>
 5    1  0.1141915E-008  0.3850041E+03  0.7957747E-01  0.3429655E+00
         13   -1    0    0    0    0  0.00000000000E+00  0.00000000000E+00  0.14999999963E+04  0.15000000000E+04  0.10566000000E+00 0. -1.
        994   -1    0    0    0    0 -0.00000000000E+00 -0.00000000000E+00  0.11368683772E-12  0.17120000000E+03  0.17120000000E+03 0.  0.
         13    1    1    2    0    0  0.10392373778E+02 -0.16187157719E+02  0.10392723133E+03  0.10569250723E+03  0.10566000000E+00 0. -1.
        994    1    1    2    0    0 -0.12641767139E+02  0.19909960914E+02  0.34594315294E+01  0.17285146365E+03  0.17120000000E+03 0.  0.
        998    1    1    2    0    0  0.22493933602E+01 -0.37228031957E+01  0.13926133334E+04  0.13926560291E+04  0.10000000000E+02 0. -1.
</event>
<event>
 5    1  0.1141915E-008  0.3808921E+03  0.7957747E-01  0.3447283E+00
         13   -1    0    0    0    0  0.00000000000E+00  0.00000000000E+00  0.14999999963E+04  0.15000000000E+04  0.10566000000E+00 0.  1.
        994   -1    0    0    0    0 -0.00000000000E+00 -0.00000000000E+00  0.11368683772E-12  0.17120000000E+03  0.17120000000E+03 0.  0.
         13    1    1    2    0    0  0.11396365530E+02  0.14581914905E+02  0.42194956642E+02  0.46075317900E+02  0.10566000000E+00 0.  1.
        994    1    1    2    0    0 -0.22584534223E+02 -0.21289245667E+02  0.69008669157E+01  0.17412741063E+03  0.17120000000E+03 0.  0.
        998    1    1    2    0    0  0.11188168693E+02  0.67073307625E+01  0.14509041727E+04  0.14509972715E+04  0.10000000000E+02 0.  1.
</event>
<event>
 5    1  0.1141915E-008  0.3804919E+03  0.7957747E-01  0.3449019E+00
         13   -1    0    0    0    0  0.00000000000E+00  0.00000000000E+00  0.14999999963E+04  0.15000000000E+04  0.10566000000E+00 0.  1.
        994   -1    0    0    0    0 -0.00000000000E+00 -0.00000000000E+00  0.11368683772E-12  0.17120000000E+03  0.17120000000E+03 0.  0.
         13    1    1    2    0    0  0.10125881963E+02  0.32138188762E+02  0.15412167741E+03  0.15776216047E+03  0.10566000000E+00 0.  1.
        994    1    1    2    0    0  0.36469517911E+01 -0.12208603342E+02  0.44270468237E+01  0.17173057094E+03  0.17120000000E+03 0.  0.
        998    1    1    2    0    0 -0.13772833754E+02 -0.19929585420E+02  0.13414512720E+04  0.13417072686E+04  0.10000000000E+02 0.  1.
</event>
<event>
 5    1  0.1141915E-008  0.3756805E+03  0.7957747E-01  0.3470185E+00
         13   -1    0    0    0    0  0.00000000000E+00  0.00000000000E+00  0.14999999963E+04  0.15000000000E+04  0.10566000000E+00 0. -1.
        994   -1    0    0    0    0 -0.00000000000E+00 -0.00000000000E+00  0.11368683772E-12  0.17120000000E+03  0.17120000000E+03 0.  0.
         13    1    1    2    0    0 -0.28806922314E+01  0.18450853041E+02  0.23906577154E+02  0.30335918660E+02  0.10566000000E+00 0. -1.
        994    1    1    2    0    0  0.19097989727E+02 -0.25799473018E+02  0.98319961972E+01  0.17446046592E+03  0.17120000000E+03 0.  0.
        998    1    1    2    0    0 -0.16217297496E+02  0.73486199773E+01  0.14662614229E+04  0.14664036154E+04  0.10000000000E+02 0. -1.
</event>
<event>
 5    1  0.1141915E-008  0.3816523E+03  0.7957747E-01  0.3443996E+00
         13   -1    0    0    0    0  0.00000000000E+00  0.00000000000E+00  0.14999999963E+04  0.15000000000E+04  0.10566000000E+00 0.  1.
        994   -1    0    0    0    0 -0.00000000000E+00 -0.00000000000E+00  0.11368683772E-12  0.17120000000E+03  0.17120000000E+03 0.  0.
         13    1    1    2    0    0  0.12261294279E+00  0.26148984330E+02  0.10391628083E+03  0.10715590978E+03  0.10566000000E+00 0.  1.
        994    1    1    2    0    0 -0.15521560574E+02 -0.13741131845E+02  0.47314946173E+01  0.17251540392E+03  0.17120000000E+03 0.  0.
        998    1    1    2    0    0  0.15398947631E+02 -0.12407852486E+02  0.13913522208E+04  0.13915286863E+04  0.10000000000E+02 0.  1.
</event>
<event>
 5    1  0.1141915E-008  0.3804094E+03  0.7957747E-01  0.3449378E+00
         13   -1    0    0    0    0  0.00000000000E+00  0.00000000000E+00  0.14999999963E+04  0.15000000000E+04  0.10566000000E+00 0. -1.
        994   -1    0    0    0    0 -0.00000000000E+00 -0.00000000000E+00  0.11368683772E-12  0.17120000000E+03  0.17120000000E+03 0.  0.
         13    1    1    2    0    0 -0.13304685871E+02 -0.26857285860E+02  0.10021810811E+03  0.10460405741E+03  0.10566000000E+00 0. -1.
        994    1    1    2    0    0  0.13375884726E+02  0.39544103184E+02  0.97662716888E+01  0.17648645968E+03  0.17120000000E+03 0.  0.
        998    1    1    2    0    0 -0.71198854619E-01 -0.12686817323E+02  0.13900156165E+04  0.13901094829E+04  0.10000000000E+02 0. -1.
</event>
<event>
 5    1  0.1141915E-008  0.3817886E+03  0.7957747E-01  0.3443407E+00
         13   -1    0    0    0    0  0.00000000000E+00  0.00000000000E+00  0.14999999963E+04  0.15000000000E+04  0.10566000000E+00 0.  1.
        994   -1    0    0    0    0 -0.00000000000E+00 -0.00000000000E+00  0.11368683772E-12  0.17120000000E+03  0.17120000000E+03 0.  0.
         13    1    1    2    0    0 -0.37830957756E+02 -0.12703154250E+03  0.60826453350E+03  0.62253831050E+03  0.10566000000E+00 0.  1.
        994    1    1    2    0    0  0.46667520704E+01  0.58089206568E+02  0.29806857603E+02  0.18328672416E+03  0.17120000000E+03 0.  0.
        998    1    1    2    0    0  0.33164205686E+02  0.68942335928E+02  0.86192860517E+03  0.86537496534E+03  0.10000000000E+02 0. -1.
</event>
<event>
 5    1  0.1141915E-008  0.3824373E+03  0.7957747E-01  0.3440614E+00
         13   -1    0    0    0    0  0.00000000000E+00  0.00000000000E+00  0.14999999963E+04  0.15000000000E+04  0.10566000000E+00 0. -1.
        994   -1    0    0    0    0 -0.00000000000E+00 -0.00000000000E+00  0.11368683772E-12  0.17120000000E+03  0.17120000000E+03 0.  0.
         13    1    1    2    0    0  0.25514735839E+02 -0.70565961977E+01  0.10933753750E+03  0.11249669135E+03  0.10566000000E+00 0. -1.
        994    1    1    2    0    0 -0.26706096149E+02  0.18628359610E+02  0.64317607104E+01  0.17438761108E+03  0.17120000000E+03 0.  0.
        998    1    1    2    0    0  0.11913603106E+01 -0.11571763412E+02  0.13842306981E+04  0.13843156976E+04  0.10000000000E+02 0. -1.
</event>
<event>
 5    1  0.1141915E-008  0.3813376E+03  0.7957747E-01  0.3445355E+00
         13   -1    0    0    0    0  0.00000000000E+00  0.00000000000E+00  0.14999999963E+04  0.15000000000E+04  0.10566000000E+00 0.  1.
        994   -1    0    0    0    0 -0.00000000000E+00 -0.00000000000E+00  0.11368683772E-12  0.17120000000E+03  0.17120000000E+03 0.  0.
         13    1    1    2    0    0 -0.55762517621E+01 -0.30635215176E+02  0.16115228564E+03  0.16413312074E+03  0.10566000000E+00 0.  1.
        994    1    1    2    0    0  0.65318525365E+01 -0.29970140870E+01  0.36313621225E+01  0.17138924698E+03  0.17120000000E+03 0.  0.
        998    1    1    2    0    0 -0.95560077443E+00  0.33632229263E+02  0.13352163485E+04  0.13356776323E+04  0.10000000000E+02 0.  1.
</event>
<event>
 5    1  0.1141915E-008  0.3836255E+03  0.7957747E-01  0.3435523E+00
         13   -1    0    0    0    0  0.00000000000E+00  0.00000000000E+00  0.14999999963E+04  0.15000000000E+04  0.10566000000E+00 0. -1.
        994   -1    0    0    0    0 -0.00000000000E+00 -0.00000000000E+00  0.11368683772E-12  0.17120000000E+03  0.17120000000E+03 0.  0.
         13    1    1    2    0    0  0.22174566206E+02 -0.32173464109E+01  0.10114806282E+03  0.10360021468E+03  0.10566000000E+00 0. -1.
        994    1    1    2    0    0 -0.23885382211E+02  0.42986247484E+00  0.42016073383E+01  0.17290977349E+03  0.17120000000E+03 0.  0.
        998    1    1    2    0    0  0.17108160047E+01  0.27874839361E+01  0.13946503261E+04  0.13946900118E+04  0.10000000000E+02 0. -1.
</event>
<event>
 5    1  0.1141915E-008  0.3855135E+03  0.7957747E-01  0.3427497E+00
         13   -1    0    0    0    0  0.00000000000E+00  0.00000000000E+00  0.14999999963E+04  0.15000000000E+04  0.10566000000E+00 0. -1.
        994   -1    0    0    0    0 -0.00000000000E+00 -0.00000000000E+00  0.11368683772E-12  0.17120000000E+03  0.17120000000E+03 0.  0.
         13    1    1    2    0    0 -0.75698945270E+00  0.12746941135E+02  0.61274740507E+02  0.62591233648E+02  0.10566000000E+00 0. -1.
        994    1    1    2    0    0 -0.91487041663E+01 -0.49828209761E+01  0.17318085756E+01  0.17152541052E+03  0.17120000000E+03 0.  0.
        998    1    1    2    0    0  0.99056936190E+01 -0.77641201589E+01  0.14369934472E+04  0.14370833558E+04  0.10000000000E+02 0. -1.
</event>
<event>
 5    1  0.1141915E-008  0.3770766E+03  0.7957747E-01  0.3463987E+00
         13   -1    0    0    0    0  0.00000000000E+00  0.00000000000E+00  0.14999999963E+04  0.15000000000E+04  0.10566000000E+00 0.  1.
        994   -1    0    0    0    0 -0.00000000000E+00 -0.00000000000E+00  0.11368683772E-12  0.17120000000E+03  0.17120000000E+03 0.  0.
         13    1    1    2    0    0 -0.19624609223E+01  0.12316449720E+02  0.11232138934E+02  0.16784465903E+02  0.10566000000E+00 0.  1.
        994    1    1    2    0    0  0.53366476379E+01 -0.12723667668E+02  0.62590440383E+01  0.17186909891E+03  0.17120000000E+03 0.  0.
        998    1    1    2    0    0 -0.33741867156E+01  0.40721794755E+00  0.14825088133E+04  0.14825464352E+04  0.10000000000E+02 0.  1.
</event>
<event>
 5    1  0.1141915E-008  0.3697661E+03  0.7957747E-01  0.3496967E+00
         13   -1    0    0    0    0  0.00000000000E+00  0.00000000000E+00  0.14999999963E+04  0.15000000000E+04  0.10566000000E+00 0.  1.
        994   -1    0    0    0    0 -0.00000000000E+00 -0.00000000000E+00  0.11368683772E-12  0.17120000000E+03  0.17120000000E+03 0.  0.
         13    1    1    2    0    0  0.21445841103E+02 -0.31244621995E+02  0.59777412208E+02  0.70777826179E+02  0.10566000000E+00 0.  1.
        994    1    1    2    0    0 -0.16274424560E+02  0.36812055055E+02  0.16495326109E+02  0.17663952014E+03  0.17120000000E+03 0.  0.
        998    1    1    2    0    0 -0.51714165431E+01 -0.55674330603E+01  0.14237272580E+04  0.14237826537E+04  0.10000000000E+02 0.  1.
</event>
<event>
 5    1  0.1214271E-008  0.3860821E+03  0.7957747E-01  0.3425096E+00
         13   -1    0    0    0    0  0.00000000000E+00  0.00000000000E+00  0.14999999963E+04  0.15000000000E+04  0.10566000000E+00 0. -1.
        994   -1    0    0    0    0 -0.00000000000E+00 -0.00000000000E+00  0.11368683772E-12  0.17120000000E+03  0.17120000000E+03 0.  0.
         13    1    1    2    0    0 -0.10430811187E+02 -0.45682766530E+01  0.59410111859E+02  0.60491681483E+02  0.10566000000E+00 0. -1.
        994    1    1    2    0    0  0.56400394525E+01  0.99689413092E+01  0.15239054159E+01  0.17158948722E+03  0.17120000000E+03 0.  0.
        998    1    1    2    0    0  0.47907717346E+01 -0.54006646562E+01  0.14390659790E+04  0.14391188313E+04  0.10000000000E+02 0. -1.
</event>
<event>
 5    1  0.1141915E-008  0.3776393E+03  0.7957747E-01  0.3461502E+00
         13   -1    0    0    0    0  0.00000000000E+00  0.00000000000E+00  0.14999999963E+04  0.15000000000E+04  0.10566000000E+00 0. -1.
        994   -1    0    0    0    0 -0.00000000000E+00 -0.00000000000E+00  0.11368683772E-12  0.17120000000E+03  0.17120000000E+03 0.  0.
         13    1    1    2    0    0 -0.29002329467E+02 -0.42153499383E+01  0.74786281330E+02  0.80323740755E+02  0.10566000000E+00 0. -1.
        994    1    1    2    0    0  0.30209254465E+02  0.58810199989E+01  0.85274592335E+01  0.17415321706E+03  0.17120000000E+03 0.  0.
        998    1    1    2    0    0 -0.12069249978E+01 -0.16656700605E+01  0.14166862557E+04  0.14167230422E+04  0.10000000000E+02 0.  0.
</event>
<event>
 5    1  0.1141915E-008  0.3787284E+03  0.7957747E-01  0.3456714E+00
         13   -1    0    0    0    0  0.00000000000E+00  0.00000000000E+00  0.14999999963E+04  0.15000000000E+04  0.10566000000E+00 0. -1.
        994   -1    0    0    0    0 -0.00000000000E+00 -0.00000000000E+00  0.11368683772E-12  0.17120000000E+03  0.17120000000E+03 0.  0.
         13    1    1    2    0    0 -0.67090887614E+01  0.15339768761E+02  0.26899638395E+02  0.31684729563E+02  0.10566000000E+00 0. -1.
        994    1    1    2    0    0  0.58476214126E+01 -0.16935343904E+02  0.58547731215E+01  0.17223448818E+03  0.17120000000E+03 0.  0.
        998    1    1    2    0    0  0.86146734875E+00  0.15955751435E+01  0.14672455848E+04  0.14672807823E+04  0.10000000000E+02 0. -1.
</event>
<event>
 5    1  0.1141915E-008  0.3843644E+03  0.7957747E-01  0.3432372E+00
         13   -1    0    0    0    0  0.00000000000E+00  0.00000000000E+00  0.14999999963E+04  0.15000000000E+04  0.10566000000E+00 0. -1.
        994   -1    0    0    0    0 -0.00000000000E+00 -0.00000000000E+00  0.11368683772E-12  0.17120000000E+03  0.17120000000E+03 0.  0.
         13    1    1    2    0    0  0.64300246976E+01  0.18428726035E+02  0.10360553850E+03  0.10542808892E+03  0.10566000000E+00 0. -1.
        994    1    1    2    0    0  0.50629152043E+01 -0.64164482775E+01  0.21662011900E+01  0.17140868224E+03  0.17120000000E+03 0.  0.
        998    1    1    2    0    0 -0.11492939902E+02 -0.12012277758E+02  0.13942282566E+04  0.13943632288E+04  0.10000000000E+02 0.  1.
</event>
<event>
 5    1  0.1141915E-008  0.3775876E+03  0.7957747E-01  0.3461730E+00
         13   -1    0    0    0    0  0.00000000000E+00  0.00000000000E+00  0.14999999963E+04  0.15000000000E+04  0.10566000000E+00 0. -1.
        994   -1    0    0    0    0 -0.00000000000E+00 -0.00000000000E+00  0.11368683772E-12  0.17120000000E+03  0.17120000000E+03 0.  0.
         13    1    1    2    0    0  0.35150877545E+01 -0.12664845470E+02  0.13681079610E+02  0.18972012441E+02  0.10566000000E+00 0. -1.
        994    1    1    2    0    0 -0.89611493210E+00  0.12574451401E+02  0.58916016721E+01  0.17176457964E+03  0.17120000000E+03 0.  0.
        998    1    1    2    0    0 -0.26189728224E+01  0.90394069207E-01  0.14804273150E+04  0.14804634079E+04  0.10000000000E+02 0. -1.
</event>
<event>
 5    1  0.1141915E-008  0.3825187E+03  0.7957747E-01  0.3440264E+00
         13   -1    0    0    0    0  0.00000000000E+00  0.00000000000E+00  0.14999999963E+04  0.15000000000E+04  0.10566000000E+00 0. -1.
        994   -1    0    0    0    0 -0.00000000000E+00 -0.00000000000E+00  0.11368683772E-12  0.17120000000E+03  0.17120000000E+03 0.  0.
         13    1    1    2    0    0 -0.12453207715E+02  0.15007101807E+02  0.65423685855E+02  0.68268333229E+02  0.10566000000E+00 0. -1.
        994    1    1    2    0    0  0.12482020089E+02 -0.59668654939E+01  0.35019298265E+01  0.17179379448E+03  0.17120000000E+03 0.  0.
        998    1    1    2    0    0 -0.28812374495E-01 -0.90402363133E+01  0.14310743806E+04  0.14311378723E+04  0.10000000000E+02 0. -1.
</event>
<event>
 5    1  0.1141915E-008  0.4298871E+03  0.7957747E-01  0.3259085E+00
         13   -1    0    0    0    0  0.00000000000E+00  0.00000000000E+00  0.14999999963E+04  0.15000000000E+04  0.10566000000E+00 0.  1.
        994   -1    0    0    0    0 -0.00000000000E+00 -0.00000000000E+00  0.11368683772E-12  0.17120000000E+03  0.17120000000E+03 0.  0.
         13    1    1    2    0    0  0.33173967560E+02 -0.30958541272E+02  0.44557044116E+01  0.45593945510E+02  0.10566000000E+00 0.  1.
        994    1    1    2    0    0 -0.13122463996E+02  0.34519975175E+02  0.53138399513E+02  0.18302173983E+03  0.17120000000E+03 0.  0.
        998    1    1    2    0    0 -0.20051503564E+02 -0.35614339037E+01  0.14424058924E+04  0.14425843147E+04  0.10000000000E+02 0.  1.
</event>
<event>
 5    1  0.1141915E-008  0.3877878E+03  0.7957747E-01  0.3417934E+00
         13   -1    0    0    0    0  0.00000000000E+00  0.00000000000E+00  0.14999999963E+04  0.15000000000E+04  0.10566000000E+00 0.  1.
        994   -1    0    0    0    0 -0.00000000000E+00 -0.00000000000E+00  0.11368683772E-12  0.17120000000E+03  0.17120000000E+03 0.  0.
         13    1    1    2    0    0  0.54456980060E+02  0.13126823181E+02  0.64821818182E+02  0.85672372679E+02  0.10566000000E+00 0.  1.
        994    1    1    2    0    0 -0.58904302811E+02 -0.18773226268E+02  0.35074009254E+02  0.18536929907E+03  0.17120000000E+03 0.  0.
        998    1    1    2    0    0  0.44473227509E+01  0.56464030875E+01  0.14001041688E+04  0.14001583282E+04  0.10000000000E+02 0.  1.
</event>
<event>
 5    1  0.1141915E-008  0.3563156E+03  0.7957747E-01  0.3561247E+00
         13   -1    0    0    0    0  0.00000000000E+00  0.00000000000E+00  0.14999999963E+04  0.15000000000E+04  0.10566000000E+00 0.  1.
        994   -1    0    0    0    0 -0.00000000000E+00 -0.00000000000E+00  0.11368683772E-12  0.17120000000E+03  0.17120000000E+03 0.  0.
         13    1    1    2    0    0  0.20276676303E+03  0.56453212552E+02  0.10799137852E+04  0.11002341206E+04  0.10566000000E+00 0.  1.
        994    1    1    2    0    0 -0.19382952801E+03 -0.34508587832E+02  0.15261422116E+03  0.30226026709E+03  0.17120000000E+03 0.  0.
        998    1    1    2    0    0 -0.89372350200E+01 -0.21944624720E+02  0.26747198989E+03  0.26870561233E+03  0.10000000000E+02 0.  1.
</event>
<event>
 5    1  0.1141915E-008  0.3813320E+03  0.7957747E-01  0.3445379E+00
         13   -1    0    0    0    0  0.00000000000E+00  0.00000000000E+00  0.14999999963E+04  0.15000000000E+04  0.10566000000E+00 0. -1.
        994   -1    0    0    0    0 -0.00000000000E+00 -0.00000000000E+00  0.11368683772E-12  0.17120000000E+03  0.17120000000E+03 0.  0.
         13    1    1    2    0    0  0.27303828800E+02  0.16015093722E+02  0.15788619430E+03  0.16102808391E+03  0.10566000000E+00 0. -1.
        994    1    1    2    0    0 -0.11906307933E+02  0.91251878507E+01  0.42115670899E+01  0.17190755225E+03  0.17120000000E+03 0.  0.
        998    1    1    2    0    0 -0.15397520867E+02 -0.25140281572E+02  0.13379022349E+04  0.13382643638E+04  0.10000000000E+02 0. -1.
</event>
<event>
 5    1  0.1141915E-008  0.3854840E+03  0.7957747E-01  0.3427622E+00
         13   -1    0    0    0    0  0.00000000000E+00  0.00000000000E+00  0.14999999963E+04  0.15000000000E+04  0.10566000000E+00 0. -1.
        994   -1    0    0    0    0 -0.00000000000E+00 -0.00000000000E+00  0.11368683772E-12  0.17120000000E+03  0.17120000000E+03 0.  0.
         13    1    1    2    0    0  0.16095788737E+02 -0.46942574538E+01  0.98440820632E+02  0.99858483860E+02  0.10566000000E+00 0. -1.
        994    1    1    2    0    0 -0.14401630419E+02  0.24577833029E+01  0.20911803243E+01  0.17183498099E+03  0.17120000000E+03 0.  0.
        998    1    1    2    0    0 -0.16941583177E+01  0.22364741508E+01  0.13994679953E+04  0.13995065351E+04  0.10000000000E+02 0. -1.
</event>
<event>
 5    1  0.1141915E-008  0.3861206E+03  0.7957747E-01  0.3424933E+00
         13   -1    0    0    0    0  0.00000000000E+00  0.00000000000E+00  0.14999999963E+04  0.15000000000E+04  0.10566000000E+00 0.  1.
        994   -1    0    0    0    0 -0.00000000000E+00 -0.00000000000E+00  0.11368683772E-12  0.17120000000E+03  0.17120000000E+03 0.  0.
         13    1    1    2    0    0 -0.11203790564E+02  0.27129071223E+01  0.68870936526E+02  0.69829090285E+02  0.10566000000E+00 0.  1.
        994    1    1    2    0    0  0.13318968971E+01  0.19444566703E+02  0.23205049704E+01  0.17232147245E+03  0.17120000000E+03 0.  0.
        998    1    1    2    0    0  0.98718936672E+01 -0.22157473826E+02  0.14288085548E+04  0.14290494373E+04  0.10000000000E+02 0.  1.
</event>
<event>
 5    1  0.1141915E-008  0.3805746E+03  0.7957747E-01  0.3448660E+00
         13   -1    0    0    0    0  0.00000000000E+00  0.00000000000E+00  0.14999999963E+04  0.15000000000E+04  0.10566000000E+00 0.  1.
        994   -1    0    0    0    0 -0.00000000000E+00 -0.00000000000E+00  0.11368683772E-12  0.17120000000E+03  0.17120000000E+03 0.  0.
         13    1    1    2    0    0  0.13283365591E+02 -0.30846887614E+02  0.14850139639E+03  0.15225194308E+03  0.10566000000E+00 0.  1.
        994    1    1    2    0    0 -0.83528036508E+01  0.14496012204E+02  0.47778219449E+01  0.17208187377E+03  0.17120000000E+03 0.  0.
        998    1    1    2    0    0 -0.49305619400E+01  0.16350875410E+02  0.13467207779E+04  0.13468661832E+04  0.10000000000E+02 0.  0.
</event>
<event>
 5    1  0.1141915E-008  0.3731217E+03  0.7957747E-01  0.3481666E+00
         13   -1    0    0    0    0  0.00000000000E+00  0.00000000000E+00  0.14999999963E+04  0.15000000000E+04  0.10566000000E+00 0.  1.
        994   -1    0    0    0    0 -0.00000000000E+00 -0.00000000000E+00  0.11368683772E-12  0.17120000000E+03  0.17120000000E+03 0.  0.
         13    1    1    2    0    0  0.47970021364E+01  0.34770725757E+02  0.86189300645E+02  0.93062459181E+02  0.10566000000E+00 0.  1.
        994    1    1    2    0    0  0.28282611168E+02  0.11091987122E+01  0.10391901033E+02  0.17383488724E+03  0.17120000000E+03 0.  0.
        998    1    1    2    0    0 -0.33079613305E+02 -0.35879924469E+02  0.14034187946E+04  0.14043026536E+04  0.10000000000E+02 0.  1.
</event>
<event>
 5    1  0.1141915E-008  0.3839102E+03  0.7957747E-01  0.3434308E+00
         13   -1    0    0    0    0  0.00000000000E+00  0.00000000000E+00  0.14999999963E+04  0.15000000000E+04  0.10566000000E+00 0.  1.
        994   -1    0    0    0    0 -0.00000000000E+00 -0.00000000000E+00  0.11368683772E-12  0.17120000000E+03  0.17120000000E+03 0.  0.
         13    1    1    2    0    0 -0.48398396738E+01 -0.18433455162E+02  0.83636756135E+02  0.85780734772E+02  0.10566000000E+00 0.  1.
        994    1    1    2    0    0  0.52227324949E+01  0.10242938236E+02  0.26085942807E+01  0.17160547626E+03  0.17120000000E+03 0.  0.
        998    1    1    2    0    0 -0.38289282111E+00  0.81905169266E+01  0.14137546459E+04  0.14138137890E+04  0.10000000000E+02 0.  1.
</event>
<event>
 5    1  0.1141915E-008  0.3710080E+03  0.7957747E-01  0.3491271E+00
         13   -1    0    0    0    0  0.00000000000E+00  0.00000000000E+00  0.14999999963E+04  0.15000000000E+04  0.10566000000E+00 0. -1.
        994   -1    0    0    0    0 -0.00000000000E+00 -0.00000000000E+00  0.11368683772E-12  0.17120000000E+03  0.17120000000E+03 0.  0.
         13    1    1    2    0    0  0.14341033459E+02  0.98328390842E+01  0.13359248371E+02  0.21927850925E+02  0.10566000000E+00 0. -1.
        994    1    1    2    0    0 -0.12292266862E+02 -0.93032308853E+01  0.95624080599E+01  0.17215844324E+03  0.17120000000E+03 0.  0.
        998    1    1    2    0    0 -0.20487665967E+01 -0.52960819887E+00  0.14770783398E+04  0.14771137058E+04  0.10000000000E+02 0. -1.
</event>
<event>
 5    1  0.1330350E-008  0.3851495E+03  0.7957747E-01  0.3429038E+00
         13   -1    0    0    0    0  0.00000000000E+00  0.00000000000E+00  0.14999999963E+04  0.15000000000E+04  0.10566000000E+00 0.  1.
        994   -1    0    0    0    0 -0.00000000000E+00 -0.00000000000E+00  0.11368683772E-12  0.17120000000E+03  0.17120000000E+03 0.  0.
         13    1    1    2    0    0 -0.10693966690E+02 -0.70325280954E+01  0.53201206806E+02  0.54719255703E+02  0.10566000000E+00 0.  1.
        994    1    1    2    0    0  0.59435099326E+01  0.34807405918E+01  0.17118668396E+01  0.17134704944E+03  0.17120000000E+03 0.  0.
        998    1    1    2    0    0  0.47504567570E+01  0.35517875036E+01  0.14450869226E+04  0.14451336949E+04  0.10000000000E+02 0.  1.
</event>
<event>
 5    1  0.1141915E-008  0.3860497E+03  0.7957747E-01  0.3425232E+00
         13   -1    0    0    0    0  0.00000000000E+00  0.00000000000E+00  0.14999999963E+04  0.15000000000E+04  0.10566000000E+00 0. -1.
        994   -1    0    0    0    0 -0.00000000000E+00 -0.00000000000E+00  0.11368683772E-12  0.17120000000E+03  0.17120000000E+03 0.  0.
         13    1    1    2    0    0 -0.10127081954E+02  0.76444592241E+01  0.72039802022E+02  0.73148751084E+02  0.10566000000E+00 0. -1.
        994    1    1    2    0    0  0.84198313823E+01 -0.67350792148E+01  0.14909808322E+01  0.17154567286E+03  0.17120000000E+03 0.  0.
        998    1    1    2    0    0  0.17072505712E+01 -0.90938000930E+00  0.14264692134E+04  0.14265055761E+04  0.10000000000E+02 0. -1.
</event>
<event>
 5    1  0.1141915E-008  0.3821865E+03  0.7957747E-01  0.3441693E+00
         13   -1    0    0    0    0  0.00000000000E+00  0.00000000000E+00  0.14999999963E+04  0.15000000000E+04  0.10566000000E+00 0. -1.
        994   -1    0    0    0    0 -0.00000000000E+00 -0.00000000000E+00  0.11368683772E-12  0.17120000000E+03  0.17120000000E+03 0.  0.
         13    1    1    2    0    0  0.15196131863E+02  0.10677213123E+02  0.57195139175E+02  0.60135018192E+02  0.10566000000E+00 0. -1.
        994    1    1    2    0    0 -0.46307788334E+01 -0.52943909056E+01  0.31977066674E+01  0.17137426883E+03  0.17120000000E+03 0.  0.
        998    1    1    2    0    0 -0.10565353030E+02 -0.53828222172E+01  0.14396071504E+04  0.14396907130E+04  0.10000000000E+02 0. -1.
</event>
<event>
 5    1  0.1141915E-008  0.3794472E+03  0.7957747E-01  0.3453569E+00
         13   -1    0    0    0    0  0.00000000000E+00  0.00000000000E+00  0.14999999963E+04  0.15000000000E+04  0.10566000000E+00 0.  1.
        994   -1    0    0    0    0 -0.00000000000E+00 -0.00000000000E+00  0.11368683772E-12  0.17120000000E+03  0.17120000000E+03 0.  0.
         13    1    1    2    0    0  0.13432071865E+01  0.46610266204E+02  0.25327557642E+03  0.25753223079E+03  0.10566000000E+00 0.  1.
        994    1    1    2    0    0  0.64206898786E+02 -0.31872174889E+02  0.21817775013E+02  0.18687914996E+03  0.17120000000E+03 0.  0.
        998    1    1    2    0    0 -0.65550105972E+02 -0.14738091315E+02  0.12249066448E+04  0.12267886193E+04  0.10000000000E+02 0. -1.
</event>
<event>
 5    1  0.1141915E-008  0.3840679E+03  0.7957747E-01  0.3433635E+00
         13   -1    0    0    0    0  0.00000000000E+00  0.00000000000E+00  0.14999999963E+04  0.15000000000E+04  0.10566000000E+00 0.  1.
        994   -1    0    0    0    0 -0.00000000000E+00 -0.00000000000E+00  0.11368683772E-12  0.17120000000E+03  0.17120000000E+03 0.  0.
         13    1    1    2    0    0 -0.21610847623E+03 -0.40625596520E+02  0.10553852370E+04  0.10780497772E+04  0.10566000000E+00 0.  1.
        994    1    1    2    0    0  0.23516693314E+03  0.27622552484E+02  0.21651434092E+03  0.36366796900E+03  0.17120000000E+03 0.  0.
        998    1    1    2    0    0 -0.19058456905E+02  0.13003044037E+02  0.22810041836E+03  0.22948225376E+03  0.10000000000E+02 0.  1.
</event>
<event>
 5    1  0.1141915E-008  0.3828772E+03  0.7957747E-01  0.3438726E+00
         13   -1    0    0    0    0  0.00000000000E+00  0.00000000000E+00  0.14999999963E+04  0.15000000000E+04  0.10566000000E+00 0. -1.
        994   -1    0    0    0    0 -0.00000000000E+00 -0.00000000000E+00  0.11368683772E-12  0.17120000000E+03  0.17120000000E+03 0.  0.
         13    1    1    2    0    0  0.94801273698E+01  0.11335944763E+02  0.36049528706E+02  0.38960956644E+02  0.10566000000E+00 0. -1.
        994    1    1    2    0    0 -0.33030919128E+02 -0.18418977268E+02  0.74386058299E+01  0.17548525066E+03  0.17120000000E+03 0.  0.
        998    1    1    2    0    0  0.23550791759E+02  0.70830325046E+01  0.14565118617E+04  0.14567537927E+04  0.10000000000E+02 0. -1.
</event>
<event>
 5    1  0.1141915E-008  0.3760705E+03  0.7957747E-01  0.3468449E+00
         13   -1    0    0    0    0  0.00000000000E+00  0.00000000000E+00  0.14999999963E+04  0.15000000000E+04  0.10566000000E+00 0.  1.
        994   -1    0    0    0    0 -0.00000000000E+00 -0.00000000000E+00  0.11368683772E-12  0.17120000000E+03  0.17120000000E+03 0.  0.
         13    1    1    2    0    0 -0.68827200029E+01 -0.10088427882E+02  0.93578453440E+01  0.15385988603E+02  0.10566000000E+00 0.  1.
        994    1    1    2    0    0  0.49744886049E+01  0.99190691424E+01  0.65471923712E+01  0.17168412622E+03  0.17120000000E+03 0.  0.
        998    1    1    2    0    0  0.19082313980E+01  0.16935873943E+00  0.14840949586E+04  0.14841298852E+04  0.10000000000E+02 0.  0.
</event>
<event>
 5    1  0.1141915E-008  0.3775311E+03  0.7957747E-01  0.3461980E+00
         13   -1    0    0    0    0  0.00000000000E+00  0.00000000000E+00  0.14999999963E+04  0.15000000000E+04  0.10566000000E+00 0. -1.
        994   -1    0    0    0    0 -0.00000000000E+00 -0.00000000000E+00  0.11368683772E-12  0.17120000000E+03  0.17120000000E+03 0.  0.
         13    1    1    2    0    0  0.78282307351E+01 -0.64378669874E+02  0.32825666191E+03  0.33460176566E+03  0.10566000000E+00 0. -1.
        994    1    1    2    0    0 -0.79347662111E+01  0.56136726697E+02  0.16295900811E+02  0.18107812950E+03  0.17120000000E+03 0.  0.
        998    1    1    2    0    0  0.10653547597E+00  0.82419431767E+01  0.11554474336E+04  0.11555201048E+04  0.10000000000E+02 0. -1.
</event>
<event>
 5    1  0.1141915E-008  0.3803765E+03  0.7957747E-01  0.3449521E+00
         13   -1    0    0    0    0  0.00000000000E+00  0.00000000000E+00  0.14999999963E+04  0.15000000000E+04  0.10566000000E+00 0.  1.
        994   -1    0    0    0    0 -0.00000000000E+00 -0.00000000000E+00  0.11368683772E-12  0.17120000000E+03  0.17120000000E+03 0.  0.
         13    1    1    2    0    0 -0.18327262217E+02  0.35939141938E+02  0.17831122698E+03  0.18281798406E+03  0.10566000000E+00 0.  1.
        994    1    1    2    0    0  0.24999148151E+02 -0.36173377366E+02  0.10425726427E+02  0.17706384840E+03  0.17120000000E+03 0.  0.
        998    1    1    2    0    0 -0.66718859334E+01  0.23423542853E+00  0.13112630429E+04  0.13113181675E+04  0.10000000000E+02 0.  1.
</event>
<event>
 5    1  0.1141915E-008  0.3786416E+03  0.7957747E-01  0.3457095E+00
         13   -1    0    0    0    0  0.00000000000E+00  0.00000000000E+00  0.14999999963E+04  0.15000000000E+04  0.10566000000E+00 0. -1.
        994   -1    0    0    0    0 -0.00000000000E+00 -0.00000000000E+00  0.11368683772E-12  0.17120000000E+03  0.17120000000E+03 0.  0.
         13    1    1    2    0    0  0.26952817831E+02 -0.19734571844E+02  0.13443787458E+03  0.13852603004E+03  0.10566000000E+00 0. -1.
        994    1    1    2    0    0  0.35577023219E+01 -0.99668490493E+01  0.51965917641E+01  0.17160547745E+03  0.17120000000E+03 0.  0.
        998    1    1    2    0    0 -0.30510520153E+02  0.29701420894E+02  0.13603655299E+04  0.13610684925E+04  0.10000000000E+02 0. -1.
</event>
<event>
 5    1  0.1141915E-008  0.3730638E+03  0.7957747E-01  0.3481928E+00
         13   -1    0    0    0    0  0.00000000000E+00  0.00000000000E+00  0.14999999963E+04  0.15000000000E+04  0.10566000000E+00 0. -1.
        994   -1    0    0    0    0 -0.00000000000E+00 -0.00000000000E+00  0.11368683772E-12  0.17120000000E+03  0.17120000000E+03 0.  0.
         13    1    1    2    0    0  0.47386041604E+02 -0.25883841017E+02  0.23106572035E+03  0.23729051488E+03  0.10566000000E+00 0. -1.
        994    1    1    2    0    0 -0.23002827301E+01 -0.81738053439E+01  0.79231436775E+01  0.17159346899E+03  0.17120000000E+03 0.  0.
        998    1    1    2    0    0 -0.45085758874E+02  0.34057646361E+02  0.12610111322E+04  0.12623160161E+04  0.10000000000E+02 0. -1.
</event>
<event>
 5    1  0.1141915E-008  0.3814436E+03  0.7957747E-01  0.3444897E+00
         13   -1    0    0    0    0  0.00000000000E+00  0.00000000000E+00  0.14999999963E+04  0.15000000000E+04  0.10566000000E+00 0.  1.
        994   -1    0    0    0    0 -0.00000000000E+00 -0.00000000000E+00  0.11368683772E-12  0.17120000000E+03  0.17120000000E+03 0.  0.
         13    1    1    2    0    0  0.40106942405E+01  0.10321480833E+03  0.62217571135E+03  0.63069169114E+03  0.10566000000E+00 0.  1.
        994    1    1    2    0    0 -0.29938786671E+02 -0.12592356198E+03  0.61311977930E+02  0.22320769038E+03  0.17120000000E+03 0.  0.
        998    1    1    2    0    0  0.25928092430E+02  0.22708753646E+02  0.81651230700E+03  0.81730061847E+03  0.10000000000E+02 0.  1.
</event>
<event>
 5    1  0.1141915E-008  0.3805439E+03  0.7957747E-01  0.3448794E+00
         13   -1    0    0    0    0  0.00000000000E+00  0.00000000000E+00  0.14999999963E+04  0.15000000000E+04  0.10566000000E+00 0.  1.
        994   -1    0    0    0    0 -0.00000000000E+00 -0.00000000000E+00  0.11368683772E-12  0.17120000000E+03  0.17120000000E+03 0.  0.
         13    1    1    2    0    0  0.59527516674E+01 -0.17918873750E+02  0.33146229724E+01  0.19170789717E+02  0.10566000000E+00 0.  1.
        994    1    1    2    0    0 -0.45652712902E+01  0.13538334300E+02  0.17367920572E+02  0.17267082227E+03  0.17120000000E+03 0.  0.
        998    1    1    2    0    0 -0.13874803772E+01  0.43805394504E+01  0.14793174527E+04  0.14793583880E+04  0.10000000000E+02 0.  1.
</event>
<event>
 5    1  0.1141915E-008  0.3856346E+03  0.7957747E-01  0.3426985E+00
         13   -1    0    0    0    0  0.00000000000E+00  0.00000000000E+00  0.14999999963E+04  0.15000000000E+04  0.10566000000E+00 0. -1.
        994   -1    0    0    0    0 -0.00000000000E+00 -0.00000000000E+00  0.11368683772E-12  0.17120000000E+03  0.17120000000E+03 0.  0.
         13    1    1    2    0    0  0.99661758388E+01 -0.61268677178E+01  0.52289145096E+02  0.53581984171E+02  0.10566000000E+00 0. -1.
        994    1    1    2    0    0 -0.54011152453E+01  0.65756554657E+01  0.15530707423E+01  0.17141838676E+03  0.17120000000E+03 0.  0.
        998    1    1    2    0    0 -0.45650605935E+01 -0.44878774791E+00  0.14461577804E+04  0.14461996291E+04  0.10000000000E+02 0. -1.
</event>
<event>
 5    1  0.1141915E-008  0.3818920E+03  0.7957747E-01  0.3442962E+00
         13   -1    0    0    0    0  0.00000000000E+00  0.00000000000E+00  0.14999999963E+04  0.15000000000E+04  0.10566000000E+00 0. -1.
        994   -1    0    0    0    0 -0.00000000000E+00 -0.00000000000E+00  0.11368683772E-12  0.17120000000E+03  0.17120000000E+03 0.  0.
         13    1    1    2    0    0  0.26737196510E+02 -0.87098330588E+01  0.12285739576E+03  0.12603447833E+03  0.10566000000E+00 0. -1.
        994    1    1    2    0    0 -0.16019634269E+02  0.71227991140E+01  0.42028887378E+01  0.17214664453E+03  0.17120000000E+03 0.  0.
        998    1    1    2    0    0 -0.10717562241E+02  0.15870339447E+01  0.13729397118E+04  0.13730188771E+04  0.10000000000E+02 0. -1.
</event>
<event>
 5    1  0.1141915E-008  0.3948749E+03  0.7957747E-01  0.3388841E+00
         13   -1    0    0    0    0  0.00000000000E+00  0.00000000000E+00  0.14999999963E+04  0.15000000000E+04  0.10566000000E+00 0.  1.
        994   -1    0    0    0    0 -0.00000000000E+00 -0.00000000000E+00  0.11368683772E-12  0.17120000000E+03  0.17120000000E+03 0.  0.
         13    1    1    2    0    0  0.86828911594E+02  0.20430543804E+02  0.14186855316E+03  0.16758091941E+03  0.10566000000E+00 0.  1.
        994    1    1    2    0    0 -0.78626442851E+02 -0.30080021951E+02  0.52475874134E+02  0.19786379811E+03  0.17120000000E+03 0.  0.
        998    1    1    2    0    0 -0.82024687432E+01  0.96494781471E+01  0.13056555690E+04  0.13057552825E+04  0.10000000000E+02 0.  1.
</event>
<event>
 5    1  0.1141915E-008  0.3842224E+03  0.7957747E-01  0.3432977E+00
         13   -1    0    0    0    0  0.00000000000E+00  0.00000000000E+00  0.14999999963E+04  0.15000000000E+04  0.10566000000E+00 0.  1.
        994   -1    0    0    0    0 -0.00000000000E+00 -0.00000000000E+00  0.11368683772E-12  0.17120000000E+03  0.17120000000E+03 0.  0.
         13    1    1    2    0    0 -0.13153578243E+02  0.31331281725E+01  0.48507084387E+02  0.50356543889E+02  0.10566000000E+00 0.  1.
        994    1    1    2    0    0 -0.65719868238E+01 -0.10054580907E+01  0.21624317922E+01  0.17134269190E+03  0.17120000000E+03 0.  0.
        998    1    1    2    0    0  0.19725565067E+02 -0.21276700818E+01  0.14493304801E+04  0.14495007642E+04  0.10000000000E+02 0.  1.
</event>
<event>
 5    1  0.1141915E-008  0.3285962E+03  0.7957747E-01  0.3710893E+00
         13   -1    0    0    0    0  0.00000000000E+00  0.00000000000E+00  0.14999999963E+04  0.15000000000E+04  0.10566000000E+00 0.  1.
        994   -1    0    0    0    0 -0.00000000000E+00 -0.00000000000E+00  0.11368683772E-12  0.17120000000E+03  0.17120000000E+03 0.  0.
         13    1    1    2    0    0 -0.13110393850E+03  0.17650092240E+03  0.87925327064E+03  0.90632617936E+03  0.10566000000E+00 0.  1.
        994    1    1    2    0    0  0.82092533284E+02 -0.15935662337E+03  0.14700511479E+03  0.28819032116E+03  0.17120000000E+03 0.  0.
        998    1    1    2    0    0  0.49011405213E+02 -0.17144299030E+02  0.47374161085E+03  0.47668349948E+03  0.10000000000E+02 0.  1.
</event>
<event>
 5    1  0.1141915E-008  0.3713409E+03  0.7957747E-01  0.3489751E+00
         13   -1    0    0    0    0  0.00000000000E+00  0.00000000000E+00  0.14999999963E+04  0.15000000000E+04  0.10566000000E+00 0.  1.
        994   -1    0    0    0    0 -0.00000000000E+00 -0.00000000000E+00  0.11368683772E-12  0.17120000000E+03  0.17120000000E+03 0.  0.
         13    1    1    2    0    0  0.40794197347E+02  0.50638621592E+02  0.28624275345E+03  0.29353596304E+03  0.10566000000E+00 0.  1.
        994    1    1    2    0    0 -0.11845574566E+02 -0.82234626274E+01  0.92858799270E+01  0.17205699794E+03  0.17120000000E+03 0.  0.
        998    1    1    2    0    0 -0.28948622781E+02 -0.42415158964E+02  0.12044713629E+04  0.12056070390E+04  0.10000000000E+02 0.  1.
</event>
<event>
 5    1  0.1141915E-008  0.3765047E+03  0.7957747E-01  0.3466520E+00
         13   -1    0    0    0    0  0.00000000000E+00  0.00000000000E+00  0.14999999963E+04  0.15000000000E+04  0.10566000000E+00 0. -1.
        994   -1    0    0    0    0 -0.00000000000E+00 -0.00000000000E+00  0.11368683772E-12  0.17120000000E+03  0.17120000000E+03 0.  0.
         13    1    1    2    0    0 -0.36812237020E+02  0.15008040898E+02  0.12363292093E+03  0.12986721059E+03  0.10566000000E+00 0. -1.
        994    1    1    2    0    0  0.36067268153E+02 -0.88071542012E+01  0.10584111683E+02  0.17549893794E+03  0.17120000000E+03 0.  0.
        998    1    1    2    0    0  0.74496886679E+00 -0.62008866967E+01  0.13657829637E+04  0.13658338515E+04  0.10000000000E+02 0. -1.
</event>
<event>
 5    1  0.1141915E-008  0.3852106E+03  0.7957747E-01  0.3428780E+00
         13   -1    0    0    0    0  0.00000000000E+00  0.00000000000E+00  0.14999999963E+04  0.15000000000E+04  0.10566000000E+00 0. -1.
        994   -1    0    0    0    0 -0.00000000000E+00 -0.00000000000E+00  0.11368683772E-12  0.17120000000E+03  0.17120000000E+03 0.  0.
         13    1    1    2    0    0 -0.43405489780E+01  0.94509922563E+01  0.37837180893E+02  0.39240604506E+02  0.10566000000E+00 0. -1.
        994    1    1    2    0    0  0.36923977898E+01  0.84416278460E+01  0.18046660173E+01  0.17145725911E+03  0.17120000000E+03 0.  0.
        998    1    1    2    0    0  0.64815118827E+00 -0.17892620102E+02  0.14603581494E+04  0.14605021364E+04  0.10000000000E+02 0. -1.
</event>
<event>
 5    1  0.1141915E-008  0.3859668E+03  0.7957747E-01  0.3425582E+00
         13   -1    0    0    0    0  0.00000000000E+00  0.00000000000E+00  0.14999999963E+04  0.15000000000E+04  0.10566000000E+00 0. -1.
        994   -1    0    0    0    0 -0.00000000000E+00 -0.00000000000E+00  0.11368683772E-12  0.17120000000E+03  0.17120000000E+03 0.  0.
         13    1    1    2    0    0 -0.10256274698E+02  0.77313934037E+01  0.73012495993E+02  0.74133672172E+02  0.10566000000E+00 0. -1.
        994    1    1    2    0    0 -0.23856261029E+01 -0.16278547808E+02  0.20387798040E+01  0.17200081091E+03  0.17120000000E+03 0.  0.
        998    1    1    2    0    0  0.12641900801E+02  0.85471544043E+01  0.14249487205E+04  0.14250655169E+04  0.10000000000E+02 0. -1.
</event>
<event>
 5    1  0.1141915E-008  0.3823839E+03  0.7957747E-01  0.3440844E+00
         13   -1    0    0    0    0  0.00000000000E+00  0.00000000000E+00  0.14999999963E+04  0.15000000000E+04  0.10566000000E+00 0.  1.
        994   -1    0    0    0    0 -0.00000000000E+00 -0.00000000000E+00  0.11368683772E-12  0.17120000000E+03  0.17120000000E+03 0.  0.
         13    1    1    2    0    0  0.11774761368E+02  0.30703502136E+01  0.24087525827E+02  0.26986887931E+02  0.10566000000E+00 0.  1.
        994    1    1    2    0    0 -0.89310737672E+01 -0.12986676286E+01  0.32047884551E+01  0.17146766834E+03  0.17120000000E+03 0.  0.
        998    1    1    2    0    0 -0.28436876008E+01 -0.17716825850E+01  0.14727076820E+04  0.14727454437E+04  0.10000000000E+02 0.  1.
</event>
<event>
 5    1  0.1141915E-008  0.3825276E+03  0.7957747E-01  0.3440226E+00
         13   -1    0    0    0    0  0.00000000000E+00  0.00000000000E+00  0.14999999963E+04  0.15000000000E+04  0.10566000000E+00 0.  1.
        994   -1    0    0    0    0 -0.00000000000E+00 -0.00000000000E+00  0.11368683772E-12  0.17120000000E+03  0.17120000000E+03 0.  0.
         13    1    1    2    0    0 -0.16431242633E+01  0.20458122788E+02  0.72554020219E+02  0.75401138316E+02  0.10566000000E+00 0.  1.
        994    1    1    2    0    0 -0.83450551540E+00 -0.13538523622E+02  0.34728113456E+01  0.17177161710E+03  0.17120000000E+03 0.  0.
        998    1    1    2    0    0  0.24776297787E+01 -0.69195991655E+01  0.14239731647E+04  0.14240272446E+04  0.10000000000E+02 0.  1.
</event>
<event>
 5    1  0.1141915E-008  0.3737680E+03  0.7957747E-01  0.3478751E+00
         13   -1    0    0    0    0  0.00000000000E+00  0.00000000000E+00  0.14999999963E+04  0.15000000000E+04  0.10566000000E+00 0. -1.
        994   -1    0    0    0    0 -0.00000000000E+00 -0.00000000000E+00  0.11368683772E-12  0.17120000000E+03  0.17120000000E+03 0.  0.
         13    1    1    2    0    0  0.60615759370E+02  0.34391784061E+02  0.37969837947E+03  0.38604136518E+03  0.10566000000E+00 0. -1.
        994    1    1    2    0    0 -0.34392331752E+02  0.10609935150E+02  0.11747316587E+02  0.17533637003E+03  0.17120000000E+03 0.  0.
        998    1    1    2    0    0 -0.26223427618E+02 -0.45001719211E+02  0.11085543002E+04  0.11098222648E+04  0.10000000000E+02 0. -1.
</event>
<event>
 5    1  0.1141915E-008  0.3701994E+03  0.7957747E-01  0.3494975E+00
         13   -1    0    0    0    0  0.00000000000E+00  0.00000000000E+00  0.14999999963E+04  0.15000000000E+04  0.10566000000E+00 0.  1.
        994   -1    0    0    0    0 -0.00000000000E+00 -0.00000000000E+00  0.11368683772E-12  0.17120000000E+03  0.17120000000E+03 0.  0.
         13    1    1    2    0    0  0.23406746929E+02 -0.13712079753E+01  0.19939076797E+02  0.30778790760E+02  0.10566000000E+00 0.  1.
        994    1    1    2    0    0 -0.22840017453E+02 -0.12015889019E+01  0.12876483085E+02  0.17320032918E+03  0.17120000000E+03 0.  0.
        998    1    1    2    0    0 -0.56672947565E+00  0.25727968772E+01  0.14671844364E+04  0.14672208801E+04  0.10000000000E+02 0.  1.
</event>
<event>
 5    1  0.1141915E-008  0.3705814E+03  0.7957747E-01  0.3493223E+00
         13   -1    0    0    0    0  0.00000000000E+00  0.00000000000E+00  0.14999999963E+04  0.15000000000E+04  0.10566000000E+00 0.  1.
        994   -1    0    0    0    0 -0.00000000000E+00 -0.00000000000E+00  0.11368683772E-12  0.17120000000E+03  0.17120000000E+03 0.  0.
         13    1    1    2    0    0 -0.29214523815E+01  0.29321268038E+02  0.33617769474E+02  0.44703883856E+02  0.10566000000E+00 0.  1.
        994    1    1    2    0    0  0.50786873748E+01 -0.25813500066E+02  0.13674960717E+02  0.17374859539E+03  0.17120000000E+03 0.  0.
        998    1    1    2    0    0 -0.21572349933E+01 -0.35077679725E+01  0.14527072661E+04  0.14527475207E+04  0.10000000000E+02 0.  1.
</event>
<event>
 5    1  0.1141915E-008  0.3748996E+03  0.7957747E-01  0.3473672E+00
         13   -1    0    0    0    0  0.00000000000E+00  0.00000000000E+00  0.14999999963E+04  0.15000000000E+04  0.10566000000E+00 0.  1.
        994   -1    0    0    0    0 -0.00000000000E+00 -0.00000000000E+00  0.11368683772E-12  0.17120000000E+03  0.17120000000E+03 0.  0.
         13    1    1    2    0    0  0.99004221777E+01  0.24672419870E+02  0.47553681750E+02  0.54480367781E+02  0.10566000000E+00 0.  1.
        994    1    1    2    0    0 -0.15499959282E+02 -0.29179323292E+02  0.10451401932E+02  0.17467213129E+03  0.17120000000E+03 0.  0.
        998    1    1    2    0    0  0.55995371046E+01  0.45069034228E+01  0.14419949126E+04  0.14420475009E+04  0.10000000000E+02 0.  1.
</event>
<event>
 5    1  0.1141915E-008  0.3687295E+03  0.7957747E-01  0.3501750E+00
         13   -1    0    0    0    0  0.00000000000E+00  0.00000000000E+00  0.14999999963E+04  0.15000000000E+04  0.10566000000E+00 0.  1.
        994   -1    0    0    0    0 -0.00000000000E+00 -0.00000000000E+00  0.11368683772E-12  0.17120000000E+03  0.17120000000E+03 0.  0.
         13    1    1    2    0    0  0.31297570767E+02 -0.38978686907E+02  0.12331586083E+03  0.13306272456E+03  0.10566000000E+00 0.  1.
        994    1    1    2    0    0  0.22005922069E+02  0.55774209965E+02  0.22525639410E+02  0.18278913407E+03  0.17120000000E+03 0.  0.
        998    1    1    2    0    0 -0.53303492836E+02 -0.16795523058E+02  0.13541584960E+04  0.13553481414E+04  0.10000000000E+02 0.  1.
</event>
<event>
 5    1  0.1141915E-008  0.3804638E+03  0.7957747E-01  0.3449141E+00
         13   -1    0    0    0    0  0.00000000000E+00  0.00000000000E+00  0.14999999963E+04  0.15000000000E+04  0.10566000000E+00 0. -1.
        994   -1    0    0    0    0 -0.00000000000E+00 -0.00000000000E+00  0.11368683772E-12  0.17120000000E+03  0.17120000000E+03 0.  0.
         13    1    1    2    0    0  0.40552902476E+02 -0.21689628571E+02  0.22436377948E+03  0.22902858903E+03  0.10566000000E+00 0. -1.
        994    1    1    2    0    0 -0.49907079004E+02  0.12964044128E+02  0.12825170773E+02  0.17925598450E+03  0.17120000000E+03 0.  0.
        998    1    1    2    0    0  0.93541765274E+01  0.87255844432E+01  0.12628110460E+04  0.12629154265E+04  0.10000000000E+02 0. -1.
</event>
<event>
 5    1  0.1141915E-008  0.3823449E+03  0.7957747E-01  0.3441011E+00
         13   -1    0    0    0    0  0.00000000000E+00  0.00000000000E+00  0.14999999963E+04  0.15000000000E+04  0.10566000000E+00 0. -1.
        994   -1    0    0    0    0 -0.00000000000E+00 -0.00000000000E+00  0.11368683772E-12  0.17120000000E+03  0.17120000000E+03 0.  0.
         13    1    1    2    0    0 -0.10842615716E+02  0.81335323568E+01  0.29139144841E+02  0.32137479525E+02  0.10566000000E+00 0. -1.
        994    1    1    2    0    0  0.20759931956E+02 -0.24018601901E+01  0.44042035304E+01  0.17252704343E+03  0.17120000000E+03 0.  0.
        998    1    1    2    0    0 -0.99173162397E+01 -0.57316721668E+01  0.14664566479E+04  0.14665354770E+04  0.10000000000E+02 0. -1.
</event>
<event>
 5    1  0.1141915E-008  0.3776659E+03  0.7957747E-01  0.3461385E+00
         13   -1    0    0    0    0  0.00000000000E+00  0.00000000000E+00  0.14999999963E+04  0.15000000000E+04  0.10566000000E+00 0.  1.
        994   -1    0    0    0    0 -0.00000000000E+00 -0.00000000000E+00  0.11368683772E-12  0.17120000000E+03  0.17120000000E+03 0.  0.
         13    1    1    2    0    0 -0.19207565222E+02  0.46142987311E+02  0.20040080810E+03  0.20653958674E+03  0.10566000000E+00 0.  1.
        994    1    1    2    0    0  0.21689748258E+02 -0.47515805948E+02  0.14562868256E+02  0.17958205402E+03  0.17120000000E+03 0.  0.
        998    1    1    2    0    0 -0.24821830362E+01  0.13728186369E+01  0.12850363199E+04  0.12850783592E+04  0.10000000000E+02 0.  1.
</event>
<event>
 5    1  0.1141915E-008  0.3806624E+03  0.7957747E-01  0.3448279E+00
         13   -1    0    0    0    0  0.00000000000E+00  0.00000000000E+00  0.14999999963E+04  0.15000000000E+04  0.10566000000E+00 0.  1.
        994   -1    0    0    0    0 -0.00000000000E+00 -0.00000000000E+00  0.11368683772E-12  0.17120000000E+03  0.17120000000E+03 0.  0.
         13    1    1    2    0    0 -0.19745125337E+02  0.58478115477E+01  0.54990392365E+02  0.58719854316E+02  0.10566000000E+00 0.  1.
        994    1    1    2    0    0  0.12378743288E+02  0.35630049324E+01  0.43528232231E+01  0.17173909095E+03  0.17120000000E+03 0.  0.
        998    1    1    2    0    0  0.73663820483E+01 -0.94108164800E+01  0.14406567807E+04  0.14407410547E+04  0.10000000000E+02 0.  1.
</event>
<event>
 5    1  0.1141915E-008  0.3722689E+03  0.7957747E-01  0.3485528E+00
         13   -1    0    0    0    0  0.00000000000E+00  0.00000000000E+00  0.14999999963E+04  0.15000000000E+04  0.10566000000E+00 0.  1.
        994   -1    0    0    0    0 -0.00000000000E+00 -0.00000000000E+00  0.11368683772E-12  0.17120000000E+03  0.17120000000E+03 0.  0.
         13    1    1    2    0    0  0.14025056673E+02 -0.86330676120E+01  0.58395633184E+01  0.17474087526E+02  0.10566000000E+00 0.  1.
        994    1    1    2    0    0 -0.12216179658E+02 -0.13203780022E+02  0.13284647402E+02  0.17265426930E+03  0.17120000000E+03 0.  0.
        998    1    1    2    0    0 -0.18088770148E+01  0.21836847634E+02  0.14808757856E+04  0.14810716432E+04  0.10000000000E+02 0.  1.
</event>
<event>
 5    1  0.1141915E-008  0.3800394E+03  0.7957747E-01  0.3450987E+00
         13   -1    0    0    0    0  0.00000000000E+00  0.00000000000E+00  0.14999999963E+04  0.15000000000E+04  0.10566000000E+00 0.  1.
        994   -1    0    0    0    0 -0.00000000000E+00 -0.00000000000E+00  0.11368683772E-12  0.17120000000E+03  0.17120000000E+03 0.  0.
         13    1    1    2    0    0 -0.16614430110E+01  0.29495921768E+02  0.10756094222E+03  0.11154432863E+03  0.10566000000E+00 0.  1.
        994    1    1    2    0    0 -0.22187391419E+01 -0.12973858942E+02  0.46925153112E+01  0.17176933230E+03  0.17120000000E+03 0.  0.
        998    1    1    2    0    0  0.38801821529E+01 -0.16522062826E+02  0.13877465387E+04  0.13878863391E+04  0.10000000000E+02 0.  1.
</event>
<event>
 5    1  0.1141915E-008  0.3796400E+03  0.7957747E-01  0.3452727E+00
         13   -1    0    0    0    0  0.00000000000E+00  0.00000000000E+00  0.14999999963E+04  0.15000000000E+04  0.10566000000E+00 0.  1.
        994   -1    0    0    0    0 -0.00000000000E+00 -0.00000000000E+00  0.11368683772E-12  0.17120000000E+03  0.17120000000E+03 0.  0.
         13    1    1    2    0    0  0.59602558206E+02 -0.21118198616E+02  0.31472214489E+03  0.32101165540E+03  0.10566000000E+00 0.  1.
        994    1    1    2    0    0 -0.77782997868E+02  0.18139665162E+02  0.25970200355E+02  0.19069119937E+03  0.17120000000E+03 0.  0.
        998    1    1    2    0    0  0.18180439662E+02  0.29785334542E+01  0.11593076510E+04  0.11594971452E+04  0.10000000000E+02 0.  1.
</event>
<event>
 5    1  0.1141915E-008  0.3766565E+03  0.7957747E-01  0.3465847E+00
         13   -1    0    0    0    0  0.00000000000E+00  0.00000000000E+00  0.14999999963E+04  0.15000000000E+04  0.10566000000E+00 0. -1.
        994   -1    0    0    0    0 -0.00000000000E+00 -0.00000000000E+00  0.11368683772E-12  0.17120000000E+03  0.17120000000E+03 0.  0.
         13    1    1    2    0    0  0.12590542049E+02 -0.10631001066E+02  0.21926536337E+02  0.27428526984E+02  0.10566000000E+00 0. -1.
        994    1    1    2    0    0  0.22188958011E+01 -0.11780313487E+02  0.63164464910E+01  0.17173536846E+03  0.17120000000E+03 0.  0.
        998    1    1    2    0    0 -0.14809437850E+02  0.22411314553E+02  0.14717570135E+04  0.14720361046E+04  0.10000000000E+02 0. -1.
</event>
<event>
 5    1  0.1141915E-008  0.3854176E+03  0.7957747E-01  0.3427903E+00
         13   -1    0    0    0    0  0.00000000000E+00  0.00000000000E+00  0.14999999963E+04  0.15000000000E+04  0.10566000000E+00 0. -1.
        994   -1    0    0    0    0 -0.00000000000E+00 -0.00000000000E+00  0.11368683772E-12  0.17120000000E+03  0.17120000000E+03 0.  0.
         13    1    1    2    0    0  0.13986646663E+02  0.10953932070E+02  0.10355479186E+03  0.10506769720E+03  0.10566000000E+00 0. -1.
        994    1    1    2    0    0 -0.10784557836E+02 -0.18704837714E+02  0.29554534407E+01  0.17258143685E+03  0.17120000000E+03 0.  0.
        998    1    1    2    0    0 -0.32020888269E+01  0.77509056435E+01  0.13934897510E+04  0.13935508659E+04  0.10000000000E+02 0. -1.
</event>
<event>
 5    1  0.2349854E-008  0.3863843E+03  0.7957747E-01  0.3423822E+00
         13   -1    0    0    0    0  0.00000000000E+00  0.00000000000E+00  0.14999999963E+04  0.15000000000E+04  0.10566000000E+00 0.  1.
        994   -1    0    0    0    0 -0.00000000000E+00 -0.00000000000E+00  0.11368683772E-12  0.17120000000E+03  0.17120000000E+03 0.  0.
         13    1    1    2    0    0 -0.80543665559E+01 -0.70334754241E+01  0.60199163430E+02  0.61141581914E+02  0.10566000000E+00 0.  1.
        994    1    1    2    0    0  0.67125383493E+01  0.79459384572E+01  0.12987069365E+01  0.17152061902E+03  0.17120000000E+03 0.  0.
        998    1    1    2    0    0  0.13418282065E+01 -0.91246303310E+00  0.14385021259E+04  0.14385377991E+04  0.10000000000E+02 0.  1.
</event>
<event>
 5    1  0.1141915E-008  0.3789495E+03  0.7957747E-01  0.3455746E+00
         13   -1    0    0    0    0  0.00000000000E+00  0.00000000000E+00  0.14999999963E+04  0.15000000000E+04  0.10566000000E+00 0.  1.
        994   -1    0    0    0    0 -0.00000000000E+00 -0.00000000000E+00  0.11368683772E-12  0.17120000000E+03  0.17120000000E+03 0.  0.
         13    1    1    2    0    0 -0.47418187847E+02 -0.11153569194E+03  0.71295776246E+03  0.72318564514E+03  0.10566000000E+00 0.  1.
        994    1    1    2    0    0  0.56616425592E+02  0.11373197529E+03  0.60866580282E+02  0.22170828231E+03  0.17120000000E+03 0.  0.
        998    1    1    2    0    0 -0.91982377451E+01 -0.21962833491E+01  0.72617565353E+03  0.72630607255E+03  0.10000000000E+02 0.  1.
</event>
<event>
 5    1  0.1141915E-008  0.3826470E+03  0.7957747E-01  0.3439713E+00
         13   -1    0    0    0    0  0.00000000000E+00  0.00000000000E+00  0.14999999963E+04  0.15000000000E+04  0.10566000000E+00 0.  1.
        994   -1    0    0    0    0 -0.00000000000E+00 -0.00000000000E+00  0.11368683772E-12  0.17120000000E+03  0.17120000000E+03 0.  0.
         13    1    1    2    0    0  0.15815005925E+02  0.87010572470E+01  0.54448710149E+02  0.57362845209E+02  0.10566000000E+00 0.  1.
        994    1    1    2    0    0 -0.27460819169E+02  0.23392456796E+01  0.53241359999E+01  0.17348589304E+03  0.17120000000E+03 0.  0.
        998    1    1    2    0    0  0.11645813244E+02 -0.11040302927E+02  0.14402271501E+04  0.14403512618E+04  0.10000000000E+02 0.  1.
</event>
<event>
 5    1  0.1141915E-008  0.3852560E+03  0.7957747E-01  0.3428587E+00
         13   -1    0    0    0    0  0.00000000000E+00  0.00000000000E+00  0.14999999963E+04  0.15000000000E+04  0.10566000000E+00 0.  1.
        994   -1    0    0    0    0 -0.00000000000E+00 -0.00000000000E+00  0.11368683772E-12  0.17120000000E+03  0.17120000000E+03 0.  0.
         13    1    1    2    0    0 -0.26412094414E+01 -0.10025837951E+02  0.35287173691E+02  0.36778923381E+02  0.10566000000E+00 0.  1.
        994    1    1    2    0    0  0.34972526409E+01  0.87983045998E+01  0.17977152497E+01  0.17147102589E+03  0.17120000000E+03 0.  0.
        998    1    1    2    0    0 -0.85604319946E+00  0.12275333516E+01  0.14629151073E+04  0.14629500507E+04  0.10000000000E+02 0.  1.
</event>
<event>
 5    1  0.1141915E-008  0.3782770E+03  0.7957747E-01  0.3458695E+00
         13   -1    0    0    0    0  0.00000000000E+00  0.00000000000E+00  0.14999999963E+04  0.15000000000E+04  0.10566000000E+00 0.  1.
        994   -1    0    0    0    0 -0.00000000000E+00 -0.00000000000E+00  0.11368683772E-12  0.17120000000E+03  0.17120000000E+03 0.  0.
         13    1    1    2    0    0 -0.12693402852E+02  0.99851558225E+01  0.22529351796E+02  0.27720185230E+02  0.10566000000E+00 0.  1.
        994    1    1    2    0    0  0.27975637536E+02 -0.19695871953E+02  0.89510384957E+01  0.17481454390E+03  0.17120000000E+03 0.  0.
        998    1    1    2    0    0 -0.15282234685E+02  0.97107161308E+01  0.14685196060E+04  0.14686652709E+04  0.10000000000E+02 0.  1.
</event>
<event>
 5    1  0.1141915E-008  0.3825321E+03  0.7957747E-01  0.3440207E+00
         13   -1    0    0    0    0  0.00000000000E+00  0.00000000000E+00  0.14999999963E+04  0.15000000000E+04  0.10566000000E+00 0. -1.
        994   -1    0    0    0    0 -0.00000000000E+00 -0.00000000000E+00  0.11368683772E-12  0.17120000000E+03  0.17120000000E+03 0.  0.
         13    1    1    2    0    0  0.10507684602E+02 -0.23243761178E+01  0.19068887693E+02  0.21896296534E+02  0.10566000000E+00 0. -1.
        994    1    1    2    0    0 -0.90302761582E+01 -0.26075393656E+00  0.31310198635E+01  0.17146678152E+03  0.17120000000E+03 0.  0.
        998    1    1    2    0    0 -0.14774084437E+01  0.25851300544E+01  0.14778000887E+04  0.14778369219E+04  0.10000000000E+02 0. -1.
</event>
<event>
 5    1  0.1141915E-008  0.3701714E+03  0.7957747E-01  0.3495104E+00
         13   -1    0    0    0    0  0.00000000000E+00  0.00000000000E+00  0.14999999963E+04  0.15000000000E+04  0.10566000000E+00 0.  1.
        994   -1    0    0    0    0 -0.00000000000E+00 -0.00000000000E+00  0.11368683772E-12  0.17120000000E+03  0.17120000000E+03 0.  0.
         13    1    1    2    0    0 -0.92607093343E+02  0.28942081114E+02  0.32168981556E+03  0.33600307498E+03  0.10566000000E+00 0.  1.
        994    1    1    2    0    0  0.95668672806E+02 -0.29774982737E+02  0.47023955114E+02  0.20386205362E+03  0.17120000000E+03 0.  0.
        998    1    1    2    0    0 -0.30615794634E+01  0.83290162251E+00  0.11312862256E+04  0.11313348714E+04  0.10000000000E+02 0.  0.
</event>
<event>
 5    1  0.1141915E-008  0.3718540E+03  0.7957747E-01  0.3487414E+00
         13   -1    0    0    0    0  0.00000000000E+00  0.00000000000E+00  0.14999999963E+04  0.15000000000E+04  0.10566000000E+00 0. -1.
        994   -1    0    0    0    0 -0.00000000000E+00 -0.00000000000E+00  0.11368683772E-12  0.17120000000E+03  0.17120000000E+03 0.  0.
         13    1    1    2    0    0  0.54655756480E+02 -0.18314625089E+02  0.17483862352E+03  0.18409571599E+03  0.10566000000E+00 0. -1.
        994    1    1    2    0    0 -0.55882541977E+02  0.15811395658E+02  0.19981770432E+02  0.18188339638E+03  0.17120000000E+03 0.  0.
        998    1    1    2    0    0  0.12267854970E+01  0.25032294308E+01  0.13051796023E+04  0.13052208876E+04  0.10000000000E+02 0. -1.
</event>
<event>
 5    1  0.1141915E-008  0.3846626E+03  0.7957747E-01  0.3431104E+00
         13   -1    0    0    0    0  0.00000000000E+00  0.00000000000E+00  0.14999999963E+04  0.15000000000E+04  0.10566000000E+00 0.  1.
        994   -1    0    0    0    0 -0.00000000000E+00 -0.00000000000E+00  0.11368683772E-12  0.17120000000E+03  0.17120000000E+03 0.  0.
         13    1    1    2    0    0  0.19818830002E+01 -0.12492281510E+02  0.44682066567E+02  0.46437949936E+02  0.10566000000E+00 0.  1.
        994    1    1    2    0    0 -0.32274917559E+01  0.61584270693E+01  0.19569224521E+01  0.17135230513E+03  0.17120000000E+03 0.  0.
        998    1    1    2    0    0  0.12456087557E+01  0.63338544408E+01  0.14533610073E+04  0.14534097449E+04  0.10000000000E+02 0.  1.
</event>
<event>
 5    1  0.1141915E-008  0.3842403E+03  0.7957747E-01  0.3432901E+00
         13   -1    0    0    0    0  0.00000000000E+00  0.00000000000E+00  0.14999999963E+04  0.15000000000E+04  0.10566000000E+00 0. -1.
        994   -1    0    0    0    0 -0.00000000000E+00 -0.00000000000E+00  0.11368683772E-12  0.17120000000E+03  0.17120000000E+03 0.  0.
         13    1    1    2    0    0  0.12874907583E+02  0.14448632490E+02  0.96083215628E+02  0.98012865052E+02  0.10566000000E+00 0. -1.
        994    1    1    2    0    0 -0.93978463532E+01 -0.17766730179E+01  0.23094171727E+01  0.17148250491E+03  0.17120000000E+03 0.  0.
        998    1    1    2    0    0 -0.34770612302E+01 -0.12671959472E+02  0.14016073635E+04  0.14017046300E+04  0.10000000000E+02 0. -1.
</event>
<event>
 5    1  0.1141915E-008  0.3770337E+03  0.7957747E-01  0.3464177E+00
         13   -1    0    0    0    0  0.00000000000E+00  0.00000000000E+00  0.14999999963E+04  0.15000000000E+04  0.10566000000E+00 0.  1.
        994   -1    0    0    0    0 -0.00000000000E+00 -0.00000000000E+00  0.11368683772E-12  0.17120000000E+03  0.17120000000E+03 0.  0.
         13    1    1    2    0    0 -0.13034745378E+02 -0.78398809152E+00  0.12562343777E+02  0.18120233707E+02  0.10566000000E+00 0.  1.
        994    1    1    2    0    0  0.11475891241E+02  0.33172743158E+01  0.61199718253E+01  0.17172534596E+03  0.17120000000E+03 0.  0.
        998    1    1    2    0    0  0.15588541372E+01 -0.25332862243E+01  0.14813176807E+04  0.14813544203E+04  0.10000000000E+02 0.  1.
</event>
<event>
 5    1  0.1141915E-008  0.2716938E+03  0.7957747E-01  0.4121419E+00
         13   -1    0    0    0    0  0.00000000000E+00  0.00000000000E+00  0.14999999963E+04  0.15000000000E+04  0.10566000000E+00 0. -1.
        994   -1    0    0    0    0 -0.00000000000E+00 -0.00000000000E+00  0.11368683772E-12  0.17120000000E+03  0.17120000000E+03 0.  0.
         13    1    1    2    0    0  0.16255585787E+03 -0.10762148398E+03  0.43398163405E+03  0.47575924646E+03  0.10566000000E+00 0. -1.
        994    1    1    2    0    0 -0.15156684641E+03  0.83073147888E+02  0.16497022126E+03  0.29393582758E+03  0.17120000000E+03 0.  0.
        998    1    1    2    0    0 -0.10989011456E+02  0.24548336089E+02  0.90104814097E+03  0.90150492596E+03  0.10000000000E+02 0. -1.
</event>
<event>
 5    1  0.1141915E-008  0.3766925E+03  0.7957747E-01  0.3465688E+00
         13   -1    0    0    0    0  0.00000000000E+00  0.00000000000E+00  0.14999999963E+04  0.15000000000E+04  0.10566000000E+00 0. -1.
        994   -1    0    0    0    0 -0.00000000000E+00 -0.00000000000E+00  0.11368683772E-12  0.17120000000E+03  0.17120000000E+03 0.  0.
         13    1    1    2    0    0  0.26216734349E+01  0.13276251173E+02  0.13114689765E+02  0.18845112588E+02  0.10566000000E+00 0. -1.
        994    1    1    2    0    0 -0.13327983245E+02 -0.96534357491E+01  0.67280371395E+01  0.17212068569E+03  0.17120000000E+03 0.  0.
        998    1    1    2    0    0  0.10706309810E+02 -0.36228154234E+01  0.14801572694E+04  0.14802342017E+04  0.10000000000E+02 0. -1.
</event>
<event>
 5    1  0.1141915E-008  0.3826747E+03  0.7957747E-01  0.3439594E+00
         13   -1    0    0    0    0  0.00000000000E+00  0.00000000000E+00  0.14999999963E+04  0.15000000000E+04  0.10566000000E+00 0. -1.
        994   -1    0    0    0    0 -0.00000000000E+00 -0.00000000000E+00  0.11368683772E-12  0.17120000000E+03  0.17120000000E+03 0.  0.
         13    1    1    2    0    0 -0.10759234238E+02 -0.16401718010E+02  0.64655838395E+02  0.67566012741E+02  0.10566000000E+00 0. -1.
        994    1    1    2    0    0  0.81380339173E+01  0.22467663815E+02  0.46834794908E+01  0.17292309994E+03  0.17120000000E+03 0.  0.
        998    1    1    2    0    0  0.26212003210E+01 -0.60659458049E+01  0.14306606784E+04  0.14307108873E+04  0.10000000000E+02 0. -1.
</event>
<event>
 5    1  0.1141915E-008  0.3744789E+03  0.7957747E-01  0.3475556E+00
         13   -1    0    0    0    0  0.00000000000E+00  0.00000000000E+00  0.14999999963E+04  0.15000000000E+04  0.10566000000E+00 0.  1.
        994   -1    0    0    0    0 -0.00000000000E+00 -0.00000000000E+00  0.11368683772E-12  0.17120000000E+03  0.17120000000E+03 0.  0.
         13    1    1    2    0    0 -0.66408666877E+02 -0.60926336550E+02  0.54049641405E+03  0.54795849686E+03  0.10566000000E+00 0.  1.
        994    1    1    2    0    0  0.33087047410E+02  0.52131532485E+02  0.20041538965E+02  0.18309438186E+03  0.17120000000E+03 0.  0.
        998    1    1    2    0    0  0.33321619467E+02  0.87948040647E+01  0.93946204327E+03  0.94014712127E+03  0.10000000000E+02 0.  1.
</event>
<event>
 5    1  0.1141915E-008  0.3843378E+03  0.7957747E-01  0.3432485E+00
         13   -1    0    0    0    0  0.00000000000E+00  0.00000000000E+00  0.14999999963E+04  0.15000000000E+04  0.10566000000E+00 0.  1.
        994   -1    0    0    0    0 -0.00000000000E+00 -0.00000000000E+00  0.11368683772E-12  0.17120000000E+03  0.17120000000E+03 0.  0.
         13    1    1    2    0    0  0.11066335580E+01  0.10205153762E+02  0.26409765663E+02  0.28334725824E+02  0.10566000000E+00 0.  1.
        994    1    1    2    0    0 -0.38834234381E+01 -0.63276618501E+01  0.21409451410E+01  0.17137428024E+03  0.17120000000E+03 0.  0.
        998    1    1    2    0    0  0.27767898801E+01 -0.38774919121E+01  0.14714492855E+04  0.14714909939E+04  0.10000000000E+02 0.  1.
</event>
<event>
 5    1  0.1141915E-008  0.3737063E+03  0.7957747E-01  0.3479029E+00
         13   -1    0    0    0    0  0.00000000000E+00  0.00000000000E+00  0.14999999963E+04  0.15000000000E+04  0.10566000000E+00 0. -1.
        994   -1    0    0    0    0 -0.00000000000E+00 -0.00000000000E+00  0.11368683772E-12  0.17120000000E+03  0.17120000000E+03 0.  0.
         13    1    1    2    0    0  0.57417277327E+02  0.86456782586E+01  0.28453914107E+03  0.29040321185E+03  0.10566000000E+00 0. -1.
        994    1    1    2    0    0 -0.11210094193E+01 -0.91420811022E+01  0.76342506581E+01  0.17161747024E+03  0.17120000000E+03 0.  0.
        998    1    1    2    0    0 -0.56296267908E+02  0.49640284356E+00  0.12078266046E+04  0.12091793179E+04  0.10000000000E+02 0. -1.
</event>
<event>
 5    1  0.1141915E-008  0.3850164E+03  0.7957747E-01  0.3429603E+00
         13   -1    0    0    0    0  0.00000000000E+00  0.00000000000E+00  0.14999999963E+04  0.15000000000E+04  0.10566000000E+00 0.  1.
        994   -1    0    0    0    0 -0.00000000000E+00 -0.00000000000E+00  0.11368683772E-12  0.17120000000E+03  0.17120000000E+03 0.  0.
         13    1    1    2    0    0  0.10270837995E+02  0.36318805378E-01  0.31868343043E+02  0.33482740099E+02  0.10566000000E+00 0.  1.
        994    1    1    2    0    0 -0.10069709651E+02 -0.13411041657E+01  0.19614357911E+01  0.17151234604E+03  0.17120000000E+03 0.  0.
        998    1    1    2    0    0 -0.20112834388E+00  0.13047853603E+01  0.14661702174E+04  0.14662049139E+04  0.10000000000E+02 0.  1.
</event>
<event>
 5    1  0.1141915E-008  0.3830837E+03  0.7957747E-01  0.3437840E+00
         13   -1    0    0    0    0  0.00000000000E+00  0.00000000000E+00  0.14999999963E+04  0.15000000000E+04  0.10566000000E+00 0. -1.
        994   -1    0    0    0    0 -0.00000000000E+00 -0.00000000000E+00  0.11368683772E-12  0.17120000000E+03  0.17120000000E+03 0.  0.
         13    1    1    2    0    0  0.62605565633E+01  0.19928842438E+02  0.80033906702E+02  0.82715117817E+02  0.10566000000E+00 0. -1.
        994    1    1    2    0    0 -0.81698696188E+01 -0.19585194075E+02  0.40761930481E+01  0.17255834360E+03  0.17120000000E+03 0.  0.
        998    1    1    2    0    0  0.19093130555E+01 -0.34364836267E+00  0.14158898965E+04  0.14159265386E+04  0.10000000000E+02 0. -1.
</event>
<event>
 5    1  0.1141915E-008  0.3819104E+03  0.7957747E-01  0.3442882E+00
         13   -1    0    0    0    0  0.00000000000E+00  0.00000000000E+00  0.14999999963E+04  0.15000000000E+04  0.10566000000E+00 0. -1.
        994   -1    0    0    0    0 -0.00000000000E+00 -0.00000000000E+00  0.11368683772E-12  0.17120000000E+03  0.17120000000E+03 0.  0.
         13    1    1    2    0    0 -0.18170514282E+02 -0.18372419132E+02  0.11518656519E+03  0.11804943599E+03  0.10566000000E+00 0. -1.
        994    1    1    2    0    0 -0.47416243777E+01  0.46225238951E+01  0.33175919078E+01  0.17136013873E+03  0.17120000000E+03 0.  0.
        998    1    1    2    0    0  0.22912138659E+02  0.13749895237E+02  0.13814958392E+04  0.13817904253E+04  0.10000000000E+02 0. -1.
</event>
<event>
 5    1  0.1141915E-008  0.3848885E+03  0.7957747E-01  0.3430145E+00
         13   -1    0    0    0    0  0.00000000000E+00  0.00000000000E+00  0.14999999963E+04  0.15000000000E+04  0.10566000000E+00 0. -1.
        994   -1    0    0    0    0 -0.00000000000E+00 -0.00000000000E+00  0.11368683772E-12  0.17120000000E+03  0.17120000000E+03 0.  0.
         13    1    1    2    0    0  0.12770319523E+02  0.81062000144E+01  0.68709538487E+02  0.70354839084E+02  0.10566000000E+00 0. -1.
        994    1    1    2    0    0 -0.40184523677E+01 -0.85246011711E+01  0.19777376006E+01  0.17147060457E+03  0.17120000000E+03 0.  0.
        998    1    1    2    0    0 -0.87518671548E+01  0.41840115670E+00  0.14293127202E+04  0.14293745563E+04  0.10000000000E+02 0. -1.
</event>
<event>
 5    1  0.1141915E-008  0.3839190E+03  0.7957747E-01  0.3434270E+00
         13   -1    0    0    0    0  0.00000000000E+00  0.00000000000E+00  0.14999999963E+04  0.15000000000E+04  0.10566000000E+00 0.  1.
        994   -1    0    0    0    0 -0.00000000000E+00 -0.00000000000E+00  0.11368683772E-12  0.17120000000E+03  0.17120000000E+03 0.  0.
         13    1    1    2    0    0  0.31712037326E+01  0.31157334246E+02  0.18527228885E+03  0.18790068704E+03  0.10566000000E+00 0.  1.
        994    1    1    2    0    0  0.87537095670E+01 -0.41375900257E+02  0.80929756005E+01  0.17653194840E+03  0.17120000000E+03 0.  0.
        998    1    1    2    0    0 -0.11924913300E+02  0.10218566010E+02  0.13066347318E+04  0.13067673646E+04  0.10000000000E+02 0.  1.
</event>
<event>
 5    1  0.1141915E-008  0.3808078E+03  0.7957747E-01  0.3447649E+00
         13   -1    0    0    0    0  0.00000000000E+00  0.00000000000E+00  0.14999999963E+04  0.15000000000E+04  0.10566000000E+00 0. -1.
        994   -1    0    0    0    0 -0.00000000000E+00 -0.00000000000E+00  0.11368683772E-12  0.17120000000E+03  0.17120000000E+03 0.  0.
         13    1    1    2    0    0  0.16083961404E+02  0.19746716298E+02  0.98693293963E+02  0.10192646396E+03  0.10566000000E+00 0. -1.
        994    1    1    2    0    0  0.11966234590E+02  0.31248303644E+01  0.42360715844E+01  0.17169839731E+03  0.17120000000E+03 0.  0.
        998    1    1    2    0    0 -0.28050195994E+02 -0.22871546663E+02  0.13970706307E+04  0.13975751387E+04  0.10000000000E+02 0. -1.
</event>
<event>
 5    1  0.1141915E-008  0.3739083E+03  0.7957747E-01  0.3478120E+00
         13   -1    0    0    0    0  0.00000000000E+00  0.00000000000E+00  0.14999999963E+04  0.15000000000E+04  0.10566000000E+00 0. -1.
        994   -1    0    0    0    0 -0.00000000000E+00 -0.00000000000E+00  0.11368683772E-12  0.17120000000E+03  0.17120000000E+03 0.  0.
         13    1    1    2    0    0  0.57003501158E+02 -0.24637003831E+02  0.22978548118E+03  0.23802890503E+03  0.10566000000E+00 0. -1.
        994    1    1    2    0    0 -0.28556424647E+02  0.96751451670E+02  0.42796263051E+02  0.20326650713E+03  0.17120000000E+03 0.  0.
        998    1    1    2    0    0 -0.28447076511E+02 -0.72114447839E+02  0.12274182520E+04  0.12299045878E+04  0.10000000000E+02 0. -1.
</event>
<event>
 5    1  0.1141915E-008  0.3753110E+03  0.7957747E-01  0.3471833E+00
         13   -1    0    0    0    0  0.00000000000E+00  0.00000000000E+00  0.14999999963E+04  0.15000000000E+04  0.10566000000E+00 0.  1.
        994   -1    0    0    0    0 -0.00000000000E+00 -0.00000000000E+00  0.11368683772E-12  0.17120000000E+03  0.17120000000E+03 0.  0.
         13    1    1    2    0    0 -0.38510157063E+02 -0.75125714315E+02  0.41658764895E+03  0.42505550881E+03  0.10566000000E+00 0.  1.
        994    1    1    2    0    0  0.23946611782E+02  0.75628820508E+02  0.28197682309E+02  0.19078183350E+03  0.17120000000E+03 0.  0.
        998    1    1    2    0    0  0.14563545281E+02 -0.50310619291E+00  0.10552146650E+04  0.10553626577E+04  0.10000000000E+02 0.  1.
</event>
<event>
 5    1  0.1141915E-008  0.3826074E+03  0.7957747E-01  0.3439883E+00
         13   -1    0    0    0    0  0.00000000000E+00  0.00000000000E+00  0.14999999963E+04  0.15000000000E+04  0.10566000000E+00 0.  1.
        994   -1    0    0    0    0 -0.00000000000E+00 -0.00000000000E+00  0.11368683772E-12  0.17120000000E+03  0.17120000000E+03 0.  0.
         13    1    1    2    0    0 -0.12938807879E+02 -0.14321809758E+02  0.66921237053E+02  0.69649049648E+02  0.10566000000E+00 0.  1.
        994    1    1    2    0    0 -0.12513584547E+01  0.10589961241E+02  0.31996791938E+01  0.17156162486E+03  0.17120000000E+03 0.  0.
        998    1    1    2    0    0  0.14190166334E+02  0.37318485179E+01  0.14298790800E+04  0.14299893255E+04  0.10000000000E+02 0.  1.
</event>
<event>
 5    1  0.1141915E-008  0.3773377E+03  0.7957747E-01  0.3462833E+00
         13   -1    0    0    0    0  0.00000000000E+00  0.00000000000E+00  0.14999999963E+04  0.15000000000E+04  0.10566000000E+00 0. -1.
        994   -1    0    0    0    0 -0.00000000000E+00 -0.00000000000E+00  0.11368683772E-12  0.17120000000E+03  0.17120000000E+03 0.  0.
         13    1    1    2    0    0 -0.36797666650E+01 -0.41244607314E+02  0.20384684617E+03  0.20801011075E+03  0.10566000000E+00 0. -1.
        994    1    1    2    0    0  0.19427552395E+02 -0.17355413020E+02  0.77752784033E+01  0.17334513292E+03  0.17120000000E+03 0.  0.
        998    1    1    2    0    0 -0.15747785730E+02  0.58600020335E+02  0.12883778717E+04  0.12898447563E+04  0.10000000000E+02 0. -1.
</event>
<event>
 5    1  0.1141915E-008  0.3819030E+03  0.7957747E-01  0.3442914E+00
         13   -1    0    0    0    0  0.00000000000E+00  0.00000000000E+00  0.14999999963E+04  0.15000000000E+04  0.10566000000E+00 0.  1.
        994   -1    0    0    0    0 -0.00000000000E+00 -0.00000000000E+00  0.11368683772E-12  0.17120000000E+03  0.17120000000E+03 0.  0.
         13    1    1    2    0    0 -0.20761466097E+02  0.83794159453E+01  0.77244434312E+02  0.80423671156E+02  0.10566000000E+00 0.  1.
        994    1    1    2    0    0  0.14661188691E+02 -0.56518779002E+01  0.39962070467E+01  0.17196599620E+03  0.17120000000E+03 0.  0.
        998    1    1    2    0    0  0.61002774062E+01 -0.27275380452E+01  0.14187593549E+04  0.14188103326E+04  0.10000000000E+02 0.  1.
</event>
<event>
 5    1  0.1141915E-008  0.3822464E+03  0.7957747E-01  0.3441435E+00
         13   -1    0    0    0    0  0.00000000000E+00  0.00000000000E+00  0.14999999963E+04  0.15000000000E+04  0.10566000000E+00 0.  1.
        994   -1    0    0    0    0 -0.00000000000E+00 -0.00000000000E+00  0.11368683772E-12  0.17120000000E+03  0.17120000000E+03 0.  0.
         13    1    1    2    0    0  0.31289608275E+02 -0.24160782849E+01  0.15698453338E+03  0.16009069899E+03  0.10566000000E+00 0.  1.
        994    1    1    2    0    0 -0.23906583701E+02 -0.29171643352E+01  0.49305437171E+01  0.17295602000E+03  0.17120000000E+03 0.  0.
        998    1    1    2    0    0 -0.73830245748E+01  0.53332426200E+01  0.13380849192E+04  0.13381532810E+04  0.10000000000E+02 0.  1.
</event>
<event>
 5    1  0.1141915E-008  0.3714662E+03  0.7957747E-01  0.3489180E+00
         13   -1    0    0    0    0  0.00000000000E+00  0.00000000000E+00  0.14999999963E+04  0.15000000000E+04  0.10566000000E+00 0. -1.
        994   -1    0    0    0    0 -0.00000000000E+00 -0.00000000000E+00  0.11368683772E-12  0.17120000000E+03  0.17120000000E+03 0.  0.
         13    1    1    2    0    0 -0.25063874812E+02  0.13684276493E+02  0.28122634238E+02  0.40079308431E+02  0.10566000000E+00 0. -1.
        994    1    1    2    0    0  0.44032413616E+02 -0.16674541852E+02  0.19547356247E+02  0.17862931711E+03  0.17120000000E+03 0.  0.
        998    1    1    2    0    0 -0.18968538803E+02  0.29902653589E+01  0.14523300058E+04  0.14524913745E+04  0.10000000000E+02 0. -1.
</event>
<event>
 5    1  0.1141915E-008  0.3818931E+03  0.7957747E-01  0.3442957E+00
         13   -1    0    0    0    0  0.00000000000E+00  0.00000000000E+00  0.14999999963E+04  0.15000000000E+04  0.10566000000E+00 0. -1.
        994   -1    0    0    0    0 -0.00000000000E+00 -0.00000000000E+00  0.11368683772E-12  0.17120000000E+03  0.17120000000E+03 0.  0.
         13    1    1    2    0    0 -0.20375070331E+01 -0.14594572689E+02  0.32208012106E+02  0.35419206580E+02  0.10566000000E+00 0. -1.
        994    1    1    2    0    0 -0.10825606383E+02  0.18457440018E+02  0.47031545262E+01  0.17259614859E+03  0.17120000000E+03 0.  0.
        998    1    1    2    0    0  0.12863113416E+02 -0.38628673281E+01  0.14630888296E+04  0.14631846448E+04  0.10000000000E+02 0. -1.
</event>
<event>
 5    1  0.1141915E-008  0.3798510E+03  0.7957747E-01  0.3451808E+00
         13   -1    0    0    0    0  0.00000000000E+00  0.00000000000E+00  0.14999999963E+04  0.15000000000E+04  0.10566000000E+00 0.  1.
        994   -1    0    0    0    0 -0.00000000000E+00 -0.00000000000E+00  0.11368683772E-12  0.17120000000E+03  0.17120000000E+03 0.  0.
         13    1    1    2    0    0  0.11413853532E+03 -0.67133128232E+02  0.70923737310E+03  0.72149298314E+03  0.10566000000E+00 0.  1.
        994    1    1    2    0    0 -0.13599267118E+03  0.70906812645E+02  0.87373070048E+02  0.24589688096E+03  0.17120000000E+03 0.  0.
        998    1    1    2    0    0  0.21854135866E+02 -0.37736844132E+01  0.70338955313E+03  0.70381013590E+03  0.10000000000E+02 0. -1.
</event>
<event>
 5    1  0.1141915E-008  0.3713906E+03  0.7957747E-01  0.3489524E+00
         13   -1    0    0    0    0  0.00000000000E+00  0.00000000000E+00  0.14999999963E+04  0.15000000000E+04  0.10566000000E+00 0.  1.
        994   -1    0    0    0    0 -0.00000000000E+00 -0.00000000000E+00  0.11368683772E-12  0.17120000000E+03  0.17120000000E+03 0.  0.
         13    1    1    2    0    0  0.69823970952E+01 -0.40137781758E+02  0.88218184910E+02  0.97171264819E+02  0.10566000000E+00 0.  1.
        994    1    1    2    0    0 -0.13177110344E+02  0.41538261645E+02  0.15107394567E+02  0.17730408001E+03  0.17120000000E+03 0.  0.
        998    1    1    2    0    0  0.61947132485E+01 -0.14004798875E+01  0.13966744168E+04  0.13967246552E+04  0.10000000000E+02 0.  1.
</event>
<event>
 5    1  0.1141915E-008  0.3720036E+03  0.7957747E-01  0.3486733E+00
         13   -1    0    0    0    0  0.00000000000E+00  0.00000000000E+00  0.14999999963E+04  0.15000000000E+04  0.10566000000E+00 0.  1.
        994   -1    0    0    0    0 -0.00000000000E+00 -0.00000000000E+00  0.11368683772E-12  0.17120000000E+03  0.17120000000E+03 0.  0.
         13    1    1    2    0    0  0.24936723915E+02  0.37285768342E+01  0.34826991914E+02  0.42996197676E+02  0.10566000000E+00 0.  1.
        994    1    1    2    0    0 -0.22118016215E+02 -0.41286921022E+01  0.99659138833E+01  0.17295956805E+03  0.17120000000E+03 0.  0.
        998    1    1    2    0    0 -0.28187077004E+01  0.40011526802E+00  0.14552070905E+04  0.14552442343E+04  0.10000000000E+02 0.  1.
</event>
<event>
 5    1  0.1141915E-008  0.3689081E+03  0.7957747E-01  0.3500924E+00
         13   -1    0    0    0    0  0.00000000000E+00  0.00000000000E+00  0.14999999963E+04  0.15000000000E+04  0.10566000000E+00 0. -1.
        994   -1    0    0    0    0 -0.00000000000E+00 -0.00000000000E+00  0.11368683772E-12  0.17120000000E+03  0.17120000000E+03 0.  0.
         13    1    1    2    0    0  0.74190850373E+02 -0.13065464116E+02  0.40252130964E+03  0.40950995654E+03  0.10566000000E+00 0. -1.
        994    1    1    2    0    0  0.10161987505E+00  0.80075772056E+01  0.10063535907E+02  0.17168239972E+03  0.17120000000E+03 0.  0.
        998    1    1    2    0    0 -0.74292470248E+02  0.50578869101E+01  0.10874151507E+04  0.10900076437E+04  0.10000000000E+02 0. -1.
</event>
<event>
 5    1  0.1141915E-008  0.3690230E+03  0.7957747E-01  0.3500393E+00
         13   -1    0    0    0    0  0.00000000000E+00  0.00000000000E+00  0.14999999963E+04  0.15000000000E+04  0.10566000000E+00 0.  1.
        994   -1    0    0    0    0 -0.00000000000E+00 -0.00000000000E+00  0.11368683772E-12  0.17120000000E+03  0.17120000000E+03 0.  0.
         13    1    1    2    0    0 -0.57591408054E+02 -0.14818823034E+03  0.70512439111E+03  0.72282566363E+03  0.10566000000E+00 0.  1.
        994    1    1    2    0    0  0.54951047227E+02  0.13844912530E+03  0.91223949990E+02  0.24457928559E+03  0.17120000000E+03 0.  0.
        998    1    1    2    0    0  0.26403608276E+01  0.97391050334E+01  0.70365165518E+03  0.70379505078E+03  0.10000000000E+02 0.  1.
</event>
<event>
 5    1  0.1141915E-008  0.3696668E+03  0.7957747E-01  0.3497424E+00
         13   -1    0    0    0    0  0.00000000000E+00  0.00000000000E+00  0.14999999963E+04  0.15000000000E+04  0.10566000000E+00 0. -1.
        994   -1    0    0    0    0 -0.00000000000E+00 -0.00000000000E+00  0.11368683772E-12  0.17120000000E+03  0.17120000000E+03 0.  0.
         13    1    1    2    0    0  0.13215458791E+02  0.23282781911E+02  0.33472672143E+02  0.42862188803E+02  0.10566000000E+00 0. -1.
        994    1    1    2    0    0 -0.20042981383E+02 -0.18525462053E+02  0.12026241981E+02  0.17377854972E+03  0.17120000000E+03 0.  0.
        998    1    1    2    0    0  0.68275225925E+01 -0.47573198581E+01  0.14545010822E+04  0.14545592615E+04  0.10000000000E+02 0. -1.
</event>
<event>
 5    1  0.1141915E-008  0.3809967E+03  0.7957747E-01  0.3446830E+00
         13   -1    0    0    0    0  0.00000000000E+00  0.00000000000E+00  0.14999999963E+04  0.15000000000E+04  0.10566000000E+00 0. -1.
        994   -1    0    0    0    0 -0.00000000000E+00 -0.00000000000E+00  0.11368683772E-12  0.17120000000E+03  0.17120000000E+03 0.  0.
         13    1    1    2    0    0 -0.12312744534E+02 -0.36029763820E+02  0.19488992013E+03  0.19857451924E+03  0.10566000000E+00 0. -1.
        994    1    1    2    0    0  0.58780441221E+01  0.23753066923E+02  0.56284289856E+01  0.17303143877E+03  0.17120000000E+03 0.  0.
        998    1    1    2    0    0  0.64347004121E+01  0.12276696897E+02  0.12994816472E+04  0.12995940420E+04  0.10000000000E+02 0. -1.
</event>
<event>
 5    1  0.1141915E-008  0.3831000E+03  0.7957747E-01  0.3437771E+00
         13   -1    0    0    0    0  0.00000000000E+00  0.00000000000E+00  0.14999999963E+04  0.15000000000E+04  0.10566000000E+00 0.  1.
        994   -1    0    0    0    0 -0.00000000000E+00 -0.00000000000E+00  0.11368683772E-12  0.17120000000E+03  0.17120000000E+03 0.  0.
         13    1    1    2    0    0  0.16289295664E+02  0.38629225151E+01  0.52378403113E+02  0.54988831596E+02  0.10566000000E+00 0.  1.
        994    1    1    2    0    0 -0.15181767036E+02 -0.58616361789E+01  0.34532782669E+01  0.17200642418E+03  0.17120000000E+03 0.  0.
        998    1    1    2    0    0 -0.11075286281E+01  0.19987136639E+01  0.14441683149E+04  0.14442047442E+04  0.10000000000E+02 0.  1.
</event>
<event>
 5    1  0.1141915E-008  0.3828313E+03  0.7957747E-01  0.3438922E+00
         13   -1    0    0    0    0  0.00000000000E+00  0.00000000000E+00  0.14999999963E+04  0.15000000000E+04  0.10566000000E+00 0. -1.
        994   -1    0    0    0    0 -0.00000000000E+00 -0.00000000000E+00  0.11368683772E-12  0.17120000000E+03  0.17120000000E+03 0.  0.
         13    1    1    2    0    0 -0.29109266794E+02 -0.97419164185E+01  0.18505456144E+03  0.18758319814E+03  0.10566000000E+00 0. -1.
        994    1    1    2    0    0  0.33817791125E+00  0.39923035722E+02  0.80078030470E+01  0.17597593033E+03  0.17120000000E+03 0.  0.
        998    1    1    2    0    0  0.28771088883E+02 -0.30181119303E+02  0.13069376318E+04  0.13076408715E+04  0.10000000000E+02 0. -1.
</event>
<event>
 5    1  0.1141915E-008  0.3791383E+03  0.7957747E-01  0.3454919E+00
         13   -1    0    0    0    0  0.00000000000E+00  0.00000000000E+00  0.14999999963E+04  0.15000000000E+04  0.10566000000E+00 0.  1.
        994   -1    0    0    0    0 -0.00000000000E+00 -0.00000000000E+00  0.11368683772E-12  0.17120000000E+03  0.17120000000E+03 0.  0.
         13    1    1    2    0    0 -0.22584634413E+02 -0.16832016480E+01  0.51449112061E+02  0.56213176171E+02  0.10566000000E+00 0.  1.
        994    1    1    2    0    0  0.30239041061E+02 -0.20363376400E+01  0.76542746196E+01  0.17403038297E+03  0.17120000000E+03 0.  0.
        998    1    1    2    0    0 -0.76544066476E+01  0.37195392880E+01  0.14408966096E+04  0.14409564409E+04  0.10000000000E+02 0.  1.
</event>
<event>
 5    1  0.1141915E-008  0.3750633E+03  0.7957747E-01  0.3472940E+00
         13   -1    0    0    0    0  0.00000000000E+00  0.00000000000E+00  0.14999999963E+04  0.15000000000E+04  0.10566000000E+00 0.  1.
        994   -1    0    0    0    0 -0.00000000000E+00 -0.00000000000E+00  0.11368683772E-12  0.17120000000E+03  0.17120000000E+03 0.  0.
         13    1    1    2    0    0  0.23370704301E+02 -0.47831274768E+02  0.24404570108E+03  0.24978457928E+03  0.10566000000E+00 0.  1.
        994    1    1    2    0    0  0.14855002090E+02  0.18379406451E+02  0.85465136427E+01  0.17303455309E+03  0.17120000000E+03 0.  0.
        998    1    1    2    0    0 -0.38225706391E+02  0.29451868317E+02  0.12474077816E+04  0.12483808676E+04  0.10000000000E+02 0.  1.
</event>
<event>
 5    1  0.1141915E-008  0.3097236E+03  0.7957747E-01  0.3828957E+00
         13   -1    0    0    0    0  0.00000000000E+00  0.00000000000E+00  0.14999999963E+04  0.15000000000E+04  0.10566000000E+00 0.  1.
        994   -1    0    0    0    0 -0.00000000000E+00 -0.00000000000E+00  0.11368683772E-12  0.17120000000E+03  0.17120000000E+03 0.  0.
         13    1    1    2    0    0  0.10280686511E+03 -0.11050697761E+03  0.84901655503E+03  0.86232833972E+03  0.10566000000E+00 0.  1.
        994    1    1    2    0    0 -0.41086303831E+02  0.81165112468E+02  0.45076248599E+02  0.19904061905E+03  0.17120000000E+03 0.  0.
        998    1    1    2    0    0 -0.61720561278E+02  0.29341865145E+02  0.60590719265E+03  0.60983104122E+03  0.10000000000E+02 0.  1.
</event>
<event>
 5    1  0.1141915E-008  0.3845768E+03  0.7957747E-01  0.3431469E+00
         13   -1    0    0    0    0  0.00000000000E+00  0.00000000000E+00  0.14999999963E+04  0.15000000000E+04  0.10566000000E+00 0. -1.
        994   -1    0    0    0    0 -0.00000000000E+00 -0.00000000000E+00  0.11368683772E-12  0.17120000000E+03  0.17120000000E+03 0.  0.
         13    1    1    2    0    0 -0.14199527616E+02 -0.55289164954E+01  0.61460927925E+02  0.63321815574E+02  0.10566000000E+00 0. -1.
        994    1    1    2    0    0  0.93129364566E+01  0.14866216443E+02  0.28544720479E+01  0.17212008363E+03  0.17120000000E+03 0.  0.
        998    1    1    2    0    0  0.48865911593E+01 -0.93372999475E+01  0.14356845963E+04  0.14357581008E+04  0.10000000000E+02 0. -1.
</event>
<event>
 5    1  0.1141915E-008  0.3839386E+03  0.7957747E-01  0.3434186E+00
         13   -1    0    0    0    0  0.00000000000E+00  0.00000000000E+00  0.14999999963E+04  0.15000000000E+04  0.10566000000E+00 0. -1.
        994   -1    0    0    0    0 -0.00000000000E+00 -0.00000000000E+00  0.11368683772E-12  0.17120000000E+03  0.17120000000E+03 0.  0.
         13    1    1    2    0    0  0.79616787665E+00  0.28030954023E+02  0.16560852055E+03  0.16796595342E+03  0.10566000000E+00 0. -1.
        994    1    1    2    0    0  0.63581322250E+01 -0.27509457498E+02  0.47932157469E+01  0.17357883228E+03  0.17120000000E+03 0.  0.
        998    1    1    2    0    0 -0.71543001017E+01 -0.52149652496E+00  0.13295982600E+04  0.13296552143E+04  0.10000000000E+02 0. -1.
</event>
<event>
 5    1  0.1141915E-008  0.3849199E+03  0.7957747E-01  0.3430012E+00
         13   -1    0    0    0    0  0.00000000000E+00  0.00000000000E+00  0.14999999963E+04  0.15000000000E+04  0.10566000000E+00 0.  1.
        994   -1    0    0    0    0 -0.00000000000E+00 -0.00000000000E+00  0.11368683772E-12  0.17120000000E+03  0.17120000000E+03 0.  0.
         13    1    1    2    0    0 -0.11011790441E+02 -0.76407687288E+01  0.58481761710E+02  0.59998070738E+02  0.10566000000E+00 0.  1.
        994    1    1    2    0    0 -0.70418450288E+01  0.11378596457E+01  0.18372995357E+01  0.17135839044E+03  0.17120000000E+03 0.  0.
        998    1    1    2    0    0  0.18053635469E+02  0.65029090832E+01  0.14396809350E+04  0.14398435388E+04  0.10000000000E+02 0.  1.
</event>
<event>
 5    1  0.1141915E-008  0.3684143E+03  0.7957747E-01  0.3503210E+00
         13   -1    0    0    0    0  0.00000000000E+00  0.00000000000E+00  0.14999999963E+04  0.15000000000E+04  0.10566000000E+00 0. -1.
        994   -1    0    0    0    0 -0.00000000000E+00 -0.00000000000E+00  0.11368683772E-12  0.17120000000E+03  0.17120000000E+03 0.  0.
         13    1    1    2    0    0 -0.65462906050E+02  0.17380603946E+02  0.22630507023E+03  0.23622335498E+03  0.10566000000E+00 0. -1.
        994    1    1    2    0    0  0.34119755146E+02 -0.18941398084E+02  0.15416224114E+02  0.17626694023E+03  0.17120000000E+03 0.  0.
        998    1    1    2    0    0  0.31343150904E+02  0.15607941380E+01  0.12582787019E+04  0.12587097048E+04  0.10000000000E+02 0. -1.
</event>
<event>
 5    1  0.1141915E-008  0.3826042E+03  0.7957747E-01  0.3439897E+00
         13   -1    0    0    0    0  0.00000000000E+00  0.00000000000E+00  0.14999999963E+04  0.15000000000E+04  0.10566000000E+00 0. -1.
        994   -1    0    0    0    0 -0.00000000000E+00 -0.00000000000E+00  0.11368683772E-12  0.17120000000E+03  0.17120000000E+03 0.  0.
         13    1    1    2    0    0 -0.28968180734E+02 -0.20995823159E+02  0.18705700601E+03  0.19044766931E+03  0.10566000000E+00 0. -1.
        994    1    1    2    0    0  0.40610207505E+02  0.18729809490E+02  0.94815501684E+01  0.17719857367E+03  0.17120000000E+03 0.  0.
        998    1    1    2    0    0 -0.11642026772E+02  0.22660136682E+01  0.13034614401E+04  0.13035537570E+04  0.10000000000E+02 0. -1.
</event>
<event>
 5    1  0.1141915E-008  0.4022029E+03  0.7957747E-01  0.3359836E+00
         13   -1    0    0    0    0  0.00000000000E+00  0.00000000000E+00  0.14999999963E+04  0.15000000000E+04  0.10566000000E+00 0. -1.
        994   -1    0    0    0    0 -0.00000000000E+00 -0.00000000000E+00  0.11368683772E-12  0.17120000000E+03  0.17120000000E+03 0.  0.
         13    1    1    2    0    0 -0.38321252825E+02  0.11820555378E+03  0.24537237082E+03  0.27504305642E+03  0.10566000000E+00 0. -1.
        994    1    1    2    0    0  0.31655653828E+02 -0.86332757116E+02  0.63356482945E+02  0.20439889751E+03  0.17120000000E+03 0.  0.
        998    1    1    2    0    0  0.66655989972E+01 -0.31872796666E+02  0.11912711425E+04  0.11917580461E+04  0.10000000000E+02 0. -1.
</event>
<event>
 5    1  0.1141915E-008  0.3822210E+03  0.7957747E-01  0.3441545E+00
         13   -1    0    0    0    0  0.00000000000E+00  0.00000000000E+00  0.14999999963E+04  0.15000000000E+04  0.10566000000E+00 0. -1.
        994   -1    0    0    0    0 -0.00000000000E+00 -0.00000000000E+00  0.11368683772E-12  0.17120000000E+03  0.17120000000E+03 0.  0.
         13    1    1    2    0    0  0.26043249732E+02 -0.13229701672E+02  0.13297261211E+03  0.13614331639E+03  0.10566000000E+00 0. -1.
        994    1    1    2    0    0 -0.24062214923E+02  0.91205094489E+01  0.52167548486E+01  0.17320169864E+03  0.17120000000E+03 0.  0.
        998    1    1    2    0    0 -0.19810348090E+01  0.41091922236E+01  0.13618106293E+04  0.13618549850E+04  0.10000000000E+02 0. -1.
</event>
<event>
 5    1  0.1141915E-008  0.3735723E+03  0.7957747E-01  0.3479633E+00
         13   -1    0    0    0    0  0.00000000000E+00  0.00000000000E+00  0.14999999963E+04  0.15000000000E+04  0.10566000000E+00 0. -1.
        994   -1    0    0    0    0 -0.00000000000E+00 -0.00000000000E+00  0.11368683772E-12  0.17120000000E+03  0.17120000000E+03 0.  0.
         13    1    1    2    0    0 -0.15561852306E+02  0.14411119769E+01  0.13157829339E+02  0.20430068229E+02  0.10566000000E+00 0. -1.
        994    1    1    2    0    0  0.13372877390E+02  0.86031637183E+01  0.82778101885E+01  0.17213602301E+03  0.17120000000E+03 0.  0.
        998    1    1    2    0    0  0.21889749157E+01 -0.10044275695E+02  0.14785643568E+04  0.14786339088E+04  0.10000000000E+02 0. -1.
</event>
<event>
 5    1  0.1141915E-008  0.3782396E+03  0.7957747E-01  0.3458860E+00
         13   -1    0    0    0    0  0.00000000000E+00  0.00000000000E+00  0.14999999963E+04  0.15000000000E+04  0.10566000000E+00 0.  1.
        994   -1    0    0    0    0 -0.00000000000E+00 -0.00000000000E+00  0.11368683772E-12  0.17120000000E+03  0.17120000000E+03 0.  0.
         13    1    1    2    0    0 -0.21932810457E+02  0.68873109246E+02  0.34108371255E+03  0.34865837647E+03  0.10566000000E+00 0.  1.
        994    1    1    2    0    0  0.51086878661E+02 -0.78617029653E+02  0.35175769526E+02  0.19833628333E+03  0.17120000000E+03 0.  0.
        998    1    1    2    0    0 -0.29154068204E+02  0.97439204072E+01  0.11237405142E+04  0.11242053402E+04  0.10000000000E+02 0.  1.
</event>
<event>
 5    1  0.1141915E-008  0.3708866E+03  0.7957747E-01  0.3491826E+00
         13   -1    0    0    0    0  0.00000000000E+00  0.00000000000E+00  0.14999999963E+04  0.15000000000E+04  0.10566000000E+00 0.  1.
        994   -1    0    0    0    0 -0.00000000000E+00 -0.00000000000E+00  0.11368683772E-12  0.17120000000E+03  0.17120000000E+03 0.  0.
         13    1    1    2    0    0  0.11779566167E+02  0.10339315988E+02  0.10559308947E+02  0.18898936574E+02  0.10566000000E+00 0.  1.
        994    1    1    2    0    0 -0.42130226300E+01  0.23763786370E+02  0.10816811499E+02  0.17323080128E+03  0.17120000000E+03 0.  0.
        998    1    1    2    0    0 -0.75665435366E+01 -0.34103102358E+02  0.14786238758E+04  0.14790702621E+04  0.10000000000E+02 0.  1.
</event>
<event>
 5    1  0.1141915E-008  0.3845164E+03  0.7957747E-01  0.3431726E+00
         13   -1    0    0    0    0  0.00000000000E+00  0.00000000000E+00  0.14999999963E+04  0.15000000000E+04  0.10566000000E+00 0.  1.
        994   -1    0    0    0    0 -0.00000000000E+00 -0.00000000000E+00  0.11368683772E-12  0.17120000000E+03  0.17120000000E+03 0.  0.
         13    1    1    2    0    0 -0.96268985981E+01 -0.31751170212E+02  0.19176989698E+03  0.19461890591E+03  0.10566000000E+00 0.  1.
        994    1    1    2    0    0  0.64301542665E+01  0.65339929726E+02  0.16200283739E+02  0.18407211221E+03  0.17120000000E+03 0.  0.
        998    1    1    2    0    0  0.31967443316E+01 -0.33588759514E+02  0.12920298156E+04  0.12925089819E+04  0.10000000000E+02 0.  1.
</event>
<event>
 5    1  0.1141915E-008  0.3759604E+03  0.7957747E-01  0.3468939E+00
         13   -1    0    0    0    0  0.00000000000E+00  0.00000000000E+00  0.14999999963E+04  0.15000000000E+04  0.10566000000E+00 0. -1.
        994   -1    0    0    0    0 -0.00000000000E+00 -0.00000000000E+00  0.11368683772E-12  0.17120000000E+03  0.17120000000E+03 0.  0.
         13    1    1    2    0    0  0.45740182785E+02 -0.66871114603E+01  0.15956128467E+03  0.16612253463E+03  0.10566000000E+00 0. -1.
        994    1    1    2    0    0 -0.38483677807E+02  0.94419058153E+01  0.11524936027E+02  0.17610339915E+03  0.17120000000E+03 0.  0.
        998    1    1    2    0    0 -0.72565049785E+01 -0.27547943550E+01  0.13289137756E+04  0.13289740662E+04  0.10000000000E+02 0. -1.
</event>
<event>
 5    1  0.1141915E-008  0.3809945E+03  0.7957747E-01  0.3446840E+00
         13   -1    0    0    0    0  0.00000000000E+00  0.00000000000E+00  0.14999999963E+04  0.15000000000E+04  0.10566000000E+00 0. -1.
        994   -1    0    0    0    0 -0.00000000000E+00 -0.00000000000E+00  0.11368683772E-12  0.17120000000E+03  0.17120000000E+03 0.  0.
         13    1    1    2    0    0 -0.15481181444E+02  0.33794180754E+02  0.17824745262E+03  0.18208206711E+03  0.10566000000E+00 0. -1.
        994    1    1    2    0    0  0.99281813344E+01 -0.28077141709E+02  0.65927186793E+01  0.17389594190E+03  0.17120000000E+03 0.  0.
        998    1    1    2    0    0  0.55530001094E+01 -0.57170390453E+01  0.13151598250E+04  0.13152219910E+04  0.10000000000E+02 0. -1.
</event>
<event>
 5    1  0.1141915E-008  0.3718781E+03  0.7957747E-01  0.3487304E+00
         13   -1    0    0    0    0  0.00000000000E+00  0.00000000000E+00  0.14999999963E+04  0.15000000000E+04  0.10566000000E+00 0. -1.
        994   -1    0    0    0    0 -0.00000000000E+00 -0.00000000000E+00  0.11368683772E-12  0.17120000000E+03  0.17120000000E+03 0.  0.
         13    1    1    2    0    0  0.15691002299E+03  0.91090495309E+02  0.68477358796E+03  0.70840180094E+03  0.10566000000E+00 0. -1.
        994    1    1    2    0    0 -0.20955774577E+03 -0.55463230933E+02  0.19233132336E+03  0.33658787373E+03  0.17120000000E+03 0.  0.
        998    1    1    2    0    0  0.52647722772E+02 -0.35627264376E+02  0.62289508496E+03  0.62621032533E+03  0.10000000000E+02 0. -1.
</event>
<event>
 5    1  0.1141915E-008  0.3820212E+03  0.7957747E-01  0.3442405E+00
         13   -1    0    0    0    0  0.00000000000E+00  0.00000000000E+00  0.14999999963E+04  0.15000000000E+04  0.10566000000E+00 0. -1.
        994   -1    0    0    0    0 -0.00000000000E+00 -0.00000000000E+00  0.11368683772E-12  0.17120000000E+03  0.17120000000E+03 0.  0.
         13    1    1    2    0    0 -0.56987038281E+01 -0.13291975557E+02  0.31538333764E+02  0.34696246197E+02  0.10566000000E+00 0. -1.
        994    1    1    2    0    0  0.66979151706E+01  0.16501428995E+02  0.41702135615E+01  0.17217430095E+03  0.17120000000E+03 0.  0.
        998    1    1    2    0    0 -0.99921134251E+00 -0.32094534375E+01  0.14642914490E+04  0.14643294529E+04  0.10000000000E+02 0. -1.
</event>
<event>
 5    1  0.1141915E-008  0.3710770E+03  0.7957747E-01  0.3490956E+00
         13   -1    0    0    0    0  0.00000000000E+00  0.00000000000E+00  0.14999999963E+04  0.15000000000E+04  0.10566000000E+00 0.  1.
        994   -1    0    0    0    0 -0.00000000000E+00 -0.00000000000E+00  0.11368683772E-12  0.17120000000E+03  0.17120000000E+03 0.  0.
         13    1    1    2    0    0  0.35519377982E+02 -0.13950357577E+01  0.66810677830E+02  0.75678597854E+02  0.10566000000E+00 0.  1.
        994    1    1    2    0    0 -0.34452639401E+02 -0.18008726343E+01  0.12818450402E+02  0.17511133651E+03  0.17120000000E+03 0.  0.
        998    1    1    2    0    0 -0.10667385810E+01  0.31959083920E+01  0.14203708680E+04  0.14204100656E+04  0.10000000000E+02 0.  0.
</event>
<event>
 5    1  0.1141915E-008  0.3792712E+03  0.7957747E-01  0.3454338E+00
         13   -1    0    0    0    0  0.00000000000E+00  0.00000000000E+00  0.14999999963E+04  0.15000000000E+04  0.10566000000E+00 0. -1.
        994   -1    0    0    0    0 -0.00000000000E+00 -0.00000000000E+00  0.11368683772E-12  0.17120000000E+03  0.17120000000E+03 0.  0.
         13    1    1    2    0    0  0.75910716457E+01 -0.37302828597E+02  0.17590567161E+03  0.17997761488E+03  0.10566000000E+00 0. -1.
        994    1    1    2    0    0 -0.13325360115E+02  0.52127354783E+01  0.51878522697E+01  0.17187522115E+03  0.17120000000E+03 0.  0.
        998    1    1    2    0    0  0.57342884691E+01  0.32090093119E+02  0.13189064724E+04  0.13193471640E+04  0.10000000000E+02 0. -1.
</event>
<event>
 5    1  0.1141915E-008  0.3721231E+03  0.7957747E-01  0.3486190E+00
         13   -1    0    0    0    0  0.00000000000E+00  0.00000000000E+00  0.14999999963E+04  0.15000000000E+04  0.10566000000E+00 0. -1.
        994   -1    0    0    0    0 -0.00000000000E+00 -0.00000000000E+00  0.11368683772E-12  0.17120000000E+03  0.17120000000E+03 0.  0.
         13    1    1    2    0    0  0.64753653907E+00 -0.99453233689E+02  0.53899929633E+03  0.54809818244E+03  0.10566000000E+00 0. -1.
        994    1    1    2    0    0 -0.16614301363E+02  0.27562531486E+02  0.15722597135E+02  0.17490674147E+03  0.17120000000E+03 0.  0.
        998    1    1    2    0    0  0.15966764824E+02  0.71890702203E+02  0.94527810282E+03  0.94819507608E+03  0.10000000000E+02 0. -1.
</event>
<event>
 5    1  0.1141915E-008  0.3787468E+03  0.7957747E-01  0.3456633E+00
         13   -1    0    0    0    0  0.00000000000E+00  0.00000000000E+00  0.14999999963E+04  0.15000000000E+04  0.10566000000E+00 0.  1.
        994   -1    0    0    0    0 -0.00000000000E+00 -0.00000000000E+00  0.11368683772E-12  0.17120000000E+03  0.17120000000E+03 0.  0.
         13    1    1    2    0    0  0.44181196485E+02 -0.38790851221E+01  0.22984666528E+03  0.23408657828E+03  0.10566000000E+00 0.  1.
        994    1    1    2    0    0 -0.99549296381E+01  0.47807396415E+01  0.51765768052E+01  0.17163389247E+03  0.17120000000E+03 0.  0.
        998    1    1    2    0    0 -0.34226266847E+02 -0.90165451942E+00  0.12649767542E+04  0.12654795293E+04  0.10000000000E+02 0.  1.
</event>
<event>
 5    1  0.1141915E-008  0.3710916E+03  0.7957747E-01  0.3490889E+00
         13   -1    0    0    0    0  0.00000000000E+00  0.00000000000E+00  0.14999999963E+04  0.15000000000E+04  0.10566000000E+00 0.  1.
        994   -1    0    0    0    0 -0.00000000000E+00 -0.00000000000E+00  0.11368683772E-12  0.17120000000E+03  0.17120000000E+03 0.  0.
         13    1    1    2    0    0  0.70427744497E+02 -0.27821316017E+02  0.27549628554E+03  0.28571368069E+03  0.10566000000E+00 0.  1.
        994    1    1    2    0    0  0.58530196231E+00  0.83601777543E+02  0.36468125443E+02  0.19398186503E+03  0.17120000000E+03 0.  0.
        998    1    1    2    0    0 -0.71013046459E+02 -0.55780461527E+02  0.11880355853E+04  0.11915044543E+04  0.10000000000E+02 0.  1.
</event>
<event>
 5    1  0.1141915E-008  0.3727483E+03  0.7957747E-01  0.3483355E+00
         13   -1    0    0    0    0  0.00000000000E+00  0.00000000000E+00  0.14999999963E+04  0.15000000000E+04  0.10566000000E+00 0. -1.
        994   -1    0    0    0    0 -0.00000000000E+00 -0.00000000000E+00  0.11368683772E-12  0.17120000000E+03  0.17120000000E+03 0.  0.
         13    1    1    2    0    0  0.64333895005E+02  0.42455741029E+02  0.28877634809E+03  0.29888648409E+03  0.10566000000E+00 0. -1.
        994    1    1    2    0    0 -0.89373034169E+01 -0.57755048580E+01  0.12799303417E+02  0.17200724990E+03  0.17120000000E+03 0.  0.
        998    1    1    2    0    0 -0.55396591588E+02 -0.36680236171E+02  0.11984243448E+04  0.12003062660E+04  0.10000000000E+02 0. -1.
</event>
<event>
 5    1  0.1141915E-008  0.3771088E+03  0.7957747E-01  0.3463845E+00
         13   -1    0    0    0    0  0.00000000000E+00  0.00000000000E+00  0.14999999963E+04  0.15000000000E+04  0.10566000000E+00 0.  1.
        994   -1    0    0    0    0 -0.00000000000E+00 -0.00000000000E+00  0.11368683772E-12  0.17120000000E+03  0.17120000000E+03 0.  0.
         13    1    1    2    0    0 -0.36786008289E+01 -0.31606253070E+02  0.96857994536E+02  0.10195081955E+03  0.10566000000E+00 0.  1.
        994    1    1    2    0    0 -0.82162020354E+01  0.22256558135E+00  0.58278389805E+01  0.17149623675E+03  0.17120000000E+03 0.  0.
        998    1    1    2    0    0  0.11894802864E+02  0.31383687489E+02  0.13973141628E+04  0.13977529437E+04  0.10000000000E+02 0.  1.
</event>
<event>
 5    1  0.1141915E-008  0.3690730E+03  0.7957747E-01  0.3500162E+00
         13   -1    0    0    0    0  0.00000000000E+00  0.00000000000E+00  0.14999999963E+04  0.15000000000E+04  0.10566000000E+00 0.  1.
        994   -1    0    0    0    0 -0.00000000000E+00 -0.00000000000E+00  0.11368683772E-12  0.17120000000E+03  0.17120000000E+03 0.  0.
         13    1    1    2    0    0 -0.69255055427E+02  0.17434480939E+02  0.35381312792E+03  0.36094870062E+03  0.10566000000E+00 0.  1.
        994    1    1    2    0    0 -0.67773069166E+01 -0.28343633290E+02  0.12706070660E+02  0.17412690105E+03  0.17120000000E+03 0.  0.
        998    1    1    2    0    0  0.76032362343E+02  0.10909152351E+02  0.11334807977E+04  0.11361243983E+04  0.10000000000E+02 0.  1.
</event>
<event>
 5    1  0.1141915E-008  0.3835362E+03  0.7957747E-01  0.3435904E+00
         13   -1    0    0    0    0  0.00000000000E+00  0.00000000000E+00  0.14999999963E+04  0.15000000000E+04  0.10566000000E+00 0. -1.
        994   -1    0    0    0    0 -0.00000000000E+00 -0.00000000000E+00  0.11368683772E-12  0.17120000000E+03  0.17120000000E+03 0.  0.
         13    1    1    2    0    0  0.35717567663E+01  0.14145379214E+02  0.43029539430E+02  0.45435686714E+02  0.10566000000E+00 0. -1.
        994    1    1    2    0    0  0.21123808122E+02 -0.23473625180E+02  0.56607680618E+01  0.17418010978E+03  0.17120000000E+03 0.  0.
        998    1    1    2    0    0 -0.24695564889E+02  0.93282459664E+01  0.14513096888E+04  0.14515842035E+04  0.10000000000E+02 0. -1.
</event>
<event>
 5    1  0.1141915E-008  0.3841534E+03  0.7957747E-01  0.3433271E+00
         13   -1    0    0    0    0  0.00000000000E+00  0.00000000000E+00  0.14999999963E+04  0.15000000000E+04  0.10566000000E+00 0. -1.
        994   -1    0    0    0    0 -0.00000000000E+00 -0.00000000000E+00  0.11368683772E-12  0.17120000000E+03  0.17120000000E+03 0.  0.
         13    1    1    2    0    0 -0.27678756351E+01 -0.22295266126E+02  0.12304947603E+03  0.12508367097E+03  0.10566000000E+00 0. -1.
        994    1    1    2    0    0 -0.30166160182E+01  0.13980476823E+02  0.27258995079E+01  0.17181799741E+03  0.17120000000E+03 0.  0.
        998    1    1    2    0    0  0.57844916533E+01  0.83147893024E+01  0.13742246207E+04  0.13742983316E+04  0.10000000000E+02 0. -1.
</event>
<event>
 5    1  0.1141915E-008  0.3727922E+03  0.7957747E-01  0.3483156E+00
         13   -1    0    0    0    0  0.00000000000E+00  0.00000000000E+00  0.14999999963E+04  0.15000000000E+04  0.10566000000E+00 0.  1.
        994   -1    0    0    0    0 -0.00000000000E+00 -0.00000000000E+00  0.11368683772E-12  0.17120000000E+03  0.17120000000E+03 0.  0.
         13    1    1    2    0    0 -0.77593484764E+01  0.91470486228E+01  0.55946032205E+01  0.13235812650E+02  0.10566000000E+00 0.  1.
        994    1    1    2    0    0  0.71707731387E+01 -0.74343910255E+01  0.81823302478E+01  0.17170637928E+03  0.17120000000E+03 0.  0.
        998    1    1    2    0    0  0.58857533772E+00 -0.17126575973E+01  0.14862230628E+04  0.14862578081E+04  0.10000000000E+02 0.  1.
</event>
<event>
 5    1  0.1141915E-008  0.3840463E+03  0.7957747E-01  0.3433727E+00
         13   -1    0    0    0    0  0.00000000000E+00  0.00000000000E+00  0.14999999963E+04  0.15000000000E+04  0.10566000000E+00 0.  1.
        994   -1    0    0    0    0 -0.00000000000E+00 -0.00000000000E+00  0.11368683772E-12  0.17120000000E+03  0.17120000000E+03 0.  0.
         13    1    1    2    0    0  0.52029342305E+01  0.14339547247E+02  0.52730621606E+02  0.54892829758E+02  0.10566000000E+00 0.  1.
        994    1    1    2    0    0 -0.16739773033E+02 -0.13014167186E+02  0.35889234247E+01  0.17254538220E+03  0.17120000000E+03 0.  0.
        998    1    1    2    0    0  0.11536838802E+02 -0.13253800605E+01  0.14436804512E+04  0.14437617880E+04  0.10000000000E+02 0.  1.
</event>
<event>
 5    1  0.1141915E-008  0.3827004E+03  0.7957747E-01  0.3439484E+00
         13   -1    0    0    0    0  0.00000000000E+00  0.00000000000E+00  0.14999999963E+04  0.15000000000E+04  0.10566000000E+00 0. -1.
        994   -1    0    0    0    0 -0.00000000000E+00 -0.00000000000E+00  0.11368683772E-12  0.17120000000E+03  0.17120000000E+03 0.  0.
         13    1    1    2    0    0 -0.12010729827E+03  0.12472716294E+03  0.93907592445E+03  0.95490639924E+03  0.10566000000E+00 0. -1.
        994    1    1    2    0    0  0.11989473684E+03 -0.15436750747E+03  0.14180831996E+03  0.29601201816E+03  0.17120000000E+03 0.  0.
        998    1    1    2    0    0  0.21256143491E+00  0.29640344533E+02  0.41911575187E+03  0.42028158260E+03  0.10000000000E+02 0. -1.
</event>
<event>
 5    1  0.1141915E-008  0.3850082E+03  0.7957747E-01  0.3429637E+00
         13   -1    0    0    0    0  0.00000000000E+00  0.00000000000E+00  0.14999999963E+04  0.15000000000E+04  0.10566000000E+00 0.  1.
        994   -1    0    0    0    0 -0.00000000000E+00 -0.00000000000E+00  0.11368683772E-12  0.17120000000E+03  0.17120000000E+03 0.  0.
         13    1    1    2    0    0 -0.67979713234E+01  0.14143028922E+02  0.76997311382E+02  0.78580117112E+02  0.10566000000E+00 0.  1.
        994    1    1    2    0    0 -0.72766186582E+01 -0.12479135277E+02  0.23126237662E+01  0.17182393962E+03  0.17120000000E+03 0.  0.
        998    1    1    2    0    0  0.14074589982E+02 -0.16638936443E+01  0.14206900611E+04  0.14207959433E+04  0.10000000000E+02 0.  1.
</event>
<event>
 5    1  0.1141915E-008  0.3842947E+03  0.7957747E-01  0.3432669E+00
         13   -1    0    0    0    0  0.00000000000E+00  0.00000000000E+00  0.14999999963E+04  0.15000000000E+04  0.10566000000E+00 0.  1.
        994   -1    0    0    0    0 -0.00000000000E+00 -0.00000000000E+00  0.11368683772E-12  0.17120000000E+03  0.17120000000E+03 0.  0.
         13    1    1    2    0    0 -0.87440293912E+01  0.16323536204E+02  0.84815534757E+02  0.86813604835E+02  0.10566000000E+00 0.  1.
        994    1    1    2    0    0  0.16694252274E+01 -0.15503877374E+02  0.27826297493E+01  0.17193120782E+03  0.17120000000E+03 0.  0.
        998    1    1    2    0    0  0.70746041637E+01 -0.81965883083E+00  0.14124018318E+04  0.14124551873E+04  0.10000000000E+02 0.  1.
</event>
<event>
 5    1  0.1141915E-008  0.3702715E+03  0.7957747E-01  0.3494644E+00
         13   -1    0    0    0    0  0.00000000000E+00  0.00000000000E+00  0.14999999963E+04  0.15000000000E+04  0.10566000000E+00 0. -1.
        994   -1    0    0    0    0 -0.00000000000E+00 -0.00000000000E+00  0.11368683772E-12  0.17120000000E+03  0.17120000000E+03 0.  0.
         13    1    1    2    0    0  0.32191602584E+02 -0.47576193083E+02  0.18861910538E+03  0.19717244104E+03  0.10566000000E+00 0. -1.
        994    1    1    2    0    0 -0.29675958320E+02  0.73878757127E+01  0.12364741940E+02  0.17434898925E+03  0.17120000000E+03 0.  0.
        998    1    1    2    0    0 -0.25156442635E+01  0.40188317371E+02  0.12990161490E+04  0.12996785697E+04  0.10000000000E+02 0. -1.
</event>
<event>
 5    1  0.1141915E-008  0.3866177E+03  0.7957747E-01  0.3422840E+00
         13   -1    0    0    0    0  0.00000000000E+00  0.00000000000E+00  0.14999999963E+04  0.15000000000E+04  0.10566000000E+00 0.  1.
        994   -1    0    0    0    0 -0.00000000000E+00 -0.00000000000E+00  0.11368683772E-12  0.17120000000E+03  0.17120000000E+03 0.  0.
         13    1    1    2    0    0  0.42906434464E+02  0.15784218313E+01  0.37415477283E+02  0.56950703579E+02  0.10566000000E+00 0.  1.
        994    1    1    2    0    0 -0.43713345734E+02  0.55890734009E+01  0.27258396610E+02  0.17887021698E+03  0.17120000000E+03 0.  0.
        998    1    1    2    0    0  0.80691127004E+00 -0.71674952322E+01  0.14353261224E+04  0.14353790794E+04  0.10000000000E+02 0.  1.
</event>
<event>
 5    1  0.1141915E-008  0.3860438E+03  0.7957747E-01  0.3425257E+00
         13   -1    0    0    0    0  0.00000000000E+00  0.00000000000E+00  0.14999999963E+04  0.15000000000E+04  0.10566000000E+00 0.  1.
        994   -1    0    0    0    0 -0.00000000000E+00 -0.00000000000E+00  0.11368683772E-12  0.17120000000E+03  0.17120000000E+03 0.  0.
         13    1    1    2    0    0  0.83932135525E+01 -0.80485980643E+01  0.58346952436E+02  0.59494571073E+02  0.10566000000E+00 0.  1.
        994    1    1    2    0    0 -0.51888579570E+01  0.16702414409E+02  0.21159987491E+01  0.17210407417E+03  0.17120000000E+03 0.  0.
        998    1    1    2    0    0 -0.32043555955E+01 -0.86538163444E+01  0.14395370451E+04  0.14396013548E+04  0.10000000000E+02 0.  1.
</event>
<event>
 5    1  0.1141915E-008  0.3712180E+03  0.7957747E-01  0.3490312E+00
         13   -1    0    0    0    0  0.00000000000E+00  0.00000000000E+00  0.14999999963E+04  0.15000000000E+04  0.10566000000E+00 0.  1.
        994   -1    0    0    0    0 -0.00000000000E+00 -0.00000000000E+00  0.11368683772E-12  0.17120000000E+03  0.17120000000E+03 0.  0.
         13    1    1    2    0    0 -0.11680339162E+00 -0.18874416439E+02  0.17912098980E+02  0.26021369926E+02  0.10566000000E+00 0.  1.
        994    1    1    2    0    0  0.15571522590E+02 -0.12371742242E+02  0.99968871352E+01  0.17264098608E+03  0.17120000000E+03 0.  0.
        998    1    1    2    0    0 -0.15454719199E+02  0.31246158681E+02  0.14720910102E+04  0.14725376440E+04  0.10000000000E+02 0.  1.
</event>
<event>
 5    1  0.1141915E-008  0.3821133E+03  0.7957747E-01  0.3442008E+00
         13   -1    0    0    0    0  0.00000000000E+00  0.00000000000E+00  0.14999999963E+04  0.15000000000E+04  0.10566000000E+00 0. -1.
        994   -1    0    0    0    0 -0.00000000000E+00 -0.00000000000E+00  0.11368683772E-12  0.17120000000E+03  0.17120000000E+03 0.  0.
         13    1    1    2    0    0  0.38931508904E+01  0.35976012143E+02  0.18833512508E+03  0.19177997960E+03  0.10566000000E+00 0. -1.
        994    1    1    2    0    0 -0.20735403574E+02 -0.34391341485E+02  0.84425351112E+01  0.17604953203E+03  0.17120000000E+03 0.  0.
        998    1    1    2    0    0  0.16842252683E+02 -0.15846706582E+01  0.13032223361E+04  0.13033704884E+04  0.10000000000E+02 0. -1.
</event>
<event>
 5    1  0.1141915E-008  0.3794859E+03  0.7957747E-01  0.3453400E+00
         13   -1    0    0    0    0  0.00000000000E+00  0.00000000000E+00  0.14999999963E+04  0.15000000000E+04  0.10566000000E+00 0.  1.
        994   -1    0    0    0    0 -0.00000000000E+00 -0.00000000000E+00  0.11368683772E-12  0.17120000000E+03  0.17120000000E+03 0.  0.
         13    1    1    2    0    0  0.14909976353E+02 -0.37678567784E+01  0.24813318310E+02  0.29192740007E+02  0.10566000000E+00 0.  1.
        994    1    1    2    0    0 -0.12355181467E+02  0.12123294307E+02  0.53968647054E+01  0.17215745968E+03  0.17120000000E+03 0.  0.
        998    1    1    2    0    0 -0.25547948865E+01 -0.83554375290E+01  0.14697898133E+04  0.14698498003E+04  0.10000000000E+02 0.  1.
</event>
<event>
 5    1  0.1141915E-008  0.3852844E+03  0.7957747E-01  0.3428467E+00
         13   -1    0    0    0    0  0.00000000000E+00  0.00000000000E+00  0.14999999963E+04  0.15000000000E+04  0.10566000000E+00 0.  1.
        994   -1    0    0    0    0 -0.00000000000E+00 -0.00000000000E+00  0.11368683772E-12  0.17120000000E+03  0.17120000000E+03 0.  0.
         13    1    1    2    0    0 -0.12405454749E+02  0.11332390253E+01  0.52554930667E+02  0.54011215869E+02  0.10566000000E+00 0.  1.
        994    1    1    2    0    0  0.64100140163E+01 -0.10755790758E+02  0.20042963912E+01  0.17166896201E+03  0.17120000000E+03 0.  0.
        998    1    1    2    0    0  0.59954407332E+01  0.96225517325E+01  0.14454407692E+04  0.14455198221E+04  0.10000000000E+02 0.  1.
</event>
<event>
 5    1  0.1141915E-008  0.3765088E+03  0.7957747E-01  0.3466502E+00
         13   -1    0    0    0    0  0.00000000000E+00  0.00000000000E+00  0.14999999963E+04  0.15000000000E+04  0.10566000000E+00 0.  1.
        994   -1    0    0    0    0 -0.00000000000E+00 -0.00000000000E+00  0.11368683772E-12  0.17120000000E+03  0.17120000000E+03 0.  0.
         13    1    1    2    0    0  0.12227217703E+01  0.36319209057E+02  0.14293687412E+03  0.14748403691E+03  0.10566000000E+00 0.  1.
        994    1    1    2    0    0  0.13576228909E+02  0.25925977272E+02  0.88079681045E+01  0.17390655707E+03  0.17120000000E+03 0.  0.
        998    1    1    2    0    0 -0.14798950680E+02 -0.62245186329E+02  0.13482551541E+04  0.13498094060E+04  0.10000000000E+02 0.  1.
</event>
<event>
 5    1  0.1141915E-008  0.3840593E+03  0.7957747E-01  0.3433672E+00
         13   -1    0    0    0    0  0.00000000000E+00  0.00000000000E+00  0.14999999963E+04  0.15000000000E+04  0.10566000000E+00 0. -1.
        994   -1    0    0    0    0 -0.00000000000E+00 -0.00000000000E+00  0.11368683772E-12  0.17120000000E+03  0.17120000000E+03 0.  0.
         13    1    1    2    0    0 -0.86559015921E+01 -0.17352262819E+02  0.10129607775E+03  0.10313550401E+03  0.10566000000E+00 0. -1.
        994    1    1    2    0    0 -0.80613746831E+01 -0.19203109682E+01  0.23244789334E+01  0.17141620856E+03  0.17120000000E+03 0.  0.
        998    1    1    2    0    0  0.16717276275E+02  0.19272573787E+02  0.13963794396E+04  0.13966482874E+04  0.10000000000E+02 0. -1.
</event>
<event>
 5    1  0.1141915E-008  0.3828551E+03  0.7957747E-01  0.3438820E+00
         13   -1    0    0    0    0  0.00000000000E+00  0.00000000000E+00  0.14999999963E+04  0.15000000000E+04  0.10566000000E+00 0. -1.
        994   -1    0    0    0    0 -0.00000000000E+00 -0.00000000000E+00  0.11368683772E-12  0.17120000000E+03  0.17120000000E+03 0.  0.
         13    1    1    2    0    0  0.14184314064E+02  0.32541997444E+01  0.37759800930E+02  0.40467249867E+02  0.10566000000E+00 0. -1.
        994    1    1    2    0    0 -0.14077835439E+02 -0.26020547611E+00  0.33556000310E+01  0.17181080644E+03  0.17120000000E+03 0.  0.
        998    1    1    2    0    0 -0.10647862439E+00 -0.29939942683E+01  0.14588845953E+04  0.14589219437E+04  0.10000000000E+02 0. -1.
</event>
<event>
 5    1  0.1141915E-008  0.3847762E+03  0.7957747E-01  0.3430622E+00
         13   -1    0    0    0    0  0.00000000000E+00  0.00000000000E+00  0.14999999963E+04  0.15000000000E+04  0.10566000000E+00 0.  1.
        994   -1    0    0    0    0 -0.00000000000E+00 -0.00000000000E+00  0.11368683772E-12  0.17120000000E+03  0.17120000000E+03 0.  0.
         13    1    1    2    0    0 -0.16371529964E+02 -0.10282908663E+02  0.10928518283E+03  0.11098210466E+03  0.10566000000E+00 0.  1.
        994    1    1    2    0    0  0.12779731301E+02 -0.15947334558E+01  0.22873491529E+01  0.17169897109E+03  0.17120000000E+03 0.  0.
        998    1    1    2    0    0  0.35917986629E+01  0.11877642118E+02  0.13884274643E+04  0.13885189243E+04  0.10000000000E+02 0.  1.
</event>
<event>
 5    1  0.1141915E-008  0.3852008E+03  0.7957747E-01  0.3428821E+00
         13   -1    0    0    0    0  0.00000000000E+00  0.00000000000E+00  0.14999999963E+04  0.15000000000E+04  0.10566000000E+00 0.  1.
        994   -1    0    0    0    0 -0.00000000000E+00 -0.00000000000E+00  0.11368683772E-12  0.17120000000E+03  0.17120000000E+03 0.  0.
         13    1    1    2    0    0 -0.10117074819E+02  0.48421264703E+01  0.38442466931E+02  0.40045421953E+02  0.10566000000E+00 0.  1.
        994    1    1    2    0    0  0.14441141942E+02 -0.17956340076E+02  0.32774919271E+01  0.17277487862E+03  0.17120000000E+03 0.  0.
        998    1    1    2    0    0 -0.43240671237E+01  0.13114213605E+02  0.14582800374E+04  0.14583796994E+04  0.10000000000E+02 0.  1.
</event>
<event>
 5    1  0.1141915E-008  0.3779536E+03  0.7957747E-01  0.3460118E+00
         13   -1    0    0    0    0  0.00000000000E+00  0.00000000000E+00  0.14999999963E+04  0.15000000000E+04  0.10566000000E+00 0.  1.
        994   -1    0    0    0    0 -0.00000000000E+00 -0.00000000000E+00  0.11368683772E-12  0.17120000000E+03  0.17120000000E+03 0.  0.
         13    1    1    2    0    0 -0.85122950572E+02  0.51469391948E+02  0.41492608316E+03  0.42668334942E+03  0.10566000000E+00 0.  1.
        994    1    1    2    0    0  0.27727482839E+02  0.47781139698E+01  0.18059999220E+02  0.17443407709E+03  0.17120000000E+03 0.  0.
        998    1    1    2    0    0  0.57395467733E+02 -0.56247505918E+02  0.10670139139E+04  0.10700825735E+04  0.10000000000E+02 0.  1.
</event>
<event>
 5    1  0.1141915E-008  0.3860249E+03  0.7957747E-01  0.3425337E+00
         13   -1    0    0    0    0  0.00000000000E+00  0.00000000000E+00  0.14999999963E+04  0.15000000000E+04  0.10566000000E+00 0. -1.
        994   -1    0    0    0    0 -0.00000000000E+00 -0.00000000000E+00  0.11368683772E-12  0.17120000000E+03  0.17120000000E+03 0.  0.
         13    1    1    2    0    0  0.66539327197E+00  0.12770593436E+02  0.74299616584E+02  0.75392141457E+02  0.10566000000E+00 0. -1.
        994    1    1    2    0    0  0.82288786492E+01 -0.80779564949E+01  0.15581086939E+01  0.17159497524E+03  0.17120000000E+03 0.  0.
        998    1    1    2    0    0 -0.88942719212E+01 -0.46926369412E+01  0.14241422710E+04  0.14242128833E+04  0.10000000000E+02 0. -1.
</event>
<event>
 5    1  0.1141915E-008  0.3846483E+03  0.7957747E-01  0.3431165E+00
         13   -1    0    0    0    0  0.00000000000E+00  0.00000000000E+00  0.14999999963E+04  0.15000000000E+04  0.10566000000E+00 0. -1.
        994   -1    0    0    0    0 -0.00000000000E+00 -0.00000000000E+00  0.11368683772E-12  0.17120000000E+03  0.17120000000E+03 0.  0.
         13    1    1    2    0    0 -0.14746259364E+02 -0.87477141912E+01  0.83315814219E+02  0.85061805364E+02  0.10566000000E+00 0. -1.
        994    1    1    2    0    0  0.17480076413E+01  0.11974257897E+02  0.22871296129E+01  0.17164238796E+03  0.17120000000E+03 0.  0.
        998    1    1    2    0    0  0.12998251723E+02 -0.32265437060E+01  0.14143970524E+04  0.14144958067E+04  0.10000000000E+02 0. -1.
</event>
<event>
 5    1  0.1141915E-008  0.3712445E+03  0.7957747E-01  0.3490191E+00
         13   -1    0    0    0    0  0.00000000000E+00  0.00000000000E+00  0.14999999963E+04  0.15000000000E+04  0.10566000000E+00 0.  1.
        994   -1    0    0    0    0 -0.00000000000E+00 -0.00000000000E+00  0.11368683772E-12  0.17120000000E+03  0.17120000000E+03 0.  0.
         13    1    1    2    0    0 -0.54011524768E+00 -0.15177223171E+02  0.94214843969E+01  0.17872195163E+02  0.10566000000E+00 0.  1.
        994    1    1    2    0    0  0.69444461677E+01  0.14883915545E+02  0.95492787030E+01  0.17225093613E+03  0.17120000000E+03 0.  0.
        998    1    1    2    0    0 -0.64043309201E+01  0.29330762573E+00  0.14810292332E+04  0.14810768687E+04  0.10000000000E+02 0.  1.
</event>
<event>
 5    1  0.1141915E-008  0.3775385E+03  0.7957747E-01  0.3461947E+00
         13   -1    0    0    0    0  0.00000000000E+00  0.00000000000E+00  0.14999999963E+04  0.15000000000E+04  0.10566000000E+00 0. -1.
        994   -1    0    0    0    0 -0.00000000000E+00 -0.00000000000E+00  0.11368683772E-12  0.17120000000E+03  0.17120000000E+03 0.  0.
         13    1    1    2    0    0 -0.74067863107E+01  0.12855344839E+02  0.17879117250E+02  0.23233475247E+02  0.10566000000E+00 0. -1.
        994    1    1    2    0    0  0.50858470817E+01 -0.15964704683E+02  0.63276325132E+01  0.17213429806E+03  0.17120000000E+03 0.  0.
        998    1    1    2    0    0  0.23209392290E+01  0.31093598432E+01  0.14757932465E+04  0.14758322267E+04  0.10000000000E+02 0. -1.
</event>
<event>
 5    1  0.1141915E-008  0.3830222E+03  0.7957747E-01  0.3438104E+00
         13   -1    0    0    0    0  0.00000000000E+00  0.00000000000E+00  0.14999999963E+04  0.15000000000E+04  0.10566000000E+00 0. -1.
        994   -1    0    0    0    0 -0.00000000000E+00 -0.00000000000E+00  0.11368683772E-12  0.17120000000E+03  0.17120000000E+03 0.  0.
         13    1    1    2    0    0 -0.18376213094E+02  0.62429526391E+00  0.61187568318E+02  0.63890567636E+02  0.10566000000E+00 0. -1.
        994    1    1    2    0    0  0.20386021998E+02 -0.84348207393E+01  0.42279780286E+01  0.17266746043E+03  0.17120000000E+03 0.  0.
        998    1    1    2    0    0 -0.20098089049E+01  0.78105254754E+01  0.14345844499E+04  0.14346419719E+04  0.10000000000E+02 0. -1.
</event>
<event>
 5    1  0.1141915E-008  0.3781363E+03  0.7957747E-01  0.3459314E+00
         13   -1    0    0    0    0  0.00000000000E+00  0.00000000000E+00  0.14999999963E+04  0.15000000000E+04  0.10566000000E+00 0. -1.
        994   -1    0    0    0    0 -0.00000000000E+00 -0.00000000000E+00  0.11368683772E-12  0.17120000000E+03  0.17120000000E+03 0.  0.
         13    1    1    2    0    0 -0.47545225384E+01  0.23602847706E+02  0.12141999567E+02  0.26965519130E+02  0.10566000000E+00 0. -1.
        994    1    1    2    0    0  0.62034418476E+01 -0.24395249146E+02  0.17590879483E+02  0.17393242916E+03  0.17120000000E+03 0.  0.
        998    1    1    2    0    0 -0.14489193091E+01  0.79240143961E+00  0.14702671172E+04  0.14703020517E+04  0.10000000000E+02 0. -1.
</event>
<event>
 5    1  0.1141915E-008  0.3786242E+03  0.7957747E-01  0.3457171E+00
         13   -1    0    0    0    0  0.00000000000E+00  0.00000000000E+00  0.14999999963E+04  0.15000000000E+04  0.10566000000E+00 0.  1.
        994   -1    0    0    0    0 -0.00000000000E+00 -0.00000000000E+00  0.11368683772E-12  0.17120000000E+03  0.17120000000E+03 0.  0.
         13    1    1    2    0    0  0.21188939112E+02 -0.23235136253E+02  0.11450938117E+03  0.11874869363E+03  0.10566000000E+00 0.  1.
        994    1    1    2    0    0  0.53231730040E+01 -0.26892616549E+01  0.49487173751E+01  0.17137531357E+03  0.17120000000E+03 0.  0.
        998    1    1    2    0    0 -0.26512112117E+02  0.25924397908E+02  0.13805418977E+04  0.13810759928E+04  0.10000000000E+02 0.  1.
</event>
<event>
 5    1  0.1141915E-008  0.3821655E+03  0.7957747E-01  0.3441783E+00
         13   -1    0    0    0    0  0.00000000000E+00  0.00000000000E+00  0.14999999963E+04  0.15000000000E+04  0.10566000000E+00 0. -1.
        994   -1    0    0    0    0 -0.00000000000E+00 -0.00000000000E+00  0.11368683772E-12  0.17120000000E+03  0.17120000000E+03 0.  0.
         13    1    1    2    0    0  0.10281951583E+03 -0.12779884349E+03  0.93028976821E+03  0.94463932865E+03  0.10566000000E+00 0. -1.
        994    1    1    2    0    0 -0.10314299048E+03  0.14704278898E+03  0.11875807740E+03  0.27508722112E+03  0.17120000000E+03 0.  0.
        998    1    1    2    0    0  0.32347465189E+00 -0.19243945489E+02  0.45095215067E+03  0.45147345023E+03  0.10000000000E+02 0. -1.
</event>
<event>
 5    1  0.1141915E-008  0.3842108E+03  0.7957747E-01  0.3433026E+00
         13   -1    0    0    0    0  0.00000000000E+00  0.00000000000E+00  0.14999999963E+04  0.15000000000E+04  0.10566000000E+00 0. -1.
        994   -1    0    0    0    0 -0.00000000000E+00 -0.00000000000E+00  0.11368683772E-12  0.17120000000E+03  0.17120000000E+03 0.  0.
         13    1    1    2    0    0 -0.10592310516E+02  0.17062546306E+02  0.95764149931E+02  0.97847386805E+02  0.10566000000E+00 0. -1.
        994    1    1    2    0    0  0.11799480017E+02 -0.13912411402E+02  0.31204244304E+01  0.17219744472E+03  0.17120000000E+03 0.  0.
        998    1    1    2    0    0 -0.12071695011E+01 -0.31501349039E+01  0.14011154219E+04  0.14011551685E+04  0.10000000000E+02 0.  1.
</event>
<event>
 5    1  0.1141915E-008  0.3714353E+03  0.7957747E-01  0.3489320E+00
         13   -1    0    0    0    0  0.00000000000E+00  0.00000000000E+00  0.14999999963E+04  0.15000000000E+04  0.10566000000E+00 0. -1.
        994   -1    0    0    0    0 -0.00000000000E+00 -0.00000000000E+00  0.11368683772E-12  0.17120000000E+03  0.17120000000E+03 0.  0.
         13    1    1    2    0    0  0.57744925763E+02  0.44472915966E+02  0.26304712489E+03  0.27295808796E+03  0.10566000000E+00 0. -1.
        994    1    1    2    0    0 -0.55946485619E+02 -0.38996954300E+02  0.24696322673E+02  0.18593041723E+03  0.17120000000E+03 0.  0.
        998    1    1    2    0    0 -0.17984401443E+01 -0.54759616662E+01  0.12122565487E+04  0.12123114948E+04  0.10000000000E+02 0. -1.
</event>
<event>
 5    1  0.1141915E-008  0.3832579E+03  0.7957747E-01  0.3437095E+00
         13   -1    0    0    0    0  0.00000000000E+00  0.00000000000E+00  0.14999999963E+04  0.15000000000E+04  0.10566000000E+00 0.  1.
        994   -1    0    0    0    0 -0.00000000000E+00 -0.00000000000E+00  0.11368683772E-12  0.17120000000E+03  0.17120000000E+03 0.  0.
         13    1    1    2    0    0  0.12140057101E+02 -0.11092818145E+02  0.77221104526E+02  0.78952781769E+02  0.10566000000E+00 0.  1.
        994    1    1    2    0    0  0.47468116508E+02 -0.21896850652E+02  0.11588513727E+02  0.17937789107E+03  0.17120000000E+03 0.  0.
        998    1    1    2    0    0 -0.59608173609E+02  0.32989668798E+02  0.14111903780E+04  0.14128693272E+04  0.10000000000E+02 0.  1.
</event>
<event>
 5    1  0.1141915E-008  0.3802311E+03  0.7957747E-01  0.3450153E+00
         13   -1    0    0    0    0  0.00000000000E+00  0.00000000000E+00  0.14999999963E+04  0.15000000000E+04  0.10566000000E+00 0. -1.
        994   -1    0    0    0    0 -0.00000000000E+00 -0.00000000000E+00  0.11368683772E-12  0.17120000000E+03  0.17120000000E+03 0.  0.
         13    1    1    2    0    0  0.12023913113E+02 -0.26225486686E+02  0.93808352825E+02  0.98144632366E+02  0.10566000000E+00 0. -1.
        994    1    1    2    0    0 -0.13925840613E+02  0.31885571884E+02  0.80710377575E+01  0.17488624984E+03  0.17120000000E+03 0.  0.
        998    1    1    2    0    0  0.19019275002E+01 -0.56600851977E+01  0.13981206057E+04  0.13981691178E+04  0.10000000000E+02 0. -1.
</event>
<event>
 5    1  0.1141915E-008  0.3688395E+03  0.7957747E-01  0.3501242E+00
         13   -1    0    0    0    0  0.00000000000E+00  0.00000000000E+00  0.14999999963E+04  0.15000000000E+04  0.10566000000E+00 0. -1.
        994   -1    0    0    0    0 -0.00000000000E+00 -0.00000000000E+00  0.11368683772E-12  0.17120000000E+03  0.17120000000E+03 0.  0.
         13    1    1    2    0    0 -0.33864569564E+02 -0.73553157206E+02  0.43071769666E+03  0.43826318735E+03  0.10566000000E+00 0. -1.
        994    1    1    2    0    0 -0.27925347442E+01  0.11172356944E+02  0.10788339920E+02  0.17192570514E+03  0.17120000000E+03 0.  0.
        998    1    1    2    0    0  0.36657104309E+02  0.62380800262E+02  0.10584939597E+04  0.10610111075E+04  0.10000000000E+02 0. -1.
</event>
<event>
 5    1  0.1141915E-008  0.3781019E+03  0.7957747E-01  0.3459465E+00
         13   -1    0    0    0    0  0.00000000000E+00  0.00000000000E+00  0.14999999963E+04  0.15000000000E+04  0.10566000000E+00 0.  1.
        994   -1    0    0    0    0 -0.00000000000E+00 -0.00000000000E+00  0.11368683772E-12  0.17120000000E+03  0.17120000000E+03 0.  0.
         13    1    1    2    0    0  0.80487533711E+01  0.25995968844E+02  0.71273869501E+02  0.76292519061E+02  0.10566000000E+00 0.  1.
        994    1    1    2    0    0  0.15779814701E+02 -0.21310370500E+02  0.74633454760E+01  0.17340206449E+03  0.17120000000E+03 0.  0.
        998    1    1    2    0    0 -0.23828568072E+02 -0.46855983443E+01  0.14212627813E+04  0.14215054165E+04  0.10000000000E+02 0.  1.
</event>
<event>
 5    1  0.1141915E-008  0.3740958E+03  0.7957747E-01  0.3477277E+00
         13   -1    0    0    0    0  0.00000000000E+00  0.00000000000E+00  0.14999999963E+04  0.15000000000E+04  0.10566000000E+00 0. -1.
        994   -1    0    0    0    0 -0.00000000000E+00 -0.00000000000E+00  0.11368683772E-12  0.17120000000E+03  0.17120000000E+03 0.  0.
         13    1    1    2    0    0 -0.36427419055E+02 -0.11466491467E+03  0.39468184063E+03  0.41261212537E+03  0.10566000000E+00 0. -1.
        994    1    1    2    0    0  0.48764389239E+02  0.10980924993E+03  0.66262650280E+02  0.21939967149E+03  0.17120000000E+03 0.  0.
        998    1    1    2    0    0 -0.12336970184E+02  0.48556647413E+01  0.10390555054E+04  0.10391882031E+04  0.10000000000E+02 0. -1.
</event>
<event>
 5    1  0.1141915E-008  0.3842269E+03  0.7957747E-01  0.3432958E+00
         13   -1    0    0    0    0  0.00000000000E+00  0.00000000000E+00  0.14999999963E+04  0.15000000000E+04  0.10566000000E+00 0. -1.
        994   -1    0    0    0    0 -0.00000000000E+00 -0.00000000000E+00  0.11368683772E-12  0.17120000000E+03  0.17120000000E+03 0.  0.
         13    1    1    2    0    0  0.21517257521E+02  0.12656575820E+03  0.38486335783E+03  0.40571134921E+03  0.10566000000E+00 0. -1.
        994    1    1    2    0    0 -0.24864760033E+02 -0.94851587037E+02  0.54986993738E+02  0.20481232711E+03  0.17120000000E+03 0.  0.
        998    1    1    2    0    0  0.33475025123E+01 -0.31714171159E+02  0.10601496447E+04  0.10606763237E+04  0.10000000000E+02 0.  1.
</event>
<event>
 5    1  0.1141915E-008  0.3770474E+03  0.7957747E-01  0.3464117E+00
         13   -1    0    0    0    0  0.00000000000E+00  0.00000000000E+00  0.14999999963E+04  0.15000000000E+04  0.10566000000E+00 0.  1.
        994   -1    0    0    0    0 -0.00000000000E+00 -0.00000000000E+00  0.11368683772E-12  0.17120000000E+03  0.17120000000E+03 0.  0.
         13    1    1    2    0    0  0.69362084355E+01  0.16994379084E+02  0.28678834462E+02  0.34050060470E+02  0.10566000000E+00 0.  1.
        994    1    1    2    0    0 -0.10351094259E+02  0.58524198031E+01  0.61085757135E+01  0.17172114217E+03  0.17120000000E+03 0.  0.
        998    1    1    2    0    0  0.34148858233E+01 -0.22846798887E+02  0.14652125861E+04  0.14654287974E+04  0.10000000000E+02 0.  1.
</event>
<event>
 5    1  0.1141915E-008  0.3829296E+03  0.7957747E-01  0.3438501E+00
         13   -1    0    0    0    0  0.00000000000E+00  0.00000000000E+00  0.14999999963E+04  0.15000000000E+04  0.10566000000E+00 0.  1.
        994   -1    0    0    0    0 -0.00000000000E+00 -0.00000000000E+00  0.11368683772E-12  0.17120000000E+03  0.17120000000E+03 0.  0.
         13    1    1    2    0    0 -0.43234005277E+01 -0.22728766876E+02  0.10752300466E+03  0.10998407308E+03  0.10566000000E+00 0.  1.
        994    1    1    2    0    0  0.87003651512E+01  0.14256875898E+01  0.29189332358E+01  0.17145171072E+03  0.17120000000E+03 0.  0.
        998    1    1    2    0    0 -0.43769646234E+01  0.21303079287E+02  0.13895580584E+04  0.13897642162E+04  0.10000000000E+02 0.  1.
</event>
<event>
 5    1  0.1141915E-008  0.3831547E+03  0.7957747E-01  0.3437536E+00
         13   -1    0    0    0    0  0.00000000000E+00  0.00000000000E+00  0.14999999963E+04  0.15000000000E+04  0.10566000000E+00 0.  1.
        994   -1    0    0    0    0 -0.00000000000E+00 -0.00000000000E+00  0.11368683772E-12  0.17120000000E+03  0.17120000000E+03 0.  0.
         13    1    1    2    0    0  0.22771019814E+02 -0.84263626265E+01  0.12167775978E+03  0.12407663487E+03  0.10566000000E+00 0.  1.
        994    1    1    2    0    0 -0.45357088787E+01  0.75440892912E+01  0.28054766063E+01  0.17144910801E+03  0.17120000000E+03 0.  0.
        998    1    1    2    0    0 -0.18235310935E+02  0.88227333531E+00  0.13755167599E+04  0.13756742571E+04  0.10000000000E+02 0.  1.
</event>
<event>
 5    1  0.1141915E-008  0.4119543E+03  0.7957747E-01  0.3322827E+00
         13   -1    0    0    0    0  0.00000000000E+00  0.00000000000E+00  0.14999999963E+04  0.15000000000E+04  0.10566000000E+00 0.  1.
        994   -1    0    0    0    0 -0.00000000000E+00 -0.00000000000E+00  0.11368683772E-12  0.17120000000E+03  0.17120000000E+03 0.  0.
         13    1    1    2    0    0  0.88061196036E+02  0.10716604070E+03  0.49323101761E+03  0.51236333048E+03  0.10566000000E+00 0.  1.
        994    1    1    2    0    0  0.32118370276E+02 -0.45225488752E+01  0.39469768359E+02  0.17865986055E+03  0.17120000000E+03 0.  0.
        998    1    1    2    0    0 -0.12017956631E+03 -0.10264349182E+03  0.96729921031E+03  0.98017680897E+03  0.10000000000E+02 0.  1.
</event>
<event>
 5    1  0.1141915E-008  0.3730750E+03  0.7957747E-01  0.3481877E+00
         13   -1    0    0    0    0  0.00000000000E+00  0.00000000000E+00  0.14999999963E+04  0.15000000000E+04  0.10566000000E+00 0.  1.
        994   -1    0    0    0    0 -0.00000000000E+00 -0.00000000000E+00  0.11368683772E-12  0.17120000000E+03  0.17120000000E+03 0.  0.
         13    1    1    2    0    0 -0.26788497119E+02  0.66410307909E+00  0.42848677258E+02  0.50537955218E+02  0.10566000000E+00 0.  1.
        994    1    1    2    0    0  0.25756295101E+02  0.22754581931E+02  0.11722547182E+02  0.17500861650E+03  0.17120000000E+03 0.  0.
        998    1    1    2    0    0  0.10322020179E+01 -0.23418685010E+02  0.14454287718E+04  0.14456534283E+04  0.10000000000E+02 0.  1.
</event>
<event>
 5    1  0.1141915E-008  0.3847755E+03  0.7957747E-01  0.3430625E+00
         13   -1    0    0    0    0  0.00000000000E+00  0.00000000000E+00  0.14999999963E+04  0.15000000000E+04  0.10566000000E+00 0. -1.
        994   -1    0    0    0    0 -0.00000000000E+00 -0.00000000000E+00  0.11368683772E-12  0.17120000000E+03  0.17120000000E+03 0.  0.
         13    1    1    2    0    0  0.10565442654E+02 -0.44031090725E+01  0.38918685617E+02  0.40567119717E+02  0.10566000000E+00 0. -1.
        994    1    1    2    0    0  0.31817620429E+01  0.59938186377E+01  0.18932137589E+01  0.17134489701E+03  0.17120000000E+03 0.  0.
        998    1    1    2    0    0 -0.13747204697E+02 -0.15907095652E+01  0.14591880969E+04  0.14592879833E+04  0.10000000000E+02 0. -1.
</event>
<event>
 5    1  0.1141915E-008  0.3694493E+03  0.7957747E-01  0.3498426E+00
         13   -1    0    0    0    0  0.00000000000E+00  0.00000000000E+00  0.14999999963E+04  0.15000000000E+04  0.10566000000E+00 0.  1.
        994   -1    0    0    0    0 -0.00000000000E+00 -0.00000000000E+00  0.11368683772E-12  0.17120000000E+03  0.17120000000E+03 0.  0.
         13    1    1    2    0    0  0.18837622159E+02  0.16764935049E+02  0.28337011385E+02  0.37933052000E+02  0.10566000000E+00 0.  1.
        994    1    1    2    0    0 -0.30753999817E+02 -0.12709163999E+02  0.13402945968E+02  0.17491829611E+03  0.17120000000E+03 0.  0.
        998    1    1    2    0    0  0.11916377658E+02 -0.40557710490E+01  0.14582600389E+04  0.14583486519E+04  0.10000000000E+02 0.  1.
</event>
<event>
 5    1  0.1141915E-008  0.3773304E+03  0.7957747E-01  0.3462866E+00
         13   -1    0    0    0    0  0.00000000000E+00  0.00000000000E+00  0.14999999963E+04  0.15000000000E+04  0.10566000000E+00 0. -1.
        994   -1    0    0    0    0 -0.00000000000E+00 -0.00000000000E+00  0.11368683772E-12  0.17120000000E+03  0.17120000000E+03 0.  0.
         13    1    1    2    0    0 -0.11330479466E+02 -0.49918238593E+01  0.11418726255E+02  0.16843293731E+02  0.10566000000E+00 0. -1.
        994    1    1    2    0    0  0.12373803311E+02  0.44614044855E+01  0.60705885024E+01  0.17181183656E+03  0.17120000000E+03 0.  0.
        998    1    1    2    0    0 -0.10433238454E+01  0.53041937377E+00  0.14825106815E+04  0.14825448697E+04  0.10000000000E+02 0. -1.
</event>
<event>
 5    1  0.1141915E-008  0.3766459E+03  0.7957747E-01  0.3465894E+00
         13   -1    0    0    0    0  0.00000000000E+00  0.00000000000E+00  0.14999999963E+04  0.15000000000E+04  0.10566000000E+00 0. -1.
        994   -1    0    0    0    0 -0.00000000000E+00 -0.00000000000E+00  0.11368683772E-12  0.17120000000E+03  0.17120000000E+03 0.  0.
         13    1    1    2    0    0 -0.33363172832E+02  0.20150050162E+02  0.10436724806E+03  0.11140762745E+03  0.10566000000E+00 0. -1.
        994    1    1    2    0    0  0.52880173723E+02 -0.46164684562E+02  0.22678806998E+02  0.18641689612E+03  0.17120000000E+03 0.  0.
        998    1    1    2    0    0 -0.19517000891E+02  0.26014634400E+02  0.13729539412E+04  0.13733754764E+04  0.10000000000E+02 0. -1.
</event>
<event>
 5    1  0.1141915E-008  0.3851567E+03  0.7957747E-01  0.3429008E+00
         13   -1    0    0    0    0  0.00000000000E+00  0.00000000000E+00  0.14999999963E+04  0.15000000000E+04  0.10566000000E+00 0. -1.
        994   -1    0    0    0    0 -0.00000000000E+00 -0.00000000000E+00  0.11368683772E-12  0.17120000000E+03  0.17120000000E+03 0.  0.
         13    1    1    2    0    0  0.66426250996E+01 -0.10990256844E+02  0.53729733726E+02  0.55243150381E+02  0.10566000000E+00 0. -1.
        994    1    1    2    0    0 -0.58490978851E+01  0.43901540270E+01  0.17281714468E+01  0.17136485047E+03  0.17120000000E+03 0.  0.
        998    1    1    2    0    0 -0.79352721450E+00  0.66001028168E+01  0.14445420911E+04  0.14445919992E+04  0.10000000000E+02 0. -1.
</event>
<event>
 5    1  0.1141915E-008  0.3710168E+03  0.7957747E-01  0.3491231E+00
         13   -1    0    0    0    0  0.00000000000E+00  0.00000000000E+00  0.14999999963E+04  0.15000000000E+04  0.10566000000E+00 0. -1.
        994   -1    0    0    0    0 -0.00000000000E+00 -0.00000000000E+00  0.11368683772E-12  0.17120000000E+03  0.17120000000E+03 0.  0.
         13    1    1    2    0    0  0.53935945663E+02  0.82499402477E+01  0.16971997977E+03  0.17827515376E+03  0.10566000000E+00 0. -1.
        994    1    1    2    0    0 -0.28311658145E+02 -0.11519633897E+02  0.11964360185E+02  0.17431820865E+03  0.17120000000E+03 0.  0.
        998    1    1    2    0    0 -0.25624287518E+02  0.32696936492E+01  0.13183156563E+04  0.13186066376E+04  0.10000000000E+02 0. -1.
</event>
<event>
 5    1  0.1141915E-008  0.3777352E+03  0.7957747E-01  0.3461080E+00
         13   -1    0    0    0    0  0.00000000000E+00  0.00000000000E+00  0.14999999963E+04  0.15000000000E+04  0.10566000000E+00 0.  1.
        994   -1    0    0    0    0 -0.00000000000E+00 -0.00000000000E+00  0.11368683772E-12  0.17120000000E+03  0.17120000000E+03 0.  0.
         13    1    1    2    0    0  0.18310529516E+02 -0.29339750394E+02  0.98399812237E+02  0.10430067429E+03  0.10566000000E+00 0.  1.
        994    1    1    2    0    0 -0.58432796510E+01  0.53412125107E+02  0.15067045115E+02  0.18006514064E+03  0.17120000000E+03 0.  0.
        998    1    1    2    0    0 -0.12467249865E+02 -0.24072374714E+02  0.13865331389E+04  0.13868341851E+04  0.10000000000E+02 0.  1.
</event>
<event>
 5    1  0.1141915E-008  0.3720836E+03  0.7957747E-01  0.3486370E+00
         13   -1    0    0    0    0  0.00000000000E+00  0.00000000000E+00  0.14999999963E+04  0.15000000000E+04  0.10566000000E+00 0.  1.
        994   -1    0    0    0    0 -0.00000000000E+00 -0.00000000000E+00  0.11368683772E-12  0.17120000000E+03  0.17120000000E+03 0.  0.
         13    1    1    2    0    0  0.12601050752E+02  0.71007078355E+01  0.89104102527E+01  0.16988616975E+02  0.10566000000E+00 0.  1.
        994    1    1    2    0    0 -0.15480327455E+02 -0.11855902391E+02  0.94903648513E+01  0.17256798656E+03  0.17120000000E+03 0.  0.
        998    1    1    2    0    0  0.28792767034E+01  0.47551945558E+01  0.14815992212E+04  0.14816433965E+04  0.10000000000E+02 0.  1.
</event>
<event>
 5    1  0.1141915E-008  0.3809717E+03  0.7957747E-01  0.3446938E+00
         13   -1    0    0    0    0  0.00000000000E+00  0.00000000000E+00  0.14999999963E+04  0.15000000000E+04  0.10566000000E+00 0.  1.
        994   -1    0    0    0    0 -0.00000000000E+00 -0.00000000000E+00  0.11368683772E-12  0.17120000000E+03  0.17120000000E+03 0.  0.
         13    1    1    2    0    0  0.13358500408E+02  0.20051774810E+01  0.23834276796E+02  0.27396243982E+02  0.10566000000E+00 0.  1.
        994    1    1    2    0    0 -0.55800289035E+01 -0.18497179040E+01  0.37586041519E+01  0.17134212933E+03  0.17120000000E+03 0.  0.
        998    1    1    2    0    0 -0.77784715046E+01 -0.15545957706E+00  0.14724071153E+04  0.14724616267E+04  0.10000000000E+02 0.  1.
</event>
<event>
 5    1  0.1141915E-008  0.3832389E+03  0.7957747E-01  0.3437176E+00
         13   -1    0    0    0    0  0.00000000000E+00  0.00000000000E+00  0.14999999963E+04  0.15000000000E+04  0.10566000000E+00 0.  1.
        994   -1    0    0    0    0 -0.00000000000E+00 -0.00000000000E+00  0.11368683772E-12  0.17120000000E+03  0.17120000000E+03 0.  0.
         13    1    1    2    0    0 -0.22608229808E+02 -0.16813472724E+02  0.17006818674E+03  0.17238626460E+03  0.10566000000E+00 0.  1.
        994    1    1    2    0    0  0.67591475973E+01  0.42157961527E+01  0.27169219380E+01  0.17140676964E+03  0.17120000000E+03 0.  0.
        998    1    1    2    0    0  0.15849082210E+02  0.12597676572E+02  0.13272148876E+04  0.13274069658E+04  0.10000000000E+02 0.  1.
</event>
<event>
 5    1  0.1141915E-008  0.3731621E+03  0.7957747E-01  0.3481484E+00
         13   -1    0    0    0    0  0.00000000000E+00  0.00000000000E+00  0.14999999963E+04  0.15000000000E+04  0.10566000000E+00 0.  1.
        994   -1    0    0    0    0 -0.00000000000E+00 -0.00000000000E+00  0.11368683772E-12  0.17120000000E+03  0.17120000000E+03 0.  0.
         13    1    1    2    0    0  0.70379321516E+01  0.16733989355E+02  0.73359600746E+01  0.19580254415E+02  0.10566000000E+00 0.  1.
        994    1    1    2    0    0 -0.38764584220E+01 -0.18245710437E+02  0.13851576319E+02  0.17276932322E+03  0.17120000000E+03 0.  0.
        998    1    1    2    0    0 -0.31614737297E+01  0.15117210818E+01  0.14788124599E+04  0.14788504224E+04  0.10000000000E+02 0.  1.
</event>
<event>
 5    1  0.1141915E-008  0.3779256E+03  0.7957747E-01  0.3460241E+00
         13   -1    0    0    0    0  0.00000000000E+00  0.00000000000E+00  0.14999999963E+04  0.15000000000E+04  0.10566000000E+00 0. -1.
        994   -1    0    0    0    0 -0.00000000000E+00 -0.00000000000E+00  0.11368683772E-12  0.17120000000E+03  0.17120000000E+03 0.  0.
         13    1    1    2    0    0 -0.51264712482E+01  0.22682980422E+02  0.50724452356E+02  0.55801250336E+02  0.10566000000E+00 0. -1.
        994    1    1    2    0    0  0.41221755025E+01 -0.11378019788E+02  0.56770983270E+01  0.17172105611E+03  0.17120000000E+03 0.  0.
        998    1    1    2    0    0  0.10042957457E+01 -0.11304960635E+02  0.14435984456E+04  0.14436776936E+04  0.10000000000E+02 0.  0.
</event>
<event>
 5    1  0.1141915E-008  0.3661401E+03  0.7957747E-01  0.3513821E+00
         13   -1    0    0    0    0  0.00000000000E+00  0.00000000000E+00  0.14999999963E+04  0.15000000000E+04  0.10566000000E+00 0. -1.
        994   -1    0    0    0    0 -0.00000000000E+00 -0.00000000000E+00  0.11368683772E-12  0.17120000000E+03  0.17120000000E+03 0.  0.
         13    1    1    2    0    0 -0.23101135747E+03 -0.89487163908E+02  0.10752384978E+04  0.11034092795E+04  0.10566000000E+00 0. -1.
        994    1    1    2    0    0  0.23369958675E+03  0.69131186046E+02  0.24240801848E+03  0.38401263671E+03  0.17120000000E+03 0.  0.
        998    1    1    2    0    0 -0.26882292795E+01  0.20355977862E+02  0.18235348004E+03  0.18377808382E+03  0.10000000000E+02 0.  1.
</event>
<event>
 5    1  0.1141915E-008  0.4362364E+03  0.7957747E-01  0.3237747E+00
         13   -1    0    0    0    0  0.00000000000E+00  0.00000000000E+00  0.14999999963E+04  0.15000000000E+04  0.10566000000E+00 0.  1.
        994   -1    0    0    0    0 -0.00000000000E+00 -0.00000000000E+00  0.11368683772E-12  0.17120000000E+03  0.17120000000E+03 0.  0.
         13    1    1    2    0    0 -0.10777920507E+03  0.11671816820E+02  0.97282276292E+02  0.14565864477E+03  0.10566000000E+00 0.  1.
        994    1    1    2    0    0  0.92023824112E+02 -0.35603599906E+02  0.98171920804E+02  0.22064262182E+03  0.17120000000E+03 0.  0.
        998    1    1    2    0    0  0.15755380957E+02  0.23931783086E+02  0.13045457992E+04  0.13048987334E+04  0.10000000000E+02 0.  1.
</event>
<event>
 5    1  0.1141915E-008  0.3710874E+03  0.7957747E-01  0.3490908E+00
         13   -1    0    0    0    0  0.00000000000E+00  0.00000000000E+00  0.14999999963E+04  0.15000000000E+04  0.10566000000E+00 0.  1.
        994   -1    0    0    0    0 -0.00000000000E+00 -0.00000000000E+00  0.11368683772E-12  0.17120000000E+03  0.17120000000E+03 0.  0.
         13    1    1    2    0    0 -0.31534579298E+02 -0.29639916136E+02  0.99404997153E+02  0.10841733691E+03  0.10566000000E+00 0.  1.
        994    1    1    2    0    0  0.17429829494E+02  0.40161816573E+02  0.15333609706E+02  0.17737341980E+03  0.17120000000E+03 0.  0.
        998    1    1    2    0    0  0.14104749804E+02 -0.10521900437E+02  0.13852613894E+04  0.13854092433E+04  0.10000000000E+02 0.  1.
</event>
<event>
 5    1  0.1141915E-008  0.3809120E+03  0.7957747E-01  0.3447197E+00
         13   -1    0    0    0    0  0.00000000000E+00  0.00000000000E+00  0.14999999963E+04  0.15000000000E+04  0.10566000000E+00 0.  1.
        994   -1    0    0    0    0 -0.00000000000E+00 -0.00000000000E+00  0.11368683772E-12  0.17120000000E+03  0.17120000000E+03 0.  0.
         13    1    1    2    0    0 -0.29793483354E+02 -0.37520979219E+02  0.24762933125E+03  0.25222167312E+03  0.10566000000E+00 0.  1.
        994    1    1    2    0    0  0.32411506878E+02  0.43683619309E+02  0.13598283419E+02  0.18014748870E+03  0.17120000000E+03 0.  0.
        998    1    1    2    0    0 -0.26180235241E+01 -0.61626400895E+01  0.12387723816E+04  0.12388308382E+04  0.10000000000E+02 0.  1.
</event>
<event>
 5    1  0.1141915E-008  0.3804179E+03  0.7957747E-01  0.3449341E+00
         13   -1    0    0    0    0  0.00000000000E+00  0.00000000000E+00  0.14999999963E+04  0.15000000000E+04  0.10566000000E+00 0. -1.
        994   -1    0    0    0    0 -0.00000000000E+00 -0.00000000000E+00  0.11368683772E-12  0.17120000000E+03  0.17120000000E+03 0.  0.
         13    1    1    2    0    0 -0.31230207525E+02  0.50294544659E+01  0.15028335372E+03  0.15357642672E+03  0.10566000000E+00 0. -1.
        994    1    1    2    0    0 -0.71066684167E+01  0.23915979262E+01  0.41100824326E+01  0.17141341037E+03  0.17120000000E+03 0.  0.
        998    1    1    2    0    0  0.38336875942E+02 -0.74210523921E+01  0.13456065601E+04  0.13462101629E+04  0.10000000000E+02 0. -1.
</event>
<event>
 5    1  0.1141915E-008  0.3810779E+03  0.7957747E-01  0.3446479E+00
         13   -1    0    0    0    0  0.00000000000E+00  0.00000000000E+00  0.14999999963E+04  0.15000000000E+04  0.10566000000E+00 0.  1.
        994   -1    0    0    0    0 -0.00000000000E+00 -0.00000000000E+00  0.11368683772E-12  0.17120000000E+03  0.17120000000E+03 0.  0.
         13    1    1    2    0    0  0.10095844510E+02 -0.15276907531E+02  0.44891323994E+02  0.48482492861E+02  0.10566000000E+00 0.  1.
        994    1    1    2    0    0 -0.10123659875E+02  0.11308912170E+02  0.43578155027E+01  0.17192675923E+03  0.17120000000E+03 0.  0.
        998    1    1    2    0    0  0.27815364871E-01  0.39679953609E+01  0.14507508568E+04  0.14507907479E+04  0.10000000000E+02 0.  1.
</event>
<event>
 5    1  0.1141915E-008  0.3811014E+03  0.7957747E-01  0.3446377E+00
         13   -1    0    0    0    0  0.00000000000E+00  0.00000000000E+00  0.14999999963E+04  0.15000000000E+04  0.10566000000E+00 0. -1.
        994   -1    0    0    0    0 -0.00000000000E+00 -0.00000000000E+00  0.11368683772E-12  0.17120000000E+03  0.17120000000E+03 0.  0.
         13    1    1    2    0    0  0.11889515838E+02 -0.99793416807E+01  0.31943880445E+02  0.35515778312E+02  0.10566000000E+00 0. -1.
        994    1    1    2    0    0 -0.89790530256E+01  0.10947449493E+02  0.42462235936E+01  0.17183695894E+03  0.17120000000E+03 0.  0.
        998    1    1    2    0    0 -0.29104628125E+01 -0.96810781281E+00  0.14638098922E+04  0.14638472627E+04  0.10000000000E+02 0. -1.
</event>
<event>
 5    1  0.1141915E-008  0.3797645E+03  0.7957747E-01  0.3452185E+00
         13   -1    0    0    0    0  0.00000000000E+00  0.00000000000E+00  0.14999999963E+04  0.15000000000E+04  0.10566000000E+00 0.  1.
        994   -1    0    0    0    0 -0.00000000000E+00 -0.00000000000E+00  0.11368683772E-12  0.17120000000E+03  0.17120000000E+03 0.  0.
         13    1    1    2    0    0  0.92657563696E+02  0.28072785070E+02  0.58490571901E+03  0.59286441676E+03  0.10566000000E+00 0.  1.
        994    1    1    2    0    0 -0.10086056083E+03 -0.28302343849E+02  0.41885509737E+02  0.20503100088E+03  0.17120000000E+03 0.  0.
        998    1    1    2    0    0  0.82029971317E+01  0.22955877861E+00  0.87320876753E+03  0.87330458235E+03  0.10000000000E+02 0.  1.
</event>
<event>
 5    1  0.1141915E-008  0.3732087E+03  0.7957747E-01  0.3481273E+00
         13   -1    0    0    0    0  0.00000000000E+00  0.00000000000E+00  0.14999999963E+04  0.15000000000E+04  0.10566000000E+00 0. -1.
        994   -1    0    0    0    0 -0.00000000000E+00 -0.00000000000E+00  0.11368683772E-12  0.17120000000E+03  0.17120000000E+03 0.  0.
         13    1    1    2    0    0  0.83255088647E+02  0.19233427837E+02  0.43551551030E+03  0.44381877542E+03  0.10566000000E+00 0. -1.
        994    1    1    2    0    0  0.22350187939E+01  0.96137811329E+01  0.12990154276E+02  0.17197559189E+03  0.17120000000E+03 0.  0.
        998    1    1    2    0    0 -0.85490107441E+02 -0.28847208970E+02  0.10514943317E+04  0.10554056327E+04  0.10000000000E+02 0. -1.
</event>
<event>
 5    1  0.1141915E-008  0.3851357E+03  0.7957747E-01  0.3429097E+00
         13   -1    0    0    0    0  0.00000000000E+00  0.00000000000E+00  0.14999999963E+04  0.15000000000E+04  0.10566000000E+00 0.  1.
        994   -1    0    0    0    0 -0.00000000000E+00 -0.00000000000E+00  0.11368683772E-12  0.17120000000E+03  0.17120000000E+03 0.  0.
         13    1    1    2    0    0 -0.26083237064E+01  0.14399012210E+02  0.80198782367E+02  0.81522946232E+02  0.10566000000E+00 0.  1.
        994    1    1    2    0    0  0.27658838039E+02  0.15299282574E+02  0.48538742963E+01  0.17416107333E+03  0.17120000000E+03 0.  0.
        998    1    1    2    0    0 -0.25050514332E+02 -0.29698294783E+02  0.14149473396E+04  0.14155159804E+04  0.10000000000E+02 0.  1.
</event>
<event>
 5    1  0.1141915E-008  0.3753386E+03  0.7957747E-01  0.3471710E+00
         13   -1    0    0    0    0  0.00000000000E+00  0.00000000000E+00  0.14999999963E+04  0.15000000000E+04  0.10566000000E+00 0.  1.
        994   -1    0    0    0    0 -0.00000000000E+00 -0.00000000000E+00  0.11368683772E-12  0.17120000000E+03  0.17120000000E+03 0.  0.
         13    1    1    2    0    0 -0.14235995520E+02  0.32620357375E+01  0.13476336721E+02  0.19872776884E+02  0.10566000000E+00 0.  1.
        994    1    1    2    0    0  0.11202157655E+02 -0.52491135212E+01  0.70247474656E+01  0.17179007132E+03  0.17120000000E+03 0.  0.
        998    1    1    2    0    0  0.30338378651E+01  0.19870777837E+01  0.14794989121E+04  0.14795371518E+04  0.10000000000E+02 0.  1.
</event>
<event>
 5    1  0.1141915E-008  0.3698625E+03  0.7957747E-01  0.3496523E+00
         13   -1    0    0    0    0  0.00000000000E+00  0.00000000000E+00  0.14999999963E+04  0.15000000000E+04  0.10566000000E+00 0.  1.
        994   -1    0    0    0    0 -0.00000000000E+00 -0.00000000000E+00  0.11368683772E-12  0.17120000000E+03  0.17120000000E+03 0.  0.
         13    1    1    2    0    0 -0.17643223433E+02  0.43793821601E+01  0.10387465613E+02  0.20937357214E+02  0.10566000000E+00 0.  1.
        994    1    1    2    0    0  0.11276852487E+02 -0.11504131785E+02  0.11773436844E+02  0.17235882996E+03  0.17120000000E+03 0.  0.
        998    1    1    2    0    0  0.63663709461E+01  0.71247496245E+01  0.14778390938E+04  0.14779038128E+04  0.10000000000E+02 0.  1.
</event>
<event>
 5    1  0.1141915E-008  0.3753967E+03  0.7957747E-01  0.3471450E+00
         13   -1    0    0    0    0  0.00000000000E+00  0.00000000000E+00  0.14999999963E+04  0.15000000000E+04  0.10566000000E+00 0. -1.
        994   -1    0    0    0    0 -0.00000000000E+00 -0.00000000000E+00  0.11368683772E-12  0.17120000000E+03  0.17120000000E+03 0.  0.
         13    1    1    2    0    0 -0.17647839393E+02 -0.14345505709E+01  0.21828956605E+02  0.28107270964E+02  0.10566000000E+00 0. -1.
        994    1    1    2    0    0  0.33370134990E+01  0.22533665690E+02  0.82386170981E+01  0.17290522421E+03  0.17120000000E+03 0.  0.
        998    1    1    2    0    0  0.14310825894E+02 -0.21099115119E+02  0.14699324226E+04  0.14701875048E+04  0.10000000000E+02 0. -1.
</event>
<event>
 5    1  0.1141915E-008  0.4416014E+03  0.7957747E-01  0.3220181E+00
         13   -1    0    0    0    0  0.00000000000E+00  0.00000000000E+00  0.14999999963E+04  0.15000000000E+04  0.10566000000E+00 0.  1.
        994   -1    0    0    0    0 -0.00000000000E+00 -0.00000000000E+00  0.11368683772E-12  0.17120000000E+03  0.17120000000E+03 0.  0.
         13    1    1    2    0    0  0.73320728131E+02  0.45052538882E+02  0.44892994840E+02  0.97062106835E+02  0.10566000000E+00 0.  1.
        994    1    1    2    0    0 -0.86228714069E+02 -0.60312845669E+02  0.11047271234E+03  0.22931788123E+03  0.17120000000E+03 0.  0.
        998    1    1    2    0    0  0.12907985938E+02  0.15260306787E+02  0.13446342891E+04  0.13448200119E+04  0.10000000000E+02 0.  1.
</event>
<event>
 5    1  0.1141915E-008  0.3852309E+03  0.7957747E-01  0.3428694E+00
         13   -1    0    0    0    0  0.00000000000E+00  0.00000000000E+00  0.14999999963E+04  0.15000000000E+04  0.10566000000E+00 0.  1.
        994   -1    0    0    0    0 -0.00000000000E+00 -0.00000000000E+00  0.11368683772E-12  0.17120000000E+03  0.17120000000E+03 0.  0.
         13    1    1    2    0    0 -0.38923344365E+01 -0.10776170293E+02  0.45358313887E+02  0.46783158468E+02  0.10566000000E+00 0.  1.
        994    1    1    2    0    0  0.83392407739E+01 -0.35239454793E+01  0.17849303045E+01  0.17144849694E+03  0.17120000000E+03 0.  0.
        998    1    1    2    0    0 -0.44469063374E+01  0.14300115772E+02  0.14528567521E+04  0.14529683446E+04  0.10000000000E+02 0.  1.
</event>
<event>
 5    1  0.1141915E-008  0.4063304E+03  0.7957747E-01  0.3343956E+00
         13   -1    0    0    0    0  0.00000000000E+00  0.00000000000E+00  0.14999999963E+04  0.15000000000E+04  0.10566000000E+00 0. -1.
        994   -1    0    0    0    0 -0.00000000000E+00 -0.00000000000E+00  0.11368683772E-12  0.17120000000E+03  0.17120000000E+03 0.  0.
         13    1    1    2    0    0 -0.12507634403E+03  0.87621631326E+02  0.25684508751E+03  0.29881608433E+03  0.10566000000E+00 0. -1.
        994    1    1    2    0    0  0.12138379452E+03 -0.12486574252E+03  0.16771989654E+03  0.29625138468E+03  0.17120000000E+03 0.  0.
        998    1    1    2    0    0  0.36925495064E+01  0.37244111189E+02  0.10754350122E+04  0.10761325310E+04  0.10000000000E+02 0. -1.
</event>
<event>
 5    1  0.1141915E-008  0.3800762E+03  0.7957747E-01  0.3450827E+00
         13   -1    0    0    0    0  0.00000000000E+00  0.00000000000E+00  0.14999999963E+04  0.15000000000E+04  0.10566000000E+00 0. -1.
        994   -1    0    0    0    0 -0.00000000000E+00 -0.00000000000E+00  0.11368683772E-12  0.17120000000E+03  0.17120000000E+03 0.  0.
         13    1    1    2    0    0  0.11826510674E+02 -0.26712866793E+02  0.91285948488E+02  0.95846643981E+02  0.10566000000E+00 0. -1.
        994    1    1    2    0    0 -0.17896237167E+02  0.38168692655E+02  0.10056936832E+02  0.17660041444E+03  0.17120000000E+03 0.  0.
        998    1    1    2    0    0  0.60697264929E+01 -0.11455825862E+02  0.13986571110E+04  0.13987529416E+04  0.10000000000E+02 0. -1.
</event>
<event>
 5    1  0.1141915E-008  0.3718023E+03  0.7957747E-01  0.3487649E+00
         13   -1    0    0    0    0  0.00000000000E+00  0.00000000000E+00  0.14999999963E+04  0.15000000000E+04  0.10566000000E+00 0.  1.
        994   -1    0    0    0    0 -0.00000000000E+00 -0.00000000000E+00  0.11368683772E-12  0.17120000000E+03  0.17120000000E+03 0.  0.
         13    1    1    2    0    0  0.58494807250E+02 -0.29628462264E+02  0.36533238375E+03  0.37117010929E+03  0.10566000000E+00 0.  1.
        994    1    1    2    0    0  0.56068339818E+01 -0.16942680908E+01  0.84479500008E+01  0.17150835254E+03  0.17120000000E+03 0.  0.
        998    1    1    2    0    0 -0.64101641231E+02  0.31322730355E+02  0.11262196625E+04  0.11285215382E+04  0.10000000000E+02 0.  1.
</event>
<event>
 5    1  0.1141915E-008  0.3778481E+03  0.7957747E-01  0.3460582E+00
         13   -1    0    0    0    0  0.00000000000E+00  0.00000000000E+00  0.14999999963E+04  0.15000000000E+04  0.10566000000E+00 0.  1.
        994   -1    0    0    0    0 -0.00000000000E+00 -0.00000000000E+00  0.11368683772E-12  0.17120000000E+03  0.17120000000E+03 0.  0.
         13    1    1    2    0    0  0.10743748518E+02 -0.29423819648E+01  0.91130457699E+01  0.14392515801E+02  0.10566000000E+00 0.  1.
        994    1    1    2    0    0 -0.31131025760E+02 -0.11894297846E+02  0.89717539063E+01  0.17464405932E+03  0.17120000000E+03 0.  0.
        998    1    1    2    0    0  0.20387277242E+02  0.14836679811E+02  0.14819151966E+04  0.14821634249E+04  0.10000000000E+02 0.  1.
</event>
<event>
 5    1  0.1141915E-008  0.3760976E+03  0.7957747E-01  0.3468328E+00
         13   -1    0    0    0    0  0.00000000000E+00  0.00000000000E+00  0.14999999963E+04  0.15000000000E+04  0.10566000000E+00 0. -1.
        994   -1    0    0    0    0 -0.00000000000E+00 -0.00000000000E+00  0.11368683772E-12  0.17120000000E+03  0.17120000000E+03 0.  0.
         13    1    1    2    0    0 -0.44321672904E+01 -0.11853954795E+02  0.10400179657E+02  0.16380941734E+02  0.10566000000E+00 0. -1.
        994    1    1    2    0    0  0.10844736631E+02  0.34795641957E+01  0.65555941484E+01  0.17170361526E+03  0.17120000000E+03 0.  0.
        998    1    1    2    0    0 -0.64125693410E+01  0.83743905991E+01  0.14830442225E+04  0.14831154430E+04  0.10000000000E+02 0. -1.
</event>
<event>
 5    1  0.1141915E-008  0.3842525E+03  0.7957747E-01  0.3432849E+00
         13   -1    0    0    0    0  0.00000000000E+00  0.00000000000E+00  0.14999999963E+04  0.15000000000E+04  0.10566000000E+00 0.  1.
        994   -1    0    0    0    0 -0.00000000000E+00 -0.00000000000E+00  0.11368683772E-12  0.17120000000E+03  0.17120000000E+03 0.  0.
         13    1    1    2    0    0  0.92291147177E+01 -0.41893509881E+01  0.26534485801E+02  0.28404529937E+02  0.10566000000E+00 0.  1.
        994    1    1    2    0    0  0.81332951415E+01  0.22096339438E-01  0.22198322170E+01  0.17140746376E+03  0.17120000000E+03 0.  0.
        998    1    1    2    0    0 -0.17362409859E+02  0.41672546487E+01  0.14712456783E+04  0.14713880063E+04  0.10000000000E+02 0.  1.
</event>
<event>
 5    1  0.1141915E-008  0.3781131E+03  0.7957747E-01  0.3459416E+00
         13   -1    0    0    0    0  0.00000000000E+00  0.00000000000E+00  0.14999999963E+04  0.15000000000E+04  0.10566000000E+00 0. -1.
        994   -1    0    0    0    0 -0.00000000000E+00 -0.00000000000E+00  0.11368683772E-12  0.17120000000E+03  0.17120000000E+03 0.  0.
         13    1    1    2    0    0  0.76092324818E+02 -0.44513442541E+02  0.50038817334E+03  0.50809430586E+03  0.10566000000E+00 0. -1.
        994    1    1    2    0    0 -0.81911823049E+02  0.35731577619E+02  0.32442242284E+02  0.19582704481E+03  0.17120000000E+03 0.  0.
        998    1    1    2    0    0  0.58194982304E+01  0.87818649222E+01  0.96716958065E+03  0.96727864933E+03  0.10000000000E+02 0. -1.
</event>
<event>
 5    1  0.1141915E-008  0.3806056E+03  0.7957747E-01  0.3448526E+00
         13   -1    0    0    0    0  0.00000000000E+00  0.00000000000E+00  0.14999999963E+04  0.15000000000E+04  0.10566000000E+00 0.  1.
        994   -1    0    0    0    0 -0.00000000000E+00 -0.00000000000E+00  0.11368683772E-12  0.17120000000E+03  0.17120000000E+03 0.  0.
         13    1    1    2    0    0  0.25895626030E+02  0.17155942677E+02  0.11534632922E+03  0.11945583554E+03  0.10566000000E+00 0.  1.
        994    1    1    2    0    0 -0.32391987399E+02 -0.10085297120E+02  0.76771215343E+01  0.17469783130E+03  0.17120000000E+03 0.  0.
        998    1    1    2    0    0  0.64963613685E+01 -0.70706455571E+01  0.13769765455E+04  0.13770463332E+04  0.10000000000E+02 0.  1.
</event>
<event>
 5    1  0.1141915E-008  0.3844994E+03  0.7957747E-01  0.3431798E+00
         13   -1    0    0    0    0  0.00000000000E+00  0.00000000000E+00  0.14999999963E+04  0.15000000000E+04  0.10566000000E+00 0.  1.
        994   -1    0    0    0    0 -0.00000000000E+00 -0.00000000000E+00  0.11368683772E-12  0.17120000000E+03  0.17120000000E+03 0.  0.
         13    1    1    2    0    0 -0.91754613560E+01 -0.18703754625E+02  0.12063929785E+03  0.12242496019E+03  0.10566000000E+00 0.  1.
        994    1    1    2    0    0  0.72655789550E+01  0.47462789329E+01  0.21270279359E+01  0.17143301913E+03  0.17120000000E+03 0.  0.
        998    1    1    2    0    0  0.19098824009E+01  0.13957475692E+02  0.13772336705E+04  0.13773420207E+04  0.10000000000E+02 0.  1.
</event>
<event>
 5    1  0.1141915E-008  0.3837275E+03  0.7957747E-01  0.3435087E+00
         13   -1    0    0    0    0  0.00000000000E+00  0.00000000000E+00  0.14999999963E+04  0.15000000000E+04  0.10566000000E+00 0.  1.
        994   -1    0    0    0    0 -0.00000000000E+00 -0.00000000000E+00  0.11368683772E-12  0.17120000000E+03  0.17120000000E+03 0.  0.
         13    1    1    2    0    0 -0.59013993064E+01  0.17642380482E+02  0.71953716247E+02  0.74319772259E+02  0.10566000000E+00 0.  1.
        994    1    1    2    0    0  0.17826859686E+01 -0.22045649837E+02  0.38803221003E+01  0.17266639958E+03  0.17120000000E+03 0.  0.
        998    1    1    2    0    0  0.41187133378E+01  0.44032693548E+01  0.14241659579E+04  0.14242138282E+04  0.10000000000E+02 0.  1.
</event>
<event>
 5    1  0.1141915E-008  0.3796051E+03  0.7957747E-01  0.3452880E+00
         13   -1    0    0    0    0  0.00000000000E+00  0.00000000000E+00  0.14999999963E+04  0.15000000000E+04  0.10566000000E+00 0.  1.
        994   -1    0    0    0    0 -0.00000000000E+00 -0.00000000000E+00  0.11368683772E-12  0.17120000000E+03  0.17120000000E+03 0.  0.
         13    1    1    2    0    0  0.74399184623E+01 -0.14160519825E+02  0.29379734151E+02  0.33452244338E+02  0.10566000000E+00 0.  1.
        994    1    1    2    0    0  0.43155494790E+00 -0.84804740701E+01  0.45740284468E+01  0.17147147406E+03  0.17120000000E+03 0.  0.
        998    1    1    2    0    0 -0.78714734102E+01  0.22640993895E+02  0.14660462337E+04  0.14662762816E+04  0.10000000000E+02 0.  1.
</event>
<event>
 5    1  0.1554450E-008  0.3851384E+03  0.7957747E-01  0.3429085E+00
         13   -1    0    0    0    0  0.00000000000E+00  0.00000000000E+00  0.14999999963E+04  0.15000000000E+04  0.10566000000E+00 0.  1.
        994   -1    0    0    0    0 -0.00000000000E+00 -0.00000000000E+00  0.11368683772E-12  0.17120000000E+03  0.17120000000E+03 0.  0.
         13    1    1    2    0    0 -0.10444774555E+02  0.37896182469E+01  0.39994083071E+02  0.41508943213E+02  0.10566000000E+00 0.  1.
        994    1    1    2    0    0  0.61861659004E+01  0.26400316848E+01  0.17101395481E+01  0.17134060521E+03  0.17120000000E+03 0.  0.
        998    1    1    2    0    0  0.42586086545E+01 -0.64296499316E+01  0.14582957737E+04  0.14583504516E+04  0.10000000000E+02 0.  1.
</event>
<event>
 5    1  0.1141915E-008  0.3790907E+03  0.7957747E-01  0.3455127E+00
         13   -1    0    0    0    0  0.00000000000E+00  0.00000000000E+00  0.14999999963E+04  0.15000000000E+04  0.10566000000E+00 0.  1.
        994   -1    0    0    0    0 -0.00000000000E+00 -0.00000000000E+00  0.11368683772E-12  0.17120000000E+03  0.17120000000E+03 0.  0.
         13    1    1    2    0    0 -0.20997037643E+02 -0.98432890017E+01  0.54732011734E+02  0.59442158446E+02  0.10566000000E+00 0.  1.
        994    1    1    2    0    0  0.22084867578E+02  0.11763002537E+02  0.66950036732E+01  0.17314841229E+03  0.17120000000E+03 0.  0.
        998    1    1    2    0    0 -0.10878299347E+01 -0.19197135356E+01  0.14385729809E+04  0.14386094293E+04  0.10000000000E+02 0.  1.
</event>
<event>
 5    1  0.1141915E-008  0.3845091E+03  0.7957747E-01  0.3431757E+00
         13   -1    0    0    0    0  0.00000000000E+00  0.00000000000E+00  0.14999999963E+04  0.15000000000E+04  0.10566000000E+00 0.  1.
        994   -1    0    0    0    0 -0.00000000000E+00 -0.00000000000E+00  0.11368683772E-12  0.17120000000E+03  0.17120000000E+03 0.  0.
         13    1    1    2    0    0 -0.50977216721E+01  0.11126277371E+02  0.40288641935E+02  0.42106610495E+02  0.10566000000E+00 0.  1.
        994    1    1    2    0    0  0.93689100590E+01 -0.99501606228E+00  0.21664747925E+01  0.17147273878E+03  0.17120000000E+03 0.  0.
        998    1    1    2    0    0 -0.42711883869E+01 -0.10131261308E+02  0.14575448796E+04  0.14576206507E+04  0.10000000000E+02 0.  1.
</event>
<event>
 5    1  0.1141915E-008  0.3821005E+03  0.7957747E-01  0.3442063E+00
         13   -1    0    0    0    0  0.00000000000E+00  0.00000000000E+00  0.14999999963E+04  0.15000000000E+04  0.10566000000E+00 0.  1.
        994   -1    0    0    0    0 -0.00000000000E+00 -0.00000000000E+00  0.11368683772E-12  0.17120000000E+03  0.17120000000E+03 0.  0.
         13    1    1    2    0    0  0.17856787366E+01 -0.12741829700E+02  0.26200320750E+02  0.29189224794E+02  0.10566000000E+00 0.  1.
        994    1    1    2    0    0  0.56228174897E+01  0.42800666142E+01  0.32423564887E+01  0.17137645090E+03  0.17120000000E+03 0.  0.
        998    1    1    2    0    0 -0.74084962263E+01  0.84617630854E+01  0.14705573190E+04  0.14706343243E+04  0.10000000000E+02 0.  1.
</event>
<event>
 5    1  0.1141915E-008  0.3763744E+03  0.7957747E-01  0.3467099E+00
         13   -1    0    0    0    0  0.00000000000E+00  0.00000000000E+00  0.14999999963E+04  0.15000000000E+04  0.10566000000E+00 0.  1.
        994   -1    0    0    0    0 -0.00000000000E+00 -0.00000000000E+00  0.11368683772E-12  0.17120000000E+03  0.17120000000E+03 0.  0.
         13    1    1    2    0    0  0.13474880063E+03 -0.16775142401E+03  0.94530977756E+03  0.96948871383E+03  0.10566000000E+00 0.  1.
        994    1    1    2    0    0 -0.13514194839E+03  0.16928497821E+03  0.18605352824E+03  0.33293558751E+03  0.17120000000E+03 0.  0.
        998    1    1    2    0    0  0.39314776340E+00 -0.15335541975E+01  0.36863669048E+03  0.36877569865E+03  0.10000000000E+02 0.  0.
</event>
<event>
 5    1  0.1408629E-008  0.3858074E+03  0.7957747E-01  0.3426255E+00
         13   -1    0    0    0    0  0.00000000000E+00  0.00000000000E+00  0.14999999963E+04  0.15000000000E+04  0.10566000000E+00 0. -1.
        994   -1    0    0    0    0 -0.00000000000E+00 -0.00000000000E+00  0.11368683772E-12  0.17120000000E+03  0.17120000000E+03 0.  0.
         13    1    1    2    0    0 -0.12570580196E+02 -0.26503515556E+00  0.70710480235E+02  0.71819725070E+02  0.10566000000E+00 0. -1.
        994    1    1    2    0    0 -0.27171090258E+01 -0.63962638020E+01  0.13882411769E+01  0.17134661387E+03  0.17120000000E+03 0.  0.
        998    1    1    2    0    0  0.15287689221E+02  0.66612989576E+01  0.14279012749E+04  0.14280336611E+04  0.10000000000E+02 0. -1.
</event>
<event>
 5    1  0.1141915E-008  0.3846180E+03  0.7957747E-01  0.3431294E+00
         13   -1    0    0    0    0  0.00000000000E+00  0.00000000000E+00  0.14999999963E+04  0.15000000000E+04  0.10566000000E+00 0.  1.
        994   -1    0    0    0    0 -0.00000000000E+00 -0.00000000000E+00  0.11368683772E-12  0.17120000000E+03  0.17120000000E+03 0.  0.
         13    1    1    2    0    0  0.27232945918E+01 -0.16280287394E+03  0.42044449485E+03  0.45087223967E+03  0.10566000000E+00 0.  1.
        994    1    1    2    0    0 -0.40774987510E+01  0.17514292412E+03  0.14300137065E+03  0.28363797679E+03  0.17120000000E+03 0.  0.
        998    1    1    2    0    0  0.13542041592E+01 -0.12340050180E+02  0.93655413078E+03  0.93668978354E+03  0.10000000000E+02 0.  1.
</event>
<event>
 5    1  0.1141915E-008  0.3810075E+03  0.7957747E-01  0.3446784E+00
         13   -1    0    0    0    0  0.00000000000E+00  0.00000000000E+00  0.14999999963E+04  0.15000000000E+04  0.10566000000E+00 0.  1.
        994   -1    0    0    0    0 -0.00000000000E+00 -0.00000000000E+00  0.11368683772E-12  0.17120000000E+03  0.17120000000E+03 0.  0.
         13    1    1    2    0    0  0.19143517938E+02 -0.34936761645E+02  0.22650749591E+03  0.22998414828E+03  0.10566000000E+00 0.  1.
        994    1    1    2    0    0  0.19940367963E+01  0.22173275337E+02  0.52785495717E+01  0.17272212773E+03  0.17120000000E+03 0.  0.
        998    1    1    2    0    0 -0.21137554734E+02  0.12763486308E+02  0.12682139508E+04  0.12684937240E+04  0.10000000000E+02 0.  0.
</event>
<event>
 5    1  0.1141915E-008  0.3812858E+03  0.7957747E-01  0.3445579E+00
         13   -1    0    0    0    0  0.00000000000E+00  0.00000000000E+00  0.14999999963E+04  0.15000000000E+04  0.10566000000E+00 0. -1.
        994   -1    0    0    0    0 -0.00000000000E+00 -0.00000000000E+00  0.11368683772E-12  0.17120000000E+03  0.17120000000E+03 0.  0.
         13    1    1    2    0    0  0.17324774342E+02  0.20405793174E+02  0.10728738352E+03  0.11057639001E+03  0.10566000000E+00 0. -1.
        994    1    1    2    0    0  0.23699420316E+00 -0.93608439947E+01  0.37774238055E+01  0.17149749414E+03  0.17120000000E+03 0.  0.
        998    1    1    2    0    0 -0.17561768545E+02 -0.11044949179E+02  0.13889351890E+04  0.13891261158E+04  0.10000000000E+02 0. -1.
</event>
<event>
 5    1  0.1141915E-008  0.3853385E+03  0.7957747E-01  0.3428238E+00
         13   -1    0    0    0    0  0.00000000000E+00  0.00000000000E+00  0.14999999963E+04  0.15000000000E+04  0.10566000000E+00 0.  1.
        994   -1    0    0    0    0 -0.00000000000E+00 -0.00000000000E+00  0.11368683772E-12  0.17120000000E+03  0.17120000000E+03 0.  0.
         13    1    1    2    0    0  0.10118272929E+02  0.92344132857E+01  0.64327371093E+02  0.65769869025E+02  0.10566000000E+00 0.  1.
        994    1    1    2    0    0 -0.31893141452E+01 -0.10211879772E+02  0.18382341320E+01  0.17154379417E+03  0.17120000000E+03 0.  0.
        998    1    1    2    0    0 -0.69289587837E+01  0.97746648591E+00  0.14338343911E+04  0.14338863368E+04  0.10000000000E+02 0.  1.
</event>
<event>
 5    1  0.1141915E-008  0.3781414E+03  0.7957747E-01  0.3459291E+00
         13   -1    0    0    0    0  0.00000000000E+00  0.00000000000E+00  0.14999999963E+04  0.15000000000E+04  0.10566000000E+00 0.  1.
        994   -1    0    0    0    0 -0.00000000000E+00 -0.00000000000E+00  0.11368683772E-12  0.17120000000E+03  0.17120000000E+03 0.  0.
         13    1    1    2    0    0 -0.28441513813E+02  0.21964504235E+02  0.35884806337E+02  0.50784738299E+02  0.10566000000E+00 0.  1.
        994    1    1    2    0    0  0.29567393241E+02 -0.98373088748E+01  0.18812566828E+02  0.17502672956E+03  0.17120000000E+03 0.  0.
        998    1    1    2    0    0 -0.11258794284E+01 -0.12127195360E+02  0.14453026231E+04  0.14453885321E+04  0.10000000000E+02 0.  1.
</event>
<event>
 5    1  0.1141915E-008  0.3755176E+03  0.7957747E-01  0.3470911E+00
         13   -1    0    0    0    0  0.00000000000E+00  0.00000000000E+00  0.14999999963E+04  0.15000000000E+04  0.10566000000E+00 0.  1.
        994   -1    0    0    0    0 -0.00000000000E+00 -0.00000000000E+00  0.11368683772E-12  0.17120000000E+03  0.17120000000E+03 0.  0.
         13    1    1    2    0    0  0.11406846570E+02  0.16598384728E+02  0.29105174519E+02  0.35394136126E+02  0.10566000000E+00 0.  1.
        994    1    1    2    0    0 -0.63830846653E+01 -0.10397136604E+02  0.69184024753E+01  0.17177353845E+03  0.17120000000E+03 0.  0.
        998    1    1    2    0    0 -0.50237619047E+01 -0.62012481238E+01  0.14639764193E+04  0.14640323254E+04  0.10000000000E+02 0.  1.
</event>
<event>
 5    1  0.1141915E-008  0.3737603E+03  0.7957747E-01  0.3478786E+00
         13   -1    0    0    0    0  0.00000000000E+00  0.00000000000E+00  0.14999999963E+04  0.15000000000E+04  0.10566000000E+00 0. -1.
        994   -1    0    0    0    0 -0.00000000000E+00 -0.00000000000E+00  0.11368683772E-12  0.17120000000E+03  0.17120000000E+03 0.  0.
         13    1    1    2    0    0 -0.10052149916E+02 -0.55123732147E+02  0.28198718258E+03  0.28750035455E+03  0.10566000000E+00 0. -1.
        994    1    1    2    0    0 -0.45493808822E+01 -0.59065881612E+01  0.75064705083E+01  0.17152659196E+03  0.17120000000E+03 0.  0.
        998    1    1    2    0    0  0.14601530799E+02  0.61030320308E+02  0.12105063432E+04  0.12121730535E+04  0.10000000000E+02 0. -1.
</event>
<event>
 5    1  0.1141915E-008  0.3832991E+03  0.7957747E-01  0.3436918E+00
         13   -1    0    0    0    0  0.00000000000E+00  0.00000000000E+00  0.14999999963E+04  0.15000000000E+04  0.10566000000E+00 0.  1.
        994   -1    0    0    0    0 -0.00000000000E+00 -0.00000000000E+00  0.11368683772E-12  0.17120000000E+03  0.17120000000E+03 0.  0.
         13    1    1    2    0    0 -0.74081898112E+01 -0.21202140380E+02  0.98280037158E+02  0.10081363450E+03  0.10566000000E+00 0.  1.
        994    1    1    2    0    0  0.31253012174E+01  0.18508217692E+02  0.36429383431E+01  0.17226442648E+03  0.17120000000E+03 0.  0.
        998    1    1    2    0    0  0.42828885938E+01  0.26939226886E+01  0.13980770208E+04  0.13981219390E+04  0.10000000000E+02 0.  1.
</event>
<event>
 5    1  0.1141915E-008  0.3835993E+03  0.7957747E-01  0.3435634E+00
         13   -1    0    0    0    0  0.00000000000E+00  0.00000000000E+00  0.14999999963E+04  0.15000000000E+04  0.10566000000E+00 0. -1.
        994   -1    0    0    0    0 -0.00000000000E+00 -0.00000000000E+00  0.11368683772E-12  0.17120000000E+03  0.17120000000E+03 0.  0.
         13    1    1    2    0    0 -0.45651759442E+01 -0.94548503273E+01  0.22619260896E+02  0.24937464860E+02  0.10566000000E+00 0. -1.
        994    1    1    2    0    0  0.43116443900E+01  0.10117006924E+02  0.27268072640E+01  0.17157453070E+03  0.17120000000E+03 0.  0.
        998    1    1    2    0    0  0.25353155415E+00 -0.66215659658E+00  0.14746539281E+04  0.14746880044E+04  0.10000000000E+02 0. -1.
</event>
<event>
 5    1  0.1141915E-008  0.3848094E+03  0.7957747E-01  0.3430481E+00
         13   -1    0    0    0    0  0.00000000000E+00  0.00000000000E+00  0.14999999963E+04  0.15000000000E+04  0.10566000000E+00 0.  1.
        994   -1    0    0    0    0 -0.00000000000E+00 -0.00000000000E+00  0.11368683772E-12  0.17120000000E+03  0.17120000000E+03 0.  0.
         13    1    1    2    0    0  0.11405316611E+02 -0.81489504080E+00  0.40904470082E+02  0.42472722277E+02  0.10566000000E+00 0.  1.
        994    1    1    2    0    0  0.98310669091E+01  0.20570757276E+02  0.34371811383E+01  0.17274565160E+03  0.17120000000E+03 0.  0.
        998    1    1    2    0    0 -0.21236383520E+02 -0.19755862235E+02  0.14556583451E+04  0.14559816261E+04  0.10000000000E+02 0.  1.
</event>
<event>
 5    1  0.1141915E-008  0.3697119E+03  0.7957747E-01  0.3497216E+00
         13   -1    0    0    0    0  0.00000000000E+00  0.00000000000E+00  0.14999999963E+04  0.15000000000E+04  0.10566000000E+00 0.  1.
        994   -1    0    0    0    0 -0.00000000000E+00 -0.00000000000E+00  0.11368683772E-12  0.17120000000E+03  0.17120000000E+03 0.  0.
         13    1    1    2    0    0 -0.24278350586E+02  0.40277342932E+02  0.11721779054E+03  0.12630013557E+03  0.10566000000E+00 0.  1.
        994    1    1    2    0    0  0.46549953336E+01 -0.23404562696E+02  0.11393117076E+02  0.17323015226E+03  0.17120000000E+03 0.  0.
        998    1    1    2    0    0  0.19623355252E+02 -0.16872780235E+02  0.13713890887E+04  0.13716697122E+04  0.10000000000E+02 0.  1.
</event>
<event>
 5    1  0.1141915E-008  0.3858033E+03  0.7957747E-01  0.3426272E+00
         13   -1    0    0    0    0  0.00000000000E+00  0.00000000000E+00  0.14999999963E+04  0.15000000000E+04  0.10566000000E+00 0.  1.
        994   -1    0    0    0    0 -0.00000000000E+00 -0.00000000000E+00  0.11368683772E-12  0.17120000000E+03  0.17120000000E+03 0.  0.
         13    1    1    2    0    0 -0.74962963267E+01 -0.88714284584E+01  0.52890022608E+02  0.54150368023E+02  0.10566000000E+00 0.  1.
        994    1    1    2    0    0  0.51713642862E+01  0.14619010306E+02  0.20209594664E+01  0.17191271840E+03  0.17120000000E+03 0.  0.
        998    1    1    2    0    0  0.23249320405E+01 -0.57475818474E+01  0.14450890142E+04  0.14451369136E+04  0.10000000000E+02 0.  1.
</event>
<event>
 5    1  0.1141915E-008  0.2753151E+03  0.7957747E-01  0.4089701E+00
         13   -1    0    0    0    0  0.00000000000E+00  0.00000000000E+00  0.14999999963E+04  0.15000000000E+04  0.10566000000E+00 0.  1.
        994   -1    0    0    0    0 -0.00000000000E+00 -0.00000000000E+00  0.11368683772E-12  0.17120000000E+03  0.17120000000E+03 0.  0.
         13    1    1    2    0    0 -0.17289648640E+03 -0.32132075539E+02  0.62807515720E+03  0.65223008176E+03  0.10566000000E+00 0.  1.
        994    1    1    2    0    0  0.74526151299E+02  0.86376572078E+00  0.53824481158E+02  0.19432294793E+03  0.17120000000E+03 0.  0.
        998    1    1    2    0    0  0.98370335106E+02  0.31268309819E+02  0.81810035792E+03  0.82464697032E+03  0.10000000000E+02 0. -1.
</event>
<event>
 5    1  0.1141915E-008  0.3784463E+03  0.7957747E-01  0.3457951E+00
         13   -1    0    0    0    0  0.00000000000E+00  0.00000000000E+00  0.14999999963E+04  0.15000000000E+04  0.10566000000E+00 0. -1.
        994   -1    0    0    0    0 -0.00000000000E+00 -0.00000000000E+00  0.11368683772E-12  0.17120000000E+03  0.17120000000E+03 0.  0.
         13    1    1    2    0    0  0.81086306032E+01 -0.40338059495E+02  0.16241307132E+03  0.16754380273E+03  0.10566000000E+00 0. -1.
        994    1    1    2    0    0 -0.72933567174E+01  0.31094665012E+02  0.83547168485E+01  0.17435398630E+03  0.17120000000E+03 0.  0.
        998    1    1    2    0    0 -0.81527388579E+00  0.92433944828E+01  0.13292322081E+04  0.13293022110E+04  0.10000000000E+02 0. -1.
</event>
<event>
 5    1  0.1141915E-008  0.4028990E+03  0.7957747E-01  0.3357135E+00
         13   -1    0    0    0    0  0.00000000000E+00  0.00000000000E+00  0.14999999963E+04  0.15000000000E+04  0.10566000000E+00 0. -1.
        994   -1    0    0    0    0 -0.00000000000E+00 -0.00000000000E+00  0.11368683772E-12  0.17120000000E+03  0.17120000000E+03 0.  0.
         13    1    1    2    0    0 -0.27967240178E+02 -0.37805186276E+02  0.28198128633E+02  0.54831963808E+02  0.10566000000E+00 0. -1.
        994    1    1    2    0    0  0.41726524936E+02 -0.18867258068E+02  0.37875079546E+02  0.18122096446E+03  0.17120000000E+03 0.  0.
        998    1    1    2    0    0 -0.13759284758E+02  0.56672444344E+02  0.14339267881E+04  0.14351470717E+04  0.10000000000E+02 0. -1.
</event>
<event>
 5    1  0.1280010E-008  0.3864088E+03  0.7957747E-01  0.3423719E+00
         13   -1    0    0    0    0  0.00000000000E+00  0.00000000000E+00  0.14999999963E+04  0.15000000000E+04  0.10566000000E+00 0.  1.
        994   -1    0    0    0    0 -0.00000000000E+00 -0.00000000000E+00  0.11368683772E-12  0.17120000000E+03  0.17120000000E+03 0.  0.
         13    1    1    2    0    0 -0.44676762498E+01  0.96713855648E+01  0.59086499509E+02  0.60039332259E+02  0.10566000000E+00 0.  1.
        994    1    1    2    0    0 -0.48088301420E+01 -0.17258249842E+02  0.19837741667E+01  0.17214629649E+03  0.17120000000E+03 0.  0.
        998    1    1    2    0    0  0.92765063918E+01  0.75868642767E+01  0.14389297226E+04  0.14390143713E+04  0.10000000000E+02 0.  1.
</event>
<event>
 5    1  0.1141915E-008  0.3447937E+03  0.7957747E-01  0.3620412E+00
         13   -1    0    0    0    0  0.00000000000E+00  0.00000000000E+00  0.14999999963E+04  0.15000000000E+04  0.10566000000E+00 0.  1.
        994   -1    0    0    0    0 -0.00000000000E+00 -0.00000000000E+00  0.11368683772E-12  0.17120000000E+03  0.17120000000E+03 0.  0.
         13    1    1    2    0    0 -0.27176306441E+03 -0.15818202136E+03  0.68457093514E+03  0.75333531144E+03  0.10566000000E+00 0.  1.
        994    1    1    2    0    0  0.23735770618E+03  0.13268087982E+03  0.46818219203E+03  0.56784408202E+03  0.17120000000E+03 0.  0.
        998    1    1    2    0    0  0.34405358233E+02  0.25501141545E+02  0.34724686911E+03  0.35002060654E+03  0.10000000000E+02 0. -1.
</event>
<event>
 5    1  0.1141915E-008  0.3817954E+03  0.7957747E-01  0.3443378E+00
         13   -1    0    0    0    0  0.00000000000E+00  0.00000000000E+00  0.14999999963E+04  0.15000000000E+04  0.10566000000E+00 0. -1.
        994   -1    0    0    0    0 -0.00000000000E+00 -0.00000000000E+00  0.11368683772E-12  0.17120000000E+03  0.17120000000E+03 0.  0.
         13    1    1    2    0    0 -0.15631614196E+02 -0.39856467161E+01  0.39744263346E+02  0.42893477069E+02  0.10566000000E+00 0. -1.
        994    1    1    2    0    0  0.57010841179E+01  0.46411764912E+01  0.34091948498E+01  0.17139167275E+03  0.17120000000E+03 0.  0.
        998    1    1    2    0    0  0.99305300780E+01 -0.65552977503E+00  0.14568465381E+04  0.14569148502E+04  0.10000000000E+02 0. -1.
</event>
<event>
 5    1  0.1141915E-008  0.3772889E+03  0.7957747E-01  0.3463049E+00
         13   -1    0    0    0    0  0.00000000000E+00  0.00000000000E+00  0.14999999963E+04  0.15000000000E+04  0.10566000000E+00 0.  1.
        994   -1    0    0    0    0 -0.00000000000E+00 -0.00000000000E+00  0.11368683772E-12  0.17120000000E+03  0.17120000000E+03 0.  0.
         13    1    1    2    0    0 -0.71237940226E+02  0.62374904144E+01  0.39768504104E+03  0.40406330376E+03  0.10566000000E+00 0.  1.
        994    1    1    2    0    0  0.55724858708E+02 -0.12012910412E+02  0.16548925072E+02  0.18119844595E+03  0.17120000000E+03 0.  0.
        998    1    1    2    0    0  0.15513081518E+02  0.57754199975E+01  0.10857660302E+04  0.10859382503E+04  0.10000000000E+02 0.  1.
</event>
<event>
 5    1  0.1141915E-008  0.3848060E+03  0.7957747E-01  0.3430495E+00
         13   -1    0    0    0    0  0.00000000000E+00  0.00000000000E+00  0.14999999963E+04  0.15000000000E+04  0.10566000000E+00 0.  1.
        994   -1    0    0    0    0 -0.00000000000E+00 -0.00000000000E+00  0.11368683772E-12  0.17120000000E+03  0.17120000000E+03 0.  0.
         13    1    1    2    0    0 -0.93598465817E+00  0.11606222762E+02  0.39157127927E+02  0.40851833565E+02  0.10566000000E+00 0.  1.
        994    1    1    2    0    0  0.70692310758E+01 -0.67453518210E+01  0.20407199470E+01  0.17149075292E+03  0.17120000000E+03 0.  0.
        998    1    1    2    0    0 -0.61332464176E+01 -0.48608709410E+01  0.14588021484E+04  0.14588574135E+04  0.10000000000E+02 0.  1.
</event>
<event>
 5    1  0.1141915E-008  0.3762300E+03  0.7957747E-01  0.3467740E+00
         13   -1    0    0    0    0  0.00000000000E+00  0.00000000000E+00  0.14999999963E+04  0.15000000000E+04  0.10566000000E+00 0. -1.
        994   -1    0    0    0    0 -0.00000000000E+00 -0.00000000000E+00  0.11368683772E-12  0.17120000000E+03  0.17120000000E+03 0.  0.
         13    1    1    2    0    0 -0.22618684997E+02 -0.15481459719E+02  0.57581601098E+02  0.63772505479E+02  0.10566000000E+00 0. -1.
        994    1    1    2    0    0  0.25122888752E+02  0.13975611752E+02  0.88512577917E+01  0.17382250150E+03  0.17120000000E+03 0.  0.
        998    1    1    2    0    0 -0.25042037544E+01  0.15058479665E+01  0.14335671374E+04  0.14336049930E+04  0.10000000000E+02 0. -1.
</event>
<event>
 5    1  0.1141915E-008  0.3806040E+03  0.7957747E-01  0.3448533E+00
         13   -1    0    0    0    0  0.00000000000E+00  0.00000000000E+00  0.14999999963E+04  0.15000000000E+04  0.10566000000E+00 0. -1.
        994   -1    0    0    0    0 -0.00000000000E+00 -0.00000000000E+00  0.11368683772E-12  0.17120000000E+03  0.17120000000E+03 0.  0.
         13    1    1    2    0    0  0.68145131300E+01 -0.15051714820E+02  0.33587771590E+02  0.37431821658E+02  0.10566000000E+00 0. -1.
        994    1    1    2    0    0 -0.35431448112E+01  0.16450561803E+02  0.47738523208E+01  0.17209126801E+03  0.17120000000E+03 0.  0.
        998    1    1    2    0    0 -0.32713683188E+01 -0.13988469821E+01  0.14616383724E+04  0.14616769103E+04  0.10000000000E+02 0. -1.
</event>
<event>
 5    1  0.1141915E-008  0.3835299E+03  0.7957747E-01  0.3435931E+00
         13   -1    0    0    0    0  0.00000000000E+00  0.00000000000E+00  0.14999999963E+04  0.15000000000E+04  0.10566000000E+00 0. -1.
        994   -1    0    0    0    0 -0.00000000000E+00 -0.00000000000E+00  0.11368683772E-12  0.17120000000E+03  0.17120000000E+03 0.  0.
         13    1    1    2    0    0 -0.14680084819E+02 -0.10997727428E+02  0.69634241149E+02  0.72009677150E+02  0.10566000000E+00 0. -1.
        994    1    1    2    0    0  0.19824067061E+02 -0.21360924381E+01  0.36765874567E+01  0.17239638575E+03  0.17120000000E+03 0.  0.
        998    1    1    2    0    0 -0.51439822418E+01  0.13133819866E+02  0.14266891677E+04  0.14267939371E+04  0.10000000000E+02 0. -1.
</event>
<event>
 5    1  0.1141915E-008  0.3850475E+03  0.7957747E-01  0.3429471E+00
         13   -1    0    0    0    0  0.00000000000E+00  0.00000000000E+00  0.14999999963E+04  0.15000000000E+04  0.10566000000E+00 0. -1.
        994   -1    0    0    0    0 -0.00000000000E+00 -0.00000000000E+00  0.11368683772E-12  0.17120000000E+03  0.17120000000E+03 0.  0.
         13    1    1    2    0    0 -0.69599199307E+01  0.14899770675E+02  0.96679804577E+02  0.98068544543E+02  0.10566000000E+00 0. -1.
        994    1    1    2    0    0  0.12071593622E+02  0.12419918464E+02  0.25935626101E+01  0.17209341741E+03  0.17120000000E+03 0.  0.
        998    1    1    2    0    0 -0.51116736915E+01 -0.27319689139E+02  0.14007266291E+04  0.14010380381E+04  0.10000000000E+02 0. -1.
</event>
<event>
 5    1  0.1141915E-008  0.3805669E+03  0.7957747E-01  0.3448694E+00
         13   -1    0    0    0    0  0.00000000000E+00  0.00000000000E+00  0.14999999963E+04  0.15000000000E+04  0.10566000000E+00 0. -1.
        994   -1    0    0    0    0 -0.00000000000E+00 -0.00000000000E+00  0.11368683772E-12  0.17120000000E+03  0.17120000000E+03 0.  0.
         13    1    1    2    0    0 -0.44419412242E+02 -0.74998994349E+02  0.48873681248E+03  0.49644900682E+03  0.10566000000E+00 0. -1.
        994    1    1    2    0    0  0.58330762010E+02  0.92897387940E+02  0.45098122470E+02  0.20826829603E+03  0.17120000000E+03 0.  0.
        998    1    1    2    0    0 -0.13911349768E+02 -0.17898393591E+02  0.96616506133E+03  0.96648269715E+03  0.10000000000E+02 0. -1.
</event>
<event>
 5    1  0.1141915E-008  0.3769517E+03  0.7957747E-01  0.3464540E+00
         13   -1    0    0    0    0  0.00000000000E+00  0.00000000000E+00  0.14999999963E+04  0.15000000000E+04  0.10566000000E+00 0.  1.
        994   -1    0    0    0    0 -0.00000000000E+00 -0.00000000000E+00  0.11368683772E-12  0.17120000000E+03  0.17120000000E+03 0.  0.
         13    1    1    2    0    0  0.17949150090E+02 -0.28894078547E+01  0.26384659425E+02  0.32041880153E+02  0.10566000000E+00 0.  1.
        994    1    1    2    0    0 -0.17728016765E+02 -0.16130110603E+00  0.67419970534E+01  0.17224750541E+03  0.17120000000E+03 0.  0.
        998    1    1    2    0    0 -0.22113332505E+00  0.30507089608E+01  0.14668733398E+04  0.14669106144E+04  0.10000000000E+02 0.  1.
</event>
<event>
 5    1  0.1141915E-008  0.3806741E+03  0.7957747E-01  0.3448229E+00
         13   -1    0    0    0    0  0.00000000000E+00  0.00000000000E+00  0.14999999963E+04  0.15000000000E+04  0.10566000000E+00 0. -1.
        994   -1    0    0    0    0 -0.00000000000E+00 -0.00000000000E+00  0.11368683772E-12  0.17120000000E+03  0.17120000000E+03 0.  0.
         13    1    1    2    0    0 -0.13873874246E+02 -0.31294676656E+00  0.23729542745E+02  0.27489719627E+02  0.10566000000E+00 0. -1.
        994    1    1    2    0    0  0.11393419581E+02  0.29404587679E+01  0.42552178915E+01  0.17165664329E+03  0.17120000000E+03 0.  0.
        998    1    1    2    0    0  0.24804546647E+01 -0.26275120014E+01  0.14720152356E+04  0.14720536371E+04  0.10000000000E+02 0. -1.
</event>
<event>
 5    1  0.1141915E-008  0.3858834E+03  0.7957747E-01  0.3425934E+00
         13   -1    0    0    0    0  0.00000000000E+00  0.00000000000E+00  0.14999999963E+04  0.15000000000E+04  0.10566000000E+00 0. -1.
        994   -1    0    0    0    0 -0.00000000000E+00 -0.00000000000E+00  0.11368683772E-12  0.17120000000E+03  0.17120000000E+03 0.  0.
         13    1    1    2    0    0 -0.26398988313E+00  0.12480063919E+02  0.62190355257E+02  0.63430853196E+02  0.10566000000E+00 0. -1.
        994    1    1    2    0    0  0.35082436929E+01 -0.16610369903E+02  0.21378922395E+01  0.17205296494E+03  0.17120000000E+03 0.  0.
        998    1    1    2    0    0 -0.32442538098E+01  0.41303059842E+01  0.14356717488E+04  0.14357161819E+04  0.10000000000E+02 0. -1.
</event>
<event>
 5    1  0.1141915E-008  0.3831678E+03  0.7957747E-01  0.3437480E+00
         13   -1    0    0    0    0  0.00000000000E+00  0.00000000000E+00  0.14999999963E+04  0.15000000000E+04  0.10566000000E+00 0. -1.
        994   -1    0    0    0    0 -0.00000000000E+00 -0.00000000000E+00  0.11368683772E-12  0.17120000000E+03  0.17120000000E+03 0.  0.
         13    1    1    2    0    0 -0.42919375109E+01 -0.12977391240E+02  0.36143466073E+02  0.38641877734E+02  0.10566000000E+00 0. -1.
        994    1    1    2    0    0  0.62470615238E+01  0.61733712139E+01  0.27977417061E+01  0.17144796193E+03  0.17120000000E+03 0.  0.
        998    1    1    2    0    0 -0.19551240129E+01  0.68040200259E+01  0.14610587885E+04  0.14611101603E+04  0.10000000000E+02 0. -1.
</event>
<event>
 5    1  0.1141915E-008  0.3796335E+03  0.7957747E-01  0.3452756E+00
         13   -1    0    0    0    0  0.00000000000E+00  0.00000000000E+00  0.14999999963E+04  0.15000000000E+04  0.10566000000E+00 0. -1.
        994   -1    0    0    0    0 -0.00000000000E+00 -0.00000000000E+00  0.11368683772E-12  0.17120000000E+03  0.17120000000E+03 0.  0.
         13    1    1    2    0    0  0.66067930513E+02  0.14976396702E+02  0.37397455578E+03  0.38006084175E+03  0.10566000000E+00 0. -1.
        994    1    1    2    0    0 -0.74033342669E+02 -0.74969346580E+01  0.23079434682E+02  0.18809370048E+03  0.17120000000E+03 0.  0.
        998    1    1    2    0    0  0.79654121562E+01 -0.74794620445E+01  0.11029460058E+04  0.11030454578E+04  0.10000000000E+02 0. -1.
</event>
<event>
 5    1  0.1141915E-008  0.3724284E+03  0.7957747E-01  0.3484804E+00
         13   -1    0    0    0    0  0.00000000000E+00  0.00000000000E+00  0.14999999963E+04  0.15000000000E+04  0.10566000000E+00 0. -1.
        994   -1    0    0    0    0 -0.00000000000E+00 -0.00000000000E+00  0.11368683772E-12  0.17120000000E+03  0.17120000000E+03 0.  0.
         13    1    1    2    0    0  0.40180192770E+02  0.52056039118E+01  0.72461531806E+02  0.83019461325E+02  0.10566000000E+00 0. -1.
        994    1    1    2    0    0  0.24219860648E+02 -0.17172551287E+02  0.15343093559E+02  0.17443150142E+03  0.17120000000E+03 0.  0.
        998    1    1    2    0    0 -0.64400053418E+02  0.11966947375E+02  0.14121953709E+04  0.14137490373E+04  0.10000000000E+02 0. -1.
</event>
<event>
 5    1  0.1141915E-008  0.3842821E+03  0.7957747E-01  0.3432722E+00
         13   -1    0    0    0    0  0.00000000000E+00  0.00000000000E+00  0.14999999963E+04  0.15000000000E+04  0.10566000000E+00 0.  1.
        994   -1    0    0    0    0 -0.00000000000E+00 -0.00000000000E+00  0.11368683772E-12  0.17120000000E+03  0.17120000000E+03 0.  0.
         13    1    1    2    0    0  0.48883201872E+01 -0.16267410277E+02  0.88625962839E+02  0.90239108842E+02  0.10566000000E+00 0.  1.
        994    1    1    2    0    0  0.42607387400E+02 -0.38070915075E+01  0.80423000716E+01  0.17664654539E+03  0.17120000000E+03 0.  0.
        998    1    1    2    0    0 -0.47495707587E+02  0.20074501784E+02  0.14033317334E+04  0.14043143458E+04  0.10000000000E+02 0.  1.
</event>
<event>
 5    1  0.1141915E-008  0.3751744E+03  0.7957747E-01  0.3472443E+00
         13   -1    0    0    0    0  0.00000000000E+00  0.00000000000E+00  0.14999999963E+04  0.15000000000E+04  0.10566000000E+00 0.  1.
        994   -1    0    0    0    0 -0.00000000000E+00 -0.00000000000E+00  0.11368683772E-12  0.17120000000E+03  0.17120000000E+03 0.  0.
         13    1    1    2    0    0 -0.13660394932E+02 -0.97140756002E+00  0.11138282454E+02  0.17652833269E+02  0.10566000000E+00 0.  1.
        994    1    1    2    0    0  0.15507788210E+02  0.50511401162E+01  0.74933742497E+01  0.17213830535E+03  0.17120000000E+03 0.  0.
        998    1    1    2    0    0 -0.18473932773E+01 -0.40797325561E+01  0.14813683396E+04  0.14814088614E+04  0.10000000000E+02 0.  1.
</event>
<event>
 5    1  0.1141915E-008  0.3848401E+03  0.7957747E-01  0.3430351E+00
         13   -1    0    0    0    0  0.00000000000E+00  0.00000000000E+00  0.14999999963E+04  0.15000000000E+04  0.10566000000E+00 0.  1.
        994   -1    0    0    0    0 -0.00000000000E+00 -0.00000000000E+00  0.11368683772E-12  0.17120000000E+03  0.17120000000E+03 0.  0.
         13    1    1    2    0    0  0.15546986560E+02  0.31995966870E+01  0.69700380301E+02  0.71484966169E+02  0.10566000000E+00 0.  1.
        994    1    1    2    0    0 -0.18560363553E+02 -0.41904216958E+01  0.29017078332E+01  0.17227857278E+03  0.17120000000E+03 0.  0.
        998    1    1    2    0    0  0.30133769932E+01  0.99082500871E+00  0.14273979081E+04  0.14274364611E+04  0.10000000000E+02 0.  0.
</event>
<event>
 5    1  0.1141915E-008  0.3925918E+03  0.7957747E-01  0.3398099E+00
         13   -1    0    0    0    0  0.00000000000E+00  0.00000000000E+00  0.14999999963E+04  0.15000000000E+04  0.10566000000E+00 0.  1.
        994   -1    0    0    0    0 -0.00000000000E+00 -0.00000000000E+00  0.11368683772E-12  0.17120000000E+03  0.17120000000E+03 0.  0.
         13    1    1    2    0    0  0.28756539124E+02  0.67842902616E+02  0.14056147823E+03  0.15870456296E+03  0.10566000000E+00 0.  1.
        994    1    1    2    0    0 -0.47221524503E+02  0.52490595492E+02  0.42627237857E+02  0.19003067226E+03  0.17120000000E+03 0.  0.
        998    1    1    2    0    0  0.18464985379E+02 -0.12033349811E+03  0.13168112802E+04  0.13224647648E+04  0.10000000000E+02 0.  1.
</event>
<event>
 5    1  0.1141915E-008  0.3759959E+03  0.7957747E-01  0.3468781E+00
         13   -1    0    0    0    0  0.00000000000E+00  0.00000000000E+00  0.14999999963E+04  0.15000000000E+04  0.10566000000E+00 0.  1.
        994   -1    0    0    0    0 -0.00000000000E+00 -0.00000000000E+00  0.11368683772E-12  0.17120000000E+03  0.17120000000E+03 0.  0.
         13    1    1    2    0    0 -0.18454288321E+02 -0.39916576969E+02  0.13545435824E+03  0.14241414328E+03  0.10566000000E+00 0.  1.
        994    1    1    2    0    0  0.35282982038E+02  0.41823570117E+02  0.16379952829E+02  0.18047670956E+03  0.17120000000E+03 0.  0.
        998    1    1    2    0    0 -0.16828693717E+02 -0.19069931474E+01  0.13481656852E+04  0.13483091472E+04  0.10000000000E+02 0.  1.
</event>
<event>
 5    1  0.1141915E-008  0.3801027E+03  0.7957747E-01  0.3450711E+00
         13   -1    0    0    0    0  0.00000000000E+00  0.00000000000E+00  0.14999999963E+04  0.15000000000E+04  0.10566000000E+00 0.  1.
        994   -1    0    0    0    0 -0.00000000000E+00 -0.00000000000E+00  0.11368683772E-12  0.17120000000E+03  0.17120000000E+03 0.  0.
         13    1    1    2    0    0 -0.88824837353E+01  0.31764469856E+02  0.13927158076E+03  0.14312394780E+03  0.10566000000E+00 0.  1.
        994    1    1    2    0    0  0.16268773503E+02 -0.68011458732E+01  0.51210500982E+01  0.17218186237E+03  0.17120000000E+03 0.  0.
        998    1    1    2    0    0 -0.73862897674E+01 -0.24963323982E+02  0.13556073654E+04  0.13558941898E+04  0.10000000000E+02 0.  1.
</event>
<event>
 5    1  0.1141915E-008  0.3851718E+03  0.7957747E-01  0.3428944E+00
         13   -1    0    0    0    0  0.00000000000E+00  0.00000000000E+00  0.14999999963E+04  0.15000000000E+04  0.10566000000E+00 0.  1.
        994   -1    0    0    0    0 -0.00000000000E+00 -0.00000000000E+00  0.11368683772E-12  0.17120000000E+03  0.17120000000E+03 0.  0.
         13    1    1    2    0    0  0.13178420482E+02 -0.11220153915E+02  0.91708859671E+02  0.93327856112E+02  0.10566000000E+00 0.  1.
        994    1    1    2    0    0 -0.11143779210E+02  0.15750321401E+02  0.27693630390E+01  0.17230602372E+03  0.17120000000E+03 0.  0.
        998    1    1    2    0    0 -0.20346412715E+01 -0.45301674860E+01  0.14055217736E+04  0.14055661202E+04  0.10000000000E+02 0.  1.
</event>
<event>
 5    1  0.1141915E-008  0.3812323E+03  0.7957747E-01  0.3445810E+00
         13   -1    0    0    0    0  0.00000000000E+00  0.00000000000E+00  0.14999999963E+04  0.15000000000E+04  0.10566000000E+00 0. -1.
        994   -1    0    0    0    0 -0.00000000000E+00 -0.00000000000E+00  0.11368683772E-12  0.17120000000E+03  0.17120000000E+03 0.  0.
         13    1    1    2    0    0 -0.21900934012E+03  0.55056712190E+02  0.10845658282E+04  0.11078264212E+04  0.10566000000E+00 0. -1.
        994    1    1    2    0    0  0.22103382634E+03 -0.83960930292E+02  0.21995691907E+03  0.36550769685E+03  0.17120000000E+03 0.  0.
        998    1    1    2    0    0 -0.20244862205E+01  0.28904218102E+02  0.19547724901E+03  0.19786588197E+03  0.10000000000E+02 0.  1.
</event>
<event>
 5    1  0.1141915E-008  0.3849611E+03  0.7957747E-01  0.3429837E+00
         13   -1    0    0    0    0  0.00000000000E+00  0.00000000000E+00  0.14999999963E+04  0.15000000000E+04  0.10566000000E+00 0. -1.
        994   -1    0    0    0    0 -0.00000000000E+00 -0.00000000000E+00  0.11368683772E-12  0.17120000000E+03  0.17120000000E+03 0.  0.
         13    1    1    2    0    0  0.84908239919E+01 -0.14149261989E+02  0.75374423806E+02  0.77159643824E+02  0.10566000000E+00 0. -1.
        994    1    1    2    0    0 -0.94747360341E+01  0.22788252101E+02  0.36553168922E+01  0.17300831309E+03  0.17120000000E+03 0.  0.
        998    1    1    2    0    0  0.98391204219E+00 -0.86389901117E+01  0.14209702556E+04  0.14210320431E+04  0.10000000000E+02 0. -1.
</event>
<event>
 5    1  0.1141915E-008  0.3763537E+03  0.7957747E-01  0.3467191E+00
         13   -1    0    0    0    0  0.00000000000E+00  0.00000000000E+00  0.14999999963E+04  0.15000000000E+04  0.10566000000E+00 0. -1.
        994   -1    0    0    0    0 -0.00000000000E+00 -0.00000000000E+00  0.11368683772E-12  0.17120000000E+03  0.17120000000E+03 0.  0.
         13    1    1    2    0    0  0.35304222084E+01  0.30069020158E+02  0.25927402258E+02  0.39860396462E+02  0.10566000000E+00 0. -1.
        994    1    1    2    0    0 -0.81620173804E+00 -0.25449706199E+02  0.16660324761E+02  0.17388317961E+03  0.17120000000E+03 0.  0.
        998    1    1    2    0    0 -0.27142204703E+01 -0.46193139592E+01  0.14574122693E+04  0.14574564239E+04  0.10000000000E+02 0. -1.
</event>
<event>
 5    1  0.1141915E-008  0.3835245E+03  0.7957747E-01  0.3435954E+00
         13   -1    0    0    0    0  0.00000000000E+00  0.00000000000E+00  0.14999999963E+04  0.15000000000E+04  0.10566000000E+00 0. -1.
        994   -1    0    0    0    0 -0.00000000000E+00 -0.00000000000E+00  0.11368683772E-12  0.17120000000E+03  0.17120000000E+03 0.  0.
         13    1    1    2    0    0 -0.16765796060E+02 -0.21905421188E+03  0.11286153325E+04  0.11497992954E+04  0.10566000000E+00 0. -1.
        994    1    1    2    0    0  0.14298806681E+02  0.22272303214E+03  0.18943760133E+03  0.33912541885E+03  0.17120000000E+03 0.  0.
        998    1    1    2    0    0  0.24669893791E+01 -0.36688202615E+01  0.18194706244E+03  0.18227528579E+03  0.10000000000E+02 0.  0.
</event>
<event>
 5    1  0.1141915E-008  0.3878459E+03  0.7957747E-01  0.3417692E+00
         13   -1    0    0    0    0  0.00000000000E+00  0.00000000000E+00  0.14999999963E+04  0.15000000000E+04  0.10566000000E+00 0.  1.
        994   -1    0    0    0    0 -0.00000000000E+00 -0.00000000000E+00  0.11368683772E-12  0.17120000000E+03  0.17120000000E+03 0.  0.
         13    1    1    2    0    0 -0.13754056284E+03  0.21805391297E+02  0.38717894770E+03  0.41146133503E+03  0.10566000000E+00 0.  1.
        994    1    1    2    0    0  0.11016304427E+03 -0.35780224412E+02  0.72697466663E+02  0.21911294449E+03  0.17120000000E+03 0.  0.
        998    1    1    2    0    0  0.27377518566E+02  0.13974833115E+02  0.10401235819E+04  0.10406257205E+04  0.10000000000E+02 0.  1.
</event>
<event>
 5    1  0.1141915E-008  0.3818120E+03  0.7957747E-01  0.3443306E+00
         13   -1    0    0    0    0  0.00000000000E+00  0.00000000000E+00  0.14999999963E+04  0.15000000000E+04  0.10566000000E+00 0.  1.
        994   -1    0    0    0    0 -0.00000000000E+00 -0.00000000000E+00  0.11368683772E-12  0.17120000000E+03  0.17120000000E+03 0.  0.
         13    1    1    2    0    0 -0.11462567270E+02 -0.74880136246E+01  0.29038321468E+02  0.32104455675E+02  0.10566000000E+00 0.  1.
        994    1    1    2    0    0 -0.73453953446E+01  0.59835868243E+01  0.35195580741E+01  0.17149806248E+03  0.17120000000E+03 0.  0.
        998    1    1    2    0    0  0.18807962614E+02  0.15044268003E+01  0.14674421167E+04  0.14675974818E+04  0.10000000000E+02 0.  1.
</event>
<event>
 5    1  0.1375054E-008  0.3860830E+03  0.7957747E-01  0.3425092E+00
         13   -1    0    0    0    0  0.00000000000E+00  0.00000000000E+00  0.14999999963E+04  0.15000000000E+04  0.10566000000E+00 0. -1.
        994   -1    0    0    0    0 -0.00000000000E+00 -0.00000000000E+00  0.11368683772E-12  0.17120000000E+03  0.17120000000E+03 0.  0.
         13    1    1    2    0    0 -0.99599326410E+01  0.48434409154E+01  0.56682107520E+02  0.57754061806E+02  0.10566000000E+00 0. -1.
        994    1    1    2    0    0  0.86207319876E+01 -0.15711501880E+00  0.13370578515E+01  0.17142219643E+03  0.17120000000E+03 0.  0.
        998    1    1    2    0    0  0.13392006534E+01 -0.46863258965E+01  0.14419808309E+04  0.14420237418E+04  0.10000000000E+02 0. -1.
</event>
<event>
 5    1  0.1141915E-008  0.3750596E+03  0.7957747E-01  0.3472956E+00
         13   -1    0    0    0    0  0.00000000000E+00  0.00000000000E+00  0.14999999963E+04  0.15000000000E+04  0.10566000000E+00 0. -1.
        994   -1    0    0    0    0 -0.00000000000E+00 -0.00000000000E+00  0.11368683772E-12  0.17120000000E+03  0.17120000000E+03 0.  0.
         13    1    1    2    0    0 -0.14817251095E+02  0.75489215197E+01  0.15894327925E+02  0.23003868595E+02  0.10566000000E+00 0. -1.
        994    1    1    2    0    0  0.57344340992E+02 -0.19960612861E+02  0.19282680605E+02  0.18266926748E+03  0.17120000000E+03 0.  0.
        998    1    1    2    0    0 -0.42527089897E+02  0.12411691341E+02  0.14648229877E+04  0.14655268639E+04  0.10000000000E+02 0. -1.
</event>
<event>
 5    1  0.1141915E-008  0.3809509E+03  0.7957747E-01  0.3447028E+00
         13   -1    0    0    0    0  0.00000000000E+00  0.00000000000E+00  0.14999999963E+04  0.15000000000E+04  0.10566000000E+00 0.  1.
        994   -1    0    0    0    0 -0.00000000000E+00 -0.00000000000E+00  0.11368683772E-12  0.17120000000E+03  0.17120000000E+03 0.  0.
         13    1    1    2    0    0 -0.13931704630E+02 -0.47107660890E+01  0.28542676933E+02  0.32108866090E+02  0.10566000000E+00 0.  1.
        994    1    1    2    0    0  0.66474200200E+01 -0.12811163898E+01  0.38066377033E+01  0.17137607751E+03  0.17120000000E+03 0.  0.
        998    1    1    2    0    0  0.72842846101E+01  0.59918824787E+01  0.14676506816E+04  0.14677150564E+04  0.10000000000E+02 0.  1.
</event>
<event>
 5    1  0.1141915E-008  0.3815615E+03  0.7957747E-01  0.3444387E+00
         13   -1    0    0    0    0  0.00000000000E+00  0.00000000000E+00  0.14999999963E+04  0.15000000000E+04  0.10566000000E+00 0.  1.
        994   -1    0    0    0    0 -0.00000000000E+00 -0.00000000000E+00  0.11368683772E-12  0.17120000000E+03  0.17120000000E+03 0.  0.
         13    1    1    2    0    0  0.12771761877E+01  0.14226805799E+02  0.28801144601E+02  0.32148876756E+02  0.10566000000E+00 0.  1.
        994    1    1    2    0    0 -0.76184722562E+00 -0.14066401618E+02  0.40072299866E+01  0.17182532397E+03  0.17120000000E+03 0.  0.
        998    1    1    2    0    0 -0.51532896207E+00 -0.16040418150E+00  0.14671916217E+04  0.14672257993E+04  0.10000000000E+02 0.  1.
</event>
<event>
 5    1  0.1141915E-008  0.3787514E+03  0.7957747E-01  0.3456613E+00
         13   -1    0    0    0    0  0.00000000000E+00  0.00000000000E+00  0.14999999963E+04  0.15000000000E+04  0.10566000000E+00 0.  1.
        994   -1    0    0    0    0 -0.00000000000E+00 -0.00000000000E+00  0.11368683772E-12  0.17120000000E+03  0.17120000000E+03 0.  0.
         13    1    1    2    0    0  0.22435675799E+02  0.62565538138E+02  0.32645265956E+03  0.33315035076E+03  0.10566000000E+00 0.  1.
        994    1    1    2    0    0 -0.24911853363E+02 -0.73462419381E+02  0.25236429421E+02  0.18964083123E+03  0.17120000000E+03 0.  0.
        998    1    1    2    0    0  0.24761775638E+01  0.10896881243E+02  0.11483109073E+04  0.11484088180E+04  0.10000000000E+02 0.  1.
</event>
<event>
 5    1  0.1141915E-008  0.3817202E+03  0.7957747E-01  0.3443702E+00
         13   -1    0    0    0    0  0.00000000000E+00  0.00000000000E+00  0.14999999963E+04  0.15000000000E+04  0.10566000000E+00 0.  1.
        994   -1    0    0    0    0 -0.00000000000E+00 -0.00000000000E+00  0.11368683772E-12  0.17120000000E+03  0.17120000000E+03 0.  0.
         13    1    1    2    0    0 -0.16748861962E+02 -0.97620421716E+01  0.61434112646E+02  0.64420363279E+02  0.10566000000E+00 0.  1.
        994    1    1    2    0    0  0.38091170207E+01 -0.18471290888E+02  0.44505497737E+01  0.17229319590E+03  0.17120000000E+03 0.  0.
        998    1    1    2    0    0  0.12939744941E+02  0.28233333059E+02  0.14341153339E+04  0.14344864408E+04  0.10000000000E+02 0.  1.
</event>
<event>
 5    1  0.1141915E-008  0.3825155E+03  0.7957747E-01  0.3440278E+00
         13   -1    0    0    0    0  0.00000000000E+00  0.00000000000E+00  0.14999999963E+04  0.15000000000E+04  0.10566000000E+00 0.  1.
        994   -1    0    0    0    0 -0.00000000000E+00 -0.00000000000E+00  0.11368683772E-12  0.17120000000E+03  0.17120000000E+03 0.  0.
         13    1    1    2    0    0  0.12346525686E+02  0.94309064265E+01  0.40659601558E+02  0.43526923340E+02  0.10566000000E+00 0.  1.
        994    1    1    2    0    0 -0.29137739441E+01 -0.17969986714E+02  0.39681985280E+01  0.17221090877E+03  0.17120000000E+03 0.  0.
        998    1    1    2    0    0 -0.94327517424E+01  0.85390802878E+01  0.14553721962E+04  0.14554621679E+04  0.10000000000E+02 0.  1.
</event>
<event>
 5    1  0.1141915E-008  0.3734143E+03  0.7957747E-01  0.3480345E+00
         13   -1    0    0    0    0  0.00000000000E+00  0.00000000000E+00  0.14999999963E+04  0.15000000000E+04  0.10566000000E+00 0.  1.
        994   -1    0    0    0    0 -0.00000000000E+00 -0.00000000000E+00  0.11368683772E-12  0.17120000000E+03  0.17120000000E+03 0.  0.
         13    1    1    2    0    0 -0.29792252242E+02 -0.13020311464E+02  0.66595540697E+02  0.74108596054E+02  0.10566000000E+00 0.  1.
        994    1    1    2    0    0  0.31692793659E+02 -0.81584743658E+01  0.11164166045E+02  0.17465701382E+03  0.17120000000E+03 0.  0.
        998    1    1    2    0    0 -0.19005414173E+01  0.21178785830E+02  0.14222402895E+04  0.14224343901E+04  0.10000000000E+02 0.  1.
</event>
<event>
 5    1  0.1141915E-008  0.3805414E+03  0.7957747E-01  0.3448804E+00
         13   -1    0    0    0    0  0.00000000000E+00  0.00000000000E+00  0.14999999963E+04  0.15000000000E+04  0.10566000000E+00 0.  1.
        994   -1    0    0    0    0 -0.00000000000E+00 -0.00000000000E+00  0.11368683772E-12  0.17120000000E+03  0.17120000000E+03 0.  0.
         13    1    1    2    0    0 -0.13277745093E+02  0.14195788111E+01  0.21739332591E+02  0.25513201765E+02  0.10566000000E+00 0.  1.
        994    1    1    2    0    0  0.64258144544E+01  0.66840079617E+01  0.41470149700E+01  0.17150103436E+03  0.17120000000E+03 0.  0.
        998    1    1    2    0    0  0.68519306390E+01 -0.81035867728E+01  0.14741136487E+04  0.14741857639E+04  0.10000000000E+02 0.  1.
</event>
<event>
 5    1  0.1141915E-008  0.3824521E+03  0.7957747E-01  0.3440550E+00
         13   -1    0    0    0    0  0.00000000000E+00  0.00000000000E+00  0.14999999963E+04  0.15000000000E+04  0.10566000000E+00 0.  1.
        994   -1    0    0    0    0 -0.00000000000E+00 -0.00000000000E+00  0.11368683772E-12  0.17120000000E+03  0.17120000000E+03 0.  0.
         13    1    1    2    0    0  0.76140426226E+01  0.24139894800E+02  0.12315941546E+03  0.12573369058E+03  0.10566000000E+00 0.  1.
        994    1    1    2    0    0  0.71543318886E+01 -0.50412504221E+00  0.30710214018E+01  0.17137768168E+03  0.17120000000E+03 0.  0.
        998    1    1    2    0    0 -0.14768374511E+02 -0.23635769758E+02  0.13737695594E+04  0.13740886277E+04  0.10000000000E+02 0.  1.
</event>
<event>
 5    1  0.1141915E-008  0.3693286E+03  0.7957747E-01  0.3498982E+00
         13   -1    0    0    0    0  0.00000000000E+00  0.00000000000E+00  0.14999999963E+04  0.15000000000E+04  0.10566000000E+00 0.  1.
        994   -1    0    0    0    0 -0.00000000000E+00 -0.00000000000E+00  0.11368683772E-12  0.17120000000E+03  0.17120000000E+03 0.  0.
         13    1    1    2    0    0  0.78144186541E+02 -0.25735358036E+02  0.43088643461E+03  0.43867066604E+03  0.10566000000E+00 0.  1.
        994    1    1    2    0    0 -0.67313520400E+01  0.10036301855E+03  0.45553198271E+02  0.20372182128E+03  0.17120000000E+03 0.  0.
        998    1    1    2    0    0 -0.71412834501E+02 -0.74627660511E+02  0.10235603634E+04  0.10288075127E+04  0.10000000000E+02 0.  1.
</event>
<event>
 5    1  0.1141915E-008  0.3840100E+03  0.7957747E-01  0.3433882E+00
         13   -1    0    0    0    0  0.00000000000E+00  0.00000000000E+00  0.14999999963E+04  0.15000000000E+04  0.10566000000E+00 0. -1.
        994   -1    0    0    0    0 -0.00000000000E+00 -0.00000000000E+00  0.11368683772E-12  0.17120000000E+03  0.17120000000E+03 0.  0.
         13    1    1    2    0    0  0.92612514758E+01 -0.10655947269E+02  0.46533457355E+02  0.48628117468E+02  0.10566000000E+00 0. -1.
        994    1    1    2    0    0 -0.10813326527E+02  0.27639719388E+01  0.25335363925E+01  0.17158212721E+03  0.17120000000E+03 0.  0.
        998    1    1    2    0    0  0.15520750516E+01  0.78919753304E+01  0.14509330025E+04  0.14509897553E+04  0.10000000000E+02 0. -1.
</event>
<event>
 5    1  0.1141915E-008  0.3587588E+03  0.7957747E-01  0.3549204E+00
         13   -1    0    0    0    0  0.00000000000E+00  0.00000000000E+00  0.14999999963E+04  0.15000000000E+04  0.10566000000E+00 0. -1.
        994   -1    0    0    0    0 -0.00000000000E+00 -0.00000000000E+00  0.11368683772E-12  0.17120000000E+03  0.17120000000E+03 0.  0.
         13    1    1    2    0    0 -0.13269128764E+03 -0.14597463272E+03  0.11663265422E+04  0.11828918739E+04  0.10566000000E+00 0. -1.
        994    1    1    2    0    0  0.94265158434E+02  0.13504008843E+03  0.11162301021E+03  0.26247072596E+03  0.17120000000E+03 0.  0.
        998    1    1    2    0    0  0.38426129201E+02  0.10934544289E+02  0.22205044390E+03  0.22583740014E+03  0.10000000000E+02 0. -1.
</event>
<event>
 5    1  0.1141915E-008  0.3852817E+03  0.7957747E-01  0.3428478E+00
         13   -1    0    0    0    0  0.00000000000E+00  0.00000000000E+00  0.14999999963E+04  0.15000000000E+04  0.10566000000E+00 0. -1.
        994   -1    0    0    0    0 -0.00000000000E+00 -0.00000000000E+00  0.11368683772E-12  0.17120000000E+03  0.17120000000E+03 0.  0.
         13    1    1    2    0    0 -0.66076620220E+00  0.15801738352E+02  0.78507103327E+02  0.80084380398E+02  0.10566000000E+00 0. -1.
        994    1    1    2    0    0 -0.36776543581E+01 -0.20208825167E+02  0.28778570285E+01  0.17245185942E+03  0.17120000000E+03 0.  0.
        998    1    1    2    0    0  0.43384205603E+01  0.44070868156E+01  0.14186150359E+04  0.14186637602E+04  0.10000000000E+02 0. -1.
</event>
<event>
 5    1  0.1141915E-008  0.3760747E+03  0.7957747E-01  0.3468430E+00
         13   -1    0    0    0    0  0.00000000000E+00  0.00000000000E+00  0.14999999963E+04  0.15000000000E+04  0.10566000000E+00 0.  1.
        994   -1    0    0    0    0 -0.00000000000E+00 -0.00000000000E+00  0.11368683772E-12  0.17120000000E+03  0.17120000000E+03 0.  0.
         13    1    1    2    0    0  0.43772650067E+02 -0.22986207009E+01  0.14637354650E+03  0.15279579454E+03  0.10566000000E+00 0.  1.
        994    1    1    2    0    0 -0.36395536984E+02  0.14893154450E+01  0.10635039122E+02  0.17535506046E+03  0.17120000000E+03 0.  0.
        998    1    1    2    0    0 -0.73771130837E+01  0.80930525593E+00  0.13429914107E+04  0.13430491450E+04  0.10000000000E+02 0.  1.
</event>
<event>
 5    1  0.1141915E-008  0.3763430E+03  0.7957747E-01  0.3467238E+00
         13   -1    0    0    0    0  0.00000000000E+00  0.00000000000E+00  0.14999999963E+04  0.15000000000E+04  0.10566000000E+00 0. -1.
        994   -1    0    0    0    0 -0.00000000000E+00 -0.00000000000E+00  0.11368683772E-12  0.17120000000E+03  0.17120000000E+03 0.  0.
         13    1    1    2    0    0 -0.16791831572E+02  0.72965544479E+01  0.24932532727E+02  0.30932954378E+02  0.10566000000E+00 0. -1.
        994    1    1    2    0    0  0.18862246066E+02 -0.88970133503E+01  0.74638458896E+01  0.17262702618E+03  0.17120000000E+03 0.  0.
        998    1    1    2    0    0 -0.20704144945E+01  0.16004589024E+01  0.14676036177E+04  0.14676400194E+04  0.10000000000E+02 0. -1.
</event>
<event>
 5    1  0.1141915E-008  0.3783616E+03  0.7957747E-01  0.3458324E+00
         13   -1    0    0    0    0  0.00000000000E+00  0.00000000000E+00  0.14999999963E+04  0.15000000000E+04  0.10566000000E+00 0. -1.
        994   -1    0    0    0    0 -0.00000000000E+00 -0.00000000000E+00  0.11368683772E-12  0.17120000000E+03  0.17120000000E+03 0.  0.
         13    1    1    2    0    0  0.80065331080E+01  0.38691786059E+02  0.14565123083E+03  0.15091537724E+03  0.10566000000E+00 0. -1.
        994    1    1    2    0    0 -0.43007494070E+02 -0.27935882841E+02  0.13853843988E+02  0.17925241167E+03  0.17120000000E+03 0.  0.
        998    1    1    2    0    0  0.35000960962E+02 -0.10755903218E+02  0.13404949215E+04  0.13410322111E+04  0.10000000000E+02 0. -1.
</event>
<event>
 5    1  0.1141915E-008  0.3834797E+03  0.7957747E-01  0.3436146E+00
         13   -1    0    0    0    0  0.00000000000E+00  0.00000000000E+00  0.14999999963E+04  0.15000000000E+04  0.10566000000E+00 0.  1.
        994   -1    0    0    0    0 -0.00000000000E+00 -0.00000000000E+00  0.11368683772E-12  0.17120000000E+03  0.17120000000E+03 0.  0.
         13    1    1    2    0    0  0.14282956945E+02 -0.30634334127E+01  0.41671823960E+02  0.44158119973E+02  0.10566000000E+00 0.  1.
        994    1    1    2    0    0 -0.19392619043E+02  0.17404016379E+02  0.46340188503E+01  0.17323362142E+03  0.17120000000E+03 0.  0.
        998    1    1    2    0    0  0.51096620978E+01 -0.14340582966E+02  0.14536941535E+04  0.14538082586E+04  0.10000000000E+02 0.  1.
</event>
<event>
 5    1  0.1141915E-008  0.3842699E+03  0.7957747E-01  0.3432775E+00
         13   -1    0    0    0    0  0.00000000000E+00  0.00000000000E+00  0.14999999963E+04  0.15000000000E+04  0.10566000000E+00 0.  1.
        994   -1    0    0    0    0 -0.00000000000E+00 -0.00000000000E+00  0.11368683772E-12  0.17120000000E+03  0.17120000000E+03 0.  0.
         13    1    1    2    0    0  0.12289113380E+02 -0.10101010848E+02  0.62015629651E+02  0.64023450492E+02  0.10566000000E+00 0.  1.
        994    1    1    2    0    0 -0.98282475581E+01  0.95443030363E+01  0.26120093811E+01  0.17176714111E+03  0.17120000000E+03 0.  0.
        998    1    1    2    0    0 -0.24608658220E+01  0.55670781150E+00  0.14353723572E+04  0.14354094084E+04  0.10000000000E+02 0.  1.
</event>
<event>
 5    1  0.1141915E-008  0.3701777E+03  0.7957747E-01  0.3495075E+00
         13   -1    0    0    0    0  0.00000000000E+00  0.00000000000E+00  0.14999999963E+04  0.15000000000E+04  0.10566000000E+00 0.  1.
        994   -1    0    0    0    0 -0.00000000000E+00 -0.00000000000E+00  0.11368683772E-12  0.17120000000E+03  0.17120000000E+03 0.  0.
         13    1    1    2    0    0  0.89945650861E+01  0.13503572846E+03  0.54308352404E+03  0.55969212556E+03  0.10566000000E+00 0.  1.
        994    1    1    2    0    0 -0.77242708184E+01 -0.12682869860E+03  0.69857907580E+02  0.22435407373E+03  0.17120000000E+03 0.  0.
        998    1    1    2    0    0 -0.12702942677E+01 -0.82070298654E+01  0.88705856466E+03  0.88715380071E+03  0.10000000000E+02 0.  0.
</event>
<event>
 5    1  0.1141915E-008  0.3698977E+03  0.7957747E-01  0.3496361E+00
         13   -1    0    0    0    0  0.00000000000E+00  0.00000000000E+00  0.14999999963E+04  0.15000000000E+04  0.10566000000E+00 0.  1.
        994   -1    0    0    0    0 -0.00000000000E+00 -0.00000000000E+00  0.11368683772E-12  0.17120000000E+03  0.17120000000E+03 0.  0.
         13    1    1    2    0    0  0.95914518980E+01  0.20354415403E+02  0.22784293629E+02  0.32022388670E+02  0.10566000000E+00 0.  1.
        994    1    1    2    0    0 -0.11510562689E+02 -0.21082058052E+02  0.11320698406E+02  0.17324706184E+03  0.17120000000E+03 0.  0.
        998    1    1    2    0    0  0.19191107914E+01  0.72764264831E+00  0.14658950042E+04  0.14659305495E+04  0.10000000000E+02 0.  1.
</event>
<event>
 5    1  0.1141915E-008  0.3799229E+03  0.7957747E-01  0.3451494E+00
         13   -1    0    0    0    0  0.00000000000E+00  0.00000000000E+00  0.14999999963E+04  0.15000000000E+04  0.10566000000E+00 0.  1.
        994   -1    0    0    0    0 -0.00000000000E+00 -0.00000000000E+00  0.11368683772E-12  0.17120000000E+03  0.17120000000E+03 0.  0.
         13    1    1    2    0    0  0.34136309361E+02  0.20057223904E+02  0.17170774273E+03  0.17621333640E+03  0.10566000000E+00 0.  1.
        994    1    1    2    0    0 -0.27203980216E+02 -0.23576505416E+02  0.85174355626E+01  0.17515106296E+03  0.17120000000E+03 0.  0.
        998    1    1    2    0    0 -0.69323291450E+01  0.35192815124E+01  0.13197748180E+04  0.13198356006E+04  0.10000000000E+02 0.  1.
</event>
<event>
 5    1  0.1141915E-008  0.3863662E+03  0.7957747E-01  0.3423899E+00
         13   -1    0    0    0    0  0.00000000000E+00  0.00000000000E+00  0.14999999963E+04  0.15000000000E+04  0.10566000000E+00 0. -1.
        994   -1    0    0    0    0 -0.00000000000E+00 -0.00000000000E+00  0.11368683772E-12  0.17120000000E+03  0.17120000000E+03 0.  0.
         13    1    1    2    0    0  0.40967931173E+01 -0.94446839477E+01  0.54978869990E+02  0.55934542799E+02  0.10566000000E+00 0. -1.
        994    1    1    2    0    0 -0.17396818907E+02  0.46569603669E+01  0.20159931358E+01  0.17215644285E+03  0.17120000000E+03 0.  0.
        998    1    1    2    0    0  0.13300025790E+02  0.47877235808E+01  0.14430051332E+04  0.14431090143E+04  0.10000000000E+02 0. -1.
</event>
<event>
 5    1  0.1141915E-008  0.3692346E+03  0.7957747E-01  0.3499416E+00
         13   -1    0    0    0    0  0.00000000000E+00  0.00000000000E+00  0.14999999963E+04  0.15000000000E+04  0.10566000000E+00 0. -1.
        994   -1    0    0    0    0 -0.00000000000E+00 -0.00000000000E+00  0.11368683772E-12  0.17120000000E+03  0.17120000000E+03 0.  0.
         13    1    1    2    0    0 -0.35645382612E+02  0.90252605293E+01  0.67841025749E+02  0.77165177171E+02  0.10566000000E+00 0. -1.
        994    1    1    2    0    0  0.21351717131E+02  0.15726384878E+02  0.12111421925E+02  0.17366445102E+03  0.17120000000E+03 0.  0.
        998    1    1    2    0    0  0.14293665480E+02 -0.24751645407E+02  0.14200475486E+04  0.14203703718E+04  0.10000000000E+02 0. -1.
</event>
<event>
 5    1  0.1141915E-008  0.3719998E+03  0.7957747E-01  0.3486751E+00
         13   -1    0    0    0    0  0.00000000000E+00  0.00000000000E+00  0.14999999963E+04  0.15000000000E+04  0.10566000000E+00 0.  1.
        994   -1    0    0    0    0 -0.00000000000E+00 -0.00000000000E+00  0.11368683772E-12  0.17120000000E+03  0.17120000000E+03 0.  0.
         13    1    1    2    0    0 -0.10541094648E+03  0.52410747916E+02  0.58349585231E+03  0.59525269841E+03  0.10566000000E+00 0.  1.
        994    1    1    2    0    0  0.93455714942E+02 -0.45362579851E+02  0.46249016163E+02  0.20552407597E+03  0.17120000000E+03 0.  0.
        998    1    1    2    0    0  0.11955231541E+02 -0.70481680648E+01  0.87025512780E+03  0.87042322562E+03  0.10000000000E+02 0. -1.
</event>
<event>
 5    1  0.1141915E-008  0.3707209E+03  0.7957747E-01  0.3492584E+00
         13   -1    0    0    0    0  0.00000000000E+00  0.00000000000E+00  0.14999999963E+04  0.15000000000E+04  0.10566000000E+00 0.  1.
        994   -1    0    0    0    0 -0.00000000000E+00 -0.00000000000E+00  0.11368683772E-12  0.17120000000E+03  0.17120000000E+03 0.  0.
         13    1    1    2    0    0  0.87181100454E+01 -0.95504936940E+01  0.52942025597E+01  0.13973443289E+02  0.10566000000E+00 0.  1.
        994    1    1    2    0    0 -0.17999288069E+01  0.14479544454E+02  0.96273574605E+01  0.17209015940E+03  0.17120000000E+03 0.  0.
        998    1    1    2    0    0 -0.69181812386E+01 -0.49290507603E+01  0.14850784363E+04  0.14851363973E+04  0.10000000000E+02 0.  1.
</event>
<event>
 5    1  0.1141915E-008  0.3783872E+03  0.7957747E-01  0.3458211E+00
         13   -1    0    0    0    0  0.00000000000E+00  0.00000000000E+00  0.14999999963E+04  0.15000000000E+04  0.10566000000E+00 0. -1.
        994   -1    0    0    0    0 -0.00000000000E+00 -0.00000000000E+00  0.11368683772E-12  0.17120000000E+03  0.17120000000E+03 0.  0.
         13    1    1    2    0    0  0.12538511341E+02 -0.19702275880E+02  0.52443519893E+02  0.57408430429E+02  0.10566000000E+00 0. -1.
        994    1    1    2    0    0 -0.14965037455E+02  0.13283143818E+02  0.62963043520E+01  0.17248036904E+03  0.17120000000E+03 0.  0.
        998    1    1    2    0    0  0.24265261141E+01  0.64191320621E+01  0.14412601720E+04  0.14413112005E+04  0.10000000000E+02 0. -1.
</event>
<event>
 5    1  0.1141915E-008  0.3860183E+03  0.7957747E-01  0.3425365E+00
         13   -1    0    0    0    0  0.00000000000E+00  0.00000000000E+00  0.14999999963E+04  0.15000000000E+04  0.10566000000E+00 0.  1.
        994   -1    0    0    0    0 -0.00000000000E+00 -0.00000000000E+00  0.11368683772E-12  0.17120000000E+03  0.17120000000E+03 0.  0.
         13    1    1    2    0    0  0.52347132412E+01  0.13312952782E+02  0.85303525261E+02  0.86494736953E+02  0.10566000000E+00 0.  1.
        994    1    1    2    0    0  0.22537370843E+02 -0.30395753609E+02  0.58328245616E+01  0.17542889376E+03  0.17120000000E+03 0.  0.
        998    1    1    2    0    0 -0.27772084084E+02  0.17082800827E+02  0.14088636465E+04  0.14092763693E+04  0.10000000000E+02 0.  1.
</event>
<event>
 5    1  0.1141915E-008  0.3773888E+03  0.7957747E-01  0.3462608E+00
         13   -1    0    0    0    0  0.00000000000E+00  0.00000000000E+00  0.14999999963E+04  0.15000000000E+04  0.10566000000E+00 0. -1.
        994   -1    0    0    0    0 -0.00000000000E+00 -0.00000000000E+00  0.11368683772E-12  0.17120000000E+03  0.17120000000E+03 0.  0.
         13    1    1    2    0    0 -0.69513589045E+01  0.10732018463E+02  0.12930187688E+02  0.18185118328E+02  0.10566000000E+00 0. -1.
        994    1    1    2    0    0  0.40023126606E+01  0.62827890724E+01  0.56442379225E+01  0.17145491934E+03  0.17120000000E+03 0.  0.
        998    1    1    2    0    0  0.29490462439E+01 -0.17014807535E+02  0.14814255707E+04  0.14815599623E+04  0.10000000000E+02 0. -1.
</event>
<event>
 5    1  0.1141915E-008  0.3769618E+03  0.7957747E-01  0.3464495E+00
         13   -1    0    0    0    0  0.00000000000E+00  0.00000000000E+00  0.14999999963E+04  0.15000000000E+04  0.10566000000E+00 0.  1.
        994   -1    0    0    0    0 -0.00000000000E+00 -0.00000000000E+00  0.11368683772E-12  0.17120000000E+03  0.17120000000E+03 0.  0.
         13    1    1    2    0    0  0.11013232893E+02 -0.18310681910E+01  0.83588039786E+01  0.13947217553E+02  0.10566000000E+00 0.  1.
        994    1    1    2    0    0 -0.10393728639E+02  0.41185400343E+01  0.60969149531E+01  0.17167295751E+03  0.17120000000E+03 0.  0.
        998    1    1    2    0    0 -0.61950425449E+00 -0.22874718433E+01  0.14855442773E+04  0.14855798249E+04  0.10000000000E+02 0.  1.
</event>
<event>
 5    1  0.1141915E-008  0.3784504E+03  0.7957747E-01  0.3457934E+00
         13   -1    0    0    0    0  0.00000000000E+00  0.00000000000E+00  0.14999999963E+04  0.15000000000E+04  0.10566000000E+00 0. -1.
        994   -1    0    0    0    0 -0.00000000000E+00 -0.00000000000E+00  0.11368683772E-12  0.17120000000E+03  0.17120000000E+03 0.  0.
         13    1    1    2    0    0 -0.22835595227E+02 -0.24016347487E+02  0.97418049488E+02  0.10290061655E+03  0.10566000000E+00 0. -1.
        994    1    1    2    0    0  0.25786840581E+02  0.38970299973E+02  0.12290048876E+02  0.17788797241E+03  0.17120000000E+03 0.  0.
        998    1    1    2    0    0 -0.29512453537E+01 -0.14953952486E+02  0.13902918979E+04  0.13904114110E+04  0.10000000000E+02 0. -1.
</event>
<event>
 5    1  0.1141915E-008  0.3808546E+03  0.7957747E-01  0.3447446E+00
         13   -1    0    0    0    0  0.00000000000E+00  0.00000000000E+00  0.14999999963E+04  0.15000000000E+04  0.10566000000E+00 0. -1.
        994   -1    0    0    0    0 -0.00000000000E+00 -0.00000000000E+00  0.11368683772E-12  0.17120000000E+03  0.17120000000E+03 0.  0.
         13    1    1    2    0    0  0.33263204795E+02 -0.22461630170E+02  0.17717626580E+03  0.18166564329E+03  0.10566000000E+00 0. -1.
        994    1    1    2    0    0 -0.36292515076E+02  0.38856885715E+02  0.13184246343E+02  0.17975057321E+03  0.17120000000E+03 0.  0.
        998    1    1    2    0    0  0.30293102809E+01 -0.16395255545E+02  0.13096394841E+04  0.13097837835E+04  0.10000000000E+02 0. -1.
</event>
<event>
 5    1  0.1141915E-008  0.3852345E+03  0.7957747E-01  0.3428678E+00
         13   -1    0    0    0    0  0.00000000000E+00  0.00000000000E+00  0.14999999963E+04  0.15000000000E+04  0.10566000000E+00 0.  1.
        994   -1    0    0    0    0 -0.00000000000E+00 -0.00000000000E+00  0.11368683772E-12  0.17120000000E+03  0.17120000000E+03 0.  0.
         13    1    1    2    0    0  0.50189164355E+01 -0.15613596474E+02  0.87135584622E+02  0.88665637022E+02  0.10566000000E+00 0.  1.
        994    1    1    2    0    0 -0.11646215711E+02  0.10541534511E+02  0.23250665482E+01  0.17193488368E+03  0.17120000000E+03 0.  0.
        998    1    1    2    0    0  0.66272992757E+01  0.50720619639E+01  0.14105393451E+04  0.14105994793E+04  0.10000000000E+02 0.  1.
</event>
<event>
 5    1  0.1141915E-008  0.3837362E+03  0.7957747E-01  0.3435050E+00
         13   -1    0    0    0    0  0.00000000000E+00  0.00000000000E+00  0.14999999963E+04  0.15000000000E+04  0.10566000000E+00 0. -1.
        994   -1    0    0    0    0 -0.00000000000E+00 -0.00000000000E+00  0.11368683772E-12  0.17120000000E+03  0.17120000000E+03 0.  0.
         13    1    1    2    0    0  0.73396465342E+01 -0.18090696180E+02  0.86237999671E+02  0.88420288683E+02  0.10566000000E+00 0. -1.
        994    1    1    2    0    0 -0.29264436482E+01  0.73753160998E+01  0.24668204179E+01  0.17140153022E+03  0.17120000000E+03 0.  0.
        998    1    1    2    0    0 -0.44132028860E+01  0.10715380080E+02  0.14112951762E+04  0.14113781811E+04  0.10000000000E+02 0. -1.
</event>
<event>
 5    1  0.1141915E-008  0.3844319E+03  0.7957747E-01  0.3432085E+00
         13   -1    0    0    0    0  0.00000000000E+00  0.00000000000E+00  0.14999999963E+04  0.15000000000E+04  0.10566000000E+00 0.  1.
        994   -1    0    0    0    0 -0.00000000000E+00 -0.00000000000E+00  0.11368683772E-12  0.17120000000E+03  0.17120000000E+03 0.  0.
         13    1    1    2    0    0 -0.51179402353E+01 -0.18018557632E+02  0.88718599628E+02  0.90674488227E+02  0.10566000000E+00 0.  1.
        994    1    1    2    0    0  0.36466330929E+01  0.16070559382E+02  0.28076963671E+01  0.17201419700E+03  0.17120000000E+03 0.  0.
        998    1    1    2    0    0  0.14713071424E+01  0.19479982500E+01  0.14084737003E+04  0.14085113148E+04  0.10000000000E+02 0.  1.
</event>
<event>
 5    1  0.1231364E-008  0.3863543E+03  0.7957747E-01  0.3423949E+00
         13   -1    0    0    0    0  0.00000000000E+00  0.00000000000E+00  0.14999999963E+04  0.15000000000E+04  0.10566000000E+00 0.  1.
        994   -1    0    0    0    0 -0.00000000000E+00 -0.00000000000E+00  0.11368683772E-12  0.17120000000E+03  0.17120000000E+03 0.  0.
         13    1    1    2    0    0 -0.91820263143E+01 -0.42660885926E+01  0.50372971372E+02  0.51380507277E+02  0.10566000000E+00 0.  1.
        994    1    1    2    0    0  0.15084226627E+02  0.96205667088E+01  0.20080186952E+01  0.17214401336E+03  0.17120000000E+03 0.  0.
        998    1    1    2    0    0 -0.59022003129E+01 -0.53544781162E+01  0.14476190062E+04  0.14476754794E+04  0.10000000000E+02 0.  1.
</event>
<event>
 5    1  0.1141915E-008  0.3810251E+03  0.7957747E-01  0.3446707E+00
         13   -1    0    0    0    0  0.00000000000E+00  0.00000000000E+00  0.14999999963E+04  0.15000000000E+04  0.10566000000E+00 0.  1.
        994   -1    0    0    0    0 -0.00000000000E+00 -0.00000000000E+00  0.11368683772E-12  0.17120000000E+03  0.17120000000E+03 0.  0.
         13    1    1    2    0    0 -0.84074088556E+01  0.42879874164E+02  0.49782102150E+02  0.66239240564E+02  0.10566000000E+00 0.  1.
        994    1    1    2    0    0  0.38894229516E+02 -0.27203091948E+02  0.25130675335E+02  0.17942619693E+03  0.17120000000E+03 0.  0.
        998    1    1    2    0    0 -0.30486820661E+02 -0.15676782216E+02  0.14250872188E+04  0.14255345625E+04  0.10000000000E+02 0.  1.
</event>
<event>
 5    1  0.1141915E-008  0.3836906E+03  0.7957747E-01  0.3435245E+00
         13   -1    0    0    0    0  0.00000000000E+00  0.00000000000E+00  0.14999999963E+04  0.15000000000E+04  0.10566000000E+00 0. -1.
        994   -1    0    0    0    0 -0.00000000000E+00 -0.00000000000E+00  0.11368683772E-12  0.17120000000E+03  0.17120000000E+03 0.  0.
         13    1    1    2    0    0  0.10076765022E+02  0.14517730931E+02  0.69228268942E+02  0.71448373595E+02  0.10566000000E+00 0. -1.
        994    1    1    2    0    0 -0.19953483996E+01 -0.83425949708E+01  0.25246721725E+01  0.17143335228E+03  0.17120000000E+03 0.  0.
        998    1    1    2    0    0 -0.80814166224E+01 -0.61751359603E+01  0.14282470552E+04  0.14283182741E+04  0.10000000000E+02 0. -1.
</event>
<event>
 5    1  0.1141915E-008  0.3842265E+03  0.7957747E-01  0.3432960E+00
         13   -1    0    0    0    0  0.00000000000E+00  0.00000000000E+00  0.14999999963E+04  0.15000000000E+04  0.10566000000E+00 0. -1.
        994   -1    0    0    0    0 -0.00000000000E+00 -0.00000000000E+00  0.11368683772E-12  0.17120000000E+03  0.17120000000E+03 0.  0.
         13    1    1    2    0    0 -0.17316317026E+02  0.40798927500E+01  0.75469042372E+02  0.77537654599E+02  0.10566000000E+00 0. -1.
        994    1    1    2    0    0  0.17121078262E+02 -0.27398070188E+01  0.30064800278E+01  0.17210205340E+03  0.17120000000E+03 0.  0.
        998    1    1    2    0    0  0.19523876375E+00 -0.13400857312E+01  0.14215244739E+04  0.14215602920E+04  0.10000000000E+02 0.  0.
</event>
<event>
 5    1  0.1141915E-008  0.3770933E+03  0.7957747E-01  0.3463913E+00
         13   -1    0    0    0    0  0.00000000000E+00  0.00000000000E+00  0.14999999963E+04  0.15000000000E+04  0.10566000000E+00 0.  1.
        994   -1    0    0    0    0 -0.00000000000E+00 -0.00000000000E+00  0.11368683772E-12  0.17120000000E+03  0.17120000000E+03 0.  0.
         13    1    1    2    0    0 -0.13654645761E+02 -0.11401046035E+02  0.25298749506E+02  0.30926866834E+02  0.10566000000E+00 0.  1.
        994    1    1    2    0    0  0.14918436633E+02  0.14543659525E+02  0.70742078964E+01  0.17260811743E+03  0.17120000000E+03 0.  0.
        998    1    1    2    0    0 -0.12637908724E+01 -0.31426134893E+01  0.14676270389E+04  0.14676650157E+04  0.10000000000E+02 0.  1.
</event>
<event>
 5    1  0.1141915E-008  0.3763320E+03  0.7957747E-01  0.3467287E+00
         13   -1    0    0    0    0  0.00000000000E+00  0.00000000000E+00  0.14999999963E+04  0.15000000000E+04  0.10566000000E+00 0. -1.
        994   -1    0    0    0    0 -0.00000000000E+00 -0.00000000000E+00  0.11368683772E-12  0.17120000000E+03  0.17120000000E+03 0.  0.
         13    1    1    2    0    0 -0.26427608072E+02  0.38105335392E+02  0.24053949694E+03  0.24496876496E+03  0.10566000000E+00 0. -1.
        994    1    1    2    0    0 -0.37397114795E+02 -0.10106184567E+02  0.11091495290E+02  0.17587819771E+03  0.17120000000E+03 0.  0.
        998    1    1    2    0    0  0.63824722867E+02 -0.27999150824E+02  0.12483690040E+04  0.12503530373E+04  0.10000000000E+02 0. -1.
</event>
<event>
 5    1  0.1141915E-008  0.3822975E+03  0.7957747E-01  0.3441215E+00
         13   -1    0    0    0    0  0.00000000000E+00  0.00000000000E+00  0.14999999963E+04  0.15000000000E+04  0.10566000000E+00 0. -1.
        994   -1    0    0    0    0 -0.00000000000E+00 -0.00000000000E+00  0.11368683772E-12  0.17120000000E+03  0.17120000000E+03 0.  0.
         13    1    1    2    0    0  0.67799437046E+01 -0.31067156844E+02  0.16076995328E+03  0.16388448649E+03  0.10566000000E+00 0. -1.
        994    1    1    2    0    0 -0.15297771402E+01  0.25493716316E+02  0.51449364106E+01  0.17317095646E+03  0.17120000000E+03 0.  0.
        998    1    1    2    0    0 -0.52501665644E+01  0.55734405275E+01  0.13340851066E+04  0.13341445570E+04  0.10000000000E+02 0. -1.
</event>
<event>
 5    1  0.1141915E-008  0.3768950E+03  0.7957747E-01  0.3464791E+00
         13   -1    0    0    0    0  0.00000000000E+00  0.00000000000E+00  0.14999999963E+04  0.15000000000E+04  0.10566000000E+00 0.  1.
        994   -1    0    0    0    0 -0.00000000000E+00 -0.00000000000E+00  0.11368683772E-12  0.17120000000E+03  0.17120000000E+03 0.  0.
         13    1    1    2    0    0  0.37884811605E+02 -0.25974442275E+02  0.15643516450E+03  0.16303957328E+03  0.10566000000E+00 0.  1.
        994    1    1    2    0    0 -0.41936410906E+02  0.36468168547E+02  0.16212978237E+02  0.18072324294E+03  0.17120000000E+03 0.  0.
        998    1    1    2    0    0  0.40515993013E+01 -0.10493726271E+02  0.13273518535E+04  0.13274371838E+04  0.10000000000E+02 0.  1.
</event>
<event>
 5    1  0.1141915E-008  0.3798397E+03  0.7957747E-01  0.3451857E+00
         13   -1    0    0    0    0  0.00000000000E+00  0.00000000000E+00  0.14999999963E+04  0.15000000000E+04  0.10566000000E+00 0. -1.
        994   -1    0    0    0    0 -0.00000000000E+00 -0.00000000000E+00  0.11368683772E-12  0.17120000000E+03  0.17120000000E+03 0.  0.
         13    1    1    2    0    0  0.13334224273E+02 -0.62139417077E+01  0.23670743977E+02  0.27869874290E+02  0.10566000000E+00 0. -1.
        994    1    1    2    0    0 -0.12265782668E+02  0.77304501067E+01  0.49174658211E+01  0.17188318927E+03  0.17120000000E+03 0.  0.
        998    1    1    2    0    0 -0.10684416043E+01 -0.15165083990E+01  0.14714117865E+04  0.14714469364E+04  0.10000000000E+02 0. -1.
</event>
<event>
 5    1  0.1141915E-008  0.3784928E+03  0.7957747E-01  0.3457747E+00
         13   -1    0    0    0    0  0.00000000000E+00  0.00000000000E+00  0.14999999963E+04  0.15000000000E+04  0.10566000000E+00 0.  1.
        994   -1    0    0    0    0 -0.00000000000E+00 -0.00000000000E+00  0.11368683772E-12  0.17120000000E+03  0.17120000000E+03 0.  0.
         13    1    1    2    0    0  0.91098491375E+01  0.26036085649E+02  0.89084541981E+02  0.93257353014E+02  0.10566000000E+00 0.  1.
        994    1    1    2    0    0 -0.17532981066E+02  0.24256642964E+02  0.79112972682E+01  0.17397648915E+03  0.17120000000E+03 0.  0.
        998    1    1    2    0    0  0.84231319289E+01 -0.50292728613E+02  0.14030041570E+04  0.14039661578E+04  0.10000000000E+02 0.  1.
</event>
<event>
 5    1  0.1141915E-008  0.3717125E+03  0.7957747E-01  0.3488058E+00
         13   -1    0    0    0    0  0.00000000000E+00  0.00000000000E+00  0.14999999963E+04  0.15000000000E+04  0.10566000000E+00 0.  1.
        994   -1    0    0    0    0 -0.00000000000E+00 -0.00000000000E+00  0.11368683772E-12  0.17120000000E+03  0.17120000000E+03 0.  0.
         13    1    1    2    0    0  0.34751811392E+02  0.16535546243E+02  0.97233865326E+02  0.10457317254E+03  0.10566000000E+00 0.  1.
        994    1    1    2    0    0  0.61182137211E+01  0.94754510100E+01  0.88141192881E+01  0.17179739640E+03  0.17120000000E+03 0.  0.
        998    1    1    2    0    0 -0.40870025113E+02 -0.26010997253E+02  0.13939520117E+04  0.13948294311E+04  0.10000000000E+02 0.  1.
</event>
<event>
 5    1  0.1141915E-008  0.3801427E+03  0.7957747E-01  0.3450537E+00
         13   -1    0    0    0    0  0.00000000000E+00  0.00000000000E+00  0.14999999963E+04  0.15000000000E+04  0.10566000000E+00 0. -1.
        994   -1    0    0    0    0 -0.00000000000E+00 -0.00000000000E+00  0.11368683772E-12  0.17120000000E+03  0.17120000000E+03 0.  0.
         13    1    1    2    0    0  0.21125914402E+02 -0.36417439622E+02  0.19584639897E+03  0.20032063628E+03  0.10566000000E+00 0. -1.
        994    1    1    2    0    0 -0.15550748413E+02  0.35356629465E+02  0.90622404874E+01  0.17573696602E+03  0.17120000000E+03 0.  0.
        998    1    1    2    0    0 -0.55751659885E+01  0.10608101576E+01  0.12950913568E+04  0.12951423977E+04  0.10000000000E+02 0. -1.
</event>
<event>
 5    1  0.1141915E-008  0.3249059E+03  0.7957747E-01  0.3732834E+00
         13   -1    0    0    0    0  0.00000000000E+00  0.00000000000E+00  0.14999999963E+04  0.15000000000E+04  0.10566000000E+00 0.  1.
        994   -1    0    0    0    0 -0.00000000000E+00 -0.00000000000E+00  0.11368683772E-12  0.17120000000E+03  0.17120000000E+03 0.  0.
         13    1    1    2    0    0 -0.11607178260E+03 -0.13317832624E+03  0.89773434798E+03  0.91495141730E+03  0.10566000000E+00 0.  1.
        994    1    1    2    0    0  0.10152312342E+03  0.98764327850E+02  0.85563124014E+02  0.23810045199E+03  0.17120000000E+03 0.  0.
        998    1    1    2    0    0  0.14548659181E+02  0.34413998389E+02  0.51670252428E+03  0.51814813072E+03  0.10000000000E+02 0.  1.
</event>
<event>
 5    1  0.1141915E-008  0.2989144E+03  0.7957747E-01  0.3903800E+00
         13   -1    0    0    0    0  0.00000000000E+00  0.00000000000E+00  0.14999999963E+04  0.15000000000E+04  0.10566000000E+00 0. -1.
        994   -1    0    0    0    0 -0.00000000000E+00 -0.00000000000E+00  0.11368683772E-12  0.17120000000E+03  0.17120000000E+03 0.  0.
         13    1    1    2    0    0 -0.23376816706E+01 -0.20910321648E+03  0.58593615128E+03  0.62213407272E+03  0.10566000000E+00 0. -1.
        994    1    1    2    0    0  0.72528711649E+02  0.20634607728E+03  0.22802049002E+03  0.35936318884E+03  0.17120000000E+03 0.  0.
        998    1    1    2    0    0 -0.70191029978E+02  0.27571391998E+01  0.68604335498E+03  0.68970273844E+03  0.10000000000E+02 0. -1.
</event>
<event>
 5    1  0.1141915E-008  0.3851592E+03  0.7957747E-01  0.3428997E+00
         13   -1    0    0    0    0  0.00000000000E+00  0.00000000000E+00  0.14999999963E+04  0.15000000000E+04  0.10566000000E+00 0. -1.
        994   -1    0    0    0    0 -0.00000000000E+00 -0.00000000000E+00  0.11368683772E-12  0.17120000000E+03  0.17120000000E+03 0.  0.
         13    1    1    2    0    0 -0.25236230505E+01  0.13719348032E+02  0.60873160450E+02  0.62451116971E+02  0.10566000000E+00 0. -1.
        994    1    1    2    0    0 -0.37589084698E+00 -0.14600338043E+02  0.22525693115E+01  0.17183662367E+03  0.17120000000E+03 0.  0.
        998    1    1    2    0    0  0.28995138975E+01  0.88099001148E+00  0.14368742665E+04  0.14369122594E+04  0.10000000000E+02 0. -1.
</event>
<event>
 5    1  0.1141915E-008  0.3685146E+03  0.7957747E-01  0.3502746E+00
         13   -1    0    0    0    0  0.00000000000E+00  0.00000000000E+00  0.14999999963E+04  0.15000000000E+04  0.10566000000E+00 0.  1.
        994   -1    0    0    0    0 -0.00000000000E+00 -0.00000000000E+00  0.11368683772E-12  0.17120000000E+03  0.17120000000E+03 0.  0.
         13    1    1    2    0    0 -0.14047818461E+02 -0.36894212185E+02  0.75140676747E+02  0.84880248364E+02  0.10566000000E+00 0.  1.
        994    1    1    2    0    0  0.16001399050E+02  0.11934600110E+02  0.11542583364E+02  0.17274591365E+03  0.17120000000E+03 0.  0.
        998    1    1    2    0    0 -0.19535805894E+01  0.24959612075E+02  0.14133167362E+04  0.14135738380E+04  0.10000000000E+02 0.  1.
</event>
<event>
 5    1  0.1141915E-008  0.3826209E+03  0.7957747E-01  0.3439825E+00
         13   -1    0    0    0    0  0.00000000000E+00  0.00000000000E+00  0.14999999963E+04  0.15000000000E+04  0.10566000000E+00 0. -1.
        994   -1    0    0    0    0 -0.00000000000E+00 -0.00000000000E+00  0.11368683772E-12  0.17120000000E+03  0.17120000000E+03 0.  0.
         13    1    1    2    0    0  0.82682726544E+01 -0.17221864235E+02  0.62656389883E+02  0.65504131912E+02  0.10566000000E+00 0. -1.
        994    1    1    2    0    0 -0.68873641666E+01  0.14971389719E+02  0.37165280555E+01  0.17203148222E+03  0.17120000000E+03 0.  0.
        998    1    1    2    0    0 -0.13809084879E+01  0.22504745169E+01  0.14336270783E+04  0.14336643859E+04  0.10000000000E+02 0. -1.
</event>
<event>
 5    1  0.1141915E-008  0.3847536E+03  0.7957747E-01  0.3430718E+00
         13   -1    0    0    0    0  0.00000000000E+00  0.00000000000E+00  0.14999999963E+04  0.15000000000E+04  0.10566000000E+00 0.  1.
        994   -1    0    0    0    0 -0.00000000000E+00 -0.00000000000E+00  0.11368683772E-12  0.17120000000E+03  0.17120000000E+03 0.  0.
         13    1    1    2    0    0  0.12366229950E+02  0.14883314183E+02  0.11189982483E+03  0.11356063863E+03  0.10566000000E+00 0.  1.
        994    1    1    2    0    0 -0.15868950270E+02  0.43553484359E+01  0.26442658376E+01  0.17200937412E+03  0.17120000000E+03 0.  0.
        998    1    1    2    0    0  0.35027203196E+01 -0.19238662619E+02  0.13854559056E+04  0.13856299873E+04  0.10000000000E+02 0.  1.
</event>
<event>
 5    1  0.1141915E-008  0.3805661E+03  0.7957747E-01  0.3448697E+00
         13   -1    0    0    0    0  0.00000000000E+00  0.00000000000E+00  0.14999999963E+04  0.15000000000E+04  0.10566000000E+00 0.  1.
        994   -1    0    0    0    0 -0.00000000000E+00 -0.00000000000E+00  0.11368683772E-12  0.17120000000E+03  0.17120000000E+03 0.  0.
         13    1    1    2    0    0 -0.14018064032E+02 -0.62036596496E+01  0.29109605545E+02  0.32899419619E+02  0.10566000000E+00 0.  1.
        994    1    1    2    0    0  0.10475629849E+02 -0.15131191632E+00  0.42139693592E+01  0.17157202352E+03  0.17120000000E+03 0.  0.
        998    1    1    2    0    0  0.35424341833E+01  0.63549715659E+01  0.14666764214E+04  0.14667285569E+04  0.10000000000E+02 0.  1.
</event>
<event>
 5    1  0.1141915E-008  0.3688814E+03  0.7957747E-01  0.3501048E+00
         13   -1    0    0    0    0  0.00000000000E+00  0.00000000000E+00  0.14999999963E+04  0.15000000000E+04  0.10566000000E+00 0.  1.
        994   -1    0    0    0    0 -0.00000000000E+00 -0.00000000000E+00  0.11368683772E-12  0.17120000000E+03  0.17120000000E+03 0.  0.
         13    1    1    2    0    0 -0.57606806568E+02 -0.15784932365E+03  0.94097964146E+03  0.95586487013E+03  0.10566000000E+00 0.  1.
        994    1    1    2    0    0  0.54702923307E+02  0.12262396610E+03  0.75320601381E+02  0.23024265433E+03  0.17120000000E+03 0.  0.
        998    1    1    2    0    0  0.29038832614E+01  0.35225357556E+02  0.48369975344E+03  0.48509247554E+03  0.10000000000E+02 0.  1.
</event>
<event>
 5    1  0.1141915E-008  0.3811369E+03  0.7957747E-01  0.3446223E+00
         13   -1    0    0    0    0  0.00000000000E+00  0.00000000000E+00  0.14999999963E+04  0.15000000000E+04  0.10566000000E+00 0. -1.
        994   -1    0    0    0    0 -0.00000000000E+00 -0.00000000000E+00  0.11368683772E-12  0.17120000000E+03  0.17120000000E+03 0.  0.
         13    1    1    2    0    0  0.30219835793E+02 -0.26527849191E+02  0.18940934702E+03  0.19363077535E+03  0.10566000000E+00 0. -1.
        994    1    1    2    0    0 -0.34499392059E+02  0.31778697274E+02  0.10922522790E+02  0.17784497507E+03  0.17120000000E+03 0.  0.
        998    1    1    2    0    0  0.42795562664E+01 -0.52508480832E+01  0.12996681265E+04  0.12997242496E+04  0.10000000000E+02 0.  0.
</event>
<event>
 5    1  0.1440348E-008  0.3860627E+03  0.7957747E-01  0.3425178E+00
         13   -1    0    0    0    0  0.00000000000E+00  0.00000000000E+00  0.14999999963E+04  0.15000000000E+04  0.10566000000E+00 0. -1.
        994   -1    0    0    0    0 -0.00000000000E+00 -0.00000000000E+00  0.11368683772E-12  0.17120000000E+03  0.17120000000E+03 0.  0.
         13    1    1    2    0    0  0.65106063651E+00  0.10155365767E+02  0.47889925378E+02  0.48959283600E+02  0.10566000000E+00 0. -1.
        994    1    1    2    0    0 -0.61880300805E+01 -0.53459508454E+01  0.13226478695E+01  0.17140029260E+03  0.17120000000E+03 0.  0.
        998    1    1    2    0    0  0.55369694440E+01 -0.48094149213E+01  0.14507874230E+04  0.14508404238E+04  0.10000000000E+02 0. -1.
</event>
<event>
 5    1  0.1141915E-008  0.3854367E+03  0.7957747E-01  0.3427822E+00
         13   -1    0    0    0    0  0.00000000000E+00  0.00000000000E+00  0.14999999963E+04  0.15000000000E+04  0.10566000000E+00 0.  1.
        994   -1    0    0    0    0 -0.00000000000E+00 -0.00000000000E+00  0.11368683772E-12  0.17120000000E+03  0.17120000000E+03 0.  0.
         13    1    1    2    0    0 -0.14755789331E+02  0.60332510456E+01  0.87201298874E+02  0.88646551689E+02  0.10566000000E+00 0.  1.
        994    1    1    2    0    0  0.13242016459E+02 -0.66675113736E+01  0.21356783365E+01  0.17185403059E+03  0.17120000000E+03 0.  0.
        998    1    1    2    0    0  0.15137728725E+01  0.63426032802E+00  0.14106630191E+04  0.14106994177E+04  0.10000000000E+02 0.  1.
</event>
<event>
 5    1  0.1141915E-008  0.4156681E+03  0.7957747E-01  0.3309183E+00
         13   -1    0    0    0    0  0.00000000000E+00  0.00000000000E+00  0.14999999963E+04  0.15000000000E+04  0.10566000000E+00 0.  1.
        994   -1    0    0    0    0 -0.00000000000E+00 -0.00000000000E+00  0.11368683772E-12  0.17120000000E+03  0.17120000000E+03 0.  0.
         13    1    1    2    0    0  0.65991404504E+02 -0.56296570016E+01  0.38231991053E+02  0.76473883190E+02  0.10566000000E+00 0.  1.
        994    1    1    2    0    0 -0.11224976437E+03 -0.36398265622E+02  0.98657457432E+02  0.23014686017E+03  0.17120000000E+03 0.  0.
        998    1    1    2    0    0  0.46258359862E+02  0.42027922624E+02  0.13631105478E+04  0.13645792566E+04  0.10000000000E+02 0.  1.
</event>
<event>
 5    1  0.1141915E-008  0.4220769E+03  0.7957747E-01  0.3286193E+00
         13   -1    0    0    0    0  0.00000000000E+00  0.00000000000E+00  0.14999999963E+04  0.15000000000E+04  0.10566000000E+00 0. -1.
        994   -1    0    0    0    0 -0.00000000000E+00 -0.00000000000E+00  0.11368683772E-12  0.17120000000E+03  0.17120000000E+03 0.  0.
         13    1    1    2    0    0 -0.24467084040E+02  0.83710437146E+02  0.75890150357E+02  0.11560883000E+03  0.10566000000E+00 0. -1.
        994    1    1    2    0    0  0.18629935125E+02 -0.80359784440E+02  0.71678218250E+02  0.20310582564E+03  0.17120000000E+03 0.  0.
        998    1    1    2    0    0  0.58371489150E+01 -0.33506527064E+01  0.13524316277E+04  0.13524853444E+04  0.10000000000E+02 0. -1.
</event>
<event>
 5    1  0.1141915E-008  0.3818502E+03  0.7957747E-01  0.3443142E+00
         13   -1    0    0    0    0  0.00000000000E+00  0.00000000000E+00  0.14999999963E+04  0.15000000000E+04  0.10566000000E+00 0. -1.
        994   -1    0    0    0    0 -0.00000000000E+00 -0.00000000000E+00  0.11368683772E-12  0.17120000000E+03  0.17120000000E+03 0.  0.
         13    1    1    2    0    0  0.10571265207E+03 -0.97887340690E+02  0.40377651834E+03  0.42871037333E+03  0.10566000000E+00 0. -1.
        994    1    1    2    0    0 -0.10905271393E+03  0.97801725554E+02  0.10050470276E+03  0.24671503240E+03  0.17120000000E+03 0.  0.
        998    1    1    2    0    0  0.33400618504E+01  0.85615136583E-01  0.99571877518E+03  0.99577459427E+03  0.10000000000E+02 0.  0.
</event>
<event>
 5    1  0.1141915E-008  0.3752220E+03  0.7957747E-01  0.3472231E+00
         13   -1    0    0    0    0  0.00000000000E+00  0.00000000000E+00  0.14999999963E+04  0.15000000000E+04  0.10566000000E+00 0. -1.
        994   -1    0    0    0    0 -0.00000000000E+00 -0.00000000000E+00  0.11368683772E-12  0.17120000000E+03  0.17120000000E+03 0.  0.
         13    1    1    2    0    0  0.20267364511E+02 -0.11254882578E+02  0.39490616920E+02  0.45792558727E+02  0.10566000000E+00 0. -1.
        994    1    1    2    0    0 -0.10486019377E+02 -0.83573764720E+01  0.71757542575E+01  0.17187418012E+03  0.17120000000E+03 0.  0.
        998    1    1    2    0    0 -0.97813451337E+01  0.19612259050E+02  0.14533336251E+04  0.14535332611E+04  0.10000000000E+02 0. -1.
</event>
<event>
 5    1  0.1141915E-008  0.3786593E+03  0.7957747E-01  0.3457017E+00
         13   -1    0    0    0    0  0.00000000000E+00  0.00000000000E+00  0.14999999963E+04  0.15000000000E+04  0.10566000000E+00 0.  1.
        994   -1    0    0    0    0 -0.00000000000E+00 -0.00000000000E+00  0.11368683772E-12  0.17120000000E+03  0.17120000000E+03 0.  0.
         13    1    1    2    0    0  0.48377680679E+02 -0.26538887059E+02  0.29039969874E+03  0.29559551537E+03  0.10566000000E+00 0.  1.
        994    1    1    2    0    0 -0.40337897615E+02  0.11862539425E+02  0.10770587074E+02  0.17661628286E+03  0.17120000000E+03 0.  0.
        998    1    1    2    0    0 -0.80397830645E+01  0.14676347634E+02  0.11988297105E+04  0.11989882018E+04  0.10000000000E+02 0.  1.
</event>
<event>
 5    1  0.1141915E-008  0.3821839E+03  0.7957747E-01  0.3441704E+00
         13   -1    0    0    0    0  0.00000000000E+00  0.00000000000E+00  0.14999999963E+04  0.15000000000E+04  0.10566000000E+00 0.  1.
        994   -1    0    0    0    0 -0.00000000000E+00 -0.00000000000E+00  0.11368683772E-12  0.17120000000E+03  0.17120000000E+03 0.  0.
         13    1    1    2    0    0  0.20428095256E+02  0.45660120473E+01  0.63887367901E+02  0.67229178808E+02  0.10566000000E+00 0.  1.
        994    1    1    2    0    0 -0.33418331514E+02 -0.17932936662E+02  0.78234133868E+01  0.17552498653E+03  0.17120000000E+03 0.  0.
        998    1    1    2    0    0  0.12990236258E+02  0.13366924615E+02  0.14282892150E+04  0.14284458347E+04  0.10000000000E+02 0.  1.
</event>
<event>
 5    1  0.1141915E-008  0.3786638E+03  0.7957747E-01  0.3456997E+00
         13   -1    0    0    0    0  0.00000000000E+00  0.00000000000E+00  0.14999999963E+04  0.15000000000E+04  0.10566000000E+00 0.  1.
        994   -1    0    0    0    0 -0.00000000000E+00 -0.00000000000E+00  0.11368683772E-12  0.17120000000E+03  0.17120000000E+03 0.  0.
         13    1    1    2    0    0  0.22558395559E+02  0.30155220119E+02  0.15023088325E+03  0.15487913984E+03  0.10566000000E+00 0.  1.
        994    1    1    2    0    0 -0.19056539139E+02 -0.72720173979E+01  0.62073580278E+01  0.17252247742E+03  0.17120000000E+03 0.  0.
        998    1    1    2    0    0 -0.35018564199E+01 -0.22883202721E+02  0.13435617550E+04  0.13437983827E+04  0.10000000000E+02 0.  1.
</event>
<event>
 5    1  0.1141915E-008  0.3840224E+03  0.7957747E-01  0.3433829E+00
         13   -1    0    0    0    0  0.00000000000E+00  0.00000000000E+00  0.14999999963E+04  0.15000000000E+04  0.10566000000E+00 0.  1.
        994   -1    0    0    0    0 -0.00000000000E+00 -0.00000000000E+00  0.11368683772E-12  0.17120000000E+03  0.17120000000E+03 0.  0.
         13    1    1    2    0    0  0.78051818102E+01 -0.98624616797E+01  0.35828056993E+02  0.37971697952E+02  0.10566000000E+00 0.  1.
        994    1    1    2    0    0 -0.78783485085E+01  0.12987461644E+02  0.28778647635E+01  0.17189666850E+03  0.17120000000E+03 0.  0.
        998    1    1    2    0    0  0.73166698276E-01 -0.31249999644E+01  0.14612940745E+04  0.14613316335E+04  0.10000000000E+02 0.  1.
</event>
<event>
 5    1  0.1141915E-008  0.3835127E+03  0.7957747E-01  0.3436004E+00
         13   -1    0    0    0    0  0.00000000000E+00  0.00000000000E+00  0.14999999963E+04  0.15000000000E+04  0.10566000000E+00 0. -1.
        994   -1    0    0    0    0 -0.00000000000E+00 -0.00000000000E+00  0.11368683772E-12  0.17120000000E+03  0.17120000000E+03 0.  0.
         13    1    1    2    0    0  0.18798117793E+02  0.16595539484E+02  0.14650091653E+03  0.14863145990E+03  0.10566000000E+00 0. -1.
        994    1    1    2    0    0 -0.90096939423E+01  0.61282450471E+01  0.27627957912E+01  0.17156865393E+03  0.17120000000E+03 0.  0.
        998    1    1    2    0    0 -0.97884238507E+01 -0.22723784531E+02  0.13507362840E+04  0.13509998862E+04  0.10000000000E+02 0. -1.
</event>
<event>
 5    1  0.1811344E-008  0.3863082E+03  0.7957747E-01  0.3424143E+00
         13   -1    0    0    0    0  0.00000000000E+00  0.00000000000E+00  0.14999999963E+04  0.15000000000E+04  0.10566000000E+00 0.  1.
        994   -1    0    0    0    0 -0.00000000000E+00 -0.00000000000E+00  0.11368683772E-12  0.17120000000E+03  0.17120000000E+03 0.  0.
         13    1    1    2    0    0  0.93735775479E+01 -0.68310553243E+01  0.66245469896E+02  0.67253258052E+02  0.10566000000E+00 0.  1.
        994    1    1    2    0    0 -0.10196496597E+02  0.97284364262E+01  0.16326996291E+01  0.17178683514E+03  0.17120000000E+03 0.  0.
        998    1    1    2    0    0  0.82291904863E+00 -0.28973811019E+01  0.14321218268E+04  0.14321599068E+04  0.10000000000E+02 0.  1.
</event>
<event>
 5    1  0.1141915E-008  0.3841844E+03  0.7957747E-01  0.3433139E+00
         13   -1    0    0    0    0  0.00000000000E+00  0.00000000000E+00  0.14999999963E+04  0.15000000000E+04  0.10566000000E+00 0. -1.
        994   -1    0    0    0    0 -0.00000000000E+00 -0.00000000000E+00  0.11368683772E-12  0.17120000000E+03  0.17120000000E+03 0.  0.
         13    1    1    2    0    0 -0.80978978282E+01 -0.16971786524E+02  0.81216129573E+02  0.83364790853E+02  0.10566000000E+00 0. -1.
        994    1    1    2    0    0  0.97921965362E+01  0.19742957662E+02  0.36386691409E+01  0.17265095251E+03  0.17120000000E+03 0.  0.
        998    1    1    2    0    0 -0.16942987079E+01 -0.27711711378E+01  0.14151451976E+04  0.14151842566E+04  0.10000000000E+02 0. -1.
</event>
<event>
 5    1  0.1141915E-008  0.3832109E+03  0.7957747E-01  0.3437296E+00
         13   -1    0    0    0    0  0.00000000000E+00  0.00000000000E+00  0.14999999963E+04  0.15000000000E+04  0.10566000000E+00 0. -1.
        994   -1    0    0    0    0 -0.00000000000E+00 -0.00000000000E+00  0.11368683772E-12  0.17120000000E+03  0.17120000000E+03 0.  0.
         13    1    1    2    0    0 -0.14627463304E+02 -0.78729751928E+01  0.51900585804E+02  0.54494296876E+02  0.10566000000E+00 0. -1.
        994    1    1    2    0    0  0.24055763122E+02 -0.33250481434E+01  0.44742146309E+01  0.17297165745E+03  0.17120000000E+03 0.  0.
        998    1    1    2    0    0 -0.94282998177E+01  0.11198023336E+02  0.14436251958E+04  0.14437340457E+04  0.10000000000E+02 0. -1.
</event>
<event>
 5    1  0.1141915E-008  0.3727707E+03  0.7957747E-01  0.3483253E+00
         13   -1    0    0    0    0  0.00000000000E+00  0.00000000000E+00  0.14999999963E+04  0.15000000000E+04  0.10566000000E+00 0.  1.
        994   -1    0    0    0    0 -0.00000000000E+00 -0.00000000000E+00  0.11368683772E-12  0.17120000000E+03  0.17120000000E+03 0.  0.
         13    1    1    2    0    0 -0.25929889469E+02 -0.97969360567E+01  0.44161486057E+02  0.52140072294E+02  0.10566000000E+00 0.  1.
        994    1    1    2    0    0  0.31060047744E+02  0.98155012663E+01  0.11470784075E+02  0.17464847414E+03  0.17120000000E+03 0.  0.
        998    1    1    2    0    0 -0.51301582743E+01 -0.18565209660E-01  0.14443677261E+04  0.14444114536E+04  0.10000000000E+02 0.  1.
</event>
<event>
 5    1  0.1141915E-008  0.3822957E+03  0.7957747E-01  0.3441223E+00
         13   -1    0    0    0    0  0.00000000000E+00  0.00000000000E+00  0.14999999963E+04  0.15000000000E+04  0.10566000000E+00 0.  1.
        994   -1    0    0    0    0 -0.00000000000E+00 -0.00000000000E+00  0.11368683772E-12  0.17120000000E+03  0.17120000000E+03 0.  0.
         13    1    1    2    0    0 -0.10144212538E+02 -0.32544505614E+02  0.20435349259E+03  0.20717724535E+03  0.10566000000E+00 0.  1.
        994    1    1    2    0    0  0.13126305002E+02  0.10707722834E+02  0.39314014546E+01  0.17208094354E+03  0.17120000000E+03 0.  0.
        998    1    1    2    0    0 -0.29820924633E+01  0.21836782780E+02  0.12917151022E+04  0.12919418111E+04  0.10000000000E+02 0.  1.
</event>
<event>
 5    1  0.1141915E-008  0.3841291E+03  0.7957747E-01  0.3433374E+00
         13   -1    0    0    0    0  0.00000000000E+00  0.00000000000E+00  0.14999999963E+04  0.15000000000E+04  0.10566000000E+00 0. -1.
        994   -1    0    0    0    0 -0.00000000000E+00 -0.00000000000E+00  0.11368683772E-12  0.17120000000E+03  0.17120000000E+03 0.  0.
         13    1    1    2    0    0 -0.31769573170E+01  0.10230508483E+02  0.26721461481E+02  0.28788956725E+02  0.10566000000E+00 0. -1.
        994    1    1    2    0    0  0.56827823313E+01 -0.11186631000E+02  0.25825415628E+01  0.17167860743E+03  0.17120000000E+03 0.  0.
        998    1    1    2    0    0 -0.25058250143E+01  0.95612251781E+00  0.14706959932E+04  0.14707324358E+04  0.10000000000E+02 0. -1.
</event>
<event>
 5    1  0.1141915E-008  0.3829027E+03  0.7957747E-01  0.3438616E+00
         13   -1    0    0    0    0  0.00000000000E+00  0.00000000000E+00  0.14999999963E+04  0.15000000000E+04  0.10566000000E+00 0.  1.
        994   -1    0    0    0    0 -0.00000000000E+00 -0.00000000000E+00  0.11368683772E-12  0.17120000000E+03  0.17120000000E+03 0.  0.
         13    1    1    2    0    0 -0.17347137440E+02 -0.12526267792E+02  0.89171401534E+02  0.91702674867E+02  0.10566000000E+00 0.  1.
        994    1    1    2    0    0 -0.12996107954E+01  0.10460623756E+02  0.30429824873E+01  0.17155119755E+03  0.17120000000E+03 0.  0.
        998    1    1    2    0    0  0.18646748235E+02  0.20656440357E+01  0.14077856123E+04  0.14079461276E+04  0.10000000000E+02 0.  1.
</event>
<event>
 5    1  0.1141915E-008  0.3849487E+03  0.7957747E-01  0.3429890E+00
         13   -1    0    0    0    0  0.00000000000E+00  0.00000000000E+00  0.14999999963E+04  0.15000000000E+04  0.10566000000E+00 0.  1.
        994   -1    0    0    0    0 -0.00000000000E+00 -0.00000000000E+00  0.11368683772E-12  0.17120000000E+03  0.17120000000E+03 0.  0.
         13    1    1    2    0    0  0.23547399422E+01 -0.12235194703E+02  0.44672626711E+02  0.46377791355E+02  0.10566000000E+00 0.  1.
        994    1    1    2    0    0 -0.40050402721E+01  0.16740060327E+02  0.26307096849E+01  0.17208320836E+03  0.17120000000E+03 0.  0.
        998    1    1    2    0    0  0.16503003298E+01 -0.45048656242E+01  0.14526966599E+04  0.14527390003E+04  0.10000000000E+02 0.  1.
</event>
<event>
 5    1  0.1141915E-008  0.3770378E+03  0.7957747E-01  0.3464159E+00
         13   -1    0    0    0    0  0.00000000000E+00  0.00000000000E+00  0.14999999963E+04  0.15000000000E+04  0.10566000000E+00 0. -1.
        994   -1    0    0    0    0 -0.00000000000E+00 -0.00000000000E+00  0.11368683772E-12  0.17120000000E+03  0.17120000000E+03 0.  0.
         13    1    1    2    0    0  0.70167464058E+02 -0.52885531845E+01  0.15115142529E+03  0.16672794109E+03  0.10566000000E+00 0. -1.
        994    1    1    2    0    0 -0.61316391982E+02  0.47889091519E+02  0.36740543379E+02  0.19160472995E+03  0.17120000000E+03 0.  0.
        998    1    1    2    0    0 -0.88510720757E+01 -0.42600538334E+02  0.13121080276E+04  0.13128673290E+04  0.10000000000E+02 0. -1.
</event>
<event>
 5    1  0.1141915E-008  0.3708341E+03  0.7957747E-01  0.3492066E+00
         13   -1    0    0    0    0  0.00000000000E+00  0.00000000000E+00  0.14999999963E+04  0.15000000000E+04  0.10566000000E+00 0.  1.
        994   -1    0    0    0    0 -0.00000000000E+00 -0.00000000000E+00  0.11368683772E-12  0.17120000000E+03  0.17120000000E+03 0.  0.
         13    1    1    2    0    0 -0.26683225582E+02 -0.16888325542E+02  0.54460454903E+02  0.62953652629E+02  0.10566000000E+00 0.  1.
        994    1    1    2    0    0 -0.57303498290E+01  0.31510923016E+02  0.12378549879E+02  0.17460940317E+03  0.17120000000E+03 0.  0.
        998    1    1    2    0    0  0.32413575411E+02 -0.14622597474E+02  0.14331609915E+04  0.14336369442E+04  0.10000000000E+02 0.  1.
</event>
<event>
 5    1  0.1141915E-008  0.3713488E+03  0.7957747E-01  0.3489715E+00
         13   -1    0    0    0    0  0.00000000000E+00  0.00000000000E+00  0.14999999963E+04  0.15000000000E+04  0.10566000000E+00 0. -1.
        994   -1    0    0    0    0 -0.00000000000E+00 -0.00000000000E+00  0.11368683772E-12  0.17120000000E+03  0.17120000000E+03 0.  0.
         13    1    1    2    0    0  0.13078196894E+02 -0.28976488414E+02  0.58624237342E+02  0.66689493047E+02  0.10566000000E+00 0. -1.
        994    1    1    2    0    0 -0.12734211473E+02 -0.76841030045E+00  0.91260945000E+01  0.17191706197E+03  0.17120000000E+03 0.  0.
        998    1    1    2    0    0 -0.34398542086E+00  0.29744898715E+02  0.14322496644E+04  0.14325934450E+04  0.10000000000E+02 0. -1.
</event>
<event>
 5    1  0.1141915E-008  0.2863427E+03  0.7957747E-01  0.3998617E+00
         13   -1    0    0    0    0  0.00000000000E+00  0.00000000000E+00  0.14999999963E+04  0.15000000000E+04  0.10566000000E+00 0.  1.
        994   -1    0    0    0    0 -0.00000000000E+00 -0.00000000000E+00  0.11368683772E-12  0.17120000000E+03  0.17120000000E+03 0.  0.
         13    1    1    2    0    0 -0.62530688272E+02  0.18951543630E+03  0.41061665364E+03  0.45654379307E+03  0.10566000000E+00 0.  1.
        994    1    1    2    0    0  0.76206726403E+02 -0.22987964039E+03  0.29244360170E+03  0.41651508302E+03  0.17120000000E+03 0.  0.
        998    1    1    2    0    0 -0.13676038131E+02  0.40364204082E+02  0.79693974094E+03  0.79814112391E+03  0.10000000000E+02 0.  1.
</event>
<event>
 5    1  0.1141915E-008  0.3748794E+03  0.7957747E-01  0.3473762E+00
         13   -1    0    0    0    0  0.00000000000E+00  0.00000000000E+00  0.14999999963E+04  0.15000000000E+04  0.10566000000E+00 0. -1.
        994   -1    0    0    0    0 -0.00000000000E+00 -0.00000000000E+00  0.11368683772E-12  0.17120000000E+03  0.17120000000E+03 0.  0.
         13    1    1    2    0    0  0.79059869791E+02  0.59510675052E+01  0.38355634560E+03  0.39166485626E+03  0.10566000000E+00 0. -1.
        994    1    1    2    0    0 -0.70627550625E+02  0.21329932821E+02  0.25482125294E+02  0.18815418053E+03  0.17120000000E+03 0.  0.
        998    1    1    2    0    0 -0.84323191657E+01 -0.27281000326E+02  0.10909615254E+04  0.10913809632E+04  0.10000000000E+02 0. -1.
</event>
<event>
 5    1  0.1141915E-008  0.3835352E+03  0.7957747E-01  0.3435908E+00
         13   -1    0    0    0    0  0.00000000000E+00  0.00000000000E+00  0.14999999963E+04  0.15000000000E+04  0.10566000000E+00 0.  1.
        994   -1    0    0    0    0 -0.00000000000E+00 -0.00000000000E+00  0.11368683772E-12  0.17120000000E+03  0.17120000000E+03 0.  0.
         13    1    1    2    0    0 -0.14809451574E+02 -0.55876633779E+00  0.45177042260E+02  0.47545855625E+02  0.10566000000E+00 0.  1.
        994    1    1    2    0    0  0.13313019983E+02  0.33519809343E+01  0.29821572545E+01  0.17177545092E+03  0.17120000000E+03 0.  0.
        998    1    1    2    0    0  0.14964315911E+01 -0.27932145965E+01  0.14518407968E+04  0.14518786935E+04  0.10000000000E+02 0.  1.
</event>
<event>
 5    1  0.1141915E-008  0.3857779E+03  0.7957747E-01  0.3426380E+00
         13   -1    0    0    0    0  0.00000000000E+00  0.00000000000E+00  0.14999999963E+04  0.15000000000E+04  0.10566000000E+00 0. -1.
        994   -1    0    0    0    0 -0.00000000000E+00 -0.00000000000E+00  0.11368683772E-12  0.17120000000E+03  0.17120000000E+03 0.  0.
         13    1    1    2    0    0 -0.35903734678E+01  0.10492720790E+02  0.48911414106E+02  0.50153021496E+02  0.10566000000E+00 0. -1.
        994    1    1    2    0    0  0.85412419998E+01 -0.81119835711E+01  0.16996985483E+01  0.17161318734E+03  0.17120000000E+03 0.  0.
        998    1    1    2    0    0 -0.49508685320E+01 -0.23807372189E+01  0.14493888836E+04  0.14494337912E+04  0.10000000000E+02 0. -1.
</event>
<event>
 5    1  0.1141915E-008  0.3777651E+03  0.7957747E-01  0.3460948E+00
         13   -1    0    0    0    0  0.00000000000E+00  0.00000000000E+00  0.14999999963E+04  0.15000000000E+04  0.10566000000E+00 0. -1.
        994   -1    0    0    0    0 -0.00000000000E+00 -0.00000000000E+00  0.11368683772E-12  0.17120000000E+03  0.17120000000E+03 0.  0.
         13    1    1    2    0    0  0.49210545034E+02 -0.62509221355E+00  0.22288985374E+03  0.22825855197E+03  0.10566000000E+00 0. -1.
        994    1    1    2    0    0 -0.31582475330E+02  0.61120855932E+01  0.87585342933E+01  0.17441606079E+03  0.17120000000E+03 0.  0.
        998    1    1    2    0    0 -0.17628069705E+02 -0.54869933797E+01  0.12683516082E+04  0.12685253872E+04  0.10000000000E+02 0. -1.
</event>
<event>
 5    1  0.1141915E-008  0.3744549E+03  0.7957747E-01  0.3475664E+00
         13   -1    0    0    0    0  0.00000000000E+00  0.00000000000E+00  0.14999999963E+04  0.15000000000E+04  0.10566000000E+00 0.  1.
        994   -1    0    0    0    0 -0.00000000000E+00 -0.00000000000E+00  0.11368683772E-12  0.17120000000E+03  0.17120000000E+03 0.  0.
         13    1    1    2    0    0  0.44068677582E+02  0.57875701174E+02  0.31714586553E+03  0.32538155498E+03  0.10566000000E+00 0.  1.
        994    1    1    2    0    0 -0.36800530204E+02 -0.53667965822E+02  0.21519083080E+02  0.18440997944E+03  0.17120000000E+03 0.  0.
        998    1    1    2    0    0 -0.72681473778E+01 -0.42077353526E+01  0.11613350477E+04  0.11614084656E+04  0.10000000000E+02 0.  1.
</event>
<event>
 5    1  0.1141915E-008  0.3841482E+03  0.7957747E-01  0.3433293E+00
         13   -1    0    0    0    0  0.00000000000E+00  0.00000000000E+00  0.14999999963E+04  0.15000000000E+04  0.10566000000E+00 0.  1.
        994   -1    0    0    0    0 -0.00000000000E+00 -0.00000000000E+00  0.11368683772E-12  0.17120000000E+03  0.17120000000E+03 0.  0.
         13    1    1    2    0    0 -0.13644002098E+02 -0.22376521341E+01  0.46983543844E+02  0.48975814812E+02  0.10566000000E+00 0.  1.
        994    1    1    2    0    0  0.76846213387E+01 -0.12620299835E+02  0.27739318730E+01  0.17185883763E+03  0.17120000000E+03 0.  0.
        998    1    1    2    0    0  0.59593807593E+01  0.14857951970E+02  0.14502425206E+04  0.14503653476E+04  0.10000000000E+02 0.  1.
</event>
<event>
 5    1  0.1141915E-008  0.2905161E+03  0.7957747E-01  0.3966142E+00
         13   -1    0    0    0    0  0.00000000000E+00  0.00000000000E+00  0.14999999963E+04  0.15000000000E+04  0.10566000000E+00 0. -1.
        994   -1    0    0    0    0 -0.00000000000E+00 -0.00000000000E+00  0.11368683772E-12  0.17120000000E+03  0.17120000000E+03 0.  0.
         13    1    1    2    0    0 -0.16091154373E+03  0.42864183127E+02  0.71534730301E+03  0.73447371511E+03  0.10566000000E+00 0. -1.
        994    1    1    2    0    0  0.10890188591E+03  0.45385363300E+02  0.77136484062E+02  0.22176322763E+03  0.17120000000E+03 0.  0.
        998    1    1    2    0    0  0.52009657819E+02 -0.88249546427E+02  0.70751620921E+03  0.71496305726E+03  0.10000000000E+02 0. -1.
</event>
<event>
 5    1  0.1141915E-008  0.3828587E+03  0.7957747E-01  0.3438805E+00
         13   -1    0    0    0    0  0.00000000000E+00  0.00000000000E+00  0.14999999963E+04  0.15000000000E+04  0.10566000000E+00 0.  1.
        994   -1    0    0    0    0 -0.00000000000E+00 -0.00000000000E+00  0.11368683772E-12  0.17120000000E+03  0.17120000000E+03 0.  0.
         13    1    1    2    0    0  0.55481611727E+02 -0.16022453942E+03  0.98347728611E+03  0.99798682143E+03  0.10566000000E+00 0.  1.
        994    1    1    2    0    0 -0.64706564670E+02  0.17032763203E+03  0.12176336660E+03  0.27809027166E+03  0.17120000000E+03 0.  0.
        998    1    1    2    0    0  0.92249529426E+01 -0.10103092618E+02  0.39475934357E+03  0.39512290692E+03  0.10000000000E+02 0. -1.
</event>
<event>
 5    1  0.2986093E-008  0.3862686E+03  0.7957747E-01  0.3424310E+00
         13   -1    0    0    0    0  0.00000000000E+00  0.00000000000E+00  0.14999999963E+04  0.15000000000E+04  0.10566000000E+00 0. -1.
        994   -1    0    0    0    0 -0.00000000000E+00 -0.00000000000E+00  0.11368683772E-12  0.17120000000E+03  0.17120000000E+03 0.  0.
         13    1    1    2    0    0  0.28808168883E+01  0.10312051927E+02  0.58162069463E+02  0.59139453913E+02  0.10566000000E+00 0. -1.
        994    1    1    2    0    0 -0.19202682414E+01 -0.69791443577E+01  0.11732353847E+01  0.17135697350E+03  0.17120000000E+03 0.  0.
        998    1    1    2    0    0 -0.96054864687E+00 -0.33329075692E+01  0.14406646914E+04  0.14407035726E+04  0.10000000000E+02 0. -1.
</event>
<event>
 5    1  0.1141915E-008  0.3784815E+03  0.7957747E-01  0.3457797E+00
         13   -1    0    0    0    0  0.00000000000E+00  0.00000000000E+00  0.14999999963E+04  0.15000000000E+04  0.10566000000E+00 0.  1.
        994   -1    0    0    0    0 -0.00000000000E+00 -0.00000000000E+00  0.11368683772E-12  0.17120000000E+03  0.17120000000E+03 0.  0.
         13    1    1    2    0    0  0.59890257764E+01  0.83122384355E+01  0.85049758945E+01  0.13315686860E+02  0.10566000000E+00 0.  1.
        994    1    1    2    0    0 -0.44362060788E+01 -0.53439825529E+01  0.50637534004E+01  0.17141563427E+03  0.17120000000E+03 0.  0.
        998    1    1    2    0    0 -0.15528196976E+01 -0.29682558826E+01  0.14864312670E+04  0.14864686789E+04  0.10000000000E+02 0.  1.
</event>
<event>
 5    1  0.1141915E-008  0.3836392E+03  0.7957747E-01  0.3435464E+00
         13   -1    0    0    0    0  0.00000000000E+00  0.00000000000E+00  0.14999999963E+04  0.15000000000E+04  0.10566000000E+00 0. -1.
        994   -1    0    0    0    0 -0.00000000000E+00 -0.00000000000E+00  0.11368683772E-12  0.17120000000E+03  0.17120000000E+03 0.  0.
         13    1    1    2    0    0 -0.14196382816E+02  0.23301063312E+02  0.13625663622E+03  0.13896171744E+03  0.10566000000E+00 0. -1.
        994    1    1    2    0    0  0.23868962818E+02 -0.30152432443E+02  0.72077516010E+01  0.17561403205E+03  0.17120000000E+03 0.  0.
        998    1    1    2    0    0 -0.96725800019E+01  0.68513691317E+01  0.13565356085E+04  0.13566242505E+04  0.10000000000E+02 0. -1.
</event>
<event>
 5    1  0.1141915E-008  0.3844053E+03  0.7957747E-01  0.3432198E+00
         13   -1    0    0    0    0  0.00000000000E+00  0.00000000000E+00  0.14999999963E+04  0.15000000000E+04  0.10566000000E+00 0. -1.
        994   -1    0    0    0    0 -0.00000000000E+00 -0.00000000000E+00  0.11368683772E-12  0.17120000000E+03  0.17120000000E+03 0.  0.
         13    1    1    2    0    0  0.12915786273E+02 -0.10752513442E+02  0.78682272960E+02  0.80457102374E+02  0.10566000000E+00 0. -1.
        994    1    1    2    0    0 -0.70704920684E+01 -0.89392105139E+01  0.23538369879E+01  0.17159511034E+03  0.17120000000E+03 0.  0.
        998    1    1    2    0    0 -0.58452942045E+01  0.19691723956E+02  0.14189638863E+04  0.14191477873E+04  0.10000000000E+02 0. -1.
</event>
<event>
 5    1  0.1141915E-008  0.3601684E+03  0.7957747E-01  0.3542333E+00
         13   -1    0    0    0    0  0.00000000000E+00  0.00000000000E+00  0.14999999963E+04  0.15000000000E+04  0.10566000000E+00 0. -1.
        994   -1    0    0    0    0 -0.00000000000E+00 -0.00000000000E+00  0.11368683772E-12  0.17120000000E+03  0.17120000000E+03 0.  0.
         13    1    1    2    0    0 -0.72438581852E+02 -0.26173335951E+03  0.93524977739E+03  0.97388082273E+03  0.10566000000E+00 0. -1.
        994    1    1    2    0    0  0.72162866133E+02  0.26004646204E+03  0.31966889328E+03  0.45202796705E+03  0.17120000000E+03 0.  0.
        998    1    1    2    0    0  0.27571571904E+00  0.16868974668E+01  0.24508132562E+03  0.24529121021E+03  0.10000000000E+02 0.  0.
</event>
<event>
 5    1  0.1141915E-008  0.3808929E+03  0.7957747E-01  0.3447280E+00
         13   -1    0    0    0    0  0.00000000000E+00  0.00000000000E+00  0.14999999963E+04  0.15000000000E+04  0.10566000000E+00 0.  1.
        994   -1    0    0    0    0 -0.00000000000E+00 -0.00000000000E+00  0.11368683772E-12  0.17120000000E+03  0.17120000000E+03 0.  0.
         13    1    1    2    0    0 -0.53937517955E+02 -0.36115744815E+02  0.11108317794E+03  0.12865879858E+03  0.10566000000E+00 0.  1.
        994    1    1    2    0    0  0.52556525646E+02  0.39326560020E+02  0.32654862930E+02  0.18623787688E+03  0.17120000000E+03 0.  0.
        998    1    1    2    0    0  0.13809923095E+01 -0.32108152044E+01  0.13562619554E+04  0.13563033245E+04  0.10000000000E+02 0.  1.
</event>
<event>
 5    1  0.1141915E-008  0.3824964E+03  0.7957747E-01  0.3440360E+00
         13   -1    0    0    0    0  0.00000000000E+00  0.00000000000E+00  0.14999999963E+04  0.15000000000E+04  0.10566000000E+00 0. -1.
        994   -1    0    0    0    0 -0.00000000000E+00 -0.00000000000E+00  0.11368683772E-12  0.17120000000E+03  0.17120000000E+03 0.  0.
         13    1    1    2    0    0  0.23601155313E+02 -0.11730763230E+02  0.11431064204E+02  0.28728134832E+02  0.10566000000E+00 0. -1.
        994    1    1    2    0    0 -0.38414998568E+02  0.12500626277E+02  0.23697057512E+02  0.17749075555E+03  0.17120000000E+03 0.  0.
        998    1    1    2    0    0  0.14813843255E+02 -0.76986304723E+00  0.14648718746E+04  0.14649811096E+04  0.10000000000E+02 0. -1.
</event>
<event>
 5    1  0.1141915E-008  0.3824266E+03  0.7957747E-01  0.3440660E+00
         13   -1    0    0    0    0  0.00000000000E+00  0.00000000000E+00  0.14999999963E+04  0.15000000000E+04  0.10566000000E+00 0.  1.
        994   -1    0    0    0    0 -0.00000000000E+00 -0.00000000000E+00  0.11368683772E-12  0.17120000000E+03  0.17120000000E+03 0.  0.
         13    1    1    2    0    0 -0.33345126034E+01  0.20375572896E+02  0.67797100441E+02  0.70871298403E+02  0.10566000000E+00 0.  1.
        994    1    1    2    0    0  0.43721688142E+01 -0.25693851281E+02  0.51691951673E+01  0.17324967657E+03  0.17120000000E+03 0.  0.
        998    1    1    2    0    0 -0.10376562108E+01  0.53182783853E+01  0.14270337007E+04  0.14270790250E+04  0.10000000000E+02 0.  1.
</event>
<event>
 5    1  0.1141915E-008  0.3767619E+03  0.7957747E-01  0.3465380E+00
         13   -1    0    0    0    0  0.00000000000E+00  0.00000000000E+00  0.14999999963E+04  0.15000000000E+04  0.10566000000E+00 0.  1.
        994   -1    0    0    0    0 -0.00000000000E+00 -0.00000000000E+00  0.11368683772E-12  0.17120000000E+03  0.17120000000E+03 0.  0.
         13    1    1    2    0    0  0.41249633571E+02 -0.17915933517E+02  0.16553092130E+03  0.17153136744E+03  0.10566000000E+00 0.  1.
        994    1    1    2    0    0 -0.27959443867E+02  0.21388633069E+02  0.99755663968E+01  0.17506614764E+03  0.17120000000E+03 0.  0.
        998    1    1    2    0    0 -0.13290189704E+02 -0.34726995518E+01  0.13244935086E+04  0.13246024849E+04  0.10000000000E+02 0.  1.
</event>
<event>
 5    1  0.1141915E-008  0.3840046E+03  0.7957747E-01  0.3433905E+00
         13   -1    0    0    0    0  0.00000000000E+00  0.00000000000E+00  0.14999999963E+04  0.15000000000E+04  0.10566000000E+00 0.  1.
        994   -1    0    0    0    0 -0.00000000000E+00 -0.00000000000E+00  0.11368683772E-12  0.17120000000E+03  0.17120000000E+03 0.  0.
         13    1    1    2    0    0  0.14576655322E+02 -0.16509680097E+02  0.10931031556E+03  0.11150697140E+03  0.10566000000E+00 0.  1.
        994    1    1    2    0    0 -0.14180653871E+02  0.13004340027E+02  0.33475059177E+01  0.17231032935E+03  0.17120000000E+03 0.  0.
        998    1    1    2    0    0 -0.39600145099E+00  0.35053400702E+01  0.13873421748E+04  0.13873826993E+04  0.10000000000E+02 0.  1.
</event>
<event>
 5    1  0.1141915E-008  0.3851553E+03  0.7957747E-01  0.3429014E+00
         13   -1    0    0    0    0  0.00000000000E+00  0.00000000000E+00  0.14999999963E+04  0.15000000000E+04  0.10566000000E+00 0. -1.
        994   -1    0    0    0    0 -0.00000000000E+00 -0.00000000000E+00  0.11368683772E-12  0.17120000000E+03  0.17120000000E+03 0.  0.
         13    1    1    2    0    0 -0.12581711553E+02 -0.13292059730E+00  0.48366927354E+02  0.49976874244E+02  0.10566000000E+00 0. -1.
        994    1    1    2    0    0  0.17929597745E+02 -0.23028753356E+00  0.26106256664E+01  0.17215626295E+03  0.17120000000E+03 0.  0.
        998    1    1    2    0    0 -0.53478861923E+01  0.36320813087E+00  0.14490224433E+04  0.14490668628E+04  0.10000000000E+02 0. -1.
</event>
<event>
 5    1  0.1141915E-008  0.3789092E+03  0.7957747E-01  0.3455922E+00
         13   -1    0    0    0    0  0.00000000000E+00  0.00000000000E+00  0.14999999963E+04  0.15000000000E+04  0.10566000000E+00 0.  1.
        994   -1    0    0    0    0 -0.00000000000E+00 -0.00000000000E+00  0.11368683772E-12  0.17120000000E+03  0.17120000000E+03 0.  0.
         13    1    1    2    0    0  0.29646454353E+02 -0.11807031620E+02  0.93562661019E+02  0.98854949054E+02  0.10566000000E+00 0.  1.
        994    1    1    2    0    0 -0.37668516855E+02  0.36266443259E+02  0.13913265890E+02  0.17954718332E+03  0.17120000000E+03 0.  0.
        998    1    1    2    0    0  0.80220625022E+01 -0.24459411638E+02  0.13925240694E+04  0.13927978676E+04  0.10000000000E+02 0.  1.
</event>
<event>
 5    1  0.1258557E-008  0.3863640E+03  0.7957747E-01  0.3423908E+00
         13   -1    0    0    0    0  0.00000000000E+00  0.00000000000E+00  0.14999999963E+04  0.15000000000E+04  0.10566000000E+00 0.  1.
        994   -1    0    0    0    0 -0.00000000000E+00 -0.00000000000E+00  0.11368683772E-12  0.17120000000E+03  0.17120000000E+03 0.  0.
         13    1    1    2    0    0  0.99659626751E+01  0.84298885923E+00  0.49917939009E+02  0.50910144777E+02  0.10566000000E+00 0.  1.
        994    1    1    2    0    0 -0.17370797789E+02  0.10472896546E+02  0.23026787049E+01  0.17241278522E+03  0.17120000000E+03 0.  0.
        998    1    1    2    0    0  0.74048351135E+01 -0.11315885405E+02  0.14477793786E+04  0.14478770700E+04  0.10000000000E+02 0.  1.
</event>
<event>
 5    1  0.1141915E-008  0.3821834E+03  0.7957747E-01  0.3441706E+00
         13   -1    0    0    0    0  0.00000000000E+00  0.00000000000E+00  0.14999999963E+04  0.15000000000E+04  0.10566000000E+00 0. -1.
        994   -1    0    0    0    0 -0.00000000000E+00 -0.00000000000E+00  0.11368683772E-12  0.17120000000E+03  0.17120000000E+03 0.  0.
         13    1    1    2    0    0 -0.13573403486E+02  0.30591536405E+02  0.15774174471E+03  0.16125305756E+03  0.10566000000E+00 0. -1.
        994    1    1    2    0    0 -0.76511008071E+01 -0.48826643108E+02  0.11184589544E+02  0.17854163510E+03  0.17120000000E+03 0.  0.
        998    1    1    2    0    0  0.21224504293E+02  0.18235106702E+02  0.13310736620E+04  0.13314053073E+04  0.10000000000E+02 0. -1.
</event>
<event>
 5    1  0.1141915E-008  0.2417539E+03  0.7957747E-01  0.4425813E+00
         13   -1    0    0    0    0  0.00000000000E+00  0.00000000000E+00  0.14999999963E+04  0.15000000000E+04  0.10566000000E+00 0. -1.
        994   -1    0    0    0    0 -0.00000000000E+00 -0.00000000000E+00  0.11368683772E-12  0.17120000000E+03  0.17120000000E+03 0.  0.
         13    1    1    2    0    0 -0.14632070471E+03 -0.80544531241E+02  0.16133297572E+03  0.23221866927E+03  0.10566000000E+00 0. -1.
        994    1    1    2    0    0  0.19516209498E+03 -0.31213704487E+02  0.32117242129E+03  0.41415420179E+03  0.17120000000E+03 0.  0.
        998    1    1    2    0    0 -0.48841390271E+02  0.11175823573E+03  0.10174945993E+04  0.10248271289E+04  0.10000000000E+02 0.  1.
</event>
<event>
 5    1  0.1141915E-008  0.3758369E+03  0.7957747E-01  0.3469488E+00
         13   -1    0    0    0    0  0.00000000000E+00  0.00000000000E+00  0.14999999963E+04  0.15000000000E+04  0.10566000000E+00 0. -1.
        994   -1    0    0    0    0 -0.00000000000E+00 -0.00000000000E+00  0.11368683772E-12  0.17120000000E+03  0.17120000000E+03 0.  0.
         13    1    1    2    0    0  0.32037367813E+02  0.53650815409E+02  0.30997583338E+03  0.31621168760E+03  0.10566000000E+00 0. -1.
        994    1    1    2    0    0 -0.21647381386E+01 -0.41045620952E+02  0.11997654239E+02  0.17647326369E+03  0.17120000000E+03 0.  0.
        998    1    1    2    0    0 -0.29872629674E+02 -0.12605194457E+02  0.11780265087E+04  0.11785150487E+04  0.10000000000E+02 0. -1.
</event>
<event>
 5    1  0.1141915E-008  0.3836598E+03  0.7957747E-01  0.3435376E+00
         13   -1    0    0    0    0  0.00000000000E+00  0.00000000000E+00  0.14999999963E+04  0.15000000000E+04  0.10566000000E+00 0.  1.
        994   -1    0    0    0    0 -0.00000000000E+00 -0.00000000000E+00  0.11368683772E-12  0.17120000000E+03  0.17120000000E+03 0.  0.
         13    1    1    2    0    0  0.26791870250E+02 -0.61803916006E+01  0.15221107982E+03  0.15467457947E+03  0.10566000000E+00 0.  1.
        994    1    1    2    0    0 -0.24472020251E+02  0.74536831788E+01  0.44615825882E+01  0.17315825966E+03  0.17120000000E+03 0.  0.
        998    1    1    2    0    0 -0.23198499995E+01 -0.12732915782E+01  0.13433273339E+04  0.13433671609E+04  0.10000000000E+02 0.  0.
</event>
<event>
 5    1  0.1141915E-008  0.3829948E+03  0.7957747E-01  0.3438221E+00
         13   -1    0    0    0    0  0.00000000000E+00  0.00000000000E+00  0.14999999963E+04  0.15000000000E+04  0.10566000000E+00 0. -1.
        994   -1    0    0    0    0 -0.00000000000E+00 -0.00000000000E+00  0.11368683772E-12  0.17120000000E+03  0.17120000000E+03 0.  0.
         13    1    1    2    0    0  0.19687565105E+02  0.12260752516E+02  0.10193000667E+03  0.10453546621E+03  0.10566000000E+00 0. -1.
        994    1    1    2    0    0 -0.11485703925E+02 -0.76080587693E+01  0.32575036691E+01  0.17178432782E+03  0.17120000000E+03 0.  0.
        998    1    1    2    0    0 -0.82018611802E+01 -0.46526937464E+01  0.13948124859E+04  0.13948802060E+04  0.10000000000E+02 0. -1.
</event>
<event>
 5    1  0.1141915E-008  0.3796089E+03  0.7957747E-01  0.3452863E+00
         13   -1    0    0    0    0  0.00000000000E+00  0.00000000000E+00  0.14999999963E+04  0.15000000000E+04  0.10566000000E+00 0.  1.
        994   -1    0    0    0    0 -0.00000000000E+00 -0.00000000000E+00  0.11368683772E-12  0.17120000000E+03  0.17120000000E+03 0.  0.
         13    1    1    2    0    0 -0.19639859378E+01  0.12302107892E+02  0.16105384897E+02  0.20361573762E+02  0.10566000000E+00 0.  1.
        994    1    1    2    0    0  0.14094503763E+02 -0.56114920956E+01  0.51014091724E+01  0.17194652731E+03  0.17120000000E+03 0.  0.
        998    1    1    2    0    0 -0.12130517825E+02 -0.66906157961E+01  0.14787932022E+04  0.14788918989E+04  0.10000000000E+02 0.  1.
</event>
<event>
 5    1  0.1141915E-008  0.3853511E+03  0.7957747E-01  0.3428185E+00
         13   -1    0    0    0    0  0.00000000000E+00  0.00000000000E+00  0.14999999963E+04  0.15000000000E+04  0.10566000000E+00 0. -1.
        994   -1    0    0    0    0 -0.00000000000E+00 -0.00000000000E+00  0.11368683772E-12  0.17120000000E+03  0.17120000000E+03 0.  0.
         13    1    1    2    0    0  0.57101428768E+01 -0.15180724015E+02  0.95445185716E+02  0.96813505017E+02  0.10566000000E+00 0. -1.
        994    1    1    2    0    0 -0.20518083452E+02 -0.24941634213E+01  0.28605342333E+01  0.17246691061E+03  0.17120000000E+03 0.  0.
        998    1    1    2    0    0  0.14807940575E+02  0.17674887436E+02  0.14016942763E+04  0.14019195844E+04  0.10000000000E+02 0. -1.
</event>
<event>
 5    1  0.1141915E-008  0.3844144E+03  0.7957747E-01  0.3432159E+00
         13   -1    0    0    0    0  0.00000000000E+00  0.00000000000E+00  0.14999999963E+04  0.15000000000E+04  0.10566000000E+00 0. -1.
        994   -1    0    0    0    0 -0.00000000000E+00 -0.00000000000E+00  0.11368683772E-12  0.17120000000E+03  0.17120000000E+03 0.  0.
         13    1    1    2    0    0 -0.13487078389E+02 -0.10427585588E+01  0.44960899243E+02  0.46951914270E+02  0.10566000000E+00 0. -1.
        994    1    1    2    0    0  0.19421144137E+02  0.25295054543E+00  0.31651031123E+01  0.17232731270E+03  0.17120000000E+03 0.  0.
        998    1    1    2    0    0 -0.59340657485E+01  0.78980801339E+00  0.14518739939E+04  0.14519207730E+04  0.10000000000E+02 0. -1.
</event>
<event>
 5    1  0.1141915E-008  0.4274402E+03  0.7957747E-01  0.3267474E+00
         13   -1    0    0    0    0  0.00000000000E+00  0.00000000000E+00  0.14999999963E+04  0.15000000000E+04  0.10566000000E+00 0.  1.
        994   -1    0    0    0    0 -0.00000000000E+00 -0.00000000000E+00  0.11368683772E-12  0.17120000000E+03  0.17120000000E+03 0.  0.
         13    1    1    2    0    0 -0.18270327086E+02  0.28702700998E+02 -0.54225355019E+01  0.34453808958E+02  0.10566000000E+00 0.  1.
        994    1    1    2    0    0  0.19095950148E+02 -0.26131722937E+02  0.49969753062E+02  0.18125655430E+03  0.17120000000E+03 0.  0.
        998    1    1    2    0    0 -0.82562306180E+00 -0.25709780616E+01  0.14554527787E+04  0.14554896367E+04  0.10000000000E+02 0.  1.
</event>
<event>
 5    1  0.1141915E-008  0.3791524E+03  0.7957747E-01  0.3454858E+00
         13   -1    0    0    0    0  0.00000000000E+00  0.00000000000E+00  0.14999999963E+04  0.15000000000E+04  0.10566000000E+00 0.  1.
        994   -1    0    0    0    0 -0.00000000000E+00 -0.00000000000E+00  0.11368683772E-12  0.17120000000E+03  0.17120000000E+03 0.  0.
         13    1    1    2    0    0  0.65036238521E+01 -0.43972321869E+02  0.25346465080E+03  0.25733286339E+03  0.10566000000E+00 0.  1.
        994    1    1    2    0    0  0.28068375938E+01  0.62256458501E+01  0.47179832910E+01  0.17140109792E+03  0.17120000000E+03 0.  0.
        998    1    1    2    0    0 -0.93104614458E+01  0.37746676019E+02  0.12418173622E+04  0.12424660387E+04  0.10000000000E+02 0.  1.
</event>
<event>
 5    1  0.1141915E-008  0.3840815E+03  0.7957747E-01  0.3433577E+00
         13   -1    0    0    0    0  0.00000000000E+00  0.00000000000E+00  0.14999999963E+04  0.15000000000E+04  0.10566000000E+00 0. -1.
        994   -1    0    0    0    0 -0.00000000000E+00 -0.00000000000E+00  0.11368683772E-12  0.17120000000E+03  0.17120000000E+03 0.  0.
         13    1    1    2    0    0 -0.91417774565E+01  0.10473663847E+02  0.46249292893E+02  0.48293664042E+02  0.10566000000E+00 0. -1.
        994    1    1    2    0    0  0.13559388541E+01 -0.87664726513E+01  0.23464239354E+01  0.17144572120E+03  0.17120000000E+03 0.  0.
        998    1    1    2    0    0  0.77858386024E+01 -0.17071911954E+01  0.14514042794E+04  0.14514606148E+04  0.10000000000E+02 0. -1.
</event>
<event>
 5    1  0.1141915E-008  0.3773420E+03  0.7957747E-01  0.3462814E+00
         13   -1    0    0    0    0  0.00000000000E+00  0.00000000000E+00  0.14999999963E+04  0.15000000000E+04  0.10566000000E+00 0.  1.
        994   -1    0    0    0    0 -0.00000000000E+00 -0.00000000000E+00  0.11368683772E-12  0.17120000000E+03  0.17120000000E+03 0.  0.
         13    1    1    2    0    0  0.12075413781E+02  0.12346702629E+03  0.66790371799E+03  0.67932710079E+03  0.10566000000E+00 0.  1.
        994    1    1    2    0    0 -0.10524213226E+02 -0.13009517725E+03  0.65276516940E+02  0.22495772463E+03  0.17120000000E+03 0.  0.
        998    1    1    2    0    0 -0.15512005552E+01  0.66281509613E+01  0.76681976135E+03  0.76691517458E+03  0.10000000000E+02 0.  1.
</event>
<event>
 5    1  0.1141915E-008  0.3860020E+03  0.7957747E-01  0.3425434E+00
         13   -1    0    0    0    0  0.00000000000E+00  0.00000000000E+00  0.14999999963E+04  0.15000000000E+04  0.10566000000E+00 0.  1.
        994   -1    0    0    0    0 -0.00000000000E+00 -0.00000000000E+00  0.11368683772E-12  0.17120000000E+03  0.17120000000E+03 0.  0.
         13    1    1    2    0    0  0.97344827459E+01  0.34795768515E+01  0.49472522198E+02  0.50541163679E+02  0.10566000000E+00 0.  1.
        994    1    1    2    0    0  0.22943801284E+01 -0.11197010854E+02  0.15618415201E+01  0.17158821807E+03  0.17120000000E+03 0.  0.
        998    1    1    2    0    0 -0.12028862874E+02  0.77174340023E+01  0.14489656326E+04  0.14490706182E+04  0.10000000000E+02 0.  1.
</event>
<event>
 5    1  0.1141915E-008  0.3832966E+03  0.7957747E-01  0.3436929E+00
         13   -1    0    0    0    0  0.00000000000E+00  0.00000000000E+00  0.14999999963E+04  0.15000000000E+04  0.10566000000E+00 0.  1.
        994   -1    0    0    0    0 -0.00000000000E+00 -0.00000000000E+00  0.11368683772E-12  0.17120000000E+03  0.17120000000E+03 0.  0.
         13    1    1    2    0    0  0.22646848766E+02  0.84563717268E+01  0.12551706298E+03  0.12782384067E+03  0.10566000000E+00 0.  1.
        994    1    1    2    0    0 -0.81309888656E+01  0.57944269857E+01  0.28079341166E+01  0.17151388532E+03  0.17120000000E+03 0.  0.
        998    1    1    2    0    0 -0.14515859900E+02 -0.14250798713E+02  0.13716749992E+04  0.13718622740E+04  0.10000000000E+02 0.  1.
</event>
<event>
 5    1  0.1141915E-008  0.3738355E+03  0.7957747E-01  0.3478447E+00
         13   -1    0    0    0    0  0.00000000000E+00  0.00000000000E+00  0.14999999963E+04  0.15000000000E+04  0.10566000000E+00 0. -1.
        994   -1    0    0    0    0 -0.00000000000E+00 -0.00000000000E+00  0.11368683772E-12  0.17120000000E+03  0.17120000000E+03 0.  0.
         13    1    1    2    0    0  0.42342248557E+02  0.44790178702E+02  0.21957130751E+03  0.22805831791E+03  0.10566000000E+00 0. -1.
        994    1    1    2    0    0 -0.38215641320E+02 -0.50757097966E+02  0.21181238987E+02  0.18383362892E+03  0.17120000000E+03 0.  0.
        998    1    1    2    0    0 -0.41266072368E+01  0.59669192645E+01  0.12592474498E+04  0.12593080532E+04  0.10000000000E+02 0. -1.
</event>
<event>
 5    1  0.1141915E-008  0.3718285E+03  0.7957747E-01  0.3487529E+00
         13   -1    0    0    0    0  0.00000000000E+00  0.00000000000E+00  0.14999999963E+04  0.15000000000E+04  0.10566000000E+00 0. -1.
        994   -1    0    0    0    0 -0.00000000000E+00 -0.00000000000E+00  0.11368683772E-12  0.17120000000E+03  0.17120000000E+03 0.  0.
         13    1    1    2    0    0  0.53726480282E+01  0.35453601343E+02  0.72243245920E+02  0.80653090084E+02  0.10566000000E+00 0. -1.
        994    1    1    2    0    0  0.11487636736E+01 -0.31524466238E+02  0.11743285375E+02  0.17447766728E+03  0.17120000000E+03 0.  0.
        998    1    1    2    0    0 -0.65214117019E+01 -0.39291351045E+01  0.14160134650E+04  0.14160692426E+04  0.10000000000E+02 0. -1.
</event>
<event>
 5    1  0.1141915E-008  0.3685804E+03  0.7957747E-01  0.3502440E+00
         13   -1    0    0    0    0  0.00000000000E+00  0.00000000000E+00  0.14999999963E+04  0.15000000000E+04  0.10566000000E+00 0.  1.
        994   -1    0    0    0    0 -0.00000000000E+00 -0.00000000000E+00  0.11368683772E-12  0.17120000000E+03  0.17120000000E+03 0.  0.
         13    1    1    2    0    0  0.35608920069E+02  0.45296721443E+02  0.14479381111E+03  0.15583660373E+03  0.10566000000E+00 0.  1.
        994    1    1    2    0    0 -0.34622949478E+02 -0.46096657945E+02  0.21842995036E+02  0.18196210302E+03  0.17120000000E+03 0.  0.
        998    1    1    2    0    0 -0.98597059184E+00  0.79993650217E+00  0.13333631901E+04  0.13334012932E+04  0.10000000000E+02 0.  0.
</event>
<event>
 5    1  0.1141915E-008  0.3846287E+03  0.7957747E-01  0.3431248E+00
         13   -1    0    0    0    0  0.00000000000E+00  0.00000000000E+00  0.14999999963E+04  0.15000000000E+04  0.10566000000E+00 0. -1.
        994   -1    0    0    0    0 -0.00000000000E+00 -0.00000000000E+00  0.11368683772E-12  0.17120000000E+03  0.17120000000E+03 0.  0.
         13    1    1    2    0    0 -0.60228970653E+01  0.10728078584E+02  0.40435956659E+02  0.42266354398E+02  0.10566000000E+00 0. -1.
        994    1    1    2    0    0  0.25856050963E+01 -0.13871063033E+02  0.24703903203E+01  0.17179823798E+03  0.17120000000E+03 0.  0.
        998    1    1    2    0    0  0.34372919690E+01  0.31429844491E+01  0.14570936493E+04  0.14571354076E+04  0.10000000000E+02 0. -1.
</event>
<event>
 5    1  0.1141915E-008  0.3773934E+03  0.7957747E-01  0.3462587E+00
         13   -1    0    0    0    0  0.00000000000E+00  0.00000000000E+00  0.14999999963E+04  0.15000000000E+04  0.10566000000E+00 0. -1.
        994   -1    0    0    0    0 -0.00000000000E+00 -0.00000000000E+00  0.11368683772E-12  0.17120000000E+03  0.17120000000E+03 0.  0.
         13    1    1    2    0    0 -0.24802918379E+01  0.36138469111E+02  0.13266121219E+03  0.13751781405E+03  0.10566000000E+00 0. -1.
        994    1    1    2    0    0 -0.12456217626E+02 -0.12558520628E+01  0.59834485645E+01  0.17176139316E+03  0.17120000000E+03 0.  0.
        998    1    1    2    0    0  0.14936509464E+02 -0.34882617048E+02  0.13613553355E+04  0.13619207928E+04  0.10000000000E+02 0. -1.
</event>
<event>
 5    1  0.1141915E-008  0.3844637E+03  0.7957747E-01  0.3431950E+00
         13   -1    0    0    0    0  0.00000000000E+00  0.00000000000E+00  0.14999999963E+04  0.15000000000E+04  0.10566000000E+00 0.  1.
        994   -1    0    0    0    0 -0.00000000000E+00 -0.00000000000E+00  0.11368683772E-12  0.17120000000E+03  0.17120000000E+03 0.  0.
         13    1    1    2    0    0 -0.10435509342E+02 -0.13681053740E+02  0.77480646189E+02  0.79368336159E+02  0.10566000000E+00 0.  1.
        994    1    1    2    0    0  0.85944364531E+01  0.82952626757E+01  0.23668059833E+01  0.17163250709E+03  0.17120000000E+03 0.  0.
        998    1    1    2    0    0  0.18410728887E+01  0.53857910641E+01  0.14201525441E+04  0.14201991567E+04  0.10000000000E+02 0.  1.
</event>
<event>
 5    1  0.1141915E-008  0.3434852E+03  0.7957747E-01  0.3627391E+00
         13   -1    0    0    0    0  0.00000000000E+00  0.00000000000E+00  0.14999999963E+04  0.15000000000E+04  0.10566000000E+00 0. -1.
        994   -1    0    0    0    0 -0.00000000000E+00 -0.00000000000E+00  0.11368683772E-12  0.17120000000E+03  0.17120000000E+03 0.  0.
         13    1    1    2    0    0  0.12587798640E+03 -0.13597965916E+03  0.10374836032E+04  0.10539013109E+04  0.10566000000E+00 0. -1.
        994    1    1    2    0    0 -0.10971054260E+03  0.10533015401E+03  0.94844984470E+02  0.24786257398E+03  0.17120000000E+03 0.  0.
        998    1    1    2    0    0 -0.16167443796E+02  0.30649505150E+02  0.36767140863E+03  0.36943611508E+03  0.10000000000E+02 0. -1.
</event>
<event>
 5    1  0.1141915E-008  0.3805982E+03  0.7957747E-01  0.3448558E+00
         13   -1    0    0    0    0  0.00000000000E+00  0.00000000000E+00  0.14999999963E+04  0.15000000000E+04  0.10566000000E+00 0. -1.
        994   -1    0    0    0    0 -0.00000000000E+00 -0.00000000000E+00  0.11368683772E-12  0.17120000000E+03  0.17120000000E+03 0.  0.
         13    1    1    2    0    0 -0.34236397628E+02 -0.42493844805E+01  0.13701975144E+03  0.14129618410E+03  0.10566000000E+00 0. -1.
        994    1    1    2    0    0  0.38698775985E+02  0.86519785972E+01  0.90955408361E+01  0.17596766993E+03  0.17120000000E+03 0.  0.
        998    1    1    2    0    0 -0.44623783570E+01 -0.44025941166E+01  0.13538847040E+04  0.13539361460E+04  0.10000000000E+02 0. -1.
</event>
<event>
 5    1  0.1141915E-008  0.3842113E+03  0.7957747E-01  0.3433024E+00
         13   -1    0    0    0    0  0.00000000000E+00  0.00000000000E+00  0.14999999963E+04  0.15000000000E+04  0.10566000000E+00 0.  1.
        994   -1    0    0    0    0 -0.00000000000E+00 -0.00000000000E+00  0.11368683772E-12  0.17120000000E+03  0.17120000000E+03 0.  0.
         13    1    1    2    0    0  0.51328629673E+01  0.10157474721E+02  0.31630206061E+02  0.33615497534E+02  0.10566000000E+00 0.  1.
        994    1    1    2    0    0 -0.87050063557E+00 -0.72764327026E+01  0.21993036314E+01  0.17137088779E+03  0.17120000000E+03 0.  0.
        998    1    1    2    0    0 -0.42623623318E+01 -0.28810420185E+01  0.14661704866E+04  0.14662136147E+04  0.10000000000E+02 0.  1.
</event>
<event>
 5    1  0.1141915E-008  0.4066180E+03  0.7957747E-01  0.3342862E+00
         13   -1    0    0    0    0  0.00000000000E+00  0.00000000000E+00  0.14999999963E+04  0.15000000000E+04  0.10566000000E+00 0. -1.
        994   -1    0    0    0    0 -0.00000000000E+00 -0.00000000000E+00  0.11368683772E-12  0.17120000000E+03  0.17120000000E+03 0.  0.
         13    1    1    2    0    0  0.71605347471E+02 -0.19886398899E+02  0.66032468965E+02  0.99413745374E+02  0.10566000000E+00 0. -1.
        994    1    1    2    0    0 -0.91007795111E+02  0.68008800038E+02  0.85929025305E+02  0.22271248964E+03  0.17120000000E+03 0.  0.
        998    1    1    2    0    0  0.19402447640E+02 -0.48122401139E+02  0.13480385020E+04  0.13490737650E+04  0.10000000000E+02 0. -1.
</event>
<event>
 5    1  0.1141915E-008  0.3795159E+03  0.7957747E-01  0.3453269E+00
         13   -1    0    0    0    0  0.00000000000E+00  0.00000000000E+00  0.14999999963E+04  0.15000000000E+04  0.10566000000E+00 0.  1.
        994   -1    0    0    0    0 -0.00000000000E+00 -0.00000000000E+00  0.11368683772E-12  0.17120000000E+03  0.17120000000E+03 0.  0.
         13    1    1    2    0    0  0.17326652415E+02  0.12700226373E+02  0.54735739476E+02  0.58800688549E+02  0.10566000000E+00 0.  1.
        994    1    1    2    0    0  0.58119962858E+01 -0.91392595151E+00  0.44936286727E+01  0.17135999317E+03  0.17120000000E+03 0.  0.
        998    1    1    2    0    0 -0.23138648701E+02 -0.11786300422E+02  0.14407706281E+04  0.14410393183E+04  0.10000000000E+02 0.  1.
</event>
<event>
 5    1  0.1141915E-008  0.3808799E+03  0.7957747E-01  0.3447336E+00
         13   -1    0    0    0    0  0.00000000000E+00  0.00000000000E+00  0.14999999963E+04  0.15000000000E+04  0.10566000000E+00 0. -1.
        994   -1    0    0    0    0 -0.00000000000E+00 -0.00000000000E+00  0.11368683772E-12  0.17120000000E+03  0.17120000000E+03 0.  0.
         13    1    1    2    0    0 -0.23567525768E+02 -0.19900589380E+02  0.11813585598E+03  0.12209649201E+03  0.10566000000E+00 0. -1.
        994    1    1    2    0    0  0.25155227998E+02  0.19604606130E+02  0.70873549541E+01  0.17428940495E+03  0.17120000000E+03 0.  0.
        998    1    1    2    0    0 -0.15877022301E+01  0.29598324997E+00  0.13747767853E+04  0.13748141030E+04  0.10000000000E+02 0. -1.
</event>
<event>
 5    1  0.1202185E-008  0.3852164E+03  0.7957747E-01  0.3428755E+00
         13   -1    0    0    0    0  0.00000000000E+00  0.00000000000E+00  0.14999999963E+04  0.15000000000E+04  0.10566000000E+00 0. -1.
        994   -1    0    0    0    0 -0.00000000000E+00 -0.00000000000E+00  0.11368683772E-12  0.17120000000E+03  0.17120000000E+03 0.  0.
         13    1    1    2    0    0  0.33854879022E+01  0.10669453128E+02  0.40184635538E+02  0.41714683934E+02  0.10566000000E+00 0. -1.
        994    1    1    2    0    0 -0.29198857287E+01 -0.11678593687E+02  0.19991206223E+01  0.17163435485E+03  0.17120000000E+03 0.  0.
        998    1    1    2    0    0 -0.46560217343E+00  0.10091405586E+01  0.14578162401E+04  0.14578509612E+04  0.10000000000E+02 0. -1.
</event>
<event>
 5    1  0.1141915E-008  0.3835094E+03  0.7957747E-01  0.3436019E+00
         13   -1    0    0    0    0  0.00000000000E+00  0.00000000000E+00  0.14999999963E+04  0.15000000000E+04  0.10566000000E+00 0. -1.
        994   -1    0    0    0    0 -0.00000000000E+00 -0.00000000000E+00  0.11368683772E-12  0.17120000000E+03  0.17120000000E+03 0.  0.
         13    1    1    2    0    0 -0.93623744830E+01 -0.92738367861E+01  0.34833024159E+02  0.37242567591E+02  0.10566000000E+00 0. -1.
        994    1    1    2    0    0  0.24503170578E+02 -0.11694977646E+01  0.43631681629E+01  0.17300361363E+03  0.17120000000E+03 0.  0.
        998    1    1    2    0    0 -0.15140796095E+02  0.10443334551E+02  0.14608038040E+04  0.14609538188E+04  0.10000000000E+02 0. -1.
</event>
<event>
 5    1  0.1141915E-008  0.3797208E+03  0.7957747E-01  0.3452375E+00
         13   -1    0    0    0    0  0.00000000000E+00  0.00000000000E+00  0.14999999963E+04  0.15000000000E+04  0.10566000000E+00 0. -1.
        994   -1    0    0    0    0 -0.00000000000E+00 -0.00000000000E+00  0.11368683772E-12  0.17120000000E+03  0.17120000000E+03 0.  0.
         13    1    1    2    0    0 -0.11498077581E+02 -0.40890803104E+02  0.23145483319E+03  0.23532023826E+03  0.10566000000E+00 0. -1.
        994    1    1    2    0    0 -0.32687509818E+02  0.24238469196E+02  0.98350388337E+01  0.17624455928E+03  0.17120000000E+03 0.  0.
        998    1    1    2    0    0  0.44185587400E+02  0.16652333908E+02  0.12587101243E+04  0.12596352025E+04  0.10000000000E+02 0. -1.
</event>
<event>
 5    1  0.1141915E-008  0.3841394E+03  0.7957747E-01  0.3433330E+00
         13   -1    0    0    0    0  0.00000000000E+00  0.00000000000E+00  0.14999999963E+04  0.15000000000E+04  0.10566000000E+00 0. -1.
        994   -1    0    0    0    0 -0.00000000000E+00 -0.00000000000E+00  0.11368683772E-12  0.17120000000E+03  0.17120000000E+03 0.  0.
         13    1    1    2    0    0 -0.18131438685E+02  0.55009195202E+01  0.80711465761E+02  0.82905735952E+02  0.10566000000E+00 0. -1.
        994    1    1    2    0    0  0.23387989724E+02 -0.50870035273E+01  0.39495493693E+01  0.17291013449E+03  0.17120000000E+03 0.  0.
        998    1    1    2    0    0 -0.52565510391E+01 -0.41391599289E+00  0.14153389811E+04  0.14153841296E+04  0.10000000000E+02 0. -1.
</event>
<event>
 5    1  0.1141915E-008  0.3855182E+03  0.7957747E-01  0.3427477E+00
         13   -1    0    0    0    0  0.00000000000E+00  0.00000000000E+00  0.14999999963E+04  0.15000000000E+04  0.10566000000E+00 0.  1.
        994   -1    0    0    0    0 -0.00000000000E+00 -0.00000000000E+00  0.11368683772E-12  0.17120000000E+03  0.17120000000E+03 0.  0.
         13    1    1    2    0    0  0.11633619244E+02 -0.16827541525E+01  0.51985969182E+02  0.53298451329E+02  0.10566000000E+00 0.  1.
        994    1    1    2    0    0 -0.43959947427E+01 -0.64776835942E+01  0.15742954298E+01  0.17138612418E+03  0.17120000000E+03 0.  0.
        998    1    1    2    0    0 -0.72376245010E+01  0.81604377467E+01  0.14464397317E+04  0.14465154245E+04  0.10000000000E+02 0.  1.
</event>
<event>
 5    1  0.1141915E-008  0.3830469E+03  0.7957747E-01  0.3437998E+00
         13   -1    0    0    0    0  0.00000000000E+00  0.00000000000E+00  0.14999999963E+04  0.15000000000E+04  0.10566000000E+00 0.  1.
        994   -1    0    0    0    0 -0.00000000000E+00 -0.00000000000E+00  0.11368683772E-12  0.17120000000E+03  0.17120000000E+03 0.  0.
         13    1    1    2    0    0 -0.16764223076E+02 -0.74289711042E+01  0.65002876843E+02  0.67539721268E+02  0.10566000000E+00 0.  1.
        994    1    1    2    0    0  0.90737662370E+01  0.11387002868E+00  0.28755250378E+01  0.17146444192E+03  0.17120000000E+03 0.  0.
        998    1    1    2    0    0  0.76904568392E+01  0.73151010755E+01  0.14321215944E+04  0.14321958368E+04  0.10000000000E+02 0.  1.
</event>
<event>
 5    1  0.1141915E-008  0.3797722E+03  0.7957747E-01  0.3452151E+00
         13   -1    0    0    0    0  0.00000000000E+00  0.00000000000E+00  0.14999999963E+04  0.15000000000E+04  0.10566000000E+00 0.  1.
        994   -1    0    0    0    0 -0.00000000000E+00 -0.00000000000E+00  0.11368683772E-12  0.17120000000E+03  0.17120000000E+03 0.  0.
         13    1    1    2    0    0 -0.99232632569E+01  0.43834700171E+01  0.13267783272E+02  0.17138588041E+02  0.10566000000E+00 0.  1.
        994    1    1    2    0    0 -0.69071995208E+01  0.79890580882E+02  0.26069179441E+02  0.19083829918E+03  0.17120000000E+03 0.  0.
        998    1    1    2    0    0  0.16830462778E+02 -0.84274050899E+02  0.14606630336E+04  0.14632231128E+04  0.10000000000E+02 0.  1.
</event>
<event>
 5    1  0.1141915E-008  0.3851097E+03  0.7957747E-01  0.3429207E+00
         13   -1    0    0    0    0  0.00000000000E+00  0.00000000000E+00  0.14999999963E+04  0.15000000000E+04  0.10566000000E+00 0. -1.
        994   -1    0    0    0    0 -0.00000000000E+00 -0.00000000000E+00  0.11368683772E-12  0.17120000000E+03  0.17120000000E+03 0.  0.
         13    1    1    2    0    0  0.13192513455E+02  0.93934515449E+01  0.86671222160E+02  0.88171374367E+02  0.10566000000E+00 0. -1.
        994    1    1    2    0    0 -0.14634987979E+01 -0.71006934189E+01  0.17485198355E+01  0.17136236167E+03  0.17120000000E+03 0.  0.
        998    1    1    2    0    0 -0.11729014657E+02 -0.22927581259E+01  0.14115802543E+04  0.14116662640E+04  0.10000000000E+02 0. -1.
</event>
<event>
 5    1  0.1141915E-008  0.3847191E+03  0.7957747E-01  0.3430864E+00
         13   -1    0    0    0    0  0.00000000000E+00  0.00000000000E+00  0.14999999963E+04  0.15000000000E+04  0.10566000000E+00 0. -1.
        994   -1    0    0    0    0 -0.00000000000E+00 -0.00000000000E+00  0.11368683772E-12  0.17120000000E+03  0.17120000000E+03 0.  0.
         13    1    1    2    0    0 -0.14903841853E+03  0.14706722223E+02  0.48428267484E+03  0.50691070041E+03  0.10566000000E+00 0. -1.
        994    1    1    2    0    0  0.12329951630E+03  0.36572339980E+02  0.82833261383E+02  0.22958897178E+03  0.17120000000E+03 0.  0.
        998    1    1    2    0    0  0.25738902229E+02 -0.51279062203E+02  0.93288406005E+03  0.93470032781E+03  0.10000000000E+02 0. -1.
</event>
<event>
 5    1  0.1141915E-008  0.3861595E+03  0.7957747E-01  0.3424769E+00
         13   -1    0    0    0    0  0.00000000000E+00  0.00000000000E+00  0.14999999963E+04  0.15000000000E+04  0.10566000000E+00 0.  1.
        994   -1    0    0    0    0 -0.00000000000E+00 -0.00000000000E+00  0.11368683772E-12  0.17120000000E+03  0.17120000000E+03 0.  0.
         13    1    1    2    0    0  0.18213865147E+01  0.11874023205E+02  0.69083204528E+02  0.70119969964E+02  0.10566000000E+00 0.  1.
        994    1    1    2    0    0  0.10814859812E+02 -0.10461179066E+02  0.17976454466E+01  0.17186933697E+03  0.17120000000E+03 0.  0.
        998    1    1    2    0    0 -0.12636246327E+02 -0.14128441399E+01  0.14291191463E+04  0.14292106931E+04  0.10000000000E+02 0.  1.
</event>
<event>
 5    1  0.1141915E-008  0.3721076E+03  0.7957747E-01  0.3486261E+00
         13   -1    0    0    0    0  0.00000000000E+00  0.00000000000E+00  0.14999999963E+04  0.15000000000E+04  0.10566000000E+00 0. -1.
        994   -1    0    0    0    0 -0.00000000000E+00 -0.00000000000E+00  0.11368683772E-12  0.17120000000E+03  0.17120000000E+03 0.  0.
         13    1    1    2    0    0 -0.98206588439E+01 -0.54989340564E+02  0.21278997201E+03  0.21999967334E+03  0.10566000000E+00 0. -1.
        994    1    1    2    0    0 -0.11881707000E+01  0.11781761712E+02  0.86530739544E+01  0.17182705651E+03  0.17120000000E+03 0.  0.
        998    1    1    2    0    0  0.11008829544E+02  0.43207578853E+02  0.12785569503E+04  0.12793732702E+04  0.10000000000E+02 0.  1.
</event>
<event>
 5    1  0.1141915E-008  0.3861346E+03  0.7957747E-01  0.3424874E+00
         13   -1    0    0    0    0  0.00000000000E+00  0.00000000000E+00  0.14999999963E+04  0.15000000000E+04  0.10566000000E+00 0. -1.
        994   -1    0    0    0    0 -0.00000000000E+00 -0.00000000000E+00  0.11368683772E-12  0.17120000000E+03  0.17120000000E+03 0.  0.
         13    1    1    2    0    0 -0.12543226043E+02 -0.18843359410E+01  0.75500264022E+02  0.76558371671E+02  0.10566000000E+00 0. -1.
        994    1    1    2    0    0  0.13727662299E+02 -0.20048424602E+02  0.30047329872E+01  0.17294177188E+03  0.17120000000E+03 0.  0.
        998    1    1    2    0    0 -0.11844362563E+01  0.21932760543E+02  0.14214949993E+04  0.14216998564E+04  0.10000000000E+02 0. -1.
</event>
<event>
 5    1  0.1141915E-008  0.3813186E+03  0.7957747E-01  0.3445437E+00
         13   -1    0    0    0    0  0.00000000000E+00  0.00000000000E+00  0.14999999963E+04  0.15000000000E+04  0.10566000000E+00 0. -1.
        994   -1    0    0    0    0 -0.00000000000E+00 -0.00000000000E+00  0.11368683772E-12  0.17120000000E+03  0.17120000000E+03 0.  0.
         13    1    1    2    0    0  0.10455039505E+02 -0.27978769506E+01  0.15253217748E+02  0.18703148991E+02  0.10566000000E+00 0. -1.
        994    1    1    2    0    0 -0.10055307224E+02  0.93976382563E+01  0.40997171185E+01  0.17180125869E+03  0.17120000000E+03 0.  0.
        998    1    1    2    0    0 -0.39973228077E+00 -0.65997613057E+01  0.14806470614E+04  0.14806955923E+04  0.10000000000E+02 0. -1.
</event>
<event>
 5    1  0.1141915E-008  0.3134465E+03  0.7957747E-01  0.3804466E+00
         13   -1    0    0    0    0  0.00000000000E+00  0.00000000000E+00  0.14999999963E+04  0.15000000000E+04  0.10566000000E+00 0.  1.
        994   -1    0    0    0    0 -0.00000000000E+00 -0.00000000000E+00  0.11368683772E-12  0.17120000000E+03  0.17120000000E+03 0.  0.
         13    1    1    2    0    0 -0.14912047667E+03 -0.15444758879E+03  0.84724788681E+03  0.87402515245E+03  0.10566000000E+00 0.  1.
        994    1    1    2    0    0  0.94009422621E+02  0.90623133748E+02  0.99057657277E+02  0.23700671589E+03  0.17120000000E+03 0.  0.
        998    1    1    2    0    0  0.55111054046E+02  0.63824455047E+02  0.55369445220E+03  0.56016813166E+03  0.10000000000E+02 0.  1.
</event>
<event>
 5    1  0.1141915E-008  0.3252873E+03  0.7957747E-01  0.3730542E+00
         13   -1    0    0    0    0  0.00000000000E+00  0.00000000000E+00  0.14999999963E+04  0.15000000000E+04  0.10566000000E+00 0. -1.
        994   -1    0    0    0    0 -0.00000000000E+00 -0.00000000000E+00  0.11368683772E-12  0.17120000000E+03  0.17120000000E+03 0.  0.
         13    1    1    2    0    0 -0.16313401785E+03 -0.22092760882E+03  0.38149883719E+03  0.47006711229E+03  0.10566000000E+00 0. -1.
        994    1    1    2    0    0  0.11357020420E+03  0.25085833278E+03  0.62460067590E+03  0.70374962788E+03  0.17120000000E+03 0.  0.
        998    1    1    2    0    0  0.49563813656E+02 -0.29930723965E+02  0.49390048319E+03  0.49738325983E+03  0.10000000000E+02 0.  0.
</event>
<event>
 5    1  0.1141915E-008  0.3854180E+03  0.7957747E-01  0.3427901E+00
         13   -1    0    0    0    0  0.00000000000E+00  0.00000000000E+00  0.14999999963E+04  0.15000000000E+04  0.10566000000E+00 0.  1.
        994   -1    0    0    0    0 -0.00000000000E+00 -0.00000000000E+00  0.11368683772E-12  0.17120000000E+03  0.17120000000E+03 0.  0.
         13    1    1    2    0    0  0.12065845918E+02  0.82182186403E+01  0.85446021024E+02  0.86684239792E+02  0.10566000000E+00 0.  1.
        994    1    1    2    0    0  0.12443527461E+02 -0.72368596996E+01  0.21035729575E+01  0.17181699140E+03  0.17120000000E+03 0.  0.
        998    1    1    2    0    0 -0.24509373379E+02 -0.98135894073E+00  0.14124504023E+04  0.14126987688E+04  0.10000000000E+02 0.  1.
</event>
<event>
 5    1  0.1141915E-008  0.3770666E+03  0.7957747E-01  0.3464032E+00
         13   -1    0    0    0    0  0.00000000000E+00  0.00000000000E+00  0.14999999963E+04  0.15000000000E+04  0.10566000000E+00 0.  1.
        994   -1    0    0    0    0 -0.00000000000E+00 -0.00000000000E+00  0.11368683772E-12  0.17120000000E+03  0.17120000000E+03 0.  0.
         13    1    1    2    0    0  0.39106288650E+01 -0.14219845658E+02  0.14490487371E+02  0.20675647921E+02  0.10566000000E+00 0.  1.
        994    1    1    2    0    0 -0.59457871588E+01  0.72610317510E+02  0.23753195902E+02  0.18756669456E+03  0.17120000000E+03 0.  0.
        998    1    1    2    0    0  0.20351582938E+01 -0.58390471852E+02  0.14617563130E+04  0.14629576575E+04  0.10000000000E+02 0.  1.
</event>
<event>
 5    1  0.1141915E-008  0.3780876E+03  0.7957747E-01  0.3459528E+00
         13   -1    0    0    0    0  0.00000000000E+00  0.00000000000E+00  0.14999999963E+04  0.15000000000E+04  0.10566000000E+00 0. -1.
        994   -1    0    0    0    0 -0.00000000000E+00 -0.00000000000E+00  0.11368683772E-12  0.17120000000E+03  0.17120000000E+03 0.  0.
         13    1    1    2    0    0  0.11748515650E+03 -0.46657236132E+02  0.54265926636E+03  0.55718825383E+03  0.10566000000E+00 0. -1.
        994    1    1    2    0    0 -0.14857119976E+03  0.92586949692E+02  0.11627977106E+03  0.27106488118E+03  0.17120000000E+03 0.  0.
        998    1    1    2    0    0  0.31086043254E+02 -0.45929713559E+02  0.84106095886E+03  0.84294686499E+03  0.10000000000E+02 0. -1.
</event>
<event>
 5    1  0.1141915E-008  0.3795994E+03  0.7957747E-01  0.3452905E+00
         13   -1    0    0    0    0  0.00000000000E+00  0.00000000000E+00  0.14999999963E+04  0.15000000000E+04  0.10566000000E+00 0.  1.
        994   -1    0    0    0    0 -0.00000000000E+00 -0.00000000000E+00  0.11368683772E-12  0.17120000000E+03  0.17120000000E+03 0.  0.
         13    1    1    2    0    0  0.11961383963E+02 -0.47599930065E+01  0.17183938036E+02  0.21471635480E+02  0.10566000000E+00 0.  1.
        994    1    1    2    0    0 -0.97441367611E+01  0.54451834040E+01  0.47526708414E+01  0.17162932763E+03  0.17120000000E+03 0.  0.
        998    1    1    2    0    0 -0.22172472017E+01 -0.68519039748E+00  0.14780633874E+04  0.14780990369E+04  0.10000000000E+02 0.  1.
</event>
<event>
 5    1  0.1141915E-008  0.3785993E+03  0.7957747E-01  0.3457280E+00
         13   -1    0    0    0    0  0.00000000000E+00  0.00000000000E+00  0.14999999963E+04  0.15000000000E+04  0.10566000000E+00 0. -1.
        994   -1    0    0    0    0 -0.00000000000E+00 -0.00000000000E+00  0.11368683772E-12  0.17120000000E+03  0.17120000000E+03 0.  0.
         13    1    1    2    0    0  0.12099835274E+02 -0.13950031953E+02  0.32287725427E+02  0.37195668866E+02  0.10566000000E+00 0. -1.
        994    1    1    2    0    0  0.11902016432E+01  0.30695191857E+02  0.80174559651E+01  0.17411872669E+03  0.17120000000E+03 0.  0.
        998    1    1    2    0    0 -0.13290036917E+02 -0.16745159904E+02  0.14596948149E+04  0.14598856044E+04  0.10000000000E+02 0. -1.
</event>
<event>
 5    1  0.1141915E-008  0.3843188E+03  0.7957747E-01  0.3432567E+00
         13   -1    0    0    0    0  0.00000000000E+00  0.00000000000E+00  0.14999999963E+04  0.15000000000E+04  0.10566000000E+00 0.  1.
        994   -1    0    0    0    0 -0.00000000000E+00 -0.00000000000E+00  0.11368683772E-12  0.17120000000E+03  0.17120000000E+03 0.  0.
         13    1    1    2    0    0 -0.64767594790E+01  0.21411052286E+02  0.12468612492E+03  0.12667684273E+03  0.10566000000E+00 0.  1.
        994    1    1    2    0    0  0.38688556850E+01 -0.15412865968E+02  0.28014801047E+01  0.17195875311E+03  0.17120000000E+03 0.  0.
        998    1    1    2    0    0  0.26079037940E+01 -0.59981863180E+01  0.13725123913E+04  0.13725644042E+04  0.10000000000E+02 0.  1.
</event>
<event>
 5    1  0.1141915E-008  0.3789250E+03  0.7957747E-01  0.3455853E+00
         13   -1    0    0    0    0  0.00000000000E+00  0.00000000000E+00  0.14999999963E+04  0.15000000000E+04  0.10566000000E+00 0.  1.
        994   -1    0    0    0    0 -0.00000000000E+00 -0.00000000000E+00  0.11368683772E-12  0.17120000000E+03  0.17120000000E+03 0.  0.
         13    1    1    2    0    0 -0.16646236130E+02  0.23092798360E+01  0.28276143307E+02  0.32893485602E+02  0.10566000000E+00 0.  1.
        994    1    1    2    0    0  0.11380563247E+02 -0.33068813139E+01  0.51481360025E+01  0.17168691269E+03  0.17120000000E+03 0.  0.
        998    1    1    2    0    0  0.52656728835E+01  0.99760147797E+00  0.14665757170E+04  0.14666196017E+04  0.10000000000E+02 0.  1.
</event>
<event>
 5    1  0.1141915E-008  0.3847976E+03  0.7957747E-01  0.3430531E+00
         13   -1    0    0    0    0  0.00000000000E+00  0.00000000000E+00  0.14999999963E+04  0.15000000000E+04  0.10566000000E+00 0. -1.
        994   -1    0    0    0    0 -0.00000000000E+00 -0.00000000000E+00  0.11368683772E-12  0.17120000000E+03  0.17120000000E+03 0.  0.
         13    1    1    2    0    0  0.75868362363E+01 -0.12732232124E+02  0.64314265436E+02  0.66000043345E+02  0.10566000000E+00 0. -1.
        994    1    1    2    0    0 -0.68310341503E+01  0.45029999485E+01  0.19509571322E+01  0.17140649425E+03  0.17120000000E+03 0.  0.
        998    1    1    2    0    0 -0.75580208606E+00  0.82292321757E+01  0.14337347737E+04  0.14337934624E+04  0.10000000000E+02 0. -1.
</event>
<event>
 5    1  0.1141915E-008  0.3834405E+03  0.7957747E-01  0.3436313E+00
         13   -1    0    0    0    0  0.00000000000E+00  0.00000000000E+00  0.14999999963E+04  0.15000000000E+04  0.10566000000E+00 0. -1.
        994   -1    0    0    0    0 -0.00000000000E+00 -0.00000000000E+00  0.11368683772E-12  0.17120000000E+03  0.17120000000E+03 0.  0.
         13    1    1    2    0    0 -0.99108534354E+01  0.67846723636E+01  0.29229273024E+02  0.31600923412E+02  0.10566000000E+00 0. -1.
        994    1    1    2    0    0  0.71345427258E+01 -0.37496031857E+01  0.26211247363E+01  0.17140965993E+03  0.17120000000E+03 0.  0.
        998    1    1    2    0    0  0.27763107096E+01 -0.30350691779E+01  0.14681495985E+04  0.14681894167E+04  0.10000000000E+02 0. -1.
</event>
<event>
 5    1  0.1141915E-008  0.3772724E+03  0.7957747E-01  0.3463122E+00
         13   -1    0    0    0    0  0.00000000000E+00  0.00000000000E+00  0.14999999963E+04  0.15000000000E+04  0.10566000000E+00 0.  1.
        994   -1    0    0    0    0 -0.00000000000E+00 -0.00000000000E+00  0.11368683772E-12  0.17120000000E+03  0.17120000000E+03 0.  0.
         13    1    1    2    0    0  0.16136102022E+01 -0.13933073404E+02 -0.20229331652E+00  0.14028056137E+02  0.10566000000E+00 0.  1.
        994    1    1    2    0    0  0.16652634500E+00  0.13762054974E+02  0.15516940113E+02  0.17245184058E+03  0.17120000000E+03 0.  0.
        998    1    1    2    0    0 -0.17801365472E+01  0.17101843023E+00  0.14846853495E+04  0.14847201033E+04  0.10000000000E+02 0.  1.
</event>
<event>
 5    1  0.1141915E-008  0.3712639E+03  0.7957747E-01  0.3490102E+00
         13   -1    0    0    0    0  0.00000000000E+00  0.00000000000E+00  0.14999999963E+04  0.15000000000E+04  0.10566000000E+00 0.  1.
        994   -1    0    0    0    0 -0.00000000000E+00 -0.00000000000E+00  0.11368683772E-12  0.17120000000E+03  0.17120000000E+03 0.  0.
         13    1    1    2    0    0  0.35210701120E+02  0.23708618294E+02  0.98353324935E+02  0.10712273216E+03  0.10566000000E+00 0.  1.
        994    1    1    2    0    0 -0.28002395516E+02 -0.20994815123E+02  0.12838593977E+02  0.17521183154E+03  0.17120000000E+03 0.  0.
        998    1    1    2    0    0 -0.72083056033E+01 -0.27138031709E+01  0.13888080774E+04  0.13888654363E+04  0.10000000000E+02 0.  1.
</event>
<event>
 5    1  0.1141915E-008  0.3830186E+03  0.7957747E-01  0.3438119E+00
         13   -1    0    0    0    0  0.00000000000E+00  0.00000000000E+00  0.14999999963E+04  0.15000000000E+04  0.10566000000E+00 0.  1.
        994   -1    0    0    0    0 -0.00000000000E+00 -0.00000000000E+00  0.11368683772E-12  0.17120000000E+03  0.17120000000E+03 0.  0.
         13    1    1    2    0    0  0.89257060622E+01 -0.21083177557E+02  0.10191888152E+03  0.10445878699E+03  0.10566000000E+00 0.  1.
        994    1    1    2    0    0 -0.39344333010E+01  0.94877543857E+01  0.29663387756E+01  0.17153348482E+03  0.17120000000E+03 0.  0.
        998    1    1    2    0    0 -0.49912727612E+01  0.11595423172E+02  0.13951147760E+04  0.13952077282E+04  0.10000000000E+02 0.  1.
</event>
<event>
 5    1  0.1141915E-008  0.3767044E+03  0.7957747E-01  0.3465635E+00
         13   -1    0    0    0    0  0.00000000000E+00  0.00000000000E+00  0.14999999963E+04  0.15000000000E+04  0.10566000000E+00 0.  1.
        994   -1    0    0    0    0 -0.00000000000E+00 -0.00000000000E+00  0.11368683772E-12  0.17120000000E+03  0.17120000000E+03 0.  0.
         13    1    1    2    0    0  0.32496140410E+02  0.78354632157E+01  0.11166388809E+03  0.11655997895E+03  0.10566000000E+00 0.  1.
        994    1    1    2    0    0  0.23119803855E+02 -0.35890354746E+02  0.11991113937E+02  0.17684985074E+03  0.17120000000E+03 0.  0.
        998    1    1    2    0    0 -0.55615944265E+02  0.28054891530E+02  0.13763449942E+04  0.13777901703E+04  0.10000000000E+02 0.  1.
</event>
<event>
 5    1  0.1141915E-008  0.4045829E+03  0.7957747E-01  0.3350640E+00
         13   -1    0    0    0    0  0.00000000000E+00  0.00000000000E+00  0.14999999963E+04  0.15000000000E+04  0.10566000000E+00 0. -1.
        994   -1    0    0    0    0 -0.00000000000E+00 -0.00000000000E+00  0.11368683772E-12  0.17120000000E+03  0.17120000000E+03 0.  0.
         13    1    1    2    0    0 -0.41055461203E+02  0.12340425428E+03  0.23110950826E+03  0.26519007681E+03  0.10566000000E+00 0. -1.
        994    1    1    2    0    0  0.49430988522E+02 -0.11141160578E+03  0.92711144173E+02  0.22969711531E+03  0.17120000000E+03 0.  0.
        998    1    1    2    0    0 -0.83755273188E+01 -0.11992648506E+02  0.11761793439E+04  0.11763128079E+04  0.10000000000E+02 0. -1.
</event>
<event>
 5    1  0.1141915E-008  0.4087969E+03  0.7957747E-01  0.3334619E+00
         13   -1    0    0    0    0  0.00000000000E+00  0.00000000000E+00  0.14999999963E+04  0.15000000000E+04  0.10566000000E+00 0.  1.
        994   -1    0    0    0    0 -0.00000000000E+00 -0.00000000000E+00  0.11368683772E-12  0.17120000000E+03  0.17120000000E+03 0.  0.
         13    1    1    2    0    0  0.27800245363E+02  0.10413468672E+03  0.14636382013E+03  0.18176706420E+03  0.10566000000E+00 0.  1.
        994    1    1    2    0    0 -0.26413784871E+02 -0.10932858908E+03  0.86680050694E+02  0.22242594185E+03  0.17120000000E+03 0.  0.
        998    1    1    2    0    0 -0.13864604917E+01  0.51939023622E+01  0.12669561255E+04  0.12670069939E+04  0.10000000000E+02 0.  1.
</event>
<event>
 5    1  0.1141915E-008  0.3827841E+03  0.7957747E-01  0.3439125E+00
         13   -1    0    0    0    0  0.00000000000E+00  0.00000000000E+00  0.14999999963E+04  0.15000000000E+04  0.10566000000E+00 0.  1.
        994   -1    0    0    0    0 -0.00000000000E+00 -0.00000000000E+00  0.11368683772E-12  0.17120000000E+03  0.17120000000E+03 0.  0.
         13    1    1    2    0    0 -0.20830840321E+02  0.77700067610E+01  0.87806097593E+02  0.90577143100E+02  0.10566000000E+00 0.  1.
        994    1    1    2    0    0  0.15357895996E+02 -0.85522081529E+01  0.37585312464E+01  0.17214113916E+03  0.17120000000E+03 0.  0.
        998    1    1    2    0    0  0.54729443253E+01  0.78220139184E+00  0.14084353674E+04  0.14084817177E+04  0.10000000000E+02 0.  1.
</event>
<event>
 5    1  0.1141915E-008  0.3763880E+03  0.7957747E-01  0.3467038E+00
         13   -1    0    0    0    0  0.00000000000E+00  0.00000000000E+00  0.14999999963E+04  0.15000000000E+04  0.10566000000E+00 0. -1.
        994   -1    0    0    0    0 -0.00000000000E+00 -0.00000000000E+00  0.11368683772E-12  0.17120000000E+03  0.17120000000E+03 0.  0.
         13    1    1    2    0    0  0.15077208223E+02 -0.59345372103E+02  0.28715612497E+03  0.29361172774E+03  0.10566000000E+00 0. -1.
        994    1    1    2    0    0 -0.98560403178E+01  0.44808712674E+02  0.13122928434E+02  0.17772623192E+03  0.17120000000E+03 0.  0.
        998    1    1    2    0    0 -0.52211679048E+01  0.14536659429E+02  0.11997209429E+04  0.11998620403E+04  0.10000000000E+02 0. -1.
</event>
<event>
 5    1  0.1141915E-008  0.3832931E+03  0.7957747E-01  0.3436944E+00
         13   -1    0    0    0    0  0.00000000000E+00  0.00000000000E+00  0.14999999963E+04  0.15000000000E+04  0.10566000000E+00 0. -1.
        994   -1    0    0    0    0 -0.00000000000E+00 -0.00000000000E+00  0.11368683772E-12  0.17120000000E+03  0.17120000000E+03 0.  0.
         13    1    1    2    0    0  0.13531236290E+02 -0.27784297838E+02  0.18094882268E+03  0.18356892208E+03  0.10566000000E+00 0. -1.
        994    1    1    2    0    0 -0.68614109221E+01  0.24373660679E+02  0.46030853434E+01  0.17312360523E+03  0.17120000000E+03 0.  0.
        998    1    1    2    0    0 -0.66698253678E+01  0.34106371590E+01  0.13144480883E+04  0.13145074727E+04  0.10000000000E+02 0. -1.
</event>
<event>
 5    1  0.1141915E-008  0.3744811E+03  0.7957747E-01  0.3475547E+00
         13   -1    0    0    0    0  0.00000000000E+00  0.00000000000E+00  0.14999999963E+04  0.15000000000E+04  0.10566000000E+00 0. -1.
        994   -1    0    0    0    0 -0.00000000000E+00 -0.00000000000E+00  0.11368683772E-12  0.17120000000E+03  0.17120000000E+03 0.  0.
         13    1    1    2    0    0 -0.19381222173E+02 -0.76369047189E+02  0.35397767521E+03  0.36264041260E+03  0.10566000000E+00 0. -1.
        994    1    1    2    0    0  0.73961712533E+01 -0.21519119256E+02  0.15169290981E+02  0.17337047970E+03  0.17120000000E+03 0.  0.
        998    1    1    2    0    0  0.11985050919E+02  0.97888166445E+02  0.11308530301E+04  0.11351891077E+04  0.10000000000E+02 0. -1.
</event>
<event>
 5    1  0.1141915E-008  0.3739360E+03  0.7957747E-01  0.3477995E+00
         13   -1    0    0    0    0  0.00000000000E+00  0.00000000000E+00  0.14999999963E+04  0.15000000000E+04  0.10566000000E+00 0.  1.
        994   -1    0    0    0    0 -0.00000000000E+00 -0.00000000000E+00  0.11368683772E-12  0.17120000000E+03  0.17120000000E+03 0.  0.
         13    1    1    2    0    0 -0.76545403184E+02  0.27809913683E+01  0.34340554914E+03  0.35184416295E+03  0.10566000000E+00 0.  1.
        994    1    1    2    0    0  0.64430148927E+02 -0.65593306799E+01  0.21672360440E+02  0.18431874597E+03  0.17120000000E+03 0.  0.
        998    1    1    2    0    0  0.12115254257E+02  0.37783393117E+01  0.11349220867E+04  0.11350370911E+04  0.10000000000E+02 0.  1.
</event>
<event>
 5    1  0.1141915E-008  0.3835286E+03  0.7957747E-01  0.3435937E+00
         13   -1    0    0    0    0  0.00000000000E+00  0.00000000000E+00  0.14999999963E+04  0.15000000000E+04  0.10566000000E+00 0. -1.
        994   -1    0    0    0    0 -0.00000000000E+00 -0.00000000000E+00  0.11368683772E-12  0.17120000000E+03  0.17120000000E+03 0.  0.
         13    1    1    2    0    0 -0.18902466762E+02 -0.70093414691E+01  0.93507086979E+02  0.95655740010E+02  0.10566000000E+00 0. -1.
        994    1    1    2    0    0  0.68434565227E+01 -0.20245484768E+02  0.38730584808E+01  0.17257216790E+03  0.17120000000E+03 0.  0.
        998    1    1    2    0    0  0.12059010239E+02  0.27254826237E+02  0.14026198508E+04  0.14029720921E+04  0.10000000000E+02 0. -1.
</event>
<event>
 5    1  0.1141915E-008  0.3816991E+03  0.7957747E-01  0.3443793E+00
         13   -1    0    0    0    0  0.00000000000E+00  0.00000000000E+00  0.14999999963E+04  0.15000000000E+04  0.10566000000E+00 0. -1.
        994   -1    0    0    0    0 -0.00000000000E+00 -0.00000000000E+00  0.11368683772E-12  0.17120000000E+03  0.17120000000E+03 0.  0.
         13    1    1    2    0    0  0.13307650026E+01 -0.99632656801E+01  0.13956727958E+02  0.17199971448E+02  0.10566000000E+00 0. -1.
        994    1    1    2    0    0 -0.66663585987E+00  0.94655543665E+01  0.35772810931E+01  0.17150008182E+03  0.17120000000E+03 0.  0.
        998    1    1    2    0    0 -0.66412914270E+00  0.49771131360E+00  0.14824659872E+04  0.14824999467E+04  0.10000000000E+02 0. -1.
</event>
<event>
 5    1  0.1141915E-008  0.3818191E+03  0.7957747E-01  0.3443276E+00
         13   -1    0    0    0    0  0.00000000000E+00  0.00000000000E+00  0.14999999963E+04  0.15000000000E+04  0.10566000000E+00 0.  1.
        994   -1    0    0    0    0 -0.00000000000E+00 -0.00000000000E+00  0.11368683772E-12  0.17120000000E+03  0.17120000000E+03 0.  0.
         13    1    1    2    0    0 -0.22181819054E+02  0.40903747792E+01  0.72644842798E+02  0.76066080559E+02  0.10566000000E+00 0.  1.
        994    1    1    2    0    0  0.28229040644E+02 -0.56657251467E+01  0.59772176197E+01  0.17370707040E+03  0.17120000000E+03 0.  0.
        998    1    1    2    0    0 -0.60472215902E+01  0.15753503675E+01  0.14213779359E+04  0.14214268490E+04  0.10000000000E+02 0.  1.
</event>
<event>
 5    1  0.1141915E-008  0.3802713E+03  0.7957747E-01  0.3449978E+00
         13   -1    0    0    0    0  0.00000000000E+00  0.00000000000E+00  0.14999999963E+04  0.15000000000E+04  0.10566000000E+00 0. -1.
        994   -1    0    0    0    0 -0.00000000000E+00 -0.00000000000E+00  0.11368683772E-12  0.17120000000E+03  0.17120000000E+03 0.  0.
         13    1    1    2    0    0  0.14461532302E+01  0.10027768184E+02  0.10991346168E+02  0.14948857767E+02  0.10566000000E+00 0. -1.
        994    1    1    2    0    0 -0.21925866452E+01 -0.10854263751E+02  0.44059236894E+01  0.17161431945E+03  0.17120000000E+03 0.  0.
        998    1    1    2    0    0  0.74643341494E+00  0.82649556710E+00  0.14846027264E+04  0.14846368228E+04  0.10000000000E+02 0. -1.
</event>
<event>
 5    1  0.1141915E-008  0.3843560E+03  0.7957747E-01  0.3432408E+00
         13   -1    0    0    0    0  0.00000000000E+00  0.00000000000E+00  0.14999999963E+04  0.15000000000E+04  0.10566000000E+00 0.  1.
        994   -1    0    0    0    0 -0.00000000000E+00 -0.00000000000E+00  0.11368683772E-12  0.17120000000E+03  0.17120000000E+03 0.  0.
         13    1    1    2    0    0  0.17291189313E+02 -0.64396983317E+01  0.85959994983E+02  0.87918068928E+02  0.10566000000E+00 0.  1.
        994    1    1    2    0    0 -0.15160956730E+02 -0.15089167299E+01  0.27155554625E+01  0.17189806770E+03  0.17120000000E+03 0.  0.
        998    1    1    2    0    0 -0.21302325833E+01  0.79486150616E+01  0.14113244458E+04  0.14113838634E+04  0.10000000000E+02 0.  1.
</event>
<event>
 5    1  0.1141915E-008  0.3825718E+03  0.7957747E-01  0.3440036E+00
         13   -1    0    0    0    0  0.00000000000E+00  0.00000000000E+00  0.14999999963E+04  0.15000000000E+04  0.10566000000E+00 0. -1.
        994   -1    0    0    0    0 -0.00000000000E+00 -0.00000000000E+00  0.11368683772E-12  0.17120000000E+03  0.17120000000E+03 0.  0.
         13    1    1    2    0    0  0.68341164016E+01  0.76202985159E+01  0.16991528894E+02  0.19836766739E+02  0.10566000000E+00 0. -1.
        994    1    1    2    0    0 -0.10344355239E+02 -0.95858024016E+01  0.35000495440E+01  0.17181555122E+03  0.17120000000E+03 0.  0.
        998    1    1    2    0    0  0.35102388370E+01  0.19655038857E+01  0.14795084178E+04  0.14795476820E+04  0.10000000000E+02 0. -1.
</event>
<event>
 5    1  0.1141915E-008  0.3809239E+03  0.7957747E-01  0.3447146E+00
         13   -1    0    0    0    0  0.00000000000E+00  0.00000000000E+00  0.14999999963E+04  0.15000000000E+04  0.10566000000E+00 0. -1.
        994   -1    0    0    0    0 -0.00000000000E+00 -0.00000000000E+00  0.11368683772E-12  0.17120000000E+03  0.17120000000E+03 0.  0.
         13    1    1    2    0    0 -0.17608067917E+02  0.48767925886E+01  0.43594525567E+02  0.47268604646E+02  0.10566000000E+00 0. -1.
        994    1    1    2    0    0  0.14414520390E+02 -0.62882398731E+01  0.44921861883E+01  0.17197947580E+03  0.17120000000E+03 0.  0.
        998    1    1    2    0    0  0.31935475271E+01  0.14114472845E+01  0.14519132845E+04  0.14519519196E+04  0.10000000000E+02 0. -1.
</event>
<event>
 5    1  0.1141915E-008  0.3828907E+03  0.7957747E-01  0.3438667E+00
         13   -1    0    0    0    0  0.00000000000E+00  0.00000000000E+00  0.14999999963E+04  0.15000000000E+04  0.10566000000E+00 0.  1.
        994   -1    0    0    0    0 -0.00000000000E+00 -0.00000000000E+00  0.11368683772E-12  0.17120000000E+03  0.17120000000E+03 0.  0.
         13    1    1    2    0    0  0.22578466393E+02 -0.63867894143E+01  0.13052533601E+03  0.13261769387E+03  0.10566000000E+00 0.  1.
        994    1    1    2    0    0  0.48908319771E+01 -0.42389173669E+02  0.87335858764E+01  0.17665355305E+03  0.17120000000E+03 0.  0.
        998    1    1    2    0    0 -0.27469298370E+02  0.48775963084E+02  0.13607410744E+04  0.13619287531E+04  0.10000000000E+02 0.  1.
</event>
<event>
 5    1  0.1141915E-008  0.3772983E+03  0.7957747E-01  0.3463007E+00
         13   -1    0    0    0    0  0.00000000000E+00  0.00000000000E+00  0.14999999963E+04  0.15000000000E+04  0.10566000000E+00 0. -1.
        994   -1    0    0    0    0 -0.00000000000E+00 -0.00000000000E+00  0.11368683772E-12  0.17120000000E+03  0.17120000000E+03 0.  0.
         13    1    1    2    0    0 -0.15856137936E+02  0.16216329246E+01  0.21062042616E+02  0.26413398244E+02  0.10566000000E+00 0. -1.
        994    1    1    2    0    0  0.56486329694E+01  0.39543331028E+01  0.56635777353E+01  0.17143237710E+03  0.17120000000E+03 0.  0.
        998    1    1    2    0    0  0.10207504966E+02 -0.55759660275E+01  0.14732743759E+04  0.14733542247E+04  0.10000000000E+02 0. -1.
</event>
<event>
 5    1  0.2068064E-008  0.3857370E+03  0.7957747E-01  0.3426552E+00
         13   -1    0    0    0    0  0.00000000000E+00  0.00000000000E+00  0.14999999963E+04  0.15000000000E+04  0.10566000000E+00 0. -1.
        994   -1    0    0    0    0 -0.00000000000E+00 -0.00000000000E+00  0.11368683772E-12  0.17120000000E+03  0.17120000000E+03 0.  0.
         13    1    1    2    0    0  0.45319567879E+01 -0.92131501057E+01  0.41511025064E+02  0.42762099260E+02  0.10566000000E+00 0. -1.
        994    1    1    2    0    0 -0.10832920237E+01  0.93015761563E+01  0.15524217691E+01  0.17146294892E+03  0.17120000000E+03 0.  0.
        998    1    1    2    0    0 -0.34486647642E+01 -0.88426050616E-01  0.14569365494E+04  0.14569749518E+04  0.10000000000E+02 0. -1.
</event>
<event>
 5    1  0.1141915E-008  0.3827079E+03  0.7957747E-01  0.3439452E+00
         13   -1    0    0    0    0  0.00000000000E+00  0.00000000000E+00  0.14999999963E+04  0.15000000000E+04  0.10566000000E+00 0.  1.
        994   -1    0    0    0    0 -0.00000000000E+00 -0.00000000000E+00  0.11368683772E-12  0.17120000000E+03  0.17120000000E+03 0.  0.
         13    1    1    2    0    0 -0.61207795514E+01  0.18591170331E+02  0.64030604752E+02  0.66955396089E+02  0.10566000000E+00 0.  1.
        994    1    1    2    0    0  0.11943113276E+02 -0.23006360857E+02  0.50019096687E+01  0.17322352524E+03  0.17120000000E+03 0.  0.
        998    1    1    2    0    0 -0.58223337242E+01  0.44151905266E+01  0.14309674819E+04  0.14310210787E+04  0.10000000000E+02 0.  1.
</event>
<event>
 5    1  0.1141915E-008  0.3751175E+03  0.7957747E-01  0.3472698E+00
         13   -1    0    0    0    0  0.00000000000E+00  0.00000000000E+00  0.14999999963E+04  0.15000000000E+04  0.10566000000E+00 0. -1.
        994   -1    0    0    0    0 -0.00000000000E+00 -0.00000000000E+00  0.11368683772E-12  0.17120000000E+03  0.17120000000E+03 0.  0.
         13    1    1    2    0    0  0.64555086625E+02 -0.71174242364E+02  0.45713448824E+03  0.46712426985E+03  0.10566000000E+00 0. -1.
        994    1    1    2    0    0 -0.51259251884E+02  0.89717734484E+02  0.43808430947E+02  0.20470808828E+03  0.17120000000E+03 0.  0.
        998    1    1    2    0    0 -0.13295834742E+02 -0.18543492120E+02  0.99905707709E+03  0.99936764187E+03  0.10000000000E+02 0. -1.
</event>
<event>
 5    1  0.1141915E-008  0.3825308E+03  0.7957747E-01  0.3440212E+00
         13   -1    0    0    0    0  0.00000000000E+00  0.00000000000E+00  0.14999999963E+04  0.15000000000E+04  0.10566000000E+00 0.  1.
        994   -1    0    0    0    0 -0.00000000000E+00 -0.00000000000E+00  0.11368683772E-12  0.17120000000E+03  0.17120000000E+03 0.  0.
         13    1    1    2    0    0 -0.69930643785E+01  0.18628770657E+02  0.65072512853E+02  0.68046874569E+02  0.10566000000E+00 0.  1.
        994    1    1    2    0    0  0.26989730156E+01 -0.23235945388E+02  0.46771955172E+01  0.17285401289E+03  0.17120000000E+03 0.  0.
        998    1    1    2    0    0  0.42940913629E+01  0.46071747306E+01  0.14302502879E+04  0.14302991125E+04  0.10000000000E+02 0.  1.
</event>
<event>
 5    1  0.1141915E-008  0.3710123E+03  0.7957747E-01  0.3491252E+00
         13   -1    0    0    0    0  0.00000000000E+00  0.00000000000E+00  0.14999999963E+04  0.15000000000E+04  0.10566000000E+00 0.  1.
        994   -1    0    0    0    0 -0.00000000000E+00 -0.00000000000E+00  0.11368683772E-12  0.17120000000E+03  0.17120000000E+03 0.  0.
         13    1    1    2    0    0 -0.13422085490E+02  0.58881133274E+01  0.83525812925E+01  0.16870063299E+02  0.10566000000E+00 0.  1.
        994    1    1    2    0    0  0.95659081119E+01 -0.43703065195E+01  0.91221244807E+01  0.17176512839E+03  0.17120000000E+03 0.  0.
        998    1    1    2    0    0  0.38561773777E+01 -0.15178068079E+01  0.14825252905E+04  0.14825648083E+04  0.10000000000E+02 0.  1.
</event>
<event>
 5    1  0.1141915E-008  0.3768173E+03  0.7957747E-01  0.3465135E+00
         13   -1    0    0    0    0  0.00000000000E+00  0.00000000000E+00  0.14999999963E+04  0.15000000000E+04  0.10566000000E+00 0.  1.
        994   -1    0    0    0    0 -0.00000000000E+00 -0.00000000000E+00  0.11368683772E-12  0.17120000000E+03  0.17120000000E+03 0.  0.
         13    1    1    2    0    0  0.13141635052E+02 -0.25898229090E+02  0.67512452458E+02  0.73493967391E+02  0.10566000000E+00 0.  1.
        994    1    1    2    0    0 -0.15198787107E+02  0.28868795571E+02  0.93529723687E+01  0.17453174089E+03  0.17120000000E+03 0.  0.
        998    1    1    2    0    0  0.20571520543E+01 -0.29705664813E+01  0.14231345715E+04  0.14231742917E+04  0.10000000000E+02 0.  1.
</event>
<event>
 5    1  0.1141915E-008  0.2748895E+03  0.7957747E-01  0.4093380E+00
         13   -1    0    0    0    0  0.00000000000E+00  0.00000000000E+00  0.14999999963E+04  0.15000000000E+04  0.10566000000E+00 0. -1.
        994   -1    0    0    0    0 -0.00000000000E+00 -0.00000000000E+00  0.11368683772E-12  0.17120000000E+03  0.17120000000E+03 0.  0.
         13    1    1    2    0    0 -0.21558985383E+03  0.12311587354E+02  0.36607408319E+03  0.42501859465E+03  0.10566000000E+00 0. -1.
        994    1    1    2    0    0  0.20039823216E+03  0.71614782088E+02  0.29177175878E+03  0.39966026534E+03  0.17120000000E+03 0.  0.
        998    1    1    2    0    0  0.15191621664E+02 -0.83926369443E+02  0.84215415431E+03  0.84652114001E+03  0.10000000000E+02 0.  0.
</event>
<event>
 5    1  0.1141915E-008  0.3756182E+03  0.7957747E-01  0.3470462E+00
         13   -1    0    0    0    0  0.00000000000E+00  0.00000000000E+00  0.14999999963E+04  0.15000000000E+04  0.10566000000E+00 0.  1.
        994   -1    0    0    0    0 -0.00000000000E+00 -0.00000000000E+00  0.11368683772E-12  0.17120000000E+03  0.17120000000E+03 0.  0.
         13    1    1    2    0    0  0.69055539289E+01 -0.60622437343E+02  0.23943805617E+03  0.24708978225E+03  0.10566000000E+00 0.  1.
        994    1    1    2    0    0 -0.77209649377E+01  0.63901371975E+02  0.20547261119E+02  0.18405061418E+03  0.17120000000E+03 0.  0.
        998    1    1    2    0    0  0.81541100876E+00 -0.32789346323E+01  0.12400146790E+04  0.12400596036E+04  0.10000000000E+02 0.  0.
</event>
<event>
 5    1  0.1141915E-008  0.3841214E+03  0.7957747E-01  0.3433407E+00
         13   -1    0    0    0    0  0.00000000000E+00  0.00000000000E+00  0.14999999963E+04  0.15000000000E+04  0.10566000000E+00 0.  1.
        994   -1    0    0    0    0 -0.00000000000E+00 -0.00000000000E+00  0.11368683772E-12  0.17120000000E+03  0.17120000000E+03 0.  0.
         13    1    1    2    0    0 -0.13096570231E+02  0.69345449702E+01  0.52878907029E+02  0.54916282088E+02  0.10566000000E+00 0.  1.
        994    1    1    2    0    0  0.76353291978E+01 -0.52058516161E+01  0.23486521822E+01  0.17146531810E+03  0.17120000000E+03 0.  0.
        998    1    1    2    0    0  0.54612410329E+01 -0.17286933542E+01  0.14447724371E+04  0.14448183998E+04  0.10000000000E+02 0.  1.
</event>
<event>
 5    1  0.1141915E-008  0.3837778E+03  0.7957747E-01  0.3434872E+00
         13   -1    0    0    0    0  0.00000000000E+00  0.00000000000E+00  0.14999999963E+04  0.15000000000E+04  0.10566000000E+00 0.  1.
        994   -1    0    0    0    0 -0.00000000000E+00 -0.00000000000E+00  0.11368683772E-12  0.17120000000E+03  0.17120000000E+03 0.  0.
         13    1    1    2    0    0  0.25454317280E+01  0.14241203015E+02  0.52430283467E+02  0.54389676175E+02  0.10566000000E+00 0.  1.
        994    1    1    2    0    0  0.13053156709E+02  0.13326805724E+02  0.33879691130E+01  0.17224664579E+03  0.17120000000E+03 0.  0.
        998    1    1    2    0    0 -0.15598588437E+02 -0.27568008739E+02  0.14441817437E+04  0.14445636780E+04  0.10000000000E+02 0.  1.
</event>
<event>
 5    1  0.1141915E-008  0.3856025E+03  0.7957747E-01  0.3427121E+00
         13   -1    0    0    0    0  0.00000000000E+00  0.00000000000E+00  0.14999999963E+04  0.15000000000E+04  0.10566000000E+00 0.  1.
        994   -1    0    0    0    0 -0.00000000000E+00 -0.00000000000E+00  0.11368683772E-12  0.17120000000E+03  0.17120000000E+03 0.  0.
         13    1    1    2    0    0 -0.57213823521E+00  0.14254467913E+02  0.69262261922E+02  0.70716259009E+02  0.10566000000E+00 0.  1.
        994    1    1    2    0    0  0.94826573732E+01 -0.23974997482E+02  0.35161165132E+01  0.17316617560E+03  0.17120000000E+03 0.  0.
        998    1    1    2    0    0 -0.89105191380E+01  0.97205295694E+01  0.14272216178E+04  0.14273175654E+04  0.10000000000E+02 0.  1.
</event>
<event>
 5    1  0.1141915E-008  0.3810115E+03  0.7957747E-01  0.3446766E+00
         13   -1    0    0    0    0  0.00000000000E+00  0.00000000000E+00  0.14999999963E+04  0.15000000000E+04  0.10566000000E+00 0. -1.
        994   -1    0    0    0    0 -0.00000000000E+00 -0.00000000000E+00  0.11368683772E-12  0.17120000000E+03  0.17120000000E+03 0.  0.
         13    1    1    2    0    0 -0.27173771883E+02  0.34475035025E+01  0.97863373442E+02  0.10162455503E+03  0.10566000000E+00 0. -1.
        994    1    1    2    0    0  0.29305259506E+02  0.26260007820E+02  0.87995663662E+01  0.17588421934E+03  0.17120000000E+03 0.  0.
        998    1    1    2    0    0 -0.21314876231E+01 -0.29707511323E+02  0.13933370565E+04  0.13936912256E+04  0.10000000000E+02 0. -1.
</event>
<event>
 5    1  0.1141915E-008  0.3778747E+03  0.7957747E-01  0.3460465E+00
         13   -1    0    0    0    0  0.00000000000E+00  0.00000000000E+00  0.14999999963E+04  0.15000000000E+04  0.10566000000E+00 0.  1.
        994   -1    0    0    0    0 -0.00000000000E+00 -0.00000000000E+00  0.11368683772E-12  0.17120000000E+03  0.17120000000E+03 0.  0.
         13    1    1    2    0    0 -0.15150023999E+02 -0.86396674636E+01  0.27377147940E+02  0.32460537186E+02  0.10566000000E+00 0.  1.
        994    1    1    2    0    0  0.15674241656E+02 -0.12390120688E+02  0.65549348372E+01  0.17248653313E+03  0.17120000000E+03 0.  0.
        998    1    1    2    0    0 -0.52421765730E+00  0.21029788152E+02  0.14660679135E+04  0.14662529297E+04  0.10000000000E+02 0.  1.
</event>
<event>
 5    1  0.1141915E-008  0.3808511E+03  0.7957747E-01  0.3447461E+00
         13   -1    0    0    0    0  0.00000000000E+00  0.00000000000E+00  0.14999999963E+04  0.15000000000E+04  0.10566000000E+00 0.  1.
        994   -1    0    0    0    0 -0.00000000000E+00 -0.00000000000E+00  0.11368683772E-12  0.17120000000E+03  0.17120000000E+03 0.  0.
         13    1    1    2    0    0 -0.29768712748E+01 -0.14157076891E+02  0.26307521394E+02  0.30023015082E+02  0.10566000000E+00 0.  1.
        994    1    1    2    0    0  0.36886208502E+01  0.15447843218E+02  0.45454449870E+01  0.17199518265E+03  0.17120000000E+03 0.  0.
        998    1    1    2    0    0 -0.71174957532E+00 -0.12907663265E+01  0.14691470299E+04  0.14691818023E+04  0.10000000000E+02 0.  1.
</event>
<event>
 5    1  0.1141915E-008  0.3858032E+03  0.7957747E-01  0.3426273E+00
         13   -1    0    0    0    0  0.00000000000E+00  0.00000000000E+00  0.14999999963E+04  0.15000000000E+04  0.10566000000E+00 0. -1.
        994   -1    0    0    0    0 -0.00000000000E+00 -0.00000000000E+00  0.11368683772E-12  0.17120000000E+03  0.17120000000E+03 0.  0.
         13    1    1    2    0    0 -0.10857685128E+02 -0.41272548592E+01  0.56215209236E+02  0.57402826346E+02  0.10566000000E+00 0. -1.
        994    1    1    2    0    0  0.67293226569E+01 -0.29642039243E+01  0.14092555720E+01  0.17136363759E+03  0.17120000000E+03 0.  0.
        998    1    1    2    0    0  0.41283624712E+01  0.70914587836E+01  0.14423755315E+04  0.14424335361E+04  0.10000000000E+02 0. -1.
</event>
<event>
 5    1  0.1141915E-008  0.3732955E+03  0.7957747E-01  0.3480881E+00
         13   -1    0    0    0    0  0.00000000000E+00  0.00000000000E+00  0.14999999963E+04  0.15000000000E+04  0.10566000000E+00 0.  1.
        994   -1    0    0    0    0 -0.00000000000E+00 -0.00000000000E+00  0.11368683772E-12  0.17120000000E+03  0.17120000000E+03 0.  0.
         13    1    1    2    0    0 -0.17416581859E+02  0.47673322282E+01  0.19557148794E+02  0.26618753036E+02  0.10566000000E+00 0.  1.
        994    1    1    2    0    0 -0.13108328844E+02  0.97033472210E+01  0.84664861981E+01  0.17218334595E+03  0.17120000000E+03 0.  0.
        998    1    1    2    0    0  0.30524910703E+02 -0.14470679449E+02  0.14719763613E+04  0.14723979010E+04  0.10000000000E+02 0.  1.
</event>
<event>
 5    1  0.1141915E-008  0.3783380E+03  0.7957747E-01  0.3458427E+00
         13   -1    0    0    0    0  0.00000000000E+00  0.00000000000E+00  0.14999999963E+04  0.15000000000E+04  0.10566000000E+00 0.  1.
        994   -1    0    0    0    0 -0.00000000000E+00 -0.00000000000E+00  0.11368683772E-12  0.17120000000E+03  0.17120000000E+03 0.  0.
         13    1    1    2    0    0  0.43848904160E+02  0.13282113954E+02  0.18319925360E+03  0.18884151723E+03  0.10566000000E+00 0.  1.
        994    1    1    2    0    0 -0.45904026568E+02 -0.12173002636E+02  0.12593307799E+02  0.17811062026E+03  0.17120000000E+03 0.  0.
        998    1    1    2    0    0  0.20551224073E+01 -0.11091113185E+01  0.13042074349E+04  0.13042478625E+04  0.10000000000E+02 0.  1.
</event>
<event>
 5    1  0.1141915E-008  0.3844199E+03  0.7957747E-01  0.3432136E+00
         13   -1    0    0    0    0  0.00000000000E+00  0.00000000000E+00  0.14999999963E+04  0.15000000000E+04  0.10566000000E+00 0. -1.
        994   -1    0    0    0    0 -0.00000000000E+00 -0.00000000000E+00  0.11368683772E-12  0.17120000000E+03  0.17120000000E+03 0.  0.
         13    1    1    2    0    0 -0.83162146398E+00  0.20291606330E+02  0.10381082796E+03  0.10577873154E+03  0.10566000000E+00 0. -1.
        994    1    1    2    0    0 -0.10648206993E+02 -0.17823247731E+02  0.33399498779E+01  0.17248665959E+03  0.17120000000E+03 0.  0.
        998    1    1    2    0    0  0.11479828457E+02 -0.24683585995E+01  0.13928492184E+04  0.13929346089E+04  0.10000000000E+02 0. -1.
</event>
<event>
 5    1  0.1141915E-008  0.3847466E+03  0.7957747E-01  0.3430748E+00
         13   -1    0    0    0    0  0.00000000000E+00  0.00000000000E+00  0.14999999963E+04  0.15000000000E+04  0.10566000000E+00 0. -1.
        994   -1    0    0    0    0 -0.00000000000E+00 -0.00000000000E+00  0.11368683772E-12  0.17120000000E+03  0.17120000000E+03 0.  0.
         13    1    1    2    0    0  0.99920988204E+01  0.11163082492E+01  0.27813510659E+02  0.29575170703E+02  0.10566000000E+00 0. -1.
        994    1    1    2    0    0 -0.11546565108E+02 -0.66703552435E+01  0.23414908315E+01  0.17173450260E+03  0.17120000000E+03 0.  0.
        998    1    1    2    0    0  0.15544662875E+01  0.55540469943E+01  0.14698449948E+04  0.14698903267E+04  0.10000000000E+02 0. -1.
</event>
<event>
 5    1  0.1141915E-008  0.3832911E+03  0.7957747E-01  0.3436952E+00
         13   -1    0    0    0    0  0.00000000000E+00  0.00000000000E+00  0.14999999963E+04  0.15000000000E+04  0.10566000000E+00 0.  1.
        994   -1    0    0    0    0 -0.00000000000E+00 -0.00000000000E+00  0.11368683772E-12  0.17120000000E+03  0.17120000000E+03 0.  0.
         13    1    1    2    0    0  0.52811640371E+02  0.63243782982E+01  0.69628994266E+02  0.87620061208E+02  0.10566000000E+00 0.  1.
        994    1    1    2    0    0 -0.45659664087E+02 -0.17033956710E+02  0.26909430499E+02  0.18002365971E+03  0.17120000000E+03 0.  0.
        998    1    1    2    0    0 -0.71519762835E+01  0.10709578412E+02  0.14034615715E+04  0.14035562791E+04  0.10000000000E+02 0.  1.
</event>
<event>
 5    1  0.1141915E-008  0.3802102E+03  0.7957747E-01  0.3450244E+00
         13   -1    0    0    0    0  0.00000000000E+00  0.00000000000E+00  0.14999999963E+04  0.15000000000E+04  0.10566000000E+00 0.  1.
        994   -1    0    0    0    0 -0.00000000000E+00 -0.00000000000E+00  0.11368683772E-12  0.17120000000E+03  0.17120000000E+03 0.  0.
         13    1    1    2    0    0 -0.11648941967E+02  0.13898208519E+01  0.15301712498E+02  0.19281675766E+02  0.10566000000E+00 0.  1.
        994    1    1    2    0    0  0.98889198525E+01 -0.23564636385E+01  0.43723804134E+01  0.17155728305E+03  0.17120000000E+03 0.  0.
        998    1    1    2    0    0  0.17600221148E+01  0.96664278664E+00  0.14803259034E+04  0.14803610412E+04  0.10000000000E+02 0.  1.
</event>
<event>
 5    1  0.1141915E-008  0.3831332E+03  0.7957747E-01  0.3437628E+00
         13   -1    0    0    0    0  0.00000000000E+00  0.00000000000E+00  0.14999999963E+04  0.15000000000E+04  0.10566000000E+00 0. -1.
        994   -1    0    0    0    0 -0.00000000000E+00 -0.00000000000E+00  0.11368683772E-12  0.17120000000E+03  0.17120000000E+03 0.  0.
         13    1    1    2    0    0 -0.25453799100E+02  0.59268242990E+01  0.12521445269E+03  0.12791283540E+03  0.10566000000E+00 0. -1.
        994    1    1    2    0    0  0.26186141788E+02  0.57095200589E+01  0.49400754174E+01  0.17335557962E+03  0.17120000000E+03 0.  0.
        998    1    1    2    0    0 -0.73234268774E+00 -0.11636344358E+02  0.13698454682E+04  0.13699315850E+04  0.10000000000E+02 0. -1.
</event>
<event>
 5    1  0.1141915E-008  0.3838230E+03  0.7957747E-01  0.3434679E+00
         13   -1    0    0    0    0  0.00000000000E+00  0.00000000000E+00  0.14999999963E+04  0.15000000000E+04  0.10566000000E+00 0.  1.
        994   -1    0    0    0    0 -0.00000000000E+00 -0.00000000000E+00  0.11368683772E-12  0.17120000000E+03  0.17120000000E+03 0.  0.
         13    1    1    2    0    0 -0.68410951217E+01  0.17196485422E+02  0.79733357551E+02  0.81853156101E+02  0.10566000000E+00 0.  1.
        994    1    1    2    0    0  0.50648054668E+01 -0.41845112665E+01  0.23581116831E+01  0.17134223962E+03  0.17120000000E+03 0.  0.
        998    1    1    2    0    0  0.17762896548E+01 -0.13011974156E+02  0.14179085270E+04  0.14180046043E+04  0.10000000000E+02 0.  1.
</event>
<event>
 5    1  0.1141915E-008  0.3816635E+03  0.7957747E-01  0.3443947E+00
         13   -1    0    0    0    0  0.00000000000E+00  0.00000000000E+00  0.14999999963E+04  0.15000000000E+04  0.10566000000E+00 0.  1.
        994   -1    0    0    0    0 -0.00000000000E+00 -0.00000000000E+00  0.11368683772E-12  0.17120000000E+03  0.17120000000E+03 0.  0.
         13    1    1    2    0    0 -0.19739398296E+02 -0.13057538991E+02  0.89001442460E+01  0.25285705472E+02  0.10566000000E+00 0.  1.
        994    1    1    2    0    0 -0.58205741408E+01  0.31067313378E+02  0.20894789669E+02  0.17534277652E+03  0.17120000000E+03 0.  0.
        998    1    1    2    0    0  0.25559972437E+02 -0.18009774387E+02  0.14702050624E+04  0.14705715180E+04  0.10000000000E+02 0.  1.
</event>
<event>
 5    1  0.1141915E-008  0.3863973E+03  0.7957747E-01  0.3423768E+00
         13   -1    0    0    0    0  0.00000000000E+00  0.00000000000E+00  0.14999999963E+04  0.15000000000E+04  0.10566000000E+00 0. -1.
        994   -1    0    0    0    0 -0.00000000000E+00 -0.00000000000E+00  0.11368683772E-12  0.17120000000E+03  0.17120000000E+03 0.  0.
         13    1    1    2    0    0  0.36453812996E+02  0.80370247917E+02  0.19192706862E+03  0.21124456932E+03  0.10566000000E+00 0. -1.
        994    1    1    2    0    0 -0.49405875244E+02 -0.36393244223E+02  0.33996399761E+02  0.18501514514E+03  0.17120000000E+03 0.  0.
        998    1    1    2    0    0  0.12952062248E+02 -0.43977003693E+02  0.12740765279E+04  0.12749402855E+04  0.10000000000E+02 0. -1.
</event>
<event>
 5    1  0.1141915E-008  0.3842519E+03  0.7957747E-01  0.3432851E+00
         13   -1    0    0    0    0  0.00000000000E+00  0.00000000000E+00  0.14999999963E+04  0.15000000000E+04  0.10566000000E+00 0.  1.
        994   -1    0    0    0    0 -0.00000000000E+00 -0.00000000000E+00  0.11368683772E-12  0.17120000000E+03  0.17120000000E+03 0.  0.
         13    1    1    2    0    0 -0.14951335809E+02  0.11676798455E+00  0.57912576775E+02  0.59811652627E+02  0.10566000000E+00 0.  1.
        994    1    1    2    0    0  0.21366104010E+01  0.70328225187E+01  0.21801468225E+01  0.17137158089E+03  0.17120000000E+03 0.  0.
        998    1    1    2    0    0  0.12814725408E+02 -0.71495905033E+01  0.14399072727E+04  0.14400167665E+04  0.10000000000E+02 0.  1.
</event>
<event>
 5    1  0.1141915E-008  0.3951143E+03  0.7957747E-01  0.3387877E+00
         13   -1    0    0    0    0  0.00000000000E+00  0.00000000000E+00  0.14999999963E+04  0.15000000000E+04  0.10566000000E+00 0. -1.
        994   -1    0    0    0    0 -0.00000000000E+00 -0.00000000000E+00  0.11368683772E-12  0.17120000000E+03  0.17120000000E+03 0.  0.
         13    1    1    2    0    0 -0.45361225628E+02 -0.59526764862E+02  0.96021338181E+02  0.12174228959E+03  0.10566000000E+00 0. -1.
        994    1    1    2    0    0  0.75507530357E+02  0.44491549227E+02  0.55023293691E+02  0.20004471486E+03  0.17120000000E+03 0.  0.
        998    1    1    2    0    0 -0.30146304729E+02  0.15035215635E+02  0.13489553644E+04  0.13494129956E+04  0.10000000000E+02 0. -1.
</event>
<event>
 5    1  0.1141915E-008  0.3828044E+03  0.7957747E-01  0.3439037E+00
         13   -1    0    0    0    0  0.00000000000E+00  0.00000000000E+00  0.14999999963E+04  0.15000000000E+04  0.10566000000E+00 0.  1.
        994   -1    0    0    0    0 -0.00000000000E+00 -0.00000000000E+00  0.11368683772E-12  0.17120000000E+03  0.17120000000E+03 0.  0.
         13    1    1    2    0    0 -0.45347733432E+01  0.31523745028E+02  0.17098912029E+03  0.17392987406E+03  0.10566000000E+00 0.  1.
        994    1    1    2    0    0  0.33467376708E+01 -0.28507520989E+02  0.54577879397E+01  0.17367529144E+03  0.17120000000E+03 0.  0.
        998    1    1    2    0    0  0.11880356723E+01 -0.30162240387E+01  0.13235530880E+04  0.13235948345E+04  0.10000000000E+02 0.  1.
</event>
<event>
 5    1  0.1141915E-008  0.3820495E+03  0.7957747E-01  0.3442283E+00
         13   -1    0    0    0    0  0.00000000000E+00  0.00000000000E+00  0.14999999963E+04  0.15000000000E+04  0.10566000000E+00 0. -1.
        994   -1    0    0    0    0 -0.00000000000E+00 -0.00000000000E+00  0.11368683772E-12  0.17120000000E+03  0.17120000000E+03 0.  0.
         13    1    1    2    0    0 -0.13755892542E+02  0.16280075055E+02  0.69138231398E+02  0.72348957341E+02  0.10566000000E+00 0. -1.
        994    1    1    2    0    0  0.16178823112E+02 -0.15777663079E+02  0.47996764888E+01  0.17275174634E+03  0.17120000000E+03 0.  0.
        998    1    1    2    0    0 -0.24229305703E+01 -0.50241197548E+00  0.14260620884E+04  0.14260992963E+04  0.10000000000E+02 0. -1.
</event>
<event>
 5    1  0.1141915E-008  0.3793236E+03  0.7957747E-01  0.3454109E+00
         13   -1    0    0    0    0  0.00000000000E+00  0.00000000000E+00  0.14999999963E+04  0.15000000000E+04  0.10566000000E+00 0. -1.
        994   -1    0    0    0    0 -0.00000000000E+00 -0.00000000000E+00  0.11368683772E-12  0.17120000000E+03  0.17120000000E+03 0.  0.
         13    1    1    2    0    0 -0.91607912683E+01  0.10565805273E+03  0.59899220164E+03  0.60830848506E+03  0.10566000000E+00 0. -1.
        994    1    1    2    0    0 -0.64424990064E+01 -0.12142717603E+03  0.55723476066E+02  0.21725701521E+03  0.17120000000E+03 0.  0.
        998    1    1    2    0    0  0.15603290275E+02  0.15769123300E+02  0.84528431857E+03  0.84563449973E+03  0.10000000000E+02 0. -1.
</event>
<event>
 5    1  0.1141915E-008  0.3855834E+03  0.7957747E-01  0.3427202E+00
         13   -1    0    0    0    0  0.00000000000E+00  0.00000000000E+00  0.14999999963E+04  0.15000000000E+04  0.10566000000E+00 0.  1.
        994   -1    0    0    0    0 -0.00000000000E+00 -0.00000000000E+00  0.11368683772E-12  0.17120000000E+03  0.17120000000E+03 0.  0.
         13    1    1    2    0    0 -0.80626160872E+01 -0.99154627374E+01  0.61188034011E+02  0.62508470223E+02  0.10566000000E+00 0.  1.
        994    1    1    2    0    0  0.33534814157E+01  0.85080815793E+01  0.16153174502E+01  0.17145169156E+03  0.17120000000E+03 0.  0.
        998    1    1    2    0    0  0.47091346715E+01  0.14073811581E+01  0.14371966448E+04  0.14372398382E+04  0.10000000000E+02 0.  1.
</event>
<event>
 5    1  0.1141915E-008  0.3714778E+03  0.7957747E-01  0.3489127E+00
         13   -1    0    0    0    0  0.00000000000E+00  0.00000000000E+00  0.14999999963E+04  0.15000000000E+04  0.10566000000E+00 0.  1.
        994   -1    0    0    0    0 -0.00000000000E+00 -0.00000000000E+00  0.11368683772E-12  0.17120000000E+03  0.17120000000E+03 0.  0.
         13    1    1    2    0    0 -0.21865235694E+02 -0.11752859396E+02  0.22562353861E+02  0.33545330699E+02  0.10566000000E+00 0.  1.
        994    1    1    2    0    0 -0.32120287012E+01 -0.58856127150E+01  0.11880399426E+02  0.17174266056E+03  0.17120000000E+03 0.  0.
        998    1    1    2    0    0  0.25077264395E+02  0.17638472111E+02  0.14655572430E+04  0.14659120087E+04  0.10000000000E+02 0.  1.
</event>
<event>
 5    1  0.1141915E-008  0.3775994E+03  0.7957747E-01  0.3461678E+00
         13   -1    0    0    0    0  0.00000000000E+00  0.00000000000E+00  0.14999999963E+04  0.15000000000E+04  0.10566000000E+00 0.  1.
        994   -1    0    0    0    0 -0.00000000000E+00 -0.00000000000E+00  0.11368683772E-12  0.17120000000E+03  0.17120000000E+03 0.  0.
         13    1    1    2    0    0  0.29491204415E+02 -0.53399149364E+02  0.26041497706E+03  0.26746433730E+03  0.10566000000E+00 0.  1.
        994    1    1    2    0    0 -0.60770112447E+02  0.51691054619E+02  0.27107147838E+02  0.19081197331E+03  0.17120000000E+03 0.  0.
        998    1    1    2    0    0  0.31278908032E+02  0.17080947449E+01  0.12124778714E+04  0.12129236894E+04  0.10000000000E+02 0.  1.
</event>
<event>
 5    1  0.1141915E-008  0.3833630E+03  0.7957747E-01  0.3436645E+00
         13   -1    0    0    0    0  0.00000000000E+00  0.00000000000E+00  0.14999999963E+04  0.15000000000E+04  0.10566000000E+00 0. -1.
        994   -1    0    0    0    0 -0.00000000000E+00 -0.00000000000E+00  0.11368683772E-12  0.17120000000E+03  0.17120000000E+03 0.  0.
         13    1    1    2    0    0  0.29298364758E+02 -0.21216152365E+02  0.21522680905E+03  0.21824552641E+03  0.10566000000E+00 0. -1.
        994    1    1    2    0    0 -0.33086902280E+02  0.29098746075E+02  0.88905947363E+01  0.17700271975E+03  0.17120000000E+03 0.  0.
        998    1    1    2    0    0  0.37885375222E+01 -0.78825937106E+01  0.12758825925E+04  0.12759517538E+04  0.10000000000E+02 0. -1.
</event>
<event>
 5    1  0.1141915E-008  0.3835433E+03  0.7957747E-01  0.3435874E+00
         13   -1    0    0    0    0  0.00000000000E+00  0.00000000000E+00  0.14999999963E+04  0.15000000000E+04  0.10566000000E+00 0.  1.
        994   -1    0    0    0    0 -0.00000000000E+00 -0.00000000000E+00  0.11368683772E-12  0.17120000000E+03  0.17120000000E+03 0.  0.
         13    1    1    2    0    0 -0.12102812759E+02  0.92586208692E+01  0.49716994936E+02  0.51999912371E+02  0.10566000000E+00 0.  1.
        994    1    1    2    0    0 -0.18716207411E+00 -0.95251014785E+01  0.26550721481E+01  0.17148542794E+03  0.17120000000E+03 0.  0.
        998    1    1    2    0    0  0.12289974833E+02  0.26648060927E+00  0.14476279292E+04  0.14477146597E+04  0.10000000000E+02 0.  1.
</event>
<event>
 5    1  0.1141915E-008  0.3747136E+03  0.7957747E-01  0.3474505E+00
         13   -1    0    0    0    0  0.00000000000E+00  0.00000000000E+00  0.14999999963E+04  0.15000000000E+04  0.10566000000E+00 0.  1.
        994   -1    0    0    0    0 -0.00000000000E+00 -0.00000000000E+00  0.11368683772E-12  0.17120000000E+03  0.17120000000E+03 0.  0.
         13    1    1    2    0    0  0.40682321903E+02  0.30228557101E+02  0.21682270187E+03  0.22266771699E+03  0.10566000000E+00 0.  1.
        994    1    1    2    0    0 -0.14451860055E+02  0.10384301306E+02  0.79041246572E+01  0.17230381644E+03  0.17120000000E+03 0.  0.
        998    1    1    2    0    0 -0.26230461847E+02 -0.40612858407E+02  0.12752731698E+04  0.12762284666E+04  0.10000000000E+02 0.  1.
</event>
<event>
 5    1  0.1141915E-008  0.3814522E+03  0.7957747E-01  0.3444859E+00
         13   -1    0    0    0    0  0.00000000000E+00  0.00000000000E+00  0.14999999963E+04  0.15000000000E+04  0.10566000000E+00 0. -1.
        994   -1    0    0    0    0 -0.00000000000E+00 -0.00000000000E+00  0.11368683772E-12  0.17120000000E+03  0.17120000000E+03 0.  0.
         13    1    1    2    0    0 -0.54283101287E+01 -0.95952946287E+01  0.16339927533E+02  0.19711433882E+02  0.10566000000E+00 0. -1.
        994    1    1    2    0    0  0.43900434979E+01  0.95393735670E+01  0.37688084615E+01  0.17156315469E+03  0.17120000000E+03 0.  0.
        998    1    1    2    0    0  0.10382666308E+01  0.55921061628E-01  0.14798912603E+04  0.14799254114E+04  0.10000000000E+02 0. -1.
</event>
<event>
 5    1  0.1141915E-008  0.3707576E+03  0.7957747E-01  0.3492416E+00
         13   -1    0    0    0    0  0.00000000000E+00  0.00000000000E+00  0.14999999963E+04  0.15000000000E+04  0.10566000000E+00 0.  1.
        994   -1    0    0    0    0 -0.00000000000E+00 -0.00000000000E+00  0.11368683772E-12  0.17120000000E+03  0.17120000000E+03 0.  0.
         13    1    1    2    0    0 -0.30726879919E+02  0.32155800850E+02  0.77093749243E+02  0.89003337096E+02  0.10566000000E+00 0.  1.
        994    1    1    2    0    0  0.44218912171E+02 -0.30630131873E+02  0.21552475556E+02  0.18074143514E+03  0.17120000000E+03 0.  0.
        998    1    1    2    0    0 -0.13492032253E+02 -0.15256689764E+01  0.14013537715E+04  0.14014552278E+04  0.10000000000E+02 0.  1.
</event>
<event>
 5    1  0.1141915E-008  0.3751494E+03  0.7957747E-01  0.3472555E+00
         13   -1    0    0    0    0  0.00000000000E+00  0.00000000000E+00  0.14999999963E+04  0.15000000000E+04  0.10566000000E+00 0. -1.
        994   -1    0    0    0    0 -0.00000000000E+00 -0.00000000000E+00  0.11368683772E-12  0.17120000000E+03  0.17120000000E+03 0.  0.
         13    1    1    2    0    0 -0.13780250540E+02 -0.55192915664E+02  0.22772066088E+03  0.23471869078E+03  0.10566000000E+00 0. -1.
        994    1    1    2    0    0  0.60921719164E+02  0.32033819444E+02  0.22872131194E+02  0.18593062104E+03  0.17120000000E+03 0.  0.
        998    1    1    2    0    0 -0.47141468624E+02  0.23159096219E+02  0.12494072042E+04  0.12505506882E+04  0.10000000000E+02 0. -1.
</event>
<event>
 5    1  0.1141915E-008  0.3795624E+03  0.7957747E-01  0.3453066E+00
         13   -1    0    0    0    0  0.00000000000E+00  0.00000000000E+00  0.14999999963E+04  0.15000000000E+04  0.10566000000E+00 0.  1.
        994   -1    0    0    0    0 -0.00000000000E+00 -0.00000000000E+00  0.11368683772E-12  0.17120000000E+03  0.17120000000E+03 0.  0.
         13    1    1    2    0    0  0.10555386558E+02  0.72555279946E+01  0.17525718753E+02  0.21707622018E+02  0.10566000000E+00 0. -1.
        994    1    1    2    0    0  0.29279580165E+00  0.52263824456E+01  0.44459377188E+01  0.17133769919E+03  0.17120000000E+03 0.  0.
        998    1    1    2    0    0 -0.10848182359E+02 -0.12481910440E+02  0.14780283398E+04  0.14781546788E+04  0.10000000000E+02 0.  1.
</event>
<event>
 5    1  0.1141915E-008  0.3840197E+03  0.7957747E-01  0.3433841E+00
         13   -1    0    0    0    0  0.00000000000E+00  0.00000000000E+00  0.14999999963E+04  0.15000000000E+04  0.10566000000E+00 0.  1.
        994   -1    0    0    0    0 -0.00000000000E+00 -0.00000000000E+00  0.11368683772E-12  0.17120000000E+03  0.17120000000E+03 0.  0.
         13    1    1    2    0    0  0.21219597628E+01  0.11762090004E+02  0.33088208360E+02  0.35180821068E+02  0.10566000000E+00 0.  1.
        994    1    1    2    0    0 -0.10509022731E+02 -0.70093674577E+01  0.26442550997E+01  0.17168576783E+03  0.17120000000E+03 0.  0.
        998    1    1    2    0    0  0.83870629685E+01 -0.47527225468E+01  0.14642675328E+04  0.14643334111E+04  0.10000000000E+02 0.  1.
</event>
<event>
 5    1  0.1141915E-008  0.3849837E+03  0.7957747E-01  0.3429741E+00
         13   -1    0    0    0    0  0.00000000000E+00  0.00000000000E+00  0.14999999963E+04  0.15000000000E+04  0.10566000000E+00 0.  1.
        994   -1    0    0    0    0 -0.00000000000E+00 -0.00000000000E+00  0.11368683772E-12  0.17120000000E+03  0.17120000000E+03 0.  0.
         13    1    1    2    0    0 -0.70931542086E+01  0.84250996857E+01  0.36058257979E+02  0.37702841721E+02  0.10566000000E+00 0.  1.
        994    1    1    2    0    0  0.81492302644E+01 -0.88583057516E+01  0.21148669487E+01  0.17163563790E+03  0.17120000000E+03 0.  0.
        998    1    1    2    0    0 -0.10560760558E+01  0.43320606592E+00  0.14618268714E+04  0.14618615204E+04  0.10000000000E+02 0.  1.
</event>
<event>
 5    1  0.1141915E-008  0.3274455E+03  0.7957747E-01  0.3717679E+00
         13   -1    0    0    0    0  0.00000000000E+00  0.00000000000E+00  0.14999999963E+04  0.15000000000E+04  0.10566000000E+00 0. -1.
        994   -1    0    0    0    0 -0.00000000000E+00 -0.00000000000E+00  0.11368683772E-12  0.17120000000E+03  0.17120000000E+03 0.  0.
         13    1    1    2    0    0 -0.43813961774E+02 -0.21029276023E+03  0.90494530424E+03  0.93009070691E+03  0.10566000000E+00 0. -1.
        994    1    1    2    0    0  0.58351584633E+02  0.15038699359E+03  0.12395082084E+03  0.26588418767E+03  0.17120000000E+03 0.  0.
        998    1    1    2    0    0 -0.14537622859E+02  0.59905766648E+02  0.47110387120E+03  0.47522510542E+03  0.10000000000E+02 0. -1.
</event>
<event>
 5    1  0.1141915E-008  0.3844473E+03  0.7957747E-01  0.3432020E+00
         13   -1    0    0    0    0  0.00000000000E+00  0.00000000000E+00  0.14999999963E+04  0.15000000000E+04  0.10566000000E+00 0.  1.
        994   -1    0    0    0    0 -0.00000000000E+00 -0.00000000000E+00  0.11368683772E-12  0.17120000000E+03  0.17120000000E+03 0.  0.
         13    1    1    2    0    0  0.22867492465E+02 -0.12330826375E+02  0.15227979892E+03  0.15448015993E+03  0.10566000000E+00 0.  1.
        994    1    1    2    0    0 -0.29438960342E+02  0.14128709554E+02  0.54256221594E+01  0.17437072631E+03  0.17120000000E+03 0.  0.
        998    1    1    2    0    0  0.65714678766E+01 -0.17978831789E+01  0.13422945752E+04  0.13423491138E+04  0.10000000000E+02 0.  1.
</event>
<event>
 5    1  0.1141915E-008  0.3741508E+03  0.7957747E-01  0.3477029E+00
         13   -1    0    0    0    0  0.00000000000E+00  0.00000000000E+00  0.14999999963E+04  0.15000000000E+04  0.10566000000E+00 0. -1.
        994   -1    0    0    0    0 -0.00000000000E+00 -0.00000000000E+00  0.11368683772E-12  0.17120000000E+03  0.17120000000E+03 0.  0.
         13    1    1    2    0    0  0.87498871407E+01 -0.91211184012E+02  0.26155765808E+03  0.27714339299E+03  0.10566000000E+00 0. -1.
        994    1    1    2    0    0 -0.33691844901E+01  0.89791866688E+02  0.42378010698E+02  0.19793753186E+03  0.17120000000E+03 0.  0.
        998    1    1    2    0    0 -0.53807026505E+01  0.14193173235E+01  0.11960643275E+04  0.11961190751E+04  0.10000000000E+02 0.  0.
</event>
<event>
 5    1  0.1141915E-008  0.3922219E+03  0.7957747E-01  0.3399609E+00
         13   -1    0    0    0    0  0.00000000000E+00  0.00000000000E+00  0.14999999963E+04  0.15000000000E+04  0.10566000000E+00 0.  1.
        994   -1    0    0    0    0 -0.00000000000E+00 -0.00000000000E+00  0.11368683772E-12  0.17120000000E+03  0.17120000000E+03 0.  0.
         13    1    1    2    0    0  0.56969944336E+02  0.71209007936E+02  0.18776840858E+03  0.20874214666E+03  0.10566000000E+00 0.  1.
        994    1    1    2    0    0  0.10897643292E+02 -0.55741961729E+02  0.35555615877E+02  0.18384658481E+03  0.17120000000E+03 0.  0.
        998    1    1    2    0    0 -0.67867587628E+02 -0.15467046207E+02  0.12766759718E+04  0.12786112685E+04  0.10000000000E+02 0.  1.
</event>
<event>
 5    1  0.1141915E-008  0.3828423E+03  0.7957747E-01  0.3438875E+00
         13   -1    0    0    0    0  0.00000000000E+00  0.00000000000E+00  0.14999999963E+04  0.15000000000E+04  0.10566000000E+00 0.  1.
        994   -1    0    0    0    0 -0.00000000000E+00 -0.00000000000E+00  0.11368683772E-12  0.17120000000E+03  0.17120000000E+03 0.  0.
         13    1    1    2    0    0  0.20366146153E+01  0.32667306889E+02  0.17915894827E+03  0.18212424508E+03  0.10566000000E+00 0.  1.
        994    1    1    2    0    0  0.52928173553E+01 -0.31211177414E+02  0.60312352857E+01  0.17420667987E+03  0.17120000000E+03 0.  0.
        998    1    1    2    0    0 -0.73294319706E+01 -0.14561294750E+01  0.13148098127E+04  0.13148690751E+04  0.10000000000E+02 0.  1.
</event>
<event>
 5    1  0.1141915E-008  0.3860726E+03  0.7957747E-01  0.3425136E+00
         13   -1    0    0    0    0  0.00000000000E+00  0.00000000000E+00  0.14999999963E+04  0.15000000000E+04  0.10566000000E+00 0. -1.
        994   -1    0    0    0    0 -0.00000000000E+00 -0.00000000000E+00  0.11368683772E-12  0.17120000000E+03  0.17120000000E+03 0.  0.
         13    1    1    2    0    0  0.40895194258E+01  0.93643848627E+01  0.49837869011E+02  0.50874750364E+02  0.10566000000E+00 0. -1.
        994    1    1    2    0    0 -0.92420109830E+01  0.19888741740E+01  0.13914932902E+01  0.17146645923E+03  0.17120000000E+03 0.  0.
        998    1    1    2    0    0  0.51524915572E+01 -0.11353259037E+02  0.14487706340E+04  0.14488587904E+04  0.10000000000E+02 0. -1.
</event>
<event>
 5    1  0.1141915E-008  0.3751553E+03  0.7957747E-01  0.3472529E+00
         13   -1    0    0    0    0  0.00000000000E+00  0.00000000000E+00  0.14999999963E+04  0.15000000000E+04  0.10566000000E+00 0. -1.
        994   -1    0    0    0    0 -0.00000000000E+00 -0.00000000000E+00  0.11368683772E-12  0.17120000000E+03  0.17120000000E+03 0.  0.
         13    1    1    2    0    0  0.56258346438E+02  0.86700083989E+02  0.55608067468E+03  0.56560377830E+03  0.10566000000E+00 0. -1.
        994    1    1    2    0    0 -0.10020975073E+03 -0.55839546196E+02  0.52711460771E+02  0.21271574262E+03  0.17120000000E+03 0.  0.
        998    1    1    2    0    0  0.43951404290E+02 -0.30860537793E+02  0.89120786082E+03  0.89288047908E+03  0.10000000000E+02 0. -1.
</event>
<event>
 5    1  0.1141915E-008  0.3909491E+03  0.7957747E-01  0.3404827E+00
         13   -1    0    0    0    0  0.00000000000E+00  0.00000000000E+00  0.14999999963E+04  0.15000000000E+04  0.10566000000E+00 0. -1.
        994   -1    0    0    0    0 -0.00000000000E+00 -0.00000000000E+00  0.11368683772E-12  0.17120000000E+03  0.17120000000E+03 0.  0.
         13    1    1    2    0    0 -0.10201735576E+02  0.54355752456E+02  0.68425286277E+02  0.87980987719E+02  0.10566000000E+00 0. -1.
        994    1    1    2    0    0 -0.17910447714E+02  0.55118114241E+01  0.23803769402E+02  0.17385978155E+03  0.17120000000E+03 0.  0.
        998    1    1    2    0    0  0.28112183290E+02 -0.59867563880E+02  0.14077709406E+04  0.14093592307E+04  0.10000000000E+02 0. -1.
</event>
<event>
 5    1  0.1141915E-008  0.3814222E+03  0.7957747E-01  0.3444989E+00
         13   -1    0    0    0    0  0.00000000000E+00  0.00000000000E+00  0.14999999963E+04  0.15000000000E+04  0.10566000000E+00 0. -1.
        994   -1    0    0    0    0 -0.00000000000E+00 -0.00000000000E+00  0.11368683772E-12  0.17120000000E+03  0.17120000000E+03 0.  0.
         13    1    1    2    0    0 -0.26458984423E+01  0.34129492618E+02  0.18307208800E+03  0.18624506333E+03  0.10566000000E+00 0. -1.
        994    1    1    2    0    0 -0.18597311154E+01 -0.10888215898E+02  0.38229985209E+01  0.17159856399E+03  0.17120000000E+03 0.  0.
        998    1    1    2    0    0  0.45056295577E+01 -0.23241276719E+02  0.13131049098E+04  0.13133563727E+04  0.10000000000E+02 0. -1.
</event>
<event>
 5    1  0.1141915E-008  0.3922994E+03  0.7957747E-01  0.3399293E+00
         13   -1    0    0    0    0  0.00000000000E+00  0.00000000000E+00  0.14999999963E+04  0.15000000000E+04  0.10566000000E+00 0.  1.
        994   -1    0    0    0    0 -0.00000000000E+00 -0.00000000000E+00  0.11368683772E-12  0.17120000000E+03  0.17120000000E+03 0.  0.
         13    1    1    2    0    0  0.23928336094E+02 -0.71158584232E+02  0.12059046712E+03  0.14204992538E+03  0.10566000000E+00 0.  1.
        994    1    1    2    0    0 -0.13646487402E+02  0.31028599875E+02  0.27627772814E+02  0.17669673019E+03  0.17120000000E+03 0.  0.
        998    1    1    2    0    0 -0.10281848692E+02  0.40129984357E+02  0.13517817563E+04  0.13524533444E+04  0.10000000000E+02 0.  1.
</event>
<event>
 5    1  0.1141915E-008  0.3824759E+03  0.7957747E-01  0.3440448E+00
         13   -1    0    0    0    0  0.00000000000E+00  0.00000000000E+00  0.14999999963E+04  0.15000000000E+04  0.10566000000E+00 0.  1.
        994   -1    0    0    0    0 -0.00000000000E+00 -0.00000000000E+00  0.11368683772E-12  0.17120000000E+03  0.17120000000E+03 0.  0.
         13    1    1    2    0    0 -0.11390438088E+01  0.22586801049E+02  0.90169159680E+02  0.92962086486E+02  0.10566000000E+00 0.  1.
        994    1    1    2    0    0  0.39307964868E+02 -0.87230875340E+01  0.82828099403E+01  0.17606604811E+03  0.17120000000E+03 0.  0.
        998    1    1    2    0    0 -0.38168921059E+02 -0.13863713515E+02  0.14015480267E+04  0.14021718654E+04  0.10000000000E+02 0.  1.
</event>
<event>
 5    1  0.1141915E-008  0.3572391E+03  0.7957747E-01  0.3556675E+00
         13   -1    0    0    0    0  0.00000000000E+00  0.00000000000E+00  0.14999999963E+04  0.15000000000E+04  0.10566000000E+00 0.  1.
        994   -1    0    0    0    0 -0.00000000000E+00 -0.00000000000E+00  0.11368683772E-12  0.17120000000E+03  0.17120000000E+03 0.  0.
         13    1    1    2    0    0 -0.15691628112E+03 -0.13649758831E+03  0.11116273436E+04  0.11309154138E+04  0.10566000000E+00 0.  1.
        994    1    1    2    0    0  0.11989064719E+03  0.17137295202E+03  0.17802362969E+03  0.32364225419E+03  0.17120000000E+03 0.  0.
        998    1    1    2    0    0  0.37025633925E+02 -0.34875363712E+02  0.21034902300E+03  0.21664233206E+03  0.10000000000E+02 0.  1.
</event>
<event>
 5    1  0.1141915E-008  0.3779580E+03  0.7957747E-01  0.3460098E+00
         13   -1    0    0    0    0  0.00000000000E+00  0.00000000000E+00  0.14999999963E+04  0.15000000000E+04  0.10566000000E+00 0. -1.
        994   -1    0    0    0    0 -0.00000000000E+00 -0.00000000000E+00  0.11368683772E-12  0.17120000000E+03  0.17120000000E+03 0.  0.
         13    1    1    2    0    0 -0.28880683060E+01  0.15350415099E+02  0.21346133689E+02  0.26450799038E+02  0.10566000000E+00 0. -1.
        994    1    1    2    0    0  0.98220751913E+01 -0.10698479071E+02  0.58777189877E+01  0.17191543909E+03  0.17120000000E+03 0.  0.
        998    1    1    2    0    0 -0.69340068853E+01 -0.46519360273E+01  0.14727761436E+04  0.14728337619E+04  0.10000000000E+02 0. -1.
</event>
<event>
 5    1  0.1141915E-008  0.3802313E+03  0.7957747E-01  0.3450152E+00
         13   -1    0    0    0    0  0.00000000000E+00  0.00000000000E+00  0.14999999963E+04  0.15000000000E+04  0.10566000000E+00 0. -1.
        994   -1    0    0    0    0 -0.00000000000E+00 -0.00000000000E+00  0.11368683772E-12  0.17120000000E+03  0.17120000000E+03 0.  0.
         13    1    1    2    0    0 -0.38236340221E+02  0.11736616955E+02  0.20903895956E+03  0.21283106838E+03  0.10566000000E+00 0. -1.
        994    1    1    2    0    0  0.13300887291E+02 -0.11193439691E+02  0.50265808563E+01  0.17215374875E+03  0.17120000000E+03 0.  0.
        998    1    1    2    0    0  0.24935452930E+02 -0.54317726424E+00  0.12859344559E+04  0.12862151829E+04  0.10000000000E+02 0. -1.
</event>
<event>
 5    1  0.1141915E-008  0.3697219E+03  0.7957747E-01  0.3497170E+00
         13   -1    0    0    0    0  0.00000000000E+00  0.00000000000E+00  0.14999999963E+04  0.15000000000E+04  0.10566000000E+00 0. -1.
        994   -1    0    0    0    0 -0.00000000000E+00 -0.00000000000E+00  0.11368683772E-12  0.17120000000E+03  0.17120000000E+03 0.  0.
         13    1    1    2    0    0  0.47049652685E+02 -0.20816834044E+02  0.11053948868E+03  0.12192620768E+03  0.10566000000E+00 0. -1.
        994    1    1    2    0    0 -0.44150749583E+02  0.28588371992E+02  0.20517598159E+02  0.18026923070E+03  0.17120000000E+03 0.  0.
        998    1    1    2    0    0 -0.28989031026E+01 -0.77715379477E+01  0.13689429094E+04  0.13690045616E+04  0.10000000000E+02 0. -1.
</event>
<event>
 5    1  0.1141915E-008  0.3754407E+03  0.7957747E-01  0.3471254E+00
         13   -1    0    0    0    0  0.00000000000E+00  0.00000000000E+00  0.14999999963E+04  0.15000000000E+04  0.10566000000E+00 0. -1.
        994   -1    0    0    0    0 -0.00000000000E+00 -0.00000000000E+00  0.11368683772E-12  0.17120000000E+03  0.17120000000E+03 0.  0.
         13    1    1    2    0    0  0.30773800538E+02  0.25332612860E+01  0.68063867344E+02  0.74740520564E+02  0.10566000000E+00 0. -1.
        994    1    1    2    0    0 -0.32041009220E+02 -0.14785860553E+02  0.10690823906E+02  0.17512561680E+03  0.17120000000E+03 0.  0.
        998    1    1    2    0    0  0.12672086829E+01  0.12252599267E+02  0.14212453050E+04  0.14213338626E+04  0.10000000000E+02 0. -1.
</event>
<event>
 5    1  0.1141915E-008  0.3853047E+03  0.7957747E-01  0.3428381E+00
         13   -1    0    0    0    0  0.00000000000E+00  0.00000000000E+00  0.14999999963E+04  0.15000000000E+04  0.10566000000E+00 0. -1.
        994   -1    0    0    0    0 -0.00000000000E+00 -0.00000000000E+00  0.11368683772E-12  0.17120000000E+03  0.17120000000E+03 0.  0.
         13    1    1    2    0    0 -0.21367211091E+01 -0.12534303600E+02  0.54475996018E+02  0.55940322219E+02  0.10566000000E+00 0. -1.
        994    1    1    2    0    0 -0.22321234012E+01  0.99854267611E+01  0.18229879771E+01  0.17151517253E+03  0.17120000000E+03 0.  0.
        998    1    1    2    0    0  0.43688445103E+01  0.25488768386E+01  0.14437010123E+04  0.14437445053E+04  0.10000000000E+02 0. -1.
</event>
<event>
 5    1  0.1141915E-008  0.3753356E+03  0.7957747E-01  0.3471723E+00
         13   -1    0    0    0    0  0.00000000000E+00  0.00000000000E+00  0.14999999963E+04  0.15000000000E+04  0.10566000000E+00 0.  1.
        994   -1    0    0    0    0 -0.00000000000E+00 -0.00000000000E+00  0.11368683772E-12  0.17120000000E+03  0.17120000000E+03 0.  0.
         13    1    1    2    0    0 -0.16460953212E+02 -0.58377992749E+00  0.17841446349E+02  0.24282342381E+02  0.10566000000E+00 0.  1.
        994    1    1    2    0    0  0.16385773325E+02 -0.40647935288E+01  0.74748356865E+01  0.17219270972E+03  0.17120000000E+03 0.  0.
        998    1    1    2    0    0  0.75179886712E-01  0.46485734563E+01  0.14746837142E+04  0.14747249479E+04  0.10000000000E+02 0.  1.
</event>
<event>
 5    1  0.1141915E-008  0.3748248E+03  0.7957747E-01  0.3474007E+00
         13   -1    0    0    0    0  0.00000000000E+00  0.00000000000E+00  0.14999999963E+04  0.15000000000E+04  0.10566000000E+00 0.  1.
        994   -1    0    0    0    0 -0.00000000000E+00 -0.00000000000E+00  0.11368683772E-12  0.17120000000E+03  0.17120000000E+03 0.  0.
         13    1    1    2    0    0 -0.38257471365E+02 -0.24185134788E+02  0.16709473478E+03  0.17311619340E+03  0.10566000000E+00 0.  1.
        994    1    1    2    0    0  0.11731139861E+02 -0.74696013984E+01  0.74268576328E+01  0.17192443922E+03  0.17120000000E+03 0.  0.
        998    1    1    2    0    0  0.26526331504E+02  0.31654736187E+02  0.13254784039E+04  0.13261593674E+04  0.10000000000E+02 0.  1.
</event>
<event>
 5    1  0.1141915E-008  0.3831915E+03  0.7957747E-01  0.3437379E+00
         13   -1    0    0    0    0  0.00000000000E+00  0.00000000000E+00  0.14999999963E+04  0.15000000000E+04  0.10566000000E+00 0.  1.
        994   -1    0    0    0    0 -0.00000000000E+00 -0.00000000000E+00  0.11368683772E-12  0.17120000000E+03  0.17120000000E+03 0.  0.
         13    1    1    2    0    0  0.47529247688E+01  0.90316900990E+01  0.19956371179E+02  0.22414942217E+02  0.10566000000E+00 0.  1.
        994    1    1    2    0    0 -0.94446808556E+01  0.24134318543E+01  0.28451086099E+01  0.17150090756E+03  0.17120000000E+03 0.  0.
        998    1    1    2    0    0  0.46917560868E+01 -0.11445121953E+02  0.14771985165E+04  0.14772841502E+04  0.10000000000E+02 0.  1.
</event>
<event>
 5    1  0.1141915E-008  0.3730172E+03  0.7957747E-01  0.3482138E+00
         13   -1    0    0    0    0  0.00000000000E+00  0.00000000000E+00  0.14999999963E+04  0.15000000000E+04  0.10566000000E+00 0. -1.
        994   -1    0    0    0    0 -0.00000000000E+00 -0.00000000000E+00  0.11368683772E-12  0.17120000000E+03  0.17120000000E+03 0.  0.
         13    1    1    2    0    0 -0.13703980329E+03 -0.72637633376E+02  0.53793675552E+03  0.55985006705E+03  0.10566000000E+00 0. -1.
        994    1    1    2    0    0  0.13941322724E+03  0.78271662798E+02  0.10927654597E+03  0.25848269696E+03  0.17120000000E+03 0.  0.
        998    1    1    2    0    0 -0.23734239534E+01 -0.56340294218E+01  0.85278669479E+03  0.85286723600E+03  0.10000000000E+02 0. -1.
</event>
<event>
 5    1  0.1141915E-008  0.3852501E+03  0.7957747E-01  0.3428612E+00
         13   -1    0    0    0    0  0.00000000000E+00  0.00000000000E+00  0.14999999963E+04  0.15000000000E+04  0.10566000000E+00 0. -1.
        994   -1    0    0    0    0 -0.00000000000E+00 -0.00000000000E+00  0.11368683772E-12  0.17120000000E+03  0.17120000000E+03 0.  0.
         13    1    1    2    0    0 -0.12157073344E+02  0.89181714587E+00  0.47386597556E+02  0.48929444736E+02  0.10566000000E+00 0. -1.
        994    1    1    2    0    0  0.15875133500E+02  0.29930804410E+01  0.23640524314E+01  0.17197676337E+03  0.17120000000E+03 0.  0.
        998    1    1    2    0    0 -0.37180601562E+01 -0.38848975869E+01  0.14502493463E+04  0.14502937919E+04  0.10000000000E+02 0. -1.
</event>
<event>
 5    1  0.1141915E-008  0.3770296E+03  0.7957747E-01  0.3464195E+00
         13   -1    0    0    0    0  0.00000000000E+00  0.00000000000E+00  0.14999999963E+04  0.15000000000E+04  0.10566000000E+00 0. -1.
        994   -1    0    0    0    0 -0.00000000000E+00 -0.00000000000E+00  0.11368683772E-12  0.17120000000E+03  0.17120000000E+03 0.  0.
         13    1    1    2    0    0  0.20381814770E+02  0.26589887482E+01  0.34540270058E+02  0.40193656392E+02  0.10566000000E+00 0. -1.
        994    1    1    2    0    0 -0.20746059660E+02  0.33866556591E+01  0.71333622302E+01  0.17263311758E+03  0.17120000000E+03 0.  0.
        998    1    1    2    0    0  0.36424489059E+00 -0.60456444073E+01  0.14583263640E+04  0.14583732260E+04  0.10000000000E+02 0. -1.
</event>
<event>
 5    1  0.1141915E-008  0.3697943E+03  0.7957747E-01  0.3496837E+00
         13   -1    0    0    0    0  0.00000000000E+00  0.00000000000E+00  0.14999999963E+04  0.15000000000E+04  0.10566000000E+00 0.  1.
        994   -1    0    0    0    0 -0.00000000000E+00 -0.00000000000E+00  0.11368683772E-12  0.17120000000E+03  0.17120000000E+03 0.  0.
         13    1    1    2    0    0  0.25699806792E+01 -0.10124872027E+02  0.15556439599E+01  0.10561677254E+02  0.10566000000E+00 0.  1.
        994    1    1    2    0    0  0.13471655522E+02 -0.35521222709E+01  0.10048526982E+02  0.17205962911E+03  0.17120000000E+03 0.  0.
        998    1    1    2    0    0 -0.16041636201E+02  0.13676994298E+02  0.14883958253E+04  0.14885786936E+04  0.10000000000E+02 0.  1.
</event>
<event>
 5    1  0.1141915E-008  0.3811140E+03  0.7957747E-01  0.3446322E+00
         13   -1    0    0    0    0  0.00000000000E+00  0.00000000000E+00  0.14999999963E+04  0.15000000000E+04  0.10566000000E+00 0.  1.
        994   -1    0    0    0    0 -0.00000000000E+00 -0.00000000000E+00  0.11368683772E-12  0.17120000000E+03  0.17120000000E+03 0.  0.
         13    1    1    2    0    0  0.36193611958E+02 -0.31279862988E+02  0.27628879827E+03  0.28039956952E+03  0.10566000000E+00 0.  1.
        994    1    1    2    0    0 -0.30752056093E+02  0.29905330874E+02  0.97247302120E+01  0.17675980354E+03  0.17120000000E+03 0.  0.
        998    1    1    2    0    0 -0.54415558654E+01  0.13745321139E+01  0.12139864678E+04  0.12140406269E+04  0.10000000000E+02 0.  1.
</event>
<event>
 5    1  0.1141915E-008  0.3846815E+03  0.7957747E-01  0.3431024E+00
         13   -1    0    0    0    0  0.00000000000E+00  0.00000000000E+00  0.14999999963E+04  0.15000000000E+04  0.10566000000E+00 0. -1.
        994   -1    0    0    0    0 -0.00000000000E+00 -0.00000000000E+00  0.11368683772E-12  0.17120000000E+03  0.17120000000E+03 0.  0.
         13    1    1    2    0    0 -0.20153065915E+01 -0.10650649777E+02  0.31448129541E+02  0.33264001818E+02  0.10566000000E+00 0. -1.
        994    1    1    2    0    0 -0.56199710866E+00  0.15511058344E+02  0.25818341594E+01  0.17192153629E+03  0.17120000000E+03 0.  0.
        998    1    1    2    0    0  0.25773037001E+01 -0.48604085673E+01  0.14659700326E+04  0.14660144619E+04  0.10000000000E+02 0. -1.
</event>
<event>
 5    1  0.1141915E-008  0.3689919E+03  0.7957747E-01  0.3500537E+00
         13   -1    0    0    0    0  0.00000000000E+00  0.00000000000E+00  0.14999999963E+04  0.15000000000E+04  0.10566000000E+00 0. -1.
        994   -1    0    0    0    0 -0.00000000000E+00 -0.00000000000E+00  0.11368683772E-12  0.17120000000E+03  0.17120000000E+03 0.  0.
         13    1    1    2    0    0 -0.43340659741E+02 -0.41595163339E+02  0.14415545171E+03  0.15617098265E+03  0.10566000000E+00 0. -1.
        994    1    1    2    0    0  0.62600548089E+02  0.62796056403E+02  0.37595285672E+02  0.19643069726E+03  0.17120000000E+03 0.  0.
        998    1    1    2    0    0 -0.19259888349E+02 -0.21200893064E+02  0.13182492589E+04  0.13185983201E+04  0.10000000000E+02 0. -1.
</event>
<event>
 5    1  0.1141915E-008  0.3836381E+03  0.7957747E-01  0.3435469E+00
         13   -1    0    0    0    0  0.00000000000E+00  0.00000000000E+00  0.14999999963E+04  0.15000000000E+04  0.10566000000E+00 0.  1.
        994   -1    0    0    0    0 -0.00000000000E+00 -0.00000000000E+00  0.11368683772E-12  0.17120000000E+03  0.17120000000E+03 0.  0.
         13    1    1    2    0    0  0.22425287260E+01 -0.10753525266E+02  0.24980468045E+02  0.27289232099E+02  0.10566000000E+00 0.  1.
        994    1    1    2    0    0 -0.12200780514E+01  0.12291785901E+02  0.28119435108E+01  0.17166806231E+03  0.17120000000E+03 0.  0.
        998    1    1    2    0    0 -0.10224506747E+01 -0.15382606353E+01  0.14722075847E+04  0.14722427056E+04  0.10000000000E+02 0.  1.
</event>
<event>
 5    1  0.1141915E-008  0.3820967E+03  0.7957747E-01  0.3442079E+00
         13   -1    0    0    0    0  0.00000000000E+00  0.00000000000E+00  0.14999999963E+04  0.15000000000E+04  0.10566000000E+00 0. -1.
        994   -1    0    0    0    0 -0.00000000000E+00 -0.00000000000E+00  0.11368683772E-12  0.17120000000E+03  0.17120000000E+03 0.  0.
         13    1    1    2    0    0 -0.37779995417E+02  0.34197559362E+01  0.22671626473E+03  0.22986800264E+03  0.10566000000E+00 0. -1.
        994    1    1    2    0    0  0.25192684424E+02  0.30382511901E+01  0.52190913753E+01  0.17314901453E+03  0.17120000000E+03 0.  0.
        998    1    1    2    0    0  0.12587310992E+02 -0.64580071262E+01  0.12680646402E+04  0.12681829828E+04  0.10000000000E+02 0. -1.
</event>
<event>
 5    1  0.1141915E-008  0.3793498E+03  0.7957747E-01  0.3453995E+00
         13   -1    0    0    0    0  0.00000000000E+00  0.00000000000E+00  0.14999999963E+04  0.15000000000E+04  0.10566000000E+00 0.  1.
        994   -1    0    0    0    0 -0.00000000000E+00 -0.00000000000E+00  0.11368683772E-12  0.17120000000E+03  0.17120000000E+03 0.  0.
         13    1    1    2    0    0 -0.17160234118E+01 -0.78025481783E+02  0.39841169694E+03  0.40598375825E+03  0.10566000000E+00 0.  1.
        994    1    1    2    0    0 -0.22987468604E+02  0.10059686195E+03  0.41002871231E+02  0.20405594281E+03  0.17120000000E+03 0.  0.
        998    1    1    2    0    0  0.24703492016E+02 -0.22571380169E+02  0.10605854281E+04  0.10611602989E+04  0.10000000000E+02 0.  1.
</event>
<event>
 5    1  0.1141915E-008  0.3879092E+03  0.7957747E-01  0.3417427E+00
         13   -1    0    0    0    0  0.00000000000E+00  0.00000000000E+00  0.14999999963E+04  0.15000000000E+04  0.10566000000E+00 0.  1.
        994   -1    0    0    0    0 -0.00000000000E+00 -0.00000000000E+00  0.11368683772E-12  0.17120000000E+03  0.17120000000E+03 0.  0.
         13    1    1    2    0    0  0.11637156065E+03 -0.10102810198E+03  0.50437253193E+03  0.52739044326E+03  0.10566000000E+00 0.  1.
        994    1    1    2    0    0 -0.10474451557E+03  0.47034442741E+02  0.71809642418E+02  0.21828815151E+03  0.17120000000E+03 0.  0.
        998    1    1    2    0    0 -0.11627045079E+02  0.53993659237E+02  0.92381782193E+03  0.92552140523E+03  0.10000000000E+02 0.  1.
</event>
<event>
 5    1  0.1141915E-008  0.3717565E+03  0.7957747E-01  0.3487857E+00
         13   -1    0    0    0    0  0.00000000000E+00  0.00000000000E+00  0.14999999963E+04  0.15000000000E+04  0.10566000000E+00 0. -1.
        994   -1    0    0    0    0 -0.00000000000E+00 -0.00000000000E+00  0.11368683772E-12  0.17120000000E+03  0.17120000000E+03 0.  0.
         13    1    1    2    0    0 -0.10189722136E+03 -0.39788574070E+02  0.58581187763E+03  0.59593769933E+03  0.10566000000E+00 0. -1.
        994    1    1    2    0    0  0.68615286166E+02  0.55962988152E+02  0.35800032013E+02  0.19603825094E+03  0.17120000000E+03 0.  0.
        998    1    1    2    0    0  0.33281935197E+02 -0.16174414082E+02  0.87838808664E+03  0.87922404973E+03  0.10000000000E+02 0. -1.
</event>
<event>
 5    1  0.1141915E-008  0.3832959E+03  0.7957747E-01  0.3436932E+00
         13   -1    0    0    0    0  0.00000000000E+00  0.00000000000E+00  0.14999999963E+04  0.15000000000E+04  0.10566000000E+00 0. -1.
        994   -1    0    0    0    0 -0.00000000000E+00 -0.00000000000E+00  0.11368683772E-12  0.17120000000E+03  0.17120000000E+03 0.  0.
         13    1    1    2    0    0  0.85870795450E+00 -0.24393172642E+02  0.10150700916E+03  0.10440042300E+03  0.10566000000E+00 0. -1.
        994    1    1    2    0    0  0.13532113830E+02  0.41529099490E+02  0.88131703958E+01  0.17690363530E+03  0.17120000000E+03 0.  0.
        998    1    1    2    0    0 -0.14390821785E+02 -0.17135926849E+02  0.13896798167E+04  0.13898959417E+04  0.10000000000E+02 0. -1.
</event>
<event>
 5    1  0.1141915E-008  0.3703659E+03  0.7957747E-01  0.3494211E+00
         13   -1    0    0    0    0  0.00000000000E+00  0.00000000000E+00  0.14999999963E+04  0.15000000000E+04  0.10566000000E+00 0. -1.
        994   -1    0    0    0    0 -0.00000000000E+00 -0.00000000000E+00  0.11368683772E-12  0.17120000000E+03  0.17120000000E+03 0.  0.
         13    1    1    2    0    0  0.34672086638E+02  0.43427268845E+02  0.10705077947E+03  0.12061493199E+03  0.10566000000E+00 0. -1.
        994    1    1    2    0    0 -0.83762247507E+02 -0.57586954692E+02  0.48233058376E+02  0.20486151268E+03  0.17120000000E+03 0.  0.
        998    1    1    2    0    0  0.49090160869E+02  0.14159685847E+02  0.13447161584E+04  0.13457235553E+04  0.10000000000E+02 0. -1.
</event>
<event>
 5    1  0.1141915E-008  0.3716436E+03  0.7957747E-01  0.3488371E+00
         13   -1    0    0    0    0  0.00000000000E+00  0.00000000000E+00  0.14999999963E+04  0.15000000000E+04  0.10566000000E+00 0.  1.
        994   -1    0    0    0    0 -0.00000000000E+00 -0.00000000000E+00  0.11368683772E-12  0.17120000000E+03  0.17120000000E+03 0.  0.
         13    1    1    2    0    0 -0.52592275146E+02 -0.31593584812E+02  0.23637341017E+03  0.24420586030E+03  0.10566000000E+00 0.  1.
        994    1    1    2    0    0  0.32212101927E+02 -0.53126868217E+01  0.12085880833E+02  0.17470361378E+03  0.17120000000E+03 0.  0.
        998    1    1    2    0    0  0.20380173219E+02  0.36906271634E+02  0.12515407053E+04  0.12522905259E+04  0.10000000000E+02 0.  1.
</event>
<event>
 5    1  0.1141915E-008  0.3771310E+03  0.7957747E-01  0.3463747E+00
         13   -1    0    0    0    0  0.00000000000E+00  0.00000000000E+00  0.14999999963E+04  0.15000000000E+04  0.10566000000E+00 0. -1.
        994   -1    0    0    0    0 -0.00000000000E+00 -0.00000000000E+00  0.11368683772E-12  0.17120000000E+03  0.17120000000E+03 0.  0.
         13    1    1    2    0    0 -0.96288657762E-01 -0.43274756917E+02  0.14338265199E+03  0.14977085802E+03  0.10566000000E+00 0. -1.
        994    1    1    2    0    0 -0.92643571123E+01  0.52626030980E+02  0.15286405007E+02  0.17999567114E+03  0.17120000000E+03 0.  0.
        998    1    1    2    0    0  0.93606457701E+01 -0.93512740637E+01  0.13413309393E+04  0.13414334708E+04  0.10000000000E+02 0. -1.
</event>
<event>
 5    1  0.1141915E-008  0.3846743E+03  0.7957747E-01  0.3431055E+00
         13   -1    0    0    0    0  0.00000000000E+00  0.00000000000E+00  0.14999999963E+04  0.15000000000E+04  0.10566000000E+00 0.  1.
        994   -1    0    0    0    0 -0.00000000000E+00 -0.00000000000E+00  0.11368683772E-12  0.17120000000E+03  0.17120000000E+03 0.  0.
         13    1    1    2    0    0  0.91236558722E+01  0.10858550822E+02  0.53872814159E+02  0.55708531590E+02  0.10566000000E+00 0.  1.
        994    1    1    2    0    0 -0.13583208041E+02 -0.98550905499E+01  0.27196289621E+01  0.17204203769E+03  0.17120000000E+03 0.  0.
        998    1    1    2    0    0  0.44595521688E+01 -0.10034602718E+01  0.14434075532E+04  0.14434494307E+04  0.10000000000E+02 0.  1.
</event>
<event>
 5    1  0.1141915E-008  0.3823962E+03  0.7957747E-01  0.3440791E+00
         13   -1    0    0    0    0  0.00000000000E+00  0.00000000000E+00  0.14999999963E+04  0.15000000000E+04  0.10566000000E+00 0. -1.
        994   -1    0    0    0    0 -0.00000000000E+00 -0.00000000000E+00  0.11368683772E-12  0.17120000000E+03  0.17120000000E+03 0.  0.
         13    1    1    2    0    0  0.20060240626E+02 -0.23757836007E+02  0.13811870038E+03  0.14157554373E+03  0.10566000000E+00 0. -1.
        994    1    1    2    0    0 -0.25316083848E+02  0.35693243103E+02  0.93056703552E+01  0.17694899606E+03  0.17120000000E+03 0.  0.
        998    1    1    2    0    0  0.52558432220E+01 -0.11935407096E+02  0.13525756255E+04  0.13526754602E+04  0.10000000000E+02 0. -1.
</event>
<event>
 5    1  0.1141915E-008  0.3745889E+03  0.7957747E-01  0.3475063E+00
         13   -1    0    0    0    0  0.00000000000E+00  0.00000000000E+00  0.14999999963E+04  0.15000000000E+04  0.10566000000E+00 0. -1.
        994   -1    0    0    0    0 -0.00000000000E+00 -0.00000000000E+00  0.11368683772E-12  0.17120000000E+03  0.17120000000E+03 0.  0.
         13    1    1    2    0    0  0.29727776954E+01  0.60714736800E+02  0.32348090588E+03  0.32914286306E+03  0.10566000000E+00 0. -1.
        994    1    1    2    0    0  0.70915589879E+01 -0.10868543001E+02  0.74634573938E+01  0.17185330556E+03  0.17120000000E+03 0.  0.
        998    1    1    2    0    0 -0.10064336683E+02 -0.49846193798E+02  0.11690556330E+04  0.11702038314E+04  0.10000000000E+02 0. -1.
</event>
<event>
 5    1  0.1141915E-008  0.3839903E+03  0.7957747E-01  0.3433966E+00
         13   -1    0    0    0    0  0.00000000000E+00  0.00000000000E+00  0.14999999963E+04  0.15000000000E+04  0.10566000000E+00 0.  1.
        994   -1    0    0    0    0 -0.00000000000E+00 -0.00000000000E+00  0.11368683772E-12  0.17120000000E+03  0.17120000000E+03 0.  0.
         13    1    1    2    0    0 -0.43982522296E+01 -0.12144893810E+02  0.38447613315E+02  0.40559501994E+02  0.10566000000E+00 0.  1.
        994    1    1    2    0    0  0.58672474887E+01  0.80648771976E+01  0.24604994806E+01  0.17150790330E+03  0.17120000000E+03 0.  0.
        998    1    1    2    0    0 -0.14689952591E+01  0.40800166123E+01  0.14590918835E+04  0.14591325947E+04  0.10000000000E+02 0.  1.
</event>
<event>
 5    1  0.1141915E-008  0.3807993E+03  0.7957747E-01  0.3447686E+00
         13   -1    0    0    0    0  0.00000000000E+00  0.00000000000E+00  0.14999999963E+04  0.15000000000E+04  0.10566000000E+00 0. -1.
        994   -1    0    0    0    0 -0.00000000000E+00 -0.00000000000E+00  0.11368683772E-12  0.17120000000E+03  0.17120000000E+03 0.  0.
         13    1    1    2    0    0  0.27803691616E+02 -0.31561741804E+02  0.25376374243E+03  0.25722604252E+03  0.10566000000E+00 0. -1.
        994    1    1    2    0    0 -0.10093465556E+02  0.12389437800E+02  0.45821160682E+01  0.17200526737E+03  0.17120000000E+03 0.  0.
        998    1    1    2    0    0 -0.17710226060E+02  0.19172304004E+02  0.12416541378E+04  0.12419686901E+04  0.10000000000E+02 0. -1.
</event>
<event>
 5    1  0.1141915E-008  0.3840130E+03  0.7957747E-01  0.3433869E+00
         13   -1    0    0    0    0  0.00000000000E+00  0.00000000000E+00  0.14999999963E+04  0.15000000000E+04  0.10566000000E+00 0.  1.
        994   -1    0    0    0    0 -0.00000000000E+00 -0.00000000000E+00  0.11368683772E-12  0.17120000000E+03  0.17120000000E+03 0.  0.
         13    1    1    2    0    0  0.13690317192E+02  0.94379927622E+01  0.62619313424E+02  0.64789583035E+02  0.10566000000E+00 0.  1.
        994    1    1    2    0    0 -0.21294649952E+02  0.73898851617E+00  0.36202644586E+01  0.17255884369E+03  0.17120000000E+03 0.  0.
        998    1    1    2    0    0  0.76043327597E+01 -0.10176981278E+02  0.14337604184E+04  0.14338515733E+04  0.10000000000E+02 0.  1.
</event>
<event>
 5    1  0.1141915E-008  0.3783046E+03  0.7957747E-01  0.3458574E+00
         13   -1    0    0    0    0  0.00000000000E+00  0.00000000000E+00  0.14999999963E+04  0.15000000000E+04  0.10566000000E+00 0.  1.
        994   -1    0    0    0    0 -0.00000000000E+00 -0.00000000000E+00  0.11368683772E-12  0.17120000000E+03  0.17120000000E+03 0.  0.
         13    1    1    2    0    0  0.21837424268E+02 -0.37502186120E+02  0.21937780348E+03  0.22362897595E+03  0.10566000000E+00 0.  1.
        994    1    1    2    0    0 -0.65416027786E+01 -0.59232768145E-02  0.51352780748E+01  0.17140187771E+03  0.17120000000E+03 0.  0.
        998    1    1    2    0    0 -0.15295821489E+02  0.37508109397E+02  0.12754869147E+04  0.12761691463E+04  0.10000000000E+02 0.  1.
</event>
<event>
 5    1  0.1141915E-008  0.3786498E+03  0.7957747E-01  0.3457059E+00
         13   -1    0    0    0    0  0.00000000000E+00  0.00000000000E+00  0.14999999963E+04  0.15000000000E+04  0.10566000000E+00 0.  1.
        994   -1    0    0    0    0 -0.00000000000E+00 -0.00000000000E+00  0.11368683772E-12  0.17120000000E+03  0.17120000000E+03 0.  0.
         13    1    1    2    0    0  0.87730323158E+01  0.10721283803E+02  0.17758322021E+02  0.22522903619E+02  0.10566000000E+00 0.  1.
        994    1    1    2    0    0 -0.12118928503E+02 -0.57651733803E+01  0.54212967951E+01  0.17181075668E+03  0.17120000000E+03 0.  0.
        998    1    1    2    0    0  0.33458961869E+01 -0.49561104225E+01  0.14768203775E+04  0.14768663397E+04  0.10000000000E+02 0.  1.
</event>
<event>
 5    1  0.1141915E-008  0.3849808E+03  0.7957747E-01  0.3429754E+00
         13   -1    0    0    0    0  0.00000000000E+00  0.00000000000E+00  0.14999999963E+04  0.15000000000E+04  0.10566000000E+00 0.  1.
        994   -1    0    0    0    0 -0.00000000000E+00 -0.00000000000E+00  0.11368683772E-12  0.17120000000E+03  0.17120000000E+03 0.  0.
         13    1    1    2    0    0 -0.17564968841E+02  0.14277768525E+01  0.10072172278E+03  0.10225186199E+03  0.10566000000E+00 0.  1.
        994    1    1    2    0    0  0.49121607357E+01  0.12485708694E+02  0.22319618805E+01  0.17173946517E+03  0.17120000000E+03 0.  0.
        998    1    1    2    0    0  0.12652808105E+02 -0.13913485547E+02  0.13970463116E+04  0.13972086728E+04  0.10000000000E+02 0.  1.
</event>
<event>
 5    1  0.1141915E-008  0.3792261E+03  0.7957747E-01  0.3454535E+00
         13   -1    0    0    0    0  0.00000000000E+00  0.00000000000E+00  0.14999999963E+04  0.15000000000E+04  0.10566000000E+00 0.  1.
        994   -1    0    0    0    0 -0.00000000000E+00 -0.00000000000E+00  0.11368683772E-12  0.17120000000E+03  0.17120000000E+03 0.  0.
         13    1    1    2    0    0 -0.43536654373E+01 -0.36898394362E+02  0.14207315235E+03  0.14685107317E+03  0.10566000000E+00 0.  1.
        994    1    1    2    0    0  0.60309028465E+01  0.31822730849E+02  0.80482227529E+01  0.17442268166E+03  0.17120000000E+03 0.  0.
        998    1    1    2    0    0 -0.16772374092E+01  0.50756635128E+01  0.13498786212E+04  0.13499262452E+04  0.10000000000E+02 0.  0.
</event>
<event>
 5    1  0.1141915E-008  0.3775596E+03  0.7957747E-01  0.3461854E+00
         13   -1    0    0    0    0  0.00000000000E+00  0.00000000000E+00  0.14999999963E+04  0.15000000000E+04  0.10566000000E+00 0.  1.
        994   -1    0    0    0    0 -0.00000000000E+00 -0.00000000000E+00  0.11368683772E-12  0.17120000000E+03  0.17120000000E+03 0.  0.
         13    1    1    2    0    0 -0.48532043656E+02 -0.29661668021E+01  0.27160480435E+03  0.27592270352E+03  0.10566000000E+00 0.  1.
        994    1    1    2    0    0  0.14176752615E+01 -0.60713746491E+01  0.55011611313E+01  0.17140179161E+03  0.17120000000E+03 0.  0.
        998    1    1    2    0    0  0.47114368395E+02  0.90375414512E+01  0.12228940308E+04  0.12238755049E+04  0.10000000000E+02 0.  1.
</event>
<event>
 5    1  0.1141915E-008  0.3762647E+03  0.7957747E-01  0.3467586E+00
         13   -1    0    0    0    0  0.00000000000E+00  0.00000000000E+00  0.14999999963E+04  0.15000000000E+04  0.10566000000E+00 0.  1.
        994   -1    0    0    0    0 -0.00000000000E+00 -0.00000000000E+00  0.11368683772E-12  0.17120000000E+03  0.17120000000E+03 0.  0.
         13    1    1    2    0    0 -0.13945668685E+02  0.11430146695E+02  0.24443960264E+02  0.30375126107E+02  0.10566000000E+00 0.  1.
        994    1    1    2    0    0  0.35238485135E+01 -0.14954923152E+02  0.68301214182E+01  0.17202371288E+03  0.17120000000E+03 0.  0.
        998    1    1    2    0    0  0.10421820172E+02  0.35247764563E+01  0.14687259146E+04  0.14688011610E+04  0.10000000000E+02 0.  1.
</event>
<event>
 5    1  0.1141915E-008  0.3845800E+03  0.7957747E-01  0.3431455E+00
         13   -1    0    0    0    0  0.00000000000E+00  0.00000000000E+00  0.14999999963E+04  0.15000000000E+04  0.10566000000E+00 0.  1.
        994   -1    0    0    0    0 -0.00000000000E+00 -0.00000000000E+00  0.11368683772E-12  0.17120000000E+03  0.17120000000E+03 0.  0.
         13    1    1    2    0    0  0.75573751786E+01 -0.17821696021E+02  0.10323785041E+03  0.10503709673E+03  0.10566000000E+00 0.  1.
        994    1    1    2    0    0 -0.10445189626E+02  0.68238422041E+01  0.23515981013E+01  0.17167013958E+03  0.17120000000E+03 0.  0.
        998    1    1    2    0    0  0.28878144469E+01  0.10997853817E+02  0.13944105478E+04  0.13944927637E+04  0.10000000000E+02 0.  1.
</event>
<event>
 5    1  0.1141915E-008  0.3729301E+03  0.7957747E-01  0.3482532E+00
         13   -1    0    0    0    0  0.00000000000E+00  0.00000000000E+00  0.14999999963E+04  0.15000000000E+04  0.10566000000E+00 0. -1.
        994   -1    0    0    0    0 -0.00000000000E+00 -0.00000000000E+00  0.11368683772E-12  0.17120000000E+03  0.17120000000E+03 0.  0.
         13    1    1    2    0    0  0.98889404108E+02  0.40572617522E+02  0.34798182962E+03  0.36402831819E+03  0.10566000000E+00 0. -1.
        994    1    1    2    0    0 -0.82263524624E+02 -0.78549114324E+02  0.59718278065E+02  0.21403963086E+03  0.17120000000E+03 0.  0.
        998    1    1    2    0    0 -0.16625879483E+02  0.37976496802E+02  0.10922998886E+04  0.10931320509E+04  0.10000000000E+02 0. -1.
</event>
<event>
 5    1  0.1141915E-008  0.3854517E+03  0.7957747E-01  0.3427759E+00
         13   -1    0    0    0    0  0.00000000000E+00  0.00000000000E+00  0.14999999963E+04  0.15000000000E+04  0.10566000000E+00 0.  1.
        994   -1    0    0    0    0 -0.00000000000E+00 -0.00000000000E+00  0.11368683772E-12  0.17120000000E+03  0.17120000000E+03 0.  0.
         13    1    1    2    0    0  0.69129263530E+01  0.97123269395E+01  0.48886764056E+02  0.50319426758E+02  0.10566000000E+00 0.  1.
        994    1    1    2    0    0 -0.62850191717E+01 -0.13087954638E+02  0.20985881466E+01  0.17182735549E+03  0.17120000000E+03 0.  0.
        998    1    1    2    0    0 -0.62790718132E+00  0.33756276985E+01  0.14490146441E+04  0.14490532178E+04  0.10000000000E+02 0.  1.
</event>
<event>
 5    1  0.1141915E-008  0.3841468E+03  0.7957747E-01  0.3433299E+00
         13   -1    0    0    0    0  0.00000000000E+00  0.00000000000E+00  0.14999999963E+04  0.15000000000E+04  0.10566000000E+00 0. -1.
        994   -1    0    0    0    0 -0.00000000000E+00 -0.00000000000E+00  0.11368683772E-12  0.17120000000E+03  0.17120000000E+03 0.  0.
         13    1    1    2    0    0 -0.14456173575E+02 -0.16007366345E+01  0.49450631919E+02  0.51545314757E+02  0.10566000000E+00 0. -1.
        994    1    1    2    0    0  0.17419475442E+02 -0.97106076490E+01  0.33670428691E+01  0.17239057690E+03  0.17120000000E+03 0.  0.
        998    1    1    2    0    0 -0.29633018672E+01  0.11311344284E+02  0.14471823215E+04  0.14472641083E+04  0.10000000000E+02 0. -1.
</event>
<event>
 5    1  0.1141915E-008  0.3805093E+03  0.7957747E-01  0.3448944E+00
         13   -1    0    0    0    0  0.00000000000E+00  0.00000000000E+00  0.14999999963E+04  0.15000000000E+04  0.10566000000E+00 0.  1.
        994   -1    0    0    0    0 -0.00000000000E+00 -0.00000000000E+00  0.11368683772E-12  0.17120000000E+03  0.17120000000E+03 0.  0.
         13    1    1    2    0    0  0.28171614224E+01 -0.21471195878E+02  0.58368323820E+02  0.62256092397E+02  0.10566000000E+00 0.  1.
        994    1    1    2    0    0 -0.63531426417E+01  0.16238762796E+02  0.48916894514E+01  0.17215524524E+03  0.17120000000E+03 0.  0.
        998    1    1    2    0    0  0.35359812192E+01  0.52324330814E+01  0.14367399830E+04  0.14367886624E+04  0.10000000000E+02 0.  1.
</event>
<event>
 5    1  0.1141915E-008  0.3786426E+03  0.7957747E-01  0.3457090E+00
         13   -1    0    0    0    0  0.00000000000E+00  0.00000000000E+00  0.14999999963E+04  0.15000000000E+04  0.10566000000E+00 0.  1.
        994   -1    0    0    0    0 -0.00000000000E+00 -0.00000000000E+00  0.11368683772E-12  0.17120000000E+03  0.17120000000E+03 0.  0.
         13    1    1    2    0    0  0.14862754436E+02  0.91434286279E+01  0.29973672978E+02  0.34683367662E+02  0.10566000000E+00 0.  1.
        994    1    1    2    0    0 -0.11910803192E+01 -0.13314065758E+02  0.54201553961E+01  0.17180658050E+03  0.17120000000E+03 0.  0.
        998    1    1    2    0    0 -0.13671674117E+02  0.41706371304E+01  0.14646061679E+04  0.14647100518E+04  0.10000000000E+02 0.  1.
</event>
<event>
 5    1  0.1141915E-008  0.3724338E+03  0.7957747E-01  0.3484780E+00
         13   -1    0    0    0    0  0.00000000000E+00  0.00000000000E+00  0.14999999963E+04  0.15000000000E+04  0.10566000000E+00 0. -1.
        994   -1    0    0    0    0 -0.00000000000E+00 -0.00000000000E+00  0.11368683772E-12  0.17120000000E+03  0.17120000000E+03 0.  0.
         13    1    1    2    0    0 -0.15093571653E+02 -0.29447882289E+02  0.62937256971E+02  0.71106280704E+02  0.10566000000E+00 0. -1.
        994    1    1    2    0    0  0.13347306920E+02  0.30485580357E+02  0.11809512486E+02  0.17480396390E+03  0.17120000000E+03 0.  0.
        998    1    1    2    0    0  0.17462647321E+01 -0.10376980680E+01  0.14252532268E+04  0.14252897554E+04  0.10000000000E+02 0. -1.
</event>
<event>
 5    1  0.1141915E-008  0.3835661E+03  0.7957747E-01  0.3435776E+00
         13   -1    0    0    0    0  0.00000000000E+00  0.00000000000E+00  0.14999999963E+04  0.15000000000E+04  0.10566000000E+00 0.  1.
        994   -1    0    0    0    0 -0.00000000000E+00 -0.00000000000E+00  0.11368683772E-12  0.17120000000E+03  0.17120000000E+03 0.  0.
         13    1    1    2    0    0 -0.99678160440E+01 -0.14975655209E+02  0.79342910207E+02  0.81356844640E+02  0.10566000000E+00 0.  1.
        994    1    1    2    0    0 -0.20035230925E+02 -0.16754738792E+01  0.36804081204E+01  0.17241578552E+03  0.17120000000E+03 0.  0.
        998    1    1    2    0    0  0.30003046969E+02  0.16651129088E+02  0.14169766780E+04  0.14174273698E+04  0.10000000000E+02 0.  1.
</event>
<event>
 5    1  0.1141915E-008  0.3773011E+03  0.7957747E-01  0.3462995E+00
         13   -1    0    0    0    0  0.00000000000E+00  0.00000000000E+00  0.14999999963E+04  0.15000000000E+04  0.10566000000E+00 0.  1.
        994   -1    0    0    0    0 -0.00000000000E+00 -0.00000000000E+00  0.11368683772E-12  0.17120000000E+03  0.17120000000E+03 0.  0.
         13    1    1    2    0    0  0.25296360798E+02  0.15333482765E+02  0.72599684568E+02  0.78394814413E+02  0.10566000000E+00 0.  1.
        994    1    1    2    0    0 -0.36076845368E+02 -0.83437226477E+01  0.10140714862E+02  0.17545207487E+03  0.17120000000E+03 0.  0.
        998    1    1    2    0    0  0.10780484570E+02 -0.69897601169E+01  0.14172595968E+04  0.14173531107E+04  0.10000000000E+02 0.  1.
</event>
<event>
 5    1  0.1141915E-008  0.3825805E+03  0.7957747E-01  0.3439999E+00
         13   -1    0    0    0    0  0.00000000000E+00  0.00000000000E+00  0.14999999963E+04  0.15000000000E+04  0.10566000000E+00 0.  1.
        994   -1    0    0    0    0 -0.00000000000E+00 -0.00000000000E+00  0.11368683772E-12  0.17120000000E+03  0.17120000000E+03 0.  0.
         13    1    1    2    0    0 -0.13202793131E+02  0.57132878274E+01  0.35920011715E+02  0.38693847184E+02  0.10566000000E+00 0.  1.
        994    1    1    2    0    0  0.13280782982E+01 -0.14002571072E+02  0.34921674308E+01  0.17181231336E+03  0.17120000000E+03 0.  0.
        998    1    1    2    0    0  0.11874714833E+02  0.82892832450E+01  0.14605878171E+04  0.14606938395E+04  0.10000000000E+02 0.  1.
</event>
<event>
 5    1  0.1141915E-008  0.3792281E+03  0.7957747E-01  0.3454526E+00
         13   -1    0    0    0    0  0.00000000000E+00  0.00000000000E+00  0.14999999963E+04  0.15000000000E+04  0.10566000000E+00 0. -1.
        994   -1    0    0    0    0 -0.00000000000E+00 -0.00000000000E+00  0.11368683772E-12  0.17120000000E+03  0.17120000000E+03 0.  0.
         13    1    1    2    0    0 -0.82612585427E+02  0.10294036176E+03  0.78469294483E+03  0.79571639808E+03  0.10566000000E+00 0. -1.
        994    1    1    2    0    0  0.57018516993E+02 -0.13925874413E+03  0.84588456509E+02  0.24312292379E+03  0.17120000000E+03 0.  0.
        998    1    1    2    0    0  0.25594068434E+02  0.36318382367E+02  0.63071859494E+03  0.63236067813E+03  0.10000000000E+02 0. -1.
</event>
<event>
 5    1  0.1141915E-008  0.3836794E+03  0.7957747E-01  0.3435292E+00
         13   -1    0    0    0    0  0.00000000000E+00  0.00000000000E+00  0.14999999963E+04  0.15000000000E+04  0.10566000000E+00 0. -1.
        994   -1    0    0    0    0 -0.00000000000E+00 -0.00000000000E+00  0.11368683772E-12  0.17120000000E+03  0.17120000000E+03 0.  0.
         13    1    1    2    0    0 -0.16584157707E+02  0.58237563351E+01  0.74250448972E+02  0.76302626175E+02  0.10566000000E+00 0. -1.
        994    1    1    2    0    0  0.16959613007E+01  0.21866476804E+02  0.38775378204E+01  0.17264267836E+03  0.17120000000E+03 0.  0.
        998    1    1    2    0    0  0.14888196407E+02 -0.27690233139E+02  0.14218720095E+04  0.14222546955E+04  0.10000000000E+02 0. -1.
</event>
<event>
 5    1  0.1301402E-008  0.3845635E+03  0.7957747E-01  0.3431526E+00
         13   -1    0    0    0    0  0.00000000000E+00  0.00000000000E+00  0.14999999963E+04  0.15000000000E+04  0.10566000000E+00 0.  1.
        994   -1    0    0    0    0 -0.00000000000E+00 -0.00000000000E+00  0.11368683772E-12  0.17120000000E+03  0.17120000000E+03 0.  0.
         13    1    1    2    0    0 -0.53161040697E+01  0.84744243900E+01  0.26925025627E+02  0.28723596576E+02  0.10566000000E+00 0.  1.
        994    1    1    2    0    0  0.67353843863E+01 -0.91879313358E+00  0.19992111447E+01  0.17134656819E+03  0.17120000000E+03 0.  0.
        998    1    1    2    0    0 -0.14192803166E+01 -0.75556312564E+01  0.14710757595E+04  0.14711298352E+04  0.10000000000E+02 0.  1.
</event>
<event>
 5    1  0.1141915E-008  0.3805793E+03  0.7957747E-01  0.3448640E+00
         13   -1    0    0    0    0  0.00000000000E+00  0.00000000000E+00  0.14999999963E+04  0.15000000000E+04  0.10566000000E+00 0.  1.
        994   -1    0    0    0    0 -0.00000000000E+00 -0.00000000000E+00  0.11368683772E-12  0.17120000000E+03  0.17120000000E+03 0.  0.
         13    1    1    2    0    0 -0.16082191732E+02  0.41092866579E+01  0.35619877124E+02  0.39297709069E+02  0.10566000000E+00 0.  1.
        994    1    1    2    0    0 -0.13416312481E+01 -0.82759307369E+01  0.40755646636E+01  0.17145361248E+03  0.17120000000E+03 0.  0.
        998    1    1    2    0    0  0.17423822980E+02  0.41666440790E+01  0.14603045545E+04  0.14604486785E+04  0.10000000000E+02 0.  1.
</event>
<event>
 5    1  0.1141915E-008  0.3844906E+03  0.7957747E-01  0.3431835E+00
         13   -1    0    0    0    0  0.00000000000E+00  0.00000000000E+00  0.14999999963E+04  0.15000000000E+04  0.10566000000E+00 0. -1.
        994   -1    0    0    0    0 -0.00000000000E+00 -0.00000000000E+00  0.11368683772E-12  0.17120000000E+03  0.17120000000E+03 0.  0.
         13    1    1    2    0    0  0.41820161152E+01 -0.11152427666E+02  0.37124974909E+02  0.38988983414E+02  0.10566000000E+00 0. -1.
        994    1    1    2    0    0 -0.43582863361E+01  0.80987055292E+01  0.21619208618E+01  0.17146048406E+03  0.17120000000E+03 0.  0.
        998    1    1    2    0    0  0.17627022098E+00  0.30537221368E+01  0.14607131005E+04  0.14607505325E+04  0.10000000000E+02 0. -1.
</event>
<event>
 5    1  0.1141915E-008  0.3785295E+03  0.7957747E-01  0.3457586E+00
         13   -1    0    0    0    0  0.00000000000E+00  0.00000000000E+00  0.14999999963E+04  0.15000000000E+04  0.10566000000E+00 0.  1.
        994   -1    0    0    0    0 -0.00000000000E+00 -0.00000000000E+00  0.11368683772E-12  0.17120000000E+03  0.17120000000E+03 0.  0.
         13    1    1    2    0    0  0.18091607345E+02 -0.33578844858E+02  0.12850011716E+03  0.13404154711E+03  0.10566000000E+00 0.  1.
        994    1    1    2    0    0 -0.54667861789E+02  0.26599816599E+02  0.17395466214E+02  0.18250525362E+03  0.17120000000E+03 0.  0.
        998    1    1    2    0    0  0.36576254444E+02  0.69790282591E+01  0.13541044129E+04  0.13546531993E+04  0.10000000000E+02 0.  1.
</event>
<event>
 5    1  0.1141915E-008  0.3754558E+03  0.7957747E-01  0.3471187E+00
         13   -1    0    0    0    0  0.00000000000E+00  0.00000000000E+00  0.14999999963E+04  0.15000000000E+04  0.10566000000E+00 0. -1.
        994   -1    0    0    0    0 -0.00000000000E+00 -0.00000000000E+00  0.11368683772E-12  0.17120000000E+03  0.17120000000E+03 0.  0.
         13    1    1    2    0    0  0.47607939499E+02  0.11872854841E+02  0.27174706930E+03  0.27614119835E+03  0.10566000000E+00 0. -1.
        994    1    1    2    0    0  0.64220696816E+01  0.49945757806E+02  0.15100439590E+02  0.17909015880E+03  0.17120000000E+03 0.  0.
        998    1    1    2    0    0 -0.54030009181E+02 -0.61818612647E+02  0.12131524874E+04  0.12159686429E+04  0.10000000000E+02 0. -1.
</event>
<event>
 5    1  0.1141915E-008  0.3787345E+03  0.7957747E-01  0.3456687E+00
         13   -1    0    0    0    0  0.00000000000E+00  0.00000000000E+00  0.14999999963E+04  0.15000000000E+04  0.10566000000E+00 0. -1.
        994   -1    0    0    0    0 -0.00000000000E+00 -0.00000000000E+00  0.11368683772E-12  0.17120000000E+03  0.17120000000E+03 0.  0.
         13    1    1    2    0    0 -0.15782031059E+02  0.28907243622E+02  0.11876900054E+03  0.12325091436E+03  0.10566000000E+00 0. -1.
        994    1    1    2    0    0 -0.89714537153E+01 -0.14969124318E+02  0.57963700130E+01  0.17218478321E+03  0.17120000000E+03 0.  0.
        998    1    1    2    0    0  0.24753484774E+02 -0.13938119303E+02  0.13754346257E+04  0.13757643024E+04  0.10000000000E+02 0. -1.
</event>
<event>
 5    1  0.1141915E-008  0.3702412E+03  0.7957747E-01  0.3494783E+00
         13   -1    0    0    0    0  0.00000000000E+00  0.00000000000E+00  0.14999999963E+04  0.15000000000E+04  0.10566000000E+00 0. -1.
        994   -1    0    0    0    0 -0.00000000000E+00 -0.00000000000E+00  0.11368683772E-12  0.17120000000E+03  0.17120000000E+03 0.  0.
         13    1    1    2    0    0 -0.12354167989E+02  0.53300002428E+00  0.17604189057E+01  0.12490788385E+02  0.10566000000E+00 0. -1.
        994    1    1    2    0    0  0.12536780222E+02  0.63942580039E+01  0.11759674441E+02  0.17217952067E+03  0.17120000000E+03 0.  0.
        998    1    1    2    0    0 -0.18261223332E+00 -0.69272580282E+01  0.14864799029E+04  0.14865296909E+04  0.10000000000E+02 0. -1.
</event>
<event>
 5    1  0.1141915E-008  0.3769322E+03  0.7957747E-01  0.3464626E+00
         13   -1    0    0    0    0  0.00000000000E+00  0.00000000000E+00  0.14999999963E+04  0.15000000000E+04  0.10566000000E+00 0.  1.
        994   -1    0    0    0    0 -0.00000000000E+00 -0.00000000000E+00  0.11368683772E-12  0.17120000000E+03  0.17120000000E+03 0.  0.
         13    1    1    2    0    0  0.32015874319E+02 -0.15529261974E+02  0.38967707420E+02  0.52769949512E+02  0.10566000000E+00 0.  1.
        994    1    1    2    0    0  0.63092347270E+00  0.23338170237E+02  0.16607729466E+02  0.17358088873E+03  0.17120000000E+03 0.  0.
        998    1    1    2    0    0 -0.32646797792E+02 -0.78089082628E+01  0.14444245594E+04  0.14448491618E+04  0.10000000000E+02 0.  1.
</event>
<event>
 5    1  0.1141915E-008  0.3691984E+03  0.7957747E-01  0.3499583E+00
         13   -1    0    0    0    0  0.00000000000E+00  0.00000000000E+00  0.14999999963E+04  0.15000000000E+04  0.10566000000E+00 0.  1.
        994   -1    0    0    0    0 -0.00000000000E+00 -0.00000000000E+00  0.11368683772E-12  0.17120000000E+03  0.17120000000E+03 0.  0.
         13    1    1    2    0    0 -0.13548710153E+03  0.83928277334E+02  0.62079486945E+03  0.64092666625E+03  0.10566000000E+00 0.  1.
        994    1    1    2    0    0  0.14545434647E+03 -0.84898441464E+02  0.11558509295E+03  0.26652216790E+03  0.17120000000E+03 0.  0.
        998    1    1    2    0    0 -0.99672449423E+01  0.97016412990E+00  0.76362003388E+03  0.76375116585E+03  0.10000000000E+02 0.  0.
</event>
<event>
 5    1  0.1141915E-008  0.3716451E+03  0.7957747E-01  0.3488364E+00
         13   -1    0    0    0    0  0.00000000000E+00  0.00000000000E+00  0.14999999963E+04  0.15000000000E+04  0.10566000000E+00 0.  1.
        994   -1    0    0    0    0 -0.00000000000E+00 -0.00000000000E+00  0.11368683772E-12  0.17120000000E+03  0.17120000000E+03 0.  0.
         13    1    1    2    0    0 -0.83458745699E+01  0.82620611789E+02  0.33545545742E+03  0.34558095172E+03  0.10566000000E+00 0.  1.
        994    1    1    2    0    0  0.23719565695E+02 -0.23277970217E+02  0.15704892985E+02  0.17510158582E+03  0.17120000000E+03 0.  0.
        998    1    1    2    0    0 -0.15373691125E+02 -0.59342641573E+02  0.11488396459E+04  0.11505174625E+04  0.10000000000E+02 0.  1.
</event>
<event>
 5    1  0.1141915E-008  0.3852850E+03  0.7957747E-01  0.3428465E+00
         13   -1    0    0    0    0  0.00000000000E+00  0.00000000000E+00  0.14999999963E+04  0.15000000000E+04  0.10566000000E+00 0.  1.
        994   -1    0    0    0    0 -0.00000000000E+00 -0.00000000000E+00  0.11368683772E-12  0.17120000000E+03  0.17120000000E+03 0.  0.
         13    1    1    2    0    0  0.10335151056E+02 -0.13179898607E+01  0.35639378119E+02  0.37131238619E+02  0.10566000000E+00 0.  1.
        994    1    1    2    0    0 -0.12026246289E+02 -0.36193893759E+01  0.20071379724E+01  0.17167177748E+03  0.17120000000E+03 0.  0.
        998    1    1    2    0    0  0.16910952338E+01  0.49373792366E+01  0.14623534802E+04  0.14623969839E+04  0.10000000000E+02 0.  1.
</event>
<event>
 5    1  0.1141915E-008  0.3796556E+03  0.7957747E-01  0.3452660E+00
         13   -1    0    0    0    0  0.00000000000E+00  0.00000000000E+00  0.14999999963E+04  0.15000000000E+04  0.10566000000E+00 0.  1.
        994   -1    0    0    0    0 -0.00000000000E+00 -0.00000000000E+00  0.11368683772E-12  0.17120000000E+03  0.17120000000E+03 0.  0.
         13    1    1    2    0    0  0.21135401048E+02 -0.19963200144E+01  0.59654088644E+02  0.63319127656E+02  0.10566000000E+00 0.  1.
        994    1    1    2    0    0  0.23366173815E+02 -0.30638474834E+02  0.92920157090E+01  0.17572841482E+03  0.17120000000E+03 0.  0.
        998    1    1    2    0    0 -0.44501574863E+02  0.32634794849E+02  0.14310538919E+04  0.14321524575E+04  0.10000000000E+02 0.  1.
</event>
<event>
 5    1  0.1141915E-008  0.3858831E+03  0.7957747E-01  0.3425935E+00
         13   -1    0    0    0    0  0.00000000000E+00  0.00000000000E+00  0.14999999963E+04  0.15000000000E+04  0.10566000000E+00 0. -1.
        994   -1    0    0    0    0 -0.00000000000E+00 -0.00000000000E+00  0.11368683772E-12  0.17120000000E+03  0.17120000000E+03 0.  0.
         13    1    1    2    0    0 -0.10122096806E+02  0.62311523835E+01  0.59278360005E+02  0.60458409115E+02  0.10566000000E+00 0. -1.
        994    1    1    2    0    0  0.10677597560E+02 -0.44308967108E+00  0.15669157801E+01  0.17154038196E+03  0.17120000000E+03 0.  0.
        998    1    1    2    0    0 -0.55550075321E+00 -0.57880627124E+01  0.14391547205E+04  0.14392012089E+04  0.10000000000E+02 0. -1.
</event>
<event>
 5    1  0.3022771E-008  0.3861862E+03  0.7957747E-01  0.3424657E+00
         13   -1    0    0    0    0  0.00000000000E+00  0.00000000000E+00  0.14999999963E+04  0.15000000000E+04  0.10566000000E+00 0.  1.
        994   -1    0    0    0    0 -0.00000000000E+00 -0.00000000000E+00  0.11368683772E-12  0.17120000000E+03  0.17120000000E+03 0.  0.
         13    1    1    2    0    0 -0.10259344406E+02  0.18791298235E+01  0.51506087886E+02  0.52551627281E+02  0.10566000000E+00 0.  1.
        994    1    1    2    0    0  0.11571620388E+02  0.16927152667E+01  0.14905396563E+01  0.17160544686E+03  0.17120000000E+03 0.  0.
        998    1    1    2    0    0 -0.13122759821E+01 -0.35718450902E+01  0.14470033687E+04  0.14470429259E+04  0.10000000000E+02 0.  1.
</event>
<event>
 5    1  0.1141915E-008  0.3834912E+03  0.7957747E-01  0.3436096E+00
         13   -1    0    0    0    0  0.00000000000E+00  0.00000000000E+00  0.14999999963E+04  0.15000000000E+04  0.10566000000E+00 0.  1.
        994   -1    0    0    0    0 -0.00000000000E+00 -0.00000000000E+00  0.11368683772E-12  0.17120000000E+03  0.17120000000E+03 0.  0.
         13    1    1    2    0    0  0.24092471841E+01  0.12152259694E+02  0.32485133769E+02  0.34767469964E+02  0.10566000000E+00 0.  1.
        994    1    1    2    0    0  0.63515388208E+01 -0.17956391696E+01  0.25250594213E+01  0.17134579741E+03  0.17120000000E+03 0.  0.
        998    1    1    2    0    0 -0.87607860049E+01 -0.10356620525E+02  0.14649898031E+04  0.14650867326E+04  0.10000000000E+02 0.  1.
</event>
<event>
 5    1  0.1141915E-008  0.3855890E+03  0.7957747E-01  0.3427178E+00
         13   -1    0    0    0    0  0.00000000000E+00  0.00000000000E+00  0.14999999963E+04  0.15000000000E+04  0.10566000000E+00 0. -1.
        994   -1    0    0    0    0 -0.00000000000E+00 -0.00000000000E+00  0.11368683772E-12  0.17120000000E+03  0.17120000000E+03 0.  0.
         13    1    1    2    0    0 -0.33567348892E+01  0.15531172262E+02  0.92763616392E+02  0.94114742050E+02  0.10566000000E+00 0. -1.
        994    1    1    2    0    0 -0.12809247574E-01 -0.13325373006E+02  0.19210246938E+01  0.17172855344E+03  0.17120000000E+03 0.  0.
        998    1    1    2    0    0  0.33695441368E+01 -0.22057992559E+01  0.14053153552E+04  0.14053567045E+04  0.10000000000E+02 0. -1.
</event>
<event>
 5    1  0.1141915E-008  0.3838845E+03  0.7957747E-01  0.3434417E+00
         13   -1    0    0    0    0  0.00000000000E+00  0.00000000000E+00  0.14999999963E+04  0.15000000000E+04  0.10566000000E+00 0.  1.
        994   -1    0    0    0    0 -0.00000000000E+00 -0.00000000000E+00  0.11368683772E-12  0.17120000000E+03  0.17120000000E+03 0.  0.
         13    1    1    2    0    0  0.15600274383E+02  0.17850673595E+01  0.59815253212E+02  0.61841981753E+02  0.10566000000E+00 0.  1.
        994    1    1    2    0    0 -0.17302176553E+01  0.28011977569E+02  0.47890458678E+01  0.17355125900E+03  0.17120000000E+03 0.  0.
        998    1    1    2    0    0 -0.13870056727E+02 -0.29797044928E+02  0.14353956972E+04  0.14358067592E+04  0.10000000000E+02 0.  1.
</event>
<event>
 5    1  0.1141915E-008  0.3744602E+03  0.7957747E-01  0.3475640E+00
         13   -1    0    0    0    0  0.00000000000E+00  0.00000000000E+00  0.14999999963E+04  0.15000000000E+04  0.10566000000E+00 0. -1.
        994   -1    0    0    0    0 -0.00000000000E+00 -0.00000000000E+00  0.11368683772E-12  0.17120000000E+03  0.17120000000E+03 0.  0.
         13    1    1    2    0    0 -0.58669822965E+02 -0.27334601938E+02  0.24976968888E+03  0.25801983885E+03  0.10566000000E+00 0. -1.
        994    1    1    2    0    0  0.57403232884E+02  0.30100754097E+02  0.21400326329E+02  0.18430572566E+03  0.17120000000E+03 0.  0.
        998    1    1    2    0    0  0.12665900806E+01 -0.27661521589E+01  0.12288299811E+04  0.12288744355E+04  0.10000000000E+02 0.  1.
</event>
<event>
 5    1  0.1141915E-008  0.3842965E+03  0.7957747E-01  0.3432661E+00
         13   -1    0    0    0    0  0.00000000000E+00  0.00000000000E+00  0.14999999963E+04  0.15000000000E+04  0.10566000000E+00 0.  1.
        994   -1    0    0    0    0 -0.00000000000E+00 -0.00000000000E+00  0.11368683772E-12  0.17120000000E+03  0.17120000000E+03 0.  0.
         13    1    1    2    0    0  0.19781467994E+02  0.24295952123E+01  0.11524499137E+03  0.11695566942E+03  0.10566000000E+00 0.  1.
        994    1    1    2    0    0  0.40966552754E+01  0.95130333741E+01  0.23335231520E+01  0.17152890636E+03  0.17120000000E+03 0.  0.
        998    1    1    2    0    0 -0.23878123269E+02 -0.11942628586E+02  0.13824214818E+04  0.13827154242E+04  0.10000000000E+02 0.  1.
</event>
<event>
 5    1  0.1141915E-008  0.3786656E+03  0.7957747E-01  0.3456989E+00
         13   -1    0    0    0    0  0.00000000000E+00  0.00000000000E+00  0.14999999963E+04  0.15000000000E+04  0.10566000000E+00 0. -1.
        994   -1    0    0    0    0 -0.00000000000E+00 -0.00000000000E+00  0.11368683772E-12  0.17120000000E+03  0.17120000000E+03 0.  0.
         13    1    1    2    0    0 -0.51087491601E+02  0.23880791975E+01  0.25356027693E+03  0.25866669659E+03  0.10566000000E+00 0. -1.
        994    1    1    2    0    0  0.37058228976E+02 -0.10989863082E+02  0.98413843103E+01  0.17578504564E+03  0.17120000000E+03 0.  0.
        998    1    1    2    0    0  0.14029262625E+02  0.86017838845E+01  0.12365983350E+04  0.12367482578E+04  0.10000000000E+02 0. -1.
</event>
<event>
 5    1  0.1141915E-008  0.3842810E+03  0.7957747E-01  0.3432727E+00
         13   -1    0    0    0    0  0.00000000000E+00  0.00000000000E+00  0.14999999963E+04  0.15000000000E+04  0.10566000000E+00 0. -1.
        994   -1    0    0    0    0 -0.00000000000E+00 -0.00000000000E+00  0.11368683772E-12  0.17120000000E+03  0.17120000000E+03 0.  0.
         13    1    1    2    0    0  0.30859493578E+01  0.12305254204E+02  0.41800777661E+02  0.43683618687E+02  0.10566000000E+00 0. -1.
        994    1    1    2    0    0 -0.10621037480E+02  0.30031305970E+01  0.23892287212E+01  0.17157206545E+03  0.17120000000E+03 0.  0.
        998    1    1    2    0    0  0.75350881222E+01 -0.15308384801E+02  0.14558099899E+04  0.14559443159E+04  0.10000000000E+02 0. -1.
</event>
<event>
 5    1  0.1141915E-008  0.3822337E+03  0.7957747E-01  0.3441490E+00
         13   -1    0    0    0    0  0.00000000000E+00  0.00000000000E+00  0.14999999963E+04  0.15000000000E+04  0.10566000000E+00 0.  1.
        994   -1    0    0    0    0 -0.00000000000E+00 -0.00000000000E+00  0.11368683772E-12  0.17120000000E+03  0.17120000000E+03 0.  0.
         13    1    1    2    0    0 -0.19351033452E+02 -0.10822416979E+02  0.92429688172E+02  0.95051804952E+02  0.10566000000E+00 0.  1.
        994    1    1    2    0    0 -0.16966543743E+01 -0.15959401136E+02  0.38650181389E+01  0.17199406817E+03  0.17120000000E+03 0.  0.
        998    1    1    2    0    0  0.21047687827E+02  0.26781818115E+02  0.14037052900E+04  0.14041541269E+04  0.10000000000E+02 0.  1.
</event>
<event>
 5    1  0.1141915E-008  0.3728290E+03  0.7957747E-01  0.3482990E+00
         13   -1    0    0    0    0  0.00000000000E+00  0.00000000000E+00  0.14999999963E+04  0.15000000000E+04  0.10566000000E+00 0. -1.
        994   -1    0    0    0    0 -0.00000000000E+00 -0.00000000000E+00  0.11368683772E-12  0.17120000000E+03  0.17120000000E+03 0.  0.
         13    1    1    2    0    0 -0.15577984025E+03 -0.97944347640E+01  0.81708255135E+03  0.83185767802E+03  0.10566000000E+00 0. -1.
        994    1    1    2    0    0  0.14605299812E+03 -0.19471480921E+02  0.86232073872E+02  0.24177681319E+03  0.17120000000E+03 0.  0.
        998    1    1    2    0    0  0.97268421299E+01  0.29265915685E+02  0.59668537105E+03  0.59756550880E+03  0.10000000000E+02 0.  1.
</event>
<event>
 5    1  0.1141915E-008  0.3849657E+03  0.7957747E-01  0.3429818E+00
         13   -1    0    0    0    0  0.00000000000E+00  0.00000000000E+00  0.14999999963E+04  0.15000000000E+04  0.10566000000E+00 0.  1.
        994   -1    0    0    0    0 -0.00000000000E+00 -0.00000000000E+00  0.11368683772E-12  0.17120000000E+03  0.17120000000E+03 0.  0.
         13    1    1    2    0    0 -0.48254530570E+01  0.12893975677E+02  0.53195639781E+02  0.54948401812E+02  0.10566000000E+00 0.  1.
        994    1    1    2    0    0 -0.26787966865E+00 -0.24649971465E+02  0.36484453980E+01  0.17300417338E+03  0.17120000000E+03 0.  0.
        998    1    1    2    0    0  0.50933327256E+01  0.11755995789E+02  0.14431559111E+04  0.14432474248E+04  0.10000000000E+02 0.  1.
</event>
<event>
 5    1  0.1141915E-008  0.3813817E+03  0.7957747E-01  0.3445164E+00
         13   -1    0    0    0    0  0.00000000000E+00  0.00000000000E+00  0.14999999963E+04  0.15000000000E+04  0.10566000000E+00 0. -1.
        994   -1    0    0    0    0 -0.00000000000E+00 -0.00000000000E+00  0.11368683772E-12  0.17120000000E+03  0.17120000000E+03 0.  0.
         13    1    1    2    0    0  0.10563033966E+01  0.44605585789E+02  0.24956228987E+03  0.25351947016E+03  0.10566000000E+00 0. -1.
        994    1    1    2    0    0  0.63730043654E+01 -0.42066391560E+02  0.94846806531E+01  0.17666237758E+03  0.17120000000E+03 0.  0.
        998    1    1    2    0    0 -0.74293077620E+01 -0.25391942295E+01  0.12409530258E+04  0.12410181523E+04  0.10000000000E+02 0. -1.
</event>
<event>
 5    1  0.1141915E-008  0.3848692E+03  0.7957747E-01  0.3430227E+00
         13   -1    0    0    0    0  0.00000000000E+00  0.00000000000E+00  0.14999999963E+04  0.15000000000E+04  0.10566000000E+00 0.  1.
        994   -1    0    0    0    0 -0.00000000000E+00 -0.00000000000E+00  0.11368683772E-12  0.17120000000E+03  0.17120000000E+03 0.  0.
         13    1    1    2    0    0 -0.11257030698E+02  0.11285241924E+02  0.74525574944E+02  0.76211219057E+02  0.10566000000E+00 0.  1.
        994    1    1    2    0    0  0.68710462214E+01 -0.89248021691E+01  0.21126007893E+01  0.17158311820E+03  0.17120000000E+03 0.  0.
        998    1    1    2    0    0  0.43859844762E+01 -0.23604397547E+01  0.14233618205E+04  0.14234056627E+04  0.10000000000E+02 0.  1.
</event>
<event>
 5    1  0.1141915E-008  0.3799175E+03  0.7957747E-01  0.3451518E+00
         13   -1    0    0    0    0  0.00000000000E+00  0.00000000000E+00  0.14999999963E+04  0.15000000000E+04  0.10566000000E+00 0.  1.
        994   -1    0    0    0    0 -0.00000000000E+00 -0.00000000000E+00  0.11368683772E-12  0.17120000000E+03  0.17120000000E+03 0.  0.
         13    1    1    2    0    0  0.12173316701E+01 -0.18237135200E+02  0.37474084846E+02  0.41694042689E+02  0.10566000000E+00 0.  1.
        994    1    1    2    0    0  0.65820615257E+01  0.20022854245E+02  0.56616813525E+01  0.17258543641E+03  0.17120000000E+03 0.  0.
        998    1    1    2    0    0 -0.77993931958E+01 -0.17857190448E+01  0.14568642301E+04  0.14569205209E+04  0.10000000000E+02 0.  1.
</event>
<event>
 5    1  0.1141915E-008  0.3804124E+03  0.7957747E-01  0.3449365E+00
         13   -1    0    0    0    0  0.00000000000E+00  0.00000000000E+00  0.14999999963E+04  0.15000000000E+04  0.10566000000E+00 0. -1.
        994   -1    0    0    0    0 -0.00000000000E+00 -0.00000000000E+00  0.11368683772E-12  0.17120000000E+03  0.17120000000E+03 0.  0.
         13    1    1    2    0    0 -0.13479062835E+02  0.11772512575E+02  0.36936489028E+02  0.41043788483E+02  0.10566000000E+00 0. -1.
        994    1    1    2    0    0  0.34834391461E+02 -0.61511821437E+01  0.81136385772E+01  0.17500440852E+03  0.17120000000E+03 0.  0.
        998    1    1    2    0    0 -0.21355328626E+02 -0.56213304312E+01  0.14549498687E+04  0.14551518030E+04  0.10000000000E+02 0. -1.
</event>
<event>
 5    1  0.1141915E-008  0.3819563E+03  0.7957747E-01  0.3442684E+00
         13   -1    0    0    0    0  0.00000000000E+00  0.00000000000E+00  0.14999999963E+04  0.15000000000E+04  0.10566000000E+00 0. -1.
        994   -1    0    0    0    0 -0.00000000000E+00 -0.00000000000E+00  0.11368683772E-12  0.17120000000E+03  0.17120000000E+03 0.  0.
         13    1    1    2    0    0  0.20760472524E+02 -0.19454146698E+02  0.11729123107E+03  0.12069260580E+03  0.10566000000E+00 0. -1.
        994    1    1    2    0    0 -0.21062143309E+02  0.22296757091E+02  0.62798432784E+01  0.17403917860E+03  0.17120000000E+03 0.  0.
        998    1    1    2    0    0  0.30167078427E+00 -0.28426103926E+01  0.13764289219E+04  0.13764682156E+04  0.10000000000E+02 0. -1.
</event>
<event>
 5    1  0.1141915E-008  0.3830949E+03  0.7957747E-01  0.3437792E+00
         13   -1    0    0    0    0  0.00000000000E+00  0.00000000000E+00  0.14999999963E+04  0.15000000000E+04  0.10566000000E+00 0.  1.
        994   -1    0    0    0    0 -0.00000000000E+00 -0.00000000000E+00  0.11368683772E-12  0.17120000000E+03  0.17120000000E+03 0.  0.
         13    1    1    2    0    0  0.86951654421E+01  0.30792209243E+02  0.16080518794E+03  0.16395757282E+03  0.10566000000E+00 0.  1.
        994    1    1    2    0    0 -0.67483102664E+01 -0.45138138587E+02  0.95025243436E+01  0.17743373190E+03  0.17120000000E+03 0.  0.
        998    1    1    2    0    0 -0.19468551758E+01  0.14345929344E+02  0.13296922840E+04  0.13298086953E+04  0.10000000000E+02 0.  1.
</event>
<event>
 5    1  0.1141915E-008  0.3794342E+03  0.7957747E-01  0.3453626E+00
         13   -1    0    0    0    0  0.00000000000E+00  0.00000000000E+00  0.14999999963E+04  0.15000000000E+04  0.10566000000E+00 0.  1.
        994   -1    0    0    0    0 -0.00000000000E+00 -0.00000000000E+00  0.11368683772E-12  0.17120000000E+03  0.17120000000E+03 0.  0.
         13    1    1    2    0    0  0.15793536987E+02 -0.13020949881E+02  0.44891074281E+02  0.49337619121E+02  0.10566000000E+00 0.  1.
        994    1    1    2    0    0 -0.17209701826E+02  0.85267945925E+01  0.56554681969E+01  0.17236677285E+03  0.17120000000E+03 0.  0.
        998    1    1    2    0    0  0.14161648391E+01  0.44941552889E+01  0.14494534538E+04  0.14494956080E+04  0.10000000000E+02 0.  0.
</event>
<event>
 5    1  0.1141915E-008  0.3826559E+03  0.7957747E-01  0.3439675E+00
         13   -1    0    0    0    0  0.00000000000E+00  0.00000000000E+00  0.14999999963E+04  0.15000000000E+04  0.10566000000E+00 0.  1.
        994   -1    0    0    0    0 -0.00000000000E+00 -0.00000000000E+00  0.11368683772E-12  0.17120000000E+03  0.17120000000E+03 0.  0.
         13    1    1    2    0    0  0.42979387207E+01 -0.20241290123E+02  0.76011138657E+02  0.78777448975E+02  0.10566000000E+00 0.  1.
        994    1    1    2    0    0 -0.23822509508E+01  0.12020504192E+02  0.32962375496E+01  0.17166966192E+03  0.17120000000E+03 0.  0.
        998    1    1    2    0    0 -0.19156877699E+01  0.82207859315E+01  0.14206926201E+04  0.14207528891E+04  0.10000000000E+02 0.  1.
</event>
<event>
 5    1  0.1141915E-008  0.3836224E+03  0.7957747E-01  0.3435536E+00
         13   -1    0    0    0    0  0.00000000000E+00  0.00000000000E+00  0.14999999963E+04  0.15000000000E+04  0.10566000000E+00 0. -1.
        994   -1    0    0    0    0 -0.00000000000E+00 -0.00000000000E+00  0.11368683772E-12  0.17120000000E+03  0.17120000000E+03 0.  0.
         13    1    1    2    0    0  0.10314699961E+02 -0.11858514690E+01  0.22399238601E+02  0.24688789621E+02  0.10566000000E+00 0. -1.
        994    1    1    2    0    0 -0.75352409792E+01  0.91723793994E+01  0.27812784540E+01  0.17163358620E+03  0.17120000000E+03 0.  0.
        998    1    1    2    0    0 -0.27794589821E+01 -0.79865279304E+01  0.14748194792E+04  0.14748776242E+04  0.10000000000E+02 0. -1.
</event>
<event>
 5    1  0.1141915E-008  0.3815068E+03  0.7957747E-01  0.3444624E+00
         13   -1    0    0    0    0  0.00000000000E+00  0.00000000000E+00  0.14999999963E+04  0.15000000000E+04  0.10566000000E+00 0.  1.
        994   -1    0    0    0    0 -0.00000000000E+00 -0.00000000000E+00  0.11368683772E-12  0.17120000000E+03  0.17120000000E+03 0.  0.
         13    1    1    2    0    0  0.40509407797E+01  0.31777474693E+02  0.16495568230E+03  0.16803751458E+03  0.10566000000E+00 0.  1.
        994    1    1    2    0    0  0.14095479229E+02 -0.90629948237E+01  0.43090997542E+01  0.17207216146E+03  0.17120000000E+03 0.  0.
        998    1    1    2    0    0 -0.18146420009E+02 -0.22714479870E+02  0.13307352142E+04  0.13310903240E+04  0.10000000000E+02 0.  1.
</event>
<event>
 5    1  0.1141915E-008  0.3817943E+03  0.7957747E-01  0.3443383E+00
         13   -1    0    0    0    0  0.00000000000E+00  0.00000000000E+00  0.14999999963E+04  0.15000000000E+04  0.10566000000E+00 0.  1.
        994   -1    0    0    0    0 -0.00000000000E+00 -0.00000000000E+00  0.11368683772E-12  0.17120000000E+03  0.17120000000E+03 0.  0.
         13    1    1    2    0    0 -0.18731211326E+02  0.47196595929E+01  0.56323275636E+02  0.59543731885E+02  0.10566000000E+00 0.  1.
        994    1    1    2    0    0  0.13196688077E+02 -0.44851939908E+01  0.38760005102E+01  0.17181016536E+03  0.17120000000E+03 0.  0.
        998    1    1    2    0    0  0.55345232489E+01 -0.23446560215E+00  0.14398007201E+04  0.14398461028E+04  0.10000000000E+02 0.  1.
</event>
<event>
 5    1  0.1141915E-008  0.3854777E+03  0.7957747E-01  0.3427649E+00
         13   -1    0    0    0    0  0.00000000000E+00  0.00000000000E+00  0.14999999963E+04  0.15000000000E+04  0.10566000000E+00 0.  1.
        994   -1    0    0    0    0 -0.00000000000E+00 -0.00000000000E+00  0.11368683772E-12  0.17120000000E+03  0.17120000000E+03 0.  0.
         13    1    1    2    0    0 -0.13292355113E+02  0.66439447297E+01  0.81230946823E+02  0.82579092946E+02  0.10566000000E+00 0.  1.
        994    1    1    2    0    0  0.90161565782E+01  0.19877425661E+01  0.16731020122E+01  0.17145693766E+03  0.17120000000E+03 0.  0.
        998    1    1    2    0    0  0.42761985345E+01 -0.86316872959E+01  0.14170959474E+04  0.14171639694E+04  0.10000000000E+02 0.  1.
</event>
<event>
 5    1  0.1141915E-008  0.3802594E+03  0.7957747E-01  0.3450030E+00
         13   -1    0    0    0    0  0.00000000000E+00  0.00000000000E+00  0.14999999963E+04  0.15000000000E+04  0.10566000000E+00 0. -1.
        994   -1    0    0    0    0 -0.00000000000E+00 -0.00000000000E+00  0.11368683772E-12  0.17120000000E+03  0.17120000000E+03 0.  0.
         13    1    1    2    0    0  0.12404982386E+02  0.85632557004E+01  0.27973677624E+02  0.31776575336E+02  0.10566000000E+00 0. -1.
        994    1    1    2    0    0  0.31200252157E+02 -0.37629360656E+02  0.12024663477E+02  0.17844735092E+03  0.17120000000E+03 0.  0.
        998    1    1    2    0    0 -0.43605234543E+02  0.29066104956E+02  0.14600016552E+04  0.14609760737E+04  0.10000000000E+02 0. -1.
</event>
<event>
 5    1  0.1141915E-008  0.3706589E+03  0.7957747E-01  0.3492868E+00
         13   -1    0    0    0    0  0.00000000000E+00  0.00000000000E+00  0.14999999963E+04  0.15000000000E+04  0.10566000000E+00 0. -1.
        994   -1    0    0    0    0 -0.00000000000E+00 -0.00000000000E+00  0.11368683772E-12  0.17120000000E+03  0.17120000000E+03 0.  0.
         13    1    1    2    0    0 -0.31519306282E+02  0.10987991181E+02  0.42044973838E+02  0.53684202591E+02  0.10566000000E+00 0. -1.
        994    1    1    2    0    0  0.37511272751E+02 -0.37329148157E+02  0.21166348368E+02  0.18043839721E+03  0.17120000000E+03 0.  0.
        998    1    1    2    0    0 -0.59919664682E+01  0.26341156977E+02  0.14367886741E+04  0.14370774002E+04  0.10000000000E+02 0. -1.
</event>
<event>
 5    1  0.1141915E-008  0.3833533E+03  0.7957747E-01  0.3436686E+00
         13   -1    0    0    0    0  0.00000000000E+00  0.00000000000E+00  0.14999999963E+04  0.15000000000E+04  0.10566000000E+00 0.  1.
        994   -1    0    0    0    0 -0.00000000000E+00 -0.00000000000E+00  0.11368683772E-12  0.17120000000E+03  0.17120000000E+03 0.  0.
         13    1    1    2    0    0 -0.99667820451E+01  0.14605964781E+02  0.57121213240E+02  0.59795611190E+02  0.10566000000E+00 0.  1.
        994    1    1    2    0    0  0.41745958444E+02 -0.10966260479E+02  0.86340185315E+01  0.17676812550E+03  0.17120000000E+03 0.  0.
        998    1    1    2    0    0 -0.31779176399E+02 -0.36397043023E+01  0.14342447645E+04  0.14346362633E+04  0.10000000000E+02 0.  1.
</event>
<event>
 5    1  0.1141915E-008  0.3799839E+03  0.7957747E-01  0.3451228E+00
         13   -1    0    0    0    0  0.00000000000E+00  0.00000000000E+00  0.14999999963E+04  0.15000000000E+04  0.10566000000E+00 0.  1.
        994   -1    0    0    0    0 -0.00000000000E+00 -0.00000000000E+00  0.11368683772E-12  0.17120000000E+03  0.17120000000E+03 0.  0.
         13    1    1    2    0    0 -0.82355217863E+01 -0.65943909991E+01  0.11676148089E+02  0.15737007656E+02  0.10566000000E+00 0.  1.
        994    1    1    2    0    0  0.53029517198E+01  0.25314963736E+01  0.42567017525E+01  0.17135369643E+03  0.17120000000E+03 0.  0.
        998    1    1    2    0    0  0.29325700665E+01  0.40628946255E+01  0.14840671464E+04  0.14841092959E+04  0.10000000000E+02 0.  1.
</event>
<event>
 5    1  0.1141915E-008  0.3755954E+03  0.7957747E-01  0.3470564E+00
         13   -1    0    0    0    0  0.00000000000E+00  0.00000000000E+00  0.14999999963E+04  0.15000000000E+04  0.10566000000E+00 0.  1.
        994   -1    0    0    0    0 -0.00000000000E+00 -0.00000000000E+00  0.11368683772E-12  0.17120000000E+03  0.17120000000E+03 0.  0.
         13    1    1    2    0    0 -0.54046317148E+02  0.51051539670E+02  0.33638384881E+03  0.34450162409E+03  0.10566000000E+00 0.  1.
        994    1    1    2    0    0  0.48634887878E+02 -0.55851969499E+02  0.25213083940E+02  0.18822841023E+03  0.17120000000E+03 0.  0.
        998    1    1    2    0    0  0.54114292701E+01  0.48004298289E+01  0.11384030635E+04  0.11384699657E+04  0.10000000000E+02 0.  0.
</event>
<event>
 5    1  0.1634221E-008  0.3857968E+03  0.7957747E-01  0.3426300E+00
         13   -1    0    0    0    0  0.00000000000E+00  0.00000000000E+00  0.14999999963E+04  0.15000000000E+04  0.10566000000E+00 0. -1.
        994   -1    0    0    0    0 -0.00000000000E+00 -0.00000000000E+00  0.11368683772E-12  0.17120000000E+03  0.17120000000E+03 0.  0.
         13    1    1    2    0    0  0.11647484935E+02  0.97951311142E+01  0.83798240500E+02  0.85169036474E+02  0.10566000000E+00 0. -1.
        994    1    1    2    0    0 -0.35786201023E+02  0.22019940037E+01  0.54631224700E+01  0.17499939048E+03  0.17120000000E+03 0.  0.
        998    1    1    2    0    0  0.24138716088E+02 -0.11997125118E+02  0.14107386333E+04  0.14110315730E+04  0.10000000000E+02 0. -1.
</event>
<event>
 5    1  0.1141915E-008  0.3707228E+03  0.7957747E-01  0.3492576E+00
         13   -1    0    0    0    0  0.00000000000E+00  0.00000000000E+00  0.14999999963E+04  0.15000000000E+04  0.10566000000E+00 0.  1.
        994   -1    0    0    0    0 -0.00000000000E+00 -0.00000000000E+00  0.11368683772E-12  0.17120000000E+03  0.17120000000E+03 0.  0.
         13    1    1    2    0    0  0.36152293387E+02  0.54754768435E+02  0.19760098679E+03  0.20820959182E+03  0.10566000000E+00 0.  1.
        994    1    1    2    0    0 -0.32751706399E+02 -0.68523314998E+02  0.29057584615E+02  0.18953074208E+03  0.17120000000E+03 0.  0.
        998    1    1    2    0    0 -0.34005869885E+01  0.13768546564E+02  0.12733414249E+04  0.12734596661E+04  0.10000000000E+02 0.  1.
</event>
<event>
 5    1  0.1141915E-008  0.3766021E+03  0.7957747E-01  0.3466089E+00
         13   -1    0    0    0    0  0.00000000000E+00  0.00000000000E+00  0.14999999963E+04  0.15000000000E+04  0.10566000000E+00 0. -1.
        994   -1    0    0    0    0 -0.00000000000E+00 -0.00000000000E+00  0.11368683772E-12  0.17120000000E+03  0.17120000000E+03 0.  0.
         13    1    1    2    0    0 -0.66121767028E+02 -0.13028552219E+02  0.31044831228E+03  0.31767907865E+03  0.10566000000E+00 0. -1.
        994    1    1    2    0    0  0.64402739963E+02  0.13767090766E+02  0.20665831872E+02  0.18459079693E+03  0.17120000000E+03 0.  0.
        998    1    1    2    0    0  0.17190270653E+01 -0.73853854705E+00  0.11688858521E+04  0.11689301244E+04  0.10000000000E+02 0.  0.
</event>
<event>
 5    1  0.1141915E-008  0.3836338E+03  0.7957747E-01  0.3435487E+00
         13   -1    0    0    0    0  0.00000000000E+00  0.00000000000E+00  0.14999999963E+04  0.15000000000E+04  0.10566000000E+00 0.  1.
        994   -1    0    0    0    0 -0.00000000000E+00 -0.00000000000E+00  0.11368683772E-12  0.17120000000E+03  0.17120000000E+03 0.  0.
         13    1    1    2    0    0  0.14617648504E+01 -0.11103454165E+02  0.25985712101E+02  0.28296498870E+02  0.10566000000E+00 0.  1.
        994    1    1    2    0    0 -0.16884663535E+01  0.12130976985E+02  0.28056324636E+01  0.17166048787E+03  0.17120000000E+03 0.  0.
        998    1    1    2    0    0  0.22670150306E+00 -0.10275228201E+01  0.14712086517E+04  0.14712430133E+04  0.10000000000E+02 0.  1.
</event>
<event>
 5    1  0.1141915E-008  0.3687504E+03  0.7957747E-01  0.3501654E+00
         13   -1    0    0    0    0  0.00000000000E+00  0.00000000000E+00  0.14999999963E+04  0.15000000000E+04  0.10566000000E+00 0. -1.
        994   -1    0    0    0    0 -0.00000000000E+00 -0.00000000000E+00  0.11368683772E-12  0.17120000000E+03  0.17120000000E+03 0.  0.
         13    1    1    2    0    0 -0.53267008283E+02  0.12826807674E+02  0.12997882145E+03  0.14105462189E+03  0.10566000000E+00 0. -1.
        994    1    1    2    0    0  0.54480468738E+02 -0.14646742015E+02  0.21440962090E+02  0.18152631595E+03  0.17120000000E+03 0.  0.
        998    1    1    2    0    0 -0.12134604550E+01  0.18199343416E+01  0.13485802127E+04  0.13486190622E+04  0.10000000000E+02 0. -1.
</event>
<event>
 5    1  0.1141915E-008  0.3850974E+03  0.7957747E-01  0.3429259E+00
         13   -1    0    0    0    0  0.00000000000E+00  0.00000000000E+00  0.14999999963E+04  0.15000000000E+04  0.10566000000E+00 0.  1.
        994   -1    0    0    0    0 -0.00000000000E+00 -0.00000000000E+00  0.11368683772E-12  0.17120000000E+03  0.17120000000E+03 0.  0.
         13    1    1    2    0    0 -0.32972941930E+01  0.11311318926E+02  0.43160290390E+02  0.44739690605E+02  0.10566000000E+00 0.  1.
        994    1    1    2    0    0  0.18054132348E+01 -0.10764459988E+02  0.19735658939E+01  0.17155893471E+03  0.17120000000E+03 0.  0.
        998    1    1    2    0    0  0.14918809582E+01 -0.54685893758E+00  0.14548661400E+04  0.14549013747E+04  0.10000000000E+02 0.  1.
</event>
<event>
 5    1  0.1141915E-008  0.3700221E+03  0.7957747E-01  0.3495789E+00
         13   -1    0    0    0    0  0.00000000000E+00  0.00000000000E+00  0.14999999963E+04  0.15000000000E+04  0.10566000000E+00 0. -1.
        994   -1    0    0    0    0 -0.00000000000E+00 -0.00000000000E+00  0.11368683772E-12  0.17120000000E+03  0.17120000000E+03 0.  0.
         13    1    1    2    0    0 -0.48140804088E+01  0.21991245378E+02  0.22956383991E+02  0.32152713314E+02  0.10566000000E+00 0. -1.
        994    1    1    2    0    0 -0.14353330564E+01 -0.26082974293E+02  0.11620375329E+02  0.17357089287E+03  0.17120000000E+03 0.  0.
        998    1    1    2    0    0  0.62494134652E+01  0.40917289154E+01  0.14654232370E+04  0.14654763938E+04  0.10000000000E+02 0. -1.
</event>
<event>
 5    1  0.1141915E-008  0.3791675E+03  0.7957747E-01  0.3454791E+00
         13   -1    0    0    0    0  0.00000000000E+00  0.00000000000E+00  0.14999999963E+04  0.15000000000E+04  0.10566000000E+00 0. -1.
        994   -1    0    0    0    0 -0.00000000000E+00 -0.00000000000E+00  0.11368683772E-12  0.17120000000E+03  0.17120000000E+03 0.  0.
         13    1    1    2    0    0  0.25066606732E+02  0.27862542042E+02  0.17483935944E+03  0.17881126585E+03  0.10566000000E+00 0. -1.
        994    1    1    2    0    0  0.30544180961E+01 -0.50874987885E+01  0.46720038349E+01  0.17136650704E+03  0.17120000000E+03 0.  0.
        998    1    1    2    0    0 -0.28121024828E+02 -0.22775043253E+02  0.13204886330E+04  0.13210222271E+04  0.10000000000E+02 0. -1.
</event>
<event>
 5    1  0.1141915E-008  0.3815803E+03  0.7957747E-01  0.3444306E+00
         13   -1    0    0    0    0  0.00000000000E+00  0.00000000000E+00  0.14999999963E+04  0.15000000000E+04  0.10566000000E+00 0.  1.
        994   -1    0    0    0    0 -0.00000000000E+00 -0.00000000000E+00  0.11368683772E-12  0.17120000000E+03  0.17120000000E+03 0.  0.
         13    1    1    2    0    0  0.52349042783E+01 -0.14786606539E+02  0.35954930778E+02  0.39227747412E+02  0.10566000000E+00 0.  1.
        994    1    1    2    0    0 -0.90916620761E+01  0.53199993569E+01  0.37066331599E+01  0.17156380691E+03  0.17120000000E+03 0.  0.
        998    1    1    2    0    0  0.38567577977E+01  0.94666071823E+01  0.14603384323E+04  0.14604084457E+04  0.10000000000E+02 0.  1.
</event>
<event>
 5    1  0.1141915E-008  0.3841870E+03  0.7957747E-01  0.3433127E+00
         13   -1    0    0    0    0  0.00000000000E+00  0.00000000000E+00  0.14999999963E+04  0.15000000000E+04  0.10566000000E+00 0. -1.
        994   -1    0    0    0    0 -0.00000000000E+00 -0.00000000000E+00  0.11368683772E-12  0.17120000000E+03  0.17120000000E+03 0.  0.
         13    1    1    2    0    0 -0.59115746989E+01 -0.19848265970E+02  0.10552925119E+03  0.10754224471E+03  0.10566000000E+00 0. -1.
        994    1    1    2    0    0  0.66850518703E+01  0.10930434589E+02  0.25757980065E+01  0.17169810440E+03  0.17120000000E+03 0.  0.
        998    1    1    2    0    0 -0.77347717143E+00  0.89178313811E+01  0.13918949471E+04  0.13919596509E+04  0.10000000000E+02 0. -1.
</event>
<event>
 5    1  0.1141915E-008  0.3836105E+03  0.7957747E-01  0.3435587E+00
         13   -1    0    0    0    0  0.00000000000E+00  0.00000000000E+00  0.14999999963E+04  0.15000000000E+04  0.10566000000E+00 0.  1.
        994   -1    0    0    0    0 -0.00000000000E+00 -0.00000000000E+00  0.11368683772E-12  0.17120000000E+03  0.17120000000E+03 0.  0.
         13    1    1    2    0    0 -0.21718729194E+02  0.10179884078E+02  0.12545038945E+03  0.12772292126E+03  0.10566000000E+00 0.  1.
        994    1    1    2    0    0  0.16957992546E+02  0.63495752175E+01  0.34055258577E+01  0.17218864139E+03  0.17120000000E+03 0.  0.
        998    1    1    2    0    0  0.47607366481E+01 -0.16529459295E+02  0.13711440810E+04  0.13712884373E+04  0.10000000000E+02 0.  1.
</event>
<event>
 5    1  0.1141915E-008  0.3829260E+03  0.7957747E-01  0.3438516E+00
         13   -1    0    0    0    0  0.00000000000E+00  0.00000000000E+00  0.14999999963E+04  0.15000000000E+04  0.10566000000E+00 0.  1.
        994   -1    0    0    0    0 -0.00000000000E+00 -0.00000000000E+00  0.11368683772E-12  0.17120000000E+03  0.17120000000E+03 0.  0.
         13    1    1    2    0    0  0.12820602679E+02  0.29578204127E+02  0.17881016061E+03  0.18169293523E+03  0.10566000000E+00 0.  1.
        994    1    1    2    0    0 -0.44657457090E+01 -0.29607159011E+02  0.56373478777E+01  0.17389004123E+03  0.17120000000E+03 0.  0.
        998    1    1    2    0    0 -0.83548569695E+01  0.28954884246E-01  0.13155524878E+04  0.13156170235E+04  0.10000000000E+02 0.  1.
</event>
<event>
 5    1  0.1141915E-008  0.3845260E+03  0.7957747E-01  0.3431685E+00
         13   -1    0    0    0    0  0.00000000000E+00  0.00000000000E+00  0.14999999963E+04  0.15000000000E+04  0.10566000000E+00 0. -1.
        994   -1    0    0    0    0 -0.00000000000E+00 -0.00000000000E+00  0.11368683772E-12  0.17120000000E+03  0.17120000000E+03 0.  0.
         13    1    1    2    0    0  0.87179018653E+01 -0.64693993131E+01  0.32077847865E+02  0.33865239229E+02  0.10566000000E+00 0. -1.
        994    1    1    2    0    0  0.68401802226E+01  0.10756895192E+02  0.24010766524E+01  0.17169072202E+03  0.17120000000E+03 0.  0.
        998    1    1    2    0    0 -0.15558082088E+02 -0.42874958792E+01  0.14655210718E+04  0.14656440387E+04  0.10000000000E+02 0. -1.
</event>
<event>
 5    1  0.1141915E-008  0.3918375E+03  0.7957747E-01  0.3401181E+00
         13   -1    0    0    0    0  0.00000000000E+00  0.00000000000E+00  0.14999999963E+04  0.15000000000E+04  0.10566000000E+00 0. -1.
        994   -1    0    0    0    0 -0.00000000000E+00 -0.00000000000E+00  0.11368683772E-12  0.17120000000E+03  0.17120000000E+03 0.  0.
         13    1    1    2    0    0 -0.23466501815E+02 -0.56411624029E+02  0.69916194068E+02  0.92850597144E+02  0.10566000000E+00 0. -1.
        994    1    1    2    0    0  0.19823943439E+02  0.59134701363E+02  0.37880625190E+02  0.18610288392E+03  0.17120000000E+03 0.  0.
        998    1    1    2    0    0  0.36425583761E+01 -0.27230773341E+01  0.13922031770E+04  0.13922465189E+04  0.10000000000E+02 0. -1.
</event>
<event>
 5    1  0.1141915E-008  0.3816718E+03  0.7957747E-01  0.3443911E+00
         13   -1    0    0    0    0  0.00000000000E+00  0.00000000000E+00  0.14999999963E+04  0.15000000000E+04  0.10566000000E+00 0. -1.
        994   -1    0    0    0    0 -0.00000000000E+00 -0.00000000000E+00  0.11368683772E-12  0.17120000000E+03  0.17120000000E+03 0.  0.
         13    1    1    2    0    0  0.83225389781E+02 -0.98648252245E+02  0.77419551696E+03  0.78488002448E+03  0.10566000000E+00 0. -1.
        994    1    1    2    0    0 -0.91568017632E+02  0.11540995029E+03  0.79167466566E+02  0.23933467413E+03  0.17120000000E+03 0.  0.
        998    1    1    2    0    0  0.83426278512E+01 -0.16761698041E+02  0.64663701275E+03  0.64698530139E+03  0.10000000000E+02 0. -1.
</event>
<event>
 5    1  0.1141915E-008  0.3899317E+03  0.7957747E-01  0.3409022E+00
         13   -1    0    0    0    0  0.00000000000E+00  0.00000000000E+00  0.14999999963E+04  0.15000000000E+04  0.10566000000E+00 0.  1.
        994   -1    0    0    0    0 -0.00000000000E+00 -0.00000000000E+00  0.11368683772E-12  0.17120000000E+03  0.17120000000E+03 0.  0.
         13    1    1    2    0    0 -0.26512657107E+02 -0.16450450359E+02  0.12950543214E+02  0.33782629227E+02  0.10566000000E+00 0.  1.
        994    1    1    2    0    0  0.26886136199E+02  0.15104062733E+02  0.25478144845E+02  0.17581118535E+03  0.17120000000E+03 0.  0.
        998    1    1    2    0    0 -0.37347909237E+00  0.13463876260E+01  0.14615713082E+04  0.14616061854E+04  0.10000000000E+02 0.  1.
</event>
<event>
 5    1  0.1141915E-008  0.3820238E+03  0.7957747E-01  0.3442393E+00
         13   -1    0    0    0    0  0.00000000000E+00  0.00000000000E+00  0.14999999963E+04  0.15000000000E+04  0.10566000000E+00 0. -1.
        994   -1    0    0    0    0 -0.00000000000E+00 -0.00000000000E+00  0.11368683772E-12  0.17120000000E+03  0.17120000000E+03 0.  0.
         13    1    1    2    0    0 -0.66166560453E+00  0.20766534327E+02  0.62414795113E+02  0.65782251120E+02  0.10566000000E+00 0. -1.
        994    1    1    2    0    0  0.93974777085E+02 -0.34732966844E+02  0.37196375553E+02  0.20181835414E+03  0.17120000000E+03 0.  0.
        998    1    1    2    0    0 -0.93313111480E+02  0.13966432517E+02  0.14003888256E+04  0.14035993947E+04  0.10000000000E+02 0. -1.
</event>
<event>
 5    1  0.1141915E-008  0.3755303E+03  0.7957747E-01  0.3470855E+00
         13   -1    0    0    0    0  0.00000000000E+00  0.00000000000E+00  0.14999999963E+04  0.15000000000E+04  0.10566000000E+00 0. -1.
        994   -1    0    0    0    0 -0.00000000000E+00 -0.00000000000E+00  0.11368683772E-12  0.17120000000E+03  0.17120000000E+03 0.  0.
         13    1    1    2    0    0 -0.27258418926E+02 -0.20545348834E+02  0.84747650901E+02  0.91363604670E+02  0.10566000000E+00 0. -1.
        994    1    1    2    0    0  0.30309939596E+02  0.13641591656E+02  0.10164517828E+02  0.17469270988E+03  0.17120000000E+03 0.  0.
        998    1    1    2    0    0 -0.30515206700E+01  0.69037571786E+01  0.14050878275E+04  0.14051436855E+04  0.10000000000E+02 0. -1.
</event>
<event>
 5    1  0.1141915E-008  0.3764346E+03  0.7957747E-01  0.3466831E+00
         13   -1    0    0    0    0  0.00000000000E+00  0.00000000000E+00  0.14999999963E+04  0.15000000000E+04  0.10566000000E+00 0.  1.
        994   -1    0    0    0    0 -0.00000000000E+00 -0.00000000000E+00  0.11368683772E-12  0.17120000000E+03  0.17120000000E+03 0.  0.
         13    1    1    2    0    0  0.24899652726E+02 -0.19133180734E+02  0.82335582156E+02  0.88120545640E+02  0.10566000000E+00 0.  1.
        994    1    1    2    0    0 -0.12469856148E+02  0.81662869988E+01  0.66958398653E+01  0.17197807950E+03  0.17120000000E+03 0.  0.
        998    1    1    2    0    0 -0.12429796578E+02  0.10966893735E+02  0.14109685743E+04  0.14111013749E+04  0.10000000000E+02 0.  1.
</event>
<event>
 5    1  0.1141915E-008  0.3804912E+03  0.7957747E-01  0.3449022E+00
         13   -1    0    0    0    0  0.00000000000E+00  0.00000000000E+00  0.14999999963E+04  0.15000000000E+04  0.10566000000E+00 0. -1.
        994   -1    0    0    0    0 -0.00000000000E+00 -0.00000000000E+00  0.11368683772E-12  0.17120000000E+03  0.17120000000E+03 0.  0.
         13    1    1    2    0    0  0.30313081749E+02  0.30443885833E+02  0.25067526962E+03  0.25433013010E+03  0.10566000000E+00 0. -1.
        994    1    1    2    0    0 -0.23748783724E+01 -0.23313481837E+02  0.57203368048E+01  0.17289106610E+03  0.17120000000E+03 0.  0.
        998    1    1    2    0    0 -0.27938203377E+02 -0.71304039959E+01  0.12436043898E+04  0.12439788038E+04  0.10000000000E+02 0. -1.
</event>
<event>
 5    1  0.1141915E-008  0.3699086E+03  0.7957747E-01  0.3496311E+00
         13   -1    0    0    0    0  0.00000000000E+00  0.00000000000E+00  0.14999999963E+04  0.15000000000E+04  0.10566000000E+00 0.  1.
        994   -1    0    0    0    0 -0.00000000000E+00 -0.00000000000E+00  0.11368683772E-12  0.17120000000E+03  0.17120000000E+03 0.  0.
         13    1    1    2    0    0  0.27648434160E+02  0.30378283894E+02  0.87852657049E+02  0.96981320667E+02  0.10566000000E+00 0.  1.
        994    1    1    2    0    0 -0.11102985987E+02 -0.22376802343E+02  0.11478072781E+02  0.17339314789E+03  0.17120000000E+03 0.  0.
        998    1    1    2    0    0 -0.16545448172E+02 -0.80014815509E+01  0.14006692664E+04  0.14008255314E+04  0.10000000000E+02 0.  1.
</event>
<event>
 5    1  0.1141915E-008  0.3746204E+03  0.7957747E-01  0.3474922E+00
         13   -1    0    0    0    0  0.00000000000E+00  0.00000000000E+00  0.14999999963E+04  0.15000000000E+04  0.10566000000E+00 0.  1.
        994   -1    0    0    0    0 -0.00000000000E+00 -0.00000000000E+00  0.11368683772E-12  0.17120000000E+03  0.17120000000E+03 0.  0.
         13    1    1    2    0    0 -0.20893314053E+02  0.30343971478E+02  0.43693307406E+02  0.57152457981E+02  0.10566000000E+00 0.  1.
        994    1    1    2    0    0  0.23961879965E+02 -0.33560178696E+02  0.19470191051E+02  0.17716936988E+03  0.17120000000E+03 0.  0.
        998    1    1    2    0    0 -0.30685659118E+01  0.32162072181E+01  0.14368364978E+04  0.14368781721E+04  0.10000000000E+02 0.  1.
</event>
<event>
 5    1  0.1141915E-008  0.3744784E+03  0.7957747E-01  0.3475559E+00
         13   -1    0    0    0    0  0.00000000000E+00  0.00000000000E+00  0.14999999963E+04  0.15000000000E+04  0.10566000000E+00 0. -1.
        994   -1    0    0    0    0 -0.00000000000E+00 -0.00000000000E+00  0.11368683772E-12  0.17120000000E+03  0.17120000000E+03 0.  0.
         13    1    1    2    0    0  0.10383329857E+02  0.17095673651E+02  0.29916510034E+02  0.35987280158E+02  0.10566000000E+00 0. -1.
        994    1    1    2    0    0 -0.88965867130E+01  0.55208977228E+02  0.17671083913E+02  0.18096653732E+03  0.17120000000E+03 0.  0.
        998    1    1    2    0    0 -0.14867431436E+01 -0.72304650878E+02  0.14524124023E+04  0.14542461825E+04  0.10000000000E+02 0. -1.
</event>
<event>
 5    1  0.1141915E-008  0.3764953E+03  0.7957747E-01  0.3466562E+00
         13   -1    0    0    0    0  0.00000000000E+00  0.00000000000E+00  0.14999999963E+04  0.15000000000E+04  0.10566000000E+00 0. -1.
        994   -1    0    0    0    0 -0.00000000000E+00 -0.00000000000E+00  0.11368683772E-12  0.17120000000E+03  0.17120000000E+03 0.  0.
         13    1    1    2    0    0  0.84230692481E+01  0.61703540267E+01  0.67665749355E+01  0.12442630942E+02  0.10566000000E+00 0. -1.
        994    1    1    2    0    0  0.73154507987E+01  0.57665562863E+01  0.62063872859E+01  0.17156552170E+03  0.17120000000E+03 0.  0.
        998    1    1    2    0    0 -0.15738520047E+02 -0.11936910313E+02  0.14870270341E+04  0.14871918474E+04  0.10000000000E+02 0. -1.
</event>
<event>
 5    1  0.1141915E-008  0.3834470E+03  0.7957747E-01  0.3436286E+00
         13   -1    0    0    0    0  0.00000000000E+00  0.00000000000E+00  0.14999999963E+04  0.15000000000E+04  0.10566000000E+00 0. -1.
        994   -1    0    0    0    0 -0.00000000000E+00 -0.00000000000E+00  0.11368683772E-12  0.17120000000E+03  0.17120000000E+03 0.  0.
         13    1    1    2    0    0 -0.26545314566E+02 -0.38672731545E+00  0.13280073028E+03  0.13542838849E+03  0.10566000000E+00 0. -1.
        994    1    1    2    0    0  0.28704940378E+02  0.89236634411E+01  0.53955639297E+01  0.17390272419E+03  0.17120000000E+03 0.  0.
        998    1    1    2    0    0 -0.21596258112E+01 -0.85369361257E+01  0.13618037021E+04  0.13618688873E+04  0.10000000000E+02 0. -1.
</event>
<event>
 5    1  0.1141915E-008  0.3714291E+03  0.7957747E-01  0.3489349E+00
         13   -1    0    0    0    0  0.00000000000E+00  0.00000000000E+00  0.14999999963E+04  0.15000000000E+04  0.10566000000E+00 0. -1.
        994   -1    0    0    0    0 -0.00000000000E+00 -0.00000000000E+00  0.11368683772E-12  0.17120000000E+03  0.17120000000E+03 0.  0.
         13    1    1    2    0    0 -0.16290396079E+02  0.40244388906E+02  0.22683653179E+03  0.23095413216E+03  0.10566000000E+00 0. -1.
        994    1    1    2    0    0 -0.61798031517E+02  0.67963525507E+02  0.38141621432E+02  0.19799560799E+03  0.17120000000E+03 0.  0.
        998    1    1    2    0    0  0.78088427597E+02 -0.10820791441E+03  0.12350218431E+04  0.12422502599E+04  0.10000000000E+02 0. -1.
</event>
<event>
 5    1  0.1141915E-008  0.3831209E+03  0.7957747E-01  0.3437681E+00
         13   -1    0    0    0    0  0.00000000000E+00  0.00000000000E+00  0.14999999963E+04  0.15000000000E+04  0.10566000000E+00 0.  1.
        994   -1    0    0    0    0 -0.00000000000E+00 -0.00000000000E+00  0.11368683772E-12  0.17120000000E+03  0.17120000000E+03 0.  0.
         13    1    1    2    0    0 -0.14894362542E+02 -0.27376768394E+02  0.16522980772E+03  0.16814348041E+03  0.10566000000E+00 0.  1.
        994    1    1    2    0    0  0.93414975160E+01  0.34559422519E+02  0.68181929618E+01  0.17503583923E+03  0.17120000000E+03 0.  0.
        998    1    1    2    0    0  0.55528650261E+01 -0.71826541247E+01  0.13279519956E+04  0.13280206804E+04  0.10000000000E+02 0.  1.
</event>
<event>
 5    1  0.1141915E-008  0.3829596E+03  0.7957747E-01  0.3438372E+00
         13   -1    0    0    0    0  0.00000000000E+00  0.00000000000E+00  0.14999999963E+04  0.15000000000E+04  0.10566000000E+00 0.  1.
        994   -1    0    0    0    0 -0.00000000000E+00 -0.00000000000E+00  0.11368683772E-12  0.17120000000E+03  0.17120000000E+03 0.  0.
         13    1    1    2    0    0  0.82682931070E+01 -0.16907365084E+02  0.65465365650E+02  0.68117170587E+02  0.10566000000E+00 0.  1.
        994    1    1    2    0    0 -0.94900685044E+01  0.11148410640E+02  0.33565028812E+01  0.17185765788E+03  0.17120000000E+03 0.  0.
        998    1    1    2    0    0  0.12217753974E+01  0.57589544449E+01  0.14311781277E+04  0.14312251715E+04  0.10000000000E+02 0.  1.
</event>
<event>
 5    1  0.1141915E-008  0.3839421E+03  0.7957747E-01  0.3434171E+00
         13   -1    0    0    0    0  0.00000000000E+00  0.00000000000E+00  0.14999999963E+04  0.15000000000E+04  0.10566000000E+00 0. -1.
        994   -1    0    0    0    0 -0.00000000000E+00 -0.00000000000E+00  0.11368683772E-12  0.17120000000E+03  0.17120000000E+03 0.  0.
         13    1    1    2    0    0 -0.13283403664E+02 -0.27210095909E+00  0.40242385132E+02  0.42379046438E+02  0.10566000000E+00 0. -1.
        994    1    1    2    0    0  0.97970784029E+01  0.69110301655E-01  0.24730926774E+01  0.17149794083E+03  0.17120000000E+03 0.  0.
        998    1    1    2    0    0  0.34863252613E+01  0.20299065743E+00  0.14572845185E+04  0.14573230127E+04  0.10000000000E+02 0. -1.
</event>
<event>
 5    1  0.1141915E-008  0.3705721E+03  0.7957747E-01  0.3493266E+00
         13   -1    0    0    0    0  0.00000000000E+00  0.00000000000E+00  0.14999999963E+04  0.15000000000E+04  0.10566000000E+00 0. -1.
        994   -1    0    0    0    0 -0.00000000000E+00 -0.00000000000E+00  0.11368683772E-12  0.17120000000E+03  0.17120000000E+03 0.  0.
         13    1    1    2    0    0 -0.35078308364E+01 -0.13116469645E+02  0.61313481731E+01  0.14898028312E+02  0.10566000000E+00 0. -1.
        994    1    1    2    0    0 -0.23217207803E+01  0.14573377749E+02  0.97221879208E+01  0.17210965884E+03  0.17120000000E+03 0.  0.
        998    1    1    2    0    0  0.58295516167E+01 -0.14569081036E+01  0.14841464602E+04  0.14841923129E+04  0.10000000000E+02 0. -1.
</event>
<event>
 5    1  0.1141915E-008  0.3852492E+03  0.7957747E-01  0.3428616E+00
         13   -1    0    0    0    0  0.00000000000E+00  0.00000000000E+00  0.14999999963E+04  0.15000000000E+04  0.10566000000E+00 0.  1.
        994   -1    0    0    0    0 -0.00000000000E+00 -0.00000000000E+00  0.11368683772E-12  0.17120000000E+03  0.17120000000E+03 0.  0.
         13    1    1    2    0    0  0.45999461451E+01 -0.11825430435E+02  0.54210733015E+02  0.55675982681E+02  0.10566000000E+00 0.  1.
        994    1    1    2    0    0  0.17361926673E+01  0.75590530295E+01  0.17041365106E+01  0.17138406498E+03  0.17120000000E+03 0.  0.
        998    1    1    2    0    0 -0.63361388123E+01  0.42663774060E+01  0.14440851268E+04  0.14441399523E+04  0.10000000000E+02 0.  1.
</event>
<event>
 5    1  0.1141915E-008  0.3690049E+03  0.7957747E-01  0.3500477E+00
         13   -1    0    0    0    0  0.00000000000E+00  0.00000000000E+00  0.14999999963E+04  0.15000000000E+04  0.10566000000E+00 0.  1.
        994   -1    0    0    0    0 -0.00000000000E+00 -0.00000000000E+00  0.11368683772E-12  0.17120000000E+03  0.17120000000E+03 0.  0.
         13    1    1    2    0    0 -0.13840451356E+02 -0.49020098696E+02  0.12072746364E+03  0.13103304854E+03  0.10566000000E+00 0.  1.
        994    1    1    2    0    0 -0.37576846148E+02  0.44672857583E+02  0.22381399730E+02  0.18225819769E+03  0.17120000000E+03 0.  0.
        998    1    1    2    0    0  0.51417297504E+02  0.43472411133E+01  0.13568911329E+04  0.13579087538E+04  0.10000000000E+02 0.  1.
</event>
<event>
 5    1  0.1141915E-008  0.3808156E+03  0.7957747E-01  0.3447615E+00
         13   -1    0    0    0    0  0.00000000000E+00  0.00000000000E+00  0.14999999963E+04  0.15000000000E+04  0.10566000000E+00 0.  1.
        994   -1    0    0    0    0 -0.00000000000E+00 -0.00000000000E+00  0.11368683772E-12  0.17120000000E+03  0.17120000000E+03 0.  0.
         13    1    1    2    0    0 -0.16667883546E+02  0.54154029163E+01  0.39267745528E+02  0.43001301533E+02  0.10566000000E+00 0.  1.
        994    1    1    2    0    0  0.14028854486E+02 -0.85125151755E+01  0.46202499640E+01  0.17204667501E+03  0.17120000000E+03 0.  0.
        998    1    1    2    0    0  0.26390290597E+01  0.30971122592E+01  0.14561120008E+04  0.14561520235E+04  0.10000000000E+02 0.  1.
</event>
<event>
 5    1  0.1141915E-008  0.3811673E+03  0.7957747E-01  0.3446091E+00
         13   -1    0    0    0    0  0.00000000000E+00  0.00000000000E+00  0.14999999963E+04  0.15000000000E+04  0.10566000000E+00 0.  1.
        994   -1    0    0    0    0 -0.00000000000E+00 -0.00000000000E+00  0.11368683772E-12  0.17120000000E+03  0.17120000000E+03 0.  0.
         13    1    1    2    0    0  0.11017062951E+02 -0.79854604274E+01  0.25791543779E+02  0.29160901029E+02  0.10566000000E+00 0.  1.
        994    1    1    2    0    0 -0.19592269725E+01 -0.10467923163E+02  0.39228228044E+01  0.17157576905E+03  0.17120000000E+03 0.  0.
        998    1    1    2    0    0 -0.90578359784E+01  0.18453383591E+02  0.14702856297E+04  0.14704633299E+04  0.10000000000E+02 0.  1.
</event>
<event>
 5    1  0.1141915E-008  0.3768485E+03  0.7957747E-01  0.3464997E+00
         13   -1    0    0    0    0  0.00000000000E+00  0.00000000000E+00  0.14999999963E+04  0.15000000000E+04  0.10566000000E+00 0. -1.
        994   -1    0    0    0    0 -0.00000000000E+00 -0.00000000000E+00  0.11368683772E-12  0.17120000000E+03  0.17120000000E+03 0.  0.
         13    1    1    2    0    0  0.24647271503E+00 -0.73341641135E+02  0.16222325537E+03  0.17803216794E+03  0.10566000000E+00 0. -1.
        994    1    1    2    0    0  0.32276957497E+01  0.70851818360E+02  0.32854218955E+02  0.18819999439E+03  0.17120000000E+03 0.  0.
        998    1    1    2    0    0 -0.34741684647E+01  0.24898227757E+01  0.13049225220E+04  0.13049678377E+04  0.10000000000E+02 0. -1.
</event>
<event>
 5    1  0.1141915E-008  0.3765915E+03  0.7957747E-01  0.3466136E+00
         13   -1    0    0    0    0  0.00000000000E+00  0.00000000000E+00  0.14999999963E+04  0.15000000000E+04  0.10566000000E+00 0.  1.
        994   -1    0    0    0    0 -0.00000000000E+00 -0.00000000000E+00  0.11368683772E-12  0.17120000000E+03  0.17120000000E+03 0.  0.
         13    1    1    2    0    0  0.11753211299E+02 -0.10401792725E+02  0.18400922297E+02  0.24185540580E+02  0.10566000000E+00 0.  1.
        994    1    1    2    0    0 -0.68859372505E+01  0.11686678219E+02  0.64860635362E+01  0.17185896427E+03  0.17120000000E+03 0.  0.
        998    1    1    2    0    0 -0.48672740488E+01 -0.12848854943E+01  0.14751130104E+04  0.14751554952E+04  0.10000000000E+02 0.  1.
</event>
<event>
 5    1  0.1141915E-008  0.3845476E+03  0.7957747E-01  0.3431593E+00
         13   -1    0    0    0    0  0.00000000000E+00  0.00000000000E+00  0.14999999963E+04  0.15000000000E+04  0.10566000000E+00 0.  1.
        994   -1    0    0    0    0 -0.00000000000E+00 -0.00000000000E+00  0.11368683772E-12  0.17120000000E+03  0.17120000000E+03 0.  0.
         13    1    1    2    0    0 -0.15162808545E+02  0.12393675146E+02  0.10092969988E+03  0.10281210741E+03  0.10566000000E+00 0.  1.
        994    1    1    2    0    0  0.39423975185E+01 -0.19858466623E+02  0.32060715698E+01  0.17242279458E+03  0.17120000000E+03 0.  0.
        998    1    1    2    0    0  0.11220411027E+02  0.74647914771E+01  0.13958642248E+04  0.13959650980E+04  0.10000000000E+02 0.  1.
</event>
<event>
 5    1  0.1141915E-008  0.4278801E+03  0.7957747E-01  0.3265959E+00
         13   -1    0    0    0    0  0.00000000000E+00  0.00000000000E+00  0.14999999963E+04  0.15000000000E+04  0.10566000000E+00 0.  1.
        994   -1    0    0    0    0 -0.00000000000E+00 -0.00000000000E+00  0.11368683772E-12  0.17120000000E+03  0.17120000000E+03 0.  0.
         13    1    1    2    0    0  0.56181408403E+02  0.85414579478E+02  0.12697492104E+03  0.16301730821E+03  0.10566000000E+00 0.  1.
        994    1    1    2    0    0 -0.44091270519E+02  0.26246829600E+02  0.57372787667E+02  0.18770725336E+03  0.17120000000E+03 0.  0.
        998    1    1    2    0    0 -0.12090137884E+02 -0.11166140908E+03  0.13156522876E+04  0.13204754384E+04  0.10000000000E+02 0.  1.
</event>
<event>
 5    1  0.1141915E-008  0.3748368E+03  0.7957747E-01  0.3473953E+00
         13   -1    0    0    0    0  0.00000000000E+00  0.00000000000E+00  0.14999999963E+04  0.15000000000E+04  0.10566000000E+00 0. -1.
        994   -1    0    0    0    0 -0.00000000000E+00 -0.00000000000E+00  0.11368683772E-12  0.17120000000E+03  0.17120000000E+03 0.  0.
         13    1    1    2    0    0 -0.67523007289E+01  0.12539783266E+03  0.68380640105E+03  0.69524198325E+03  0.10566000000E+00 0. -1.
        994    1    1    2    0    0  0.18164542536E+02 -0.11654867925E+03  0.55662143742E+02  0.21522374285E+03  0.17120000000E+03 0.  0.
        998    1    1    2    0    0 -0.11412241807E+02 -0.88491534116E+01  0.76053145149E+03  0.76073427390E+03  0.10000000000E+02 0. -1.
</event>
<event>
 5    1  0.1141915E-008  0.3779894E+03  0.7957747E-01  0.3459960E+00
         13   -1    0    0    0    0  0.00000000000E+00  0.00000000000E+00  0.14999999963E+04  0.15000000000E+04  0.10566000000E+00 0. -1.
        994   -1    0    0    0    0 -0.00000000000E+00 -0.00000000000E+00  0.11368683772E-12  0.17120000000E+03  0.17120000000E+03 0.  0.
         13    1    1    2    0    0 -0.87050779562E+01  0.71641775599E+01  0.10356702546E+02  0.15309352501E+02  0.10566000000E+00 0. -1.
        994    1    1    2    0    0 -0.14336197969E+02 -0.76877846629E+01  0.60426030231E+01  0.17207725491E+03  0.17120000000E+03 0.  0.
        998    1    1    2    0    0  0.23041275925E+02  0.52360710302E+00  0.14836006907E+04  0.14838133926E+04  0.10000000000E+02 0. -1.
</event>
<event>
 5    1  0.1141915E-008  0.3858907E+03  0.7957747E-01  0.3425904E+00
         13   -1    0    0    0    0  0.00000000000E+00  0.00000000000E+00  0.14999999963E+04  0.15000000000E+04  0.10566000000E+00 0. -1.
        994   -1    0    0    0    0 -0.00000000000E+00 -0.00000000000E+00  0.11368683772E-12  0.17120000000E+03  0.17120000000E+03 0.  0.
         13    1    1    2    0    0 -0.91395150659E+01 -0.54315149599E+01  0.48289083681E+02  0.49445716267E+02  0.10566000000E+00 0. -1.
        994    1    1    2    0    0  0.10150167194E+02 -0.46077446547E+01  0.15961524426E+01  0.17156994174E+03  0.17120000000E+03 0.  0.
        998    1    1    2    0    0 -0.10106521279E+01  0.10039259615E+02  0.14501147602E+04  0.14501843420E+04  0.10000000000E+02 0. -1.
</event>
<event>
 5    1  0.1141915E-008  0.3731552E+03  0.7957747E-01  0.3481515E+00
         13   -1    0    0    0    0  0.00000000000E+00  0.00000000000E+00  0.14999999963E+04  0.15000000000E+04  0.10566000000E+00 0.  1.
        994   -1    0    0    0    0 -0.00000000000E+00 -0.00000000000E+00  0.11368683772E-12  0.17120000000E+03  0.17120000000E+03 0.  0.
         13    1    1    2    0    0 -0.59835609808E+02  0.32076576993E+02  0.24756827446E+03  0.25670852864E+03  0.10566000000E+00 0.  1.
        994    1    1    2    0    0  0.60272144630E+02 -0.35176328884E+02  0.24475108840E+02  0.18649015117E+03  0.17120000000E+03 0.  0.
        998    1    1    2    0    0 -0.43653482205E+00  0.30997518913E+01  0.12279566130E+04  0.12280013202E+04  0.10000000000E+02 0.  1.
</event>
<event>
 5    1  0.1141915E-008  0.3826990E+03  0.7957747E-01  0.3439490E+00
         13   -1    0    0    0    0  0.00000000000E+00  0.00000000000E+00  0.14999999963E+04  0.15000000000E+04  0.10566000000E+00 0.  1.
        994   -1    0    0    0    0 -0.00000000000E+00 -0.00000000000E+00  0.11368683772E-12  0.17120000000E+03  0.17120000000E+03 0.  0.
         13    1    1    2    0    0 -0.11979123367E+02 -0.10285645104E+01  0.25936555720E+02  0.28587994478E+02  0.10566000000E+00 0.  1.
        994    1    1    2    0    0 -0.17848585637E+01 -0.75263311908E+01  0.29751586834E+01  0.17140047535E+03  0.17120000000E+03 0.  0.
        998    1    1    2    0    0  0.13763981931E+02  0.85548957012E+01  0.14710882819E+04  0.14712115302E+04  0.10000000000E+02 0.  1.
</event>
<event>
 5    1  0.1141915E-008  0.3824093E+03  0.7957747E-01  0.3440734E+00
         13   -1    0    0    0    0  0.00000000000E+00  0.00000000000E+00  0.14999999963E+04  0.15000000000E+04  0.10566000000E+00 0. -1.
        994   -1    0    0    0    0 -0.00000000000E+00 -0.00000000000E+00  0.11368683772E-12  0.17120000000E+03  0.17120000000E+03 0.  0.
         13    1    1    2    0    0 -0.26904295815E+02 -0.18964629633E+00  0.12091549380E+03  0.12387269636E+03  0.10566000000E+00 0. -1.
        994    1    1    2    0    0  0.18910400080E+02 -0.60629613127E+01  0.42308563060E+01  0.17239983433E+03  0.17120000000E+03 0.  0.
        998    1    1    2    0    0  0.79938957351E+01  0.62526076091E+01  0.13748536462E+04  0.13749274693E+04  0.10000000000E+02 0. -1.
</event>
<event>
 5    1  0.1141915E-008  0.3734854E+03  0.7957747E-01  0.3480024E+00
         13   -1    0    0    0    0  0.00000000000E+00  0.00000000000E+00  0.14999999963E+04  0.15000000000E+04  0.10566000000E+00 0.  1.
        994   -1    0    0    0    0 -0.00000000000E+00 -0.00000000000E+00  0.11368683772E-12  0.17120000000E+03  0.17120000000E+03 0.  0.
         13    1    1    2    0    0  0.39444754257E+01 -0.93734342024E+01  0.34289114084E+01  0.10732602322E+02  0.10566000000E+00 0.  1.
        994    1    1    2    0    0 -0.31935590895E+01  0.10428890009E+02  0.78651224323E+01  0.17172728588E+03  0.17120000000E+03 0.  0.
        998    1    1    2    0    0 -0.75091633622E+00 -0.10554558069E+01  0.14887059624E+04  0.14887401118E+04  0.10000000000E+02 0.  1.
</event>
<event>
 5    1  0.1141915E-008  0.3766890E+03  0.7957747E-01  0.3465703E+00
         13   -1    0    0    0    0  0.00000000000E+00  0.00000000000E+00  0.14999999963E+04  0.15000000000E+04  0.10566000000E+00 0. -1.
        994   -1    0    0    0    0 -0.00000000000E+00 -0.00000000000E+00  0.11368683772E-12  0.17120000000E+03  0.17120000000E+03 0.  0.
         13    1    1    2    0    0  0.10440678967E+03 -0.14061575685E+02  0.57174773024E+03  0.58137250007E+03  0.10566000000E+00 0. -1.
        994    1    1    2    0    0 -0.10393728325E+03  0.20744515325E+02  0.44777931138E+02  0.20627117318E+03  0.17120000000E+03 0.  0.
        998    1    1    2    0    0 -0.46950641169E+00 -0.66829396406E+01  0.88347433490E+03  0.88355632676E+03  0.10000000000E+02 0. -1.
</event>
<event>
 5    1  0.1141915E-008  0.3844109E+03  0.7957747E-01  0.3432175E+00
         13   -1    0    0    0    0  0.00000000000E+00  0.00000000000E+00  0.14999999963E+04  0.15000000000E+04  0.10566000000E+00 0. -1.
        994   -1    0    0    0    0 -0.00000000000E+00 -0.00000000000E+00  0.11368683772E-12  0.17120000000E+03  0.17120000000E+03 0.  0.
         13    1    1    2    0    0 -0.15091597376E+02 -0.14222313059E+02  0.10064126650E+03  0.10275556523E+03  0.10566000000E+00 0. -1.
        994    1    1    2    0    0  0.24727330561E+02  0.13824906842E+02  0.45718175213E+01  0.17358833613E+03  0.17120000000E+03 0.  0.
        998    1    1    2    0    0 -0.96357331842E+01  0.39740621739E+00  0.13947869123E+04  0.13948560986E+04  0.10000000000E+02 0. -1.
</event>
<event>
 5    1  0.1141915E-008  0.3843047E+03  0.7957747E-01  0.3432627E+00
         13   -1    0    0    0    0  0.00000000000E+00  0.00000000000E+00  0.14999999963E+04  0.15000000000E+04  0.10566000000E+00 0.  1.
        994   -1    0    0    0    0 -0.00000000000E+00 -0.00000000000E+00  0.11368683772E-12  0.17120000000E+03  0.17120000000E+03 0.  0.
         13    1    1    2    0    0 -0.13732434893E+02 -0.17258315870E+02  0.12574455348E+03  0.12766414191E+03  0.10566000000E+00 0.  1.
        994    1    1    2    0    0  0.11553287006E+02  0.45659248523E+01  0.24845878789E+01  0.17166810795E+03  0.17120000000E+03 0.  0.
        998    1    1    2    0    0  0.21791478868E+01  0.12692391018E+02  0.13717708549E+04  0.13718677501E+04  0.10000000000E+02 0.  1.
</event>
<event>
 5    1  0.1141915E-008  0.3812964E+03  0.7957747E-01  0.3445533E+00
         13   -1    0    0    0    0  0.00000000000E+00  0.00000000000E+00  0.14999999963E+04  0.15000000000E+04  0.10566000000E+00 0.  1.
        994   -1    0    0    0    0 -0.00000000000E+00 -0.00000000000E+00  0.11368683772E-12  0.17120000000E+03  0.17120000000E+03 0.  0.
         13    1    1    2    0    0  0.35455292955E+02  0.13726015972E+02  0.17170226601E+03  0.17586119705E+03  0.10566000000E+00 0.  1.
        994    1    1    2    0    0 -0.47640592650E+02 -0.10159842117E+02  0.11419210745E+02  0.17836111357E+03  0.17120000000E+03 0.  0.
        998    1    1    2    0    0  0.12185299695E+02 -0.35661738558E+01  0.13168785195E+04  0.13169776894E+04  0.10000000000E+02 0.  1.
</event>
<event>
 5    1  0.1141915E-008  0.3839101E+03  0.7957747E-01  0.3434308E+00
         13   -1    0    0    0    0  0.00000000000E+00  0.00000000000E+00  0.14999999963E+04  0.15000000000E+04  0.10566000000E+00 0. -1.
        994   -1    0    0    0    0 -0.00000000000E+00 -0.00000000000E+00  0.11368683772E-12  0.17120000000E+03  0.17120000000E+03 0.  0.
         13    1    1    2    0    0  0.21346125231E+02 -0.11754694076E+02  0.12741282582E+03  0.12972227736E+03  0.10566000000E+00 0. -1.
        994    1    1    2    0    0 -0.21321106488E+02  0.10117351498E+02  0.40124883980E+01  0.17286552706E+03  0.17120000000E+03 0.  0.
        998    1    1    2    0    0 -0.25018742785E-01  0.16373425779E+01  0.13685746821E+04  0.13686121956E+04  0.10000000000E+02 0.  0.
</event>
<event>
 5    1  0.1141915E-008  0.3797903E+03  0.7957747E-01  0.3452072E+00
         13   -1    0    0    0    0  0.00000000000E+00  0.00000000000E+00  0.14999999963E+04  0.15000000000E+04  0.10566000000E+00 0. -1.
        994   -1    0    0    0    0 -0.00000000000E+00 -0.00000000000E+00  0.11368683772E-12  0.17120000000E+03  0.17120000000E+03 0.  0.
         13    1    1    2    0    0 -0.21578921052E+01  0.15905090897E+02  0.28351736083E+02  0.32580063194E+02  0.10566000000E+00 0. -1.
        994    1    1    2    0    0  0.30526085834E+01 -0.14638150042E+02  0.49873676667E+01  0.17192413354E+03  0.17120000000E+03 0.  0.
        998    1    1    2    0    0 -0.89471647826E+00 -0.12669408542E+01  0.14666608925E+04  0.14666958033E+04  0.10000000000E+02 0. -1.
</event>
<event>
 5    1  0.1141915E-008  0.3981563E+03  0.7957747E-01  0.3375722E+00
         13   -1    0    0    0    0  0.00000000000E+00  0.00000000000E+00  0.14999999963E+04  0.15000000000E+04  0.10566000000E+00 0.  1.
        994   -1    0    0    0    0 -0.00000000000E+00 -0.00000000000E+00  0.11368683772E-12  0.17120000000E+03  0.17120000000E+03 0.  0.
         13    1    1    2    0    0  0.71908589140E+02 -0.55588094247E+02  0.33233838057E+03  0.34454272853E+03  0.10566000000E+00 0.  1.
        994    1    1    2    0    0  0.65949807991E+02 -0.78213802783E+02  0.68632496948E+02  0.21091855243E+03  0.17120000000E+03 0.  0.
        998    1    1    2    0    0 -0.13785839713E+03  0.13380189703E+03  0.10990291188E+04  0.11157387190E+04  0.10000000000E+02 0.  1.
</event>
<event>
 5    1  0.1141915E-008  0.3726133E+03  0.7957747E-01  0.3483966E+00
         13   -1    0    0    0    0  0.00000000000E+00  0.00000000000E+00  0.14999999963E+04  0.15000000000E+04  0.10566000000E+00 0.  1.
        994   -1    0    0    0    0 -0.00000000000E+00 -0.00000000000E+00  0.11368683772E-12  0.17120000000E+03  0.17120000000E+03 0.  0.
         13    1    1    2    0    0 -0.81011591471E+02  0.89695359523E+02  0.71664440662E+03  0.72676499103E+03  0.10566000000E+00 0.  1.
        994    1    1    2    0    0  0.59263144317E+02 -0.70331620515E+02  0.37476403341E+02  0.19792063542E+03  0.17120000000E+03 0.  0.
        998    1    1    2    0    0  0.21748447155E+02 -0.19363739009E+02  0.74587918631E+03  0.74651437355E+03  0.10000000000E+02 0.  1.
</event>
<event>
 5    1  0.1141915E-008  0.3849021E+03  0.7957747E-01  0.3430088E+00
         13   -1    0    0    0    0  0.00000000000E+00  0.00000000000E+00  0.14999999963E+04  0.15000000000E+04  0.10566000000E+00 0. -1.
        994   -1    0    0    0    0 -0.00000000000E+00 -0.00000000000E+00  0.11368683772E-12  0.17120000000E+03  0.17120000000E+03 0.  0.
         13    1    1    2    0    0 -0.81916662174E+01 -0.67751823619E+01  0.32100609121E+02  0.33815185367E+02  0.10566000000E+00 0. -1.
        994    1    1    2    0    0  0.12154949930E+02  0.10775175056E+02  0.25472317324E+01  0.17198771931E+03  0.17120000000E+03 0.  0.
        998    1    1    2    0    0 -0.39632837123E+01 -0.39999926936E+01  0.14653521554E+04  0.14653970953E+04  0.10000000000E+02 0. -1.
</event>
<event>
 5    1  0.1141915E-008  0.3842526E+03  0.7957747E-01  0.3432848E+00
         13   -1    0    0    0    0  0.00000000000E+00  0.00000000000E+00  0.14999999963E+04  0.15000000000E+04  0.10566000000E+00 0. -1.
        994   -1    0    0    0    0 -0.00000000000E+00 -0.00000000000E+00  0.11368683772E-12  0.17120000000E+03  0.17120000000E+03 0.  0.
         13    1    1    2    0    0 -0.14633966826E+02 -0.25533561315E+01  0.59063258211E+02  0.60902809846E+02  0.10566000000E+00 0. -1.
        994    1    1    2    0    0  0.15958068692E+01 -0.26968590093E+02  0.44114198364E+01  0.17337460044E+03  0.17120000000E+03 0.  0.
        998    1    1    2    0    0  0.13038159957E+02  0.29521946225E+02  0.14365253182E+04  0.14369225897E+04  0.10000000000E+02 0. -1.
</event>
<event>
 5    1  0.1141915E-008  0.3842215E+03  0.7957747E-01  0.3432981E+00
         13   -1    0    0    0    0  0.00000000000E+00  0.00000000000E+00  0.14999999963E+04  0.15000000000E+04  0.10566000000E+00 0.  1.
        994   -1    0    0    0    0 -0.00000000000E+00 -0.00000000000E+00  0.11368683772E-12  0.17120000000E+03  0.17120000000E+03 0.  0.
         13    1    1    2    0    0 -0.11780730677E+02 -0.12957427975E+02  0.72311805816E+02  0.74402210851E+02  0.10566000000E+00 0.  1.
        994    1    1    2    0    0  0.73726231036E+01  0.18938533860E+02  0.33800562672E+01  0.17243517163E+03  0.17120000000E+03 0.  0.
        998    1    1    2    0    0  0.44081075732E+01 -0.59811058852E+01  0.14243081342E+04  0.14243626175E+04  0.10000000000E+02 0.  1.
</event>
<event>
 5    1  0.1141915E-008  0.3781192E+03  0.7957747E-01  0.3459389E+00
         13   -1    0    0    0    0  0.00000000000E+00  0.00000000000E+00  0.14999999963E+04  0.15000000000E+04  0.10566000000E+00 0.  1.
        994   -1    0    0    0    0 -0.00000000000E+00 -0.00000000000E+00  0.11368683772E-12  0.17120000000E+03  0.17120000000E+03 0.  0.
         13    1    1    2    0    0 -0.24787496167E+02 -0.61585464901E+01  0.67361169660E+02  0.72040863425E+02  0.10566000000E+00 0.  1.
        994    1    1    2    0    0 -0.43383700942E+01  0.19905721393E+01  0.51622090599E+01  0.17134430902E+03  0.17120000000E+03 0.  0.
        998    1    1    2    0    0  0.29125866262E+02  0.41679743508E+01  0.14274766176E+04  0.14278148276E+04  0.10000000000E+02 0.  1.
</event>
<event>
 5    1  0.1141915E-008  0.3734293E+03  0.7957747E-01  0.3480277E+00
         13   -1    0    0    0    0  0.00000000000E+00  0.00000000000E+00  0.14999999963E+04  0.15000000000E+04  0.10566000000E+00 0.  1.
        994   -1    0    0    0    0 -0.00000000000E+00 -0.00000000000E+00  0.11368683772E-12  0.17120000000E+03  0.17120000000E+03 0.  0.
         13    1    1    2    0    0 -0.47947271601E+01  0.52588981368E+02  0.11773385778E+03  0.12903434737E+03  0.10566000000E+00 0.  1.
        994    1    1    2    0    0 -0.63232674807E+01 -0.23033854844E+01  0.12924046430E+02  0.17181897530E+03  0.17120000000E+03 0.  0.
        998    1    1    2    0    0  0.11117994641E+02 -0.50285595884E+02  0.13693420921E+04  0.13703466773E+04  0.10000000000E+02 0.  1.
</event>
<event>
 5    1  0.1141915E-008  0.3819283E+03  0.7957747E-01  0.3442805E+00
         13   -1    0    0    0    0  0.00000000000E+00  0.00000000000E+00  0.14999999963E+04  0.15000000000E+04  0.10566000000E+00 0. -1.
        994   -1    0    0    0    0 -0.00000000000E+00 -0.00000000000E+00  0.11368683772E-12  0.17120000000E+03  0.17120000000E+03 0.  0.
         13    1    1    2    0    0  0.24602611306E+02  0.30837200822E+02  0.23526650677E+03  0.23855096270E+03  0.10566000000E+00 0. -1.
        994    1    1    2    0    0 -0.15758360967E+02 -0.22132797905E+02  0.56188635972E+01  0.17343355590E+03  0.17120000000E+03 0.  0.
        998    1    1    2    0    0 -0.88442503396E+01 -0.87044029166E+01  0.12591146259E+04  0.12592154814E+04  0.10000000000E+02 0. -1.
</event>
<event>
 5    1  0.1141915E-008  0.3796559E+03  0.7957747E-01  0.3452658E+00
         13   -1    0    0    0    0  0.00000000000E+00  0.00000000000E+00  0.14999999963E+04  0.15000000000E+04  0.10566000000E+00 0. -1.
        994   -1    0    0    0    0 -0.00000000000E+00 -0.00000000000E+00  0.11368683772E-12  0.17120000000E+03  0.17120000000E+03 0.  0.
         13    1    1    2    0    0  0.16428084863E+02  0.25829714910E+02  0.10321150217E+03  0.10765538300E+03  0.10566000000E+00 0. -1.
        994    1    1    2    0    0 -0.21373643358E+02 -0.17433066682E+02  0.68570996036E+01  0.17354309050E+03  0.17120000000E+03 0.  0.
        998    1    1    2    0    0  0.49455584953E+01 -0.83966482281E+01  0.13899313945E+04  0.13900015265E+04  0.10000000000E+02 0. -1.
</event>
<event>
 5    1  0.1141915E-008  0.3828304E+03  0.7957747E-01  0.3438926E+00
         13   -1    0    0    0    0  0.00000000000E+00  0.00000000000E+00  0.14999999963E+04  0.15000000000E+04  0.10566000000E+00 0. -1.
        994   -1    0    0    0    0 -0.00000000000E+00 -0.00000000000E+00  0.11368683772E-12  0.17120000000E+03  0.17120000000E+03 0.  0.
         13    1    1    2    0    0 -0.26517623330E+01  0.16621482937E+02  0.52203002074E+02  0.54849522587E+02  0.10566000000E+00 0. -1.
        994    1    1    2    0    0 -0.96987534610E+01 -0.94323776979E+01  0.33175933492E+01  0.17176577655E+03  0.17120000000E+03 0.  0.
        998    1    1    2    0    0  0.12350515794E+02 -0.71891052389E+01  0.14444794009E+04  0.14445847009E+04  0.10000000000E+02 0. -1.
</event>
<event>
 5    1  0.1141915E-008  0.3802332E+03  0.7957747E-01  0.3450144E+00
         13   -1    0    0    0    0  0.00000000000E+00  0.00000000000E+00  0.14999999963E+04  0.15000000000E+04  0.10566000000E+00 0.  1.
        994   -1    0    0    0    0 -0.00000000000E+00 -0.00000000000E+00  0.11368683772E-12  0.17120000000E+03  0.17120000000E+03 0.  0.
         13    1    1    2    0    0 -0.81919468563E+01 -0.38096920546E+02  0.20103331875E+03  0.20477521764E+03  0.10566000000E+00 0.  1.
        994    1    1    2    0    0 -0.24087274513E+01  0.14381051579E+02  0.47260145151E+01  0.17188482139E+03  0.17120000000E+03 0.  0.
        998    1    1    2    0    0  0.10600674308E+02  0.23715868967E+02  0.12942406630E+04  0.12945399610E+04  0.10000000000E+02 0.  1.
</event>
<event>
 5    1  0.1141915E-008  0.3729592E+03  0.7957747E-01  0.3482401E+00
         13   -1    0    0    0    0  0.00000000000E+00  0.00000000000E+00  0.14999999963E+04  0.15000000000E+04  0.10566000000E+00 0. -1.
        994   -1    0    0    0    0 -0.00000000000E+00 -0.00000000000E+00  0.11368683772E-12  0.17120000000E+03  0.17120000000E+03 0.  0.
         13    1    1    2    0    0 -0.11476752452E+02 -0.19387383715E+02  0.29555198645E+02  0.37163253694E+02  0.10566000000E+00 0. -1.
        994    1    1    2    0    0  0.26485914548E+02  0.34355365175E+01  0.10175817928E+02  0.17356927681E+03  0.17120000000E+03 0.  0.
        998    1    1    2    0    0 -0.15009162096E+02  0.15951847197E+02  0.14602689797E+04  0.14604674695E+04  0.10000000000E+02 0. -1.
</event>
<event>
 5    1  0.1141915E-008  0.3688996E+03  0.7957747E-01  0.3500963E+00
         13   -1    0    0    0    0  0.00000000000E+00  0.00000000000E+00  0.14999999963E+04  0.15000000000E+04  0.10566000000E+00 0. -1.
        994   -1    0    0    0    0 -0.00000000000E+00 -0.00000000000E+00  0.11368683772E-12  0.17120000000E+03  0.17120000000E+03 0.  0.
         13    1    1    2    0    0 -0.12837976423E+02 -0.38819376182E+00  0.32050943567E+01  0.13238131549E+02  0.10566000000E+00 0. -1.
        994    1    1    2    0    0  0.88328753710E+01 -0.54095163552E+01  0.10731850965E+02  0.17184846575E+03  0.17120000000E+03 0.  0.
        998    1    1    2    0    0  0.40051010521E+01  0.57977101170E+01  0.14860630510E+04  0.14861134027E+04  0.10000000000E+02 0. -1.
</event>
<event>
 5    1  0.1141915E-008  0.3728670E+03  0.7957747E-01  0.3482818E+00
         13   -1    0    0    0    0  0.00000000000E+00  0.00000000000E+00  0.14999999963E+04  0.15000000000E+04  0.10566000000E+00 0.  1.
        994   -1    0    0    0    0 -0.00000000000E+00 -0.00000000000E+00  0.11368683772E-12  0.17120000000E+03  0.17120000000E+03 0.  0.
         13    1    1    2    0    0  0.80287995632E+01 -0.37785554225E+02  0.50776576156E+02  0.63800325866E+02  0.10566000000E+00 0.  1.
        994    1    1    2    0    0  0.96269011817E+00  0.57770442770E+02  0.24347347954E+02  0.18232000489E+03  0.17120000000E+03 0.  0.
        998    1    1    2    0    0 -0.89914896814E+01 -0.19984888545E+02  0.14248760722E+04  0.14250796692E+04  0.10000000000E+02 0.  1.
</event>
<event>
 5    1  0.1141915E-008  0.3760506E+03  0.7957747E-01  0.3468537E+00
         13   -1    0    0    0    0  0.00000000000E+00  0.00000000000E+00  0.14999999963E+04  0.15000000000E+04  0.10566000000E+00 0.  1.
        994   -1    0    0    0    0 -0.00000000000E+00 -0.00000000000E+00  0.11368683772E-12  0.17120000000E+03  0.17120000000E+03 0.  0.
         13    1    1    2    0    0 -0.18374131519E+01 -0.18704989608E+02  0.64208435860E+01  0.19861800515E+02  0.10566000000E+00 0.  1.
        994    1    1    2    0    0  0.17516823215E+02 -0.19841804044E+01  0.15285371652E+02  0.17278269200E+03  0.17120000000E+03 0.  0.
        998    1    1    2    0    0 -0.15679410064E+02  0.20689170012E+02  0.14782937810E+04  0.14785555075E+04  0.10000000000E+02 0.  1.
</event>
<event>
 5    1  0.1141915E-008  0.3783544E+03  0.7957747E-01  0.3458355E+00
         13   -1    0    0    0    0  0.00000000000E+00  0.00000000000E+00  0.14999999963E+04  0.15000000000E+04  0.10566000000E+00 0. -1.
        994   -1    0    0    0    0 -0.00000000000E+00 -0.00000000000E+00  0.11368683772E-12  0.17120000000E+03  0.17120000000E+03 0.  0.
         13    1    1    2    0    0 -0.42179356732E+02  0.14257807094E+02  0.19238620892E+03  0.19747113142E+03  0.10566000000E+00 0. -1.
        994    1    1    2    0    0  0.25938708447E+02 -0.17182499662E+02  0.82268432872E+01  0.17419866774E+03  0.17120000000E+03 0.  0.
        998    1    1    2    0    0  0.16240648286E+02  0.29246925675E+01  0.12993869441E+04  0.12995302008E+04  0.10000000000E+02 0. -1.
</event>
<event>
 5    1  0.1141915E-008  0.3803782E+03  0.7957747E-01  0.3449514E+00
         13   -1    0    0    0    0  0.00000000000E+00  0.00000000000E+00  0.14999999963E+04  0.15000000000E+04  0.10566000000E+00 0.  1.
        994   -1    0    0    0    0 -0.00000000000E+00 -0.00000000000E+00  0.11368683772E-12  0.17120000000E+03  0.17120000000E+03 0.  0.
         13    1    1    2    0    0  0.19255390594E+02 -0.35759323778E+02  0.20875359131E+03  0.21266775109E+03  0.10566000000E+00 0.  1.
        994    1    1    2    0    0 -0.12534067856E+02  0.19209509247E+02  0.57008888256E+01  0.17282374905E+03  0.17120000000E+03 0.  0.
        998    1    1    2    0    0 -0.67213227384E+01  0.16549814531E+02  0.12855455161E+04  0.12857084999E+04  0.10000000000E+02 0.  1.
</event>
<event>
 5    1  0.1141915E-008  0.3768275E+03  0.7957747E-01  0.3465090E+00
         13   -1    0    0    0    0  0.00000000000E+00  0.00000000000E+00  0.14999999963E+04  0.15000000000E+04  0.10566000000E+00 0.  1.
        994   -1    0    0    0    0 -0.00000000000E+00 -0.00000000000E+00  0.11368683772E-12  0.17120000000E+03  0.17120000000E+03 0.  0.
         13    1    1    2    0    0 -0.18887065252E+02  0.45853806879E+02  0.18169582867E+03  0.18834191822E+03  0.10566000000E+00 0.  1.
        994    1    1    2    0    0  0.13183040776E+02 -0.53961349273E+02  0.16239639014E+02  0.18071741935E+03  0.17120000000E+03 0.  0.
        998    1    1    2    0    0  0.57040244756E+01  0.81075423937E+01  0.13020645286E+04  0.13021406624E+04  0.10000000000E+02 0.  1.
</event>
<event>
 5    1  0.1141915E-008  0.3842812E+03  0.7957747E-01  0.3432726E+00
         13   -1    0    0    0    0  0.00000000000E+00  0.00000000000E+00  0.14999999963E+04  0.15000000000E+04  0.10566000000E+00 0.  1.
        994   -1    0    0    0    0 -0.00000000000E+00 -0.00000000000E+00  0.11368683772E-12  0.17120000000E+03  0.17120000000E+03 0.  0.
         13    1    1    2    0    0  0.58383666348E+01  0.11203551569E+02  0.39089878754E+02  0.41080845631E+02  0.10566000000E+00 0.  1.
        994    1    1    2    0    0 -0.33924569995E+01 -0.11881845646E+02  0.24908802041E+01  0.17166342506E+03  0.17120000000E+03 0.  0.
        998    1    1    2    0    0 -0.24459096352E+01  0.67829407788E+00  0.14584192373E+04  0.14584557293E+04  0.10000000000E+02 0.  1.
</event>
<event>
 5    1  0.1141915E-008  0.3785368E+03  0.7957747E-01  0.3457554E+00
         13   -1    0    0    0    0  0.00000000000E+00  0.00000000000E+00  0.14999999963E+04  0.15000000000E+04  0.10566000000E+00 0. -1.
        994   -1    0    0    0    0 -0.00000000000E+00 -0.00000000000E+00  0.11368683772E-12  0.17120000000E+03  0.17120000000E+03 0.  0.
         13    1    1    2    0    0 -0.34865651492E+02 -0.78646842578E+02  0.47441012595E+03  0.48214719565E+03  0.10566000000E+00 0. -1.
        994    1    1    2    0    0  0.23766404510E+02  0.91325864014E+02  0.35395263803E+02  0.19866434034E+03  0.17120000000E+03 0.  0.
        998    1    1    2    0    0  0.11099246983E+02 -0.12679021436E+02  0.99019460652E+03  0.99038846402E+03  0.10000000000E+02 0.  1.
</event>
<event>
 5    1  0.1141915E-008  0.3806503E+03  0.7957747E-01  0.3448332E+00
         13   -1    0    0    0    0  0.00000000000E+00  0.00000000000E+00  0.14999999963E+04  0.15000000000E+04  0.10566000000E+00 0. -1.
        994   -1    0    0    0    0 -0.00000000000E+00 -0.00000000000E+00  0.11368683772E-12  0.17120000000E+03  0.17120000000E+03 0.  0.
         13    1    1    2    0    0 -0.71022153657E+01 -0.18079623357E+02  0.48758680747E+02  0.52485563311E+02  0.10566000000E+00 0. -1.
        994    1    1    2    0    0  0.86656017876E+00  0.10000808266E+02  0.41414582142E+01  0.17154404323E+03  0.17120000000E+03 0.  0.
        998    1    1    2    0    0  0.62356551869E+01  0.80788150902E+01  0.14470998573E+04  0.14471703935E+04  0.10000000000E+02 0. -1.
</event>
<event>
 5    1  0.1141915E-008  0.3843248E+03  0.7957747E-01  0.3432541E+00
         13   -1    0    0    0    0  0.00000000000E+00  0.00000000000E+00  0.14999999963E+04  0.15000000000E+04  0.10566000000E+00 0. -1.
        994   -1    0    0    0    0 -0.00000000000E+00 -0.00000000000E+00  0.11368683772E-12  0.17120000000E+03  0.17120000000E+03 0.  0.
         13    1    1    2    0    0  0.11613095393E+02  0.87984272295E+01  0.52478071841E+02  0.54463157222E+02  0.10566000000E+00 0. -1.
        994    1    1    2    0    0 -0.11049963573E+02 -0.84509062698E+01  0.26038274125E+01  0.17178399061E+03  0.17120000000E+03 0.  0.
        998    1    1    2    0    0 -0.56313181972E+00 -0.34752095973E+00  0.14449180970E+04  0.14449528522E+04  0.10000000000E+02 0. -1.
</event>
<event>
 5    1  0.1141915E-008  0.3847221E+03  0.7957747E-01  0.3430852E+00
         13   -1    0    0    0    0  0.00000000000E+00  0.00000000000E+00  0.14999999963E+04  0.15000000000E+04  0.10566000000E+00 0. -1.
        994   -1    0    0    0    0 -0.00000000000E+00 -0.00000000000E+00  0.11368683772E-12  0.17120000000E+03  0.17120000000E+03 0.  0.
         13    1    1    2    0    0 -0.20990165427E+02  0.12780445224E+01  0.11406686718E+03  0.11598914516E+03  0.10566000000E+00 0. -1.
        994    1    1    2    0    0  0.24609208550E+02 -0.30524378854E+00  0.37644462982E+01  0.17300091727E+03  0.17120000000E+03 0.  0.
        998    1    1    2    0    0 -0.36190431230E+01 -0.97280073383E+00  0.13821686828E+04  0.13822099376E+04  0.10000000000E+02 0. -1.
</event>
<event>
 5    1  0.1141915E-008  0.3820064E+03  0.7957747E-01  0.3442468E+00
         13   -1    0    0    0    0  0.00000000000E+00  0.00000000000E+00  0.14999999963E+04  0.15000000000E+04  0.10566000000E+00 0. -1.
        994   -1    0    0    0    0 -0.00000000000E+00 -0.00000000000E+00  0.11368683772E-12  0.17120000000E+03  0.17120000000E+03 0.  0.
         13    1    1    2    0    0 -0.28373757518E+02 -0.22264069307E+02  0.17794697124E+03  0.18156512505E+03  0.10566000000E+00 0. -1.
        994    1    1    2    0    0  0.33969289877E+02  0.22901208838E+02  0.87175909158E+01  0.17624929620E+03  0.17120000000E+03 0.  0.
        998    1    1    2    0    0 -0.55955323592E+01 -0.63713953152E+00  0.13133354341E+04  0.13133855787E+04  0.10000000000E+02 0. -1.
</event>
<event>
 5    1  0.1141915E-008  0.3857665E+03  0.7957747E-01  0.3426428E+00
         13   -1    0    0    0    0  0.00000000000E+00  0.00000000000E+00  0.14999999963E+04  0.15000000000E+04  0.10566000000E+00 0. -1.
        994   -1    0    0    0    0 -0.00000000000E+00 -0.00000000000E+00  0.11368683772E-12  0.17120000000E+03  0.17120000000E+03 0.  0.
         13    1    1    2    0    0  0.13554881720E+02  0.60456255509E+00  0.74878259363E+02  0.76097734550E+02  0.10566000000E+00 0. -1.
        994    1    1    2    0    0 -0.77915957777E+01 -0.11945504664E+01  0.14539216815E+01  0.17138754273E+03  0.17120000000E+03 0.  0.
        998    1    1    2    0    0 -0.57632859420E+01  0.58998791129E+00  0.14236678152E+04  0.14237147227E+04  0.10000000000E+02 0. -1.
</event>
<event>
 5    1  0.1141915E-008  0.3807362E+03  0.7957747E-01  0.3447959E+00
         13   -1    0    0    0    0  0.00000000000E+00  0.00000000000E+00  0.14999999963E+04  0.15000000000E+04  0.10566000000E+00 0. -1.
        994   -1    0    0    0    0 -0.00000000000E+00 -0.00000000000E+00  0.11368683772E-12  0.17120000000E+03  0.17120000000E+03 0.  0.
         13    1    1    2    0    0  0.21528240719E+01 -0.15221833768E+02  0.29928531463E+02  0.33646203862E+02  0.10566000000E+00 0. -1.
        994    1    1    2    0    0 -0.14381716601E+01  0.10549289913E+02  0.41400959221E+01  0.17158069894E+03  0.17120000000E+03 0.  0.
        998    1    1    2    0    0 -0.71465241185E+00  0.46725438550E+01  0.14659313689E+04  0.14659730972E+04  0.10000000000E+02 0. -1.
</event>
<event>
 5    1  0.1141915E-008  0.3771311E+03  0.7957747E-01  0.3463746E+00
         13   -1    0    0    0    0  0.00000000000E+00  0.00000000000E+00  0.14999999963E+04  0.15000000000E+04  0.10566000000E+00 0. -1.
        994   -1    0    0    0    0 -0.00000000000E+00 -0.00000000000E+00  0.11368683772E-12  0.17120000000E+03  0.17120000000E+03 0.  0.
         13    1    1    2    0    0  0.63761116607E+02 -0.32500291184E+02  0.39067440291E+03  0.39717533807E+03  0.10566000000E+00 0. -1.
        994    1    1    2    0    0 -0.54195618243E+02  0.20017766961E+02  0.16937717846E+02  0.18147782872E+03  0.17120000000E+03 0.  0.
        998    1    1    2    0    0 -0.95654983643E+01  0.12482524223E+02  0.10923878755E+04  0.10925468332E+04  0.10000000000E+02 0. -1.
</event>
<event>
 5    1  0.1141915E-008  0.3827905E+03  0.7957747E-01  0.3439097E+00
         13   -1    0    0    0    0  0.00000000000E+00  0.00000000000E+00  0.14999999963E+04  0.15000000000E+04  0.10566000000E+00 0.  1.
        994   -1    0    0    0    0 -0.00000000000E+00 -0.00000000000E+00  0.11368683772E-12  0.17120000000E+03  0.17120000000E+03 0.  0.
         13    1    1    2    0    0 -0.23687938043E+02  0.17251472807E+02  0.17038693587E+03  0.17288855024E+03  0.10566000000E+00 0.  1.
        994    1    1    2    0    0  0.82991669402E+01 -0.61824857534E+00  0.29605231775E+01  0.17142771976E+03  0.17120000000E+03 0.  0.
        998    1    1    2    0    0  0.15388771103E+02 -0.16633224232E+02  0.13266525372E+04  0.13268837300E+04  0.10000000000E+02 0.  1.
</event>
<event>
 5    1  0.1141915E-008  0.3744453E+03  0.7957747E-01  0.3475707E+00
         13   -1    0    0    0    0  0.00000000000E+00  0.00000000000E+00  0.14999999963E+04  0.15000000000E+04  0.10566000000E+00 0. -1.
        994   -1    0    0    0    0 -0.00000000000E+00 -0.00000000000E+00  0.11368683772E-12  0.17120000000E+03  0.17120000000E+03 0.  0.
         13    1    1    2    0    0 -0.29160412099E+02  0.29658476507E+02  0.11762691772E+03  0.12476400843E+03  0.10566000000E+00 0. -1.
        994    1    1    2    0    0  0.12808482656E+02 -0.33699278562E+02  0.11402904016E+02  0.17532588178E+03  0.17120000000E+03 0.  0.
        998    1    1    2    0    0  0.16351929443E+02  0.40408020545E+01  0.13709701745E+04  0.13711101098E+04  0.10000000000E+02 0. -1.
</event>
<event>
 5    1  0.1141915E-008  0.3831759E+03  0.7957747E-01  0.3437446E+00
         13   -1    0    0    0    0  0.00000000000E+00  0.00000000000E+00  0.14999999963E+04  0.15000000000E+04  0.10566000000E+00 0.  1.
        994   -1    0    0    0    0 -0.00000000000E+00 -0.00000000000E+00  0.11368683772E-12  0.17120000000E+03  0.17120000000E+03 0.  0.
         13    1    1    2    0    0 -0.17237634682E+02 -0.25005442022E+01  0.57105882103E+02  0.59703280526E+02  0.10566000000E+00 0.  1.
        994    1    1    2    0    0  0.18036596713E+02  0.26362810026E+01  0.36384813983E+01  0.17220611878E+03  0.17120000000E+03 0.  0.
        998    1    1    2    0    0 -0.79896203118E+00 -0.13573680043E+00  0.14392556328E+04  0.14392906007E+04  0.10000000000E+02 0.  0.
</event>
<event>
 5    1  0.1141915E-008  0.3832722E+03  0.7957747E-01  0.3437033E+00
         13   -1    0    0    0    0  0.00000000000E+00  0.00000000000E+00  0.14999999963E+04  0.15000000000E+04  0.10566000000E+00 0. -1.
        994   -1    0    0    0    0 -0.00000000000E+00 -0.00000000000E+00  0.11368683772E-12  0.17120000000E+03  0.17120000000E+03 0.  0.
         13    1    1    2    0    0  0.36908317282E+01 -0.16293208298E+02  0.55753490857E+02  0.58202695661E+02  0.10566000000E+00 0. -1.
        994    1    1    2    0    0  0.18286381367E+01  0.10080632423E+02  0.28375937486E+01  0.17152974962E+03  0.17120000000E+03 0.  0.
        998    1    1    2    0    0 -0.55194698649E+01  0.62125758754E+01  0.14414089117E+04  0.14414675547E+04  0.10000000000E+02 0. -1.
</event>
<event>
 5    1  0.1141915E-008  0.3697169E+03  0.7957747E-01  0.3497193E+00
         13   -1    0    0    0    0  0.00000000000E+00  0.00000000000E+00  0.14999999963E+04  0.15000000000E+04  0.10566000000E+00 0.  1.
        994   -1    0    0    0    0 -0.00000000000E+00 -0.00000000000E+00  0.11368683772E-12  0.17120000000E+03  0.17120000000E+03 0.  0.
         13    1    1    2    0    0 -0.11188094435E+02 -0.18861361003E+02  0.17991154983E+02  0.28365775463E+02  0.10566000000E+00 0.  1.
        994    1    1    2    0    0  0.13898683258E+02  0.10387048385E+01  0.11467899873E+02  0.17214878748E+03  0.17120000000E+03 0.  0.
        998    1    1    2    0    0 -0.27105888232E+01  0.17822656165E+02  0.14705409414E+04  0.14706854371E+04  0.10000000000E+02 0.  1.
</event>
<event>
 5    1  0.1141915E-008  0.3846116E+03  0.7957747E-01  0.3431321E+00
         13   -1    0    0    0    0  0.00000000000E+00  0.00000000000E+00  0.14999999963E+04  0.15000000000E+04  0.10566000000E+00 0. -1.
        994   -1    0    0    0    0 -0.00000000000E+00 -0.00000000000E+00  0.11368683772E-12  0.17120000000E+03  0.17120000000E+03 0.  0.
         13    1    1    2    0    0 -0.11092559910E+02  0.29837952239E+00  0.34244324126E+02  0.35997483448E+02  0.10566000000E+00 0. -1.
        994    1    1    2    0    0  0.18761293234E+01 -0.11348296245E+02  0.22588864771E+01  0.17160083408E+03  0.17120000000E+03 0.  0.
        998    1    1    2    0    0  0.92164305863E+01  0.11049916722E+02  0.14634967857E+04  0.14636016825E+04  0.10000000000E+02 0. -1.
</event>
<event>
 5    1  0.1141915E-008  0.3821144E+03  0.7957747E-01  0.3442003E+00
         13   -1    0    0    0    0  0.00000000000E+00  0.00000000000E+00  0.14999999963E+04  0.15000000000E+04  0.10566000000E+00 0.  1.
        994   -1    0    0    0    0 -0.00000000000E+00 -0.00000000000E+00  0.11368683772E-12  0.17120000000E+03  0.17120000000E+03 0.  0.
         13    1    1    2    0    0  0.31220283872E+02  0.20278393605E+02  0.22497254140E+03  0.22803196031E+03  0.10566000000E+00 0.  1.
        994    1    1    2    0    0 -0.21927802708E+01 -0.39592097268E+02  0.83069694404E+01  0.17592836097E+03  0.17120000000E+03 0.  0.
        998    1    1    2    0    0 -0.29027503602E+02  0.19313703662E+02  0.12667204854E+04  0.12672396787E+04  0.10000000000E+02 0.  1.
</event>
<event>
 5    1  0.1141915E-008  0.3828122E+03  0.7957747E-01  0.3439004E+00
         13   -1    0    0    0    0  0.00000000000E+00  0.00000000000E+00  0.14999999963E+04  0.15000000000E+04  0.10566000000E+00 0. -1.
        994   -1    0    0    0    0 -0.00000000000E+00 -0.00000000000E+00  0.11368683772E-12  0.17120000000E+03  0.17120000000E+03 0.  0.
         13    1    1    2    0    0  0.87791472000E+01 -0.21138350290E+02  0.10012587698E+03  0.10270883936E+03  0.10566000000E+00 0. -1.
        994    1    1    2    0    0 -0.12767191195E+02  0.20177556963E+01  0.32737936226E+01  0.17171846212E+03  0.17120000000E+03 0.  0.
        998    1    1    2    0    0  0.39880439954E+01  0.19120594594E+02  0.13966003257E+04  0.13967726985E+04  0.10000000000E+02 0. -1.
</event>
<event>
 5    1  0.1141915E-008  0.3840739E+03  0.7957747E-01  0.3433610E+00
         13   -1    0    0    0    0  0.00000000000E+00  0.00000000000E+00  0.14999999963E+04  0.15000000000E+04  0.10566000000E+00 0.  1.
        994   -1    0    0    0    0 -0.00000000000E+00 -0.00000000000E+00  0.11368683772E-12  0.17120000000E+03  0.17120000000E+03 0.  0.
         13    1    1    2    0    0 -0.15440575149E+02  0.12963977571E+01  0.57718143965E+02  0.59761921948E+02  0.10566000000E+00 0.  1.
        994    1    1    2    0    0  0.75601373076E+01 -0.39951095225E+01  0.23318577231E+01  0.17142926861E+03  0.17120000000E+03 0.  0.
        998    1    1    2    0    0  0.78804378418E+01  0.26987117655E+01  0.14399499946E+04  0.14400088094E+04  0.10000000000E+02 0.  1.
</event>
<event>
 5    1  0.1141915E-008  0.3706498E+03  0.7957747E-01  0.3492910E+00
         13   -1    0    0    0    0  0.00000000000E+00  0.00000000000E+00  0.14999999963E+04  0.15000000000E+04  0.10566000000E+00 0.  1.
        994   -1    0    0    0    0 -0.00000000000E+00 -0.00000000000E+00  0.11368683772E-12  0.17120000000E+03  0.17120000000E+03 0.  0.
         13    1    1    2    0    0  0.48456048175E+02  0.18050897962E+02  0.12217007770E+03  0.13266258920E+03  0.10566000000E+00 0.  1.
        994    1    1    2    0    0 -0.13742436771E+02 -0.83756623918E+01  0.12190875430E+02  0.17238637920E+03  0.17120000000E+03 0.  0.
        998    1    1    2    0    0 -0.34713611404E+02 -0.96752355707E+01  0.13656390431E+04  0.13661510316E+04  0.10000000000E+02 0.  1.
</event>
<event>
 5    1  0.1141915E-008  0.3808509E+03  0.7957747E-01  0.3447462E+00
         13   -1    0    0    0    0  0.00000000000E+00  0.00000000000E+00  0.14999999963E+04  0.15000000000E+04  0.10566000000E+00 0. -1.
        994   -1    0    0    0    0 -0.00000000000E+00 -0.00000000000E+00  0.11368683772E-12  0.17120000000E+03  0.17120000000E+03 0.  0.
         13    1    1    2    0    0 -0.20623736844E+02  0.19134736388E+02  0.97194505541E+02  0.10118428598E+03  0.10566000000E+00 0. -1.
        994    1    1    2    0    0  0.18616010204E+02 -0.28313475522E+02  0.75413039076E+01  0.17468405765E+03  0.17120000000E+03 0.  0.
        998    1    1    2    0    0  0.20077266397E+01  0.91787391340E+01  0.13952641868E+04  0.13953316564E+04  0.10000000000E+02 0. -1.
</event>
<event>
 5    1  0.1141915E-008  0.3734911E+03  0.7957747E-01  0.3479999E+00
         13   -1    0    0    0    0  0.00000000000E+00  0.00000000000E+00  0.14999999963E+04  0.15000000000E+04  0.10566000000E+00 0.  1.
        994   -1    0    0    0    0 -0.00000000000E+00 -0.00000000000E+00  0.11368683772E-12  0.17120000000E+03  0.17120000000E+03 0.  0.
         13    1    1    2    0    0 -0.76012925575E+01 -0.10049840280E+02  0.71411393909E+01  0.14483990267E+02  0.10566000000E+00 0.  1.
        994    1    1    2    0    0  0.10217616801E+02  0.11965809323E+02  0.83019518390E+01  0.17212188324E+03  0.17120000000E+03 0.  0.
        998    1    1    2    0    0 -0.26163242437E+01 -0.19159690431E+01  0.14845569050E+04  0.14845941265E+04  0.10000000000E+02 0.  1.
</event>
<event>
 5    1  0.1141915E-008  0.3828101E+03  0.7957747E-01  0.3439013E+00
         13   -1    0    0    0    0  0.00000000000E+00  0.00000000000E+00  0.14999999963E+04  0.15000000000E+04  0.10566000000E+00 0.  1.
        994   -1    0    0    0    0 -0.00000000000E+00 -0.00000000000E+00  0.11368683772E-12  0.17120000000E+03  0.17120000000E+03 0.  0.
         13    1    1    2    0    0 -0.12676071554E+02  0.12730515606E+02  0.56902415311E+02  0.59671139170E+02  0.10566000000E+00 0.  1.
        994    1    1    2    0    0  0.11600976989E+02 -0.13133004481E+02  0.37389737833E+01  0.17213505860E+03  0.17120000000E+03 0.  0.
        998    1    1    2    0    0  0.10750945650E+01  0.40248887525E+00  0.14393586072E+04  0.14393938022E+04  0.10000000000E+02 0.  1.
</event>
<event>
 5    1  0.1141915E-008  0.3743985E+03  0.7957747E-01  0.3475917E+00
         13   -1    0    0    0    0  0.00000000000E+00  0.00000000000E+00  0.14999999963E+04  0.15000000000E+04  0.10566000000E+00 0. -1.
        994   -1    0    0    0    0 -0.00000000000E+00 -0.00000000000E+00  0.11368683772E-12  0.17120000000E+03  0.17120000000E+03 0.  0.
         13    1    1    2    0    0  0.48218355188E+01  0.35499268494E+02  0.43943684049E+02  0.56696619770E+02  0.10566000000E+00 0. -1.
        994    1    1    2    0    0 -0.27672602163E+02 -0.14387789483E+02  0.16745568541E+02  0.17482172480E+03  0.17120000000E+03 0.  0.
        998    1    1    2    0    0  0.22850766644E+02 -0.21111479012E+02  0.14393107437E+04  0.14396816554E+04  0.10000000000E+02 0. -1.
</event>
<event>
 5    1  0.1141915E-008  0.3801552E+03  0.7957747E-01  0.3450483E+00
         13   -1    0    0    0    0  0.00000000000E+00  0.00000000000E+00  0.14999999963E+04  0.15000000000E+04  0.10566000000E+00 0. -1.
        994   -1    0    0    0    0 -0.00000000000E+00 -0.00000000000E+00  0.11368683772E-12  0.17120000000E+03  0.17120000000E+03 0.  0.
         13    1    1    2    0    0 -0.93189346563E+01  0.27820699021E+02  0.10328130467E+03  0.10736793235E+03  0.10566000000E+00 0. -1.
        994    1    1    2    0    0  0.16546001871E+02 -0.16165331013E+02  0.58447107987E+01  0.17285453060E+03  0.17120000000E+03 0.  0.
        998    1    1    2    0    0 -0.72270672142E+01 -0.11655368008E+02  0.13908739808E+04  0.13909775371E+04  0.10000000000E+02 0. -1.
</event>
<event>
 5    1  0.1141915E-008  0.3849459E+03  0.7957747E-01  0.3429902E+00
         13   -1    0    0    0    0  0.00000000000E+00  0.00000000000E+00  0.14999999963E+04  0.15000000000E+04  0.10566000000E+00 0.  1.
        994   -1    0    0    0    0 -0.00000000000E+00 -0.00000000000E+00  0.11368683772E-12  0.17120000000E+03  0.17120000000E+03 0.  0.
         13    1    1    2    0    0 -0.16944414300E+01  0.15191677577E+02  0.67369443271E+02  0.69081916954E+02  0.10566000000E+00 0.  1.
        994    1    1    2    0    0  0.53585721380E+01 -0.16722443418E+02  0.26719007573E+01  0.17211895149E+03  0.17120000000E+03 0.  0.
        998    1    1    2    0    0 -0.36641307080E+01  0.15307658410E+01  0.14299586523E+04  0.14299991316E+04  0.10000000000E+02 0.  1.
</event>
<event>
 5    1  0.1141915E-008  0.3148594E+03  0.7957747E-01  0.3795334E+00
         13   -1    0    0    0    0  0.00000000000E+00  0.00000000000E+00  0.14999999963E+04  0.15000000000E+04  0.10566000000E+00 0.  1.
        994   -1    0    0    0    0 -0.00000000000E+00 -0.00000000000E+00  0.11368683772E-12  0.17120000000E+03  0.17120000000E+03 0.  0.
         13    1    1    2    0    0  0.13672207039E+03  0.20979967148E+03  0.53950380782E+03  0.59478836278E+03  0.10566000000E+00 0.  1.
        994    1    1    2    0    0 -0.14744922345E+03 -0.21143574389E+03  0.35581629717E+03  0.47155171999E+03  0.17120000000E+03 0.  0.
        998    1    1    2    0    0  0.10727153059E+02  0.16360724077E+01  0.60467989128E+03  0.60485991723E+03  0.10000000000E+02 0.  1.
</event>
<event>
 5    1  0.1141915E-008  0.3804353E+03  0.7957747E-01  0.3449265E+00
         13   -1    0    0    0    0  0.00000000000E+00  0.00000000000E+00  0.14999999963E+04  0.15000000000E+04  0.10566000000E+00 0.  1.
        994   -1    0    0    0    0 -0.00000000000E+00 -0.00000000000E+00  0.11368683772E-12  0.17120000000E+03  0.17120000000E+03 0.  0.
         13    1    1    2    0    0  0.17580559814E+02  0.21039203154E+02  0.92152691069E+02  0.96144962365E+02  0.10566000000E+00 0.  1.
        994    1    1    2    0    0 -0.12947547824E+02 -0.18120097739E+02  0.55709286716E+01  0.17273231366E+03  0.17120000000E+03 0.  0.
        998    1    1    2    0    0 -0.46330119904E+01 -0.29191054150E+01  0.14022763765E+04  0.14023227240E+04  0.10000000000E+02 0.  1.
</event>
<event>
 5    1  0.1141915E-008  0.3774545E+03  0.7957747E-01  0.3462318E+00
         13   -1    0    0    0    0  0.00000000000E+00  0.00000000000E+00  0.14999999963E+04  0.15000000000E+04  0.10566000000E+00 0. -1.
        994   -1    0    0    0    0 -0.00000000000E+00 -0.00000000000E+00  0.11368683772E-12  0.17120000000E+03  0.17120000000E+03 0.  0.
         13    1    1    2    0    0 -0.22894016716E+02 -0.16114352240E+02  0.74486947581E+02  0.79574649692E+02  0.10566000000E+00 0. -1.
        994    1    1    2    0    0  0.10249844175E+02 -0.90600856523E+01  0.60548356282E+01  0.17185239449E+03  0.17120000000E+03 0.  0.
        998    1    1    2    0    0  0.12644172541E+02  0.25174437893E+02  0.14194582131E+04  0.14197729558E+04  0.10000000000E+02 0. -1.
</event>
<event>
 5    1  0.1141915E-008  0.3830936E+03  0.7957747E-01  0.3437798E+00
         13   -1    0    0    0    0  0.00000000000E+00  0.00000000000E+00  0.14999999963E+04  0.15000000000E+04  0.10566000000E+00 0.  1.
        994   -1    0    0    0    0 -0.00000000000E+00 -0.00000000000E+00  0.11368683772E-12  0.17120000000E+03  0.17120000000E+03 0.  0.
         13    1    1    2    0    0  0.11328727364E+02  0.80061969404E+01  0.35389121940E+02  0.38011055876E+02  0.10566000000E+00 0.  1.
        994    1    1    2    0    0 -0.15595092149E+02 -0.76349634339E+01  0.35779158186E+01  0.17211548753E+03  0.17120000000E+03 0.  0.
        998    1    1    2    0    0  0.42663647856E+01 -0.37123350644E+00  0.14610329585E+04  0.14610734566E+04  0.10000000000E+02 0.  1.
</event>
<event>
 5    1  0.1141915E-008  0.3821485E+03  0.7957747E-01  0.3441856E+00
         13   -1    0    0    0    0  0.00000000000E+00  0.00000000000E+00  0.14999999963E+04  0.15000000000E+04  0.10566000000E+00 0. -1.
        994   -1    0    0    0    0 -0.00000000000E+00 -0.00000000000E+00  0.11368683772E-12  0.17120000000E+03  0.17120000000E+03 0.  0.
         13    1    1    2    0    0 -0.18588454319E+02 -0.60661672657E+01  0.61902208718E+02  0.64917051901E+02  0.10566000000E+00 0. -1.
        994    1    1    2    0    0  0.11683214090E+02  0.17609164588E+01  0.35160071562E+01  0.17164323647E+03  0.17120000000E+03 0.  0.
        998    1    1    2    0    0  0.69052402285E+01  0.43052508070E+01  0.14345817804E+04  0.14346397116E+04  0.10000000000E+02 0. -1.
</event>
<event>
 5    1  0.1141915E-008  0.3746893E+03  0.7957747E-01  0.3474614E+00
         13   -1    0    0    0    0  0.00000000000E+00  0.00000000000E+00  0.14999999963E+04  0.15000000000E+04  0.10566000000E+00 0.  1.
        994   -1    0    0    0    0 -0.00000000000E+00 -0.00000000000E+00  0.11368683772E-12  0.17120000000E+03  0.17120000000E+03 0.  0.
         13    1    1    2    0    0  0.98588140798E+01 -0.40720970128E+02  0.13165316858E+03  0.13815918929E+03  0.10566000000E+00 0.  1.
        994    1    1    2    0    0 -0.46497337717E+02  0.63901323199E+01  0.14371313753E+02  0.17809775648E+03  0.17120000000E+03 0.  0.
        998    1    1    2    0    0  0.36638523637E+02  0.34330837808E+02  0.13539755139E+04  0.13549430542E+04  0.10000000000E+02 0.  1.
</event>
<event>
 5    1  0.1141915E-008  0.3759548E+03  0.7957747E-01  0.3468963E+00
         13   -1    0    0    0    0  0.00000000000E+00  0.00000000000E+00  0.14999999963E+04  0.15000000000E+04  0.10566000000E+00 0. -1.
        994   -1    0    0    0    0 -0.00000000000E+00 -0.00000000000E+00  0.11368683772E-12  0.17120000000E+03  0.17120000000E+03 0.  0.
         13    1    1    2    0    0 -0.11053232673E+03 -0.54602461097E+02  0.54036673649E+03  0.55425178852E+03  0.10566000000E+00 0. -1.
        994    1    1    2    0    0  0.12922691528E+03  0.78669178652E+02  0.88164546466E+02  0.24488949050E+03  0.17120000000E+03 0.  0.
        998    1    1    2    0    0 -0.18694588549E+02 -0.24066717555E+02  0.87146871332E+03  0.87205872098E+03  0.10000000000E+02 0. -1.
</event>
<event>
 5    1  0.1141915E-008  0.3816698E+03  0.7957747E-01  0.3443920E+00
         13   -1    0    0    0    0  0.00000000000E+00  0.00000000000E+00  0.14999999963E+04  0.15000000000E+04  0.10566000000E+00 0. -1.
        994   -1    0    0    0    0 -0.00000000000E+00 -0.00000000000E+00  0.11368683772E-12  0.17120000000E+03  0.17120000000E+03 0.  0.
         13    1    1    2    0    0 -0.14285943026E+02 -0.14131451831E+02  0.61852022246E+02  0.65034374902E+02  0.10566000000E+00 0. -1.
        994    1    1    2    0    0  0.64351634437E+00  0.92655803080E+01  0.35794365864E+01  0.17148911761E+03  0.17120000000E+03 0.  0.
        998    1    1    2    0    0  0.13642426681E+02  0.48658715232E+01  0.14345685374E+04  0.14346765075E+04  0.10000000000E+02 0. -1.
</event>
<event>
 5    1  0.1141915E-008  0.3844965E+03  0.7957747E-01  0.3431811E+00
         13   -1    0    0    0    0  0.00000000000E+00  0.00000000000E+00  0.14999999963E+04  0.15000000000E+04  0.10566000000E+00 0.  1.
        994   -1    0    0    0    0 -0.00000000000E+00 -0.00000000000E+00  0.11368683772E-12  0.17120000000E+03  0.17120000000E+03 0.  0.
         13    1    1    2    0    0  0.13030511228E+02  0.87652220954E+01  0.76277092821E+02  0.77877014546E+02  0.10566000000E+00 0.  1.
        994    1    1    2    0    0  0.18735146601E+02 -0.47008882373E+01  0.31103219377E+01  0.17231430054E+03  0.17120000000E+03 0.  0.
        998    1    1    2    0    0 -0.31765657829E+02 -0.40643338581E+01  0.14206125815E+04  0.14210086849E+04  0.10000000000E+02 0.  1.
</event>
<event>
 5    1  0.1141915E-008  0.3854169E+03  0.7957747E-01  0.3427906E+00
         13   -1    0    0    0    0  0.00000000000E+00  0.00000000000E+00  0.14999999963E+04  0.15000000000E+04  0.10566000000E+00 0.  1.
        994   -1    0    0    0    0 -0.00000000000E+00 -0.00000000000E+00  0.11368683772E-12  0.17120000000E+03  0.17120000000E+03 0.  0.
         13    1    1    2    0    0  0.24138048513E+01 -0.10950695507E+02  0.44259639739E+02  0.45658198166E+02  0.10566000000E+00 0.  1.
        994    1    1    2    0    0  0.65406304354E+01  0.93770931831E+01  0.18526936895E+01  0.17159132320E+03  0.17120000000E+03 0.  0.
        998    1    1    2    0    0 -0.89544352867E+01  0.15736023237E+01  0.14538876629E+04  0.14539504786E+04  0.10000000000E+02 0.  1.
</event>
<event>
 5    1  0.1141915E-008  0.3751929E+03  0.7957747E-01  0.3472360E+00
         13   -1    0    0    0    0  0.00000000000E+00  0.00000000000E+00  0.14999999963E+04  0.15000000000E+04  0.10566000000E+00 0. -1.
        994   -1    0    0    0    0 -0.00000000000E+00 -0.00000000000E+00  0.11368683772E-12  0.17120000000E+03  0.17120000000E+03 0.  0.
         13    1    1    2    0    0  0.29602601970E+01  0.12790922069E+02  0.10610214894E+02  0.16880718348E+02  0.10566000000E+00 0. -1.
        994    1    1    2    0    0  0.77541156747E+01  0.89216593867E+01  0.70544715453E+01  0.17175251930E+03  0.17120000000E+03 0.  0.
        998    1    1    2    0    0 -0.10714375872E+02 -0.21712581456E+02  0.14823353098E+04  0.14825667624E+04  0.10000000000E+02 0. -1.
</event>
<event>
 5    1  0.1141915E-008  0.3787358E+03  0.7957747E-01  0.3456682E+00
         13   -1    0    0    0    0  0.00000000000E+00  0.00000000000E+00  0.14999999963E+04  0.15000000000E+04  0.10566000000E+00 0.  1.
        994   -1    0    0    0    0 -0.00000000000E+00 -0.00000000000E+00  0.11368683772E-12  0.17120000000E+03  0.17120000000E+03 0.  0.
         13    1    1    2    0    0 -0.22819996746E+02  0.54046198101E+02  0.28458599061E+03  0.29057002770E+03  0.10566000000E+00 0.  1.
        994    1    1    2    0    0  0.25159701406E+02 -0.56440123171E+02  0.17699873117E+02  0.18286941676E+03  0.17120000000E+03 0.  0.
        998    1    1    2    0    0 -0.23397046595E+01  0.23939250703E+01  0.11977141325E+04  0.11977605555E+04  0.10000000000E+02 0.  1.
</event>
<event>
 5    1  0.1141915E-008  0.3806503E+03  0.7957747E-01  0.3448332E+00
         13   -1    0    0    0    0  0.00000000000E+00  0.00000000000E+00  0.14999999963E+04  0.15000000000E+04  0.10566000000E+00 0.  1.
        994   -1    0    0    0    0 -0.00000000000E+00 -0.00000000000E+00  0.11368683772E-12  0.17120000000E+03  0.17120000000E+03 0.  0.
         13    1    1    2    0    0 -0.40084739957E+01  0.27343939176E+02  0.11287068174E+03  0.11620482276E+03  0.10566000000E+00 0.  1.
        994    1    1    2    0    0 -0.92561873827E+01  0.44353992730E+01  0.41567245363E+01  0.17155776908E+03  0.17120000000E+03 0.  0.
        998    1    1    2    0    0  0.13264661378E+02 -0.31779338449E+02  0.13829725900E+04  0.13834374082E+04  0.10000000000E+02 0.  1.
</event>
<event>
 5    1  0.1141915E-008  0.3831469E+03  0.7957747E-01  0.3437570E+00
         13   -1    0    0    0    0  0.00000000000E+00  0.00000000000E+00  0.14999999963E+04  0.15000000000E+04  0.10566000000E+00 0. -1.
        994   -1    0    0    0    0 -0.00000000000E+00 -0.00000000000E+00  0.11368683772E-12  0.17120000000E+03  0.17120000000E+03 0.  0.
         13    1    1    2    0    0 -0.10229668761E+02  0.13669303800E+02  0.54758436460E+02  0.57358465085E+02  0.10566000000E+00 0. -1.
        994    1    1    2    0    0  0.12435598243E+02 -0.12229260386E+02  0.35600720436E+01  0.17212295903E+03  0.17120000000E+03 0.  0.
        998    1    1    2    0    0 -0.22059294823E+01 -0.14400434142E+01  0.14416814878E+04  0.14417185759E+04  0.10000000000E+02 0. -1.
</event>
<event>
 5    1  0.1141915E-008  0.3847691E+03  0.7957747E-01  0.3430652E+00
         13   -1    0    0    0    0  0.00000000000E+00  0.00000000000E+00  0.14999999963E+04  0.15000000000E+04  0.10566000000E+00 0.  1.
        994   -1    0    0    0    0 -0.00000000000E+00 -0.00000000000E+00  0.11368683772E-12  0.17120000000E+03  0.17120000000E+03 0.  0.
         13    1    1    2    0    0  0.91178179424E+01 -0.75605583026E+01  0.39273005312E+02  0.41020443149E+02  0.10566000000E+00 0.  1.
        994    1    1    2    0    0 -0.79264375136E+01  0.87032658404E+01  0.22010037834E+01  0.17161835469E+03  0.17120000000E+03 0.  0.
        998    1    1    2    0    0 -0.11913804288E+01 -0.11427075378E+01  0.14585259872E+04  0.14585612022E+04  0.10000000000E+02 0.  1.
</event>
<event>
 5    1  0.1141915E-008  0.3742969E+03  0.7957747E-01  0.3476373E+00
         13   -1    0    0    0    0  0.00000000000E+00  0.00000000000E+00  0.14999999963E+04  0.15000000000E+04  0.10566000000E+00 0.  1.
        994   -1    0    0    0    0 -0.00000000000E+00 -0.00000000000E+00  0.11368683772E-12  0.17120000000E+03  0.17120000000E+03 0.  0.
         13    1    1    2    0    0  0.21391192224E+02 -0.55902938380E+01  0.31117029073E+02  0.38172177726E+02  0.10566000000E+00 0.  1.
        994    1    1    2    0    0 -0.20636096186E+02  0.14228418571E+02  0.91839647770E+01  0.17326881303E+03  0.17120000000E+03 0.  0.
        998    1    1    2    0    0 -0.75509603850E+00 -0.86381247332E+01  0.14596990024E+04  0.14597590092E+04  0.10000000000E+02 0.  1.
</event>
<event>
 5    1  0.1141915E-008  0.3855038E+03  0.7957747E-01  0.3427538E+00
         13   -1    0    0    0    0  0.00000000000E+00  0.00000000000E+00  0.14999999963E+04  0.15000000000E+04  0.10566000000E+00 0. -1.
        994   -1    0    0    0    0 -0.00000000000E+00 -0.00000000000E+00  0.11368683772E-12  0.17120000000E+03  0.17120000000E+03 0.  0.
         13    1    1    2    0    0 -0.43888698483E+01  0.11440020076E+02  0.56208088611E+02  0.57528224613E+02  0.10566000000E+00 0. -1.
        994    1    1    2    0    0  0.78854290083E+01 -0.11178206543E+01  0.15884882762E+01  0.17139251095E+03  0.17120000000E+03 0.  0.
        998    1    1    2    0    0 -0.34965591599E+01 -0.10322199422E+02  0.14422034194E+04  0.14422792644E+04  0.10000000000E+02 0. -1.
</event>
<event>
 5    1  0.1151882E-008  0.3855858E+03  0.7957747E-01  0.3427191E+00
         13   -1    0    0    0    0  0.00000000000E+00  0.00000000000E+00  0.14999999963E+04  0.15000000000E+04  0.10566000000E+00 0.  1.
        994   -1    0    0    0    0 -0.00000000000E+00 -0.00000000000E+00  0.11368683772E-12  0.17120000000E+03  0.17120000000E+03 0.  0.
         13    1    1    2    0    0 -0.81723611310E+00  0.12985465598E+02  0.60625698598E+02  0.62006263282E+02  0.10566000000E+00 0.  1.
        994    1    1    2    0    0  0.35542542273E+01 -0.15587749188E+02  0.21790250237E+01  0.17195871248E+03  0.17120000000E+03 0.  0.
        998    1    1    2    0    0 -0.27370181142E+01  0.26022835900E+01  0.14371952727E+04  0.14372350242E+04  0.10000000000E+02 0.  1.
</event>
<event>
 5    1  0.1141915E-008  0.4300715E+03  0.7957747E-01  0.3258457E+00
         13   -1    0    0    0    0  0.00000000000E+00  0.00000000000E+00  0.14999999963E+04  0.15000000000E+04  0.10566000000E+00 0. -1.
        994   -1    0    0    0    0 -0.00000000000E+00 -0.00000000000E+00  0.11368683772E-12  0.17120000000E+03  0.17120000000E+03 0.  0.
         13    1    1    2    0    0 -0.14035450953E+03  0.77156360641E+02  0.29650023532E+03  0.33699390653E+03  0.10566000000E+00 0. -1.
        994    1    1    2    0    0  0.44662282965E+02 -0.78361021244E+02  0.84624607381E+02  0.21120116795E+03  0.17120000000E+03 0.  0.
        998    1    1    2    0    0  0.95692226565E+02  0.12046606032E+01  0.11188751536E+04  0.11230049255E+04  0.10000000000E+02 0. -1.
</event>
<event>
 5    1  0.1141915E-008  0.3714856E+03  0.7957747E-01  0.3489091E+00
         13   -1    0    0    0    0  0.00000000000E+00  0.00000000000E+00  0.14999999963E+04  0.15000000000E+04  0.10566000000E+00 0. -1.
        994   -1    0    0    0    0 -0.00000000000E+00 -0.00000000000E+00  0.11368683772E-12  0.17120000000E+03  0.17120000000E+03 0.  0.
         13    1    1    2    0    0 -0.67328721981E+02 -0.14025315317E+03  0.49029640685E+03  0.51438767628E+03  0.10566000000E+00 0. -1.
        994    1    1    2    0    0  0.76601432894E+02  0.16654567050E+03  0.14127196322E+03  0.28787575007E+03  0.17120000000E+03 0.  0.
        998    1    1    2    0    0 -0.92727109133E+01 -0.26292517329E+02  0.86843162621E+03  0.86893657365E+03  0.10000000000E+02 0. -1.
</event>
<event>
 5    1  0.1141915E-008  0.3705600E+03  0.7957747E-01  0.3493321E+00
         13   -1    0    0    0    0  0.00000000000E+00  0.00000000000E+00  0.14999999963E+04  0.15000000000E+04  0.10566000000E+00 0.  1.
        994   -1    0    0    0    0 -0.00000000000E+00 -0.00000000000E+00  0.11368683772E-12  0.17120000000E+03  0.17120000000E+03 0.  0.
         13    1    1    2    0    0  0.54767405642E+02 -0.19591885437E+01  0.15978526876E+03  0.16892202467E+03  0.10566000000E+00 0.  1.
        994    1    1    2    0    0 -0.38314326317E+02  0.13170992371E+02  0.14662636576E+02  0.17653865172E+03  0.17120000000E+03 0.  0.
        998    1    1    2    0    0 -0.16453079324E+02 -0.11211803827E+02  0.13255520909E+04  0.13257393236E+04  0.10000000000E+02 0.  1.
</event>
<event>
 5    1  0.1141915E-008  0.3789102E+03  0.7957747E-01  0.3455917E+00
         13   -1    0    0    0    0  0.00000000000E+00  0.00000000000E+00  0.14999999963E+04  0.15000000000E+04  0.10566000000E+00 0. -1.
        994   -1    0    0    0    0 -0.00000000000E+00 -0.00000000000E+00  0.11368683772E-12  0.17120000000E+03  0.17120000000E+03 0.  0.
         13    1    1    2    0    0  0.61507344737E+02  0.27766989020E+02  0.18989490460E+03  0.20152976230E+03  0.10566000000E+00 0. -1.
        994    1    1    2    0    0 -0.18111512575E+02  0.10110583209E+03  0.54871076343E+02  0.20705238755E+03  0.17120000000E+03 0.  0.
        998    1    1    2    0    0 -0.43395832163E+02 -0.12887282111E+03  0.12552340153E+04  0.12626178502E+04  0.10000000000E+02 0.  1.
</event>
<event>
 5    1  0.1141915E-008  0.3780666E+03  0.7957747E-01  0.3459620E+00
         13   -1    0    0    0    0  0.00000000000E+00  0.00000000000E+00  0.14999999963E+04  0.15000000000E+04  0.10566000000E+00 0.  1.
        994   -1    0    0    0    0 -0.00000000000E+00 -0.00000000000E+00  0.11368683772E-12  0.17120000000E+03  0.17120000000E+03 0.  0.
         13    1    1    2    0    0  0.98644710931E+02  0.33252958703E+02  0.62886623477E+03  0.63742394892E+03  0.10566000000E+00 0.  1.
        994    1    1    2    0    0 -0.94216003844E+02 -0.36446369077E+02  0.40252784996E+02  0.20281696157E+03  0.17120000000E+03 0.  0.
        998    1    1    2    0    0 -0.44287070877E+01  0.31934103740E+01  0.83088097652E+03  0.83095908952E+03  0.10000000000E+02 0.  0.
</event>
<event>
 5    1  0.1141915E-008  0.3685537E+03  0.7957747E-01  0.3502564E+00
         13   -1    0    0    0    0  0.00000000000E+00  0.00000000000E+00  0.14999999963E+04  0.15000000000E+04  0.10566000000E+00 0. -1.
        994   -1    0    0    0    0 -0.00000000000E+00 -0.00000000000E+00  0.11368683772E-12  0.17120000000E+03  0.17120000000E+03 0.  0.
         13    1    1    2    0    0 -0.16817783913E+02  0.22372838319E+02  0.35463905144E+02  0.45178329786E+02  0.10566000000E+00 0. -1.
        994    1    1    2    0    0  0.28653703357E+01 -0.16126130956E+02  0.10959749482E+02  0.17233055027E+03  0.17120000000E+03 0.  0.
        998    1    1    2    0    0  0.13952413577E+02 -0.62467073632E+01  0.14535763417E+04  0.14536911199E+04  0.10000000000E+02 0. -1.
</event>
<event>
 5    1  0.1141915E-008  0.3782575E+03  0.7957747E-01  0.3458781E+00
         13   -1    0    0    0    0  0.00000000000E+00  0.00000000000E+00  0.14999999963E+04  0.15000000000E+04  0.10566000000E+00 0. -1.
        994   -1    0    0    0    0 -0.00000000000E+00 -0.00000000000E+00  0.11368683772E-12  0.17120000000E+03  0.17120000000E+03 0.  0.
         13    1    1    2    0    0  0.19860965098E+02  0.52268135999E+02  0.10586736862E+03  0.11972604928E+03  0.10566000000E+00 0. -1.
        994    1    1    2    0    0 -0.74172946435E+01 -0.62384981783E+01  0.15711823911E+02  0.17219244040E+03  0.17120000000E+03 0.  0.
        998    1    1    2    0    0 -0.12443670454E+02 -0.46029637820E+02  0.13784208038E+04  0.13792815103E+04  0.10000000000E+02 0. -1.
</event>
<event>
 5    1  0.1141915E-008  0.3785470E+03  0.7957747E-01  0.3457510E+00
         13   -1    0    0    0    0  0.00000000000E+00  0.00000000000E+00  0.14999999963E+04  0.15000000000E+04  0.10566000000E+00 0.  1.
        994   -1    0    0    0    0 -0.00000000000E+00 -0.00000000000E+00  0.11368683772E-12  0.17120000000E+03  0.17120000000E+03 0.  0.
         13    1    1    2    0    0 -0.30133310099E+02 -0.16671440985E+02  0.12182001351E+03  0.12659415539E+03  0.10566000000E+00 0.  1.
        994    1    1    2    0    0  0.18435981925E+02  0.37662580543E+01  0.60586277219E+01  0.17233750926E+03  0.17120000000E+03 0.  0.
        998    1    1    2    0    0  0.11697328174E+02  0.12905182931E+02  0.13721213550E+04  0.13722683353E+04  0.10000000000E+02 0.  1.
</event>
<event>
 5    1  0.1141915E-008  0.3750639E+03  0.7957747E-01  0.3472937E+00
         13   -1    0    0    0    0  0.00000000000E+00  0.00000000000E+00  0.14999999963E+04  0.15000000000E+04  0.10566000000E+00 0.  1.
        994   -1    0    0    0    0 -0.00000000000E+00 -0.00000000000E+00  0.11368683772E-12  0.17120000000E+03  0.17120000000E+03 0.  0.
         13    1    1    2    0    0  0.19570673760E+02  0.94900097410E+00  0.26144470959E+02  0.32671951274E+02  0.10566000000E+00 0.  1.
        994    1    1    2    0    0 -0.13971509332E+02  0.28411897689E+02  0.10060250201E+02  0.17439348508E+03  0.17120000000E+03 0.  0.
        998    1    1    2    0    0 -0.55991644282E+01 -0.29360898663E+02  0.14637952751E+04  0.14641345636E+04  0.10000000000E+02 0.  1.
</event>
<event>
 5    1  0.1141915E-008  0.3836689E+03  0.7957747E-01  0.3435337E+00
         13   -1    0    0    0    0  0.00000000000E+00  0.00000000000E+00  0.14999999963E+04  0.15000000000E+04  0.10566000000E+00 0.  1.
        994   -1    0    0    0    0 -0.00000000000E+00 -0.00000000000E+00  0.11368683772E-12  0.17120000000E+03  0.17120000000E+03 0.  0.
         13    1    1    2    0    0  0.11100325274E+02 -0.15704992059E+02  0.78799009850E+02  0.81112015843E+02  0.10566000000E+00 0.  1.
        994    1    1    2    0    0  0.74643967523E+01  0.24296155209E+02  0.44290813904E+01  0.17313311970E+03  0.17120000000E+03 0.  0.
        998    1    1    2    0    0 -0.18564722026E+02 -0.85911631496E+01  0.14167719050E+04  0.14169548645E+04  0.10000000000E+02 0.  1.
</event>
<event>
 5    1  0.1141915E-008  0.3717523E+03  0.7957747E-01  0.3487876E+00
         13   -1    0    0    0    0  0.00000000000E+00  0.00000000000E+00  0.14999999963E+04  0.15000000000E+04  0.10566000000E+00 0.  1.
        994   -1    0    0    0    0 -0.00000000000E+00 -0.00000000000E+00  0.11368683772E-12  0.17120000000E+03  0.17120000000E+03 0.  0.
         13    1    1    2    0    0  0.49053317345E+02  0.33638886485E+02  0.13434156462E+03  0.14691994342E+03  0.10566000000E+00 0.  1.
        994    1    1    2    0    0 -0.60732253233E+02 -0.11596399959E+02  0.25439831324E+02  0.18379202402E+03  0.17120000000E+03 0.  0.
        998    1    1    2    0    0  0.11678935888E+02 -0.22042486526E+02  0.13402186003E+04  0.13404880326E+04  0.10000000000E+02 0.  1.
</event>
<event>
 5    1  0.1141915E-008  0.3788806E+03  0.7957747E-01  0.3456047E+00
         13   -1    0    0    0    0  0.00000000000E+00  0.00000000000E+00  0.14999999963E+04  0.15000000000E+04  0.10566000000E+00 0. -1.
        994   -1    0    0    0    0 -0.00000000000E+00 -0.00000000000E+00  0.11368683772E-12  0.17120000000E+03  0.17120000000E+03 0.  0.
         13    1    1    2    0    0  0.24753000603E+02  0.12043903285E+02  0.76693811359E+02  0.81484467907E+02  0.10566000000E+00 0. -1.
        994    1    1    2    0    0 -0.21490197020E+02 -0.10365580395E+02  0.66117031356E+01  0.17298100602E+03  0.17120000000E+03 0.  0.
        998    1    1    2    0    0 -0.32628035836E+01 -0.16783228892E+01  0.14166944818E+04  0.14167345261E+04  0.10000000000E+02 0. -1.
</event>
<event>
 5    1  0.1141915E-008  0.3808477E+03  0.7957747E-01  0.3447476E+00
         13   -1    0    0    0    0  0.00000000000E+00  0.00000000000E+00  0.14999999963E+04  0.15000000000E+04  0.10566000000E+00 0.  1.
        994   -1    0    0    0    0 -0.00000000000E+00 -0.00000000000E+00  0.11368683772E-12  0.17120000000E+03  0.17120000000E+03 0.  0.
         13    1    1    2    0    0  0.16519847143E+02 -0.60337201612E+01  0.40153352383E+02  0.43836217905E+02  0.10566000000E+00 0.  1.
        994    1    1    2    0    0 -0.13127607592E+02  0.21877997250E+01  0.42965011673E+01  0.17177025491E+03  0.17120000000E+03 0.  0.
        998    1    1    2    0    0 -0.33922395501E+01  0.38459204362E+01  0.14555501427E+04  0.14555935272E+04  0.10000000000E+02 0.  1.
</event>
<event>
 5    1  0.1141915E-008  0.3780093E+03  0.7957747E-01  0.3459872E+00
         13   -1    0    0    0    0  0.00000000000E+00  0.00000000000E+00  0.14999999963E+04  0.15000000000E+04  0.10566000000E+00 0. -1.
        994   -1    0    0    0    0 -0.00000000000E+00 -0.00000000000E+00  0.11368683772E-12  0.17120000000E+03  0.17120000000E+03 0.  0.
         13    1    1    2    0    0  0.52511809587E+01  0.23877612013E+02  0.55602745837E+02  0.60740363561E+02  0.10566000000E+00 0. -1.
        994    1    1    2    0    0 -0.62326836091E+01 -0.17716006342E+02  0.63291844939E+01  0.17234326735E+03  0.17120000000E+03 0.  0.
        998    1    1    2    0    0  0.98150265039E+00 -0.61616056711E+01  0.14380680659E+04  0.14381163691E+04  0.10000000000E+02 0. -1.
</event>
<event>
 5    1  0.1141915E-008  0.3760959E+03  0.7957747E-01  0.3468336E+00
         13   -1    0    0    0    0  0.00000000000E+00  0.00000000000E+00  0.14999999963E+04  0.15000000000E+04  0.10566000000E+00 0. -1.
        994   -1    0    0    0    0 -0.00000000000E+00 -0.00000000000E+00  0.11368683772E-12  0.17120000000E+03  0.17120000000E+03 0.  0.
         13    1    1    2    0    0  0.58824136355E+01  0.84113030434E+01  0.57631289306E+01  0.11771899939E+02  0.10566000000E+00 0. -1.
        994    1    1    2    0    0 -0.75860018072E+00 -0.11586670366E+02  0.65737812258E+01  0.17171919230E+03  0.17120000000E+03 0.  0.
        998    1    1    2    0    0 -0.51238134548E+01  0.31753673221E+01  0.14876630861E+04  0.14877089078E+04  0.10000000000E+02 0. -1.
</event>
<event>
 5    1  0.1141915E-008  0.3849211E+03  0.7957747E-01  0.3430007E+00
         13   -1    0    0    0    0  0.00000000000E+00  0.00000000000E+00  0.14999999963E+04  0.15000000000E+04  0.10566000000E+00 0. -1.
        994   -1    0    0    0    0 -0.00000000000E+00 -0.00000000000E+00  0.11368683772E-12  0.17120000000E+03  0.17120000000E+03 0.  0.
         13    1    1    2    0    0 -0.13279037146E+02  0.54148612516E+00  0.53217081745E+02  0.54851572341E+02  0.10566000000E+00 0. -1.
        994    1    1    2    0    0  0.75973467930E+01  0.67176434341E+00  0.18606787378E+01  0.17137990860E+03  0.17120000000E+03 0.  0.
        998    1    1    2    0    0  0.56816903527E+01 -0.12132504686E+01  0.14449222358E+04  0.14449685191E+04  0.10000000000E+02 0. -1.
</event>
<event>
 5    1  0.1141915E-008  0.3816444E+03  0.7957747E-01  0.3444030E+00
         13   -1    0    0    0    0  0.00000000000E+00  0.00000000000E+00  0.14999999963E+04  0.15000000000E+04  0.10566000000E+00 0.  1.
        994   -1    0    0    0    0 -0.00000000000E+00 -0.00000000000E+00  0.11368683772E-12  0.17120000000E+03  0.17120000000E+03 0.  0.
         13    1    1    2    0    0 -0.19146462261E+02 -0.96387483931E+00  0.56949641608E+02  0.60089840366E+02  0.10566000000E+00 0.  1.
        994    1    1    2    0    0  0.17786493981E+01  0.89743346038E+01  0.35837195543E+01  0.17148173466E+03  0.17120000000E+03 0.  0.
        998    1    1    2    0    0  0.17367812863E+02 -0.80104597645E+01  0.14394666351E+04  0.14396284250E+04  0.10000000000E+02 0.  1.
</event>
<event>
 5    1  0.1182996E-008  0.3856450E+03  0.7957747E-01  0.3426941E+00
         13   -1    0    0    0    0  0.00000000000E+00  0.00000000000E+00  0.14999999963E+04  0.15000000000E+04  0.10566000000E+00 0.  1.
        994   -1    0    0    0    0 -0.00000000000E+00 -0.00000000000E+00  0.11368683772E-12  0.17120000000E+03  0.17120000000E+03 0.  0.
         13    1    1    2    0    0  0.51493759701E+01 -0.96991149272E+01  0.45931985361E+02  0.47226553405E+02  0.10566000000E+00 0.  1.
        994    1    1    2    0    0 -0.93971762061E+00  0.93844496708E+01  0.16021980183E+01  0.17146707557E+03  0.17120000000E+03 0.  0.
        998    1    1    2    0    0 -0.42096583495E+01  0.31466525641E+00  0.14524658129E+04  0.14525063710E+04  0.10000000000E+02 0.  1.
</event>
<event>
 5    1  0.1141915E-008  0.3836771E+03  0.7957747E-01  0.3435302E+00
         13   -1    0    0    0    0  0.00000000000E+00  0.00000000000E+00  0.14999999963E+04  0.15000000000E+04  0.10566000000E+00 0. -1.
        994   -1    0    0    0    0 -0.00000000000E+00 -0.00000000000E+00  0.11368683772E-12  0.17120000000E+03  0.17120000000E+03 0.  0.
         13    1    1    2    0    0  0.94041988499E+01  0.18382631664E+02  0.89509777493E+02  0.91860609261E+02  0.10566000000E+00 0. -1.
        994    1    1    2    0    0 -0.10303205233E+02 -0.15438307724E+02  0.34270136974E+01  0.17223728344E+03  0.17120000000E+03 0.  0.
        998    1    1    2    0    0  0.89900638309E+00 -0.29443239403E+01  0.14070632051E+04  0.14071021073E+04  0.10000000000E+02 0.  0.
</event>
<event>
 5    1  0.1141915E-008  0.3841220E+03  0.7957747E-01  0.3433405E+00
         13   -1    0    0    0    0  0.00000000000E+00  0.00000000000E+00  0.14999999963E+04  0.15000000000E+04  0.10566000000E+00 0. -1.
        994   -1    0    0    0    0 -0.00000000000E+00 -0.00000000000E+00  0.11368683772E-12  0.17120000000E+03  0.17120000000E+03 0.  0.
         13    1    1    2    0    0  0.10677196963E+02 -0.41109788454E+01  0.30401091482E+02  0.32482921811E+02  0.10566000000E+00 0. -1.
        994    1    1    2    0    0 -0.12626916907E+02  0.53319528862E+01  0.26865313737E+01  0.17176881615E+03  0.17120000000E+03 0.  0.
        998    1    1    2    0    0  0.19497199433E+01 -0.12209740409E+01  0.14669123734E+04  0.14669482620E+04  0.10000000000E+02 0. -1.
</event>
<event>
 5    1  0.1141915E-008  0.3854164E+03  0.7957747E-01  0.3427908E+00
         13   -1    0    0    0    0  0.00000000000E+00  0.00000000000E+00  0.14999999963E+04  0.15000000000E+04  0.10566000000E+00 0. -1.
        994   -1    0    0    0    0 -0.00000000000E+00 -0.00000000000E+00  0.11368683772E-12  0.17120000000E+03  0.17120000000E+03 0.  0.
         13    1    1    2    0    0  0.82972483978E+01 -0.93409854380E+01  0.54623469509E+02  0.56034212096E+02  0.10566000000E+00 0. -1.
        994    1    1    2    0    0 -0.10249243211E+02  0.37229730730E+01  0.18141437070E+01  0.17155651731E+03  0.17120000000E+03 0.  0.
        998    1    1    2    0    0  0.19519948128E+01  0.56180123650E+01  0.14435623831E+04  0.14436092706E+04  0.10000000000E+02 0. -1.
</event>
<event>
 5    1  0.1141915E-008  0.4060431E+03  0.7957747E-01  0.3345051E+00
         13   -1    0    0    0    0  0.00000000000E+00  0.00000000000E+00  0.14999999963E+04  0.15000000000E+04  0.10566000000E+00 0. -1.
        994   -1    0    0    0    0 -0.00000000000E+00 -0.00000000000E+00  0.11368683772E-12  0.17120000000E+03  0.17120000000E+03 0.  0.
         13    1    1    2    0    0 -0.15728686468E+02 -0.30460769615E+02  0.52967931063E+01  0.34688863412E+02  0.10566000000E+00 0. -1.
        994    1    1    2    0    0  0.23126173528E+02  0.40472582046E+02  0.40211775578E+02  0.18193206615E+03  0.17120000000E+03 0.  0.
        998    1    1    2    0    0 -0.73974870597E+01 -0.10011812431E+02  0.14544914276E+04  0.14545790704E+04  0.10000000000E+02 0. -1.
</event>
<event>
 5    1  0.1141915E-008  0.3874428E+03  0.7957747E-01  0.3419378E+00
         13   -1    0    0    0    0  0.00000000000E+00  0.00000000000E+00  0.14999999963E+04  0.15000000000E+04  0.10566000000E+00 0.  1.
        994   -1    0    0    0    0 -0.00000000000E+00 -0.00000000000E+00  0.11368683772E-12  0.17120000000E+03  0.17120000000E+03 0.  0.
         13    1    1    2    0    0 -0.94861754980E+02 -0.98449229472E+02  0.39757379623E+03  0.42042352212E+03  0.10566000000E+00 0.  1.
        994    1    1    2    0    0  0.47352045291E+02  0.98704666449E+02  0.66646972136E+02  0.21385996883E+03  0.17120000000E+03 0.  0.
        998    1    1    2    0    0  0.47509709689E+02 -0.25543697706E+00  0.10357792279E+04  0.10369165091E+04  0.10000000000E+02 0.  1.
</event>
<event>
 5    1  0.1141915E-008  0.3733411E+03  0.7957747E-01  0.3480675E+00
         13   -1    0    0    0    0  0.00000000000E+00  0.00000000000E+00  0.14999999963E+04  0.15000000000E+04  0.10566000000E+00 0. -1.
        994   -1    0    0    0    0 -0.00000000000E+00 -0.00000000000E+00  0.11368683772E-12  0.17120000000E+03  0.17120000000E+03 0.  0.
         13    1    1    2    0    0 -0.19658237274E+02  0.15943955007E+02  0.39397809474E+02  0.46827924889E+02  0.10566000000E+00 0. -1.
        994    1    1    2    0    0  0.76040100781E+01 -0.19321043671E+02  0.90081694341E+01  0.17268963725E+03  0.17120000000E+03 0.  0.
        998    1    1    2    0    0  0.12054227196E+02  0.33770886639E+01  0.14515940174E+04  0.14516824379E+04  0.10000000000E+02 0. -1.
</event>
<event>
 5    1  0.1141915E-008  0.3752233E+03  0.7957747E-01  0.3472224E+00
         13   -1    0    0    0    0  0.00000000000E+00  0.00000000000E+00  0.14999999963E+04  0.15000000000E+04  0.10566000000E+00 0.  1.
        994   -1    0    0    0    0 -0.00000000000E+00 -0.00000000000E+00  0.11368683772E-12  0.17120000000E+03  0.17120000000E+03 0.  0.
         13    1    1    2    0    0  0.11368396102E+03  0.14540058428E+02  0.60270036366E+03  0.61350077084E+03  0.10566000000E+00 0.  1.
        994    1    1    2    0    0 -0.39937914825E+02 -0.30807820597E+02  0.22844056663E+02  0.17993179201E+03  0.17120000000E+03 0.  0.
        998    1    1    2    0    0 -0.73746046200E+02  0.16267762168E+02  0.87445557595E+03  0.87776743715E+03  0.10000000000E+02 0. -1.
</event>
<event>
 5    1  0.1141915E-008  0.3828773E+03  0.7957747E-01  0.3438725E+00
         13   -1    0    0    0    0  0.00000000000E+00  0.00000000000E+00  0.14999999963E+04  0.15000000000E+04  0.10566000000E+00 0. -1.
        994   -1    0    0    0    0 -0.00000000000E+00 -0.00000000000E+00  0.11368683772E-12  0.17120000000E+03  0.17120000000E+03 0.  0.
         13    1    1    2    0    0 -0.10824837251E+02 -0.13289859423E+02  0.56451466787E+02  0.58996412869E+02  0.10566000000E+00 0. -1.
        994    1    1    2    0    0  0.84194461595E+01 -0.51472249323E+01  0.30102272837E+01  0.17151058995E+03  0.17120000000E+03 0.  0.
        998    1    1    2    0    0  0.24053910911E+01  0.18437084355E+02  0.14405383022E+04  0.14406929972E+04  0.10000000000E+02 0. -1.
</event>
<event>
 5    1  0.1519858E-008  0.3865141E+03  0.7957747E-01  0.3423276E+00
         13   -1    0    0    0    0  0.00000000000E+00  0.00000000000E+00  0.14999999963E+04  0.15000000000E+04  0.10566000000E+00 0.  1.
        994   -1    0    0    0    0 -0.00000000000E+00 -0.00000000000E+00  0.11368683772E-12  0.17120000000E+03  0.17120000000E+03 0.  0.
         13    1    1    2    0    0  0.29803228802E+01 -0.99236814987E+01  0.58979076333E+02  0.59882421361E+02  0.10566000000E+00 0.  1.
        994    1    1    2    0    0 -0.98349120926E+01  0.11569452083E+02  0.16352152467E+01  0.17187987563E+03  0.17120000000E+03 0.  0.
        998    1    1    2    0    0  0.68545892124E+01 -0.16457705838E+01  0.14393857047E+04  0.14394377030E+04  0.10000000000E+02 0.  1.
</event>
<event>
 5    1  0.1141915E-008  0.3843227E+03  0.7957747E-01  0.3432550E+00
         13   -1    0    0    0    0  0.00000000000E+00  0.00000000000E+00  0.14999999963E+04  0.15000000000E+04  0.10566000000E+00 0.  1.
        994   -1    0    0    0    0 -0.00000000000E+00 -0.00000000000E+00  0.11368683772E-12  0.17120000000E+03  0.17120000000E+03 0.  0.
         13    1    1    2    0    0  0.70401931295E+01 -0.13802650917E+02  0.57850153965E+02  0.59889305969E+02  0.10566000000E+00 0.  1.
        994    1    1    2    0    0 -0.82068320627E+01  0.17220835867E+02  0.31670794297E+01  0.17228865219E+03  0.17120000000E+03 0.  0.
        998    1    1    2    0    0  0.11666389332E+01 -0.34181849503E+01  0.14389827629E+04  0.14390220418E+04  0.10000000000E+02 0.  1.
</event>
<event>
 5    1  0.1141915E-008  0.3776753E+03  0.7957747E-01  0.3461344E+00
         13   -1    0    0    0    0  0.00000000000E+00  0.00000000000E+00  0.14999999963E+04  0.15000000000E+04  0.10566000000E+00 0. -1.
        994   -1    0    0    0    0 -0.00000000000E+00 -0.00000000000E+00  0.11368683772E-12  0.17120000000E+03  0.17120000000E+03 0.  0.
         13    1    1    2    0    0  0.74779381732E+01  0.58393145873E+02  0.18631463119E+03  0.19539404291E+03  0.10566000000E+00 0. -1.
        994    1    1    2    0    0 -0.69422326952E+02 -0.12057523275E+03  0.73573672727E+02  0.23255186852E+03  0.17120000000E+03 0.  0.
        998    1    1    2    0    0  0.61944388779E+02  0.62182086876E+02  0.12401116924E+04  0.12432540886E+04  0.10000000000E+02 0. -1.
</event>
<event>
 5    1  0.1141915E-008  0.3850698E+03  0.7957747E-01  0.3429376E+00
         13   -1    0    0    0    0  0.00000000000E+00  0.00000000000E+00  0.14999999963E+04  0.15000000000E+04  0.10566000000E+00 0. -1.
        994   -1    0    0    0    0 -0.00000000000E+00 -0.00000000000E+00  0.11368683772E-12  0.17120000000E+03  0.17120000000E+03 0.  0.
         13    1    1    2    0    0  0.14045826209E+02 -0.19191384744E+01  0.65724152105E+02  0.67235732021E+02  0.10566000000E+00 0. -1.
        994    1    1    2    0    0 -0.96320451980E+00  0.16913135553E+02  0.25396238055E+01  0.17205485057E+03  0.17120000000E+03 0.  0.
        998    1    1    2    0    0 -0.13082621689E+02 -0.14993997079E+02  0.14317362204E+04  0.14319094174E+04  0.10000000000E+02 0. -1.
</event>
<event>
 5    1  0.1141915E-008  0.3783660E+03  0.7957747E-01  0.3458304E+00
         13   -1    0    0    0    0  0.00000000000E+00  0.00000000000E+00  0.14999999963E+04  0.15000000000E+04  0.10566000000E+00 0.  1.
        994   -1    0    0    0    0 -0.00000000000E+00 -0.00000000000E+00  0.11368683772E-12  0.17120000000E+03  0.17120000000E+03 0.  0.
         13    1    1    2    0    0  0.11255394715E+02  0.28343645745E+02  0.97508456185E+02  0.10216631713E+03  0.10566000000E+00 0.  1.
        994    1    1    2    0    0 -0.95770570939E+00 -0.64497257034E+01  0.51031867799E+01  0.17140011283E+03  0.17120000000E+03 0.  0.
        998    1    1    2    0    0 -0.10297689006E+02 -0.21893920041E+02  0.13973883533E+04  0.13976335700E+04  0.10000000000E+02 0.  1.
</event>
<event>
 5    1  0.1141915E-008  0.3847037E+03  0.7957747E-01  0.3430930E+00
         13   -1    0    0    0    0  0.00000000000E+00  0.00000000000E+00  0.14999999963E+04  0.15000000000E+04  0.10566000000E+00 0.  1.
        994   -1    0    0    0    0 -0.00000000000E+00 -0.00000000000E+00  0.11368683772E-12  0.17120000000E+03  0.17120000000E+03 0.  0.
         13    1    1    2    0    0  0.18073655562E+01  0.11884356112E+02  0.43364849056E+02  0.45000286534E+02  0.10566000000E+00 0.  1.
        994    1    1    2    0    0 -0.41094624388E+01  0.65311167751E+01  0.19733584670E+01  0.17138517238E+03  0.17120000000E+03 0.  0.
        998    1    1    2    0    0  0.23020968826E+01 -0.18415472887E+02  0.14546617888E+04  0.14548145411E+04  0.10000000000E+02 0.  1.
</event>
<event>
 5    1  0.1141915E-008  0.3805568E+03  0.7957747E-01  0.3448737E+00
         13   -1    0    0    0    0  0.00000000000E+00  0.00000000000E+00  0.14999999963E+04  0.15000000000E+04  0.10566000000E+00 0. -1.
        994   -1    0    0    0    0 -0.00000000000E+00 -0.00000000000E+00  0.11368683772E-12  0.17120000000E+03  0.17120000000E+03 0.  0.
         13    1    1    2    0    0  0.52016682395E+02 -0.37803504163E+02  0.11291957905E+03  0.12994492169E+03  0.10566000000E+00 0. -1.
        994    1    1    2    0    0 -0.37972848463E+02  0.45886717710E+02  0.29629430347E+02  0.18367055078E+03  0.17120000000E+03 0.  0.
        998    1    1    2    0    0 -0.14043833932E+02 -0.80832135468E+01  0.13574509869E+04  0.13575845275E+04  0.10000000000E+02 0. -1.
</event>
<event>
 5    1  0.1141915E-008  0.3835733E+03  0.7957747E-01  0.3435745E+00
         13   -1    0    0    0    0  0.00000000000E+00  0.00000000000E+00  0.14999999963E+04  0.15000000000E+04  0.10566000000E+00 0. -1.
        994   -1    0    0    0    0 -0.00000000000E+00 -0.00000000000E+00  0.11368683772E-12  0.17120000000E+03  0.17120000000E+03 0.  0.
         13    1    1    2    0    0 -0.12234789633E+02  0.14428727955E+01  0.31481908814E+02  0.33806710959E+02  0.10566000000E+00 0. -1.
        994    1    1    2    0    0  0.10587971769E+02  0.15433819571E+01  0.27184564668E+01  0.17155558044E+03  0.17120000000E+03 0.  0.
        998    1    1    2    0    0  0.16468178645E+01 -0.29862547526E+01  0.14657996310E+04  0.14658377086E+04  0.10000000000E+02 0. -1.
</event>
<event>
 5    1  0.1141915E-008  0.3951681E+03  0.7957747E-01  0.3387661E+00
         13   -1    0    0    0    0  0.00000000000E+00  0.00000000000E+00  0.14999999963E+04  0.15000000000E+04  0.10566000000E+00 0.  1.
        994   -1    0    0    0    0 -0.00000000000E+00 -0.00000000000E+00  0.11368683772E-12  0.17120000000E+03  0.17120000000E+03 0.  0.
         13    1    1    2    0    0  0.11216750820E+03  0.21172022052E+02  0.19869351072E+03  0.22914826375E+03  0.10566000000E+00 0.  1.
        994    1    1    2    0    0 -0.12943656798E+03 -0.40663141499E+02  0.99694681225E+02  0.24011619202E+03  0.17120000000E+03 0.  0.
        998    1    1    2    0    0  0.17269059774E+02  0.19491119447E+02  0.12016118043E+04  0.12019355442E+04  0.10000000000E+02 0.  1.
</event>
<event>
 5    1  0.1141915E-008  0.3762609E+03  0.7957747E-01  0.3467603E+00
         13   -1    0    0    0    0  0.00000000000E+00  0.00000000000E+00  0.14999999963E+04  0.15000000000E+04  0.10566000000E+00 0.  1.
        994   -1    0    0    0    0 -0.00000000000E+00 -0.00000000000E+00  0.11368683772E-12  0.17120000000E+03  0.17120000000E+03 0.  0.
         13    1    1    2    0    0 -0.51539180674E+01  0.17431065868E+02  0.24630554860E+02  0.30611767761E+02  0.10566000000E+00 0.  1.
        994    1    1    2    0    0  0.93882357772E+01 -0.14030397986E+02  0.69978953522E+01  0.17217259241E+03  0.17120000000E+03 0.  0.
        998    1    1    2    0    0 -0.42343177098E+01 -0.34006678815E+01  0.14683715461E+04  0.14684156398E+04  0.10000000000E+02 0.  1.
</event>
<event>
 5    1  0.1141915E-008  0.3720762E+03  0.7957747E-01  0.3486403E+00
         13   -1    0    0    0    0  0.00000000000E+00  0.00000000000E+00  0.14999999963E+04  0.15000000000E+04  0.10566000000E+00 0.  1.
        994   -1    0    0    0    0 -0.00000000000E+00 -0.00000000000E+00  0.11368683772E-12  0.17120000000E+03  0.17120000000E+03 0.  0.
         13    1    1    2    0    0  0.29693919048E+02 -0.43644150760E+01  0.52633153412E+02  0.60589082758E+02  0.10566000000E+00 0.  1.
        994    1    1    2    0    0 -0.13978924782E+02  0.72369394976E+01  0.90389992362E+01  0.17215959787E+03  0.17120000000E+03 0.  0.
        998    1    1    2    0    0 -0.15714994265E+02 -0.28725244215E+01  0.14383278436E+04  0.14384513194E+04  0.10000000000E+02 0.  1.
</event>
<event>
 5    1  0.1141915E-008  0.3744344E+03  0.7957747E-01  0.3475756E+00
         13   -1    0    0    0    0  0.00000000000E+00  0.00000000000E+00  0.14999999963E+04  0.15000000000E+04  0.10566000000E+00 0.  1.
        994   -1    0    0    0    0 -0.00000000000E+00 -0.00000000000E+00  0.11368683772E-12  0.17120000000E+03  0.17120000000E+03 0.  0.
         13    1    1    2    0    0 -0.42824035612E+01  0.23565898745E+02  0.18228343069E+02  0.30099405625E+02  0.10566000000E+00 0.  1.
        994    1    1    2    0    0 -0.22524652347E+02  0.41698805770E+02  0.21322638199E+02  0.17891407230E+03  0.17120000000E+03 0.  0.
        998    1    1    2    0    0  0.26807055908E+02 -0.65264704514E+02  0.14604490150E+04  0.14621865221E+04  0.10000000000E+02 0.  1.
</event>
<event>
 5    1  0.1141915E-008  0.3845262E+03  0.7957747E-01  0.3431684E+00
         13   -1    0    0    0    0  0.00000000000E+00  0.00000000000E+00  0.14999999963E+04  0.15000000000E+04  0.10566000000E+00 0. -1.
        994   -1    0    0    0    0 -0.00000000000E+00 -0.00000000000E+00  0.11368683772E-12  0.17120000000E+03  0.17120000000E+03 0.  0.
         13    1    1    2    0    0 -0.28606950428E+01  0.19943722613E+02  0.12062395766E+03  0.12229507747E+03  0.10566000000E+00 0. -1.
        994    1    1    2    0    0 -0.18567015339E+02 -0.32557496876E+01  0.30367986353E+01  0.17226141794E+03  0.17120000000E+03 0.  0.
        998    1    1    2    0    0  0.21427710382E+02 -0.16687972925E+02  0.13763392400E+04  0.13766435046E+04  0.10000000000E+02 0. -1.
</event>
<event>
 5    1  0.1141915E-008  0.3852110E+03  0.7957747E-01  0.3428778E+00
         13   -1    0    0    0    0  0.00000000000E+00  0.00000000000E+00  0.14999999963E+04  0.15000000000E+04  0.10566000000E+00 0.  1.
        994   -1    0    0    0    0 -0.00000000000E+00 -0.00000000000E+00  0.11368683772E-12  0.17120000000E+03  0.17120000000E+03 0.  0.
         13    1    1    2    0    0  0.45629568075E+00 -0.13603668431E+02  0.71753244725E+02  0.73032919243E+02  0.10566000000E+00 0.  1.
        994    1    1    2    0    0 -0.41154729214E+01 -0.14379860484E+02  0.22609798918E+01  0.17186701119E+03  0.17120000000E+03 0.  0.
        998    1    1    2    0    0  0.36591772407E+01  0.27983528915E+02  0.14259857717E+04  0.14263000696E+04  0.10000000000E+02 0.  1.
</event>
<event>
 5    1  0.1141915E-008  0.3849332E+03  0.7957747E-01  0.3429955E+00
         13   -1    0    0    0    0  0.00000000000E+00  0.00000000000E+00  0.14999999963E+04  0.15000000000E+04  0.10566000000E+00 0.  1.
        994   -1    0    0    0    0 -0.00000000000E+00 -0.00000000000E+00  0.11368683772E-12  0.17120000000E+03  0.17120000000E+03 0.  0.
         13    1    1    2    0    0  0.13569121160E+02 -0.98275328315E+01  0.85492476496E+02  0.87118747420E+02  0.10566000000E+00 0.  1.
        994    1    1    2    0    0 -0.92007929312E+01  0.27297612684E+01  0.19663149279E+01  0.17148006468E+03  0.17120000000E+03 0.  0.
        998    1    1    2    0    0 -0.43683282285E+01  0.70977715632E+01  0.14125412049E+04  0.14126011879E+04  0.10000000000E+02 0.  1.
</event>
<event>
 5    1  0.1141915E-008  0.3849289E+03  0.7957747E-01  0.3429974E+00
         13   -1    0    0    0    0  0.00000000000E+00  0.00000000000E+00  0.14999999963E+04  0.15000000000E+04  0.10566000000E+00 0.  1.
        994   -1    0    0    0    0 -0.00000000000E+00 -0.00000000000E+00  0.11368683772E-12  0.17120000000E+03  0.17120000000E+03 0.  0.
         13    1    1    2    0    0  0.11080434993E+02  0.93822007563E+01  0.64142761711E+02  0.65765543977E+02  0.10566000000E+00 0.  1.
        994    1    1    2    0    0 -0.23020013152E+01 -0.87044690869E+01  0.19321626963E+01  0.17144748538E+03  0.17120000000E+03 0.  0.
        998    1    1    2    0    0 -0.87784336774E+01 -0.67773166946E+00  0.14339250719E+04  0.14339869706E+04  0.10000000000E+02 0.  1.
</event>
<event>
 5    1  0.1141915E-008  0.3693132E+03  0.7957747E-01  0.3499053E+00
         13   -1    0    0    0    0  0.00000000000E+00  0.00000000000E+00  0.14999999963E+04  0.15000000000E+04  0.10566000000E+00 0. -1.
        994   -1    0    0    0    0 -0.00000000000E+00 -0.00000000000E+00  0.11368683772E-12  0.17120000000E+03  0.17120000000E+03 0.  0.
         13    1    1    2    0    0 -0.40223777342E+02  0.86229946886E+02  0.54419654028E+03  0.55245220754E+03  0.10566000000E+00 0. -1.
        994    1    1    2    0    0 -0.29233893916E+02 -0.51807821656E+02  0.23021416302E+02  0.18269673382E+03  0.17120000000E+03 0.  0.
        998    1    1    2    0    0  0.69457671258E+02 -0.34422125229E+02  0.93278203970E+03  0.93605105864E+03  0.10000000000E+02 0. -1.
</event>
<event>
 5    1  0.1141915E-008  0.3700569E+03  0.7957747E-01  0.3495629E+00
         13   -1    0    0    0    0  0.00000000000E+00  0.00000000000E+00  0.14999999963E+04  0.15000000000E+04  0.10566000000E+00 0.  1.
        994   -1    0    0    0    0 -0.00000000000E+00 -0.00000000000E+00  0.11368683772E-12  0.17120000000E+03  0.17120000000E+03 0.  0.
         13    1    1    2    0    0  0.63776437828E+02  0.89535033022E+02  0.50793777750E+03  0.51969678962E+03  0.10566000000E+00 0.  1.
        994    1    1    2    0    0 -0.53733348250E+02 -0.51326064378E+02  0.30534458042E+02  0.18911221729E+03  0.17120000000E+03 0.  0.
        998    1    1    2    0    0 -0.10043089579E+02 -0.38208968643E+02  0.96152776073E+03  0.96239099310E+03  0.10000000000E+02 0. -1.
</event>
<event>
 5    1  0.1141915E-008  0.3762831E+03  0.7957747E-01  0.3467504E+00
         13   -1    0    0    0    0  0.00000000000E+00  0.00000000000E+00  0.14999999963E+04  0.15000000000E+04  0.10566000000E+00 0.  1.
        994   -1    0    0    0    0 -0.00000000000E+00 -0.00000000000E+00  0.11368683772E-12  0.17120000000E+03  0.17120000000E+03 0.  0.
         13    1    1    2    0    0 -0.18632093334E+02 -0.26342738598E+02  0.83436861407E+02  0.89458458428E+02  0.10566000000E+00 0.  1.
        994    1    1    2    0    0  0.28042845753E+02  0.78487893650E+01  0.88967818593E+01  0.17388673733E+03  0.17120000000E+03 0.  0.
        998    1    1    2    0    0 -0.94107524191E+01  0.18493949233E+02  0.14076663530E+04  0.14078548042E+04  0.10000000000E+02 0.  1.
</event>
<event>
 5    1  0.1141915E-008  0.3820484E+03  0.7957747E-01  0.3442287E+00
         13   -1    0    0    0    0  0.00000000000E+00  0.00000000000E+00  0.14999999963E+04  0.15000000000E+04  0.10566000000E+00 0.  1.
        994   -1    0    0    0    0 -0.00000000000E+00 -0.00000000000E+00  0.11368683772E-12  0.17120000000E+03  0.17120000000E+03 0.  0.
         13    1    1    2    0    0  0.24829488279E+02 -0.20765042423E+01  0.10411504912E+03  0.10705498576E+03  0.10566000000E+00 0.  1.
        994    1    1    2    0    0 -0.79004249372E+01 -0.92926231295E+01  0.35967973475E+01  0.17167162407E+03  0.17120000000E+03 0.  0.
        998    1    1    2    0    0 -0.16929063342E+02  0.11369127372E+02  0.13922881498E+04  0.13924733902E+04  0.10000000000E+02 0.  1.
</event>
<event>
 5    1  0.1141915E-008  0.3923732E+03  0.7957747E-01  0.3398991E+00
         13   -1    0    0    0    0  0.00000000000E+00  0.00000000000E+00  0.14999999963E+04  0.15000000000E+04  0.10566000000E+00 0. -1.
        994   -1    0    0    0    0 -0.00000000000E+00 -0.00000000000E+00  0.11368683772E-12  0.17120000000E+03  0.17120000000E+03 0.  0.
         13    1    1    2    0    0 -0.81862342609E+02  0.95469186410E+02  0.37875401667E+03  0.39908698927E+03  0.10566000000E+00 0. -1.
        994    1    1    2    0    0  0.12049463989E+02 -0.60169982743E+02  0.37739337684E+02  0.18573990959E+03  0.17120000000E+03 0.  0.
        998    1    1    2    0    0  0.69812878620E+02 -0.35299203667E+02  0.10835066419E+04  0.10863731011E+04  0.10000000000E+02 0. -1.
</event>
<event>
 5    1  0.1141915E-008  0.3773175E+03  0.7957747E-01  0.3462923E+00
         13   -1    0    0    0    0  0.00000000000E+00  0.00000000000E+00  0.14999999963E+04  0.15000000000E+04  0.10566000000E+00 0. -1.
        994   -1    0    0    0    0 -0.00000000000E+00 -0.00000000000E+00  0.11368683772E-12  0.17120000000E+03  0.17120000000E+03 0.  0.
         13    1    1    2    0    0  0.28359650189E+02 -0.52604866578E+01  0.72404830373E+02  0.77938521311E+02  0.10566000000E+00 0. -1.
        994    1    1    2    0    0 -0.21615787992E+02  0.75695729345E+01  0.72646401220E+01  0.17287786359E+03  0.17120000000E+03 0.  0.
        998    1    1    2    0    0 -0.67438621971E+01 -0.23090862768E+01  0.14203305258E+04  0.14203836151E+04  0.10000000000E+02 0. -1.
</event>
<event>
 5    1  0.1141915E-008  0.3850758E+03  0.7957747E-01  0.3429351E+00
         13   -1    0    0    0    0  0.00000000000E+00  0.00000000000E+00  0.14999999963E+04  0.15000000000E+04  0.10566000000E+00 0. -1.
        994   -1    0    0    0    0 -0.00000000000E+00 -0.00000000000E+00  0.11368683772E-12  0.17120000000E+03  0.17120000000E+03 0.  0.
         13    1    1    2    0    0 -0.41949792810E+01 -0.18791240240E+02  0.10556830244E+03  0.10730976752E+03  0.10566000000E+00 0. -1.
        994    1    1    2    0    0  0.27349818503E+02  0.19862482383E+02  0.53580051204E+01  0.17458716733E+03  0.17120000000E+03 0.  0.
        998    1    1    2    0    0 -0.23154839222E+02 -0.10712421426E+01  0.13890736887E+04  0.13893030652E+04  0.10000000000E+02 0. -1.
</event>
<event>
 5    1  0.1141915E-008  0.3788352E+03  0.7957747E-01  0.3456246E+00
         13   -1    0    0    0    0  0.00000000000E+00  0.00000000000E+00  0.14999999963E+04  0.15000000000E+04  0.10566000000E+00 0.  1.
        994   -1    0    0    0    0 -0.00000000000E+00 -0.00000000000E+00  0.11368683772E-12  0.17120000000E+03  0.17120000000E+03 0.  0.
         13    1    1    2    0    0  0.16948566198E+02  0.36536938479E+01  0.30738509782E+02  0.35291224441E+02  0.10566000000E+00 0.  1.
        994    1    1    2    0    0 -0.42629068975E+01  0.68788809621E+01  0.49420822121E+01  0.17146240275E+03  0.17120000000E+03 0.  0.
        998    1    1    2    0    0 -0.12685659300E+02 -0.10532574810E+02  0.14643194043E+04  0.14644463728E+04  0.10000000000E+02 0.  1.
</event>
<event>
 5    1  0.1141915E-008  0.3855746E+03  0.7957747E-01  0.3427239E+00
         13   -1    0    0    0    0  0.00000000000E+00  0.00000000000E+00  0.14999999963E+04  0.15000000000E+04  0.10566000000E+00 0. -1.
        994   -1    0    0    0    0 -0.00000000000E+00 -0.00000000000E+00  0.11368683772E-12  0.17120000000E+03  0.17120000000E+03 0.  0.
         13    1    1    2    0    0 -0.17271305357E+02  0.83229720723E+01  0.11020056727E+03  0.11185591644E+03  0.10566000000E+00 0. -1.
        994    1    1    2    0    0  0.39941095493E+02 -0.40831902906E+01  0.66544477553E+01  0.17597069423E+03  0.17120000000E+03 0.  0.
        998    1    1    2    0    0 -0.22669790136E+02 -0.42397817817E+01  0.13831449813E+04  0.13833733893E+04  0.10000000000E+02 0. -1.
</event>
<event>
 5    1  0.1141915E-008  0.3805312E+03  0.7957747E-01  0.3448849E+00
         13   -1    0    0    0    0  0.00000000000E+00  0.00000000000E+00  0.14999999963E+04  0.15000000000E+04  0.10566000000E+00 0. -1.
        994   -1    0    0    0    0 -0.00000000000E+00 -0.00000000000E+00  0.11368683772E-12  0.17120000000E+03  0.17120000000E+03 0.  0.
         13    1    1    2    0    0  0.33934518714E+02 -0.21437484206E+02  0.18470244416E+03  0.18901354801E+03  0.10566000000E+00 0. -1.
        994    1    1    2    0    0 -0.30688208937E+02  0.24946840363E+02  0.91024521766E+01  0.17594432542E+03  0.17120000000E+03 0.  0.
        998    1    1    2    0    0 -0.32463097773E+01 -0.35093561576E+01  0.13061950999E+04  0.13062421266E+04  0.10000000000E+02 0.  0.
</event>
<event>
 5    1  0.1141915E-008  0.3751468E+03  0.7957747E-01  0.3472566E+00
         13   -1    0    0    0    0  0.00000000000E+00  0.00000000000E+00  0.14999999963E+04  0.15000000000E+04  0.10566000000E+00 0. -1.
        994   -1    0    0    0    0 -0.00000000000E+00 -0.00000000000E+00  0.11368683772E-12  0.17120000000E+03  0.17120000000E+03 0.  0.
         13    1    1    2    0    0 -0.48584798581E+02 -0.13773659293E+02  0.82768795018E+02  0.96958140123E+02  0.10566000000E+00 0. -1.
        994    1    1    2    0    0  0.55268232966E+02  0.46871998083E+01  0.24722170201E+02  0.18165124034E+03  0.17120000000E+03 0.  0.
        998    1    1    2    0    0 -0.66834343852E+01  0.90864594844E+01  0.13925090311E+04  0.13925906195E+04  0.10000000000E+02 0. -1.
</event>
<event>
 5    1  0.1141915E-008  0.3821278E+03  0.7957747E-01  0.3441946E+00
         13   -1    0    0    0    0  0.00000000000E+00  0.00000000000E+00  0.14999999963E+04  0.15000000000E+04  0.10566000000E+00 0. -1.
        994   -1    0    0    0    0 -0.00000000000E+00 -0.00000000000E+00  0.11368683772E-12  0.17120000000E+03  0.17120000000E+03 0.  0.
         13    1    1    2    0    0  0.14483216669E+02  0.14455812004E+02  0.69109183358E+02  0.72075130623E+02  0.10566000000E+00 0. -1.
        994    1    1    2    0    0 -0.84189183994E+01 -0.27166298471E+01  0.33227162404E+01  0.17146060395E+03  0.17120000000E+03 0.  0.
        998    1    1    2    0    0 -0.60642982698E+01 -0.11739182157E+02  0.14275680967E+04  0.14276642654E+04  0.10000000000E+02 0. -1.
</event>
<event>
 5    1  0.1141915E-008  0.3803060E+03  0.7957747E-01  0.3449827E+00
         13   -1    0    0    0    0  0.00000000000E+00  0.00000000000E+00  0.14999999963E+04  0.15000000000E+04  0.10566000000E+00 0.  1.
        994   -1    0    0    0    0 -0.00000000000E+00 -0.00000000000E+00  0.11368683772E-12  0.17120000000E+03  0.17120000000E+03 0.  0.
         13    1    1    2    0    0  0.60195519623E+00  0.61902317203E+02  0.36082000629E+03  0.36609199298E+03  0.10566000000E+00 0.  1.
        994    1    1    2    0    0  0.11468216340E+00 -0.63352173222E+02  0.17500427577E+02  0.18338270357E+03  0.17120000000E+03 0.  0.
        998    1    1    2    0    0 -0.71663735962E+00  0.14498560188E+01  0.11216795624E+04  0.11217253034E+04  0.10000000000E+02 0.  0.
</event>
<event>
 5    1  0.1141915E-008  0.3826256E+03  0.7957747E-01  0.3439805E+00
         13   -1    0    0    0    0  0.00000000000E+00  0.00000000000E+00  0.14999999963E+04  0.15000000000E+04  0.10566000000E+00 0. -1.
        994   -1    0    0    0    0 -0.00000000000E+00 -0.00000000000E+00  0.11368683772E-12  0.17120000000E+03  0.17120000000E+03 0.  0.
         13    1    1    2    0    0  0.52377033362E+02 -0.40382292556E+02  0.32850495883E+03  0.33509640749E+03  0.10566000000E+00 0. -1.
        994    1    1    2    0    0 -0.86003135297E+02  0.90351599993E+02  0.56218694541E+02  0.21915732367E+03  0.17120000000E+03 0.  0.
        998    1    1    2    0    0  0.33626101934E+02 -0.49969307436E+02  0.11152763429E+04  0.11169462688E+04  0.10000000000E+02 0. -1.
</event>
<event>
 5    1  0.1141915E-008  0.3841340E+03  0.7957747E-01  0.3433353E+00
         13   -1    0    0    0    0  0.00000000000E+00  0.00000000000E+00  0.14999999963E+04  0.15000000000E+04  0.10566000000E+00 0.  1.
        994   -1    0    0    0    0 -0.00000000000E+00 -0.00000000000E+00  0.11368683772E-12  0.17120000000E+03  0.17120000000E+03 0.  0.
         13    1    1    2    0    0  0.59152488093E+01  0.11471298597E+02  0.39465818515E+02  0.41522799220E+02  0.10566000000E+00 0.  1.
        994    1    1    2    0    0 -0.18986150745E+01 -0.11833915799E+02  0.25345778740E+01  0.17163773008E+03  0.17120000000E+03 0.  0.
        998    1    1    2    0    0 -0.40166337348E+01  0.36261720237E+00  0.14579995999E+04  0.14580394707E+04  0.10000000000E+02 0.  1.
</event>
<event>
 5    1  0.1141915E-008  0.3737051E+03  0.7957747E-01  0.3479034E+00
         13   -1    0    0    0    0  0.00000000000E+00  0.00000000000E+00  0.14999999963E+04  0.15000000000E+04  0.10566000000E+00 0.  1.
        994   -1    0    0    0    0 -0.00000000000E+00 -0.00000000000E+00  0.11368683772E-12  0.17120000000E+03  0.17120000000E+03 0.  0.
         13    1    1    2    0    0  0.21515240729E+02 -0.94371072816E+02  0.28522629445E+03  0.30120234922E+03  0.10566000000E+00 0.  1.
        994    1    1    2    0    0 -0.43855730405E+02  0.91189839071E+02  0.50125040187E+02  0.20508747278E+03  0.17120000000E+03 0.  0.
        998    1    1    2    0    0  0.22340489675E+02  0.31812337450E+01  0.11646486616E+04  0.11649101780E+04  0.10000000000E+02 0. -1.
</event>
<event>
 5    1  0.1141915E-008  0.3782177E+03  0.7957747E-01  0.3458956E+00
         13   -1    0    0    0    0  0.00000000000E+00  0.00000000000E+00  0.14999999963E+04  0.15000000000E+04  0.10566000000E+00 0. -1.
        994   -1    0    0    0    0 -0.00000000000E+00 -0.00000000000E+00  0.11368683772E-12  0.17120000000E+03  0.17120000000E+03 0.  0.
         13    1    1    2    0    0  0.27921281297E+02  0.55622087706E+01  0.73808107145E+02  0.79108684479E+02  0.10566000000E+00 0. -1.
        994    1    1    2    0    0 -0.31601836235E+02 -0.11764507714E+02  0.88687514317E+01  0.17471455133E+03  0.17120000000E+03 0.  0.
        998    1    1    2    0    0  0.36805549381E+01  0.62022989430E+01  0.14173231377E+04  0.14173767642E+04  0.10000000000E+02 0. -1.
</event>
