<event>
 5    1  0.1520352E-008  0.3807800E+03  0.7957747E-01  0.3447769E+00
         13   -1    0    0    0    0  0.00000000000E+00  0.00000000000E+00  0.14999999963E+04  0.15000000000E+04  0.10566000000E+00 0. -1.
        994   -1    0    0    0    0 -0.00000000000E+00 -0.00000000000E+00  0.11368683772E-12  0.17120000000E+03  0.17120000000E+03 0.  0.
         13    1    1    2    0    0 -0.28419048350E+02 -0.24261032100E+02  0.18724431595E+03  0.19093633758E+03  0.10566000000E+00 0. -1.
        994    1    1    2    0    0  0.22084742611E+02  0.57225754973E+01  0.54772891740E+01  0.17280024428E+03  0.17120000000E+03 0.  0.
        998    1    1    2    0    0  0.63343057394E+01  0.18538456603E+02  0.13072783912E+04  0.13074634181E+04  0.10000000000E+02 0. -1.
</event>
<event>
 5    1  0.1520352E-008  0.3852283E+03  0.7957747E-01  0.3428705E+00
         13   -1    0    0    0    0  0.00000000000E+00  0.00000000000E+00  0.14999999963E+04  0.15000000000E+04  0.10566000000E+00 0.  1.
        994   -1    0    0    0    0 -0.00000000000E+00 -0.00000000000E+00  0.11368683772E-12  0.17120000000E+03  0.17120000000E+03 0.  0.
         13    1    1    2    0    0  0.73753948146E+01  0.11269533361E+02  0.59564095546E+02  0.61067925076E+02  0.10566000000E+00 0.  1.
        994    1    1    2    0    0 -0.43459347785E+01 -0.89722151583E+01  0.18435368276E+01  0.17149993126E+03  0.17120000000E+03 0.  0.
        998    1    1    2    0    0 -0.30294600360E+01 -0.22973182023E+01  0.14385923639E+04  0.14386321437E+04  0.10000000000E+02 0.  1.
</event>
<event>
 5    1  0.1520352E-008  0.3784992E+03  0.7957747E-01  0.3457719E+00
         13   -1    0    0    0    0  0.00000000000E+00  0.00000000000E+00  0.14999999963E+04  0.15000000000E+04  0.10566000000E+00 0. -1.
        994   -1    0    0    0    0 -0.00000000000E+00 -0.00000000000E+00  0.11368683772E-12  0.17120000000E+03  0.17120000000E+03 0.  0.
         13    1    1    2    0    0 -0.60911771836E+01  0.87974917703E+02  0.52023953048E+03  0.52766075164E+03  0.10566000000E+00 0. -1.
        994    1    1    2    0    0 -0.42882781651E+01 -0.87831186958E+02  0.31326952976E+02  0.19499621718E+03  0.17120000000E+03 0.  0.
        998    1    1    2    0    0  0.10379455349E+02 -0.14373074577E+00  0.94843351282E+03  0.94854303118E+03  0.10000000000E+02 0. -1.
</event>
<event>
 5    1  0.1520352E-008  0.3824426E+03  0.7957747E-01  0.3440591E+00
         13   -1    0    0    0    0  0.00000000000E+00  0.00000000000E+00  0.14999999963E+04  0.15000000000E+04  0.10566000000E+00 0. -1.
        994   -1    0    0    0    0 -0.00000000000E+00 -0.00000000000E+00  0.11368683772E-12  0.17120000000E+03  0.17120000000E+03 0.  0.
         13    1    1    2    0    0 -0.26966266046E+02  0.20463221985E+02  0.16336380422E+03  0.16683424904E+03  0.10566000000E+00 0. -1.
        994    1    1    2    0    0  0.34600875339E+02 -0.27631018735E+02  0.94345602434E+01  0.17708513404E+03  0.17120000000E+03 0.  0.
        998    1    1    2    0    0 -0.76346092933E+01  0.71677967497E+01  0.13272016318E+04  0.13272806169E+04  0.10000000000E+02 0. -1.
</event>
<event>
 5    1  0.1520352E-008  0.3841868E+03  0.7957747E-01  0.3433128E+00
         13   -1    0    0    0    0  0.00000000000E+00  0.00000000000E+00  0.14999999963E+04  0.15000000000E+04  0.10566000000E+00 0. -1.
        994   -1    0    0    0    0 -0.00000000000E+00 -0.00000000000E+00  0.11368683772E-12  0.17120000000E+03  0.17120000000E+03 0.  0.
         13    1    1    2    0    0  0.10920617141E+02  0.20454241965E+00  0.30407960696E+02  0.32310322716E+02  0.10566000000E+00 0. -1.
        994    1    1    2    0    0  0.60537624824E+01  0.56274394146E+00  0.21562945309E+01  0.17132149406E+03  0.17120000000E+03 0.  0.
        998    1    1    2    0    0 -0.16974379623E+02 -0.76728636110E+00  0.14674357411E+04  0.14675681832E+04  0.10000000000E+02 0. -1.
</event>
<event>
 5    1  0.1520352E-008  0.3914565E+03  0.7957747E-01  0.3402743E+00
         13   -1    0    0    0    0  0.00000000000E+00  0.00000000000E+00  0.14999999963E+04  0.15000000000E+04  0.10566000000E+00 0. -1.
        994   -1    0    0    0    0 -0.00000000000E+00 -0.00000000000E+00  0.11368683772E-12  0.17120000000E+03  0.17120000000E+03 0.  0.
         13    1    1    2    0    0 -0.43117956592E+02  0.10983641389E+02  0.42913133826E+02  0.61817042777E+02  0.10566000000E+00 0. -1.
        994    1    1    2    0    0 -0.60590642503E+02 -0.80441714706E+01  0.37043926948E+02  0.18551988351E+03  0.17120000000E+03 0.  0.
        998    1    1    2    0    0  0.10370859910E+03 -0.29394699181E+01  0.14200429355E+04  0.14238630737E+04  0.10000000000E+02 0. -1.
</event>
<event>
 5    1  0.1520352E-008  0.3845096E+03  0.7957747E-01  0.3431755E+00
         13   -1    0    0    0    0  0.00000000000E+00  0.00000000000E+00  0.14999999963E+04  0.15000000000E+04  0.10566000000E+00 0.  1.
        994   -1    0    0    0    0 -0.00000000000E+00 -0.00000000000E+00  0.11368683772E-12  0.17120000000E+03  0.17120000000E+03 0.  0.
         13    1    1    2    0    0 -0.11719219991E+02 -0.47999825752E+01  0.41695175363E+02  0.43576126061E+02  0.10566000000E+00 0.  1.
        994    1    1    2    0    0  0.94838269414E+01  0.95733390781E+01  0.24721566624E+01  0.17174732415E+03  0.17120000000E+03 0.  0.
        998    1    1    2    0    0  0.22353930495E+01 -0.47733565030E+01  0.14558326643E+04  0.14558765498E+04  0.10000000000E+02 0.  1.
</event>
<event>
 5    1  0.1520352E-008  0.3783046E+03  0.7957747E-01  0.3458574E+00
         13   -1    0    0    0    0  0.00000000000E+00  0.00000000000E+00  0.14999999963E+04  0.15000000000E+04  0.10566000000E+00 0.  1.
        994   -1    0    0    0    0 -0.00000000000E+00 -0.00000000000E+00  0.11368683772E-12  0.17120000000E+03  0.17120000000E+03 0.  0.
         13    1    1    2    0    0 -0.66525012578E+00  0.10014099193E+02  0.78423346175E+01  0.12737272732E+02  0.10566000000E+00 0.  1.
        994    1    1    2    0    0  0.58699938580E+00 -0.64091833288E+01  0.51306717879E+01  0.17139774209E+03  0.17120000000E+03 0.  0.
        998    1    1    2    0    0  0.78250739984E-01 -0.36049158637E+01  0.14870269899E+04  0.14870649852E+04  0.10000000000E+02 0.  1.
</event>
<event>
 5    1  0.1520352E-008  0.3701150E+03  0.7957747E-01  0.3495363E+00
         13   -1    0    0    0    0  0.00000000000E+00  0.00000000000E+00  0.14999999963E+04  0.15000000000E+04  0.10566000000E+00 0. -1.
        994   -1    0    0    0    0 -0.00000000000E+00 -0.00000000000E+00  0.11368683772E-12  0.17120000000E+03  0.17120000000E+03 0.  0.
         13    1    1    2    0    0 -0.10882267840E+02  0.58567975681E+02  0.22606082916E+03  0.23377797410E+03  0.10566000000E+00 0. -1.
        994    1    1    2    0    0 -0.31207364017E+02 -0.11117030870E+02  0.13011645586E+02  0.17486060410E+03  0.17120000000E+03 0.  0.
        998    1    1    2    0    0  0.42089631857E+02 -0.47450944811E+02  0.12609275215E+04  0.12625614218E+04  0.10000000000E+02 0. -1.
</event>
<event>
 5    1  0.1520352E-008  0.4067538E+03  0.7957747E-01  0.3342345E+00
         13   -1    0    0    0    0  0.00000000000E+00  0.00000000000E+00  0.14999999963E+04  0.15000000000E+04  0.10566000000E+00 0. -1.
        994   -1    0    0    0    0 -0.00000000000E+00 -0.00000000000E+00  0.11368683772E-12  0.17120000000E+03  0.17120000000E+03 0.  0.
         13    1    1    2    0    0 -0.13111358760E+03 -0.28822514664E+02  0.22449633504E+03  0.26157241028E+03  0.10566000000E+00 0. -1.
        994    1    1    2    0    0  0.13231701005E+03  0.33843110255E+02  0.11183733763E+03  0.24590684689E+03  0.17120000000E+03 0.  0.
        998    1    1    2    0    0 -0.12034224518E+01 -0.50205955909E+01  0.11636663236E+04  0.11637207428E+04  0.10000000000E+02 0. -1.
</event>
<event>
 5    1  0.1520352E-008  0.3852552E+03  0.7957747E-01  0.3428591E+00
         13   -1    0    0    0    0  0.00000000000E+00  0.00000000000E+00  0.14999999963E+04  0.15000000000E+04  0.10566000000E+00 0.  1.
        994   -1    0    0    0    0 -0.00000000000E+00 -0.00000000000E+00  0.11368683772E-12  0.17120000000E+03  0.17120000000E+03 0.  0.
         13    1    1    2    0    0 -0.10627396983E+02 -0.71744398446E+01  0.54329337782E+02  0.55822058916E+02  0.10566000000E+00 0.  1.
        994    1    1    2    0    0  0.71383315930E+01  0.72104988355E+01  0.18418529725E+01  0.17151028976E+03  0.17120000000E+03 0.  0.
        998    1    1    2    0    0  0.34890653904E+01 -0.36058990927E-01  0.14438288055E+04  0.14438676513E+04  0.10000000000E+02 0.  1.
</event>
<event>
 5    1  0.1520352E-008  0.3857839E+03  0.7957747E-01  0.3426354E+00
         13   -1    0    0    0    0  0.00000000000E+00  0.00000000000E+00  0.14999999963E+04  0.15000000000E+04  0.10566000000E+00 0. -1.
        994   -1    0    0    0    0 -0.00000000000E+00 -0.00000000000E+00  0.11368683772E-12  0.17120000000E+03  0.17120000000E+03 0.  0.
         13    1    1    2    0    0  0.13228107718E+02  0.33872080413E+01  0.80780357922E+02  0.81926390145E+02  0.10566000000E+00 0. -1.
        994    1    1    2    0    0 -0.24561771760E-01 -0.42622333715E+01  0.13010255575E+01  0.17125799223E+03  0.17120000000E+03 0.  0.
        998    1    1    2    0    0 -0.13203545946E+02  0.87502533016E+00  0.14179186128E+04  0.14180156176E+04  0.10000000000E+02 0. -1.
</event>
<event>
 5    1  0.1520352E-008  0.3725051E+03  0.7957747E-01  0.3484456E+00
         13   -1    0    0    0    0  0.00000000000E+00  0.00000000000E+00  0.14999999963E+04  0.15000000000E+04  0.10566000000E+00 0. -1.
        994   -1    0    0    0    0 -0.00000000000E+00 -0.00000000000E+00  0.11368683772E-12  0.17120000000E+03  0.17120000000E+03 0.  0.
         13    1    1    2    0    0 -0.20302829459E+02 -0.77080330932E+01  0.26313354950E+02  0.34117773535E+02  0.10566000000E+00 0. -1.
        994    1    1    2    0    0  0.14296435757E+02  0.35881632785E+01  0.87106487961E+01  0.17205399848E+03  0.17120000000E+03 0.  0.
        998    1    1    2    0    0  0.60063937022E+01  0.41198698147E+01  0.14649759925E+04  0.14650282280E+04  0.10000000000E+02 0. -1.
</event>
<event>
 5    1  0.1520352E-008  0.3841403E+03  0.7957747E-01  0.3433326E+00
         13   -1    0    0    0    0  0.00000000000E+00  0.00000000000E+00  0.14999999963E+04  0.15000000000E+04  0.10566000000E+00 0.  1.
        994   -1    0    0    0    0 -0.00000000000E+00 -0.00000000000E+00  0.11368683772E-12  0.17120000000E+03  0.17120000000E+03 0.  0.
         13    1    1    2    0    0  0.76780459231E+01  0.90596166865E+01  0.33931874005E+02  0.35950136039E+02  0.10566000000E+00 0.  1.
        994    1    1    2    0    0 -0.10786613401E+02  0.12242639009E+00  0.24414113541E+01  0.17155689000E+03  0.17120000000E+03 0.  0.
        998    1    1    2    0    0  0.31085674783E+01 -0.91820430766E+01  0.14636267109E+04  0.14636929740E+04  0.10000000000E+02 0.  1.
</event>
<event>
 5    1  0.1520352E-008  0.3839629E+03  0.7957747E-01  0.3434082E+00
         13   -1    0    0    0    0  0.00000000000E+00  0.00000000000E+00  0.14999999963E+04  0.15000000000E+04  0.10566000000E+00 0.  1.
        994   -1    0    0    0    0 -0.00000000000E+00 -0.00000000000E+00  0.11368683772E-12  0.17120000000E+03  0.17120000000E+03 0.  0.
         13    1    1    2    0    0 -0.19232402511E+02  0.19348838856E+02  0.15328578681E+03  0.15569459359E+03  0.10566000000E+00 0.  1.
        994    1    1    2    0    0  0.27781302151E+02 -0.15765757633E+02  0.55201044072E+01  0.17424199097E+03  0.17120000000E+03 0.  0.
        998    1    1    2    0    0 -0.85488996402E+01 -0.35830812224E+01  0.13411941051E+04  0.13412634154E+04  0.10000000000E+02 0.  1.
</event>
<event>
 5    1  0.1520352E-008  0.3732396E+03  0.7957747E-01  0.3481134E+00
         13   -1    0    0    0    0  0.00000000000E+00  0.00000000000E+00  0.14999999963E+04  0.15000000000E+04  0.10566000000E+00 0. -1.
        994   -1    0    0    0    0 -0.00000000000E+00 -0.00000000000E+00  0.11368683772E-12  0.17120000000E+03  0.17120000000E+03 0.  0.
         13    1    1    2    0    0 -0.11770808994E+02 -0.10981399167E+02  0.13516409317E+02  0.21020170240E+02  0.10566000000E+00 0. -1.
        994    1    1    2    0    0  0.13867832286E+02  0.12513955029E+02  0.87795349427E+01  0.17243965923E+03  0.17120000000E+03 0.  0.
        998    1    1    2    0    0 -0.20970232916E+01 -0.15325558618E+01  0.14777040520E+04  0.14777401705E+04  0.10000000000E+02 0. -1.
</event>
<event>
 5    1  0.1520352E-008  0.3853892E+03  0.7957747E-01  0.3428023E+00
         13   -1    0    0    0    0  0.00000000000E+00  0.00000000000E+00  0.14999999963E+04  0.15000000000E+04  0.10566000000E+00 0. -1.
        994   -1    0    0    0    0 -0.00000000000E+00 -0.00000000000E+00  0.11368683772E-12  0.17120000000E+03  0.17120000000E+03 0.  0.
         13    1    1    2    0    0 -0.42594088164E+02  0.23609835387E+03  0.11645856042E+04  0.11890400875E+04  0.10566000000E+00 0. -1.
        994    1    1    2    0    0  0.41805021221E+02 -0.24112427239E+03  0.23211519906E+03  0.37825319585E+03  0.17120000000E+03 0.  0.
        998    1    1    2    0    0  0.78906694248E+00  0.50259185205E+01  0.10329919303E+03  0.10390671665E+03  0.10000000000E+02 0. -1.
</event>
<event>
 5    1  0.1520352E-008  0.2255839E+03  0.7957747E-01  0.4630369E+00
         13   -1    0    0    0    0  0.00000000000E+00  0.00000000000E+00  0.14999999963E+04  0.15000000000E+04  0.10566000000E+00 0.  1.
        994   -1    0    0    0    0 -0.00000000000E+00 -0.00000000000E+00  0.11368683772E-12  0.17120000000E+03  0.17120000000E+03 0.  0.
         13    1    1    2    0    0 -0.16494938522E+03 -0.30797798382E+02  0.20945648662E+03  0.26838188281E+03  0.10566000000E+00 0.  1.
        994    1    1    2    0    0  0.95128706678E+02  0.54699046933E+02  0.13322179204E+03  0.24310274051E+03  0.17120000000E+03 0.  0.
        998    1    1    2    0    0  0.69820678540E+02 -0.23901248552E+02  0.11573217176E+04  0.11597153767E+04  0.10000000000E+02 0.  1.
</event>
<event>
 5    1  0.1520352E-008  0.3808734E+03  0.7957747E-01  0.3447364E+00
         13   -1    0    0    0    0  0.00000000000E+00  0.00000000000E+00  0.14999999963E+04  0.15000000000E+04  0.10566000000E+00 0. -1.
        994   -1    0    0    0    0 -0.00000000000E+00 -0.00000000000E+00  0.11368683772E-12  0.17120000000E+03  0.17120000000E+03 0.  0.
         13    1    1    2    0    0  0.24036090564E+02 -0.43901643132E+00  0.71778223837E+02  0.75697100118E+02  0.10566000000E+00 0. -1.
        994    1    1    2    0    0 -0.30275658088E+02  0.41191242248E+01  0.68110456164E+01  0.17403853883E+03  0.17120000000E+03 0.  0.
        998    1    1    2    0    0  0.62395675232E+01 -0.36801077935E+01  0.14214107268E+04  0.14214643610E+04  0.10000000000E+02 0. -1.
</event>
<event>
 5    1  0.1520352E-008  0.3777073E+03  0.7957747E-01  0.3461203E+00
         13   -1    0    0    0    0  0.00000000000E+00  0.00000000000E+00  0.14999999963E+04  0.15000000000E+04  0.10566000000E+00 0. -1.
        994   -1    0    0    0    0 -0.00000000000E+00 -0.00000000000E+00  0.11368683772E-12  0.17120000000E+03  0.17120000000E+03 0.  0.
         13    1    1    2    0    0 -0.11593818833E+02  0.69304706178E+02  0.35650099657E+03  0.36336005649E+03  0.10566000000E+00 0. -1.
        994    1    1    2    0    0  0.13929740673E+02 -0.68267142242E+02  0.21825399322E+02  0.18611885568E+03  0.17120000000E+03 0.  0.
        998    1    1    2    0    0 -0.23359218397E+01 -0.10375639362E+01  0.11216736004E+04  0.11217210878E+04  0.10000000000E+02 0. -1.
</event>
<event>
 5    1  0.1520352E-008  0.3858693E+03  0.7957747E-01  0.3425994E+00
         13   -1    0    0    0    0  0.00000000000E+00  0.00000000000E+00  0.14999999963E+04  0.15000000000E+04  0.10566000000E+00 0.  1.
        994   -1    0    0    0    0 -0.00000000000E+00 -0.00000000000E+00  0.11368683772E-12  0.17120000000E+03  0.17120000000E+03 0.  0.
         13    1    1    2    0    0 -0.49346334824E+01  0.13391886086E+02  0.81052954606E+02  0.82299974696E+02  0.10566000000E+00 0.  1.
        994    1    1    2    0    0  0.72788139925E+01 -0.14639841258E+02  0.20762377972E+01  0.17199144411E+03  0.17120000000E+03 0.  0.
        998    1    1    2    0    0 -0.23441805100E+01  0.12479551725E+01  0.14168708039E+04  0.14169085812E+04  0.10000000000E+02 0.  1.
</event>
<event>
 5    1  0.1520352E-008  0.3775868E+03  0.7957747E-01  0.3461734E+00
         13   -1    0    0    0    0  0.00000000000E+00  0.00000000000E+00  0.14999999963E+04  0.15000000000E+04  0.10566000000E+00 0.  1.
        994   -1    0    0    0    0 -0.00000000000E+00 -0.00000000000E+00  0.11368683772E-12  0.17120000000E+03  0.17120000000E+03 0.  0.
         13    1    1    2    0    0 -0.52869510362E+02 -0.37646846493E+02  0.31066808510E+03  0.31737539357E+03  0.10566000000E+00 0.  1.
        994    1    1    2    0    0  0.67347689295E+02  0.19247856897E+02  0.22071764538E+02  0.18628685954E+03  0.17120000000E+03 0.  0.
        998    1    1    2    0    0 -0.14478178934E+02  0.18398989596E+02  0.11672601466E+04  0.11675377469E+04  0.10000000000E+02 0.  1.
</event>
<event>
 5    1  0.1520352E-008  0.3837383E+03  0.7957747E-01  0.3435041E+00
         13   -1    0    0    0    0  0.00000000000E+00  0.00000000000E+00  0.14999999963E+04  0.15000000000E+04  0.10566000000E+00 0.  1.
        994   -1    0    0    0    0 -0.00000000000E+00 -0.00000000000E+00  0.11368683772E-12  0.17120000000E+03  0.17120000000E+03 0.  0.
         13    1    1    2    0    0 -0.37588142930E+00  0.27883681261E+02  0.15631444279E+03  0.15878242081E+03  0.10566000000E+00 0.  1.
        994    1    1    2    0    0  0.31839064909E+01 -0.27801505405E+02  0.48478964169E+01  0.17353962966E+03  0.17120000000E+03 0.  0.
        998    1    1    2    0    0 -0.28080250617E+01 -0.82175856713E-01  0.13388376571E+04  0.13388779495E+04  0.10000000000E+02 0.  1.
</event>
<event>
 5    1  0.1520352E-008  0.3835682E+03  0.7957747E-01  0.3435767E+00
         13   -1    0    0    0    0  0.00000000000E+00  0.00000000000E+00  0.14999999963E+04  0.15000000000E+04  0.10566000000E+00 0. -1.
        994   -1    0    0    0    0 -0.00000000000E+00 -0.00000000000E+00  0.11368683772E-12  0.17120000000E+03  0.17120000000E+03 0.  0.
         13    1    1    2    0    0 -0.18748323810E+02 -0.99270670142E+00  0.73750707039E+02  0.76102976716E+02  0.10566000000E+00 0. -1.
        994    1    1    2    0    0  0.14663151790E+02 -0.73849942573E+01  0.32337486755E+01  0.17201582279E+03  0.17120000000E+03 0.  0.
        998    1    1    2    0    0  0.40851720192E+01  0.83777009587E+01  0.14230155406E+04  0.14230812005E+04  0.10000000000E+02 0. -1.
</event>
<event>
 5    1  0.1520352E-008  0.3714194E+03  0.7957747E-01  0.3489393E+00
         13   -1    0    0    0    0  0.00000000000E+00  0.00000000000E+00  0.14999999963E+04  0.15000000000E+04  0.10566000000E+00 0. -1.
        994   -1    0    0    0    0 -0.00000000000E+00 -0.00000000000E+00  0.11368683772E-12  0.17120000000E+03  0.17120000000E+03 0.  0.
         13    1    1    2    0    0  0.47332397391E+02  0.77144854938E+02  0.51185716048E+03  0.51979750710E+03  0.10566000000E+00 0. -1.
        994    1    1    2    0    0 -0.81404578162E+01 -0.64656234886E+01  0.12071110036E+02  0.17193959125E+03  0.17120000000E+03 0.  0.
        998    1    1    2    0    0 -0.39191939574E+02 -0.70679231450E+02  0.97607172576E+03  0.97946290165E+03  0.10000000000E+02 0. -1.
</event>
<event>
 5    1  0.1520352E-008  0.3784398E+03  0.7957747E-01  0.3457980E+00
         13   -1    0    0    0    0  0.00000000000E+00  0.00000000000E+00  0.14999999963E+04  0.15000000000E+04  0.10566000000E+00 0. -1.
        994   -1    0    0    0    0 -0.00000000000E+00 -0.00000000000E+00  0.11368683772E-12  0.17120000000E+03  0.17120000000E+03 0.  0.
         13    1    1    2    0    0 -0.43392949884E+02  0.48031398816E+02  0.12080701061E+03  0.13705585850E+03  0.10566000000E+00 0. -1.
        994    1    1    2    0    0  0.41562300044E+02 -0.48245660010E+02  0.30231592144E+02  0.18514442378E+03  0.17120000000E+03 0.  0.
        998    1    1    2    0    0  0.18306498392E+01  0.21426119338E+00  0.13489613935E+04  0.13489997177E+04  0.10000000000E+02 0. -1.
</event>
<event>
 5    1  0.1520352E-008  0.3799849E+03  0.7957747E-01  0.3451224E+00
         13   -1    0    0    0    0  0.00000000000E+00  0.00000000000E+00  0.14999999963E+04  0.15000000000E+04  0.10566000000E+00 0. -1.
        994   -1    0    0    0    0 -0.00000000000E+00 -0.00000000000E+00  0.11368683772E-12  0.17120000000E+03  0.17120000000E+03 0.  0.
         13    1    1    2    0    0 -0.34674395695E+02 -0.71700831717E+01  0.14109975125E+03  0.14547465338E+03  0.10566000000E+00 0. -1.
        994    1    1    2    0    0  0.30545966412E+02  0.50914346194E+01  0.73533378161E+01  0.17413354171E+03  0.17120000000E+03 0.  0.
        998    1    1    2    0    0  0.41284292831E+01  0.20786485523E+01  0.13515469072E+04  0.13515918049E+04  0.10000000000E+02 0.  0.
</event>
<event>
 5    1  0.1520352E-008  0.3738142E+03  0.7957747E-01  0.3478543E+00
         13   -1    0    0    0    0  0.00000000000E+00  0.00000000000E+00  0.14999999963E+04  0.15000000000E+04  0.10566000000E+00 0.  1.
        994   -1    0    0    0    0 -0.00000000000E+00 -0.00000000000E+00  0.11368683772E-12  0.17120000000E+03  0.17120000000E+03 0.  0.
         13    1    1    2    0    0  0.20109786142E+01 -0.10355152945E+03  0.29837120122E+03  0.31583595136E+03  0.10566000000E+00 0.  1.
        994    1    1    2    0    0  0.22302904296E+01  0.11660200555E+03  0.62870203480E+02  0.21647887744E+03  0.17120000000E+03 0.  0.
        998    1    1    2    0    0 -0.42412690438E+01 -0.13050476093E+02  0.11387585916E+04  0.11388851712E+04  0.10000000000E+02 0.  1.
</event>
<event>
 5    1  0.1520352E-008  0.3819324E+03  0.7957747E-01  0.3442787E+00
         13   -1    0    0    0    0  0.00000000000E+00  0.00000000000E+00  0.14999999963E+04  0.15000000000E+04  0.10566000000E+00 0. -1.
        994   -1    0    0    0    0 -0.00000000000E+00 -0.00000000000E+00  0.11368683772E-12  0.17120000000E+03  0.17120000000E+03 0.  0.
         13    1    1    2    0    0  0.51440047291E+01 -0.12313071968E+02  0.26810906725E+02  0.29948429164E+02  0.10566000000E+00 0. -1.
        994    1    1    2    0    0 -0.21392226775E+01  0.11091681073E+02  0.35848306830E+01  0.17160971031E+03  0.17120000000E+03 0.  0.
        998    1    1    2    0    0 -0.30047820516E+01  0.12213908943E+01  0.14696042589E+04  0.14696418605E+04  0.10000000000E+02 0. -1.
</event>
<event>
 5    1  0.1520352E-008  0.3730344E+03  0.7957747E-01  0.3482061E+00
         13   -1    0    0    0    0  0.00000000000E+00  0.00000000000E+00  0.14999999963E+04  0.15000000000E+04  0.10566000000E+00 0. -1.
        994   -1    0    0    0    0 -0.00000000000E+00 -0.00000000000E+00  0.11368683772E-12  0.17120000000E+03  0.17120000000E+03 0.  0.
         13    1    1    2    0    0 -0.56687955900E+02 -0.87695067869E+02  0.51364216622E+03  0.52414905833E+03  0.10566000000E+00 0. -1.
        994    1    1    2    0    0  0.51467997521E+02  0.77704189418E+02  0.38027839111E+02  0.19860123960E+03  0.17120000000E+03 0.  0.
        998    1    1    2    0    0  0.52199583795E+01  0.99908784507E+01  0.94832999095E+03  0.94844970207E+03  0.10000000000E+02 0. -1.
</event>
<event>
 5    1  0.1520352E-008  0.3750959E+03  0.7957747E-01  0.3472794E+00
         13   -1    0    0    0    0  0.00000000000E+00  0.00000000000E+00  0.14999999963E+04  0.15000000000E+04  0.10566000000E+00 0. -1.
        994   -1    0    0    0    0 -0.00000000000E+00 -0.00000000000E+00  0.11368683772E-12  0.17120000000E+03  0.17120000000E+03 0.  0.
         13    1    1    2    0    0  0.41867207363E+02  0.86197254002E+01  0.13665772064E+03  0.14318696342E+03  0.10566000000E+00 0. -1.
        994    1    1    2    0    0 -0.21862827589E+02 -0.12014695497E+02  0.87471064149E+01  0.17322900453E+03  0.17120000000E+03 0.  0.
        998    1    1    2    0    0 -0.20004379773E+02  0.33949700973E+01  0.13545951692E+04  0.13547840321E+04  0.10000000000E+02 0. -1.
</event>
<event>
 5    1  0.1520352E-008  0.3825564E+03  0.7957747E-01  0.3440102E+00
         13   -1    0    0    0    0  0.00000000000E+00  0.00000000000E+00  0.14999999963E+04  0.15000000000E+04  0.10566000000E+00 0. -1.
        994   -1    0    0    0    0 -0.00000000000E+00 -0.00000000000E+00  0.11368683772E-12  0.17120000000E+03  0.17120000000E+03 0.  0.
         13    1    1    2    0    0 -0.94432501633E+01 -0.35989400417E+01  0.17443241465E+02  0.20159493543E+02  0.10566000000E+00 0. -1.
        994    1    1    2    0    0 -0.49087551435E+01 -0.35792434019E+01  0.29705648287E+01  0.17133350844E+03  0.17120000000E+03 0.  0.
        998    1    1    2    0    0  0.14352005307E+02  0.71781834436E+01  0.14795861900E+04  0.14797069980E+04  0.10000000000E+02 0. -1.
</event>
<event>
 5    1  0.1520352E-008  0.3761501E+03  0.7957747E-01  0.3468095E+00
         13   -1    0    0    0    0  0.00000000000E+00  0.00000000000E+00  0.14999999963E+04  0.15000000000E+04  0.10566000000E+00 0.  1.
        994   -1    0    0    0    0 -0.00000000000E+00 -0.00000000000E+00  0.11368683772E-12  0.17120000000E+03  0.17120000000E+03 0.  0.
         13    1    1    2    0    0  0.31494941863E+02 -0.69984539489E+01  0.86166706326E+02  0.92008815685E+02  0.10566000000E+00 0.  1.
        994    1    1    2    0    0 -0.68835937035E+01  0.23637644558E+02  0.81443656918E+01  0.17315280187E+03  0.17120000000E+03 0.  0.
        998    1    1    2    0    0 -0.24611348159E+02 -0.16639190609E+02  0.14056889243E+04  0.14060383824E+04  0.10000000000E+02 0.  1.
</event>
<event>
 5    1  0.1520352E-008  0.3846946E+03  0.7957747E-01  0.3430968E+00
         13   -1    0    0    0    0  0.00000000000E+00  0.00000000000E+00  0.14999999963E+04  0.15000000000E+04  0.10566000000E+00 0. -1.
        994   -1    0    0    0    0 -0.00000000000E+00 -0.00000000000E+00  0.11368683772E-12  0.17120000000E+03  0.17120000000E+03 0.  0.
         13    1    1    2    0    0 -0.15212132286E+02 -0.42145598859E+01  0.73685944882E+02  0.75357820569E+02  0.10566000000E+00 0. -1.
        994    1    1    2    0    0  0.48142618417E+01 -0.94536988115E+01  0.21524182267E+01  0.17154189705E+03  0.17120000000E+03 0.  0.
        998    1    1    2    0    0  0.10397870444E+02  0.13668258697E+02  0.14241616332E+04  0.14243002824E+04  0.10000000000E+02 0. -1.
</event>
<event>
 5    1  0.1520352E-008  0.3703619E+03  0.7957747E-01  0.3494229E+00
         13   -1    0    0    0    0  0.00000000000E+00  0.00000000000E+00  0.14999999963E+04  0.15000000000E+04  0.10566000000E+00 0. -1.
        994   -1    0    0    0    0 -0.00000000000E+00 -0.00000000000E+00  0.11368683772E-12  0.17120000000E+03  0.17120000000E+03 0.  0.
         13    1    1    2    0    0  0.26680584593E+02 -0.12529829001E+02  0.42852844314E+02  0.52011802880E+02  0.10566000000E+00 0. -1.
        994    1    1    2    0    0 -0.25695478564E+02  0.19760660143E+02  0.12717209540E+02  0.17470520521E+03  0.17120000000E+03 0.  0.
        998    1    1    2    0    0 -0.98510602840E+00 -0.72308311422E+01  0.14444299424E+04  0.14444829919E+04  0.10000000000E+02 0. -1.
</event>
<event>
 5    1  0.1520352E-008  0.3802962E+03  0.7957747E-01  0.3449870E+00
         13   -1    0    0    0    0  0.00000000000E+00  0.00000000000E+00  0.14999999963E+04  0.15000000000E+04  0.10566000000E+00 0.  1.
        994   -1    0    0    0    0 -0.00000000000E+00 -0.00000000000E+00  0.11368683772E-12  0.17120000000E+03  0.17120000000E+03 0.  0.
         13    1    1    2    0    0 -0.12450104455E+02  0.51115183264E+02  0.31110144709E+03  0.31551844416E+03  0.10566000000E+00 0.  1.
        994    1    1    2    0    0  0.14862439646E+02 -0.38692373175E+02  0.97425742721E+01  0.17641527600E+03  0.17120000000E+03 0.  0.
        998    1    1    2    0    0 -0.24123351902E+01 -0.12422810089E+02  0.11791559749E+04  0.11792662798E+04  0.10000000000E+02 0.  1.
</event>
<event>
 5    1  0.1520352E-008  0.3697749E+03  0.7957747E-01  0.3496926E+00
         13   -1    0    0    0    0  0.00000000000E+00  0.00000000000E+00  0.14999999963E+04  0.15000000000E+04  0.10566000000E+00 0. -1.
        994   -1    0    0    0    0 -0.00000000000E+00 -0.00000000000E+00  0.11368683772E-12  0.17120000000E+03  0.17120000000E+03 0.  0.
         13    1    1    2    0    0  0.41246053594E+02 -0.39885307318E+01  0.93884933940E+02  0.10262327854E+03  0.10566000000E+00 0. -1.
        994    1    1    2    0    0 -0.73910314341E+01  0.14723510020E+02  0.10326506115E+02  0.17230056826E+03  0.17120000000E+03 0.  0.
        998    1    1    2    0    0 -0.33855022160E+02 -0.10734979289E+02  0.13957885562E+04  0.13962761532E+04  0.10000000000E+02 0. -1.
</event>
<event>
 5    1  0.1520352E-008  0.3856818E+03  0.7957747E-01  0.3426786E+00
         13   -1    0    0    0    0  0.00000000000E+00  0.00000000000E+00  0.14999999963E+04  0.15000000000E+04  0.10566000000E+00 0.  1.
        994   -1    0    0    0    0 -0.00000000000E+00 -0.00000000000E+00  0.11368683772E-12  0.17120000000E+03  0.17120000000E+03 0.  0.
         13    1    1    2    0    0  0.77453796476E+01  0.11308662790E+02  0.76373068487E+02  0.77593385762E+02  0.10566000000E+00 0.  1.
        994    1    1    2    0    0 -0.33561474122E+01 -0.20518022198E+01  0.13428134357E+01  0.17125045041E+03  0.17120000000E+03 0.  0.
        998    1    1    2    0    0 -0.43892322355E+01 -0.92568605699E+01  0.14222841144E+04  0.14223561638E+04  0.10000000000E+02 0.  1.
</event>
<event>
 5    1  0.1520352E-008  0.3858645E+03  0.7957747E-01  0.3426014E+00
         13   -1    0    0    0    0  0.00000000000E+00  0.00000000000E+00  0.14999999963E+04  0.15000000000E+04  0.10566000000E+00 0. -1.
        994   -1    0    0    0    0 -0.00000000000E+00 -0.00000000000E+00  0.11368683772E-12  0.17120000000E+03  0.17120000000E+03 0.  0.
         13    1    1    2    0    0 -0.38810178991E+01  0.14527551934E+02  0.89569192825E+02  0.90822703839E+02  0.10566000000E+00 0. -1.
        994    1    1    2    0    0 -0.41183903477E+01 -0.18421685028E+02  0.23709507835E+01  0.17225382732E+03  0.17120000000E+03 0.  0.
        998    1    1    2    0    0  0.79994082468E+01  0.38941330939E+01  0.14080598527E+04  0.14081234688E+04  0.10000000000E+02 0. -1.
</event>
<event>
 5    1  0.1520352E-008  0.3855662E+03  0.7957747E-01  0.3427274E+00
         13   -1    0    0    0    0  0.00000000000E+00  0.00000000000E+00  0.14999999963E+04  0.15000000000E+04  0.10566000000E+00 0. -1.
        994   -1    0    0    0    0 -0.00000000000E+00 -0.00000000000E+00  0.11368683772E-12  0.17120000000E+03  0.17120000000E+03 0.  0.
         13    1    1    2    0    0  0.75720659489E+01 -0.13229227149E+02  0.76763980163E+02  0.78262816510E+02  0.10566000000E+00 0. -1.
        994    1    1    2    0    0 -0.19848018016E+02  0.19074043840E+02  0.38406744324E+01  0.17344149950E+03  0.17120000000E+03 0.  0.
        998    1    1    2    0    0  0.12275952067E+02 -0.58448166902E+01  0.14193953417E+04  0.14194956840E+04  0.10000000000E+02 0. -1.
</event>
<event>
 5    1  0.1520352E-008  0.3831687E+03  0.7957747E-01  0.3437476E+00
         13   -1    0    0    0    0  0.00000000000E+00  0.00000000000E+00  0.14999999963E+04  0.15000000000E+04  0.10566000000E+00 0.  1.
        994   -1    0    0    0    0 -0.00000000000E+00 -0.00000000000E+00  0.11368683772E-12  0.17120000000E+03  0.17120000000E+03 0.  0.
         13    1    1    2    0    0  0.74972074201E+01  0.13624534689E+02  0.49192330559E+02  0.51591982075E+02  0.10566000000E+00 0.  1.
        994    1    1    2    0    0  0.59695017987E+01 -0.27224258689E+01  0.26845276953E+01  0.17134670479E+03  0.17120000000E+03 0.  0.
        998    1    1    2    0    0 -0.13466709219E+02 -0.10902108820E+02  0.14481231380E+04  0.14482613131E+04  0.10000000000E+02 0.  1.
</event>
<event>
 5    1  0.1520352E-008  0.3822816E+03  0.7957747E-01  0.3441284E+00
         13   -1    0    0    0    0  0.00000000000E+00  0.00000000000E+00  0.14999999963E+04  0.15000000000E+04  0.10566000000E+00 0.  1.
        994   -1    0    0    0    0 -0.00000000000E+00 -0.00000000000E+00  0.11368683772E-12  0.17120000000E+03  0.17120000000E+03 0.  0.
         13    1    1    2    0    0  0.71244425365E+01  0.25725392248E+02  0.12530044489E+03  0.12811231846E+03  0.10566000000E+00 0.  1.
        994    1    1    2    0    0 -0.26197331089E+01 -0.72600205447E+01  0.31834753843E+01  0.17140345800E+03  0.17120000000E+03 0.  0.
        998    1    1    2    0    0 -0.45047094277E+01 -0.18465371703E+02  0.13715160760E+04  0.13716842235E+04  0.10000000000E+02 0.  1.
</event>
<event>
 5    1  0.1520352E-008  0.3809563E+03  0.7957747E-01  0.3447005E+00
         13   -1    0    0    0    0  0.00000000000E+00  0.00000000000E+00  0.14999999963E+04  0.15000000000E+04  0.10566000000E+00 0.  1.
        994   -1    0    0    0    0 -0.00000000000E+00 -0.00000000000E+00  0.11368683772E-12  0.17120000000E+03  0.17120000000E+03 0.  0.
         13    1    1    2    0    0 -0.39957515096E+01 -0.30058475234E+02  0.13159517919E+03  0.13504362374E+03  0.10566000000E+00 0.  1.
        994    1    1    2    0    0  0.22744304388E+01  0.93232685648E+01  0.39581524077E+01  0.17151444062E+03  0.17120000000E+03 0.  0.
        998    1    1    2    0    0  0.17213210708E+01  0.20735206669E+02  0.13644466647E+04  0.13646419356E+04  0.10000000000E+02 0.  1.
</event>
<event>
 5    1  0.1520352E-008  0.3818407E+03  0.7957747E-01  0.3443183E+00
         13   -1    0    0    0    0  0.00000000000E+00  0.00000000000E+00  0.14999999963E+04  0.15000000000E+04  0.10566000000E+00 0. -1.
        994   -1    0    0    0    0 -0.00000000000E+00 -0.00000000000E+00  0.11368683772E-12  0.17120000000E+03  0.17120000000E+03 0.  0.
         13    1    1    2    0    0 -0.61179979975E+00  0.16693247689E+02  0.43172090809E+02  0.46291245460E+02  0.10566000000E+00 0. -1.
        994    1    1    2    0    0  0.57679160687E+01 -0.61433649636E+01  0.34428221473E+01  0.17144183507E+03  0.17120000000E+03 0.  0.
        998    1    1    2    0    0 -0.51561162690E+01 -0.10549882725E+02  0.14533850833E+04  0.14534669195E+04  0.10000000000E+02 0. -1.
</event>
<event>
 5    1  0.1520352E-008  0.3846546E+03  0.7957747E-01  0.3431139E+00
         13   -1    0    0    0    0  0.00000000000E+00  0.00000000000E+00  0.14999999963E+04  0.15000000000E+04  0.10566000000E+00 0. -1.
        994   -1    0    0    0    0 -0.00000000000E+00 -0.00000000000E+00  0.11368683772E-12  0.17120000000E+03  0.17120000000E+03 0.  0.
         13    1    1    2    0    0  0.10390382852E+02 -0.11153080334E+01  0.30082247274E+02  0.31845827559E+02  0.10566000000E+00 0. -1.
        994    1    1    2    0    0 -0.55135892425E+01  0.49123296782E+01  0.19812885647E+01  0.17137063971E+03  0.17120000000E+03 0.  0.
        998    1    1    2    0    0 -0.48767936100E+01 -0.37970216447E+01  0.14679364604E+04  0.14679835327E+04  0.10000000000E+02 0. -1.
</event>
<event>
 5    1  0.1520352E-008  0.3689933E+03  0.7957747E-01  0.3500531E+00
         13   -1    0    0    0    0  0.00000000000E+00  0.00000000000E+00  0.14999999963E+04  0.15000000000E+04  0.10566000000E+00 0. -1.
        994   -1    0    0    0    0 -0.00000000000E+00 -0.00000000000E+00  0.11368683772E-12  0.17120000000E+03  0.17120000000E+03 0.  0.
         13    1    1    2    0    0 -0.14925721286E+02 -0.12303529605E+02  0.14852415989E+02  0.24387689956E+02  0.10566000000E+00 0. -1.
        994    1    1    2    0    0  0.19136502177E+02 -0.24005156190E+01  0.11087901231E+02  0.17263936325E+03  0.17120000000E+03 0.  0.
        998    1    1    2    0    0 -0.42107808906E+01  0.14704045224E+02  0.14740596791E+04  0.14741729468E+04  0.10000000000E+02 0. -1.
</event>
<event>
 5    1  0.1520352E-008  0.3767302E+03  0.7957747E-01  0.3465521E+00
         13   -1    0    0    0    0  0.00000000000E+00  0.00000000000E+00  0.14999999963E+04  0.15000000000E+04  0.10566000000E+00 0.  1.
        994   -1    0    0    0    0 -0.00000000000E+00 -0.00000000000E+00  0.11368683772E-12  0.17120000000E+03  0.17120000000E+03 0.  0.
         13    1    1    2    0    0 -0.29418815504E+02 -0.23390502247E+02  0.16061983261E+03  0.16495855265E+03  0.10566000000E+00 0.  1.
        994    1    1    2    0    0 -0.14025298145E+02 -0.25819462125E+02  0.87161003488E+01  0.17392171807E+03  0.17120000000E+03 0.  0.
        998    1    1    2    0    0  0.43444113649E+02  0.49209964373E+02  0.13306640633E+04  0.13323197293E+04  0.10000000000E+02 0.  1.
</event>
<event>
 5    1  0.1520352E-008  0.3843935E+03  0.7957747E-01  0.3432248E+00
         13   -1    0    0    0    0  0.00000000000E+00  0.00000000000E+00  0.14999999963E+04  0.15000000000E+04  0.10566000000E+00 0. -1.
        994   -1    0    0    0    0 -0.00000000000E+00 -0.00000000000E+00  0.11368683772E-12  0.17120000000E+03  0.17120000000E+03 0.  0.
         13    1    1    2    0    0 -0.25880361174E+02  0.11167136945E+03  0.33931893003E+03  0.35815867334E+03  0.10566000000E+00 0. -1.
        994    1    1    2    0    0  0.37784182455E+02 -0.65186724220E+02  0.39983329330E+02  0.19127221461E+03  0.17120000000E+03 0.  0.
        998    1    1    2    0    0 -0.11903821281E+02 -0.46484645232E+02  0.11206977369E+04  0.11217691120E+04  0.10000000000E+02 0. -1.
</event>
<event>
 5    1  0.1520352E-008  0.3840038E+03  0.7957747E-01  0.3433908E+00
         13   -1    0    0    0    0  0.00000000000E+00  0.00000000000E+00  0.14999999963E+04  0.15000000000E+04  0.10566000000E+00 0. -1.
        994   -1    0    0    0    0 -0.00000000000E+00 -0.00000000000E+00  0.11368683772E-12  0.17120000000E+03  0.17120000000E+03 0.  0.
         13    1    1    2    0    0 -0.21572051805E+02  0.60668338390E+01  0.12696177357E+03  0.12892425297E+03  0.10566000000E+00 0. -1.
        994    1    1    2    0    0  0.55337113350E+01  0.36461039589E+01  0.22704345021E+01  0.17134325463E+03  0.17120000000E+03 0.  0.
        998    1    1    2    0    0  0.16038340470E+02 -0.97129377980E+01  0.13707677882E+04  0.13709324924E+04  0.10000000000E+02 0. -1.
</event>
<event>
 5    1  0.1520352E-008  0.3831330E+03  0.7957747E-01  0.3437629E+00
         13   -1    0    0    0    0  0.00000000000E+00  0.00000000000E+00  0.14999999963E+04  0.15000000000E+04  0.10566000000E+00 0.  1.
        994   -1    0    0    0    0 -0.00000000000E+00 -0.00000000000E+00  0.11368683772E-12  0.17120000000E+03  0.17120000000E+03 0.  0.
         13    1    1    2    0    0 -0.15680600414E+02  0.16215822309E+01  0.44977320721E+02  0.47660059814E+02  0.10566000000E+00 0.  1.
        994    1    1    2    0    0  0.24615884680E+02  0.71898252628E+00  0.45690870055E+01  0.17302247042E+03  0.17120000000E+03 0.  0.
        998    1    1    2    0    0 -0.89352842659E+01 -0.23405647572E+01  0.14504535886E+04  0.14505174698E+04  0.10000000000E+02 0.  1.
</event>
<event>
 5    1  0.1520352E-008  0.3772180E+03  0.7957747E-01  0.3463362E+00
         13   -1    0    0    0    0  0.00000000000E+00  0.00000000000E+00  0.14999999963E+04  0.15000000000E+04  0.10566000000E+00 0. -1.
        994   -1    0    0    0    0 -0.00000000000E+00 -0.00000000000E+00  0.11368683772E-12  0.17120000000E+03  0.17120000000E+03 0.  0.
         13    1    1    2    0    0  0.11945712760E+01  0.10119676402E+02  0.68344788376E+01  0.12270131052E+02  0.10566000000E+00 0. -1.
        994    1    1    2    0    0 -0.30210318830E+01 -0.68834349467E+01  0.57347931237E+01  0.17146088814E+03  0.17120000000E+03 0.  0.
        998    1    1    2    0    0  0.18264606070E+01 -0.32362414551E+01  0.14874307243E+04  0.14874689808E+04  0.10000000000E+02 0. -1.
</event>
<event>
 5    1  0.1520352E-008  0.3834857E+03  0.7957747E-01  0.3436120E+00
         13   -1    0    0    0    0  0.00000000000E+00  0.00000000000E+00  0.14999999963E+04  0.15000000000E+04  0.10566000000E+00 0.  1.
        994   -1    0    0    0    0 -0.00000000000E+00 -0.00000000000E+00  0.11368683772E-12  0.17120000000E+03  0.17120000000E+03 0.  0.
         13    1    1    2    0    0  0.16455851841E+02 -0.10975288552E+02  0.85792804592E+02  0.88043560255E+02  0.10566000000E+00 0.  1.
        994    1    1    2    0    0 -0.14612694474E+01  0.52643756937E+01  0.24824895586E+01  0.17130514211E+03  0.17120000000E+03 0.  0.
        998    1    1    2    0    0 -0.14994582394E+02  0.57109128579E+01  0.14117247021E+04  0.14118512976E+04  0.10000000000E+02 0.  1.
</event>
<event>
 5    1  0.1520352E-008  0.3753503E+03  0.7957747E-01  0.3471658E+00
         13   -1    0    0    0    0  0.00000000000E+00  0.00000000000E+00  0.14999999963E+04  0.15000000000E+04  0.10566000000E+00 0. -1.
        994   -1    0    0    0    0 -0.00000000000E+00 -0.00000000000E+00  0.11368683772E-12  0.17120000000E+03  0.17120000000E+03 0.  0.
         13    1    1    2    0    0 -0.22183464827E+02 -0.66092846978E+02  0.16611740216E+03  0.18015374822E+03  0.10566000000E+00 0. -1.
        994    1    1    2    0    0  0.61466504857E+02  0.33957194015E+02  0.31581271930E+02  0.18771797725E+03  0.17120000000E+03 0.  0.
        998    1    1    2    0    0 -0.39283040030E+02  0.32135652963E+02  0.13023013222E+04  0.13033282745E+04  0.10000000000E+02 0. -1.
</event>
<event>
 5    1  0.1520352E-008  0.3828047E+03  0.7957747E-01  0.3439036E+00
         13   -1    0    0    0    0  0.00000000000E+00  0.00000000000E+00  0.14999999963E+04  0.15000000000E+04  0.10566000000E+00 0.  1.
        994   -1    0    0    0    0 -0.00000000000E+00 -0.00000000000E+00  0.11368683772E-12  0.17120000000E+03  0.17120000000E+03 0.  0.
         13    1    1    2    0    0 -0.38140566099E+01  0.28759952315E+02  0.15321320875E+03  0.15593582137E+03  0.10566000000E+00 0.  1.
        994    1    1    2    0    0 -0.14116329747E+02 -0.20114851359E+02  0.47267220475E+01  0.17301924723E+03  0.17120000000E+03 0.  0.
        998    1    1    2    0    0  0.17930386357E+02 -0.86451009559E+01  0.13420600655E+04  0.13422449314E+04  0.10000000000E+02 0.  1.
</event>
<event>
 5    1  0.1520352E-008  0.3813871E+03  0.7957747E-01  0.3445141E+00
         13   -1    0    0    0    0  0.00000000000E+00  0.00000000000E+00  0.14999999963E+04  0.15000000000E+04  0.10566000000E+00 0. -1.
        994   -1    0    0    0    0 -0.00000000000E+00 -0.00000000000E+00  0.11368683772E-12  0.17120000000E+03  0.17120000000E+03 0.  0.
         13    1    1    2    0    0  0.26635169526E+02 -0.78661206182E+01  0.12235024355E+03  0.12546274893E+03  0.10566000000E+00 0. -1.
        994    1    1    2    0    0 -0.46755818153E+01 -0.10183792586E+02  0.38525350531E+01  0.17160959391E+03  0.17120000000E+03 0.  0.
        998    1    1    2    0    0 -0.21959587711E+02  0.18049913204E+02  0.13737972177E+04  0.13741276572E+04  0.10000000000E+02 0. -1.
</event>
<event>
 5    1  0.1520352E-008  0.3836288E+03  0.7957747E-01  0.3435509E+00
         13   -1    0    0    0    0  0.00000000000E+00  0.00000000000E+00  0.14999999963E+04  0.15000000000E+04  0.10566000000E+00 0.  1.
        994   -1    0    0    0    0 -0.00000000000E+00 -0.00000000000E+00  0.11368683772E-12  0.17120000000E+03  0.17120000000E+03 0.  0.
         13    1    1    2    0    0  0.18480634411E+02  0.29497720031E+01  0.70024836942E+02  0.72482576913E+02  0.10566000000E+00 0.  1.
        994    1    1    2    0    0 -0.25579182282E+02  0.23957781352E+01  0.44958144062E+01  0.17317530617E+03  0.17120000000E+03 0.  0.
        998    1    1    2    0    0  0.70985478712E+01 -0.53455501383E+01  0.14254793449E+04  0.14255421169E+04  0.10000000000E+02 0.  1.
</event>
<event>
 5    1  0.1520352E-008  0.3684396E+03  0.7957747E-01  0.3503093E+00
         13   -1    0    0    0    0  0.00000000000E+00  0.00000000000E+00  0.14999999963E+04  0.15000000000E+04  0.10566000000E+00 0.  1.
        994   -1    0    0    0    0 -0.00000000000E+00 -0.00000000000E+00  0.11368683772E-12  0.17120000000E+03  0.17120000000E+03 0.  0.
         13    1    1    2    0    0  0.19002904059E+01 -0.17420437646E+02  0.10639832099E+02  0.20501218074E+02  0.10566000000E+00 0.  1.
        994    1    1    2    0    0 -0.54050194996E+00  0.17215580976E+02  0.11118988542E+02  0.17242314310E+03  0.17120000000E+03 0.  0.
        998    1    1    2    0    0 -0.13597884560E+01  0.20485666961E+00  0.14782411756E+04  0.14782756388E+04  0.10000000000E+02 0.  1.
</event>
<event>
 5    1  0.1551379E-008  0.3857836E+03  0.7957747E-01  0.3426355E+00
         13   -1    0    0    0    0  0.00000000000E+00  0.00000000000E+00  0.14999999963E+04  0.15000000000E+04  0.10566000000E+00 0.  1.
        994   -1    0    0    0    0 -0.00000000000E+00 -0.00000000000E+00  0.11368683772E-12  0.17120000000E+03  0.17120000000E+03 0.  0.
         13    1    1    2    0    0 -0.10764802199E+02 -0.27361919648E+01  0.50878773391E+02  0.52077139502E+02  0.10566000000E+00 0.  1.
        994    1    1    2    0    0  0.44353535796E+01  0.30279800084E+01  0.13361850379E+01  0.17128942295E+03  0.17120000000E+03 0.  0.
        998    1    1    2    0    0  0.63294486191E+01 -0.29178804367E+00  0.14477850378E+04  0.14478334375E+04  0.10000000000E+02 0.  1.
</event>
<event>
 5    1  0.1520352E-008  0.3833640E+03  0.7957747E-01  0.3436640E+00
         13   -1    0    0    0    0  0.00000000000E+00  0.00000000000E+00  0.14999999963E+04  0.15000000000E+04  0.10566000000E+00 0. -1.
        994   -1    0    0    0    0 -0.00000000000E+00 -0.00000000000E+00  0.11368683772E-12  0.17120000000E+03  0.17120000000E+03 0.  0.
         13    1    1    2    0    0 -0.65237741880E+01  0.10416269259E+02  0.29982299979E+02  0.32403823401E+02  0.10566000000E+00 0. -1.
        994    1    1    2    0    0  0.35861450287E+01 -0.90433884038E+01  0.27575389219E+01  0.17149835956E+03  0.17120000000E+03 0.  0.
        998    1    1    2    0    0  0.29376291593E+01 -0.13728808553E+01  0.14672601574E+04  0.14672978170E+04  0.10000000000E+02 0. -1.
</event>
<event>
 5    1  0.1520352E-008  0.3793200E+03  0.7957747E-01  0.3454125E+00
         13   -1    0    0    0    0  0.00000000000E+00  0.00000000000E+00  0.14999999963E+04  0.15000000000E+04  0.10566000000E+00 0. -1.
        994   -1    0    0    0    0 -0.00000000000E+00 -0.00000000000E+00  0.11368683772E-12  0.17120000000E+03  0.17120000000E+03 0.  0.
         13    1    1    2    0    0 -0.22715915958E+02 -0.10038634203E+02  0.72741211757E+02  0.76864049245E+02  0.10566000000E+00 0. -1.
        994    1    1    2    0    0 -0.67935016985E+01  0.93665298074E+01  0.49254710876E+01  0.17166124726E+03  0.17120000000E+03 0.  0.
        998    1    1    2    0    0  0.29509417657E+02  0.67210439590E+00  0.14223333134E+04  0.14226747035E+04  0.10000000000E+02 0. -1.
</event>
<event>
 5    1  0.1520352E-008  0.3787556E+03  0.7957747E-01  0.3456595E+00
         13   -1    0    0    0    0  0.00000000000E+00  0.00000000000E+00  0.14999999963E+04  0.15000000000E+04  0.10566000000E+00 0. -1.
        994   -1    0    0    0    0 -0.00000000000E+00 -0.00000000000E+00  0.11368683772E-12  0.17120000000E+03  0.17120000000E+03 0.  0.
         13    1    1    2    0    0  0.60813113712E+02  0.23955563616E+02  0.39042144699E+03  0.39585479820E+03  0.10566000000E+00 0. -1.
        994    1    1    2    0    0 -0.49563162618E+02 -0.12319584081E+02  0.13568259129E+02  0.17916979906E+03  0.17120000000E+03 0.  0.
        998    1    1    2    0    0 -0.11249951094E+02 -0.11635979535E+02  0.10960102902E+04  0.10961754027E+04  0.10000000000E+02 0. -1.
</event>
<event>
 5    1  0.1520352E-008  0.3811748E+03  0.7957747E-01  0.3446059E+00
         13   -1    0    0    0    0  0.00000000000E+00  0.00000000000E+00  0.14999999963E+04  0.15000000000E+04  0.10566000000E+00 0. -1.
        994   -1    0    0    0    0 -0.00000000000E+00 -0.00000000000E+00  0.11368683772E-12  0.17120000000E+03  0.17120000000E+03 0.  0.
         13    1    1    2    0    0 -0.17530920815E+02  0.26246317236E+02  0.14461961134E+03  0.14802380045E+03  0.10566000000E+00 0. -1.
        994    1    1    2    0    0  0.73651042312E+00 -0.15577504092E+02  0.43515744315E+01  0.17196388365E+03  0.17120000000E+03 0.  0.
        998    1    1    2    0    0  0.16794410392E+02 -0.10668813144E+02  0.13510288105E+04  0.13512123159E+04  0.10000000000E+02 0. -1.
</event>
<event>
 5    1  0.1520352E-008  0.3752771E+03  0.7957747E-01  0.3471984E+00
         13   -1    0    0    0    0  0.00000000000E+00  0.00000000000E+00  0.14999999963E+04  0.15000000000E+04  0.10566000000E+00 0.  1.
        994   -1    0    0    0    0 -0.00000000000E+00 -0.00000000000E+00  0.11368683772E-12  0.17120000000E+03  0.17120000000E+03 0.  0.
         13    1    1    2    0    0 -0.22216011041E+02  0.98279753499E+01  0.41561195771E+02  0.48140257623E+02  0.10566000000E+00 0.  1.
        994    1    1    2    0    0  0.23406021318E+02 -0.65760062513E+01  0.85464374851E+01  0.17312875927E+03  0.17120000000E+03 0.  0.
        998    1    1    2    0    0 -0.11900102767E+01 -0.32519690986E+01  0.14498923630E+04  0.14499309831E+04  0.10000000000E+02 0.  1.
</event>
<event>
 5    1  0.1520352E-008  0.3849754E+03  0.7957747E-01  0.3429776E+00
         13   -1    0    0    0    0  0.00000000000E+00  0.00000000000E+00  0.14999999963E+04  0.15000000000E+04  0.10566000000E+00 0.  1.
        994   -1    0    0    0    0 -0.00000000000E+00 -0.00000000000E+00  0.11368683772E-12  0.17120000000E+03  0.17120000000E+03 0.  0.
         13    1    1    2    0    0 -0.37167993588E+01 -0.13559612874E+02  0.65617049972E+02  0.67106528071E+02  0.10566000000E+00 0.  1.
        994    1    1    2    0    0  0.60834816760E+01 -0.59173299561E+01  0.18792531638E+01  0.17142052134E+03  0.17120000000E+03 0.  0.
        998    1    1    2    0    0 -0.23666823172E+01  0.19476942830E+02  0.14325036931E+04  0.14326729506E+04  0.10000000000E+02 0.  1.
</event>
<event>
 5    1  0.1520352E-008  0.3837285E+03  0.7957747E-01  0.3435083E+00
         13   -1    0    0    0    0  0.00000000000E+00  0.00000000000E+00  0.14999999963E+04  0.15000000000E+04  0.10566000000E+00 0. -1.
        994   -1    0    0    0    0 -0.00000000000E+00 -0.00000000000E+00  0.11368683772E-12  0.17120000000E+03  0.17120000000E+03 0.  0.
         13    1    1    2    0    0  0.45292580517E+01 -0.14898831768E+02  0.60951186124E+02  0.62909042438E+02  0.10566000000E+00 0. -1.
        994    1    1    2    0    0  0.11549727051E+02 -0.12663717063E+02  0.32334067472E+01  0.17208620178E+03  0.17120000000E+03 0.  0.
        998    1    1    2    0    0 -0.16078985102E+02  0.27562548831E+02  0.14358154034E+04  0.14362047558E+04  0.10000000000E+02 0. -1.
</event>
<event>
 5    1  0.1520352E-008  0.3763390E+03  0.7957747E-01  0.3467256E+00
         13   -1    0    0    0    0  0.00000000000E+00  0.00000000000E+00  0.14999999963E+04  0.15000000000E+04  0.10566000000E+00 0. -1.
        994   -1    0    0    0    0 -0.00000000000E+00 -0.00000000000E+00  0.11368683772E-12  0.17120000000E+03  0.17120000000E+03 0.  0.
         13    1    1    2    0    0 -0.47291474445E+02  0.42746495870E+02  0.28929524225E+03  0.29623553942E+03  0.10566000000E+00 0. -1.
        994    1    1    2    0    0  0.15547466076E+02 -0.71076071379E+02  0.24121067498E+02  0.18757611128E+03  0.17120000000E+03 0.  0.
        998    1    1    2    0    0  0.31744008369E+02  0.28329575509E+02  0.11865836865E+04  0.11873883493E+04  0.10000000000E+02 0. -1.
</event>
<event>
 5    1  0.1520352E-008  0.3846477E+03  0.7957747E-01  0.3431168E+00
         13   -1    0    0    0    0  0.00000000000E+00  0.00000000000E+00  0.14999999963E+04  0.15000000000E+04  0.10566000000E+00 0. -1.
        994   -1    0    0    0    0 -0.00000000000E+00 -0.00000000000E+00  0.11368683772E-12  0.17120000000E+03  0.17120000000E+03 0.  0.
         13    1    1    2    0    0 -0.46293050893E+01 -0.12380160124E+02  0.49320049812E+02  0.51060525925E+02  0.10566000000E+00 0. -1.
        994    1    1    2    0    0  0.38135987381E+01  0.32352718522E+01  0.18875031442E+01  0.17128342940E+03  0.17120000000E+03 0.  0.
        998    1    1    2    0    0  0.81570635118E+00  0.91448882715E+01  0.14487924433E+04  0.14488560447E+04  0.10000000000E+02 0. -1.
</event>
<event>
 5    1  0.1520352E-008  0.3825496E+03  0.7957747E-01  0.3440131E+00
         13   -1    0    0    0    0  0.00000000000E+00  0.00000000000E+00  0.14999999963E+04  0.15000000000E+04  0.10566000000E+00 0. -1.
        994   -1    0    0    0    0 -0.00000000000E+00 -0.00000000000E+00  0.11368683772E-12  0.17120000000E+03  0.17120000000E+03 0.  0.
         13    1    1    2    0    0 -0.15638343119E+02  0.10940984275E+02  0.62012339711E+02  0.64883005116E+02  0.10566000000E+00 0. -1.
        994    1    1    2    0    0  0.77244530765E+01 -0.16157116777E+02  0.39155080307E+01  0.17217865954E+03  0.17120000000E+03 0.  0.
        998    1    1    2    0    0  0.79138900424E+01  0.52161325021E+01  0.14340721485E+04  0.14341383353E+04  0.10000000000E+02 0. -1.
</event>
<event>
 5    1  0.1520352E-008  0.3853975E+03  0.7957747E-01  0.3427988E+00
         13   -1    0    0    0    0  0.00000000000E+00  0.00000000000E+00  0.14999999963E+04  0.15000000000E+04  0.10566000000E+00 0. -1.
        994   -1    0    0    0    0 -0.00000000000E+00 -0.00000000000E+00  0.11368683772E-12  0.17120000000E+03  0.17120000000E+03 0.  0.
         13    1    1    2    0    0  0.18050849848E+02  0.80260007717E+01  0.11794063157E+03  0.11958366782E+03  0.10566000000E+00 0. -1.
        994    1    1    2    0    0 -0.25060940566E+02 -0.15069820615E+02  0.42466295128E+01  0.17373147124E+03  0.17120000000E+03 0.  0.
        998    1    1    2    0    0  0.70100907180E+01  0.70438198431E+01  0.13778127352E+04  0.13778848609E+04  0.10000000000E+02 0. -1.
</event>
<event>
 5    1  0.1520352E-008  0.3819058E+03  0.7957747E-01  0.3442902E+00
         13   -1    0    0    0    0  0.00000000000E+00  0.00000000000E+00  0.14999999963E+04  0.15000000000E+04  0.10566000000E+00 0. -1.
        994   -1    0    0    0    0 -0.00000000000E+00 -0.00000000000E+00  0.11368683772E-12  0.17120000000E+03  0.17120000000E+03 0.  0.
         13    1    1    2    0    0 -0.11236233187E+02 -0.18004077438E+02  0.64626431549E+02  0.68021956452E+02  0.10566000000E+00 0. -1.
        994    1    1    2    0    0  0.94032493994E+01  0.30016818045E+02  0.64680180465E+01  0.17418583674E+03  0.17120000000E+03 0.  0.
        998    1    1    2    0    0  0.18329837881E+01 -0.12012740607E+02  0.14289055467E+04  0.14289922068E+04  0.10000000000E+02 0. -1.
</event>
<event>
 5    1  0.1520352E-008  0.3860724E+03  0.7957747E-01  0.3425137E+00
         13   -1    0    0    0    0  0.00000000000E+00  0.00000000000E+00  0.14999999963E+04  0.15000000000E+04  0.10566000000E+00 0.  1.
        994   -1    0    0    0    0 -0.00000000000E+00 -0.00000000000E+00  0.11368683772E-12  0.17120000000E+03  0.17120000000E+03 0.  0.
         13    1    1    2    0    0 -0.66447725218E+01  0.77471157677E+01  0.52152799032E+02  0.53142228176E+02  0.10566000000E+00 0.  1.
        994    1    1    2    0    0 -0.10432351414E+01  0.56025800964E+01  0.12050722374E+01  0.17129906434E+03  0.17120000000E+03 0.  0.
        998    1    1    2    0    0  0.76880076632E+01 -0.13349695864E+02  0.14466421250E+04  0.14467587075E+04  0.10000000000E+02 0.  1.
</event>
<event>
 5    1  0.1520352E-008  0.3816978E+03  0.7957747E-01  0.3443799E+00
         13   -1    0    0    0    0  0.00000000000E+00  0.00000000000E+00  0.14999999963E+04  0.15000000000E+04  0.10566000000E+00 0. -1.
        994   -1    0    0    0    0 -0.00000000000E+00 -0.00000000000E+00  0.11368683772E-12  0.17120000000E+03  0.17120000000E+03 0.  0.
         13    1    1    2    0    0  0.25021106718E+02 -0.32144636988E+01  0.10429880758E+03  0.10730629517E+03  0.10566000000E+00 0. -1.
        994    1    1    2    0    0 -0.58517756309E+00  0.64943041331E+01  0.34199369333E+01  0.17135826326E+03  0.17120000000E+03 0.  0.
        998    1    1    2    0    0 -0.24435929155E+02 -0.32798404344E+01  0.13922812518E+04  0.13925354416E+04  0.10000000000E+02 0. -1.
</event>
<event>
 5    1  0.1520352E-008  0.3830679E+03  0.7957747E-01  0.3437908E+00
         13   -1    0    0    0    0  0.00000000000E+00  0.00000000000E+00  0.14999999963E+04  0.15000000000E+04  0.10566000000E+00 0. -1.
        994   -1    0    0    0    0 -0.00000000000E+00 -0.00000000000E+00  0.11368683772E-12  0.17120000000E+03  0.17120000000E+03 0.  0.
         13    1    1    2    0    0 -0.15115626004E+02 -0.16572639098E+02  0.95535316646E+02  0.98133288984E+02  0.10566000000E+00 0. -1.
        994    1    1    2    0    0  0.84479254967E+01  0.12976365493E+02  0.33862742671E+01  0.17193213882E+03  0.17120000000E+03 0.  0.
        998    1    1    2    0    0  0.66677005074E+01  0.35962736052E+01  0.14010784054E+04  0.14011345722E+04  0.10000000000E+02 0. -1.
</event>
<event>
 5    1  0.1520352E-008  0.3800329E+03  0.7957747E-01  0.3451015E+00
         13   -1    0    0    0    0  0.00000000000E+00  0.00000000000E+00  0.14999999963E+04  0.15000000000E+04  0.10566000000E+00 0.  1.
        994   -1    0    0    0    0 -0.00000000000E+00 -0.00000000000E+00  0.11368683772E-12  0.17120000000E+03  0.17120000000E+03 0.  0.
         13    1    1    2    0    0  0.19061439110E+02  0.16768421226E+02  0.88212423688E+02  0.91793034966E+02  0.10566000000E+00 0.  1.
        994    1    1    2    0    0 -0.18185353092E+01  0.20231757405E+02  0.54969936648E+01  0.17248851561E+03  0.17120000000E+03 0.  0.
        998    1    1    2    0    0 -0.17242903801E+02 -0.37000178632E+02  0.14062905789E+04  0.14069184494E+04  0.10000000000E+02 0.  1.
</event>
<event>
 5    1  0.1520352E-008  0.3834284E+03  0.7957747E-01  0.3436365E+00
         13   -1    0    0    0    0  0.00000000000E+00  0.00000000000E+00  0.14999999963E+04  0.15000000000E+04  0.10566000000E+00 0.  1.
        994   -1    0    0    0    0 -0.00000000000E+00 -0.00000000000E+00  0.11368683772E-12  0.17120000000E+03  0.17120000000E+03 0.  0.
         13    1    1    2    0    0 -0.50815311868E+01  0.11284415946E+02  0.30616428665E+02  0.33023277710E+02  0.10566000000E+00 0.  1.
        994    1    1    2    0    0 -0.99310665066E+01 -0.17285870087E+02  0.37272266909E+01  0.17239709860E+03  0.17120000000E+03 0.  0.
        998    1    1    2    0    0  0.15012597693E+02  0.60014541407E+01  0.14656563409E+04  0.14657796237E+04  0.10000000000E+02 0.  1.
</event>
<event>
 5    1  0.1520352E-008  0.3801285E+03  0.7957747E-01  0.3450599E+00
         13   -1    0    0    0    0  0.00000000000E+00  0.00000000000E+00  0.14999999963E+04  0.15000000000E+04  0.10566000000E+00 0.  1.
        994   -1    0    0    0    0 -0.00000000000E+00 -0.00000000000E+00  0.11368683772E-12  0.17120000000E+03  0.17120000000E+03 0.  0.
         13    1    1    2    0    0 -0.30867069338E+02 -0.15017225319E+02  0.16661775071E+03  0.17011695695E+03  0.10566000000E+00 0.  1.
        994    1    1    2    0    0 -0.30111922155E+01  0.26959895059E+01  0.41228631280E+01  0.17129732525E+03  0.17120000000E+03 0.  0.
        998    1    1    2    0    0  0.33878261553E+02  0.12321235813E+02  0.13292593824E+04  0.13297857178E+04  0.10000000000E+02 0.  1.
</event>
<event>
 5    1  0.1726174E-008  0.3859607E+03  0.7957747E-01  0.3425608E+00
         13   -1    0    0    0    0  0.00000000000E+00  0.00000000000E+00  0.14999999963E+04  0.15000000000E+04  0.10566000000E+00 0. -1.
        994   -1    0    0    0    0 -0.00000000000E+00 -0.00000000000E+00  0.11368683772E-12  0.17120000000E+03  0.17120000000E+03 0.  0.
         13    1    1    2    0    0  0.45367119951E+01 -0.98813352594E+01  0.52244009253E+02  0.53363566308E+02  0.10566000000E+00 0. -1.
        994    1    1    2    0    0 -0.26963366937E+01  0.53942866457E+01  0.12731643114E+01  0.17131091474E+03  0.17120000000E+03 0.  0.
        998    1    1    2    0    0 -0.18403753014E+01  0.44870486138E+01  0.14464828227E+04  0.14465255190E+04  0.10000000000E+02 0. -1.
</event>
<event>
 5    1  0.1520352E-008  0.3839374E+03  0.7957747E-01  0.3434191E+00
         13   -1    0    0    0    0  0.00000000000E+00  0.00000000000E+00  0.14999999963E+04  0.15000000000E+04  0.10566000000E+00 0.  1.
        994   -1    0    0    0    0 -0.00000000000E+00 -0.00000000000E+00  0.11368683772E-12  0.17120000000E+03  0.17120000000E+03 0.  0.
         13    1    1    2    0    0  0.33178438163E+01  0.11603681050E+02  0.33400288067E+02  0.35513995952E+02  0.10566000000E+00 0.  1.
        994    1    1    2    0    0 -0.25788292332E+01 -0.59166270091E+01  0.22960832342E+01  0.17133700369E+03  0.17120000000E+03 0.  0.
        998    1    1    2    0    0 -0.73901458304E+00 -0.56870540404E+01  0.14643036250E+04  0.14643490004E+04  0.10000000000E+02 0.  1.
</event>
<event>
 5    1  0.1520352E-008  0.3850916E+03  0.7957747E-01  0.3429284E+00
         13   -1    0    0    0    0  0.00000000000E+00  0.00000000000E+00  0.14999999963E+04  0.15000000000E+04  0.10566000000E+00 0. -1.
        994   -1    0    0    0    0 -0.00000000000E+00 -0.00000000000E+00  0.11368683772E-12  0.17120000000E+03  0.17120000000E+03 0.  0.
         13    1    1    2    0    0 -0.10485963532E+02 -0.10661473997E+02  0.68279293643E+02  0.69897750775E+02  0.10566000000E+00 0. -1.
        994    1    1    2    0    0  0.17506045315E+02  0.40288075321E+01  0.26462774161E+01  0.17216020358E+03  0.17120000000E+03 0.  0.
        998    1    1    2    0    0 -0.70200817835E+01  0.66326664650E+01  0.14290744252E+04  0.14291420456E+04  0.10000000000E+02 0. -1.
</event>
<event>
 5    1  0.1520352E-008  0.3782604E+03  0.7957747E-01  0.3458768E+00
         13   -1    0    0    0    0  0.00000000000E+00  0.00000000000E+00  0.14999999963E+04  0.15000000000E+04  0.10566000000E+00 0. -1.
        994   -1    0    0    0    0 -0.00000000000E+00 -0.00000000000E+00  0.11368683772E-12  0.17120000000E+03  0.17120000000E+03 0.  0.
         13    1    1    2    0    0  0.12675064701E+02 -0.92648336548E+01  0.22549282656E+02  0.27476821508E+02  0.10566000000E+00 0. -1.
        994    1    1    2    0    0 -0.13293088742E+02 -0.16786420395E+01  0.56176913822E+01  0.17181537330E+03  0.17120000000E+03 0.  0.
        998    1    1    2    0    0  0.61802404024E+00  0.10943475694E+02  0.14718330222E+04  0.14719078052E+04  0.10000000000E+02 0. -1.
</event>
<event>
 5    1  0.1520352E-008  0.3776778E+03  0.7957747E-01  0.3461333E+00
         13   -1    0    0    0    0  0.00000000000E+00  0.00000000000E+00  0.14999999963E+04  0.15000000000E+04  0.10566000000E+00 0. -1.
        994   -1    0    0    0    0 -0.00000000000E+00 -0.00000000000E+00  0.11368683772E-12  0.17120000000E+03  0.17120000000E+03 0.  0.
         13    1    1    2    0    0  0.91319115144E+00 -0.13808563522E+02  0.15575105065E+02  0.20835196338E+02  0.10566000000E+00 0. -1.
        994    1    1    2    0    0  0.88232818809E+00  0.13936308376E+02  0.59671825662E+01  0.17187218059E+03  0.17120000000E+03 0.  0.
        998    1    1    2    0    0 -0.17955193395E+01 -0.12774485404E+00  0.14784577086E+04  0.14784926231E+04  0.10000000000E+02 0. -1.
</event>
<event>
 5    1  0.1520352E-008  0.3826604E+03  0.7957747E-01  0.3439656E+00
         13   -1    0    0    0    0  0.00000000000E+00  0.00000000000E+00  0.14999999963E+04  0.15000000000E+04  0.10566000000E+00 0.  1.
        994   -1    0    0    0    0 -0.00000000000E+00 -0.00000000000E+00  0.11368683772E-12  0.17120000000E+03  0.17120000000E+03 0.  0.
         13    1    1    2    0    0  0.24799182498E+02  0.86935428104E+01  0.12061049398E+03  0.12344018617E+03  0.10566000000E+00 0.  1.
        994    1    1    2    0    0 -0.19745055401E+02  0.47316144556E+00  0.40899217934E+01  0.17238404379E+03  0.17120000000E+03 0.  0.
        998    1    1    2    0    0 -0.50541270969E+01 -0.91667042559E+01  0.13752995805E+04  0.13753757700E+04  0.10000000000E+02 0.  1.
</event>
<event>
 5    1  0.1520352E-008  0.3813134E+03  0.7957747E-01  0.3445460E+00
         13   -1    0    0    0    0  0.00000000000E+00  0.00000000000E+00  0.14999999963E+04  0.15000000000E+04  0.10566000000E+00 0. -1.
        994   -1    0    0    0    0 -0.00000000000E+00 -0.00000000000E+00  0.11368683772E-12  0.17120000000E+03  0.17120000000E+03 0.  0.
         13    1    1    2    0    0 -0.10029312423E+02 -0.63378083222E+01  0.18359573293E+02  0.21859552089E+02  0.10566000000E+00 0. -1.
        994    1    1    2    0    0  0.12530647230E+02  0.13755603361E+02  0.46248913827E+01  0.17227032061E+03  0.17120000000E+03 0.  0.
        998    1    1    2    0    0 -0.25013348074E+01 -0.74177950386E+01  0.14770155316E+04  0.14770701273E+04  0.10000000000E+02 0. -1.
</event>
<event>
 5    1  0.1520352E-008  0.3861448E+03  0.7957747E-01  0.3424831E+00
         13   -1    0    0    0    0  0.00000000000E+00  0.00000000000E+00  0.14999999963E+04  0.15000000000E+04  0.10566000000E+00 0.  1.
        994   -1    0    0    0    0 -0.00000000000E+00 -0.00000000000E+00  0.11368683772E-12  0.17120000000E+03  0.17120000000E+03 0.  0.
         13    1    1    2    0    0 -0.54862747295E+01 -0.94793574952E+01  0.57036852477E+02  0.58079007683E+02  0.10566000000E+00 0.  1.
        994    1    1    2    0    0  0.54366504808E+01  0.59254114082E+01  0.12747159543E+01  0.17139350212E+03  0.17120000000E+03 0.  0.
        998    1    1    2    0    0  0.49624248750E-01  0.35539460870E+01  0.14416884278E+04  0.14417274902E+04  0.10000000000E+02 0.  1.
</event>
<event>
 5    1  0.1520352E-008  0.3721013E+03  0.7957747E-01  0.3486289E+00
         13   -1    0    0    0    0  0.00000000000E+00  0.00000000000E+00  0.14999999963E+04  0.15000000000E+04  0.10566000000E+00 0. -1.
        994   -1    0    0    0    0 -0.00000000000E+00 -0.00000000000E+00  0.11368683772E-12  0.17120000000E+03  0.17120000000E+03 0.  0.
         13    1    1    2    0    0 -0.60423063673E+01 -0.11372428241E+02  0.64653452956E+01  0.14410185431E+02  0.10566000000E+00 0. -1.
        994    1    1    2    0    0  0.49145064374E+01  0.44259274518E+01  0.83250170683E+01  0.17152984322E+03  0.17120000000E+03 0.  0.
        998    1    1    2    0    0  0.11277999299E+01  0.69465007890E+01  0.14852096339E+04  0.14852599713E+04  0.10000000000E+02 0. -1.
</event>
<event>
 5    1  0.1520352E-008  0.3780986E+03  0.7957747E-01  0.3459480E+00
         13   -1    0    0    0    0  0.00000000000E+00  0.00000000000E+00  0.14999999963E+04  0.15000000000E+04  0.10566000000E+00 0. -1.
        994   -1    0    0    0    0 -0.00000000000E+00 -0.00000000000E+00  0.11368683772E-12  0.17120000000E+03  0.17120000000E+03 0.  0.
         13    1    1    2    0    0  0.36155353405E+02  0.52744618484E+01  0.14749439842E+03  0.15195275008E+03  0.10566000000E+00 0. -1.
        994    1    1    2    0    0 -0.77571357682E-01  0.76484546378E+01  0.52928895755E+01  0.17145249942E+03  0.17120000000E+03 0.  0.
        998    1    1    2    0    0 -0.36077782047E+02 -0.12922916486E+02  0.13472127083E+04  0.13477947505E+04  0.10000000000E+02 0. -1.
</event>
<event>
 5    1  0.1949949E-008  0.3855611E+03  0.7957747E-01  0.3427296E+00
         13   -1    0    0    0    0  0.00000000000E+00  0.00000000000E+00  0.14999999963E+04  0.15000000000E+04  0.10566000000E+00 0.  1.
        994   -1    0    0    0    0 -0.00000000000E+00 -0.00000000000E+00  0.11368683772E-12  0.17120000000E+03  0.17120000000E+03 0.  0.
         13    1    1    2    0    0 -0.37760177202E+01 -0.92943641331E+01  0.37008734186E+02  0.38344505272E+02  0.10566000000E+00 0.  1.
        994    1    1    2    0    0  0.23599056063E+01  0.82155536475E+01  0.15917114486E+01  0.17142064643E+03  0.17120000000E+03 0.  0.
        998    1    1    2    0    0  0.14161121138E+01  0.10788104856E+01  0.14613995506E+04  0.14614348483E+04  0.10000000000E+02 0.  1.
</event>
<event>
 5    1  0.1520352E-008  0.3821103E+03  0.7957747E-01  0.3442021E+00
         13   -1    0    0    0    0  0.00000000000E+00  0.00000000000E+00  0.14999999963E+04  0.15000000000E+04  0.10566000000E+00 0. -1.
        994   -1    0    0    0    0 -0.00000000000E+00 -0.00000000000E+00  0.11368683772E-12  0.17120000000E+03  0.17120000000E+03 0.  0.
         13    1    1    2    0    0 -0.16035304287E+02  0.14409480007E+02  0.80603713338E+02  0.83437005373E+02  0.10566000000E+00 0. -1.
        994    1    1    2    0    0 -0.23835712317E+02 -0.27119211188E+02  0.74113836266E+01  0.17512270385E+03  0.17120000000E+03 0.  0.
        998    1    1    2    0    0  0.39871016604E+02  0.12709731181E+02  0.14119848993E+04  0.14126402908E+04  0.10000000000E+02 0. -1.
</event>
<event>
 5    1  0.1520352E-008  0.3814662E+03  0.7957747E-01  0.3444799E+00
         13   -1    0    0    0    0  0.00000000000E+00  0.00000000000E+00  0.14999999963E+04  0.15000000000E+04  0.10566000000E+00 0.  1.
        994   -1    0    0    0    0 -0.00000000000E+00 -0.00000000000E+00  0.11368683772E-12  0.17120000000E+03  0.17120000000E+03 0.  0.
         13    1    1    2    0    0  0.17722850261E+02 -0.11428364635E+02  0.64932120698E+02  0.68270772677E+02  0.10566000000E+00 0.  1.
        994    1    1    2    0    0 -0.96205353055E+01  0.62261443274E+01  0.38318496945E+01  0.17162587988E+03  0.17120000000E+03 0.  0.
        998    1    1    2    0    0 -0.81023149554E+01  0.52022203075E+01  0.14312360259E+04  0.14313033474E+04  0.10000000000E+02 0.  1.
</event>
<event>
 5    1  0.1520352E-008  0.3778011E+03  0.7957747E-01  0.3460789E+00
         13   -1    0    0    0    0  0.00000000000E+00  0.00000000000E+00  0.14999999963E+04  0.15000000000E+04  0.10566000000E+00 0. -1.
        994   -1    0    0    0    0 -0.00000000000E+00 -0.00000000000E+00  0.11368683772E-12  0.17120000000E+03  0.17120000000E+03 0.  0.
         13    1    1    2    0    0  0.15600384139E+03  0.27008984909E+02  0.53432390281E+03  0.55728693514E+03  0.10566000000E+00 0. -1.
        994    1    1    2    0    0 -0.15009029572E+03 -0.59788011749E+01  0.10140747944E+03  0.24931056901E+03  0.17120000000E+03 0.  0.
        998    1    1    2    0    0 -0.59135456713E+01 -0.21030183734E+02  0.86426861403E+03  0.86460249586E+03  0.10000000000E+02 0. -1.
</event>
<event>
 5    1  0.2007601E-008  0.3857090E+03  0.7957747E-01  0.3426671E+00
         13   -1    0    0    0    0  0.00000000000E+00  0.00000000000E+00  0.14999999963E+04  0.15000000000E+04  0.10566000000E+00 0. -1.
        994   -1    0    0    0    0 -0.00000000000E+00 -0.00000000000E+00  0.11368683772E-12  0.17120000000E+03  0.17120000000E+03 0.  0.
         13    1    1    2    0    0  0.88763887460E+01  0.90390661191E+01  0.65787755548E+02  0.66996529295E+02  0.10566000000E+00 0. -1.
        994    1    1    2    0    0 -0.26978713630E+00 -0.38752153207E+01  0.13280307870E+01  0.17124921531E+03  0.17120000000E+03 0.  0.
        998    1    1    2    0    0 -0.86066016097E+01 -0.51638507984E+01  0.14328842099E+04  0.14329542554E+04  0.10000000000E+02 0. -1.
</event>
<event>
 5    1  0.1520352E-008  0.3811011E+03  0.7957747E-01  0.3446378E+00
         13   -1    0    0    0    0  0.00000000000E+00  0.00000000000E+00  0.14999999963E+04  0.15000000000E+04  0.10566000000E+00 0. -1.
        994   -1    0    0    0    0 -0.00000000000E+00 -0.00000000000E+00  0.11368683772E-12  0.17120000000E+03  0.17120000000E+03 0.  0.
         13    1    1    2    0    0  0.11237404760E+02  0.53930022313E+01  0.20233901458E+02  0.23765219777E+02  0.10566000000E+00 0. -1.
        994    1    1    2    0    0 -0.79988092789E+01 -0.43088045883E+01  0.38533552774E+01  0.17148421237E+03  0.17120000000E+03 0.  0.
        998    1    1    2    0    0 -0.32385954813E+01 -0.10841976430E+01  0.14759127395E+04  0.14759505678E+04  0.10000000000E+02 0. -1.
</event>
<event>
 5    1  0.1520352E-008  0.3854155E+03  0.7957747E-01  0.3427912E+00
         13   -1    0    0    0    0  0.00000000000E+00  0.00000000000E+00  0.14999999963E+04  0.15000000000E+04  0.10566000000E+00 0.  1.
        994   -1    0    0    0    0 -0.00000000000E+00 -0.00000000000E+00  0.11368683772E-12  0.17120000000E+03  0.17120000000E+03 0.  0.
         13    1    1    2    0    0 -0.12581912852E+02 -0.80185150615E+01  0.89929804936E+02  0.91159103192E+02  0.10566000000E+00 0.  1.
        994    1    1    2    0    0 -0.65743307755E+01 -0.25680508301E+01  0.15876189627E+01  0.17135278592E+03  0.17120000000E+03 0.  0.
        998    1    1    2    0    0  0.19156243627E+02  0.10586565892E+02  0.14084825724E+04  0.14086881109E+04  0.10000000000E+02 0.  1.
</event>
<event>
 5    1  0.1520352E-008  0.3849013E+03  0.7957747E-01  0.3430091E+00
         13   -1    0    0    0    0  0.00000000000E+00  0.00000000000E+00  0.14999999963E+04  0.15000000000E+04  0.10566000000E+00 0. -1.
        994   -1    0    0    0    0 -0.00000000000E+00 -0.00000000000E+00  0.11368683772E-12  0.17120000000E+03  0.17120000000E+03 0.  0.
         13    1    1    2    0    0  0.33745755016E+01  0.98680464821E+01  0.32442054435E+02  0.34077326204E+02  0.10566000000E+00 0. -1.
        994    1    1    2    0    0 -0.56359708213E+00 -0.51046294542E+01  0.17659294272E+01  0.17128611558E+03  0.17120000000E+03 0.  0.
        998    1    1    2    0    0 -0.28109784194E+01 -0.47634170279E+01  0.14657920124E+04  0.14658365582E+04  0.10000000000E+02 0. -1.
</event>
<event>
 5    1  0.1520352E-008  0.3833437E+03  0.7957747E-01  0.3436727E+00
         13   -1    0    0    0    0  0.00000000000E+00  0.00000000000E+00  0.14999999963E+04  0.15000000000E+04  0.10566000000E+00 0. -1.
        994   -1    0    0    0    0 -0.00000000000E+00 -0.00000000000E+00  0.11368683772E-12  0.17120000000E+03  0.17120000000E+03 0.  0.
         13    1    1    2    0    0 -0.11160294938E+02  0.10015282647E+01  0.25157323843E+02  0.27540104375E+02  0.10566000000E+00 0. -1.
        994    1    1    2    0    0  0.33286863388E+01  0.42897412532E+01  0.25521688052E+01  0.17130509507E+03  0.17120000000E+03 0.  0.
        998    1    1    2    0    0  0.78316085996E+01 -0.52912695180E+01  0.14722905036E+04  0.14723548006E+04  0.10000000000E+02 0. -1.
</event>
<event>
 5    1  0.1520352E-008  0.3862081E+03  0.7957747E-01  0.3424564E+00
         13   -1    0    0    0    0  0.00000000000E+00  0.00000000000E+00  0.14999999963E+04  0.15000000000E+04  0.10566000000E+00 0. -1.
        994   -1    0    0    0    0 -0.00000000000E+00 -0.00000000000E+00  0.11368683772E-12  0.17120000000E+03  0.17120000000E+03 0.  0.
         13    1    1    2    0    0 -0.47166488845E+01  0.98893483236E+01  0.62634361970E+02  0.63585536487E+02  0.10566000000E+00 0. -1.
        994    1    1    2    0    0  0.88768434954E+01  0.41470233902E+01  0.13460265657E+01  0.17148541612E+03  0.17120000000E+03 0.  0.
        998    1    1    2    0    0 -0.41601946109E+01 -0.14036371714E+02  0.14360196077E+04  0.14361290474E+04  0.10000000000E+02 0. -1.
</event>
<event>
 5    1  0.1520352E-008  0.3839671E+03  0.7957747E-01  0.3434065E+00
         13   -1    0    0    0    0  0.00000000000E+00  0.00000000000E+00  0.14999999963E+04  0.15000000000E+04  0.10566000000E+00 0. -1.
        994   -1    0    0    0    0 -0.00000000000E+00 -0.00000000000E+00  0.11368683772E-12  0.17120000000E+03  0.17120000000E+03 0.  0.
         13    1    1    2    0    0 -0.20602171710E+02  0.10954367140E+02  0.12386331607E+03  0.12604197662E+03  0.10566000000E+00 0. -1.
        994    1    1    2    0    0  0.20142361049E+02  0.10981050430E+01  0.34876874214E+01  0.17241961752E+03  0.17120000000E+03 0.  0.
        998    1    1    2    0    0  0.45981066027E+00 -0.12052472183E+02  0.13726489928E+04  0.13727384059E+04  0.10000000000E+02 0. -1.
</event>
<event>
 5    1  0.1520352E-008  0.3779447E+03  0.7957747E-01  0.3460157E+00
         13   -1    0    0    0    0  0.00000000000E+00  0.00000000000E+00  0.14999999963E+04  0.15000000000E+04  0.10566000000E+00 0.  1.
        994   -1    0    0    0    0 -0.00000000000E+00 -0.00000000000E+00  0.11368683772E-12  0.17120000000E+03  0.17120000000E+03 0.  0.
         13    1    1    2    0    0 -0.26583192039E+02 -0.50608037373E+02  0.26885897658E+03  0.27486905973E+03  0.10566000000E+00 0.  1.
        994    1    1    2    0    0  0.39228970673E+02  0.39383464678E+02  0.15645882172E+02  0.18067706844E+03  0.17120000000E+03 0.  0.
        998    1    1    2    0    0 -0.12645778634E+02  0.11224572694E+02  0.12154951375E+04  0.12156538718E+04  0.10000000000E+02 0.  1.
</event>
<event>
 5    1  0.1520352E-008  0.3836126E+03  0.7957747E-01  0.3435578E+00
         13   -1    0    0    0    0  0.00000000000E+00  0.00000000000E+00  0.14999999963E+04  0.15000000000E+04  0.10566000000E+00 0.  1.
        994   -1    0    0    0    0 -0.00000000000E+00 -0.00000000000E+00  0.11368683772E-12  0.17120000000E+03  0.17120000000E+03 0.  0.
         13    1    1    2    0    0 -0.20747588307E+02  0.30959704104E+01  0.91717659838E+02  0.94086065618E+02  0.10566000000E+00 0.  1.
        994    1    1    2    0    0  0.16957061249E+02 -0.48679941922E+01  0.33494027407E+01  0.17213918146E+03  0.17120000000E+03 0.  0.
        998    1    1    2    0    0  0.37905270573E+01  0.17720237817E+01  0.14049329337E+04  0.14049747529E+04  0.10000000000E+02 0.  1.
</event>
<event>
 5    1  0.1520352E-008  0.3721191E+03  0.7957747E-01  0.3486208E+00
         13   -1    0    0    0    0  0.00000000000E+00  0.00000000000E+00  0.14999999963E+04  0.15000000000E+04  0.10566000000E+00 0.  1.
        994   -1    0    0    0    0 -0.00000000000E+00 -0.00000000000E+00  0.11368683772E-12  0.17120000000E+03  0.17120000000E+03 0.  0.
         13    1    1    2    0    0 -0.47743793779E+02  0.10379535291E+02  0.87592199336E+02  0.10029760289E+03  0.10566000000E+00 0.  1.
        994    1    1    2    0    0  0.54918564460E+02 -0.84171423115E+01  0.23016832855E+02  0.18145553616E+03  0.17120000000E+03 0.  0.
        998    1    1    2    0    0 -0.71747706804E+01 -0.19623929797E+01  0.13893909641E+04  0.13894468610E+04  0.10000000000E+02 0.  1.
</event>
<event>
 5    1  0.1520352E-008  0.3703438E+03  0.7957747E-01  0.3494312E+00
         13   -1    0    0    0    0  0.00000000000E+00  0.00000000000E+00  0.14999999963E+04  0.15000000000E+04  0.10566000000E+00 0. -1.
        994   -1    0    0    0    0 -0.00000000000E+00 -0.00000000000E+00  0.11368683772E-12  0.17120000000E+03  0.17120000000E+03 0.  0.
         13    1    1    2    0    0  0.24862118597E+02  0.47867618092E+02  0.11608555068E+03  0.12800507819E+03  0.10566000000E+00 0. -1.
        994    1    1    2    0    0 -0.28444514149E+02 -0.50195194619E+02  0.22864198515E+02  0.18210123427E+03  0.17120000000E+03 0.  0.
        998    1    1    2    0    0  0.35823955520E+01  0.23275765268E+01  0.13610502471E+04  0.13610936875E+04  0.10000000000E+02 0. -1.
</event>
<event>
 5    1  0.1520352E-008  0.3842055E+03  0.7957747E-01  0.3433049E+00
         13   -1    0    0    0    0  0.00000000000E+00  0.00000000000E+00  0.14999999963E+04  0.15000000000E+04  0.10566000000E+00 0.  1.
        994   -1    0    0    0    0 -0.00000000000E+00 -0.00000000000E+00  0.11368683772E-12  0.17120000000E+03  0.17120000000E+03 0.  0.
         13    1    1    2    0    0  0.15860158470E+02  0.59841993186E+01  0.74142611706E+02  0.76055856466E+02  0.10566000000E+00 0.  1.
        994    1    1    2    0    0 -0.43378015660E+01  0.28077794212E+01  0.21131234495E+01  0.17129099637E+03  0.17120000000E+03 0.  0.
        998    1    1    2    0    0 -0.11522356904E+02 -0.87919787398E+01  0.14237442611E+04  0.14238531472E+04  0.10000000000E+02 0.  1.
</event>
<event>
 5    1  0.1520352E-008  0.3802810E+03  0.7957747E-01  0.3449936E+00
         13   -1    0    0    0    0  0.00000000000E+00  0.00000000000E+00  0.14999999963E+04  0.15000000000E+04  0.10566000000E+00 0. -1.
        994   -1    0    0    0    0 -0.00000000000E+00 -0.00000000000E+00  0.11368683772E-12  0.17120000000E+03  0.17120000000E+03 0.  0.
         13    1    1    2    0    0 -0.11189080992E+02 -0.41488429467E+02  0.23181047380E+03  0.23575960689E+03  0.10566000000E+00 0. -1.
        994    1    1    2    0    0 -0.32529272511E+01  0.25545942792E+02  0.62093991119E+01  0.17323733248E+03  0.17120000000E+03 0.  0.
        998    1    1    2    0    0  0.14442008243E+02  0.15942486675E+02  0.12619801234E+04  0.12622030606E+04  0.10000000000E+02 0. -1.
</event>
<event>
 5    1  0.1520352E-008  0.3767044E+03  0.7957747E-01  0.3465635E+00
         13   -1    0    0    0    0  0.00000000000E+00  0.00000000000E+00  0.14999999963E+04  0.15000000000E+04  0.10566000000E+00 0.  1.
        994   -1    0    0    0    0 -0.00000000000E+00 -0.00000000000E+00  0.11368683772E-12  0.17120000000E+03  0.17120000000E+03 0.  0.
         13    1    1    2    0    0 -0.82517256782E+01 -0.49895059287E+02  0.21006473135E+03  0.21606668054E+03  0.10566000000E+00 0.  1.
        994    1    1    2    0    0  0.44307801175E+00  0.35513684006E+02  0.10081257921E+02  0.17513563267E+03  0.17120000000E+03 0.  0.
        998    1    1    2    0    0  0.78086476665E+01  0.14381375282E+02  0.12798540070E+04  0.12799976868E+04  0.10000000000E+02 0.  1.
</event>
<event>
 5    1  0.1520352E-008  0.3836570E+03  0.7957747E-01  0.3435388E+00
         13   -1    0    0    0    0  0.00000000000E+00  0.00000000000E+00  0.14999999963E+04  0.15000000000E+04  0.10566000000E+00 0. -1.
        994   -1    0    0    0    0 -0.00000000000E+00 -0.00000000000E+00  0.11368683772E-12  0.17120000000E+03  0.17120000000E+03 0.  0.
         13    1    1    2    0    0 -0.14103856243E+02  0.65809582327E+01  0.55386697377E+02  0.57531949233E+02  0.10566000000E+00 0. -1.
        994    1    1    2    0    0  0.14585472853E+01  0.72077356001E+01  0.24770392850E+01  0.17137576998E+03  0.17120000000E+03 0.  0.
        998    1    1    2    0    0  0.12645308958E+02 -0.13788693833E+02  0.14421362596E+04  0.14422922808E+04  0.10000000000E+02 0. -1.
</event>
<event>
 5    1  0.1520352E-008  0.3853710E+03  0.7957747E-01  0.3428100E+00
         13   -1    0    0    0    0  0.00000000000E+00  0.00000000000E+00  0.14999999963E+04  0.15000000000E+04  0.10566000000E+00 0. -1.
        994   -1    0    0    0    0 -0.00000000000E+00 -0.00000000000E+00  0.11368683772E-12  0.17120000000E+03  0.17120000000E+03 0.  0.
         13    1    1    2    0    0  0.52928687716E+01  0.11090509977E+02  0.54546100702E+02  0.55913344894E+02  0.10566000000E+00 0. -1.
        994    1    1    2    0    0 -0.29962812414E+01 -0.43294411414E+00  0.14761496162E+01  0.17123312810E+03  0.17120000000E+03 0.  0.
        998    1    1    2    0    0 -0.22965875302E+01 -0.10657565863E+02  0.14439777460E+04  0.14440535270E+04  0.10000000000E+02 0. -1.
</event>
<event>
 5    1  0.1520352E-008  0.3685176E+03  0.7957747E-01  0.3502732E+00
         13   -1    0    0    0    0  0.00000000000E+00  0.00000000000E+00  0.14999999963E+04  0.15000000000E+04  0.10566000000E+00 0.  1.
        994   -1    0    0    0    0 -0.00000000000E+00 -0.00000000000E+00  0.11368683772E-12  0.17120000000E+03  0.17120000000E+03 0.  0.
         13    1    1    2    0    0 -0.32402448029E+02 -0.35831059400E+02  0.10561214066E+03  0.11613663882E+03  0.10566000000E+00 0.  1.
        994    1    1    2    0    0  0.26720594088E+02  0.39962451268E+02  0.18121023309E+02  0.17874227017E+03  0.17120000000E+03 0.  0.
        998    1    1    2    0    0  0.56818539414E+01 -0.41313918682E+01  0.13762668323E+04  0.13763210910E+04  0.10000000000E+02 0.  1.
</event>
<event>
 5    1  0.1640968E-008  0.3856909E+03  0.7957747E-01  0.3426747E+00
         13   -1    0    0    0    0  0.00000000000E+00  0.00000000000E+00  0.14999999963E+04  0.15000000000E+04  0.10566000000E+00 0. -1.
        994   -1    0    0    0    0 -0.00000000000E+00 -0.00000000000E+00  0.11368683772E-12  0.17120000000E+03  0.17120000000E+03 0.  0.
         13    1    1    2    0    0  0.42801851941E+01 -0.12114531478E+02  0.66517226108E+02  0.67746840453E+02  0.10566000000E+00 0. -1.
        994    1    1    2    0    0 -0.20734284637E+01  0.39675091083E+01  0.13532610573E+01  0.17126386528E+03  0.17120000000E+03 0.  0.
        998    1    1    2    0    0 -0.22067567303E+01  0.81470223692E+01  0.14321295091E+04  0.14321892943E+04  0.10000000000E+02 0. -1.
</event>
<event>
 5    1  0.1520352E-008  0.3858105E+03  0.7957747E-01  0.3426242E+00
         13   -1    0    0    0    0  0.00000000000E+00  0.00000000000E+00  0.14999999963E+04  0.15000000000E+04  0.10566000000E+00 0. -1.
        994   -1    0    0    0    0 -0.00000000000E+00 -0.00000000000E+00  0.11368683772E-12  0.17120000000E+03  0.17120000000E+03 0.  0.
         13    1    1    2    0    0  0.55965508492E+01  0.11838836223E+02  0.70672640148E+02  0.71875674981E+02  0.10566000000E+00 0. -1.
        994    1    1    2    0    0 -0.40150757742E+01 -0.71674973332E+01  0.14497017857E+01  0.17140313733E+03  0.17120000000E+03 0.  0.
        998    1    1    2    0    0 -0.15814750750E+01 -0.46713388898E+01  0.14278776543E+04  0.14279211877E+04  0.10000000000E+02 0. -1.
</event>
<event>
 5    1  0.1520352E-008  0.3719237E+03  0.7957747E-01  0.3487096E+00
         13   -1    0    0    0    0  0.00000000000E+00  0.00000000000E+00  0.14999999963E+04  0.15000000000E+04  0.10566000000E+00 0. -1.
        994   -1    0    0    0    0 -0.00000000000E+00 -0.00000000000E+00  0.11368683772E-12  0.17120000000E+03  0.17120000000E+03 0.  0.
         13    1    1    2    0    0 -0.95714437373E+02 -0.20083076373E+02  0.41934059928E+03  0.43059393034E+03  0.10566000000E+00 0. -1.
        994    1    1    2    0    0  0.52196832651E+02 -0.74258210204E+01  0.21808253242E+02  0.18045689808E+03  0.17120000000E+03 0.  0.
        998    1    1    2    0    0  0.43517604722E+02  0.27508897393E+02  0.10588511438E+04  0.10601491716E+04  0.10000000000E+02 0. -1.
</event>
<event>
 5    1  0.1520352E-008  0.2162677E+03  0.7957747E-01  0.4765328E+00
         13   -1    0    0    0    0  0.00000000000E+00  0.00000000000E+00  0.14999999963E+04  0.15000000000E+04  0.10566000000E+00 0.  1.
        994   -1    0    0    0    0 -0.00000000000E+00 -0.00000000000E+00  0.11368683772E-12  0.17120000000E+03  0.17120000000E+03 0.  0.
         13    1    1    2    0    0  0.32149399964E+02 -0.31658227308E+02 -0.17755242442E+02  0.48488009575E+02  0.10566000000E+00 0.  1.
        994    1    1    2    0    0 -0.40176891788E+02  0.37009583579E+02  0.10149681750E+03  0.20638540615E+03  0.17120000000E+03 0.  0.
        998    1    1    2    0    0  0.80274918235E+01 -0.53513562711E+01  0.14162584212E+04  0.14163265843E+04  0.10000000000E+02 0.  1.
</event>
<event>
 5    1  0.1520352E-008  0.3848018E+03  0.7957747E-01  0.3430513E+00
         13   -1    0    0    0    0  0.00000000000E+00  0.00000000000E+00  0.14999999963E+04  0.15000000000E+04  0.10566000000E+00 0. -1.
        994   -1    0    0    0    0 -0.00000000000E+00 -0.00000000000E+00  0.11368683772E-12  0.17120000000E+03  0.17120000000E+03 0.  0.
         13    1    1    2    0    0  0.12787068953E+02 -0.70332604323E+01  0.57972122237E+02  0.59780883277E+02  0.10566000000E+00 0. -1.
        994    1    1    2    0    0 -0.10592003059E+02  0.22443679506E+02  0.37580123663E+01  0.17303026306E+03  0.17120000000E+03 0.  0.
        998    1    1    2    0    0 -0.21950658944E+01 -0.15410419073E+02  0.14382698617E+04  0.14383888537E+04  0.10000000000E+02 0. -1.
</event>
<event>
 5    1  0.1520352E-008  0.3852027E+03  0.7957747E-01  0.3428813E+00
         13   -1    0    0    0    0  0.00000000000E+00  0.00000000000E+00  0.14999999963E+04  0.15000000000E+04  0.10566000000E+00 0.  1.
        994   -1    0    0    0    0 -0.00000000000E+00 -0.00000000000E+00  0.11368683772E-12  0.17120000000E+03  0.17120000000E+03 0.  0.
         13    1    1    2    0    0  0.12346426569E+02  0.94571270138E+01  0.84173370727E+02  0.85598125003E+02  0.10566000000E+00 0.  1.
        994    1    1    2    0    0 -0.54891902810E+00 -0.27258704826E+01  0.15549655607E+01  0.17122963996E+03  0.17120000000E+03 0.  0.
        998    1    1    2    0    0 -0.11797507541E+02 -0.67312565312E+01  0.14142716600E+04  0.14143722350E+04  0.10000000000E+02 0.  1.
</event>
<event>
 5    1  0.1520352E-008  0.3835215E+03  0.7957747E-01  0.3435967E+00
         13   -1    0    0    0    0  0.00000000000E+00  0.00000000000E+00  0.14999999963E+04  0.15000000000E+04  0.10566000000E+00 0. -1.
        994   -1    0    0    0    0 -0.00000000000E+00 -0.00000000000E+00  0.11368683772E-12  0.17120000000E+03  0.17120000000E+03 0.  0.
         13    1    1    2    0    0  0.98647407335E+01 -0.24345338700E+02  0.13671657613E+03  0.13921724741E+03  0.10566000000E+00 0. -1.
        994    1    1    2    0    0 -0.93872846596E+01  0.21763379424E+02  0.42244989988E+01  0.17288450535E+03  0.17120000000E+03 0.  0.
        998    1    1    2    0    0 -0.47745607393E+00  0.25819592765E+01  0.13590589212E+04  0.13590982472E+04  0.10000000000E+02 0.  0.
</event>
<event>
 5    1  0.1520352E-008  0.3824154E+03  0.7957747E-01  0.3440708E+00
         13   -1    0    0    0    0  0.00000000000E+00  0.00000000000E+00  0.14999999963E+04  0.15000000000E+04  0.10566000000E+00 0. -1.
        994   -1    0    0    0    0 -0.00000000000E+00 -0.00000000000E+00  0.11368683772E-12  0.17120000000E+03  0.17120000000E+03 0.  0.
         13    1    1    2    0    0  0.40949421892E+01 -0.15410443813E+02  0.51680451683E+02  0.54084476334E+02  0.10566000000E+00 0. -1.
        994    1    1    2    0    0  0.37041050119E+02 -0.23322229323E+02  0.92991684112E+01  0.17695163268E+03  0.17120000000E+03 0.  0.
        998    1    1    2    0    0 -0.41135992308E+02  0.38732673136E+02  0.14390203762E+04  0.14401638910E+04  0.10000000000E+02 0. -1.
</event>
<event>
 5    1  0.1520352E-008  0.3843670E+03  0.7957747E-01  0.3432361E+00
         13   -1    0    0    0    0  0.00000000000E+00  0.00000000000E+00  0.14999999963E+04  0.15000000000E+04  0.10566000000E+00 0. -1.
        994   -1    0    0    0    0 -0.00000000000E+00 -0.00000000000E+00  0.11368683772E-12  0.17120000000E+03  0.17120000000E+03 0.  0.
         13    1    1    2    0    0 -0.12213813542E+02 -0.22147797166E+02  0.15093829127E+03  0.15304274271E+03  0.10566000000E+00 0. -1.
        994    1    1    2    0    0  0.23306677991E+02  0.15837278347E+02  0.45657560748E+01  0.17356355249E+03  0.17120000000E+03 0.  0.
        998    1    1    2    0    0 -0.11092864449E+02  0.63105188192E+01  0.13444959489E+04  0.13445937048E+04  0.10000000000E+02 0. -1.
</event>
<event>
 5    1  0.1520352E-008  0.3834304E+03  0.7957747E-01  0.3436356E+00
         13   -1    0    0    0    0  0.00000000000E+00  0.00000000000E+00  0.14999999963E+04  0.15000000000E+04  0.10566000000E+00 0. -1.
        994   -1    0    0    0    0 -0.00000000000E+00 -0.00000000000E+00  0.11368683772E-12  0.17120000000E+03  0.17120000000E+03 0.  0.
         13    1    1    2    0    0  0.22210226962E+02  0.22003551625E+02  0.19933484716E+02  0.37078368933E+02  0.10566000000E+00 0. -1.
        994    1    1    2    0    0 -0.20951158184E+02  0.51858580214E+01  0.19935748082E+02  0.17370295969E+03  0.17120000000E+03 0.  0.
        998    1    1    2    0    0 -0.12590687774E+01 -0.27189409646E+02  0.14601307635E+04  0.14604186714E+04  0.10000000000E+02 0. -1.
</event>
<event>
 5    1  0.1520352E-008  0.3852600E+03  0.7957747E-01  0.3428570E+00
         13   -1    0    0    0    0  0.00000000000E+00  0.00000000000E+00  0.14999999963E+04  0.15000000000E+04  0.10566000000E+00 0.  1.
        994   -1    0    0    0    0 -0.00000000000E+00 -0.00000000000E+00  0.11368683772E-12  0.17120000000E+03  0.17120000000E+03 0.  0.
         13    1    1    2    0    0 -0.11814014661E+02 -0.97777634131E+01  0.85159929478E+02  0.86529765702E+02  0.10566000000E+00 0.  1.
        994    1    1    2    0    0  0.11159030814E+01 -0.22209721252E+01  0.15214290545E+01  0.17122480166E+03  0.17120000000E+03 0.  0.
        998    1    1    2    0    0  0.10698111579E+02  0.11998735538E+02  0.14133186377E+04  0.14134454326E+04  0.10000000000E+02 0.  1.
</event>
<event>
 5    1  0.1520352E-008  0.3785912E+03  0.7957747E-01  0.3457316E+00
         13   -1    0    0    0    0  0.00000000000E+00  0.00000000000E+00  0.14999999963E+04  0.15000000000E+04  0.10566000000E+00 0.  1.
        994   -1    0    0    0    0 -0.00000000000E+00 -0.00000000000E+00  0.11368683772E-12  0.17120000000E+03  0.17120000000E+03 0.  0.
         13    1    1    2    0    0  0.28318275823E+01  0.16658973786E+02  0.27657471656E+02  0.32411225795E+02  0.10566000000E+00 0.  1.
        994    1    1    2    0    0 -0.26414924213E+01 -0.90097371996E+01  0.51421332452E+01  0.17153435336E+03  0.17120000000E+03 0.  0.
        998    1    1    2    0    0 -0.19033516096E+00 -0.76492365862E+01  0.14672003914E+04  0.14672544209E+04  0.10000000000E+02 0.  1.
</event>
<event>
 5    1  0.1520352E-008  0.3815420E+03  0.7957747E-01  0.3444471E+00
         13   -1    0    0    0    0  0.00000000000E+00  0.00000000000E+00  0.14999999963E+04  0.15000000000E+04  0.10566000000E+00 0.  1.
        994   -1    0    0    0    0 -0.00000000000E+00 -0.00000000000E+00  0.11368683772E-12  0.17120000000E+03  0.17120000000E+03 0.  0.
         13    1    1    2    0    0 -0.93365649261E+01  0.55246633918E+01  0.16018717276E+02  0.19346933024E+02  0.10566000000E+00 0.  1.
        994    1    1    2    0    0  0.88995869362E+01 -0.57395294420E+01  0.37298303870E+01  0.17156776061E+03  0.17120000000E+03 0.  0.
        998    1    1    2    0    0  0.43697798990E+00  0.21486605021E+00  0.14802514486E+04  0.14802853064E+04  0.10000000000E+02 0.  1.
</event>
<event>
 5    1  0.1520352E-008  0.3939563E+03  0.7957747E-01  0.3392553E+00
         13   -1    0    0    0    0  0.00000000000E+00  0.00000000000E+00  0.14999999963E+04  0.15000000000E+04  0.10566000000E+00 0.  1.
        994   -1    0    0    0    0 -0.00000000000E+00 -0.00000000000E+00  0.11368683772E-12  0.17120000000E+03  0.17120000000E+03 0.  0.
         13    1    1    2    0    0 -0.16475236657E+03 -0.87973575092E+00  0.39405960723E+03  0.42711485743E+03  0.10566000000E+00 0.  1.
        994    1    1    2    0    0  0.15827188790E+03  0.76261557153E+01  0.12807092293E+03  0.26611980394E+03  0.17120000000E+03 0.  0.
        998    1    1    2    0    0  0.64804786716E+01 -0.67464199644E+01  0.97786946612E+03  0.97796533863E+03  0.10000000000E+02 0.  1.
</event>
<event>
 5    1  0.1520352E-008  0.3800653E+03  0.7957747E-01  0.3450874E+00
         13   -1    0    0    0    0  0.00000000000E+00  0.00000000000E+00  0.14999999963E+04  0.15000000000E+04  0.10566000000E+00 0.  1.
        994   -1    0    0    0    0 -0.00000000000E+00 -0.00000000000E+00  0.11368683772E-12  0.17120000000E+03  0.17120000000E+03 0.  0.
         13    1    1    2    0    0  0.15458289768E+02 -0.13630295236E+02  0.46340166232E+02  0.50716524341E+02  0.10566000000E+00 0.  1.
        994    1    1    2    0    0 -0.27316185231E+02  0.23114105448E+02  0.83915158056E+01  0.17510080920E+03  0.17120000000E+03 0.  0.
        998    1    1    2    0    0  0.11857895463E+02 -0.94838102120E+01  0.14452683142E+04  0.14453826665E+04  0.10000000000E+02 0.  1.
</event>
<event>
 5    1  0.1520352E-008  0.3866608E+03  0.7957747E-01  0.3422659E+00
         13   -1    0    0    0    0  0.00000000000E+00  0.00000000000E+00  0.14999999963E+04  0.15000000000E+04  0.10566000000E+00 0.  1.
        994   -1    0    0    0    0 -0.00000000000E+00 -0.00000000000E+00  0.11368683772E-12  0.17120000000E+03  0.17120000000E+03 0.  0.
         13    1    1    2    0    0  0.36386920626E+02 -0.13409561398E+02  0.28879221042E+02  0.48351265770E+02  0.10566000000E+00 0.  1.
        994    1    1    2    0    0 -0.36860395791E+02  0.18359188610E+02  0.26360293023E+02  0.17804508876E+03  0.17120000000E+03 0.  0.
        998    1    1    2    0    0  0.47347516454E+00 -0.49496272119E+01  0.14447604822E+04  0.14448036455E+04  0.10000000000E+02 0.  1.
</event>
<event>
 5    1  0.1520352E-008  0.3716925E+03  0.7957747E-01  0.3488148E+00
         13   -1    0    0    0    0  0.00000000000E+00  0.00000000000E+00  0.14999999963E+04  0.15000000000E+04  0.10566000000E+00 0. -1.
        994   -1    0    0    0    0 -0.00000000000E+00 -0.00000000000E+00  0.11368683772E-12  0.17120000000E+03  0.17120000000E+03 0.  0.
         13    1    1    2    0    0  0.56786049361E+01 -0.30368615990E+02  0.52817958742E+02  0.61190255114E+02  0.10566000000E+00 0. -1.
        994    1    1    2    0    0 -0.14492410458E+02  0.23495842695E+02  0.11011271817E+02  0.17376067648E+03  0.17120000000E+03 0.  0.
        998    1    1    2    0    0  0.88138055220E+01  0.68727732954E+01  0.14361707657E+04  0.14362490684E+04  0.10000000000E+02 0. -1.
</event>
<event>
 5    1  0.1520352E-008  0.3814826E+03  0.7957747E-01  0.3444728E+00
         13   -1    0    0    0    0  0.00000000000E+00  0.00000000000E+00  0.14999999963E+04  0.15000000000E+04  0.10566000000E+00 0.  1.
        994   -1    0    0    0    0 -0.00000000000E+00 -0.00000000000E+00  0.11368683772E-12  0.17120000000E+03  0.17120000000E+03 0.  0.
         13    1    1    2    0    0 -0.83031977023E+01  0.98370363244E+01  0.23119674577E+02  0.26462065156E+02  0.10566000000E+00 0.  1.
        994    1    1    2    0    0  0.34837651364E+01 -0.89376056424E+01  0.36927754124E+01  0.17150829136E+03  0.17120000000E+03 0.  0.
        998    1    1    2    0    0  0.48194325659E+01 -0.89943068207E+00  0.14731875463E+04  0.14732296435E+04  0.10000000000E+02 0.  1.
</event>
<event>
 5    1  0.1520352E-008  0.3826854E+03  0.7957747E-01  0.3439549E+00
         13   -1    0    0    0    0  0.00000000000E+00  0.00000000000E+00  0.14999999963E+04  0.15000000000E+04  0.10566000000E+00 0. -1.
        994   -1    0    0    0    0 -0.00000000000E+00 -0.00000000000E+00  0.11368683772E-12  0.17120000000E+03  0.17120000000E+03 0.  0.
         13    1    1    2    0    0  0.21087032850E+01 -0.10163015789E+02  0.18329857724E+02  0.21064860970E+02  0.10566000000E+00 0. -1.
        994    1    1    2    0    0  0.10857748401E+01  0.66442490845E+01  0.29338898888E+01  0.17135744122E+03  0.17120000000E+03 0.  0.
        998    1    1    2    0    0 -0.31944781251E+01  0.35187667048E+01  0.14787362487E+04  0.14787776978E+04  0.10000000000E+02 0. -1.
</event>
<event>
 5    1  0.1520352E-008  0.3690233E+03  0.7957747E-01  0.3500392E+00
         13   -1    0    0    0    0  0.00000000000E+00  0.00000000000E+00  0.14999999963E+04  0.15000000000E+04  0.10566000000E+00 0.  1.
        994   -1    0    0    0    0 -0.00000000000E+00 -0.00000000000E+00  0.11368683772E-12  0.17120000000E+03  0.17120000000E+03 0.  0.
         13    1    1    2    0    0 -0.21396966596E+01 -0.18096022246E+02  0.12712400847E+02  0.22218474796E+02  0.10566000000E+00 0.  1.
        994    1    1    2    0    0  0.22174696417E+01  0.11857403048E+02  0.10285488534E+02  0.17193238919E+03  0.17120000000E+03 0.  0.
        998    1    1    2    0    0 -0.77772982082E-01  0.62386191983E+01  0.14770021069E+04  0.14770491360E+04  0.10000000000E+02 0.  1.
</event>
<event>
 5    1  0.1520352E-008  0.3845876E+03  0.7957747E-01  0.3431423E+00
         13   -1    0    0    0    0  0.00000000000E+00  0.00000000000E+00  0.14999999963E+04  0.15000000000E+04  0.10566000000E+00 0. -1.
        994   -1    0    0    0    0 -0.00000000000E+00 -0.00000000000E+00  0.11368683772E-12  0.17120000000E+03  0.17120000000E+03 0.  0.
         13    1    1    2    0    0  0.97008277055E+01 -0.99300620453E+01  0.50711358911E+02  0.52577231546E+02  0.10566000000E+00 0. -1.
        994    1    1    2    0    0 -0.29914086512E+02 -0.74441134662E+01  0.49705790147E+01  0.17402417663E+03  0.17120000000E+03 0.  0.
        998    1    1    2    0    0  0.20213258806E+02  0.17374175512E+02  0.14443180584E+04  0.14445985918E+04  0.10000000000E+02 0. -1.
</event>
<event>
 5    1  0.1520352E-008  0.3790799E+03  0.7957747E-01  0.3455174E+00
         13   -1    0    0    0    0  0.00000000000E+00  0.00000000000E+00  0.14999999963E+04  0.15000000000E+04  0.10566000000E+00 0. -1.
        994   -1    0    0    0    0 -0.00000000000E+00 -0.00000000000E+00  0.11368683772E-12  0.17120000000E+03  0.17120000000E+03 0.  0.
         13    1    1    2    0    0  0.80503619116E+00  0.16046586018E+02  0.25837421692E+02  0.30425721517E+02  0.10566000000E+00 0. -1.
        994    1    1    2    0    0 -0.14048012438E+01 -0.15748825088E+02  0.54370263590E+01  0.17201453489E+03  0.17120000000E+03 0.  0.
        998    1    1    2    0    0  0.59976505262E+00 -0.29776092952E+00  0.14687255482E+04  0.14687597436E+04  0.10000000000E+02 0. -1.
</event>
<event>
 5    1  0.1520352E-008  0.3779536E+03  0.7957747E-01  0.3460118E+00
         13   -1    0    0    0    0  0.00000000000E+00  0.00000000000E+00  0.14999999963E+04  0.15000000000E+04  0.10566000000E+00 0. -1.
        994   -1    0    0    0    0 -0.00000000000E+00 -0.00000000000E+00  0.11368683772E-12  0.17120000000E+03  0.17120000000E+03 0.  0.
         13    1    1    2    0    0  0.15850165180E+02  0.59416129016E+02  0.25354764016E+03  0.26089829650E+03  0.10566000000E+00 0. -1.
        994    1    1    2    0    0 -0.93053823272E+02 -0.70412045020E+02  0.52461764006E+02  0.21372540044E+03  0.17120000000E+03 0.  0.
        998    1    1    2    0    0  0.77203658092E+02  0.10995916004E+02  0.11939905921E+04  0.11965763031E+04  0.10000000000E+02 0. -1.
</event>
<event>
 5    1  0.1520352E-008  0.3862109E+03  0.7957747E-01  0.3424553E+00
         13   -1    0    0    0    0  0.00000000000E+00  0.00000000000E+00  0.14999999963E+04  0.15000000000E+04  0.10566000000E+00 0. -1.
        994   -1    0    0    0    0 -0.00000000000E+00 -0.00000000000E+00  0.11368683772E-12  0.17120000000E+03  0.17120000000E+03 0.  0.
         13    1    1    2    0    0  0.10752968611E+02  0.21811824337E+01  0.57170498574E+02  0.58213924124E+02  0.10566000000E+00 0. -1.
        994    1    1    2    0    0 -0.13293718962E+02  0.28227705337E+01  0.16353817356E+01  0.17174634049E+03  0.17120000000E+03 0.  0.
        998    1    1    2    0    0  0.25407503504E+01 -0.50039529674E+01  0.14411941160E+04  0.14412397354E+04  0.10000000000E+02 0. -1.
</event>
<event>
 5    1  0.1520352E-008  0.3773503E+03  0.7957747E-01  0.3462778E+00
         13   -1    0    0    0    0  0.00000000000E+00  0.00000000000E+00  0.14999999963E+04  0.15000000000E+04  0.10566000000E+00 0.  1.
        994   -1    0    0    0    0 -0.00000000000E+00 -0.00000000000E+00  0.11368683772E-12  0.17120000000E+03  0.17120000000E+03 0.  0.
         13    1    1    2    0    0  0.12576451587E+03  0.58074679971E+02  0.72885590357E+03  0.74190317511E+03  0.10566000000E+00 0.  1.
        994    1    1    2    0    0 -0.13687883291E+03 -0.53061478137E+02  0.81993824801E+02  0.23996616984E+03  0.17120000000E+03 0.  0.
        998    1    1    2    0    0  0.11114317043E+02 -0.50132018343E+01  0.68915026791E+03  0.68933065506E+03  0.10000000000E+02 0.  1.
</event>
<event>
 5    1  0.1520352E-008  0.3807082E+03  0.7957747E-01  0.3448081E+00
         13   -1    0    0    0    0  0.00000000000E+00  0.00000000000E+00  0.14999999963E+04  0.15000000000E+04  0.10566000000E+00 0.  1.
        994   -1    0    0    0    0 -0.00000000000E+00 -0.00000000000E+00  0.11368683772E-12  0.17120000000E+03  0.17120000000E+03 0.  0.
         13    1    1    2    0    0 -0.11616039295E+02 -0.19347993120E+01  0.16704705826E+02  0.20438546378E+02  0.10566000000E+00 0.  1.
        994    1    1    2    0    0  0.94496398264E+01  0.41761671351E+01  0.41321393272E+01  0.17156121543E+03  0.17120000000E+03 0.  0.
        998    1    1    2    0    0  0.21663994683E+01 -0.22413678231E+01  0.14791631511E+04  0.14792002382E+04  0.10000000000E+02 0.  1.
</event>
<event>
 5    1  0.1520352E-008  0.3705822E+03  0.7957747E-01  0.3493220E+00
         13   -1    0    0    0    0  0.00000000000E+00  0.00000000000E+00  0.14999999963E+04  0.15000000000E+04  0.10566000000E+00 0. -1.
        994   -1    0    0    0    0 -0.00000000000E+00 -0.00000000000E+00  0.11368683772E-12  0.17120000000E+03  0.17120000000E+03 0.  0.
         13    1    1    2    0    0  0.54851797850E+01  0.86553120732E+01  0.14214229711E+01  0.10345686621E+02  0.10566000000E+00 0. -1.
        994    1    1    2    0    0 -0.33528898659E+02 -0.19234168116E+02  0.14138544832E+02  0.17607804724E+03  0.17120000000E+03 0.  0.
        998    1    1    2    0    0  0.28043718874E+02  0.10578856042E+02  0.14844400285E+04  0.14847762661E+04  0.10000000000E+02 0. -1.
</event>
<event>
 5    1  0.1520352E-008  0.3847286E+03  0.7957747E-01  0.3430824E+00
         13   -1    0    0    0    0  0.00000000000E+00  0.00000000000E+00  0.14999999963E+04  0.15000000000E+04  0.10566000000E+00 0. -1.
        994   -1    0    0    0    0 -0.00000000000E+00 -0.00000000000E+00  0.11368683772E-12  0.17120000000E+03  0.17120000000E+03 0.  0.
         13    1    1    2    0    0  0.21385299169E+01 -0.11437753224E+02  0.37181960952E+02  0.38960298937E+02  0.10566000000E+00 0. -1.
        994    1    1    2    0    0 -0.19745040613E+00  0.13236654778E+02  0.23419974046E+01  0.17172703039E+03  0.17120000000E+03 0.  0.
        998    1    1    2    0    0 -0.19410795107E+01 -0.17989015534E+01  0.14604760379E+04  0.14605126707E+04  0.10000000000E+02 0. -1.
</event>
<event>
 5    1  0.1520352E-008  0.3852691E+03  0.7957747E-01  0.3428532E+00
         13   -1    0    0    0    0  0.00000000000E+00  0.00000000000E+00  0.14999999963E+04  0.15000000000E+04  0.10566000000E+00 0. -1.
        994   -1    0    0    0    0 -0.00000000000E+00 -0.00000000000E+00  0.11368683772E-12  0.17120000000E+03  0.17120000000E+03 0.  0.
         13    1    1    2    0    0  0.64201441775E+01 -0.15075430239E+02  0.88816059043E+02  0.90314950900E+02  0.10566000000E+00 0. -1.
        994    1    1    2    0    0 -0.31096936132E+01  0.11981418677E+02  0.20002265319E+01  0.17165857245E+03  0.17120000000E+03 0.  0.
        998    1    1    2    0    0 -0.33104505643E+01  0.30940115618E+01  0.14091837107E+04  0.14092264767E+04  0.10000000000E+02 0. -1.
</event>
<event>
 5    1  0.1520352E-008  0.3723100E+03  0.7957747E-01  0.3485341E+00
         13   -1    0    0    0    0  0.00000000000E+00  0.00000000000E+00  0.14999999963E+04  0.15000000000E+04  0.10566000000E+00 0.  1.
        994   -1    0    0    0    0 -0.00000000000E+00 -0.00000000000E+00  0.11368683772E-12  0.17120000000E+03  0.17120000000E+03 0.  0.
         13    1    1    2    0    0  0.42822052386E+02 -0.20754371264E+02  0.12080561209E+03  0.12984020630E+03  0.10566000000E+00 0.  1.
        994    1    1    2    0    0 -0.50343153218E+02  0.32089141954E+02  0.20393529411E+02  0.18245405490E+03  0.17120000000E+03 0.  0.
        998    1    1    2    0    0  0.75211008316E+01 -0.11334770690E+02  0.13588008548E+04  0.13589057388E+04  0.10000000000E+02 0.  1.
</event>
<event>
 5    1  0.1520352E-008  0.3757335E+03  0.7957747E-01  0.3469949E+00
         13   -1    0    0    0    0  0.00000000000E+00  0.00000000000E+00  0.14999999963E+04  0.15000000000E+04  0.10566000000E+00 0.  1.
        994   -1    0    0    0    0 -0.00000000000E+00 -0.00000000000E+00  0.11368683772E-12  0.17120000000E+03  0.17120000000E+03 0.  0.
         13    1    1    2    0    0 -0.48002554286E+02  0.23079206247E+02  0.20131731566E+03  0.20824401007E+03  0.10566000000E+00 0.  1.
        994    1    1    2    0    0  0.45244684011E+02 -0.15842904584E+02  0.14135018088E+02  0.17834606189E+03  0.17120000000E+03 0.  0.
        998    1    1    2    0    0  0.27578702753E+01 -0.72363016631E+01  0.12845476625E+04  0.12846099280E+04  0.10000000000E+02 0.  1.
</event>
<event>
 5    1  0.1520352E-008  0.3829118E+03  0.7957747E-01  0.3438577E+00
         13   -1    0    0    0    0  0.00000000000E+00  0.00000000000E+00  0.14999999963E+04  0.15000000000E+04  0.10566000000E+00 0. -1.
        994   -1    0    0    0    0 -0.00000000000E+00 -0.00000000000E+00  0.11368683772E-12  0.17120000000E+03  0.17120000000E+03 0.  0.
         13    1    1    2    0    0  0.16548664940E+02 -0.19890948660E+02  0.11867591630E+03  0.12146395524E+03  0.10566000000E+00 0. -1.
        994    1    1    2    0    0 -0.19740093629E+02  0.13430012188E+02  0.45601601772E+01  0.17291694996E+03  0.17120000000E+03 0.  0.
        998    1    1    2    0    0  0.31914286889E+01  0.64609364721E+01  0.13767639198E+04  0.13768190948E+04  0.10000000000E+02 0. -1.
</event>
<event>
 5    1  0.1520352E-008  0.3835634E+03  0.7957747E-01  0.3435788E+00
         13   -1    0    0    0    0  0.00000000000E+00  0.00000000000E+00  0.14999999963E+04  0.15000000000E+04  0.10566000000E+00 0. -1.
        994   -1    0    0    0    0 -0.00000000000E+00 -0.00000000000E+00  0.11368683772E-12  0.17120000000E+03  0.17120000000E+03 0.  0.
         13    1    1    2    0    0  0.13571746324E+02 -0.82904581215E+01  0.46784105867E+02  0.49413436634E+02  0.10566000000E+00 0. -1.
        994    1    1    2    0    0 -0.24089783260E+02  0.36248906361E+02  0.86291919901E+01  0.17685644977E+03  0.17120000000E+03 0.  0.
        998    1    1    2    0    0  0.10518036936E+02 -0.27958448239E+02  0.14445866984E+04  0.14449301136E+04  0.10000000000E+02 0. -1.
</event>
<event>
 5    1  0.1520352E-008  0.3784321E+03  0.7957747E-01  0.3458014E+00
         13   -1    0    0    0    0  0.00000000000E+00  0.00000000000E+00  0.14999999963E+04  0.15000000000E+04  0.10566000000E+00 0.  1.
        994   -1    0    0    0    0 -0.00000000000E+00 -0.00000000000E+00  0.11368683772E-12  0.17120000000E+03  0.17120000000E+03 0.  0.
         13    1    1    2    0    0 -0.11164119200E+02  0.25996300615E+01  0.11098955618E+02  0.15955989904E+02  0.10566000000E+00 0.  1.
        994    1    1    2    0    0  0.10370902983E+02 -0.18492348645E+00  0.52883530639E+01  0.17159544430E+03  0.17120000000E+03 0.  0.
        998    1    1    2    0    0  0.79321621678E+00 -0.24147065750E+01  0.14836126876E+04  0.14836485658E+04  0.10000000000E+02 0.  1.
</event>
<event>
 5    1  0.1520352E-008  0.3753674E+03  0.7957747E-01  0.3471581E+00
         13   -1    0    0    0    0  0.00000000000E+00  0.00000000000E+00  0.14999999963E+04  0.15000000000E+04  0.10566000000E+00 0. -1.
        994   -1    0    0    0    0 -0.00000000000E+00 -0.00000000000E+00  0.11368683772E-12  0.17120000000E+03  0.17120000000E+03 0.  0.
         13    1    1    2    0    0 -0.59417021026E+02  0.21887949701E+02  0.14194148396E+03  0.15542477526E+03  0.10566000000E+00 0. -1.
        994    1    1    2    0    0  0.20241478133E+02 -0.54619060421E+02  0.25995568124E+02  0.18269693145E+03  0.17120000000E+03 0.  0.
        998    1    1    2    0    0  0.39175542894E+02  0.32731110720E+02  0.13320629442E+04  0.13330782933E+04  0.10000000000E+02 0. -1.
</event>
<event>
 5    1  0.1520352E-008  0.3801843E+03  0.7957747E-01  0.3450357E+00
         13   -1    0    0    0    0  0.00000000000E+00  0.00000000000E+00  0.14999999963E+04  0.15000000000E+04  0.10566000000E+00 0.  1.
        994   -1    0    0    0    0 -0.00000000000E+00 -0.00000000000E+00  0.11368683772E-12  0.17120000000E+03  0.17120000000E+03 0.  0.
         13    1    1    2    0    0 -0.30539473940E+01 -0.11610420289E+02  0.16379033157E+02  0.20307937985E+02  0.10566000000E+00 0.  1.
        994    1    1    2    0    0 -0.28140992141E+01  0.31383136815E+01  0.40995344573E+01  0.17130094673E+03  0.17120000000E+03 0.  0.
        998    1    1    2    0    0  0.58680466081E+01  0.84721066078E+01  0.14795214287E+04  0.14795911153E+04  0.10000000000E+02 0.  1.
</event>
<event>
 5    1  0.1520352E-008  0.3933834E+03  0.7957747E-01  0.3394877E+00
         13   -1    0    0    0    0  0.00000000000E+00  0.00000000000E+00  0.14999999963E+04  0.15000000000E+04  0.10566000000E+00 0. -1.
        994   -1    0    0    0    0 -0.00000000000E+00 -0.00000000000E+00  0.11368683772E-12  0.17120000000E+03  0.17120000000E+03 0.  0.
         13    1    1    2    0    0 -0.82567685681E+02  0.20872075884E+02  0.15331468672E+03  0.17538092997E+03  0.10566000000E+00 0. -1.
        994    1    1    2    0    0  0.48779137841E+02  0.29356351037E+02  0.36344148900E+02  0.18404221471E+03  0.17120000000E+03 0.  0.
        998    1    1    2    0    0  0.33788547840E+02 -0.50228426921E+02  0.13103411607E+04  0.13117768553E+04  0.10000000000E+02 0. -1.
</event>
<event>
 5    1  0.1520352E-008  0.3842436E+03  0.7957747E-01  0.3432887E+00
         13   -1    0    0    0    0  0.00000000000E+00  0.00000000000E+00  0.14999999963E+04  0.15000000000E+04  0.10566000000E+00 0. -1.
        994   -1    0    0    0    0 -0.00000000000E+00 -0.00000000000E+00  0.11368683772E-12  0.17120000000E+03  0.17120000000E+03 0.  0.
         13    1    1    2    0    0  0.10459300066E+02 -0.26870029809E+01  0.29437286522E+02  0.31355732247E+02  0.10566000000E+00 0. -1.
        994    1    1    2    0    0  0.15513866519E+01  0.48649959424E+01  0.20921356054E+01  0.17128891388E+03  0.17120000000E+03 0.  0.
        998    1    1    2    0    0 -0.12010686718E+02 -0.21779929616E+01  0.14684705742E+04  0.14685553539E+04  0.10000000000E+02 0. -1.
</event>
<event>
 5    1  0.1520352E-008  0.3785435E+03  0.7957747E-01  0.3457525E+00
         13   -1    0    0    0    0  0.00000000000E+00  0.00000000000E+00  0.14999999963E+04  0.15000000000E+04  0.10566000000E+00 0.  1.
        994   -1    0    0    0    0 -0.00000000000E+00 -0.00000000000E+00  0.11368683772E-12  0.17120000000E+03  0.17120000000E+03 0.  0.
         13    1    1    2    0    0 -0.32982351885E+02 -0.22598072146E+02  0.15419897637E+03  0.15929797198E+03  0.10566000000E+00 0.  1.
        994    1    1    2    0    0  0.24875952285E+02  0.20710512948E+02  0.83976474395E+01  0.17443537150E+03  0.17120000000E+03 0.  0.
        998    1    1    2    0    0  0.81063995999E+01  0.18875591978E+01  0.13374033725E+04  0.13374666565E+04  0.10000000000E+02 0.  1.
</event>
<event>
 5    1  0.1520352E-008  0.3844427E+03  0.7957747E-01  0.3432039E+00
         13   -1    0    0    0    0  0.00000000000E+00  0.00000000000E+00  0.14999999963E+04  0.15000000000E+04  0.10566000000E+00 0. -1.
        994   -1    0    0    0    0 -0.00000000000E+00 -0.00000000000E+00  0.11368683772E-12  0.17120000000E+03  0.17120000000E+03 0.  0.
         13    1    1    2    0    0 -0.12672328437E+02 -0.12369693024E+02  0.78623420065E+02  0.80593117326E+02  0.10566000000E+00 0. -1.
        994    1    1    2    0    0  0.95290420994E+01  0.15937593108E+02  0.30439090795E+01  0.17223099286E+03  0.17120000000E+03 0.  0.
        998    1    1    2    0    0  0.31432863379E+01 -0.35679000839E+01  0.14183326671E+04  0.14183758898E+04  0.10000000000E+02 0. -1.
</event>
<event>
 5    1  0.1520352E-008  0.3799679E+03  0.7957747E-01  0.3451298E+00
         13   -1    0    0    0    0  0.00000000000E+00  0.00000000000E+00  0.14999999963E+04  0.15000000000E+04  0.10566000000E+00 0. -1.
        994   -1    0    0    0    0 -0.00000000000E+00 -0.00000000000E+00  0.11368683772E-12  0.17120000000E+03  0.17120000000E+03 0.  0.
         13    1    1    2    0    0  0.54105909629E+02  0.20688791068E+02  0.27488677036E+03  0.28092387441E+03  0.10566000000E+00 0. -1.
        994    1    1    2    0    0 -0.58427516180E+02 -0.85104049655E+02  0.40641391062E+02  0.20400401119E+03  0.17120000000E+03 0.  0.
        998    1    1    2    0    0  0.43216065507E+01  0.64415258587E+02  0.11844718349E+04  0.11862721144E+04  0.10000000000E+02 0. -1.
</event>
<event>
 5    1  0.1520352E-008  0.3851483E+03  0.7957747E-01  0.3429044E+00
         13   -1    0    0    0    0  0.00000000000E+00  0.00000000000E+00  0.14999999963E+04  0.15000000000E+04  0.10566000000E+00 0. -1.
        994   -1    0    0    0    0 -0.00000000000E+00 -0.00000000000E+00  0.11368683772E-12  0.17120000000E+03  0.17120000000E+03 0.  0.
         13    1    1    2    0    0  0.84330655218E+01 -0.16371787524E+02  0.10270585432E+03  0.10434392985E+03  0.10566000000E+00 0. -1.
        994    1    1    2    0    0 -0.83703972865E+01  0.17327122322E+02  0.27746652031E+01  0.17230041058E+03  0.17120000000E+03 0.  0.
        998    1    1    2    0    0 -0.62668235275E-01 -0.95533479757E+00  0.13945194768E+04  0.13945556596E+04  0.10000000000E+02 0.  0.
</event>
<event>
 5    1  0.1520352E-008  0.3833220E+03  0.7957747E-01  0.3436820E+00
         13   -1    0    0    0    0  0.00000000000E+00  0.00000000000E+00  0.14999999963E+04  0.15000000000E+04  0.10566000000E+00 0.  1.
        994   -1    0    0    0    0 -0.00000000000E+00 -0.00000000000E+00  0.11368683772E-12  0.17120000000E+03  0.17120000000E+03 0.  0.
         13    1    1    2    0    0 -0.45242028442E+01 -0.16977499238E+02  0.60079481121E+02  0.62595999133E+02  0.10566000000E+00 0.  1.
        994    1    1    2    0    0  0.38594505632E+01  0.17059043756E+02  0.34777133420E+01  0.17212623514E+03  0.17120000000E+03 0.  0.
        998    1    1    2    0    0  0.66475228095E+00 -0.81544518286E-01  0.14364428018E+04  0.14364777657E+04  0.10000000000E+02 0.  1.
</event>
<event>
 5    1  0.1520352E-008  0.4046342E+03  0.7957747E-01  0.3350443E+00
         13   -1    0    0    0    0  0.00000000000E+00  0.00000000000E+00  0.14999999963E+04  0.15000000000E+04  0.10566000000E+00 0.  1.
        994   -1    0    0    0    0 -0.00000000000E+00 -0.00000000000E+00  0.11368683772E-12  0.17120000000E+03  0.17120000000E+03 0.  0.
         13    1    1    2    0    0 -0.12768722903E+01  0.43329353692E+02  0.19471292604E+02  0.47520581793E+02  0.10566000000E+00 0.  1.
        994    1    1    2    0    0  0.26169710343E+01 -0.27106042060E+02  0.33543146894E+02  0.17656774552E+03  0.17120000000E+03 0.  0.
        998    1    1    2    0    0 -0.13400987440E+01 -0.16223311632E+02  0.14469855568E+04  0.14471116727E+04  0.10000000000E+02 0.  1.
</event>
<event>
 5    1  0.1520352E-008  0.3756701E+03  0.7957747E-01  0.3470231E+00
         13   -1    0    0    0    0  0.00000000000E+00  0.00000000000E+00  0.14999999963E+04  0.15000000000E+04  0.10566000000E+00 0. -1.
        994   -1    0    0    0    0 -0.00000000000E+00 -0.00000000000E+00  0.11368683772E-12  0.17120000000E+03  0.17120000000E+03 0.  0.
         13    1    1    2    0    0 -0.74365094691E+00  0.23307737059E+02  0.11774695555E+02  0.26123901757E+02  0.10566000000E+00 0. -1.
        994    1    1    2    0    0 -0.19356785865E+02 -0.65912990493E+02  0.30999946377E+02  0.18705519012E+03  0.17120000000E+03 0.  0.
        998    1    1    2    0    0  0.20100436812E+02  0.42605253434E+02  0.14572253543E+04  0.14580209081E+04  0.10000000000E+02 0. -1.
</event>
<event>
 5    1  0.1520352E-008  0.3700040E+03  0.7957747E-01  0.3495873E+00
         13   -1    0    0    0    0  0.00000000000E+00  0.00000000000E+00  0.14999999963E+04  0.15000000000E+04  0.10566000000E+00 0.  1.
        994   -1    0    0    0    0 -0.00000000000E+00 -0.00000000000E+00  0.11368683772E-12  0.17120000000E+03  0.17120000000E+03 0.  0.
         13    1    1    2    0    0  0.14487666058E+02 -0.49427006827E+02  0.10938413477E+03  0.12090418344E+03  0.10566000000E+00 0.  1.
        994    1    1    2    0    0 -0.23242164221E+02  0.47110196036E+02  0.20651540032E+02  0.18026506837E+03  0.17120000000E+03 0.  0.
        998    1    1    2    0    0  0.87544981628E+01  0.23168107909E+01  0.13699643215E+04  0.13700307482E+04  0.10000000000E+02 0.  1.
</event>
<event>
 5    1  0.1520352E-008  0.3766143E+03  0.7957747E-01  0.3466034E+00
         13   -1    0    0    0    0  0.00000000000E+00  0.00000000000E+00  0.14999999963E+04  0.15000000000E+04  0.10566000000E+00 0.  1.
        994   -1    0    0    0    0 -0.00000000000E+00 -0.00000000000E+00  0.11368683772E-12  0.17120000000E+03  0.17120000000E+03 0.  0.
         13    1    1    2    0    0  0.25465120040E+02 -0.19203153871E+03  0.10314099504E+04  0.10494432244E+04  0.10566000000E+00 0.  1.
        994    1    1    2    0    0 -0.28776369795E+02  0.18079606764E+03  0.12914601135E+03  0.28196352562E+03  0.17120000000E+03 0.  0.
        998    1    1    2    0    0  0.33112497549E+01  0.11235471064E+02  0.33944403450E+03  0.33979324999E+03  0.10000000000E+02 0. -1.
</event>
<event>
 5    1  0.2120034E-008  0.3856542E+03  0.7957747E-01  0.3426902E+00
         13   -1    0    0    0    0  0.00000000000E+00  0.00000000000E+00  0.14999999963E+04  0.15000000000E+04  0.10566000000E+00 0.  1.
        994   -1    0    0    0    0 -0.00000000000E+00 -0.00000000000E+00  0.11368683772E-12  0.17120000000E+03  0.17120000000E+03 0.  0.
         13    1    1    2    0    0 -0.31412909340E+01 -0.11924444610E+02  0.60462835515E+02  0.61707582439E+02  0.10566000000E+00 0.  1.
        994    1    1    2    0    0  0.14377917797E+01  0.34607339778E+01  0.13517678057E+01  0.17124634653E+03  0.17120000000E+03 0.  0.
        998    1    1    2    0    0  0.17034991543E+01  0.84637106317E+01  0.14381853930E+04  0.14382460710E+04  0.10000000000E+02 0.  1.
</event>
<event>
 5    1  0.1520352E-008  0.3823385E+03  0.7957747E-01  0.3441039E+00
         13   -1    0    0    0    0  0.00000000000E+00  0.00000000000E+00  0.14999999963E+04  0.15000000000E+04  0.10566000000E+00 0. -1.
        994   -1    0    0    0    0 -0.00000000000E+00 -0.00000000000E+00  0.11368683772E-12  0.17120000000E+03  0.17120000000E+03 0.  0.
         13    1    1    2    0    0 -0.10259226700E+01  0.31000826783E+02  0.14641630012E+03  0.14966578729E+03  0.10566000000E+00 0. -1.
        994    1    1    2    0    0 -0.17856631787E+02 -0.33424315247E+02  0.77357290114E+01  0.17551445995E+03  0.17120000000E+03 0.  0.
        998    1    1    2    0    0  0.18882554457E+02  0.24234884640E+01  0.13458479671E+04  0.13460197528E+04  0.10000000000E+02 0. -1.
</event>
<event>
 5    1  0.1520352E-008  0.3859006E+03  0.7957747E-01  0.3425862E+00
         13   -1    0    0    0    0  0.00000000000E+00  0.00000000000E+00  0.14999999963E+04  0.15000000000E+04  0.10566000000E+00 0. -1.
        994   -1    0    0    0    0 -0.00000000000E+00 -0.00000000000E+00  0.11368683772E-12  0.17120000000E+03  0.17120000000E+03 0.  0.
         13    1    1    2    0    0 -0.16874606884E+01  0.13157476738E+02  0.74731588978E+02  0.75899856870E+02  0.10566000000E+00 0. -1.
        994    1    1    2    0    0  0.14115524408E+02 -0.78841391552E+01  0.20413020390E+01  0.17197387765E+03  0.17120000000E+03 0.  0.
        998    1    1    2    0    0 -0.12428063720E+02 -0.52733375829E+01  0.14232271053E+04  0.14233262655E+04  0.10000000000E+02 0. -1.
</event>
<event>
 5    1  0.1520352E-008  0.3856033E+03  0.7957747E-01  0.3427118E+00
         13   -1    0    0    0    0  0.00000000000E+00  0.00000000000E+00  0.14999999963E+04  0.15000000000E+04  0.10566000000E+00 0.  1.
        994   -1    0    0    0    0 -0.00000000000E+00 -0.00000000000E+00  0.11368683772E-12  0.17120000000E+03  0.17120000000E+03 0.  0.
         13    1    1    2    0    0  0.14090495376E+01 -0.10589376998E+02  0.44207678754E+02  0.45480219334E+02  0.10566000000E+00 0.  1.
        994    1    1    2    0    0 -0.46300423695E+01  0.22135428695E+01  0.14173659693E+01  0.17128276618E+03  0.17120000000E+03 0.  0.
        998    1    1    2    0    0  0.32209928319E+01  0.83758341289E+01  0.14543749516E+04  0.14544370145E+04  0.10000000000E+02 0.  1.
</event>
<event>
 5    1  0.1520352E-008  0.3698784E+03  0.7957747E-01  0.3496450E+00
         13   -1    0    0    0    0  0.00000000000E+00  0.00000000000E+00  0.14999999963E+04  0.15000000000E+04  0.10566000000E+00 0. -1.
        994   -1    0    0    0    0 -0.00000000000E+00 -0.00000000000E+00  0.11368683772E-12  0.17120000000E+03  0.17120000000E+03 0.  0.
         13    1    1    2    0    0  0.70378754625E+02 -0.55524869040E+02  0.32357088363E+03  0.33575930081E+03  0.10566000000E+00 0. -1.
        994    1    1    2    0    0 -0.60506352856E+02  0.38667318901E+02  0.29116936886E+02  0.18791864277E+03  0.17120000000E+03 0.  0.
        998    1    1    2    0    0 -0.98724017686E+01  0.16857550139E+02  0.11473121758E+04  0.11475220564E+04  0.10000000000E+02 0. -1.
</event>
<event>
 5    1  0.1520352E-008  0.3746525E+03  0.7957747E-01  0.3474778E+00
         13   -1    0    0    0    0  0.00000000000E+00  0.00000000000E+00  0.14999999963E+04  0.15000000000E+04  0.10566000000E+00 0.  1.
        994   -1    0    0    0    0 -0.00000000000E+00 -0.00000000000E+00  0.11368683772E-12  0.17120000000E+03  0.17120000000E+03 0.  0.
         13    1    1    2    0    0  0.28305870628E+02  0.52186975311E+02  0.20267059824E+03  0.21118732267E+03  0.10566000000E+00 0.  1.
        994    1    1    2    0    0 -0.57870707654E+02 -0.53087581594E+02  0.28144596520E+02  0.19044387214E+03  0.17120000000E+03 0.  0.
        998    1    1    2    0    0  0.29564837026E+02  0.90060628279E+00  0.12691848015E+04  0.12695688052E+04  0.10000000000E+02 0.  1.
</event>
<event>
 5    1  0.1520352E-008  0.3720096E+03  0.7957747E-01  0.3486706E+00
         13   -1    0    0    0    0  0.00000000000E+00  0.00000000000E+00  0.14999999963E+04  0.15000000000E+04  0.10566000000E+00 0. -1.
        994   -1    0    0    0    0 -0.00000000000E+00 -0.00000000000E+00  0.11368683772E-12  0.17120000000E+03  0.17120000000E+03 0.  0.
         13    1    1    2    0    0 -0.10057206678E+02 -0.58802867419E+02  0.18390944413E+03  0.19334326838E+03  0.10566000000E+00 0. -1.
        994    1    1    2    0    0  0.10642500667E+02  0.63111149461E+02  0.22422331922E+02  0.18414255612E+03  0.17120000000E+03 0.  0.
        998    1    1    2    0    0 -0.58529398861E+00 -0.43082820419E+01  0.12936682202E+04  0.12937141755E+04  0.10000000000E+02 0. -1.
</event>
<event>
 5    1  0.1520352E-008  0.3861743E+03  0.7957747E-01  0.3424707E+00
         13   -1    0    0    0    0  0.00000000000E+00  0.00000000000E+00  0.14999999963E+04  0.15000000000E+04  0.10566000000E+00 0.  1.
        994   -1    0    0    0    0 -0.00000000000E+00 -0.00000000000E+00  0.11368683772E-12  0.17120000000E+03  0.17120000000E+03 0.  0.
         13    1    1    2    0    0 -0.73228652522E+01  0.89263138110E+01  0.61871346312E+02  0.62939479599E+02  0.10566000000E+00 0.  1.
        994    1    1    2    0    0  0.75329077260E+01 -0.10956694688E+02  0.16276610409E+01  0.17172327489E+03  0.17120000000E+03 0.  0.
        998    1    1    2    0    0 -0.21004247377E+00  0.20303808771E+01  0.14365009889E+04  0.14365372455E+04  0.10000000000E+02 0.  1.
</event>
<event>
 5    1  0.1520352E-008  0.3138493E+03  0.7957747E-01  0.3801854E+00
         13   -1    0    0    0    0  0.00000000000E+00  0.00000000000E+00  0.14999999963E+04  0.15000000000E+04  0.10566000000E+00 0. -1.
        994   -1    0    0    0    0 -0.00000000000E+00 -0.00000000000E+00  0.11368683772E-12  0.17120000000E+03  0.17120000000E+03 0.  0.
         13    1    1    2    0    0 -0.15845386996E+03  0.10051326172E+03  0.79074084286E+03  0.81270021313E+03  0.10566000000E+00 0. -1.
        994    1    1    2    0    0  0.15137888558E+03 -0.54765802609E+02  0.11369780616E+03  0.26105840584E+03  0.17120000000E+03 0.  0.
        998    1    1    2    0    0  0.70749843764E+01 -0.45747459111E+02  0.59556134726E+03  0.59744138103E+03  0.10000000000E+02 0. -1.
</event>
<event>
 5    1  0.1520352E-008  0.3788448E+03  0.7957747E-01  0.3456204E+00
         13   -1    0    0    0    0  0.00000000000E+00  0.00000000000E+00  0.14999999963E+04  0.15000000000E+04  0.10566000000E+00 0. -1.
        994   -1    0    0    0    0 -0.00000000000E+00 -0.00000000000E+00  0.11368683772E-12  0.17120000000E+03  0.17120000000E+03 0.  0.
         13    1    1    2    0    0  0.53636261245E+01  0.14462648432E+02  0.22891808336E+02  0.27604034810E+02  0.10566000000E+00 0. -1.
        994    1    1    2    0    0 -0.56637797147E+01 -0.15548974426E+02  0.56369115425E+01  0.17209027799E+03  0.17120000000E+03 0.  0.
        998    1    1    2    0    0  0.30015359017E+00  0.10863259941E+01  0.14714712764E+04  0.14715056872E+04  0.10000000000E+02 0. -1.
</event>
<event>
 5    1  0.1520352E-008  0.3783791E+03  0.7957747E-01  0.3458247E+00
         13   -1    0    0    0    0  0.00000000000E+00  0.00000000000E+00  0.14999999963E+04  0.15000000000E+04  0.10566000000E+00 0. -1.
        994   -1    0    0    0    0 -0.00000000000E+00 -0.00000000000E+00  0.11368683772E-12  0.17120000000E+03  0.17120000000E+03 0.  0.
         13    1    1    2    0    0 -0.13256629090E+02 -0.87333217252E+01  0.23260081192E+02  0.28161172992E+02  0.10566000000E+00 0. -1.
        994    1    1    2    0    0  0.10975864015E+02  0.65861744106E+01  0.55044885874E+01  0.17176608128E+03  0.17120000000E+03 0.  0.
        998    1    1    2    0    0  0.22807650750E+01  0.21471473146E+01  0.14712354265E+04  0.14712727457E+04  0.10000000000E+02 0. -1.
</event>
<event>
 5    1  0.1520352E-008  0.3858121E+03  0.7957747E-01  0.3426235E+00
         13   -1    0    0    0    0  0.00000000000E+00  0.00000000000E+00  0.14999999963E+04  0.15000000000E+04  0.10566000000E+00 0. -1.
        994   -1    0    0    0    0 -0.00000000000E+00 -0.00000000000E+00  0.11368683772E-12  0.17120000000E+03  0.17120000000E+03 0.  0.
         13    1    1    2    0    0 -0.10072350388E+02  0.14952343030E+01  0.41212151710E+02  0.42451626360E+02  0.10566000000E+00 0. -1.
        994    1    1    2    0    0  0.12548255320E+02 -0.66028882717E+00  0.17455254867E+01  0.17166939608E+03  0.17120000000E+03 0.  0.
        998    1    1    2    0    0 -0.24759049328E+01 -0.83494547586E+00  0.14570423191E+04  0.14570789776E+04  0.10000000000E+02 0. -1.
</event>
<event>
 5    1  0.1520352E-008  0.3840064E+03  0.7957747E-01  0.3433897E+00
         13   -1    0    0    0    0  0.00000000000E+00  0.00000000000E+00  0.14999999963E+04  0.15000000000E+04  0.10566000000E+00 0.  1.
        994   -1    0    0    0    0 -0.00000000000E+00 -0.00000000000E+00  0.11368683772E-12  0.17120000000E+03  0.17120000000E+03 0.  0.
         13    1    1    2    0    0  0.17569249183E+02 -0.37154681973E+01  0.80047060702E+02  0.82036737575E+02  0.10566000000E+00 0.  1.
        994    1    1    2    0    0 -0.30034244553E+01 -0.35491750972E+01  0.21955655055E+01  0.17127719553E+03  0.17120000000E+03 0.  0.
        998    1    1    2    0    0 -0.14565824728E+02  0.72646432945E+01  0.14177573701E+04  0.14178860669E+04  0.10000000000E+02 0.  1.
</event>
<event>
 5    1  0.1520352E-008  0.3826427E+03  0.7957747E-01  0.3439732E+00
         13   -1    0    0    0    0  0.00000000000E+00  0.00000000000E+00  0.14999999963E+04  0.15000000000E+04  0.10566000000E+00 0. -1.
        994   -1    0    0    0    0 -0.00000000000E+00 -0.00000000000E+00  0.11368683772E-12  0.17120000000E+03  0.17120000000E+03 0.  0.
         13    1    1    2    0    0  0.24398244854E+02  0.20685773679E+02  0.16747065858E+03  0.17049811798E+03  0.10566000000E+00 0. -1.
        994    1    1    2    0    0 -0.10758533168E+02 -0.33031858921E+02  0.68148149495E+01  0.17482199931E+03  0.17120000000E+03 0.  0.
        998    1    1    2    0    0 -0.13639711686E+02  0.12346085242E+02  0.13257145228E+04  0.13258798827E+04  0.10000000000E+02 0. -1.
</event>
<event>
 5    1  0.1520352E-008  0.4017953E+03  0.7957747E-01  0.3361422E+00
         13   -1    0    0    0    0  0.00000000000E+00  0.00000000000E+00  0.14999999963E+04  0.15000000000E+04  0.10566000000E+00 0.  1.
        994   -1    0    0    0    0 -0.00000000000E+00 -0.00000000000E+00  0.11368683772E-12  0.17120000000E+03  0.17120000000E+03 0.  0.
         13    1    1    2    0    0 -0.41802026983E+01  0.29129841567E+02  0.77439566839E+00  0.29438624577E+02  0.10566000000E+00 0.  1.
        994    1    1    2    0    0 -0.21232374652E+02 -0.96619550808E+02  0.68605657925E+02  0.20929005622E+03  0.17120000000E+03 0.  0.
        998    1    1    2    0    0  0.25412577350E+02  0.67489709242E+02  0.14306199427E+04  0.14324713192E+04  0.10000000000E+02 0.  1.
</event>
<event>
 5    1  0.1520352E-008  0.3851177E+03  0.7957747E-01  0.3429173E+00
         13   -1    0    0    0    0  0.00000000000E+00  0.00000000000E+00  0.14999999963E+04  0.15000000000E+04  0.10566000000E+00 0.  1.
        994   -1    0    0    0    0 -0.00000000000E+00 -0.00000000000E+00  0.11368683772E-12  0.17120000000E+03  0.17120000000E+03 0.  0.
         13    1    1    2    0    0 -0.11364120721E+02  0.17822897092E+01  0.41629636235E+02  0.43189785523E+02  0.10566000000E+00 0.  1.
        994    1    1    2    0    0  0.91759171307E+01 -0.36335483734E+01  0.18919583424E+01  0.17149466358E+03  0.17120000000E+03 0.  0.
        998    1    1    2    0    0  0.21882035903E+01  0.18512586642E+01  0.14564784017E+04  0.14565155509E+04  0.10000000000E+02 0.  1.
</event>
<event>
 5    1  0.1520352E-008  0.3826539E+03  0.7957747E-01  0.3439684E+00
         13   -1    0    0    0    0  0.00000000000E+00  0.00000000000E+00  0.14999999963E+04  0.15000000000E+04  0.10566000000E+00 0.  1.
        994   -1    0    0    0    0 -0.00000000000E+00 -0.00000000000E+00  0.11368683772E-12  0.17120000000E+03  0.17120000000E+03 0.  0.
         13    1    1    2    0    0 -0.21802031554E+02 -0.63300230873E+00  0.84966937005E+02  0.87721837759E+02  0.10566000000E+00 0.  1.
        994    1    1    2    0    0  0.12231614175E+02 -0.79255880090E+01  0.35037146459E+01  0.17185500676E+03  0.17120000000E+03 0.  0.
        998    1    1    2    0    0  0.95704173792E+01  0.85585903178E+01  0.14115293446E+04  0.14116231555E+04  0.10000000000E+02 0.  1.
</event>
<event>
 5    1  0.1520352E-008  0.3847945E+03  0.7957747E-01  0.3430544E+00
         13   -1    0    0    0    0  0.00000000000E+00  0.00000000000E+00  0.14999999963E+04  0.15000000000E+04  0.10566000000E+00 0.  1.
        994   -1    0    0    0    0 -0.00000000000E+00 -0.00000000000E+00  0.11368683772E-12  0.17120000000E+03  0.17120000000E+03 0.  0.
         13    1    1    2    0    0 -0.20204564347E+02  0.13430518840E+01  0.10657356209E+03  0.10848024479E+03  0.10566000000E+00 0.  1.
        994    1    1    2    0    0  0.25994183908E+02 -0.39641491188E+02  0.91624558605E+01  0.17787786826E+03  0.17120000000E+03 0.  0.
        998    1    1    2    0    0 -0.57896195608E+01  0.38298439304E+02  0.13842639783E+04  0.13848418869E+04  0.10000000000E+02 0.  1.
</event>
<event>
 5    1  0.1520352E-008  0.3817262E+03  0.7957747E-01  0.3443676E+00
         13   -1    0    0    0    0  0.00000000000E+00  0.00000000000E+00  0.14999999963E+04  0.15000000000E+04  0.10566000000E+00 0.  1.
        994   -1    0    0    0    0 -0.00000000000E+00 -0.00000000000E+00  0.11368683772E-12  0.17120000000E+03  0.17120000000E+03 0.  0.
         13    1    1    2    0    0  0.16770862479E+01  0.14440890302E+02  0.30628455705E+02  0.33903766662E+02  0.10566000000E+00 0.  1.
        994    1    1    2    0    0  0.28719959973E+01 -0.15403102446E+02  0.40807462327E+01  0.17196393929E+03  0.17120000000E+03 0.  0.
        998    1    1    2    0    0 -0.45490822452E+01  0.96221214462E+00  0.14652907943E+04  0.14653322940E+04  0.10000000000E+02 0.  1.
</event>
<event>
 5    1  0.1520352E-008  0.3849580E+03  0.7957747E-01  0.3429850E+00
         13   -1    0    0    0    0  0.00000000000E+00  0.00000000000E+00  0.14999999963E+04  0.15000000000E+04  0.10566000000E+00 0. -1.
        994   -1    0    0    0    0 -0.00000000000E+00 -0.00000000000E+00  0.11368683772E-12  0.17120000000E+03  0.17120000000E+03 0.  0.
         13    1    1    2    0    0  0.68988302575E+01  0.82638664587E+01  0.34746891614E+02  0.36376407033E+02  0.10566000000E+00 0. -1.
        994    1    1    2    0    0 -0.77974857311E+01 -0.42260025881E+01  0.19097403805E+01  0.17144021404E+03  0.17120000000E+03 0.  0.
        998    1    1    2    0    0  0.89865547363E+00 -0.40378638706E+01  0.14633433643E+04  0.14633833789E+04  0.10000000000E+02 0. -1.
</event>
<event>
 5    1  0.1520352E-008  0.3861082E+03  0.7957747E-01  0.3424986E+00
         13   -1    0    0    0    0  0.00000000000E+00  0.00000000000E+00  0.14999999963E+04  0.15000000000E+04  0.10566000000E+00 0. -1.
        994   -1    0    0    0    0 -0.00000000000E+00 -0.00000000000E+00  0.11368683772E-12  0.17120000000E+03  0.17120000000E+03 0.  0.
         13    1    1    2    0    0  0.31018775853E+01  0.12970744370E+02  0.76084542133E+02  0.77244615150E+02  0.10566000000E+00 0. -1.
        994    1    1    2    0    0  0.10424864253E+02 -0.23378688988E+02  0.32310218789E+01  0.17313324463E+03  0.17120000000E+03 0.  0.
        998    1    1    2    0    0 -0.13526741838E+02  0.10407944617E+02  0.14206844323E+04  0.14208221402E+04  0.10000000000E+02 0. -1.
</event>
<event>
 5    1  0.1520352E-008  0.3777823E+03  0.7957747E-01  0.3460872E+00
         13   -1    0    0    0    0  0.00000000000E+00  0.00000000000E+00  0.14999999963E+04  0.15000000000E+04  0.10566000000E+00 0. -1.
        994   -1    0    0    0    0 -0.00000000000E+00 -0.00000000000E+00  0.11368683772E-12  0.17120000000E+03  0.17120000000E+03 0.  0.
         13    1    1    2    0    0  0.37004256160E+00 -0.12732669975E+02  0.13022150243E+02  0.18216623649E+02  0.10566000000E+00 0. -1.
        994    1    1    2    0    0 -0.33555768720E+01  0.12190930361E+02  0.57954330488E+01  0.17176409905E+03  0.17120000000E+03 0.  0.
        998    1    1    2    0    0  0.29855343104E+01  0.54173961419E+00  0.14811824130E+04  0.14812192773E+04  0.10000000000E+02 0. -1.
</event>
<event>
 5    1  0.1520352E-008  0.3853970E+03  0.7957747E-01  0.3427990E+00
         13   -1    0    0    0    0  0.00000000000E+00  0.00000000000E+00  0.14999999963E+04  0.15000000000E+04  0.10566000000E+00 0. -1.
        994   -1    0    0    0    0 -0.00000000000E+00 -0.00000000000E+00  0.11368683772E-12  0.17120000000E+03  0.17120000000E+03 0.  0.
         13    1    1    2    0    0  0.69213673598E+01 -0.14276436634E+02  0.88705773471E+02  0.90113524957E+02  0.10566000000E+00 0. -1.
        994    1    1    2    0    0 -0.52638138771E+01  0.80127660430E+01  0.17351141442E+01  0.17147700364E+03  0.17120000000E+03 0.  0.
        998    1    1    2    0    0 -0.16575534827E+01  0.62636705908E+01  0.14095591087E+04  0.14096094714E+04  0.10000000000E+02 0. -1.
</event>
<event>
 5    1  0.1520352E-008  0.3841789E+03  0.7957747E-01  0.3433162E+00
         13   -1    0    0    0    0  0.00000000000E+00  0.00000000000E+00  0.14999999963E+04  0.15000000000E+04  0.10566000000E+00 0. -1.
        994   -1    0    0    0    0 -0.00000000000E+00 -0.00000000000E+00  0.11368683772E-12  0.17120000000E+03  0.17120000000E+03 0.  0.
         13    1    1    2    0    0 -0.85200200782E-01 -0.13625050028E+02  0.44322337787E+02  0.46369494695E+02  0.10566000000E+00 0. -1.
        994    1    1    2    0    0  0.43704924969E+01  0.12810788723E+02  0.26427070720E+01  0.17175459648E+03  0.17120000000E+03 0.  0.
        998    1    1    2    0    0 -0.42852922961E+01  0.81426130499E+00  0.14530349514E+04  0.14530759088E+04  0.10000000000E+02 0.  0.
</event>
<event>
 5    1  0.1520352E-008  0.3789407E+03  0.7957747E-01  0.3455784E+00
         13   -1    0    0    0    0  0.00000000000E+00  0.00000000000E+00  0.14999999963E+04  0.15000000000E+04  0.10566000000E+00 0.  1.
        994   -1    0    0    0    0 -0.00000000000E+00 -0.00000000000E+00  0.11368683772E-12  0.17120000000E+03  0.17120000000E+03 0.  0.
         13    1    1    2    0    0  0.14740407976E+02  0.10858833834E+02  0.37311738474E+02  0.41561651693E+02  0.10566000000E+00 0.  1.
        994    1    1    2    0    0  0.35795751754E+02 -0.20926961507E+02  0.10458103500E+02  0.17645986935E+03  0.17120000000E+03 0.  0.
        998    1    1    2    0    0 -0.50536159729E+02  0.10068127673E+02  0.14522301543E+04  0.14531784790E+04  0.10000000000E+02 0.  1.
</event>
<event>
 5    1  0.1520352E-008  0.3791410E+03  0.7957747E-01  0.3454907E+00
         13   -1    0    0    0    0  0.00000000000E+00  0.00000000000E+00  0.14999999963E+04  0.15000000000E+04  0.10566000000E+00 0.  1.
        994   -1    0    0    0    0 -0.00000000000E+00 -0.00000000000E+00  0.11368683772E-12  0.17120000000E+03  0.17120000000E+03 0.  0.
         13    1    1    2    0    0  0.48108119129E+01 -0.16549428580E+02  0.29309931660E+02  0.34001628719E+02  0.10566000000E+00 0.  1.
        994    1    1    2    0    0 -0.83726240426E+01  0.25787048866E+02  0.70355962821E+01  0.17347625871E+03  0.17120000000E+03 0.  0.
        998    1    1    2    0    0  0.35618121297E+01 -0.92376202854E+01  0.14636544683E+04  0.14637221126E+04  0.10000000000E+02 0.  1.
</event>
<event>
 5    1  0.1520352E-008  0.3797181E+03  0.7957747E-01  0.3452387E+00
         13   -1    0    0    0    0  0.00000000000E+00  0.00000000000E+00  0.14999999963E+04  0.15000000000E+04  0.10566000000E+00 0. -1.
        994   -1    0    0    0    0 -0.00000000000E+00 -0.00000000000E+00  0.11368683772E-12  0.17120000000E+03  0.17120000000E+03 0.  0.
         13    1    1    2    0    0 -0.20417835469E+02  0.70993639161E+01  0.53852794206E+02  0.58029506125E+02  0.10566000000E+00 0. -1.
        994    1    1    2    0    0  0.12657286472E+02  0.55173605750E+01  0.49136838255E+01  0.17182616930E+03  0.17120000000E+03 0.  0.
        998    1    1    2    0    0  0.77605489979E+01 -0.12616724491E+02  0.14412335182E+04  0.14413443246E+04  0.10000000000E+02 0. -1.
</event>
<event>
 5    1  0.1520352E-008  0.3812572E+03  0.7957747E-01  0.3445703E+00
         13   -1    0    0    0    0  0.00000000000E+00  0.00000000000E+00  0.14999999963E+04  0.15000000000E+04  0.10566000000E+00 0. -1.
        994   -1    0    0    0    0 -0.00000000000E+00 -0.00000000000E+00  0.11368683772E-12  0.17120000000E+03  0.17120000000E+03 0.  0.
         13    1    1    2    0    0  0.11880341710E+02  0.98673493267E+01  0.32437233831E+02  0.35926207767E+02  0.10566000000E+00 0. -1.
        994    1    1    2    0    0 -0.12777458208E+02 -0.54712599008E+01  0.41432995047E+01  0.17181328544E+03  0.17120000000E+03 0.  0.
        998    1    1    2    0    0  0.89711649845E+00 -0.43960894259E+01  0.14634194629E+04  0.14634605068E+04  0.10000000000E+02 0. -1.
</event>
<event>
 5    1  0.1520352E-008  0.3830953E+03  0.7957747E-01  0.3437791E+00
         13   -1    0    0    0    0  0.00000000000E+00  0.00000000000E+00  0.14999999963E+04  0.15000000000E+04  0.10566000000E+00 0. -1.
        994   -1    0    0    0    0 -0.00000000000E+00 -0.00000000000E+00  0.11368683772E-12  0.17120000000E+03  0.17120000000E+03 0.  0.
         13    1    1    2    0    0 -0.86123200813E+01  0.51987838696E+01  0.18523102853E+02  0.21078802486E+02  0.10566000000E+00 0. -1.
        994    1    1    2    0    0  0.10061155950E+02 -0.16265180330E+01  0.29225340893E+01  0.17152799662E+03  0.17120000000E+03 0.  0.
        998    1    1    2    0    0 -0.14488358691E+01 -0.35722658366E+01  0.14785543593E+04  0.14785932009E+04  0.10000000000E+02 0. -1.
</event>
<event>
 5    1  0.1520352E-008  0.3778033E+03  0.7957747E-01  0.3460780E+00
         13   -1    0    0    0    0  0.00000000000E+00  0.00000000000E+00  0.14999999963E+04  0.15000000000E+04  0.10566000000E+00 0.  1.
        994   -1    0    0    0    0 -0.00000000000E+00 -0.00000000000E+00  0.11368683772E-12  0.17120000000E+03  0.17120000000E+03 0.  0.
         13    1    1    2    0    0 -0.65995175848E+02  0.24110912071E+02  0.34848168736E+03  0.35549429940E+03  0.10566000000E+00 0.  1.
        994    1    1    2    0    0  0.70532871472E+02 -0.21770481784E+02  0.23819716958E+02  0.18795121375E+03  0.17120000000E+03 0.  0.
        998    1    1    2    0    0 -0.45376956242E+01 -0.23404302870E+01  0.11276985920E+04  0.11277544868E+04  0.10000000000E+02 0.  0.
</event>
<event>
 5    1  0.1520352E-008  0.3843875E+03  0.7957747E-01  0.3432274E+00
         13   -1    0    0    0    0  0.00000000000E+00  0.00000000000E+00  0.14999999963E+04  0.15000000000E+04  0.10566000000E+00 0. -1.
        994   -1    0    0    0    0 -0.00000000000E+00 -0.00000000000E+00  0.11368683772E-12  0.17120000000E+03  0.17120000000E+03 0.  0.
         13    1    1    2    0    0  0.35712924836E+01 -0.96865344589E+01  0.26853227443E+02  0.28769603194E+02  0.10566000000E+00 0. -1.
        994    1    1    2    0    0 -0.53318301568E+01  0.76261716880E+01  0.22199270971E+01  0.17146706676E+03  0.17120000000E+03 0.  0.
        998    1    1    2    0    0  0.17605376732E+01  0.20603627709E+01  0.14709268417E+04  0.14709633300E+04  0.10000000000E+02 0. -1.
</event>
<event>
 5    1  0.1520352E-008  0.3729438E+03  0.7957747E-01  0.3482470E+00
         13   -1    0    0    0    0  0.00000000000E+00  0.00000000000E+00  0.14999999963E+04  0.15000000000E+04  0.10566000000E+00 0. -1.
        994   -1    0    0    0    0 -0.00000000000E+00 -0.00000000000E+00  0.11368683772E-12  0.17120000000E+03  0.17120000000E+03 0.  0.
         13    1    1    2    0    0 -0.25902068577E+02 -0.38619742995E+02  0.72069374294E+02  0.85769502627E+02  0.10566000000E+00 0. -1.
        994    1    1    2    0    0  0.72997869313E+02  0.37761309587E+02  0.36764592527E+02  0.19343133327E+03  0.17120000000E+03 0.  0.
        998    1    1    2    0    0 -0.47095800736E+02  0.85843340855E+00  0.13911660295E+04  0.13919991641E+04  0.10000000000E+02 0. -1.
</event>
<event>
 5    1  0.1520352E-008  0.3753811E+03  0.7957747E-01  0.3471520E+00
         13   -1    0    0    0    0  0.00000000000E+00  0.00000000000E+00  0.14999999963E+04  0.15000000000E+04  0.10566000000E+00 0. -1.
        994   -1    0    0    0    0 -0.00000000000E+00 -0.00000000000E+00  0.11368683772E-12  0.17120000000E+03  0.17120000000E+03 0.  0.
         13    1    1    2    0    0  0.22033192860E+02  0.16042282272E+02  0.53216322305E+02  0.59789669106E+02  0.10566000000E+00 0. -1.
        994    1    1    2    0    0 -0.25705654529E+02 -0.10004249891E+02  0.90704691814E+01  0.17364498007E+03  0.17120000000E+03 0.  0.
        998    1    1    2    0    0  0.36724616693E+01 -0.60380323814E+01  0.14377132048E+04  0.14377653508E+04  0.10000000000E+02 0. -1.
</event>
<event>
 5    1  0.1520352E-008  0.3800607E+03  0.7957747E-01  0.3450894E+00
         13   -1    0    0    0    0  0.00000000000E+00  0.00000000000E+00  0.14999999963E+04  0.15000000000E+04  0.10566000000E+00 0. -1.
        994   -1    0    0    0    0 -0.00000000000E+00 -0.00000000000E+00  0.11368683772E-12  0.17120000000E+03  0.17120000000E+03 0.  0.
         13    1    1    2    0    0  0.56885331726E+02  0.13619212074E+03  0.86194914117E+03  0.87449446416E+03  0.10566000000E+00 0. -1.
        994    1    1    2    0    0 -0.71147873663E+02 -0.13833104675E+03  0.89739056447E+02  0.24811295144E+03  0.17120000000E+03 0.  0.
        998    1    1    2    0    0  0.14262541937E+02  0.21389260049E+01  0.54831179866E+03  0.54859258440E+03  0.10000000000E+02 0. -1.
</event>
<event>
 5    1  0.1520352E-008  0.3687889E+03  0.7957747E-01  0.3501475E+00
         13   -1    0    0    0    0  0.00000000000E+00  0.00000000000E+00  0.14999999963E+04  0.15000000000E+04  0.10566000000E+00 0.  1.
        994   -1    0    0    0    0 -0.00000000000E+00 -0.00000000000E+00  0.11368683772E-12  0.17120000000E+03  0.17120000000E+03 0.  0.
         13    1    1    2    0    0  0.44846324692E+01 -0.18422414321E+02  0.15506650702E+02  0.24494175998E+02  0.10566000000E+00 0.  1.
        994    1    1    2    0    0 -0.40943656134E+02 -0.53521381350E+02  0.25840330666E+02  0.18579043013E+03  0.17120000000E+03 0.  0.
        998    1    1    2    0    0  0.36459023665E+02  0.71943795671E+02  0.14586530149E+04  0.14609153939E+04  0.10000000000E+02 0.  1.
</event>
<event>
 5    1  0.1520352E-008  0.3844349E+03  0.7957747E-01  0.3432073E+00
         13   -1    0    0    0    0  0.00000000000E+00  0.00000000000E+00  0.14999999963E+04  0.15000000000E+04  0.10566000000E+00 0. -1.
        994   -1    0    0    0    0 -0.00000000000E+00 -0.00000000000E+00  0.11368683772E-12  0.17120000000E+03  0.17120000000E+03 0.  0.
         13    1    1    2    0    0 -0.10102555344E+02 -0.56575533659E+01  0.31825022359E+02  0.33866100259E+02  0.10566000000E+00 0. -1.
        994    1    1    2    0    0  0.17483931412E+02  0.26797002966E+02  0.52912685447E+01  0.17424466921E+03  0.17120000000E+03 0.  0.
        998    1    1    2    0    0 -0.73813760674E+01 -0.21139449600E+02  0.14628837054E+04  0.14630892305E+04  0.10000000000E+02 0. -1.
</event>
<event>
 5    1  0.1520352E-008  0.3837705E+03  0.7957747E-01  0.3434903E+00
         13   -1    0    0    0    0  0.00000000000E+00  0.00000000000E+00  0.14999999963E+04  0.15000000000E+04  0.10566000000E+00 0. -1.
        994   -1    0    0    0    0 -0.00000000000E+00 -0.00000000000E+00  0.11368683772E-12  0.17120000000E+03  0.17120000000E+03 0.  0.
         13    1    1    2    0    0  0.17996881338E+02  0.88433804632E+00  0.73916782168E+02  0.76081348843E+02  0.10566000000E+00 0. -1.
        994    1    1    2    0    0 -0.69077207130E+01  0.16498900439E+00  0.23994367593E+01  0.17135618204E+03  0.17120000000E+03 0.  0.
        998    1    1    2    0    0 -0.11089160625E+02 -0.10493270507E+01  0.14236837774E+04  0.14237624691E+04  0.10000000000E+02 0. -1.
</event>
<event>
 5    1  0.1520352E-008  0.3726431E+03  0.7957747E-01  0.3483831E+00
         13   -1    0    0    0    0  0.00000000000E+00  0.00000000000E+00  0.14999999963E+04  0.15000000000E+04  0.10566000000E+00 0. -1.
        994   -1    0    0    0    0 -0.00000000000E+00 -0.00000000000E+00  0.11368683772E-12  0.17120000000E+03  0.17120000000E+03 0.  0.
         13    1    1    2    0    0 -0.23175699503E+02 -0.33182086902E+00  0.15995108838E+02  0.28161637440E+02  0.10566000000E+00 0. -1.
        994    1    1    2    0    0  0.29466456587E+02  0.24329874333E+01  0.15434136007E+02  0.17441858859E+03  0.17120000000E+03 0.  0.
        998    1    1    2    0    0 -0.62907570833E+01 -0.21011665643E+01  0.14685707514E+04  0.14686197740E+04  0.10000000000E+02 0. -1.
</event>
<event>
 5    1  0.1520352E-008  0.3801439E+03  0.7957747E-01  0.3450532E+00
         13   -1    0    0    0    0  0.00000000000E+00  0.00000000000E+00  0.14999999963E+04  0.15000000000E+04  0.10566000000E+00 0.  1.
        994   -1    0    0    0    0 -0.00000000000E+00 -0.00000000000E+00  0.11368683772E-12  0.17120000000E+03  0.17120000000E+03 0.  0.
         13    1    1    2    0    0 -0.13545876192E+02 -0.52333452139E+01  0.23612410335E+02  0.27720673689E+02  0.10566000000E+00 0.  1.
        994    1    1    2    0    0  0.20482223624E+02  0.33163659087E+01  0.55003247652E+01  0.17254046870E+03  0.17120000000E+03 0.  0.
        998    1    1    2    0    0 -0.69363474326E+01  0.19169793052E+01  0.14708872612E+04  0.14709388576E+04  0.10000000000E+02 0.  1.
</event>
<event>
 5    1  0.1520352E-008  0.3816053E+03  0.7957747E-01  0.3444198E+00
         13   -1    0    0    0    0  0.00000000000E+00  0.00000000000E+00  0.14999999963E+04  0.15000000000E+04  0.10566000000E+00 0. -1.
        994   -1    0    0    0    0 -0.00000000000E+00 -0.00000000000E+00  0.11368683772E-12  0.17120000000E+03  0.17120000000E+03 0.  0.
         13    1    1    2    0    0  0.65394225987E+01  0.12980076534E+02  0.30645296080E+02  0.33917425766E+02  0.10566000000E+00 0. -1.
        994    1    1    2    0    0 -0.40284461275E+01 -0.76385583181E+01  0.35730191709E+01  0.17145489908E+03  0.17120000000E+03 0.  0.
        998    1    1    2    0    0 -0.25109764712E+01 -0.53415182158E+01  0.14657816810E+04  0.14658276752E+04  0.10000000000E+02 0. -1.
</event>
<event>
 5    1  0.1520352E-008  0.3853145E+03  0.7957747E-01  0.3428340E+00
         13   -1    0    0    0    0  0.00000000000E+00  0.00000000000E+00  0.14999999963E+04  0.15000000000E+04  0.10566000000E+00 0.  1.
        994   -1    0    0    0    0 -0.00000000000E+00 -0.00000000000E+00  0.11368683772E-12  0.17120000000E+03  0.17120000000E+03 0.  0.
         13    1    1    2    0    0 -0.93948720800E+01 -0.53593526064E+01  0.39973211100E+02  0.41410808389E+02  0.10566000000E+00 0.  1.
        994    1    1    2    0    0  0.26753065693E+01  0.74558519070E+01  0.16802607259E+01  0.17139139497E+03  0.17120000000E+03 0.  0.
        998    1    1    2    0    0  0.67195655106E+01 -0.20964993006E+01  0.14583465245E+04  0.14583977966E+04  0.10000000000E+02 0.  1.
</event>
<event>
 5    1  0.1520352E-008  0.3341492E+03  0.7957747E-01  0.3678839E+00
         13   -1    0    0    0    0  0.00000000000E+00  0.00000000000E+00  0.14999999963E+04  0.15000000000E+04  0.10566000000E+00 0. -1.
        994   -1    0    0    0    0 -0.00000000000E+00 -0.00000000000E+00  0.11368683772E-12  0.17120000000E+03  0.17120000000E+03 0.  0.
         13    1    1    2    0    0 -0.10125627212E+03  0.17653747464E+03  0.10856898216E+04  0.11045997974E+04  0.10566000000E+00 0. -1.
        994    1    1    2    0    0  0.20792591390E+02 -0.12399441307E+03  0.94437421600E+02  0.23245389420E+03  0.17120000000E+03 0.  0.
        998    1    1    2    0    0  0.80463680733E+02 -0.52543061578E+02  0.31987275310E+03  0.33414630839E+03  0.10000000000E+02 0. -1.
</event>
<event>
 5    1  0.1520352E-008  0.3753299E+03  0.7957747E-01  0.3471749E+00
         13   -1    0    0    0    0  0.00000000000E+00  0.00000000000E+00  0.14999999963E+04  0.15000000000E+04  0.10566000000E+00 0.  1.
        994   -1    0    0    0    0 -0.00000000000E+00 -0.00000000000E+00  0.11368683772E-12  0.17120000000E+03  0.17120000000E+03 0.  0.
         13    1    1    2    0    0  0.60999996167E+02 -0.65174490638E+02  0.46343898315E+03  0.47195806597E+03  0.10566000000E+00 0.  1.
        994    1    1    2    0    0 -0.51111872406E+02  0.61105321203E+02  0.28372241462E+02  0.19094687184E+03  0.17120000000E+03 0.  0.
        998    1    1    2    0    0 -0.98881237606E+01  0.40691694346E+01  0.10081887717E+04  0.10082950622E+04  0.10000000000E+02 0.  1.
</event>
<event>
 5    1  0.1520352E-008  0.3776667E+03  0.7957747E-01  0.3461382E+00
         13   -1    0    0    0    0  0.00000000000E+00  0.00000000000E+00  0.14999999963E+04  0.15000000000E+04  0.10566000000E+00 0.  1.
        994   -1    0    0    0    0 -0.00000000000E+00 -0.00000000000E+00  0.11368683772E-12  0.17120000000E+03  0.17120000000E+03 0.  0.
         13    1    1    2    0    0 -0.11996840861E+02 -0.11440380892E+01  0.11235814234E+02  0.16476883787E+02  0.10566000000E+00 0.  1.
        994    1    1    2    0    0  0.10591959038E+02  0.49379815007E+01  0.57758850817E+01  0.17169558558E+03  0.17120000000E+03 0.  0.
        998    1    1    2    0    0  0.14048818232E+01 -0.37939434115E+01  0.14829882970E+04  0.14830275306E+04  0.10000000000E+02 0.  1.
</event>
<event>
 5    1  0.1520352E-008  0.3860035E+03  0.7957747E-01  0.3425427E+00
         13   -1    0    0    0    0  0.00000000000E+00  0.00000000000E+00  0.14999999963E+04  0.15000000000E+04  0.10566000000E+00 0.  1.
        994   -1    0    0    0    0 -0.00000000000E+00 -0.00000000000E+00  0.11368683772E-12  0.17120000000E+03  0.17120000000E+03 0.  0.
         13    1    1    2    0    0  0.10535387858E+02 -0.37291726076E+01  0.55702121559E+02  0.56812310601E+02  0.10566000000E+00 0.  1.
        994    1    1    2    0    0 -0.10101478426E+02 -0.51207492194E+01  0.15532671148E+01  0.17158121860E+03  0.17120000000E+03 0.  0.
        998    1    1    2    0    0 -0.43390943169E+00  0.88499218270E+01  0.14427446076E+04  0.14428064708E+04  0.10000000000E+02 0.  1.
</event>
<event>
 5    1  0.1520352E-008  0.3833957E+03  0.7957747E-01  0.3436505E+00
         13   -1    0    0    0    0  0.00000000000E+00  0.00000000000E+00  0.14999999963E+04  0.15000000000E+04  0.10566000000E+00 0. -1.
        994   -1    0    0    0    0 -0.00000000000E+00 -0.00000000000E+00  0.11368683772E-12  0.17120000000E+03  0.17120000000E+03 0.  0.
         13    1    1    2    0    0  0.27206072420E+01 -0.14096484088E+02  0.43891126196E+02  0.46179591707E+02  0.10566000000E+00 0. -1.
        994    1    1    2    0    0  0.35077030374E+01 -0.11459066400E+01  0.24737412592E+01  0.17125763188E+03  0.17120000000E+03 0.  0.
        998    1    1    2    0    0 -0.62283102793E+01  0.15242390728E+02  0.14536351288E+04  0.14537627764E+04  0.10000000000E+02 0. -1.
</event>
<event>
 5    1  0.1520352E-008  0.3809434E+03  0.7957747E-01  0.3447061E+00
         13   -1    0    0    0    0  0.00000000000E+00  0.00000000000E+00  0.14999999963E+04  0.15000000000E+04  0.10566000000E+00 0.  1.
        994   -1    0    0    0    0 -0.00000000000E+00 -0.00000000000E+00  0.11368683772E-12  0.17120000000E+03  0.17120000000E+03 0.  0.
         13    1    1    2    0    0 -0.53499050272E+01  0.89941940557E+01  0.13381845292E+02  0.16988288848E+02  0.10566000000E+00 0.  1.
        994    1    1    2    0    0  0.31260643692E+01 -0.77295267171E+01  0.38894015675E+01  0.17144703353E+03  0.17120000000E+03 0.  0.
        998    1    1    2    0    0  0.22238406580E+01 -0.12646673386E+01  0.14827287494E+04  0.14827646776E+04  0.10000000000E+02 0.  1.
</event>
<event>
 5    1  0.1520352E-008  0.3845669E+03  0.7957747E-01  0.3431511E+00
         13   -1    0    0    0    0  0.00000000000E+00  0.00000000000E+00  0.14999999963E+04  0.15000000000E+04  0.10566000000E+00 0. -1.
        994   -1    0    0    0    0 -0.00000000000E+00 -0.00000000000E+00  0.11368683772E-12  0.17120000000E+03  0.17120000000E+03 0.  0.
         13    1    1    2    0    0 -0.20952853786E+01  0.14703561980E+02  0.60012442065E+02  0.61823048472E+02  0.10566000000E+00 0. -1.
        994    1    1    2    0    0  0.11246355551E+02 -0.70538753341E+01  0.24259379903E+01  0.17173107711E+03  0.17120000000E+03 0.  0.
        998    1    1    2    0    0 -0.91510701719E+01 -0.76496866462E+01  0.14375616162E+04  0.14376458744E+04  0.10000000000E+02 0. -1.
</event>
<event>
 5    1  0.1520352E-008  0.3768387E+03  0.7957747E-01  0.3465040E+00
         13   -1    0    0    0    0  0.00000000000E+00  0.00000000000E+00  0.14999999963E+04  0.15000000000E+04  0.10566000000E+00 0. -1.
        994   -1    0    0    0    0 -0.00000000000E+00 -0.00000000000E+00  0.11368683772E-12  0.17120000000E+03  0.17120000000E+03 0.  0.
         13    1    1    2    0    0  0.14086790494E+02  0.27179040067E+01  0.15478655550E+02  0.21105084938E+02  0.10566000000E+00 0. -1.
        994    1    1    2    0    0 -0.96326733117E+01  0.22579542588E+01  0.60683077080E+01  0.17159298095E+03  0.17120000000E+03 0.  0.
        998    1    1    2    0    0 -0.44541171818E+01 -0.49758582655E+01  0.14784530330E+04  0.14785019341E+04  0.10000000000E+02 0. -1.
</event>
<event>
 5    1  0.1520352E-008  0.3855292E+03  0.7957747E-01  0.3427431E+00
         13   -1    0    0    0    0  0.00000000000E+00  0.00000000000E+00  0.14999999963E+04  0.15000000000E+04  0.10566000000E+00 0. -1.
        994   -1    0    0    0    0 -0.00000000000E+00 -0.00000000000E+00  0.11368683772E-12  0.17120000000E+03  0.17120000000E+03 0.  0.
         13    1    1    2    0    0  0.93808809668E+01 -0.95027657213E+01  0.68102946537E+02  0.69399754864E+02  0.10566000000E+00 0. -1.
        994    1    1    2    0    0 -0.20318446890E+01  0.28248402682E+01  0.14073629775E+01  0.17124114221E+03  0.17120000000E+03 0.  0.
        998    1    1    2    0    0 -0.73490362779E+01  0.66779254530E+01  0.14304896868E+04  0.14305591029E+04  0.10000000000E+02 0. -1.
</event>
<event>
 5    1  0.1520352E-008  0.3738110E+03  0.7957747E-01  0.3478558E+00
         13   -1    0    0    0    0  0.00000000000E+00  0.00000000000E+00  0.14999999963E+04  0.15000000000E+04  0.10566000000E+00 0.  1.
        994   -1    0    0    0    0 -0.00000000000E+00 -0.00000000000E+00  0.11368683772E-12  0.17120000000E+03  0.17120000000E+03 0.  0.
         13    1    1    2    0    0  0.35163484331E+02 -0.63953731650E+01  0.89638548977E+02  0.96501046911E+02  0.10566000000E+00 0.  1.
        994    1    1    2    0    0 -0.10035183901E+02 -0.71303890168E+01  0.78079572236E+01  0.17181953195E+03  0.17120000000E+03 0.  0.
        998    1    1    2    0    0 -0.25128300430E+02  0.13525762182E+02  0.14025534901E+04  0.14028794211E+04  0.10000000000E+02 0.  1.
</event>
<event>
 5    1  0.1520352E-008  0.3800349E+03  0.7957747E-01  0.3451007E+00
         13   -1    0    0    0    0  0.00000000000E+00  0.00000000000E+00  0.14999999963E+04  0.15000000000E+04  0.10566000000E+00 0. -1.
        994   -1    0    0    0    0 -0.00000000000E+00 -0.00000000000E+00  0.11368683772E-12  0.17120000000E+03  0.17120000000E+03 0.  0.
         13    1    1    2    0    0  0.82062649867E+01  0.19572042921E+02  0.53986739639E+02  0.58008506877E+02  0.10566000000E+00 0. -1.
        994    1    1    2    0    0 -0.10728474552E+00 -0.10788141175E+02  0.45047019730E+01  0.17159874079E+03  0.17120000000E+03 0.  0.
        998    1    1    2    0    0 -0.80989802412E+01 -0.87839017458E+01  0.14415085547E+04  0.14415927523E+04  0.10000000000E+02 0. -1.
</event>
<event>
 5    1  0.1520352E-008  0.3847878E+03  0.7957747E-01  0.3430573E+00
         13   -1    0    0    0    0  0.00000000000E+00  0.00000000000E+00  0.14999999963E+04  0.15000000000E+04  0.10566000000E+00 0.  1.
        994   -1    0    0    0    0 -0.00000000000E+00 -0.00000000000E+00  0.11368683772E-12  0.17120000000E+03  0.17120000000E+03 0.  0.
         13    1    1    2    0    0 -0.83310105639E+01 -0.68319661289E+01  0.31645870492E+02  0.33429833703E+02  0.10566000000E+00 0.  1.
        994    1    1    2    0    0  0.89029566319E+01  0.17543198770E+02  0.30102562379E+01  0.17235291730E+03  0.17120000000E+03 0.  0.
        998    1    1    2    0    0 -0.57194606804E+00 -0.10711232642E+02  0.14653438695E+04  0.14654172490E+04  0.10000000000E+02 0.  1.
</event>
<event>
 5    1  0.1520352E-008  0.3831842E+03  0.7957747E-01  0.3437410E+00
         13   -1    0    0    0    0  0.00000000000E+00  0.00000000000E+00  0.14999999963E+04  0.15000000000E+04  0.10566000000E+00 0.  1.
        994   -1    0    0    0    0 -0.00000000000E+00 -0.00000000000E+00  0.11368683772E-12  0.17120000000E+03  0.17120000000E+03 0.  0.
         13    1    1    2    0    0 -0.22903693790E+01 -0.24541992962E+02  0.11302360479E+03  0.11568016949E+03  0.10566000000E+00 0.  1.
        994    1    1    2    0    0  0.22910744094E+01  0.22805890601E+02  0.42742112568E+01  0.17278039979E+03  0.17120000000E+03 0.  0.
        998    1    1    2    0    0 -0.70503034516E-03  0.17361023604E+01  0.13827021802E+04  0.13827394307E+04  0.10000000000E+02 0.  0.
</event>
<event>
 5    1  0.1520352E-008  0.3843201E+03  0.7957747E-01  0.3432561E+00
         13   -1    0    0    0    0  0.00000000000E+00  0.00000000000E+00  0.14999999963E+04  0.15000000000E+04  0.10566000000E+00 0.  1.
        994   -1    0    0    0    0 -0.00000000000E+00 -0.00000000000E+00  0.11368683772E-12  0.17120000000E+03  0.17120000000E+03 0.  0.
         13    1    1    2    0    0 -0.61362059993E+01 -0.17727857776E+02  0.98288502125E+02  0.10006283416E+03  0.10566000000E+00 0.  1.
        994    1    1    2    0    0  0.10213914033E+02 -0.49918568060E+01  0.23941741350E+01  0.17159374914E+03  0.17120000000E+03 0.  0.
        998    1    1    2    0    0 -0.40777080339E+01  0.22719714582E+02  0.13993173200E+04  0.13995434167E+04  0.10000000000E+02 0.  1.
</event>
<event>
 5    1  0.1520352E-008  0.3710284E+03  0.7957747E-01  0.3491178E+00
         13   -1    0    0    0    0  0.00000000000E+00  0.00000000000E+00  0.14999999963E+04  0.15000000000E+04  0.10566000000E+00 0. -1.
        994   -1    0    0    0    0 -0.00000000000E+00 -0.00000000000E+00  0.11368683772E-12  0.17120000000E+03  0.17120000000E+03 0.  0.
         13    1    1    2    0    0 -0.12912048954E+02 -0.15672496724E+02  0.19601907708E+02  0.28223998859E+02  0.10566000000E+00 0. -1.
        994    1    1    2    0    0  0.12148883352E+02  0.16340719085E+02  0.10162344581E+02  0.17270589948E+03  0.17120000000E+03 0.  0.
        998    1    1    2    0    0  0.76316560234E+00 -0.66822236125E+00  0.14702357440E+04  0.14702701017E+04  0.10000000000E+02 0. -1.
</event>
<event>
 5    1  0.1520352E-008  0.3842490E+03  0.7957747E-01  0.3432864E+00
         13   -1    0    0    0    0  0.00000000000E+00  0.00000000000E+00  0.14999999963E+04  0.15000000000E+04  0.10566000000E+00 0. -1.
        994   -1    0    0    0    0 -0.00000000000E+00 -0.00000000000E+00  0.11368683772E-12  0.17120000000E+03  0.17120000000E+03 0.  0.
         13    1    1    2    0    0  0.23715358934E+01 -0.14362802346E+02  0.54563481209E+02  0.56472107447E+02  0.10566000000E+00 0. -1.
        994    1    1    2    0    0 -0.18642885820E+01  0.22047698437E+01  0.20309440596E+01  0.17123639016E+03  0.17120000000E+03 0.  0.
        998    1    1    2    0    0 -0.50724731141E+00  0.12158032503E+02  0.14434055710E+04  0.14434915024E+04  0.10000000000E+02 0. -1.
</event>
<event>
 5    1  0.1520352E-008  0.3809005E+03  0.7957747E-01  0.3447247E+00
         13   -1    0    0    0    0  0.00000000000E+00  0.00000000000E+00  0.14999999963E+04  0.15000000000E+04  0.10566000000E+00 0. -1.
        994   -1    0    0    0    0 -0.00000000000E+00 -0.00000000000E+00  0.11368683772E-12  0.17120000000E+03  0.17120000000E+03 0.  0.
         13    1    1    2    0    0  0.45533560266E+00 -0.13743436121E+02  0.24610387615E+02  0.28191695754E+02  0.10566000000E+00 0. -1.
        994    1    1    2    0    0  0.73048920374E+00  0.42821259387E+01  0.37421533400E+01  0.17129598340E+03  0.17120000000E+03 0.  0.
        998    1    1    2    0    0 -0.11858248064E+01  0.94613101819E+01  0.14716474553E+04  0.14717123208E+04  0.10000000000E+02 0. -1.
</event>
<event>
 5    1  0.1520352E-008  0.3831297E+03  0.7957747E-01  0.3437643E+00
         13   -1    0    0    0    0  0.00000000000E+00  0.00000000000E+00  0.14999999963E+04  0.15000000000E+04  0.10566000000E+00 0.  1.
        994   -1    0    0    0    0 -0.00000000000E+00 -0.00000000000E+00  0.11368683772E-12  0.17120000000E+03  0.17120000000E+03 0.  0.
         13    1    1    2    0    0 -0.83491326846E+01 -0.70727783287E+01  0.23633578845E+02  0.26043990150E+02  0.10566000000E+00 0.  1.
        994    1    1    2    0    0  0.12510740624E+01 -0.13430670917E+02  0.31638233043E+01  0.17175970973E+03  0.17120000000E+03 0.  0.
        998    1    1    2    0    0  0.70980586222E+01  0.20503449246E+02  0.14732025941E+04  0.14733963001E+04  0.10000000000E+02 0.  1.
</event>
<event>
 5    1  0.1520352E-008  0.3811548E+03  0.7957747E-01  0.3446145E+00
         13   -1    0    0    0    0  0.00000000000E+00  0.00000000000E+00  0.14999999963E+04  0.15000000000E+04  0.10566000000E+00 0.  1.
        994   -1    0    0    0    0 -0.00000000000E+00 -0.00000000000E+00  0.11368683772E-12  0.17120000000E+03  0.17120000000E+03 0.  0.
         13    1    1    2    0    0  0.17807522419E+02 -0.29283282848E+02  0.19777656041E+03  0.20072418270E+03  0.10566000000E+00 0.  1.
        994    1    1    2    0    0 -0.40467696965E+01 -0.57444997109E+01  0.37157808333E+01  0.17138442942E+03  0.17120000000E+03 0.  0.
        998    1    1    2    0    0 -0.13760752723E+02  0.35027782559E+02  0.12985076550E+04  0.12990913879E+04  0.10000000000E+02 0.  1.
</event>
<event>
 5    1  0.1520352E-008  0.3813160E+03  0.7957747E-01  0.3445448E+00
         13   -1    0    0    0    0  0.00000000000E+00  0.00000000000E+00  0.14999999963E+04  0.15000000000E+04  0.10566000000E+00 0. -1.
        994   -1    0    0    0    0 -0.00000000000E+00 -0.00000000000E+00  0.11368683772E-12  0.17120000000E+03  0.17120000000E+03 0.  0.
         13    1    1    2    0    0  0.11955928280E+02 -0.12334441553E+02  0.39250689664E+02  0.42845191943E+02  0.10566000000E+00 0. -1.
        994    1    1    2    0    0 -0.39250348809E+02 -0.28685229574E+01  0.86426543608E+01  0.17587766709E+03  0.17120000000E+03 0.  0.
        998    1    1    2    0    0  0.27294420529E+02  0.15202964511E+02  0.14521066523E+04  0.14524771410E+04  0.10000000000E+02 0. -1.
</event>
<event>
 5    1  0.1520352E-008  0.3854569E+03  0.7957747E-01  0.3427737E+00
         13   -1    0    0    0    0  0.00000000000E+00  0.00000000000E+00  0.14999999963E+04  0.15000000000E+04  0.10566000000E+00 0. -1.
        994   -1    0    0    0    0 -0.00000000000E+00 -0.00000000000E+00  0.11368683772E-12  0.17120000000E+03  0.17120000000E+03 0.  0.
         13    1    1    2    0    0 -0.13854816858E+02  0.76131466896E+01  0.75724002923E+02  0.77356652819E+02  0.10566000000E+00 0. -1.
        994    1    1    2    0    0  0.26328510344E+02 -0.22196710234E+02  0.53073797870E+01  0.17470973837E+03  0.17120000000E+03 0.  0.
        998    1    1    2    0    0 -0.12473693486E+02  0.14583563545E+02  0.14189686136E+04  0.14191336088E+04  0.10000000000E+02 0. -1.
</event>
<event>
 5    1  0.1520352E-008  0.3822888E+03  0.7957747E-01  0.3441253E+00
         13   -1    0    0    0    0  0.00000000000E+00  0.00000000000E+00  0.14999999963E+04  0.15000000000E+04  0.10566000000E+00 0. -1.
        994   -1    0    0    0    0 -0.00000000000E+00 -0.00000000000E+00  0.11368683772E-12  0.17120000000E+03  0.17120000000E+03 0.  0.
         13    1    1    2    0    0  0.25287187297E+02  0.50215807508E+01  0.11935444660E+03  0.12210713821E+03  0.10566000000E+00 0. -1.
        994    1    1    2    0    0 -0.55810527642E+01  0.72740065890E+01  0.32611538783E+01  0.17147633786E+03  0.17120000000E+03 0.  0.
        998    1    1    2    0    0 -0.19706134533E+02 -0.12295587340E+02  0.13773843958E+04  0.13776165239E+04  0.10000000000E+02 0. -1.
</event>
<event>
 5    1  0.1520352E-008  0.3857198E+03  0.7957747E-01  0.3426625E+00
         13   -1    0    0    0    0  0.00000000000E+00  0.00000000000E+00  0.14999999963E+04  0.15000000000E+04  0.10566000000E+00 0. -1.
        994   -1    0    0    0    0 -0.00000000000E+00 -0.00000000000E+00  0.11368683772E-12  0.17120000000E+03  0.17120000000E+03 0.  0.
         13    1    1    2    0    0  0.96011119312E+01 -0.91655019051E+01  0.71070546562E+02  0.72299526473E+02  0.10566000000E+00 0. -1.
        994    1    1    2    0    0 -0.37734079742E+01  0.50527320684E+01  0.14036788299E+01  0.17132185798E+03  0.17120000000E+03 0.  0.
        998    1    1    2    0    0 -0.58277039571E+01  0.41127698367E+01  0.14275257709E+04  0.14275786155E+04  0.10000000000E+02 0. -1.
</event>
<event>
 5    1  0.1520352E-008  0.3771459E+03  0.7957747E-01  0.3463681E+00
         13   -1    0    0    0    0  0.00000000000E+00  0.00000000000E+00  0.14999999963E+04  0.15000000000E+04  0.10566000000E+00 0. -1.
        994   -1    0    0    0    0 -0.00000000000E+00 -0.00000000000E+00  0.11368683772E-12  0.17120000000E+03  0.17120000000E+03 0.  0.
         13    1    1    2    0    0  0.48252962264E+02  0.34362413038E+02  0.22912898102E+03  0.23666268169E+03  0.10566000000E+00 0. -1.
        994    1    1    2    0    0 -0.64382244114E+02 -0.48048275150E+02  0.27680400520E+02  0.19112654100E+03  0.17120000000E+03 0.  0.
        998    1    1    2    0    0  0.16129281849E+02  0.13685862112E+02  0.12431906147E+04  0.12434107773E+04  0.10000000000E+02 0. -1.
</event>
<event>
 5    1  0.1520352E-008  0.3832806E+03  0.7957747E-01  0.3436997E+00
         13   -1    0    0    0    0  0.00000000000E+00  0.00000000000E+00  0.14999999963E+04  0.15000000000E+04  0.10566000000E+00 0.  1.
        994   -1    0    0    0    0 -0.00000000000E+00 -0.00000000000E+00  0.11368683772E-12  0.17120000000E+03  0.17120000000E+03 0.  0.
         13    1    1    2    0    0  0.18043664838E+02 -0.34214332144E+00  0.64330786457E+02  0.66814310990E+02  0.10566000000E+00 0.  1.
        994    1    1    2    0    0 -0.13049714579E+02  0.85104510269E+01  0.32893136715E+01  0.17193889150E+03  0.17120000000E+03 0.  0.
        998    1    1    2    0    0 -0.49939502590E+01 -0.81683077054E+01  0.14323798961E+04  0.14324467975E+04  0.10000000000E+02 0.  1.
</event>
<event>
 5    1  0.1520352E-008  0.3819418E+03  0.7957747E-01  0.3442747E+00
         13   -1    0    0    0    0  0.00000000000E+00  0.00000000000E+00  0.14999999963E+04  0.15000000000E+04  0.10566000000E+00 0. -1.
        994   -1    0    0    0    0 -0.00000000000E+00 -0.00000000000E+00  0.11368683772E-12  0.17120000000E+03  0.17120000000E+03 0.  0.
         13    1    1    2    0    0  0.14332549882E+02 -0.91822818513E+01  0.43522185621E+02  0.46732516425E+02  0.10566000000E+00 0. -1.
        994    1    1    2    0    0 -0.13004757771E+02  0.14320667627E+02  0.44000581223E+01  0.17234559976E+03  0.17120000000E+03 0.  0.
        998    1    1    2    0    0 -0.13277921117E+01 -0.51383857757E+01  0.14520777525E+04  0.14521218838E+04  0.10000000000E+02 0. -1.
</event>
<event>
 5    1  0.1520352E-008  0.3855550E+03  0.7957747E-01  0.3427322E+00
         13   -1    0    0    0    0  0.00000000000E+00  0.00000000000E+00  0.14999999963E+04  0.15000000000E+04  0.10566000000E+00 0.  1.
        994   -1    0    0    0    0 -0.00000000000E+00 -0.00000000000E+00  0.11368683772E-12  0.17120000000E+03  0.17120000000E+03 0.  0.
         13    1    1    2    0    0 -0.63600547856E+01  0.93576729131E+01  0.45024542505E+02  0.46424529411E+02  0.10566000000E+00 0.  1.
        994    1    1    2    0    0  0.97839570913E+01 -0.13711919714E+02  0.22868530329E+01  0.17204189099E+03  0.17120000000E+03 0.  0.
        998    1    1    2    0    0 -0.34239023057E+01  0.43542468006E+01  0.14526886007E+04  0.14527335796E+04  0.10000000000E+02 0.  1.
</event>
<event>
 5    1  0.1520352E-008  0.3794262E+03  0.7957747E-01  0.3453661E+00
         13   -1    0    0    0    0  0.00000000000E+00  0.00000000000E+00  0.14999999963E+04  0.15000000000E+04  0.10566000000E+00 0. -1.
        994   -1    0    0    0    0 -0.00000000000E+00 -0.00000000000E+00  0.11368683772E-12  0.17120000000E+03  0.17120000000E+03 0.  0.
         13    1    1    2    0    0  0.15181501499E+02  0.67606365824E+00  0.24703950216E+02  0.29003988866E+02  0.10566000000E+00 0. -1.
        994    1    1    2    0    0 -0.44979199860E+01 -0.15440412133E+00  0.44909412568E+01  0.17131801913E+03  0.17120000000E+03 0.  0.
        998    1    1    2    0    0 -0.10683581513E+02 -0.52165953691E+00  0.14708051048E+04  0.14708779920E+04  0.10000000000E+02 0. -1.
</event>
<event>
 5    1  0.1520352E-008  0.3721146E+03  0.7957747E-01  0.3486228E+00
         13   -1    0    0    0    0  0.00000000000E+00  0.00000000000E+00  0.14999999963E+04  0.15000000000E+04  0.10566000000E+00 0.  1.
        994   -1    0    0    0    0 -0.00000000000E+00 -0.00000000000E+00  0.11368683772E-12  0.17120000000E+03  0.17120000000E+03 0.  0.
         13    1    1    2    0    0  0.63029981050E+02  0.16862198868E+02  0.24184296776E+03  0.25048980914E+03  0.10566000000E+00 0.  1.
        994    1    1    2    0    0 -0.37367327418E+02 -0.54858501948E+02  0.23446252574E+02  0.18510791219E+03  0.17120000000E+03 0.  0.
        998    1    1    2    0    0 -0.25662653632E+02  0.37996303081E+02  0.12347107759E+04  0.12356022787E+04  0.10000000000E+02 0.  1.
</event>
<event>
 5    1  0.1520352E-008  0.3802008E+03  0.7957747E-01  0.3450285E+00
         13   -1    0    0    0    0  0.00000000000E+00  0.00000000000E+00  0.14999999963E+04  0.15000000000E+04  0.10566000000E+00 0.  1.
        994   -1    0    0    0    0 -0.00000000000E+00 -0.00000000000E+00  0.11368683772E-12  0.17120000000E+03  0.17120000000E+03 0.  0.
         13    1    1    2    0    0 -0.16994351581E+03 -0.13751864944E+02  0.86419269237E+03  0.88085125479E+03  0.10566000000E+00 0.  1.
        994    1    1    2    0    0  0.18610061160E+03  0.19639879361E+02  0.13158236572E+03  0.28573155490E+03  0.17120000000E+03 0.  0.
        998    1    1    2    0    0 -0.16157095798E+02 -0.58880144172E+01  0.50422493819E+03  0.50461719031E+03  0.10000000000E+02 0.  1.
</event>
<event>
 5    1  0.1520352E-008  0.3853811E+03  0.7957747E-01  0.3428057E+00
         13   -1    0    0    0    0  0.00000000000E+00  0.00000000000E+00  0.14999999963E+04  0.15000000000E+04  0.10566000000E+00 0.  1.
        994   -1    0    0    0    0 -0.00000000000E+00 -0.00000000000E+00  0.11368683772E-12  0.17120000000E+03  0.17120000000E+03 0.  0.
         13    1    1    2    0    0  0.93162850734E+01 -0.75571290570E+01  0.51378111604E+02  0.52760069022E+02  0.10566000000E+00 0.  1.
        994    1    1    2    0    0 -0.37039934799E+01  0.14465349320E+01  0.14929694423E+01  0.17125268170E+03  0.17120000000E+03 0.  0.
        998    1    1    2    0    0 -0.56122915935E+01  0.61105941249E+01  0.14471289152E+04  0.14471872493E+04  0.10000000000E+02 0.  1.
</event>
<event>
 5    1  0.1520352E-008  0.3796175E+03  0.7957747E-01  0.3452826E+00
         13   -1    0    0    0    0  0.00000000000E+00  0.00000000000E+00  0.14999999963E+04  0.15000000000E+04  0.10566000000E+00 0.  1.
        994   -1    0    0    0    0 -0.00000000000E+00 -0.00000000000E+00  0.11368683772E-12  0.17120000000E+03  0.17120000000E+03 0.  0.
         13    1    1    2    0    0 -0.11042907073E+02 -0.33760643386E+02  0.14328208597E+03  0.14761942339E+03  0.10566000000E+00 0.  1.
        994    1    1    2    0    0 -0.12481151218E+02  0.27879324732E+02  0.74556393704E+01  0.17406338628E+03  0.17120000000E+03 0.  0.
        998    1    1    2    0    0  0.23524058291E+02  0.58813186539E+01  0.13492622709E+04  0.13495171903E+04  0.10000000000E+02 0.  1.
</event>
<event>
 5    1  0.1520352E-008  0.3822309E+03  0.7957747E-01  0.3441502E+00
         13   -1    0    0    0    0  0.00000000000E+00  0.00000000000E+00  0.14999999963E+04  0.15000000000E+04  0.10566000000E+00 0.  1.
        994   -1    0    0    0    0 -0.00000000000E+00 -0.00000000000E+00  0.11368683772E-12  0.17120000000E+03  0.17120000000E+03 0.  0.
         13    1    1    2    0    0  0.26282898784E+02 -0.21920817122E+02  0.20376067532E+03  0.20661494855E+03  0.10566000000E+00 0.  1.
        994    1    1    2    0    0 -0.16565827390E+02  0.22139948276E+01  0.39386796081E+01  0.17205894806E+03  0.17120000000E+03 0.  0.
        998    1    1    2    0    0 -0.97170713940E+01  0.19706822294E+02  0.12923006413E+04  0.12925261034E+04  0.10000000000E+02 0.  1.
</event>
<event>
 5    1  0.1520352E-008  0.3803310E+03  0.7957747E-01  0.3449719E+00
         13   -1    0    0    0    0  0.00000000000E+00  0.00000000000E+00  0.14999999963E+04  0.15000000000E+04  0.10566000000E+00 0. -1.
        994   -1    0    0    0    0 -0.00000000000E+00 -0.00000000000E+00  0.11368683772E-12  0.17120000000E+03  0.17120000000E+03 0.  0.
         13    1    1    2    0    0  0.87318952876E+01  0.12190828930E+03  0.35682068960E+03  0.37717223213E+03  0.10566000000E+00 0. -1.
        994    1    1    2    0    0 -0.20394807628E+02 -0.11002086491E+03  0.63472920660E+02  0.21414665664E+03  0.17120000000E+03 0.  0.
        998    1    1    2    0    0  0.11662912341E+02 -0.11887424391E+02  0.10797063860E+04  0.10798811112E+04  0.10000000000E+02 0. -1.
</event>
<event>
 5    1  0.1520352E-008  0.3826667E+03  0.7957747E-01  0.3439629E+00
         13   -1    0    0    0    0  0.00000000000E+00  0.00000000000E+00  0.14999999963E+04  0.15000000000E+04  0.10566000000E+00 0.  1.
        994   -1    0    0    0    0 -0.00000000000E+00 -0.00000000000E+00  0.11368683772E-12  0.17120000000E+03  0.17120000000E+03 0.  0.
         13    1    1    2    0    0 -0.15894051049E+01 -0.23133769276E+02  0.10380513004E+03  0.10636359187E+03  0.10566000000E+00 0.  1.
        994    1    1    2    0    0  0.93905947178E+01  0.48462529192E+00  0.30860928159E+01  0.17148580728E+03  0.17120000000E+03 0.  0.
        998    1    1    2    0    0 -0.78011896129E+01  0.22649143984E+02  0.13931087734E+04  0.13933506008E+04  0.10000000000E+02 0.  1.
</event>
<event>
 5    1  0.1520352E-008  0.3738293E+03  0.7957747E-01  0.3478475E+00
         13   -1    0    0    0    0  0.00000000000E+00  0.00000000000E+00  0.14999999963E+04  0.15000000000E+04  0.10566000000E+00 0.  1.
        994   -1    0    0    0    0 -0.00000000000E+00 -0.00000000000E+00  0.11368683772E-12  0.17120000000E+03  0.17120000000E+03 0.  0.
         13    1    1    2    0    0 -0.55791052296E+01 -0.16898061307E+02  0.17767440875E+02  0.25146848916E+02  0.10566000000E+00 0.  1.
        994    1    1    2    0    0  0.36057264423E+01  0.32201534561E+02  0.10872622331E+02  0.17457833201E+03  0.17120000000E+03 0.  0.
        998    1    1    2    0    0  0.19733787872E+01 -0.15303473255E+02  0.14713599331E+04  0.14714748191E+04  0.10000000000E+02 0.  1.
</event>
<event>
 5    1  0.1520352E-008  0.3717617E+03  0.7957747E-01  0.3487833E+00
         13   -1    0    0    0    0  0.00000000000E+00  0.00000000000E+00  0.14999999963E+04  0.15000000000E+04  0.10566000000E+00 0. -1.
        994   -1    0    0    0    0 -0.00000000000E+00 -0.00000000000E+00  0.11368683772E-12  0.17120000000E+03  0.17120000000E+03 0.  0.
         13    1    1    2    0    0 -0.32924777947E+02  0.11793944020E+03  0.47013408252E+03  0.48581871029E+03  0.10566000000E+00 0. -1.
        994    1    1    2    0    0  0.43239602936E+02 -0.10091813067E+03  0.55576343583E+02  0.21083714646E+03  0.17120000000E+03 0.  0.
        998    1    1    2    0    0 -0.10314824988E+02 -0.17021309536E+02  0.97428957018E+03  0.97454414326E+03  0.10000000000E+02 0.  0.
</event>
<event>
 5    1  0.1520352E-008  0.3842410E+03  0.7957747E-01  0.3432898E+00
         13   -1    0    0    0    0  0.00000000000E+00  0.00000000000E+00  0.14999999963E+04  0.15000000000E+04  0.10566000000E+00 0.  1.
        994   -1    0    0    0    0 -0.00000000000E+00 -0.00000000000E+00  0.11368683772E-12  0.17120000000E+03  0.17120000000E+03 0.  0.
         13    1    1    2    0    0  0.17690119231E+02 -0.19120851386E+01  0.74135698048E+02  0.76241125891E+02  0.10566000000E+00 0.  1.
        994    1    1    2    0    0 -0.21492051032E+02 -0.35075596827E+01  0.35723602148E+01  0.17261637521E+03  0.17120000000E+03 0.  0.
        998    1    1    2    0    0  0.38019318005E+01  0.54196448213E+01  0.14222919380E+04  0.14223424989E+04  0.10000000000E+02 0.  1.
</event>
<event>
 5    1  0.1520352E-008  0.3714555E+03  0.7957747E-01  0.3489229E+00
         13   -1    0    0    0    0  0.00000000000E+00  0.00000000000E+00  0.14999999963E+04  0.15000000000E+04  0.10566000000E+00 0.  1.
        994   -1    0    0    0    0 -0.00000000000E+00 -0.00000000000E+00  0.11368683772E-12  0.17120000000E+03  0.17120000000E+03 0.  0.
         13    1    1    2    0    0  0.16027135583E+02  0.55997957520E+02  0.17784144602E+03  0.18713693224E+03  0.10566000000E+00 0.  1.
        994    1    1    2    0    0 -0.34014067051E+00 -0.56401745973E+02  0.19535735402E+02  0.18130735672E+03  0.17120000000E+03 0.  0.
        998    1    1    2    0    0 -0.15686994912E+02  0.40378845336E+00  0.13026228149E+04  0.13027557110E+04  0.10000000000E+02 0.  1.
</event>
<event>
 5    1  0.1520352E-008  0.3841386E+03  0.7957747E-01  0.3433334E+00
         13   -1    0    0    0    0  0.00000000000E+00  0.00000000000E+00  0.14999999963E+04  0.15000000000E+04  0.10566000000E+00 0. -1.
        994   -1    0    0    0    0 -0.00000000000E+00 -0.00000000000E+00  0.11368683772E-12  0.17120000000E+03  0.17120000000E+03 0.  0.
         13    1    1    2    0    0 -0.12342867013E+03  0.15053448112E+03  0.11343971440E+04  0.11509787827E+04  0.10566000000E+00 0. -1.
        994    1    1    2    0    0  0.12402657243E+03 -0.15645091838E+03  0.14697017409E+03  0.30127919378E+03  0.17120000000E+03 0.  0.
        998    1    1    2    0    0 -0.59790230824E+00  0.59164372596E+01  0.21863267815E+03  0.21894202354E+03  0.10000000000E+02 0.  1.
</event>
<event>
 5    1  0.1520352E-008  0.3761671E+03  0.7957747E-01  0.3468020E+00
         13   -1    0    0    0    0  0.00000000000E+00  0.00000000000E+00  0.14999999963E+04  0.15000000000E+04  0.10566000000E+00 0.  1.
        994   -1    0    0    0    0 -0.00000000000E+00 -0.00000000000E+00  0.11368683772E-12  0.17120000000E+03  0.17120000000E+03 0.  0.
         13    1    1    2    0    0 -0.16678311398E+01  0.28873431909E+02  0.76264500078E+02  0.81564341885E+02  0.10566000000E+00 0.  1.
        994    1    1    2    0    0 -0.62086758004E+02  0.11797276926E+02  0.19725620556E+02  0.18355511807E+03  0.17120000000E+03 0.  0.
        998    1    1    2    0    0  0.63754589144E+02 -0.40670708835E+02  0.14040098756E+04  0.14060805400E+04  0.10000000000E+02 0.  1.
</event>
<event>
 5    1  0.3131076E-008  0.3863326E+03  0.7957747E-01  0.3424040E+00
         13   -1    0    0    0    0  0.00000000000E+00  0.00000000000E+00  0.14999999963E+04  0.15000000000E+04  0.10566000000E+00 0. -1.
        994   -1    0    0    0    0 -0.00000000000E+00 -0.00000000000E+00  0.11368683772E-12  0.17120000000E+03  0.17120000000E+03 0.  0.
         13    1    1    2    0    0 -0.54273440573E+01  0.93263832121E+01  0.61366481591E+02  0.62308054971E+02  0.10566000000E+00 0. -1.
        994    1    1    2    0    0 -0.38801802472E+00 -0.79990870070E+01  0.11800014133E+01  0.17139127269E+03  0.17120000000E+03 0.  0.
        998    1    1    2    0    0  0.58153620820E+01 -0.13272962051E+01  0.14374535133E+04  0.14375006723E+04  0.10000000000E+02 0. -1.
</event>
<event>
 5    1  0.1520352E-008  0.3764739E+03  0.7957747E-01  0.3466657E+00
         13   -1    0    0    0    0  0.00000000000E+00  0.00000000000E+00  0.14999999963E+04  0.15000000000E+04  0.10566000000E+00 0. -1.
        994   -1    0    0    0    0 -0.00000000000E+00 -0.00000000000E+00  0.11368683772E-12  0.17120000000E+03  0.17120000000E+03 0.  0.
         13    1    1    2    0    0 -0.12164226030E+02 -0.36776125047E+02  0.47033857820E+02  0.60931491971E+02  0.10566000000E+00 0. -1.
        994    1    1    2    0    0 -0.18309123462E+02  0.30717193429E+02  0.18992063540E+02  0.17592301854E+03  0.17120000000E+03 0.  0.
        998    1    1    2    0    0  0.30473349492E+02  0.60589316186E+01  0.14339740749E+04  0.14343454895E+04  0.10000000000E+02 0. -1.
</event>
<event>
 5    1  0.1520352E-008  0.3761064E+03  0.7957747E-01  0.3468289E+00
         13   -1    0    0    0    0  0.00000000000E+00  0.00000000000E+00  0.14999999963E+04  0.15000000000E+04  0.10566000000E+00 0.  1.
        994   -1    0    0    0    0 -0.00000000000E+00 -0.00000000000E+00  0.11368683772E-12  0.17120000000E+03  0.17120000000E+03 0.  0.
         13    1    1    2    0    0  0.52672330479E+01  0.24601506398E+02  0.47566560211E+02  0.53810469942E+02  0.10566000000E+00 0.  1.
        994    1    1    2    0    0 -0.11035382599E+02 -0.26633586700E+02  0.89314789315E+01  0.17383998080E+03  0.17120000000E+03 0.  0.
        998    1    1    2    0    0  0.57681495510E+01  0.20320803020E+01  0.14435019571E+04  0.14435495493E+04  0.10000000000E+02 0.  1.
</event>
<event>
 5    1  0.1520352E-008  0.3843420E+03  0.7957747E-01  0.3432468E+00
         13   -1    0    0    0    0  0.00000000000E+00  0.00000000000E+00  0.14999999963E+04  0.15000000000E+04  0.10566000000E+00 0.  1.
        994   -1    0    0    0    0 -0.00000000000E+00 -0.00000000000E+00  0.11368683772E-12  0.17120000000E+03  0.17120000000E+03 0.  0.
         13    1    1    2    0    0 -0.82891093817E+01  0.13620673279E+02  0.60116762334E+02  0.62195404593E+02  0.10566000000E+00 0.  1.
        994    1    1    2    0    0  0.96932062030E+01 -0.21694129458E+02  0.38201103270E+01  0.17288327491E+03  0.17120000000E+03 0.  0.
        998    1    1    2    0    0 -0.14040968212E+01  0.80734561792E+01  0.14360631236E+04  0.14361213205E+04  0.10000000000E+02 0.  1.
</event>
<event>
 5    1  0.1520352E-008  0.3824617E+03  0.7957747E-01  0.3440509E+00
         13   -1    0    0    0    0  0.00000000000E+00  0.00000000000E+00  0.14999999963E+04  0.15000000000E+04  0.10566000000E+00 0. -1.
        994   -1    0    0    0    0 -0.00000000000E+00 -0.00000000000E+00  0.11368683772E-12  0.17120000000E+03  0.17120000000E+03 0.  0.
         13    1    1    2    0    0  0.12779476214E+02  0.56673595336E+01  0.32042893025E+02  0.34959864614E+02  0.10566000000E+00 0. -1.
        994    1    1    2    0    0 -0.16249707190E+02 -0.13756523762E+01  0.37779663235E+01  0.17201644815E+03  0.17120000000E+03 0.  0.
        998    1    1    2    0    0  0.34702309763E+01 -0.42917071573E+01  0.14641791369E+04  0.14642236872E+04  0.10000000000E+02 0. -1.
</event>
<event>
 5    1  0.1520352E-008  0.3846103E+03  0.7957747E-01  0.3431327E+00
         13   -1    0    0    0    0  0.00000000000E+00  0.00000000000E+00  0.14999999963E+04  0.15000000000E+04  0.10566000000E+00 0. -1.
        994   -1    0    0    0    0 -0.00000000000E+00 -0.00000000000E+00  0.11368683772E-12  0.17120000000E+03  0.17120000000E+03 0.  0.
         13    1    1    2    0    0 -0.33596607249E+00 -0.19199405094E+02  0.96719585352E+02  0.98607400249E+02  0.10566000000E+00 0. -1.
        994    1    1    2    0    0  0.28884320131E+01  0.18010360912E+02  0.29200836680E+01  0.17219373690E+03  0.17120000000E+03 0.  0.
        998    1    1    2    0    0 -0.25524659406E+01  0.11890441825E+01  0.14003603273E+04  0.14003988628E+04  0.10000000000E+02 0. -1.
</event>
<event>
 5    1  0.1520352E-008  0.3839306E+03  0.7957747E-01  0.3434220E+00
         13   -1    0    0    0    0  0.00000000000E+00  0.00000000000E+00  0.14999999963E+04  0.15000000000E+04  0.10566000000E+00 0. -1.
        994   -1    0    0    0    0 -0.00000000000E+00 -0.00000000000E+00  0.11368683772E-12  0.17120000000E+03  0.17120000000E+03 0.  0.
         13    1    1    2    0    0  0.19057806226E+03  0.38380654034E+02  0.11678997473E+04  0.11839691310E+04  0.10566000000E+00 0. -1.
        994    1    1    2    0    0 -0.19993187254E+03 -0.22570155433E+02  0.14972393070E+03  0.30365911974E+03  0.17120000000E+03 0.  0.
        998    1    1    2    0    0  0.93538102880E+01 -0.15810498601E+02  0.18237631832E+03  0.18357174923E+03  0.10000000000E+02 0. -1.
</event>
<event>
 5    1  0.1520352E-008  0.3764082E+03  0.7957747E-01  0.3466949E+00
         13   -1    0    0    0    0  0.00000000000E+00  0.00000000000E+00  0.14999999963E+04  0.15000000000E+04  0.10566000000E+00 0.  1.
        994   -1    0    0    0    0 -0.00000000000E+00 -0.00000000000E+00  0.11368683772E-12  0.17120000000E+03  0.17120000000E+03 0.  0.
         13    1    1    2    0    0  0.16604029699E+01 -0.28026644662E+02  0.22375152288E+02  0.35901369792E+02  0.10566000000E+00 0.  1.
        994    1    1    2    0    0  0.16368702500E+02  0.39193683891E+01  0.15381964161E+02  0.17271172714E+03  0.17120000000E+03 0.  0.
        998    1    1    2    0    0 -0.18029105470E+02  0.24107276272E+02  0.14622428798E+04  0.14625869031E+04  0.10000000000E+02 0.  1.
</event>
<event>
 5    1  0.1520352E-008  0.3713424E+03  0.7957747E-01  0.3489744E+00
         13   -1    0    0    0    0  0.00000000000E+00  0.00000000000E+00  0.14999999963E+04  0.15000000000E+04  0.10566000000E+00 0.  1.
        994   -1    0    0    0    0 -0.00000000000E+00 -0.00000000000E+00  0.11368683772E-12  0.17120000000E+03  0.17120000000E+03 0.  0.
         13    1    1    2    0    0 -0.15237802570E+01 -0.36090328820E+02  0.77535926468E+02  0.85537505212E+02  0.10566000000E+00 0.  1.
        994    1    1    2    0    0  0.12566462561E+01  0.55727675189E+01  0.86814282159E+01  0.17151513663E+03  0.17120000000E+03 0.  0.
        998    1    1    2    0    0  0.26713400084E+00  0.30517561301E+02  0.14137826416E+04  0.14141473582E+04  0.10000000000E+02 0.  1.
</event>
<event>
 5    1  0.1520352E-008  0.3820979E+03  0.7957747E-01  0.3442074E+00
         13   -1    0    0    0    0  0.00000000000E+00  0.00000000000E+00  0.14999999963E+04  0.15000000000E+04  0.10566000000E+00 0. -1.
        994   -1    0    0    0    0 -0.00000000000E+00 -0.00000000000E+00  0.11368683772E-12  0.17120000000E+03  0.17120000000E+03 0.  0.
         13    1    1    2    0    0  0.30485101255E+02  0.10225737556E+02  0.13827540250E+03  0.14196480271E+03  0.10566000000E+00 0. -1.
        994    1    1    2    0    0 -0.42630480854E+02 -0.21303468923E+02  0.10654949083E+02  0.17802854722E+03  0.17120000000E+03 0.  0.
        998    1    1    2    0    0  0.12145379599E+02  0.11077731367E+02  0.13510696447E+04  0.13512066501E+04  0.10000000000E+02 0. -1.
</event>
<event>
 5    1  0.1520352E-008  0.3796316E+03  0.7957747E-01  0.3452764E+00
         13   -1    0    0    0    0  0.00000000000E+00  0.00000000000E+00  0.14999999963E+04  0.15000000000E+04  0.10566000000E+00 0.  1.
        994   -1    0    0    0    0 -0.00000000000E+00 -0.00000000000E+00  0.11368683772E-12  0.17120000000E+03  0.17120000000E+03 0.  0.
         13    1    1    2    0    0  0.52254103906E+02  0.42819465065E+01  0.29209508629E+03  0.29676316658E+03  0.10566000000E+00 0.  1.
        994    1    1    2    0    0 -0.38286611379E+02 -0.10655581537E+02  0.96236631834E+01  0.17601551330E+03  0.17120000000E+03 0.  0.
        998    1    1    2    0    0 -0.13967492527E+02  0.63736350306E+01  0.11982812468E+04  0.11984213201E+04  0.10000000000E+02 0.  1.
</event>
<event>
 5    1  0.1520352E-008  0.3804518E+03  0.7957747E-01  0.3449193E+00
         13   -1    0    0    0    0  0.00000000000E+00  0.00000000000E+00  0.14999999963E+04  0.15000000000E+04  0.10566000000E+00 0.  1.
        994   -1    0    0    0    0 -0.00000000000E+00 -0.00000000000E+00  0.11368683772E-12  0.17120000000E+03  0.17120000000E+03 0.  0.
         13    1    1    2    0    0  0.10517701949E+03 -0.10288886273E+02  0.55869953190E+03  0.56860640580E+03  0.10566000000E+00 0.  1.
        994    1    1    2    0    0 -0.13513737333E+03  0.23052116949E+02  0.69420219956E+02  0.23004807477E+03  0.17120000000E+03 0.  0.
        998    1    1    2    0    0  0.29960353844E+02 -0.12763230676E+02  0.87188024443E+03  0.87254551943E+03  0.10000000000E+02 0.  1.
</event>
<event>
 5    1  0.1520352E-008  0.3741728E+03  0.7957747E-01  0.3476931E+00
         13   -1    0    0    0    0  0.00000000000E+00  0.00000000000E+00  0.14999999963E+04  0.15000000000E+04  0.10566000000E+00 0.  1.
        994   -1    0    0    0    0 -0.00000000000E+00 -0.00000000000E+00  0.11368683772E-12  0.17120000000E+03  0.17120000000E+03 0.  0.
         13    1    1    2    0    0  0.46154152283E+02  0.64644084337E+00  0.13083621934E+03  0.13873986851E+03  0.10566000000E+00 0.  1.
        994    1    1    2    0    0 -0.53502158826E+02  0.39346148260E+01  0.16978414716E+02  0.18021006842E+03  0.17120000000E+03 0.  0.
        998    1    1    2    0    0  0.73480065420E+01 -0.45810556694E+01  0.13521853622E+04  0.13522500631E+04  0.10000000000E+02 0.  1.
</event>
<event>
 5    1  0.1520352E-008  0.3824445E+03  0.7957747E-01  0.3440583E+00
         13   -1    0    0    0    0  0.00000000000E+00  0.00000000000E+00  0.14999999963E+04  0.15000000000E+04  0.10566000000E+00 0.  1.
        994   -1    0    0    0    0 -0.00000000000E+00 -0.00000000000E+00  0.11368683772E-12  0.17120000000E+03  0.17120000000E+03 0.  0.
         13    1    1    2    0    0 -0.24353786581E+02  0.11203788161E+02  0.13743228824E+03  0.14002241537E+03  0.10566000000E+00 0.  1.
        994    1    1    2    0    0 -0.21568137440E+01 -0.62387269073E+01  0.30487474768E+01  0.17135433587E+03  0.17120000000E+03 0.  0.
        998    1    1    2    0    0  0.26510600325E+02 -0.49650612537E+01  0.13595189606E+04  0.13598232488E+04  0.10000000000E+02 0.  1.
</event>
<event>
 5    1  0.2099401E-008  0.3860919E+03  0.7957747E-01  0.3425054E+00
         13   -1    0    0    0    0  0.00000000000E+00  0.00000000000E+00  0.14999999963E+04  0.15000000000E+04  0.10566000000E+00 0.  1.
        994   -1    0    0    0    0 -0.00000000000E+00 -0.00000000000E+00  0.11368683772E-12  0.17120000000E+03  0.17120000000E+03 0.  0.
         13    1    1    2    0    0  0.86698653282E+01 -0.69279529290E+01  0.59360155762E+02  0.60388760152E+02  0.10566000000E+00 0.  1.
        994    1    1    2    0    0 -0.26966316793E+01  0.92434417325E+00  0.11156109945E+01  0.17122736587E+03  0.17120000000E+03 0.  0.
        998    1    1    2    0    0 -0.59732336488E+01  0.60036087558E+01  0.14395242295E+04  0.14395838740E+04  0.10000000000E+02 0.  1.
</event>
<event>
 5    1  0.1520352E-008  0.3862772E+03  0.7957747E-01  0.3424273E+00
         13   -1    0    0    0    0  0.00000000000E+00  0.00000000000E+00  0.14999999963E+04  0.15000000000E+04  0.10566000000E+00 0. -1.
        994   -1    0    0    0    0 -0.00000000000E+00 -0.00000000000E+00  0.11368683772E-12  0.17120000000E+03  0.17120000000E+03 0.  0.
         13    1    1    2    0    0  0.19425433409E+02  0.81048514734E+01  0.12256876176E+03  0.12436297120E+03  0.10566000000E+00 0. -1.
        994    1    1    2    0    0 -0.67352689464E+02 -0.33051941208E+02  0.19653842412E+02  0.18794820860E+03  0.17120000000E+03 0.  0.
        998    1    1    2    0    0  0.47927256055E+02  0.24947089735E+02  0.13577773921E+04  0.13588888202E+04  0.10000000000E+02 0. -1.
</event>
<event>
 5    1  0.1520352E-008  0.3789317E+03  0.7957747E-01  0.3455823E+00
         13   -1    0    0    0    0  0.00000000000E+00  0.00000000000E+00  0.14999999963E+04  0.15000000000E+04  0.10566000000E+00 0.  1.
        994   -1    0    0    0    0 -0.00000000000E+00 -0.00000000000E+00  0.11368683772E-12  0.17120000000E+03  0.17120000000E+03 0.  0.
         13    1    1    2    0    0  0.77062770795E+02  0.32337058058E+02  0.43203720076E+03  0.44004603165E+03  0.10566000000E+00 0.  1.
        994    1    1    2    0    0 -0.92945258552E+02 -0.39898989524E+02  0.39798779189E+02  0.20279086093E+03  0.17120000000E+03 0.  0.
        998    1    1    2    0    0  0.15882487757E+02  0.75619314668E+01  0.10281640163E+04  0.10283631074E+04  0.10000000000E+02 0.  1.
</event>
<event>
 5    1  0.1520352E-008  0.3856145E+03  0.7957747E-01  0.3427070E+00
         13   -1    0    0    0    0  0.00000000000E+00  0.00000000000E+00  0.14999999963E+04  0.15000000000E+04  0.10566000000E+00 0. -1.
        994   -1    0    0    0    0 -0.00000000000E+00 -0.00000000000E+00  0.11368683772E-12  0.17120000000E+03  0.17120000000E+03 0.  0.
         13    1    1    2    0    0 -0.76042301619E+01  0.75894167944E+01  0.43965519414E+02  0.45259271150E+02  0.10566000000E+00 0. -1.
        994    1    1    2    0    0  0.77849719841E+01 -0.14045725049E+01  0.15307875990E+01  0.17138950354E+03  0.17120000000E+03 0.  0.
        998    1    1    2    0    0 -0.18074182223E+00 -0.61848442895E+01  0.14545036893E+04  0.14545512253E+04  0.10000000000E+02 0. -1.
</event>
<event>
 5    1  0.1520352E-008  0.3817419E+03  0.7957747E-01  0.3443609E+00
         13   -1    0    0    0    0  0.00000000000E+00  0.00000000000E+00  0.14999999963E+04  0.15000000000E+04  0.10566000000E+00 0. -1.
        994   -1    0    0    0    0 -0.00000000000E+00 -0.00000000000E+00  0.11368683772E-12  0.17120000000E+03  0.17120000000E+03 0.  0.
         13    1    1    2    0    0  0.12251239802E+02  0.87553397426E+01  0.33297178096E+02  0.36543974659E+02  0.10566000000E+00 0. -1.
        994    1    1    2    0    0 -0.91006346454E+01 -0.95209876177E+01  0.38332312938E+01  0.17174866642E+03  0.17120000000E+03 0.  0.
        998    1    1    2    0    0 -0.31506051567E+01  0.76564787504E+00  0.14628695869E+04  0.14629073589E+04  0.10000000000E+02 0. -1.
</event>
<event>
 5    1  0.1520352E-008  0.3791447E+03  0.7957747E-01  0.3454891E+00
         13   -1    0    0    0    0  0.00000000000E+00  0.00000000000E+00  0.14999999963E+04  0.15000000000E+04  0.10566000000E+00 0. -1.
        994   -1    0    0    0    0 -0.00000000000E+00 -0.00000000000E+00  0.11368683772E-12  0.17120000000E+03  0.17120000000E+03 0.  0.
         13    1    1    2    0    0  0.91797035981E+01  0.33686625168E+02  0.14473657477E+03  0.14888835721E+03  0.10566000000E+00 0. -1.
        994    1    1    2    0    0  0.37297693392E+01 -0.65052102678E+01  0.47540617169E+01  0.17143007333E+03  0.17120000000E+03 0.  0.
        998    1    1    2    0    0 -0.12909472937E+02 -0.27181414900E+02  0.13505093598E+04  0.13508815695E+04  0.10000000000E+02 0. -1.
</event>
<event>
 5    1  0.1520352E-008  0.3779932E+03  0.7957747E-01  0.3459943E+00
         13   -1    0    0    0    0  0.00000000000E+00  0.00000000000E+00  0.14999999963E+04  0.15000000000E+04  0.10566000000E+00 0.  1.
        994   -1    0    0    0    0 -0.00000000000E+00 -0.00000000000E+00  0.11368683772E-12  0.17120000000E+03  0.17120000000E+03 0.  0.
         13    1    1    2    0    0 -0.48593161326E+02 -0.65353429835E+02  0.37670369735E+03  0.38540634774E+03  0.10566000000E+00 0.  1.
        994    1    1    2    0    0  0.58820070921E+02  0.88004579663E+02  0.43833641236E+02  0.20599862837E+03  0.17120000000E+03 0.  0.
        998    1    1    2    0    0 -0.10226909595E+02 -0.22651149828E+02  0.10794626577E+04  0.10797950239E+04  0.10000000000E+02 0.  1.
</event>
<event>
 5    1  0.1520352E-008  0.3748467E+03  0.7957747E-01  0.3473908E+00
         13   -1    0    0    0    0  0.00000000000E+00  0.00000000000E+00  0.14999999963E+04  0.15000000000E+04  0.10566000000E+00 0. -1.
        994   -1    0    0    0    0 -0.00000000000E+00 -0.00000000000E+00  0.11368683772E-12  0.17120000000E+03  0.17120000000E+03 0.  0.
         13    1    1    2    0    0  0.15523003640E+01 -0.11091264305E+02  0.61797016130E+01  0.12791624461E+02  0.10566000000E+00 0. -1.
        994    1    1    2    0    0  0.39197788346E+01  0.89164525549E+01  0.70801584145E+01  0.17162294845E+03  0.17120000000E+03 0.  0.
        998    1    1    2    0    0 -0.54720791986E+01  0.21748117497E+01  0.14867401363E+04  0.14867854271E+04  0.10000000000E+02 0. -1.
</event>
<event>
 5    1  0.1520352E-008  0.3853863E+03  0.7957747E-01  0.3428036E+00
         13   -1    0    0    0    0  0.00000000000E+00  0.00000000000E+00  0.14999999963E+04  0.15000000000E+04  0.10566000000E+00 0.  1.
        994   -1    0    0    0    0 -0.00000000000E+00 -0.00000000000E+00  0.11368683772E-12  0.17120000000E+03  0.17120000000E+03 0.  0.
         13    1    1    2    0    0 -0.37643124549E+01 -0.14160301345E+02  0.74569530091E+02  0.75995461473E+02  0.10566000000E+00 0.  1.
        994    1    1    2    0    0  0.52859622681E+01  0.92186635159E+01  0.18094700551E+01  0.17153903152E+03  0.17120000000E+03 0.  0.
        998    1    1    2    0    0 -0.15216498132E+01  0.49416378294E+01  0.14236209961E+04  0.14236655070E+04  0.10000000000E+02 0.  1.
</event>
<event>
 5    1  0.1520352E-008  0.3853634E+03  0.7957747E-01  0.3428133E+00
         13   -1    0    0    0    0  0.00000000000E+00  0.00000000000E+00  0.14999999963E+04  0.15000000000E+04  0.10566000000E+00 0.  1.
        994   -1    0    0    0    0 -0.00000000000E+00 -0.00000000000E+00  0.11368683772E-12  0.17120000000E+03  0.17120000000E+03 0.  0.
         13    1    1    2    0    0  0.10337237993E+02 -0.65422905807E+01  0.52210406464E+02  0.53624600348E+02  0.10566000000E+00 0.  1.
        994    1    1    2    0    0 -0.41086937102E+01  0.61755776515E+01  0.16305924195E+01  0.17136836918E+03  0.17120000000E+03 0.  0.
        998    1    1    2    0    0 -0.62285442824E+01  0.36671292923E+00  0.14461589974E+04  0.14462070305E+04  0.10000000000E+02 0.  1.
</event>
<event>
 5    1  0.1520352E-008  0.3815747E+03  0.7957747E-01  0.3444330E+00
         13   -1    0    0    0    0  0.00000000000E+00  0.00000000000E+00  0.14999999963E+04  0.15000000000E+04  0.10566000000E+00 0. -1.
        994   -1    0    0    0    0 -0.00000000000E+00 -0.00000000000E+00  0.11368683772E-12  0.17120000000E+03  0.17120000000E+03 0.  0.
         13    1    1    2    0    0  0.15370429873E+02 -0.11418499788E+02  0.51020326984E+02  0.54495111538E+02  0.10566000000E+00 0. -1.
        994    1    1    2    0    0 -0.20580817166E+02  0.14257763295E+02  0.54278078986E+01  0.17310619558E+03  0.17120000000E+03 0.  0.
        998    1    1    2    0    0  0.52103872928E+01 -0.28392635068E+01  0.14435518614E+04  0.14435986929E+04  0.10000000000E+02 0. -1.
</event>
<event>
 5    1  0.1520352E-008  0.3850202E+03  0.7957747E-01  0.3429586E+00
         13   -1    0    0    0    0  0.00000000000E+00  0.00000000000E+00  0.14999999963E+04  0.15000000000E+04  0.10566000000E+00 0.  1.
        994   -1    0    0    0    0 -0.00000000000E+00 -0.00000000000E+00  0.11368683772E-12  0.17120000000E+03  0.17120000000E+03 0.  0.
         13    1    1    2    0    0 -0.11518904726E+02 -0.33548214040E+01  0.45270248723E+02  0.46833178156E+02  0.10566000000E+00 0.  1.
        994    1    1    2    0    0  0.26078894350E+01  0.60983649885E+01  0.17647719068E+01  0.17133751943E+03  0.17120000000E+03 0.  0.
        998    1    1    2    0    0  0.89110152913E+01 -0.27435435845E+01  0.14529649756E+04  0.14530293024E+04  0.10000000000E+02 0.  1.
</event>
<event>
 5    1  0.1520352E-008  0.3825293E+03  0.7957747E-01  0.3440219E+00
         13   -1    0    0    0    0  0.00000000000E+00  0.00000000000E+00  0.14999999963E+04  0.15000000000E+04  0.10566000000E+00 0. -1.
        994   -1    0    0    0    0 -0.00000000000E+00 -0.00000000000E+00  0.11368683772E-12  0.17120000000E+03  0.17120000000E+03 0.  0.
         13    1    1    2    0    0  0.12870438163E+03  0.22686693153E+03  0.10958853495E+04  0.11264981726E+04  0.10566000000E+00 0. -1.
        994    1    1    2    0    0 -0.12286626031E+03 -0.23149363779E+03  0.28009604702E+03  0.42005792198E+03  0.17120000000E+03 0.  0.
        998    1    1    2    0    0 -0.58381213106E+01  0.46267062607E+01  0.12401859973E+03  0.12464390539E+03  0.10000000000E+02 0.  0.
</event>
<event>
 5    1  0.1520352E-008  0.3817071E+03  0.7957747E-01  0.3443759E+00
         13   -1    0    0    0    0  0.00000000000E+00  0.00000000000E+00  0.14999999963E+04  0.15000000000E+04  0.10566000000E+00 0.  1.
        994   -1    0    0    0    0 -0.00000000000E+00 -0.00000000000E+00  0.11368683772E-12  0.17120000000E+03  0.17120000000E+03 0.  0.
         13    1    1    2    0    0  0.82831176682E+01  0.14962074882E+02  0.42233441403E+02  0.45564772137E+02  0.10566000000E+00 0.  1.
        994    1    1    2    0    0 -0.16621717032E+02 -0.12667917041E+02  0.47271024471E+01  0.17253562849E+03  0.17120000000E+03 0.  0.
        998    1    1    2    0    0  0.83385993640E+01 -0.22941578411E+01  0.14530394524E+04  0.14530995994E+04  0.10000000000E+02 0.  1.
</event>
<event>
 5    1  0.1787678E-008  0.3861325E+03  0.7957747E-01  0.3424883E+00
         13   -1    0    0    0    0  0.00000000000E+00  0.00000000000E+00  0.14999999963E+04  0.15000000000E+04  0.10566000000E+00 0.  1.
        994   -1    0    0    0    0 -0.00000000000E+00 -0.00000000000E+00  0.11368683772E-12  0.17120000000E+03  0.17120000000E+03 0.  0.
         13    1    1    2    0    0 -0.11276137850E+02  0.40219967013E+01  0.64637212210E+02  0.65736657267E+02  0.10566000000E+00 0.  1.
        994    1    1    2    0    0  0.13900603936E+02 -0.43231104882E+01  0.17636019646E+01  0.17182684996E+03  0.17120000000E+03 0.  0.
        998    1    1    2    0    0 -0.26244660857E+01  0.30111378685E+00  0.14335991821E+04  0.14336364928E+04  0.10000000000E+02 0.  1.
</event>
<event>
 5    1  0.1520352E-008  0.3847230E+03  0.7957747E-01  0.3430848E+00
         13   -1    0    0    0    0  0.00000000000E+00  0.00000000000E+00  0.14999999963E+04  0.15000000000E+04  0.10566000000E+00 0.  1.
        994   -1    0    0    0    0 -0.00000000000E+00 -0.00000000000E+00  0.11368683772E-12  0.17120000000E+03  0.17120000000E+03 0.  0.
         13    1    1    2    0    0  0.66627974584E+01 -0.84813664412E+01  0.31938225288E+02  0.33710352197E+02  0.10566000000E+00 0.  1.
        994    1    1    2    0    0 -0.88360706830E+01  0.82413829885E+01  0.22484540950E+01  0.17164058985E+03  0.17120000000E+03 0.  0.
        998    1    1    2    0    0  0.21732732246E+01  0.23998345272E+00  0.14658133169E+04  0.14658490580E+04  0.10000000000E+02 0.  1.
</event>
<event>
 5    1  0.1520352E-008  0.3723642E+03  0.7957747E-01  0.3485095E+00
         13   -1    0    0    0    0  0.00000000000E+00  0.00000000000E+00  0.14999999963E+04  0.15000000000E+04  0.10566000000E+00 0. -1.
        994   -1    0    0    0    0 -0.00000000000E+00 -0.00000000000E+00  0.11368683772E-12  0.17120000000E+03  0.17120000000E+03 0.  0.
         13    1    1    2    0    0  0.10316785511E+02 -0.40117699222E+02  0.10783448789E+03  0.11551689832E+03  0.10566000000E+00 0. -1.
        994    1    1    2    0    0 -0.15370293919E+02  0.13043597601E+02  0.94335287259E+01  0.17264070446E+03  0.17120000000E+03 0.  0.
        998    1    1    2    0    0  0.50535084073E+01  0.27074101621E+02  0.13827319797E+04  0.13830423972E+04  0.10000000000E+02 0. -1.
</event>
<event>
 5    1  0.1520352E-008  0.3830743E+03  0.7957747E-01  0.3437881E+00
         13   -1    0    0    0    0  0.00000000000E+00  0.00000000000E+00  0.14999999963E+04  0.15000000000E+04  0.10566000000E+00 0.  1.
        994   -1    0    0    0    0 -0.00000000000E+00 -0.00000000000E+00  0.11368683772E-12  0.17120000000E+03  0.17120000000E+03 0.  0.
         13    1    1    2    0    0  0.94427733771E+01 -0.22277416297E+02  0.14484721616E+03  0.14685426940E+03  0.10566000000E+00 0.  1.
        994    1    1    2    0    0 -0.78910948160E+01 -0.21138760613E+02  0.42758705195E+01  0.17273343523E+03  0.17120000000E+03 0.  0.
        998    1    1    2    0    0 -0.15516785611E+01  0.43416176910E+02  0.13508769096E+04  0.13516122954E+04  0.10000000000E+02 0.  1.
</event>
<event>
 5    1  0.1520352E-008  0.3803744E+03  0.7957747E-01  0.3449530E+00
         13   -1    0    0    0    0  0.00000000000E+00  0.00000000000E+00  0.14999999963E+04  0.15000000000E+04  0.10566000000E+00 0.  1.
        994   -1    0    0    0    0 -0.00000000000E+00 -0.00000000000E+00  0.11368683772E-12  0.17120000000E+03  0.17120000000E+03 0.  0.
         13    1    1    2    0    0 -0.49269550837E+00 -0.20767577116E+02  0.53918435737E+02  0.57781864668E+02  0.10566000000E+00 0.  1.
        994    1    1    2    0    0  0.30920838432E+01  0.10301414213E+02  0.43306096545E+01  0.17159217435E+03  0.17120000000E+03 0.  0.
        998    1    1    2    0    0 -0.25993883348E+01  0.10466162903E+02  0.14417509509E+04  0.14418259610E+04  0.10000000000E+02 0.  1.
</event>
<event>
 5    1  0.1520352E-008  0.3829211E+03  0.7957747E-01  0.3438537E+00
         13   -1    0    0    0    0  0.00000000000E+00  0.00000000000E+00  0.14999999963E+04  0.15000000000E+04  0.10566000000E+00 0.  1.
        994   -1    0    0    0    0 -0.00000000000E+00 -0.00000000000E+00  0.11368683772E-12  0.17120000000E+03  0.17120000000E+03 0.  0.
         13    1    1    2    0    0 -0.22636572285E+02  0.30566020690E+02  0.22926901960E+03  0.23240264744E+03  0.10566000000E+00 0.  1.
        994    1    1    2    0    0  0.20917759360E+02 -0.33592881115E+02  0.78682744607E+01  0.17589026142E+03  0.17120000000E+03 0.  0.
        998    1    1    2    0    0  0.17188129250E+01  0.30268604248E+01  0.12628627022E+04  0.12629070911E+04  0.10000000000E+02 0.  1.
</event>
<event>
 5    1  0.1520352E-008  0.3791516E+03  0.7957747E-01  0.3454861E+00
         13   -1    0    0    0    0  0.00000000000E+00  0.00000000000E+00  0.14999999963E+04  0.15000000000E+04  0.10566000000E+00 0.  1.
        994   -1    0    0    0    0 -0.00000000000E+00 -0.00000000000E+00  0.11368683772E-12  0.17120000000E+03  0.17120000000E+03 0.  0.
         13    1    1    2    0    0  0.33395572440E+02  0.26232725580E+02  0.23107304023E+03  0.23494293187E+03  0.10566000000E+00 0.  1.
        994    1    1    2    0    0 -0.81011581688E+01  0.42548180737E+01  0.48427480591E+01  0.17151275302E+03  0.17120000000E+03 0.  0.
        998    1    1    2    0    0 -0.25294414271E+02 -0.30487543654E+02  0.12640842080E+04  0.12647443151E+04  0.10000000000E+02 0. -1.
</event>
<event>
 5    1  0.1520352E-008  0.3776920E+03  0.7957747E-01  0.3461270E+00
         13   -1    0    0    0    0  0.00000000000E+00  0.00000000000E+00  0.14999999963E+04  0.15000000000E+04  0.10566000000E+00 0. -1.
        994   -1    0    0    0    0 -0.00000000000E+00 -0.00000000000E+00  0.11368683772E-12  0.17120000000E+03  0.17120000000E+03 0.  0.
         13    1    1    2    0    0  0.84743799366E+01 -0.89162336186E+01  0.11866082947E+02  0.17091794107E+02  0.10566000000E+00 0. -1.
        994    1    1    2    0    0 -0.66774581041E+01  0.84333702602E+01  0.56926404906E+01  0.17163203762E+03  0.17120000000E+03 0.  0.
        998    1    1    2    0    0 -0.17969218325E+01  0.48286335843E+00  0.14824412728E+04  0.14824761683E+04  0.10000000000E+02 0. -1.
</event>
<event>
 5    1  0.1520352E-008  0.3853873E+03  0.7957747E-01  0.3428031E+00
         13   -1    0    0    0    0  0.00000000000E+00  0.00000000000E+00  0.14999999963E+04  0.15000000000E+04  0.10566000000E+00 0.  1.
        994   -1    0    0    0    0 -0.00000000000E+00 -0.00000000000E+00  0.11368683772E-12  0.17120000000E+03  0.17120000000E+03 0.  0.
         13    1    1    2    0    0  0.33734662767E+01  0.16952901284E+02  0.98583317852E+02  0.10008727621E+03  0.10566000000E+00 0.  1.
        994    1    1    2    0    0 -0.25905663649E+01 -0.17736672399E+02  0.24940213476E+01  0.17215388675E+03  0.17120000000E+03 0.  0.
        998    1    1    2    0    0 -0.78289991185E+00  0.78377111460E+00  0.13989226571E+04  0.13989588370E+04  0.10000000000E+02 0.  0.
</event>
<event>
 5    1  0.1520352E-008  0.3698352E+03  0.7957747E-01  0.3496649E+00
         13   -1    0    0    0    0  0.00000000000E+00  0.00000000000E+00  0.14999999963E+04  0.15000000000E+04  0.10566000000E+00 0. -1.
        994   -1    0    0    0    0 -0.00000000000E+00 -0.00000000000E+00  0.11368683772E-12  0.17120000000E+03  0.17120000000E+03 0.  0.
         13    1    1    2    0    0 -0.13223514259E+03  0.34682364179E+02  0.44943116837E+03  0.46976311646E+03  0.10566000000E+00 0. -1.
        994    1    1    2    0    0  0.20050316982E+03  0.30506752326E+02  0.16872528579E+03  0.31449935630E+03  0.17120000000E+03 0.  0.
        998    1    1    2    0    0 -0.68268027229E+02 -0.65189116506E+02  0.88184354212E+03  0.88693752724E+03  0.10000000000E+02 0. -1.
</event>
<event>
 5    1  0.1520352E-008  0.3826686E+03  0.7957747E-01  0.3439621E+00
         13   -1    0    0    0    0  0.00000000000E+00  0.00000000000E+00  0.14999999963E+04  0.15000000000E+04  0.10566000000E+00 0.  1.
        994   -1    0    0    0    0 -0.00000000000E+00 -0.00000000000E+00  0.11368683772E-12  0.17120000000E+03  0.17120000000E+03 0.  0.
         13    1    1    2    0    0  0.78430284643E+01 -0.10320079235E+02  0.30105714263E+02  0.32777771832E+02  0.10566000000E+00 0.  1.
        994    1    1    2    0    0 -0.79666307397E+00 -0.14466818205E+01  0.28011193492E+01  0.17123087873E+03  0.17120000000E+03 0.  0.
        998    1    1    2    0    0 -0.70463653904E+01  0.11766761056E+02  0.14670931627E+04  0.14671913494E+04  0.10000000000E+02 0.  1.
</event>
<event>
 5    1  0.1520352E-008  0.3846407E+03  0.7957747E-01  0.3431198E+00
         13   -1    0    0    0    0  0.00000000000E+00  0.00000000000E+00  0.14999999963E+04  0.15000000000E+04  0.10566000000E+00 0. -1.
        994   -1    0    0    0    0 -0.00000000000E+00 -0.00000000000E+00  0.11368683772E-12  0.17120000000E+03  0.17120000000E+03 0.  0.
         13    1    1    2    0    0  0.20551208399E+01 -0.11745252267E+02  0.41286696166E+02  0.42974142421E+02  0.10566000000E+00 0. -1.
        994    1    1    2    0    0 -0.13264792653E+01 -0.37608919119E+01  0.18610150058E+01  0.17125655384E+03  0.17120000000E+03 0.  0.
        998    1    1    2    0    0 -0.72864157458E+00  0.15506144179E+02  0.14568522851E+04  0.14569693037E+04  0.10000000000E+02 0. -1.
</event>
<event>
 5    1  0.1520352E-008  0.3799904E+03  0.7957747E-01  0.3451200E+00
         13   -1    0    0    0    0  0.00000000000E+00  0.00000000000E+00  0.14999999963E+04  0.15000000000E+04  0.10566000000E+00 0.  1.
        994   -1    0    0    0    0 -0.00000000000E+00 -0.00000000000E+00  0.11368683772E-12  0.17120000000E+03  0.17120000000E+03 0.  0.
         13    1    1    2    0    0  0.58906740604E+01  0.16640457518E+02  0.34590594631E+02  0.38834588556E+02  0.10566000000E+00 0.  1.
        994    1    1    2    0    0 -0.15632096156E+02 -0.20495496535E+02  0.63623632087E+01  0.17324649340E+03  0.17120000000E+03 0.  0.
        998    1    1    2    0    0  0.97414220953E+01  0.38550390174E+01  0.14590470384E+04  0.14591189180E+04  0.10000000000E+02 0.  1.
</event>
<event>
 5    1  0.1520352E-008  0.3796078E+03  0.7957747E-01  0.3452868E+00
         13   -1    0    0    0    0  0.00000000000E+00  0.00000000000E+00  0.14999999963E+04  0.15000000000E+04  0.10566000000E+00 0. -1.
        994   -1    0    0    0    0 -0.00000000000E+00 -0.00000000000E+00  0.11368683772E-12  0.17120000000E+03  0.17120000000E+03 0.  0.
         13    1    1    2    0    0  0.37135992331E+01  0.11756871729E+02  0.15509380450E+02  0.19813301040E+02  0.10566000000E+00 0. -1.
        994    1    1    2    0    0 -0.85367623210E+00 -0.13779127379E+02  0.49694707441E+01  0.17182761348E+03  0.17120000000E+03 0.  0.
        998    1    1    2    0    0 -0.28599230010E+01  0.20222556503E+01  0.14795211451E+04  0.14795590855E+04  0.10000000000E+02 0. -1.
</event>
<event>
 5    1  0.1520352E-008  0.3775081E+03  0.7957747E-01  0.3462081E+00
         13   -1    0    0    0    0  0.00000000000E+00  0.00000000000E+00  0.14999999963E+04  0.15000000000E+04  0.10566000000E+00 0. -1.
        994   -1    0    0    0    0 -0.00000000000E+00 -0.00000000000E+00  0.11368683772E-12  0.17120000000E+03  0.17120000000E+03 0.  0.
         13    1    1    2    0    0 -0.11622743970E+02 -0.53594516090E+02  0.29394103377E+03  0.29901304793E+03  0.10566000000E+00 0. -1.
        994    1    1    2    0    0 -0.22018598991E+02  0.30704924379E+02  0.10223550680E+02  0.17561768724E+03  0.17120000000E+03 0.  0.
        998    1    1    2    0    0  0.33641342961E+02  0.22889591710E+02  0.11958354118E+04  0.11965692648E+04  0.10000000000E+02 0. -1.
</event>
<event>
 5    1  0.1520352E-008  0.3771670E+03  0.7957747E-01  0.3463587E+00
         13   -1    0    0    0    0  0.00000000000E+00  0.00000000000E+00  0.14999999963E+04  0.15000000000E+04  0.10566000000E+00 0. -1.
        994   -1    0    0    0    0 -0.00000000000E+00 -0.00000000000E+00  0.11368683772E-12  0.17120000000E+03  0.17120000000E+03 0.  0.
         13    1    1    2    0    0  0.15712748998E+02 -0.96223125664E+00  0.19665609074E+02  0.25190548115E+02  0.10566000000E+00 0. -1.
        994    1    1    2    0    0 -0.15207703355E+02 -0.36447425625E+00  0.63513623535E+01  0.17199182215E+03  0.17120000000E+03 0.  0.
        998    1    1    2    0    0 -0.50504564294E+00  0.13267055129E+01  0.14739830249E+04  0.14740176297E+04  0.10000000000E+02 0. -1.
</event>
<event>
 5    1  0.1520352E-008  0.2875648E+03  0.7957747E-01  0.3989000E+00
         13   -1    0    0    0    0  0.00000000000E+00  0.00000000000E+00  0.14999999963E+04  0.15000000000E+04  0.10566000000E+00 0.  1.
        994   -1    0    0    0    0 -0.00000000000E+00 -0.00000000000E+00  0.11368683772E-12  0.17120000000E+03  0.17120000000E+03 0.  0.
         13    1    1    2    0    0 -0.17717894231E+03  0.12217215458E+03  0.63240787374E+03  0.66802555556E+03  0.10566000000E+00 0.  1.
        994    1    1    2    0    0  0.10683896751E+03 -0.77155581446E+02  0.11282310062E+03  0.24373354460E+03  0.17120000000E+03 0.  0.
        998    1    1    2    0    0  0.70339974794E+02 -0.45016573130E+02  0.75476902191E+03  0.75944089984E+03  0.10000000000E+02 0.  1.
</event>
<event>
 5    1  0.1520352E-008  0.3828174E+03  0.7957747E-01  0.3438982E+00
         13   -1    0    0    0    0  0.00000000000E+00  0.00000000000E+00  0.14999999963E+04  0.15000000000E+04  0.10566000000E+00 0.  1.
        994   -1    0    0    0    0 -0.00000000000E+00 -0.00000000000E+00  0.11368683772E-12  0.17120000000E+03  0.17120000000E+03 0.  0.
         13    1    1    2    0    0 -0.22316219094E+02 -0.18590103601E+02  0.16632123266E+03  0.16883829301E+03  0.10566000000E+00 0.  1.
        994    1    1    2    0    0 -0.71202246749E+01  0.22588349364E+02  0.45776947950E+01  0.17289108252E+03  0.17120000000E+03 0.  0.
        998    1    1    2    0    0  0.29436443769E+02 -0.39982457631E+01  0.13291010688E+04  0.13294706245E+04  0.10000000000E+02 0.  1.
</event>
<event>
 5    1  0.1520352E-008  0.3903092E+03  0.7957747E-01  0.3407463E+00
         13   -1    0    0    0    0  0.00000000000E+00  0.00000000000E+00  0.14999999963E+04  0.15000000000E+04  0.10566000000E+00 0.  1.
        994   -1    0    0    0    0 -0.00000000000E+00 -0.00000000000E+00  0.11368683772E-12  0.17120000000E+03  0.17120000000E+03 0.  0.
         13    1    1    2    0    0  0.51602176535E+02  0.25812507274E+01  0.54700028290E+02  0.75243283670E+02  0.10566000000E+00 0.  1.
        994    1    1    2    0    0 -0.20865052710E+02 -0.22038902561E+02  0.25586183383E+02  0.17574173218E+03  0.17120000000E+03 0.  0.
        998    1    1    2    0    0 -0.30737123826E+02  0.19457651833E+02  0.14197137846E+04  0.14202149841E+04  0.10000000000E+02 0.  1.
</event>
<event>
 5    1  0.1520352E-008  0.3704060E+03  0.7957747E-01  0.3494027E+00
         13   -1    0    0    0    0  0.00000000000E+00  0.00000000000E+00  0.14999999963E+04  0.15000000000E+04  0.10566000000E+00 0.  1.
        994   -1    0    0    0    0 -0.00000000000E+00 -0.00000000000E+00  0.11368683772E-12  0.17120000000E+03  0.17120000000E+03 0.  0.
         13    1    1    2    0    0  0.53021128977E+01  0.11679735503E+03  0.57560048519E+03  0.58735480270E+03  0.10566000000E+00 0.  1.
        994    1    1    2    0    0  0.30496430675E+02 -0.99099112539E+02  0.47148177672E+02  0.20562844416E+03  0.17120000000E+03 0.  0.
        998    1    1    2    0    0 -0.35798543572E+02 -0.17698242492E+02  0.87725133342E+03  0.87821675314E+03  0.10000000000E+02 0. -1.
</event>
<event>
 5    1  0.1520352E-008  0.3792783E+03  0.7957747E-01  0.3454307E+00
         13   -1    0    0    0    0  0.00000000000E+00  0.00000000000E+00  0.14999999963E+04  0.15000000000E+04  0.10566000000E+00 0.  1.
        994   -1    0    0    0    0 -0.00000000000E+00 -0.00000000000E+00  0.11368683772E-12  0.17120000000E+03  0.17120000000E+03 0.  0.
         13    1    1    2    0    0 -0.22943218182E+02 -0.13134019438E+02  0.75666512014E+02  0.80151892875E+02  0.10566000000E+00 0.  1.
        994    1    1    2    0    0  0.12878309279E+02  0.13274365916E+02  0.56449384763E+01  0.17228860952E+03  0.17120000000E+03 0.  0.
        998    1    1    2    0    0  0.10064908902E+02 -0.14034647777E+00  0.14186885458E+04  0.14187594976E+04  0.10000000000E+02 0.  1.
</event>
<event>
 5    1  0.1520352E-008  0.3758648E+03  0.7957747E-01  0.3469364E+00
         13   -1    0    0    0    0  0.00000000000E+00  0.00000000000E+00  0.14999999963E+04  0.15000000000E+04  0.10566000000E+00 0. -1.
        994   -1    0    0    0    0 -0.00000000000E+00 -0.00000000000E+00  0.11368683772E-12  0.17120000000E+03  0.17120000000E+03 0.  0.
         13    1    1    2    0    0  0.27403997492E+02 -0.41452895191E+02  0.17194760106E+03  0.17898410620E+03  0.10566000000E+00 0. -1.
        994    1    1    2    0    0 -0.32942855155E+02  0.40936835344E+02  0.15651409226E+02  0.17976502108E+03  0.17120000000E+03 0.  0.
        998    1    1    2    0    0  0.55388576629E+01  0.51605984654E+00  0.13124009860E+04  0.13124508727E+04  0.10000000000E+02 0. -1.
</event>
<event>
 5    1  0.1520352E-008  0.3837404E+03  0.7957747E-01  0.3435032E+00
         13   -1    0    0    0    0  0.00000000000E+00  0.00000000000E+00  0.14999999963E+04  0.15000000000E+04  0.10566000000E+00 0. -1.
        994   -1    0    0    0    0 -0.00000000000E+00 -0.00000000000E+00  0.11368683772E-12  0.17120000000E+03  0.17120000000E+03 0.  0.
         13    1    1    2    0    0  0.26737298718E+01  0.13242995486E+02  0.40287009078E+02  0.42492117215E+02  0.10566000000E+00 0. -1.
        994    1    1    2    0    0 -0.52642474522E+01 -0.55811690992E+01  0.24512111120E+01  0.17138935260E+03  0.17120000000E+03 0.  0.
        998    1    1    2    0    0  0.25905175804E+01 -0.76618263866E+01  0.14572617761E+04  0.14573185302E+04  0.10000000000E+02 0. -1.
</event>
<event>
 5    1  0.1520352E-008  0.3776467E+03  0.7957747E-01  0.3461470E+00
         13   -1    0    0    0    0  0.00000000000E+00  0.00000000000E+00  0.14999999963E+04  0.15000000000E+04  0.10566000000E+00 0. -1.
        994   -1    0    0    0    0 -0.00000000000E+00 -0.00000000000E+00  0.11368683772E-12  0.17120000000E+03  0.17120000000E+03 0.  0.
         13    1    1    2    0    0  0.89980814882E+01  0.15307936060E+02  0.35405224942E+01  0.18106486143E+02  0.10566000000E+00 0. -1.
        994    1    1    2    0    0 -0.22401994453E+02 -0.15999358929E+02  0.17767776691E+02  0.17430709317E+03  0.17120000000E+03 0.  0.
        998    1    1    2    0    0  0.13403912964E+02  0.69142286844E+00  0.14786916971E+04  0.14787864207E+04  0.10000000000E+02 0. -1.
</event>
<event>
 5    1  0.1520352E-008  0.3833900E+03  0.7957747E-01  0.3436529E+00
         13   -1    0    0    0    0  0.00000000000E+00  0.00000000000E+00  0.14999999963E+04  0.15000000000E+04  0.10566000000E+00 0. -1.
        994   -1    0    0    0    0 -0.00000000000E+00 -0.00000000000E+00  0.11368683772E-12  0.17120000000E+03  0.17120000000E+03 0.  0.
         13    1    1    2    0    0 -0.15391276914E+02 -0.98805402517E+01  0.69425309052E+02  0.71794158409E+02  0.10566000000E+00 0. -1.
        994    1    1    2    0    0  0.19926990056E+02 -0.14607357347E+02  0.44523252337E+01  0.17303098862E+03  0.17120000000E+03 0.  0.
        998    1    1    2    0    0 -0.45357131421E+01  0.24487897599E+02  0.14261223620E+04  0.14263748530E+04  0.10000000000E+02 0. -1.
</event>
<event>
 5    1  0.1520352E-008  0.3819821E+03  0.7957747E-01  0.3442573E+00
         13   -1    0    0    0    0  0.00000000000E+00  0.00000000000E+00  0.14999999963E+04  0.15000000000E+04  0.10566000000E+00 0.  1.
        994   -1    0    0    0    0 -0.00000000000E+00 -0.00000000000E+00  0.11368683772E-12  0.17120000000E+03  0.17120000000E+03 0.  0.
         13    1    1    2    0    0 -0.84669975584E+01 -0.20856424973E+02  0.77539969123E+02  0.80741182094E+02  0.10566000000E+00 0.  1.
        994    1    1    2    0    0  0.87573976832E+01  0.17698918903E+02  0.44320879958E+01  0.17239207391E+03  0.17120000000E+03 0.  0.
        998    1    1    2    0    0 -0.29040012482E+00  0.31575060697E+01  0.14180279392E+04  0.14180667440E+04  0.10000000000E+02 0.  1.
</event>
<event>
 5    1  0.3221016E-008  0.3862282E+03  0.7957747E-01  0.3424480E+00
         13   -1    0    0    0    0  0.00000000000E+00  0.00000000000E+00  0.14999999963E+04  0.15000000000E+04  0.10566000000E+00 0.  1.
        994   -1    0    0    0    0 -0.00000000000E+00 -0.00000000000E+00  0.11368683772E-12  0.17120000000E+03  0.17120000000E+03 0.  0.
         13    1    1    2    0    0  0.16844029655E+01 -0.10039154541E+02  0.50173122008E+02  0.51195460475E+02  0.10566000000E+00 0.  1.
        994    1    1    2    0    0 -0.29506749435E+01  0.10355332782E+02  0.14014411329E+01  0.17154399855E+03  0.17120000000E+03 0.  0.
        998    1    1    2    0    0  0.12662719780E+01 -0.31617824114E+00  0.14484254331E+04  0.14484605410E+04  0.10000000000E+02 0.  1.
</event>
<event>
 5    1  0.1520352E-008  0.3840996E+03  0.7957747E-01  0.3433500E+00
         13   -1    0    0    0    0  0.00000000000E+00  0.00000000000E+00  0.14999999963E+04  0.15000000000E+04  0.10566000000E+00 0. -1.
        994   -1    0    0    0    0 -0.00000000000E+00 -0.00000000000E+00  0.11368683772E-12  0.17120000000E+03  0.17120000000E+03 0.  0.
         13    1    1    2    0    0  0.13206535271E+02 -0.51857205626E+01  0.50447289280E+02  0.52404622232E+02  0.10566000000E+00 0. -1.
        994    1    1    2    0    0 -0.19780586277E+01 -0.60177851325E+01  0.22101953155E+01  0.17133140815E+03  0.17120000000E+03 0.  0.
        998    1    1    2    0    0 -0.11228476643E+02  0.11203505695E+02  0.14473425117E+04  0.14474639696E+04  0.10000000000E+02 0. -1.
</event>
<event>
 5    1  0.1520352E-008  0.3850308E+03  0.7957747E-01  0.3429542E+00
         13   -1    0    0    0    0  0.00000000000E+00  0.00000000000E+00  0.14999999963E+04  0.15000000000E+04  0.10566000000E+00 0.  1.
        994   -1    0    0    0    0 -0.00000000000E+00 -0.00000000000E+00  0.11368683772E-12  0.17120000000E+03  0.17120000000E+03 0.  0.
         13    1    1    2    0    0 -0.14997808951E+02  0.24091187181E+01 -0.23653637292E+01  0.15373491339E+02  0.10566000000E+00 0.  1.
        994    1    1    2    0    0 -0.28286842940E+02 -0.20220968618E+02  0.23594772984E+02  0.17628155425E+03  0.17120000000E+03 0.  0.
        998    1    1    2    0    0  0.43284651892E+02  0.17811849900E+02  0.14787705870E+04  0.14795449544E+04  0.10000000000E+02 0.  1.
</event>
<event>
 5    1  0.1520352E-008  0.3809280E+03  0.7957747E-01  0.3447128E+00
         13   -1    0    0    0    0  0.00000000000E+00  0.00000000000E+00  0.14999999963E+04  0.15000000000E+04  0.10566000000E+00 0.  1.
        994   -1    0    0    0    0 -0.00000000000E+00 -0.00000000000E+00  0.11368683772E-12  0.17120000000E+03  0.17120000000E+03 0.  0.
         13    1    1    2    0    0  0.93341703751E+01 -0.41870580345E+02  0.22748978453E+03  0.23149921267E+03  0.10566000000E+00 0.  1.
        994    1    1    2    0    0 -0.48734325610E+01  0.35741642618E+02  0.80141474405E+01  0.17514246179E+03  0.17120000000E+03 0.  0.
        998    1    1    2    0    0 -0.44607378141E+01  0.61289377273E+01  0.12644960643E+04  0.12645583255E+04  0.10000000000E+02 0.  1.
</event>
<event>
 5    1  0.1520352E-008  0.3817707E+03  0.7957747E-01  0.3443485E+00
         13   -1    0    0    0    0  0.00000000000E+00  0.00000000000E+00  0.14999999963E+04  0.15000000000E+04  0.10566000000E+00 0.  1.
        994   -1    0    0    0    0 -0.00000000000E+00 -0.00000000000E+00  0.11368683772E-12  0.17120000000E+03  0.17120000000E+03 0.  0.
         13    1    1    2    0    0  0.21351320879E+02 -0.22461259059E+01  0.66587613716E+02  0.69963172093E+02  0.10566000000E+00 0.  1.
        994    1    1    2    0    0 -0.24761397162E+02 -0.24542061674E+01  0.53024272370E+01  0.17308005562E+03  0.17120000000E+03 0.  0.
        998    1    1    2    0    0  0.34100762826E+01  0.47003320733E+01  0.14281099553E+04  0.14281567723E+04  0.10000000000E+02 0.  1.
</event>
<event>
 5    1  0.1520352E-008  0.3849043E+03  0.7957747E-01  0.3430078E+00
         13   -1    0    0    0    0  0.00000000000E+00  0.00000000000E+00  0.14999999963E+04  0.15000000000E+04  0.10566000000E+00 0.  1.
        994   -1    0    0    0    0 -0.00000000000E+00 -0.00000000000E+00  0.11368683772E-12  0.17120000000E+03  0.17120000000E+03 0.  0.
         13    1    1    2    0    0 -0.45856658350E+01 -0.13367930785E+02  0.60944895055E+02  0.62562139525E+02  0.10566000000E+00 0.  1.
        994    1    1    2    0    0  0.14534882918E+02  0.86384528566E+00  0.23753909695E+01  0.17183448877E+03  0.17120000000E+03 0.  0.
        998    1    1    2    0    0 -0.99492170826E+01  0.12504085499E+02  0.14366797103E+04  0.14368033717E+04  0.10000000000E+02 0.  1.
</event>
<event>
 5    1  0.1520352E-008  0.3879989E+03  0.7957747E-01  0.3417052E+00
         13   -1    0    0    0    0  0.00000000000E+00  0.00000000000E+00  0.14999999963E+04  0.15000000000E+04  0.10566000000E+00 0. -1.
        994   -1    0    0    0    0 -0.00000000000E+00 -0.00000000000E+00  0.11368683772E-12  0.17120000000E+03  0.17120000000E+03 0.  0.
         13    1    1    2    0    0 -0.89250799005E+02  0.54381834889E+02  0.32393226515E+03  0.34037510582E+03  0.10566000000E+00 0. -1.
        994    1    1    2    0    0  0.47708187774E+01 -0.28828123683E+02  0.23986209171E+02  0.17532427002E+03  0.17120000000E+03 0.  0.
        998    1    1    2    0    0  0.84479980228E+02 -0.25553711206E+02  0.11520815220E+04  0.11555006242E+04  0.10000000000E+02 0. -1.
</event>
<event>
 5    1  0.1520352E-008  0.3767198E+03  0.7957747E-01  0.3465567E+00
         13   -1    0    0    0    0  0.00000000000E+00  0.00000000000E+00  0.14999999963E+04  0.15000000000E+04  0.10566000000E+00 0.  1.
        994   -1    0    0    0    0 -0.00000000000E+00 -0.00000000000E+00  0.11368683772E-12  0.17120000000E+03  0.17120000000E+03 0.  0.
         13    1    1    2    0    0 -0.93076762126E+01 -0.17532966259E+02  0.30999251854E+02  0.36810358893E+02  0.10566000000E+00 0.  1.
        994    1    1    2    0    0  0.81752472484E+01  0.18849773318E+02  0.72261951263E+01  0.17257985548E+03  0.17120000000E+03 0.  0.
        998    1    1    2    0    0  0.11324289641E+01 -0.13168070590E+01  0.14617745493E+04  0.14618097856E+04  0.10000000000E+02 0.  1.
</event>
<event>
 5    1  0.1520352E-008  0.3860151E+03  0.7957747E-01  0.3425379E+00
         13   -1    0    0    0    0  0.00000000000E+00  0.00000000000E+00  0.14999999963E+04  0.15000000000E+04  0.10566000000E+00 0. -1.
        994   -1    0    0    0    0 -0.00000000000E+00 -0.00000000000E+00  0.11368683772E-12  0.17120000000E+03  0.17120000000E+03 0.  0.
         13    1    1    2    0    0  0.71700109903E+01  0.93927797518E+01  0.60349836994E+02  0.61495913346E+02  0.10566000000E+00 0. -1.
        994    1    1    2    0    0 -0.75624213316E+01 -0.10782739011E+02  0.16957892184E+01  0.17171422008E+03  0.17120000000E+03 0.  0.
        998    1    1    2    0    0  0.39241034125E+00  0.13899592597E+01  0.14379543701E+04  0.14379898666E+04  0.10000000000E+02 0. -1.
</event>
<event>
 5    1  0.1520352E-008  0.3786855E+03  0.7957747E-01  0.3456902E+00
         13   -1    0    0    0    0  0.00000000000E+00  0.00000000000E+00  0.14999999963E+04  0.15000000000E+04  0.10566000000E+00 0.  1.
        994   -1    0    0    0    0 -0.00000000000E+00 -0.00000000000E+00  0.11368683772E-12  0.17120000000E+03  0.17120000000E+03 0.  0.
         13    1    1    2    0    0  0.66298698481E+00  0.26587550026E+02  0.69142227418E+02  0.74081010688E+02  0.10566000000E+00 0.  1.
        994    1    1    2    0    0  0.82277946986E+01 -0.26798080774E+02  0.74410936210E+01  0.17363940686E+03  0.17120000000E+03 0.  0.
        998    1    1    2    0    0 -0.88907816834E+01  0.21053074736E+00  0.14234166752E+04  0.14234795825E+04  0.10000000000E+02 0.  1.
</event>
<event>
 5    1  0.1520352E-008  0.3805054E+03  0.7957747E-01  0.3448961E+00
         13   -1    0    0    0    0  0.00000000000E+00  0.00000000000E+00  0.14999999963E+04  0.15000000000E+04  0.10566000000E+00 0.  1.
        994   -1    0    0    0    0 -0.00000000000E+00 -0.00000000000E+00  0.11368683772E-12  0.17120000000E+03  0.17120000000E+03 0.  0.
         13    1    1    2    0    0 -0.93078113466E+01  0.20306563539E+02  0.61708534701E+02  0.65627328864E+02  0.10566000000E+00 0.  1.
        994    1    1    2    0    0  0.25556287815E+01 -0.19727630252E+02  0.51999500387E+01  0.17243024710E+03  0.17120000000E+03 0.  0.
        998    1    1    2    0    0  0.67521825650E+01 -0.57893328706E+00  0.14330915115E+04  0.14331424240E+04  0.10000000000E+02 0.  1.
</event>
<event>
 5    1  0.1520352E-008  0.3789071E+03  0.7957747E-01  0.3455931E+00
         13   -1    0    0    0    0  0.00000000000E+00  0.00000000000E+00  0.14999999963E+04  0.15000000000E+04  0.10566000000E+00 0. -1.
        994   -1    0    0    0    0 -0.00000000000E+00 -0.00000000000E+00  0.11368683772E-12  0.17120000000E+03  0.17120000000E+03 0.  0.
         13    1    1    2    0    0  0.20027458188E+01  0.12413065859E+02  0.14679436889E+02  0.19328533992E+02  0.10566000000E+00 0. -1.
        994    1    1    2    0    0 -0.12389571871E+02 -0.11452872795E+02  0.56415154965E+01  0.17212186521E+03  0.17120000000E+03 0.  0.
        998    1    1    2    0    0  0.10386826053E+02 -0.96019306406E+00  0.14796790439E+04  0.14797496008E+04  0.10000000000E+02 0. -1.
</event>
<event>
 5    1  0.1520352E-008  0.3848252E+03  0.7957747E-01  0.3430414E+00
         13   -1    0    0    0    0  0.00000000000E+00  0.00000000000E+00  0.14999999963E+04  0.15000000000E+04  0.10566000000E+00 0. -1.
        994   -1    0    0    0    0 -0.00000000000E+00 -0.00000000000E+00  0.11368683772E-12  0.17120000000E+03  0.17120000000E+03 0.  0.
         13    1    1    2    0    0 -0.82834554563E+01 -0.70346883431E+01  0.34282283848E+02  0.35963712604E+02  0.10566000000E+00 0. -1.
        994    1    1    2    0    0  0.21414284973E+01  0.74388331235E+01  0.19141291434E+01  0.17138560571E+03  0.17120000000E+03 0.  0.
        998    1    1    2    0    0  0.61420269591E+01 -0.40414478041E+00  0.14638035833E+04  0.14638506817E+04  0.10000000000E+02 0. -1.
</event>
<event>
 5    1  0.1846534E-008  0.3858164E+03  0.7957747E-01  0.3426217E+00
         13   -1    0    0    0    0  0.00000000000E+00  0.00000000000E+00  0.14999999963E+04  0.15000000000E+04  0.10566000000E+00 0.  1.
        994   -1    0    0    0    0 -0.00000000000E+00 -0.00000000000E+00  0.11368683772E-12  0.17120000000E+03  0.17120000000E+03 0.  0.
         13    1    1    2    0    0  0.12215075495E+02 -0.17044290037E+01  0.64893042078E+02  0.66054759267E+02  0.10566000000E+00 0.  1.
        994    1    1    2    0    0 -0.35440063075E+01 -0.11490477431E+01  0.12708913057E+01  0.17124524944E+03  0.17120000000E+03 0.  0.
        998    1    1    2    0    0 -0.86710691876E+01  0.28534767468E+01  0.14338360629E+04  0.14338999913E+04  0.10000000000E+02 0.  1.
</event>
<event>
 5    1  0.1520352E-008  0.3845711E+03  0.7957747E-01  0.3431493E+00
         13   -1    0    0    0    0  0.00000000000E+00  0.00000000000E+00  0.14999999963E+04  0.15000000000E+04  0.10566000000E+00 0.  1.
        994   -1    0    0    0    0 -0.00000000000E+00 -0.00000000000E+00  0.11368683772E-12  0.17120000000E+03  0.17120000000E+03 0.  0.
         13    1    1    2    0    0 -0.12705921609E+01  0.12738087622E+02  0.42920223024E+02  0.44788726139E+02  0.10566000000E+00 0.  1.
        994    1    1    2    0    0 -0.46420317762E+01 -0.15017222994E+02  0.26572705863E+01  0.17194059012E+03  0.17120000000E+03 0.  0.
        998    1    1    2    0    0  0.59126239371E+01  0.22791353719E+01  0.14544225027E+04  0.14544706837E+04  0.10000000000E+02 0.  1.
</event>
<event>
 5    1  0.1520352E-008  0.3787244E+03  0.7957747E-01  0.3456732E+00
         13   -1    0    0    0    0  0.00000000000E+00  0.00000000000E+00  0.14999999963E+04  0.15000000000E+04  0.10566000000E+00 0. -1.
        994   -1    0    0    0    0 -0.00000000000E+00 -0.00000000000E+00  0.11368683772E-12  0.17120000000E+03  0.17120000000E+03 0.  0.
         13    1    1    2    0    0 -0.45834257139E+02 -0.95187210626E+01  0.20819080280E+03  0.21338886267E+03  0.10566000000E+00 0. -1.
        994    1    1    2    0    0  0.39307191385E+02  0.61651431474E+01  0.10111311250E+02  0.17605323882E+03  0.17120000000E+03 0.  0.
        998    1    1    2    0    0  0.65270657540E+01  0.33535779152E+01  0.12816978822E+04  0.12817578985E+04  0.10000000000E+02 0. -1.
</event>
<event>
 5    1  0.1520352E-008  0.3857955E+03  0.7957747E-01  0.3426305E+00
         13   -1    0    0    0    0  0.00000000000E+00  0.00000000000E+00  0.14999999963E+04  0.15000000000E+04  0.10566000000E+00 0. -1.
        994   -1    0    0    0    0 -0.00000000000E+00 -0.00000000000E+00  0.11368683772E-12  0.17120000000E+03  0.17120000000E+03 0.  0.
         13    1    1    2    0    0 -0.36945222945E+00 -0.10427669929E+02  0.44128680622E+02  0.45345610731E+02  0.10566000000E+00 0. -1.
        994    1    1    2    0    0 -0.31848344558E+01  0.82137595577E+01  0.14903228830E+01  0.17143299005E+03  0.17120000000E+03 0.  0.
        998    1    1    2    0    0  0.35542866853E+01  0.22139103710E+01  0.14543809928E+04  0.14544213992E+04  0.10000000000E+02 0. -1.
</event>
<event>
 5    1  0.1520352E-008  0.3828167E+03  0.7957747E-01  0.3438985E+00
         13   -1    0    0    0    0  0.00000000000E+00  0.00000000000E+00  0.14999999963E+04  0.15000000000E+04  0.10566000000E+00 0.  1.
        994   -1    0    0    0    0 -0.00000000000E+00 -0.00000000000E+00  0.11368683772E-12  0.17120000000E+03  0.17120000000E+03 0.  0.
         13    1    1    2    0    0 -0.29820849252E+01 -0.17558559524E+02  0.68336655109E+02  0.70619440940E+02  0.10566000000E+00 0.  1.
        994    1    1    2    0    0  0.35070887129E+02 -0.25959810544E+02  0.90495896190E+01  0.17690453346E+03  0.17120000000E+03 0.  0.
        998    1    1    2    0    0 -0.32088802204E+02  0.43518370068E+02  0.14226137516E+04  0.14236760256E+04  0.10000000000E+02 0.  1.
</event>
<event>
 5    1  0.1520352E-008  0.3794217E+03  0.7957747E-01  0.3453680E+00
         13   -1    0    0    0    0  0.00000000000E+00  0.00000000000E+00  0.14999999963E+04  0.15000000000E+04  0.10566000000E+00 0.  1.
        994   -1    0    0    0    0 -0.00000000000E+00 -0.00000000000E+00  0.11368683772E-12  0.17120000000E+03  0.17120000000E+03 0.  0.
         13    1    1    2    0    0 -0.83147131678E+01 -0.23247598592E+02  0.11989116198E+02  0.27446955507E+02  0.10566000000E+00 0.  1.
        994    1    1    2    0    0  0.10425847672E+02  0.22630993782E+02  0.18258024058E+02  0.17396452403E+03  0.17120000000E+03 0.  0.
        998    1    1    2    0    0 -0.21111345040E+01  0.61660480989E+00  0.14697528560E+04  0.14697885205E+04  0.10000000000E+02 0.  1.
</event>
<event>
 5    1  0.1520352E-008  0.3769706E+03  0.7957747E-01  0.3464456E+00
         13   -1    0    0    0    0  0.00000000000E+00  0.00000000000E+00  0.14999999963E+04  0.15000000000E+04  0.10566000000E+00 0.  1.
        994   -1    0    0    0    0 -0.00000000000E+00 -0.00000000000E+00  0.11368683772E-12  0.17120000000E+03  0.17120000000E+03 0.  0.
         13    1    1    2    0    0  0.45431781835E+02 -0.30260190298E+02  0.20846286205E+03  0.21549130362E+03  0.10566000000E+00 0.  1.
        994    1    1    2    0    0 -0.56697739724E+02  0.34954560397E+02  0.20800866291E+02  0.18487447369E+03  0.17120000000E+03 0.  0.
        998    1    1    2    0    0  0.11265957888E+02 -0.46943700999E+01  0.12707362679E+04  0.12708342227E+04  0.10000000000E+02 0.  1.
</event>
<event>
 5    1  0.1520352E-008  0.3821495E+03  0.7957747E-01  0.3441852E+00
         13   -1    0    0    0    0  0.00000000000E+00  0.00000000000E+00  0.14999999963E+04  0.15000000000E+04  0.10566000000E+00 0.  1.
        994   -1    0    0    0    0 -0.00000000000E+00 -0.00000000000E+00  0.11368683772E-12  0.17120000000E+03  0.17120000000E+03 0.  0.
         13    1    1    2    0    0 -0.30208816733E+02 -0.77132551237E+01  0.17737755450E+03  0.18009684871E+03  0.10566000000E+00 0.  1.
        994    1    1    2    0    0  0.24020437016E+01  0.83224615955E+01  0.33011051345E+01  0.17145078150E+03  0.17120000000E+03 0.  0.
        998    1    1    2    0    0  0.27806773031E+02 -0.60920647180E+00  0.13193213366E+04  0.13196523698E+04  0.10000000000E+02 0.  1.
</event>
<event>
 5    1  0.1520352E-008  0.3839266E+03  0.7957747E-01  0.3434237E+00
         13   -1    0    0    0    0  0.00000000000E+00  0.00000000000E+00  0.14999999963E+04  0.15000000000E+04  0.10566000000E+00 0. -1.
        994   -1    0    0    0    0 -0.00000000000E+00 -0.00000000000E+00  0.11368683772E-12  0.17120000000E+03  0.17120000000E+03 0.  0.
         13    1    1    2    0    0 -0.20397177263E+02 -0.48760053123E+01  0.10911131122E+03  0.11110854904E+03  0.10566000000E+00 0. -1.
        994    1    1    2    0    0  0.33231330014E+01 -0.20477477390E+01  0.22142639782E+01  0.17125880838E+03  0.17120000000E+03 0.  0.
        998    1    1    2    0    0  0.17074044261E+02  0.69237530513E+01  0.13886744211E+04  0.13888326426E+04  0.10000000000E+02 0. -1.
</event>
<event>
 5    1  0.1520352E-008  0.3849716E+03  0.7957747E-01  0.3429793E+00
         13   -1    0    0    0    0  0.00000000000E+00  0.00000000000E+00  0.14999999963E+04  0.15000000000E+04  0.10566000000E+00 0. -1.
        994   -1    0    0    0    0 -0.00000000000E+00 -0.00000000000E+00  0.11368683772E-12  0.17120000000E+03  0.17120000000E+03 0.  0.
         13    1    1    2    0    0 -0.10076256966E+02  0.19498496669E+01  0.35844837901E+02  0.37285338088E+02  0.10566000000E+00 0. -1.
        994    1    1    2    0    0 -0.18183755010E+02 -0.10331257362E+01  0.27360125848E+01  0.17218781043E+03  0.17120000000E+03 0.  0.
        998    1    1    2    0    0  0.28260011976E+02 -0.91672393073E+00  0.14614191458E+04  0.14617268515E+04  0.10000000000E+02 0. -1.
</event>
<event>
 5    1  0.1520352E-008  0.3689037E+03  0.7957747E-01  0.3500945E+00
         13   -1    0    0    0    0  0.00000000000E+00  0.00000000000E+00  0.14999999963E+04  0.15000000000E+04  0.10566000000E+00 0. -1.
        994   -1    0    0    0    0 -0.00000000000E+00 -0.00000000000E+00  0.11368683772E-12  0.17120000000E+03  0.17120000000E+03 0.  0.
         13    1    1    2    0    0  0.66840918390E+02 -0.66076968105E+02  0.43439385817E+03  0.44444562014E+03  0.10566000000E+00 0. -1.
        994    1    1    2    0    0 -0.31915551476E+02  0.49723452564E+02  0.22059455981E+02  0.18244748219E+03  0.17120000000E+03 0.  0.
        998    1    1    2    0    0 -0.34925366914E+02  0.16353515541E+02  0.10435466821E+04  0.10443068977E+04  0.10000000000E+02 0.  1.
</event>
<event>
 5    1  0.1520352E-008  0.3751090E+03  0.7957747E-01  0.3472735E+00
         13   -1    0    0    0    0  0.00000000000E+00  0.00000000000E+00  0.14999999963E+04  0.15000000000E+04  0.10566000000E+00 0.  1.
        994   -1    0    0    0    0 -0.00000000000E+00 -0.00000000000E+00  0.11368683772E-12  0.17120000000E+03  0.17120000000E+03 0.  0.
         13    1    1    2    0    0  0.20844794982E+02  0.17171766584E+02  0.56918387559E+02  0.63000706756E+02  0.10566000000E+00 0.  1.
        994    1    1    2    0    0  0.97951965841E+01 -0.15445726462E+01  0.69569412964E+01  0.17162800067E+03  0.17120000000E+03 0.  0.
        998    1    1    2    0    0 -0.30639991566E+02 -0.15627193938E+02  0.14361246674E+04  0.14365712926E+04  0.10000000000E+02 0.  1.
</event>
<event>
 5    1  0.1520352E-008  0.3921607E+03  0.7957747E-01  0.3399859E+00
         13   -1    0    0    0    0  0.00000000000E+00  0.00000000000E+00  0.14999999963E+04  0.15000000000E+04  0.10566000000E+00 0.  1.
        994   -1    0    0    0    0 -0.00000000000E+00 -0.00000000000E+00  0.11368683772E-12  0.17120000000E+03  0.17120000000E+03 0.  0.
         13    1    1    2    0    0 -0.10513707446E+03  0.78097373679E+02  0.30009860865E+03  0.32743272634E+03  0.10566000000E+00 0.  1.
        994    1    1    2    0    0  0.61652569131E+02 -0.11917044862E+03  0.95253499603E+02  0.23745589968E+03  0.17120000000E+03 0.  0.
        998    1    1    2    0    0  0.43484505327E+02  0.41073074937E+02  0.11046478880E+04  0.11063113740E+04  0.10000000000E+02 0.  1.
</event>
<event>
 5    1  0.1520352E-008  0.3827786E+03  0.7957747E-01  0.3439148E+00
         13   -1    0    0    0    0  0.00000000000E+00  0.00000000000E+00  0.14999999963E+04  0.15000000000E+04  0.10566000000E+00 0. -1.
        994   -1    0    0    0    0 -0.00000000000E+00 -0.00000000000E+00  0.11368683772E-12  0.17120000000E+03  0.17120000000E+03 0.  0.
         13    1    1    2    0    0  0.10563032986E+02 -0.61297213557E+01  0.27199631342E+02  0.29815805522E+02  0.10566000000E+00 0. -1.
        994    1    1    2    0    0 -0.34866009732E+01 -0.94045211693E+01  0.30703581612E+01  0.17152104391E+03  0.17120000000E+03 0.  0.
        998    1    1    2    0    0 -0.70764320125E+01  0.15534242525E+02  0.14697300068E+04  0.14698631506E+04  0.10000000000E+02 0. -1.
</event>
<event>
 5    1  0.1520352E-008  0.3712660E+03  0.7957747E-01  0.3490093E+00
         13   -1    0    0    0    0  0.00000000000E+00  0.00000000000E+00  0.14999999963E+04  0.15000000000E+04  0.10566000000E+00 0.  1.
        994   -1    0    0    0    0 -0.00000000000E+00 -0.00000000000E+00  0.11368683772E-12  0.17120000000E+03  0.17120000000E+03 0.  0.
         13    1    1    2    0    0  0.46575165772E+00  0.83480956508E+02  0.38438533145E+03  0.39334638834E+03  0.10566000000E+00 0.  1.
        994    1    1    2    0    0  0.93837768164E+01 -0.12867453829E+02  0.12500923123E+02  0.17239298047E+03  0.17120000000E+03 0.  0.
        998    1    1    2    0    0 -0.98495284741E+01 -0.70613502679E+02  0.11031137417E+04  0.11054606312E+04  0.10000000000E+02 0.  1.
</event>
<event>
 5    1  0.1520352E-008  0.3857318E+03  0.7957747E-01  0.3426575E+00
         13   -1    0    0    0    0  0.00000000000E+00  0.00000000000E+00  0.14999999963E+04  0.15000000000E+04  0.10566000000E+00 0.  1.
        994   -1    0    0    0    0 -0.00000000000E+00 -0.00000000000E+00  0.11368683772E-12  0.17120000000E+03  0.17120000000E+03 0.  0.
         13    1    1    2    0    0 -0.13328338807E+02 -0.73495869945E+01  0.90253706510E+02  0.91528158220E+02  0.10566000000E+00 0.  1.
        994    1    1    2    0    0  0.17700065569E+02 -0.59941894131E+01  0.24138441318E+01  0.17223382151E+03  0.17120000000E+03 0.  0.
        998    1    1    2    0    0 -0.43717267617E+01  0.13343776408E+02  0.14073324456E+04  0.14074380203E+04  0.10000000000E+02 0.  1.
</event>
<event>
 5    1  0.1520352E-008  0.3902937E+03  0.7957747E-01  0.3407527E+00
         13   -1    0    0    0    0  0.00000000000E+00  0.00000000000E+00  0.14999999963E+04  0.15000000000E+04  0.10566000000E+00 0. -1.
        994   -1    0    0    0    0 -0.00000000000E+00 -0.00000000000E+00  0.11368683772E-12  0.17120000000E+03  0.17120000000E+03 0.  0.
         13    1    1    2    0    0  0.11246391774E+03  0.39034284378E+02  0.37603798821E+03  0.39443172780E+03  0.10566000000E+00 0. -1.
        994    1    1    2    0    0 -0.37660741417E+02 -0.13071056184E+02  0.28109520810E+02  0.17801339588E+03  0.17120000000E+03 0.  0.
        998    1    1    2    0    0 -0.74803176328E+02 -0.25963228194E+02  0.10958524873E+04  0.10987548763E+04  0.10000000000E+02 0. -1.
</event>
<event>
 5    1  0.1520352E-008  0.3822710E+03  0.7957747E-01  0.3441329E+00
         13   -1    0    0    0    0  0.00000000000E+00  0.00000000000E+00  0.14999999963E+04  0.15000000000E+04  0.10566000000E+00 0. -1.
        994   -1    0    0    0    0 -0.00000000000E+00 -0.00000000000E+00  0.11368683772E-12  0.17120000000E+03  0.17120000000E+03 0.  0.
         13    1    1    2    0    0  0.27537550196E+02 -0.42868699765E+01  0.12128155591E+03  0.12444244008E+03  0.10566000000E+00 0. -1.
        994    1    1    2    0    0 -0.27426720822E+02 -0.52789738032E+01  0.55838111592E+01  0.17355319509E+03  0.17120000000E+03 0.  0.
        998    1    1    2    0    0 -0.11082937319E+00  0.95658437798E+01  0.13731346292E+04  0.13732043648E+04  0.10000000000E+02 0. -1.
</event>
<event>
 5    1  0.1520352E-008  0.3840447E+03  0.7957747E-01  0.3433734E+00
         13   -1    0    0    0    0  0.00000000000E+00  0.00000000000E+00  0.14999999963E+04  0.15000000000E+04  0.10566000000E+00 0. -1.
        994   -1    0    0    0    0 -0.00000000000E+00 -0.00000000000E+00  0.11368683772E-12  0.17120000000E+03  0.17120000000E+03 0.  0.
         13    1    1    2    0    0  0.10016688681E+01 -0.18674442573E+02  0.89262775556E+02  0.91200835577E+02  0.10566000000E+00 0. -1.
        994    1    1    2    0    0  0.21039126839E+01  0.52931332914E+00  0.21207142995E+01  0.17122687888E+03  0.17120000000E+03 0.  0.
        998    1    1    2    0    0 -0.31055815520E+01  0.18145129244E+02  0.14086165064E+04  0.14087722855E+04  0.10000000000E+02 0. -1.
</event>
<event>
 5    1  0.1520352E-008  0.3828984E+03  0.7957747E-01  0.3438634E+00
         13   -1    0    0    0    0  0.00000000000E+00  0.00000000000E+00  0.14999999963E+04  0.15000000000E+04  0.10566000000E+00 0. -1.
        994   -1    0    0    0    0 -0.00000000000E+00 -0.00000000000E+00  0.11368683772E-12  0.17120000000E+03  0.17120000000E+03 0.  0.
         13    1    1    2    0    0  0.17271660170E+02  0.11354209205E+02  0.91485332917E+02  0.93791287520E+02  0.10566000000E+00 0. -1.
        994    1    1    2    0    0  0.23695620678E+01  0.15995293131E+02  0.35433860325E+01  0.17199842968E+03  0.17120000000E+03 0.  0.
        998    1    1    2    0    0 -0.19641222237E+02 -0.27349502335E+02  0.14049712773E+04  0.14054102828E+04  0.10000000000E+02 0. -1.
</event>
<event>
 5    1  0.1520352E-008  0.3806761E+03  0.7957747E-01  0.3448220E+00
         13   -1    0    0    0    0  0.00000000000E+00  0.00000000000E+00  0.14999999963E+04  0.15000000000E+04  0.10566000000E+00 0.  1.
        994   -1    0    0    0    0 -0.00000000000E+00 -0.00000000000E+00  0.11368683772E-12  0.17120000000E+03  0.17120000000E+03 0.  0.
         13    1    1    2    0    0  0.18989643133E+02 -0.14338752321E+02  0.70943124061E+02  0.74827430666E+02  0.10566000000E+00 0.  1.
        994    1    1    2    0    0 -0.10572240956E+02  0.23124570863E+02  0.59516443578E+01  0.17318019554E+03  0.17120000000E+03 0.  0.
        998    1    1    2    0    0 -0.84174021767E+01 -0.87858185429E+01  0.14231052279E+04  0.14231923738E+04  0.10000000000E+02 0.  1.
</event>
<event>
 5    1  0.1520352E-008  0.3719219E+03  0.7957747E-01  0.3487104E+00
         13   -1    0    0    0    0  0.00000000000E+00  0.00000000000E+00  0.14999999963E+04  0.15000000000E+04  0.10566000000E+00 0.  1.
        994   -1    0    0    0    0 -0.00000000000E+00 -0.00000000000E+00  0.11368683772E-12  0.17120000000E+03  0.17120000000E+03 0.  0.
         13    1    1    2    0    0  0.13603645420E+02  0.36262320783E+01  0.27097592530E+01  0.14337457482E+02  0.10566000000E+00 0.  1.
        994    1    1    2    0    0 -0.16382379411E+02 -0.11075666785E+02  0.13336231331E+02  0.17285354441E+03  0.17120000000E+03 0.  0.
        998    1    1    2    0    0  0.27787339908E+01  0.74494347066E+01  0.14839540057E+04  0.14840089981E+04  0.10000000000E+02 0.  1.
</event>
<event>
 5    1  0.1520352E-008  0.3692027E+03  0.7957747E-01  0.3499563E+00
         13   -1    0    0    0    0  0.00000000000E+00  0.00000000000E+00  0.14999999963E+04  0.15000000000E+04  0.10566000000E+00 0. -1.
        994   -1    0    0    0    0 -0.00000000000E+00 -0.00000000000E+00  0.11368683772E-12  0.17120000000E+03  0.17120000000E+03 0.  0.
         13    1    1    2    0    0 -0.14752116882E+02 -0.11259214855E+02  0.13020868203E+02  0.22670444293E+02  0.10566000000E+00 0. -1.
        994    1    1    2    0    0  0.49669115513E+02 -0.20850740511E+02  0.19815742708E+02  0.18056543987E+03  0.17120000000E+03 0.  0.
        998    1    1    2    0    0 -0.34916998631E+02  0.32109955367E+02  0.14671633854E+04  0.14679641158E+04  0.10000000000E+02 0. -1.
</event>
<event>
 5    1  0.1520352E-008  0.3738874E+03  0.7957747E-01  0.3478214E+00
         13   -1    0    0    0    0  0.00000000000E+00  0.00000000000E+00  0.14999999963E+04  0.15000000000E+04  0.10566000000E+00 0. -1.
        994   -1    0    0    0    0 -0.00000000000E+00 -0.00000000000E+00  0.11368683772E-12  0.17120000000E+03  0.17120000000E+03 0.  0.
         13    1    1    2    0    0 -0.12140883848E+02 -0.73160713197E+01  0.10465273650E+02  0.17619848943E+02  0.10566000000E+00 0. -1.
        994    1    1    2    0    0  0.12527891532E+02  0.10629105145E+02  0.81726779468E+01  0.17218059881E+03  0.17120000000E+03 0.  0.
        998    1    1    2    0    0 -0.38700768416E+00 -0.33130338253E+01  0.14813620447E+04  0.14813995522E+04  0.10000000000E+02 0. -1.
</event>
<event>
 5    1  0.1520352E-008  0.3856415E+03  0.7957747E-01  0.3426956E+00
         13   -1    0    0    0    0  0.00000000000E+00  0.00000000000E+00  0.14999999963E+04  0.15000000000E+04  0.10566000000E+00 0. -1.
        994   -1    0    0    0    0 -0.00000000000E+00 -0.00000000000E+00  0.11368683772E-12  0.17120000000E+03  0.17120000000E+03 0.  0.
         13    1    1    2    0    0  0.11319770750E+02 -0.88161761656E+00  0.45969769989E+02  0.47351297514E+02  0.10566000000E+00 0. -1.
        994    1    1    2    0    0 -0.20712206638E+02 -0.70700410108E+01  0.28855015853E+01  0.17261734300E+03  0.17120000000E+03 0.  0.
        998    1    1    2    0    0  0.93924358880E+01  0.79516586274E+01  0.14511447247E+04  0.14512313595E+04  0.10000000000E+02 0. -1.
</event>
<event>
 5    1  0.1520352E-008  0.2133603E+03  0.7957747E-01  0.4810461E+00
         13   -1    0    0    0    0  0.00000000000E+00  0.00000000000E+00  0.14999999963E+04  0.15000000000E+04  0.10566000000E+00 0. -1.
        994   -1    0    0    0    0 -0.00000000000E+00 -0.00000000000E+00  0.11368683772E-12  0.17120000000E+03  0.17120000000E+03 0.  0.
         13    1    1    2    0    0  0.63842963592E+02  0.55170442794E+02  0.19116935307E+02  0.86516877763E+02  0.10566000000E+00 0. -1.
        994    1    1    2    0    0 -0.68193338408E+02 -0.56483942700E+02  0.12714990321E+03  0.23090540287E+03  0.17120000000E+03 0.  0.
        998    1    1    2    0    0  0.43503748155E+01  0.13134999061E+01  0.13537331578E+04  0.13537777194E+04  0.10000000000E+02 0. -1.
</event>
<event>
 5    1  0.1520352E-008  0.3712087E+03  0.7957747E-01  0.3490354E+00
         13   -1    0    0    0    0  0.00000000000E+00  0.00000000000E+00  0.14999999963E+04  0.15000000000E+04  0.10566000000E+00 0.  1.
        994   -1    0    0    0    0 -0.00000000000E+00 -0.00000000000E+00  0.11368683772E-12  0.17120000000E+03  0.17120000000E+03 0.  0.
         13    1    1    2    0    0  0.21055578585E+02 -0.31367494627E+02  0.88366591491E+02  0.96103708380E+02  0.10566000000E+00 0.  1.
        994    1    1    2    0    0  0.10152697606E+02  0.59340958374E+00  0.89948808874E+01  0.17173752440E+03  0.17120000000E+03 0.  0.
        998    1    1    2    0    0 -0.31208276191E+02  0.30774085043E+02  0.14026385239E+04  0.14033587672E+04  0.10000000000E+02 0.  1.
</event>
<event>
 5    1  0.1937587E-008  0.3858945E+03  0.7957747E-01  0.3425887E+00
         13   -1    0    0    0    0  0.00000000000E+00  0.00000000000E+00  0.14999999963E+04  0.15000000000E+04  0.10566000000E+00 0. -1.
        994   -1    0    0    0    0 -0.00000000000E+00 -0.00000000000E+00  0.11368683772E-12  0.17120000000E+03  0.17120000000E+03 0.  0.
         13    1    1    2    0    0 -0.10737001803E+02  0.37615594066E+01  0.57230726204E+02  0.58350661716E+02  0.10566000000E+00 0. -1.
        994    1    1    2    0    0  0.28184334690E+01  0.15038631074E+01  0.12201294967E+01  0.17123414930E+03  0.17120000000E+03 0.  0.
        998    1    1    2    0    0  0.79185683337E+01 -0.52654225140E+01  0.14415491406E+04  0.14416151890E+04  0.10000000000E+02 0. -1.
</event>
<event>
 5    1  0.1520352E-008  0.3851093E+03  0.7957747E-01  0.3429209E+00
         13   -1    0    0    0    0  0.00000000000E+00  0.00000000000E+00  0.14999999963E+04  0.15000000000E+04  0.10566000000E+00 0. -1.
        994   -1    0    0    0    0 -0.00000000000E+00 -0.00000000000E+00  0.11368683772E-12  0.17120000000E+03  0.17120000000E+03 0.  0.
         13    1    1    2    0    0  0.88098197048E+01  0.11703140315E+02  0.70818485319E+02  0.72317670340E+02  0.10566000000E+00 0. -1.
        994    1    1    2    0    0 -0.41842319729E+01 -0.18512517412E+01  0.16447224474E+01  0.17126902826E+03  0.17120000000E+03 0.  0.
        998    1    1    2    0    0 -0.46255877319E+01 -0.98518885738E+01  0.14275367885E+04  0.14276133014E+04  0.10000000000E+02 0. -1.
</event>
<event>
 5    1  0.1520352E-008  0.3787830E+03  0.7957747E-01  0.3456475E+00
         13   -1    0    0    0    0  0.00000000000E+00  0.00000000000E+00  0.14999999963E+04  0.15000000000E+04  0.10566000000E+00 0.  1.
        994   -1    0    0    0    0 -0.00000000000E+00 -0.00000000000E+00  0.11368683772E-12  0.17120000000E+03  0.17120000000E+03 0.  0.
         13    1    1    2    0    0  0.54524047659E+01 -0.14436318733E+02  0.22969552121E+02  0.27672143122E+02  0.10566000000E+00 0.  1.
        994    1    1    2    0    0 -0.70971904909E+01  0.10963002736E+02  0.53214234166E+01  0.17177984483E+03  0.17120000000E+03 0.  0.
        998    1    1    2    0    0  0.16447857251E+01  0.34733159969E+01  0.14717090207E+04  0.14717480121E+04  0.10000000000E+02 0.  1.
</event>
<event>
 5    1  0.1520352E-008  0.3847709E+03  0.7957747E-01  0.3430644E+00
         13   -1    0    0    0    0  0.00000000000E+00  0.00000000000E+00  0.14999999963E+04  0.15000000000E+04  0.10566000000E+00 0. -1.
        994   -1    0    0    0    0 -0.00000000000E+00 -0.00000000000E+00  0.11368683772E-12  0.17120000000E+03  0.17120000000E+03 0.  0.
         13    1    1    2    0    0  0.11137614137E+02 -0.42000308813E+01  0.40529701807E+02  0.42241621662E+02  0.10566000000E+00 0. -1.
        994    1    1    2    0    0 -0.69177792811E+01  0.25102876448E+01  0.19221847563E+01  0.17136887701E+03  0.17120000000E+03 0.  0.
        998    1    1    2    0    0 -0.42198348563E+01  0.16897432365E+01  0.14575481097E+04  0.14575895013E+04  0.10000000000E+02 0. -1.
</event>
<event>
 5    1  0.1520352E-008  0.3854855E+03  0.7957747E-01  0.3427616E+00
         13   -1    0    0    0    0  0.00000000000E+00  0.00000000000E+00  0.14999999963E+04  0.15000000000E+04  0.10566000000E+00 0.  1.
        994   -1    0    0    0    0 -0.00000000000E+00 -0.00000000000E+00  0.11368683772E-12  0.17120000000E+03  0.17120000000E+03 0.  0.
         13    1    1    2    0    0 -0.12879642914E+01 -0.13541721270E+02  0.65158744002E+02  0.66563579763E+02  0.10566000000E+00 0.  1.
        994    1    1    2    0    0 -0.10702854204E+01  0.13093573632E+02  0.19561913365E+01  0.17171445445E+03  0.17120000000E+03 0.  0.
        998    1    1    2    0    0  0.23582497119E+01  0.44814763781E+00  0.14328850609E+04  0.14329219658E+04  0.10000000000E+02 0.  1.
</event>
<event>
 5    1  0.1520352E-008  0.3817323E+03  0.7957747E-01  0.3443650E+00
         13   -1    0    0    0    0  0.00000000000E+00  0.00000000000E+00  0.14999999963E+04  0.15000000000E+04  0.10566000000E+00 0.  1.
        994   -1    0    0    0    0 -0.00000000000E+00 -0.00000000000E+00  0.11368683772E-12  0.17120000000E+03  0.17120000000E+03 0.  0.
         13    1    1    2    0    0 -0.35321363752E+02  0.51242335419E+01  0.20183494902E+03  0.20496637362E+03  0.10566000000E+00 0.  1.
        994    1    1    2    0    0  0.14444665619E+02 -0.14328605395E+02  0.46384021542E+01  0.17246713331E+03  0.17120000000E+03 0.  0.
        998    1    1    2    0    0  0.20876698133E+02  0.92043718534E+01  0.12935266451E+04  0.12937664931E+04  0.10000000000E+02 0.  1.
</event>
<event>
 5    1  0.1520352E-008  0.3833413E+03  0.7957747E-01  0.3436738E+00
         13   -1    0    0    0    0  0.00000000000E+00  0.00000000000E+00  0.14999999963E+04  0.15000000000E+04  0.10566000000E+00 0.  1.
        994   -1    0    0    0    0 -0.00000000000E+00 -0.00000000000E+00  0.11368683772E-12  0.17120000000E+03  0.17120000000E+03 0.  0.
         13    1    1    2    0    0  0.19492453656E+02  0.17095974378E+02  0.14484242251E+03  0.14714471316E+03  0.10566000000E+00 0.  1.
        994    1    1    2    0    0 -0.91096162298E+01 -0.16472378284E+01  0.27393264956E+01  0.17147198725E+03  0.17120000000E+03 0.  0.
        998    1    1    2    0    0 -0.10382837426E+02 -0.15448736550E+02  0.13524182473E+04  0.13525832996E+04  0.10000000000E+02 0.  1.
</event>
<event>
 5    1  0.1520352E-008  0.3827816E+03  0.7957747E-01  0.3439136E+00
         13   -1    0    0    0    0  0.00000000000E+00  0.00000000000E+00  0.14999999963E+04  0.15000000000E+04  0.10566000000E+00 0. -1.
        994   -1    0    0    0    0 -0.00000000000E+00 -0.00000000000E+00  0.11368683772E-12  0.17120000000E+03  0.17120000000E+03 0.  0.
         13    1    1    2    0    0  0.10447126883E+02 -0.19783248618E+02  0.87439330092E+02  0.90256118889E+02  0.10566000000E+00 0. -1.
        994    1    1    2    0    0 -0.82269339401E+01  0.18623824620E+02  0.41098988093E+01  0.17245538714E+03  0.17120000000E+03 0.  0.
        998    1    1    2    0    0 -0.22201929429E+01  0.11594239980E+01  0.14084507674E+04  0.14084884940E+04  0.10000000000E+02 0. -1.
</event>
<event>
 5    1  0.1520352E-008  0.3775107E+03  0.7957747E-01  0.3462070E+00
         13   -1    0    0    0    0  0.00000000000E+00  0.00000000000E+00  0.14999999963E+04  0.15000000000E+04  0.10566000000E+00 0.  1.
        994   -1    0    0    0    0 -0.00000000000E+00 -0.00000000000E+00  0.11368683772E-12  0.17120000000E+03  0.17120000000E+03 0.  0.
         13    1    1    2    0    0 -0.46711523767E+02  0.53398176851E+02  0.39312960860E+03  0.39947995201E+03  0.10566000000E+00 0.  1.
        994    1    1    2    0    0  0.44919408510E+02 -0.37800154555E+02  0.17101823054E+02  0.18179251166E+03  0.17120000000E+03 0.  0.
        998    1    1    2    0    0  0.17921152563E+01 -0.15598022297E+02  0.10897685646E+04  0.10899275363E+04  0.10000000000E+02 0.  1.
</event>
<event>
 5    1  0.1520352E-008  0.3855632E+03  0.7957747E-01  0.3427287E+00
         13   -1    0    0    0    0  0.00000000000E+00  0.00000000000E+00  0.14999999963E+04  0.15000000000E+04  0.10566000000E+00 0. -1.
        994   -1    0    0    0    0 -0.00000000000E+00 -0.00000000000E+00  0.11368683772E-12  0.17120000000E+03  0.17120000000E+03 0.  0.
         13    1    1    2    0    0 -0.28574629366E+00  0.10290053277E+02  0.39804346916E+02  0.41114037078E+02  0.10566000000E+00 0. -1.
        994    1    1    2    0    0 -0.57463701468E+01 -0.51512760194E+01  0.15463141280E+01  0.17138082595E+03  0.17120000000E+03 0.  0.
        998    1    1    2    0    0  0.60321164404E+01 -0.51387772581E+01  0.14586493352E+04  0.14587051370E+04  0.10000000000E+02 0. -1.
</event>
<event>
 5    1  0.1520352E-008  0.3794552E+03  0.7957747E-01  0.3453534E+00
         13   -1    0    0    0    0  0.00000000000E+00  0.00000000000E+00  0.14999999963E+04  0.15000000000E+04  0.10566000000E+00 0. -1.
        994   -1    0    0    0    0 -0.00000000000E+00 -0.00000000000E+00  0.11368683772E-12  0.17120000000E+03  0.17120000000E+03 0.  0.
         13    1    1    2    0    0  0.15833147787E+01 -0.20503537968E+02  0.49828544118E+02  0.53905444325E+02  0.10566000000E+00 0. -1.
        994    1    1    2    0    0  0.13333681421E+02 -0.55453296310E+01  0.51070834526E+01  0.17188385626E+03  0.17120000000E+03 0.  0.
        998    1    1    2    0    0 -0.14916996200E+02  0.26048867599E+02  0.14450643687E+04  0.14454106994E+04  0.10000000000E+02 0. -1.
</event>
<event>
 5    1  0.1520352E-008  0.3840021E+03  0.7957747E-01  0.3433916E+00
         13   -1    0    0    0    0  0.00000000000E+00  0.00000000000E+00  0.14999999963E+04  0.15000000000E+04  0.10566000000E+00 0. -1.
        994   -1    0    0    0    0 -0.00000000000E+00 -0.00000000000E+00  0.11368683772E-12  0.17120000000E+03  0.17120000000E+03 0.  0.
         13    1    1    2    0    0 -0.11134824532E+02  0.17216381931E+02  0.93665017902E+02  0.95882922707E+02  0.10566000000E+00 0. -1.
        994    1    1    2    0    0  0.11439378122E+02 -0.16859398448E+02  0.34971443851E+01  0.17244352324E+03  0.17120000000E+03 0.  0.
        998    1    1    2    0    0 -0.30455358976E+00 -0.35698348280E+00  0.14028378340E+04  0.14028735541E+04  0.10000000000E+02 0.  0.
</event>
<event>
 5    1  0.1520352E-008  0.3774290E+03  0.7957747E-01  0.3462430E+00
         13   -1    0    0    0    0  0.00000000000E+00  0.00000000000E+00  0.14999999963E+04  0.15000000000E+04  0.10566000000E+00 0. -1.
        994   -1    0    0    0    0 -0.00000000000E+00 -0.00000000000E+00  0.11368683772E-12  0.17120000000E+03  0.17120000000E+03 0.  0.
         13    1    1    2    0    0 -0.19702193837E+02 -0.16953621996E+02  0.57284504984E+02  0.62905702572E+02  0.10566000000E+00 0. -1.
        994    1    1    2    0    0  0.25916648586E+02  0.15867776842E+02  0.85564381048E+01  0.17408650622E+03  0.17120000000E+03 0.  0.
        998    1    1    2    0    0 -0.62144547491E+01  0.10858451537E+01  0.14341590532E+04  0.14342077912E+04  0.10000000000E+02 0. -1.
</event>
<event>
 5    1  0.1520352E-008  0.3842935E+03  0.7957747E-01  0.3432674E+00
         13   -1    0    0    0    0  0.00000000000E+00  0.00000000000E+00  0.14999999963E+04  0.15000000000E+04  0.10566000000E+00 0.  1.
        994   -1    0    0    0    0 -0.00000000000E+00 -0.00000000000E+00  0.11368683772E-12  0.17120000000E+03  0.17120000000E+03 0.  0.
         13    1    1    2    0    0 -0.80800536205E+01  0.17174420438E+02  0.11354493101E+03  0.11512041742E+03  0.10566000000E+00 0.  1.
        994    1    1    2    0    0 -0.13769827694E+02  0.11296373846E+02  0.30276272223E+01  0.17215058159E+03  0.17120000000E+03 0.  0.
        998    1    1    2    0    0  0.21849881315E+02 -0.28470794284E+02  0.13834274380E+04  0.13839290010E+04  0.10000000000E+02 0.  1.
</event>
<event>
 5    1  0.1520352E-008  0.3794505E+03  0.7957747E-01  0.3453555E+00
         13   -1    0    0    0    0  0.00000000000E+00  0.00000000000E+00  0.14999999963E+04  0.15000000000E+04  0.10566000000E+00 0. -1.
        994   -1    0    0    0    0 -0.00000000000E+00 -0.00000000000E+00  0.11368683772E-12  0.17120000000E+03  0.17120000000E+03 0.  0.
         13    1    1    2    0    0  0.27358853856E+02  0.56441043494E+02  0.31934495082E+03  0.32544631977E+03  0.10566000000E+00 0. -1.
        994    1    1    2    0    0 -0.28504686753E+02 -0.66972510726E+02  0.22362548428E+02  0.18736957579E+03  0.17120000000E+03 0.  0.
        998    1    1    2    0    0  0.11458328972E+01  0.10531467231E+02  0.11582924970E+04  0.11583841044E+04  0.10000000000E+02 0. -1.
</event>
<event>
 5    1  0.1520352E-008  0.3689718E+03  0.7957747E-01  0.3500630E+00
         13   -1    0    0    0    0  0.00000000000E+00  0.00000000000E+00  0.14999999963E+04  0.15000000000E+04  0.10566000000E+00 0.  1.
        994   -1    0    0    0    0 -0.00000000000E+00 -0.00000000000E+00  0.11368683772E-12  0.17120000000E+03  0.17120000000E+03 0.  0.
         13    1    1    2    0    0  0.40011425705E+02  0.74496759787E+01  0.67439026771E+02  0.78768301714E+02  0.10566000000E+00 0.  1.
        994    1    1    2    0    0 -0.74116933446E+02  0.55261416857E+02  0.40792601775E+02  0.19879793856E+03  0.17120000000E+03 0.  0.
        998    1    1    2    0    0  0.34105507741E+02 -0.62711092835E+02  0.13917683677E+04  0.13936337597E+04  0.10000000000E+02 0.  1.
</event>
<event>
 5    1  0.1520352E-008  0.3816666E+03  0.7957747E-01  0.3443934E+00
         13   -1    0    0    0    0  0.00000000000E+00  0.00000000000E+00  0.14999999963E+04  0.15000000000E+04  0.10566000000E+00 0. -1.
        994   -1    0    0    0    0 -0.00000000000E+00 -0.00000000000E+00  0.11368683772E-12  0.17120000000E+03  0.17120000000E+03 0.  0.
         13    1    1    2    0    0  0.12455460008E+02 -0.42742478068E+01  0.24789079243E+02  0.28069864483E+02  0.10566000000E+00 0. -1.
        994    1    1    2    0    0 -0.12792317605E+02  0.93054607630E+00  0.38413580260E+01  0.17172275719E+03  0.17120000000E+03 0.  0.
        998    1    1    2    0    0  0.33685759769E+00  0.33437017305E+01  0.14713695590E+04  0.14714073783E+04  0.10000000000E+02 0. -1.
</event>
<event>
 5    1  0.1520352E-008  0.3850913E+03  0.7957747E-01  0.3429285E+00
         13   -1    0    0    0    0  0.00000000000E+00  0.00000000000E+00  0.14999999963E+04  0.15000000000E+04  0.10566000000E+00 0. -1.
        994   -1    0    0    0    0 -0.00000000000E+00 -0.00000000000E+00  0.11368683772E-12  0.17120000000E+03  0.17120000000E+03 0.  0.
         13    1    1    2    0    0 -0.12526037306E+02  0.30258640650E+01  0.53619169044E+02  0.55146023583E+02  0.10566000000E+00 0. -1.
        994    1    1    2    0    0  0.35850235144E+01 -0.51279053235E+01  0.17135212705E+01  0.17132286468E+03  0.17120000000E+03 0.  0.
        998    1    1    2    0    0  0.89410137912E+01  0.21020412585E+01  0.14446673060E+04  0.14447311117E+04  0.10000000000E+02 0. -1.
</event>
<event>
 5    1  0.1520352E-008  0.3836718E+03  0.7957747E-01  0.3435325E+00
         13   -1    0    0    0    0  0.00000000000E+00  0.00000000000E+00  0.14999999963E+04  0.15000000000E+04  0.10566000000E+00 0.  1.
        994   -1    0    0    0    0 -0.00000000000E+00 -0.00000000000E+00  0.11368683772E-12  0.17120000000E+03  0.17120000000E+03 0.  0.
         13    1    1    2    0    0 -0.13240113438E+02  0.18294512417E+02  0.10287734354E+03  0.10532686631E+03  0.10566000000E+00 0.  1.
        994    1    1    2    0    0  0.19098327854E+02 -0.17095547904E+02  0.44639911798E+01  0.17316573305E+03  0.17120000000E+03 0.  0.
        998    1    1    2    0    0 -0.58582144162E+01 -0.11989645124E+01  0.13926586616E+04  0.13927074006E+04  0.10000000000E+02 0.  1.
</event>
<event>
 5    1  0.1520352E-008  0.4095171E+03  0.7957747E-01  0.3331913E+00
         13   -1    0    0    0    0  0.00000000000E+00  0.00000000000E+00  0.14999999963E+04  0.15000000000E+04  0.10566000000E+00 0.  1.
        994   -1    0    0    0    0 -0.00000000000E+00 -0.00000000000E+00  0.11368683772E-12  0.17120000000E+03  0.17120000000E+03 0.  0.
         13    1    1    2    0    0 -0.66508732956E+02  0.94465029990E+01  0.59087678596E+02  0.89465149104E+02  0.10566000000E+00 0.  1.
        994    1    1    2    0    0  0.33898017856E+02 -0.14032477275E+01  0.38296863278E+02  0.17868165674E+03  0.17120000000E+03 0.  0.
        998    1    1    2    0    0  0.32610715099E+02 -0.80432552714E+01  0.14026154544E+04  0.14030531942E+04  0.10000000000E+02 0.  1.
</event>
<event>
 5    1  0.1520352E-008  0.3842256E+03  0.7957747E-01  0.3432963E+00
         13   -1    0    0    0    0  0.00000000000E+00  0.00000000000E+00  0.14999999963E+04  0.15000000000E+04  0.10566000000E+00 0. -1.
        994   -1    0    0    0    0 -0.00000000000E+00 -0.00000000000E+00  0.11368683772E-12  0.17120000000E+03  0.17120000000E+03 0.  0.
         13    1    1    2    0    0  0.35184853123E+01 -0.19066820498E+02  0.89247472628E+02  0.91329326710E+02  0.10566000000E+00 0. -1.
        994    1    1    2    0    0 -0.75702831388E+01  0.17342362123E+02  0.31964993720E+01  0.17227223897E+03  0.17120000000E+03 0.  0.
        998    1    1    2    0    0  0.40517978265E+01  0.17244583754E+01  0.14075560243E+04  0.14075984343E+04  0.10000000000E+02 0. -1.
</event>
<event>
 5    1  0.1520352E-008  0.3811115E+03  0.7957747E-01  0.3446333E+00
         13   -1    0    0    0    0  0.00000000000E+00  0.00000000000E+00  0.14999999963E+04  0.15000000000E+04  0.10566000000E+00 0. -1.
        994   -1    0    0    0    0 -0.00000000000E+00 -0.00000000000E+00  0.11368683772E-12  0.17120000000E+03  0.17120000000E+03 0.  0.
         13    1    1    2    0    0  0.11591623328E+02 -0.30067116333E+02  0.13910274286E+03  0.14278648904E+03  0.10566000000E+00 0. -1.
        994    1    1    2    0    0 -0.69508536210E+00  0.26171011137E+02  0.58593390000E+01  0.17328928652E+03  0.17120000000E+03 0.  0.
        998    1    1    2    0    0 -0.10896537966E+02  0.38961051963E+01  0.13550379144E+04  0.13551242244E+04  0.10000000000E+02 0. -1.
</event>
<event>
 5    1  0.1520352E-008  0.3852355E+03  0.7957747E-01  0.3428674E+00
         13   -1    0    0    0    0  0.00000000000E+00  0.00000000000E+00  0.14999999963E+04  0.15000000000E+04  0.10566000000E+00 0. -1.
        994   -1    0    0    0    0 -0.00000000000E+00 -0.00000000000E+00  0.11368683772E-12  0.17120000000E+03  0.17120000000E+03 0.  0.
         13    1    1    2    0    0  0.64179735501E+01 -0.80752663685E+01  0.36072878717E+02  0.37518849321E+02  0.10566000000E+00 0. -1.
        994    1    1    2    0    0 -0.88837969074E+01 -0.51527355937E+01  0.18599282403E+01  0.17151784707E+03  0.17120000000E+03 0.  0.
        998    1    1    2    0    0  0.24658233574E+01  0.13228001962E+02  0.14620671893E+04  0.14621633036E+04  0.10000000000E+02 0. -1.
</event>
<event>
 5    1  0.1520352E-008  0.3792346E+03  0.7957747E-01  0.3454498E+00
         13   -1    0    0    0    0  0.00000000000E+00  0.00000000000E+00  0.14999999963E+04  0.15000000000E+04  0.10566000000E+00 0.  1.
        994   -1    0    0    0    0 -0.00000000000E+00 -0.00000000000E+00  0.11368683772E-12  0.17120000000E+03  0.17120000000E+03 0.  0.
         13    1    1    2    0    0  0.57822805208E+01 -0.19529264165E+02  0.43042566051E+02  0.47618279926E+02  0.10566000000E+00 0.  1.
        994    1    1    2    0    0 -0.56247673630E+01  0.20116562575E+02  0.59836377498E+01  0.17257334098E+03  0.17120000000E+03 0.  0.
        998    1    1    2    0    0 -0.15751315778E+00 -0.58729840997E+00  0.14509737925E+04  0.14510083791E+04  0.10000000000E+02 0.  0.
</event>
<event>
 5    1  0.1520352E-008  0.3829536E+03  0.7957747E-01  0.3438398E+00
         13   -1    0    0    0    0  0.00000000000E+00  0.00000000000E+00  0.14999999963E+04  0.15000000000E+04  0.10566000000E+00 0.  1.
        994   -1    0    0    0    0 -0.00000000000E+00 -0.00000000000E+00  0.11368683772E-12  0.17120000000E+03  0.17120000000E+03 0.  0.
         13    1    1    2    0    0  0.33666478098E+01 -0.10966806322E+02  0.23985926853E+02  0.26588362293E+02  0.10566000000E+00 0.  1.
        994    1    1    2    0    0  0.12263690203E+00  0.70191895784E+01  0.28127539667E+01  0.17136696195E+03  0.17120000000E+03 0.  0.
        998    1    1    2    0    0 -0.34892847118E+01  0.39476167431E+01  0.14732013155E+04  0.14732446758E+04  0.10000000000E+02 0.  1.
</event>
<event>
 5    1  0.1520352E-008  0.3856660E+03  0.7957747E-01  0.3426852E+00
         13   -1    0    0    0    0  0.00000000000E+00  0.00000000000E+00  0.14999999963E+04  0.15000000000E+04  0.10566000000E+00 0.  1.
        994   -1    0    0    0    0 -0.00000000000E+00 -0.00000000000E+00  0.11368683772E-12  0.17120000000E+03  0.17120000000E+03 0.  0.
         13    1    1    2    0    0 -0.39368847000E+01  0.15903290227E+02  0.90371535608E+02  0.91844647712E+02  0.10566000000E+00 0.  1.
        994    1    1    2    0    0  0.90725857908E+00 -0.28470115486E+02  0.39669258994E+01  0.17359881075E+03  0.17120000000E+03 0.  0.
        998    1    1    2    0    0  0.30296261210E+01  0.12566825259E+02  0.14056615348E+04  0.14057565415E+04  0.10000000000E+02 0.  1.
</event>
<event>
 5    1  0.1520352E-008  0.3851067E+03  0.7957747E-01  0.3429220E+00
         13   -1    0    0    0    0  0.00000000000E+00  0.00000000000E+00  0.14999999963E+04  0.15000000000E+04  0.10566000000E+00 0. -1.
        994   -1    0    0    0    0 -0.00000000000E+00 -0.00000000000E+00  0.11368683772E-12  0.17120000000E+03  0.17120000000E+03 0.  0.
         13    1    1    2    0    0 -0.11796796034E+01 -0.11122424503E+02  0.41261071455E+02  0.42750288332E+02  0.10566000000E+00 0. -1.
        994    1    1    2    0    0 -0.49090909600E+01  0.87551018052E-01  0.16564331966E+01  0.17127840089E+03  0.17120000000E+03 0.  0.
        998    1    1    2    0    0  0.60887705634E+01  0.11034873485E+02  0.14570824916E+04  0.14571713108E+04  0.10000000000E+02 0. -1.
</event>
<event>
 5    1  0.1520352E-008  0.3169792E+03  0.7957747E-01  0.3781795E+00
         13   -1    0    0    0    0  0.00000000000E+00  0.00000000000E+00  0.14999999963E+04  0.15000000000E+04  0.10566000000E+00 0. -1.
        994   -1    0    0    0    0 -0.00000000000E+00 -0.00000000000E+00  0.11368683772E-12  0.17120000000E+03  0.17120000000E+03 0.  0.
         13    1    1    2    0    0 -0.20301585922E+03  0.96916639451E+01  0.73873769521E+03  0.76618715790E+03  0.10566000000E+00 0. -1.
        994    1    1    2    0    0  0.20125043306E+03 -0.94023139259E+01  0.17144457295E+03  0.31510763543E+03  0.17120000000E+03 0.  0.
        998    1    1    2    0    0  0.17654261593E+01 -0.28935001922E+00  0.58981772812E+03  0.58990520667E+03  0.10000000000E+02 0.  0.
</event>
<event>
 5    1  0.1520352E-008  0.3857876E+03  0.7957747E-01  0.3426339E+00
         13   -1    0    0    0    0  0.00000000000E+00  0.00000000000E+00  0.14999999963E+04  0.15000000000E+04  0.10566000000E+00 0. -1.
        994   -1    0    0    0    0 -0.00000000000E+00 -0.00000000000E+00  0.11368683772E-12  0.17120000000E+03  0.17120000000E+03 0.  0.
         13    1    1    2    0    0  0.26679692613E+01  0.11570408416E+02  0.59899945420E+02  0.61065596175E+02  0.10566000000E+00 0. -1.
        994    1    1    2    0    0 -0.44809266902E+01 -0.77238476307E+00  0.13074209284E+01  0.17126536320E+03  0.17120000000E+03 0.  0.
        998    1    1    2    0    0  0.18129574288E+01 -0.10798023652E+02  0.14387926299E+04  0.14388690406E+04  0.10000000000E+02 0. -1.
</event>
<event>
 5    1  0.1520352E-008  0.3835296E+03  0.7957747E-01  0.3435933E+00
         13   -1    0    0    0    0  0.00000000000E+00  0.00000000000E+00  0.14999999963E+04  0.15000000000E+04  0.10566000000E+00 0.  1.
        994   -1    0    0    0    0 -0.00000000000E+00 -0.00000000000E+00  0.11368683772E-12  0.17120000000E+03  0.17120000000E+03 0.  0.
         13    1    1    2    0    0 -0.98769262302E+01  0.68229881018E+01  0.29535064993E+02  0.31881625846E+02  0.10566000000E+00 0.  1.
        994    1    1    2    0    0  0.69621459021E+01 -0.80536105252E+01  0.27365344677E+01  0.17155250141E+03  0.17120000000E+03 0.  0.
        998    1    1    2    0    0  0.29147803281E+01  0.12306224234E+01  0.14677283968E+04  0.14677658727E+04  0.10000000000E+02 0.  1.
</event>
<event>
 5    1  0.1520352E-008  0.3820605E+03  0.7957747E-01  0.3442236E+00
         13   -1    0    0    0    0  0.00000000000E+00  0.00000000000E+00  0.14999999963E+04  0.15000000000E+04  0.10566000000E+00 0. -1.
        994   -1    0    0    0    0 -0.00000000000E+00 -0.00000000000E+00  0.11368683772E-12  0.17120000000E+03  0.17120000000E+03 0.  0.
         13    1    1    2    0    0 -0.17787825023E+02 -0.80177458484E+01  0.64708451413E+02  0.67586136270E+02  0.10566000000E+00 0. -1.
        994    1    1    2    0    0 -0.23890129336E+01  0.11762931018E+01  0.31201854347E+01  0.17124913607E+03  0.17120000000E+03 0.  0.
        998    1    1    2    0    0  0.20176837957E+02  0.68414527467E+01  0.14321713594E+04  0.14323647277E+04  0.10000000000E+02 0. -1.
</event>
<event>
 5    1  0.1520352E-008  0.3861611E+03  0.7957747E-01  0.3424763E+00
         13   -1    0    0    0    0  0.00000000000E+00  0.00000000000E+00  0.14999999963E+04  0.15000000000E+04  0.10566000000E+00 0.  1.
        994   -1    0    0    0    0 -0.00000000000E+00 -0.00000000000E+00  0.11368683772E-12  0.17120000000E+03  0.17120000000E+03 0.  0.
         13    1    1    2    0    0 -0.26396115571E+00  0.10521358838E+02  0.51801560402E+02  0.52860017891E+02  0.10566000000E+00 0.  1.
        994    1    1    2    0    0  0.72987090253E+01 -0.11022485922E+02  0.16275799126E+01  0.17171737060E+03  0.17120000000E+03 0.  0.
        998    1    1    2    0    0 -0.70347478696E+01  0.50112708364E+00  0.14465708560E+04  0.14466226115E+04  0.10000000000E+02 0.  1.
</event>
<event>
 5    1  0.1520352E-008  0.3735234E+03  0.7957747E-01  0.3479853E+00
         13   -1    0    0    0    0  0.00000000000E+00  0.00000000000E+00  0.14999999963E+04  0.15000000000E+04  0.10566000000E+00 0. -1.
        994   -1    0    0    0    0 -0.00000000000E+00 -0.00000000000E+00  0.11368683772E-12  0.17120000000E+03  0.17120000000E+03 0.  0.
         13    1    1    2    0    0  0.19899690651E+02  0.14665016929E+03  0.64703463780E+03  0.66374400451E+03  0.10566000000E+00 0. -1.
        994    1    1    2    0    0 -0.12147664077E+02 -0.16043952202E+03  0.10178579942E+03  0.25604334581E+03  0.17120000000E+03 0.  0.
        998    1    1    2    0    0 -0.77520265741E+01  0.13789352725E+02  0.75117955906E+03  0.75141264969E+03  0.10000000000E+02 0. -1.
</event>
<event>
 5    1  0.1520352E-008  0.3784646E+03  0.7957747E-01  0.3457871E+00
         13   -1    0    0    0    0  0.00000000000E+00  0.00000000000E+00  0.14999999963E+04  0.15000000000E+04  0.10566000000E+00 0.  1.
        994   -1    0    0    0    0 -0.00000000000E+00 -0.00000000000E+00  0.11368683772E-12  0.17120000000E+03  0.17120000000E+03 0.  0.
         13    1    1    2    0    0 -0.15460965276E+02 -0.61577219671E+01  0.26711429870E+02  0.31471743466E+02  0.10566000000E+00 0.  1.
        994    1    1    2    0    0  0.17955825268E+00  0.11092810908E+02  0.53238805387E+01  0.17164168025E+03  0.17120000000E+03 0.  0.
        998    1    1    2    0    0  0.15281407023E+02 -0.49350889408E+01  0.14679646859E+04  0.14680865763E+04  0.10000000000E+02 0.  1.
</event>
<event>
 5    1  0.1520352E-008  0.3813964E+03  0.7957747E-01  0.3445101E+00
         13   -1    0    0    0    0  0.00000000000E+00  0.00000000000E+00  0.14999999963E+04  0.15000000000E+04  0.10566000000E+00 0.  1.
        994   -1    0    0    0    0 -0.00000000000E+00 -0.00000000000E+00  0.11368683772E-12  0.17120000000E+03  0.17120000000E+03 0.  0.
         13    1    1    2    0    0 -0.44168125756E+02 -0.93720261891E+01  0.26083185664E+03  0.26471102510E+03  0.10566000000E+00 0.  1.
        994    1    1    2    0    0  0.39255395249E+02  0.58923716033E+01  0.86909958079E+01  0.17595647049E+03  0.17120000000E+03 0.  0.
        998    1    1    2    0    0  0.49127305072E+01  0.34796545857E+01  0.12304771438E+04  0.12305325044E+04  0.10000000000E+02 0.  1.
</event>
<event>
 5    1  0.1520352E-008  0.3702096E+03  0.7957747E-01  0.3494928E+00
         13   -1    0    0    0    0  0.00000000000E+00  0.00000000000E+00  0.14999999963E+04  0.15000000000E+04  0.10566000000E+00 0.  1.
        994   -1    0    0    0    0 -0.00000000000E+00 -0.00000000000E+00  0.11368683772E-12  0.17120000000E+03  0.17120000000E+03 0.  0.
         13    1    1    2    0    0  0.14307808064E+02  0.11510718153E+01  0.39650565170E+01  0.14891983587E+02  0.10566000000E+00 0.  1.
        994    1    1    2    0    0 -0.31657540024E+02 -0.93452605814E+01  0.14871010664E+02  0.17498605857E+03  0.17120000000E+03 0.  0.
        998    1    1    2    0    0  0.17349731959E+02  0.81941887661E+01  0.14811639291E+04  0.14813219578E+04  0.10000000000E+02 0.  1.
</event>
<event>
 5    1  0.1520352E-008  0.3845234E+03  0.7957747E-01  0.3431696E+00
         13   -1    0    0    0    0  0.00000000000E+00  0.00000000000E+00  0.14999999963E+04  0.15000000000E+04  0.10566000000E+00 0.  1.
        994   -1    0    0    0    0 -0.00000000000E+00 -0.00000000000E+00  0.11368683772E-12  0.17120000000E+03  0.17120000000E+03 0.  0.
         13    1    1    2    0    0  0.47250852582E+01  0.17186846949E+02  0.90334690667E+02  0.92076498851E+02  0.10566000000E+00 0.  1.
        994    1    1    2    0    0  0.44547099042E+01 -0.40136474205E+01  0.19853654784E+01  0.17131647756E+03  0.17120000000E+03 0.  0.
        998    1    1    2    0    0 -0.91797951623E+01 -0.13173199529E+02  0.14076799401E+04  0.14078070236E+04  0.10000000000E+02 0.  1.
</event>
<event>
 5    1  0.1520352E-008  0.3860541E+03  0.7957747E-01  0.3425214E+00
         13   -1    0    0    0    0  0.00000000000E+00  0.00000000000E+00  0.14999999963E+04  0.15000000000E+04  0.10566000000E+00 0.  1.
        994   -1    0    0    0    0 -0.00000000000E+00 -0.00000000000E+00  0.11368683772E-12  0.17120000000E+03  0.17120000000E+03 0.  0.
         13    1    1    2    0    0  0.62317271920E+01 -0.80673002675E+01  0.46876733831E+02  0.47972441006E+02  0.10566000000E+00 0.  1.
        994    1    1    2    0    0 -0.75353529004E+01  0.54354044104E+01  0.13906881488E+01  0.17145757253E+03  0.17120000000E+03 0.  0.
        998    1    1    2    0    0  0.13036257085E+01  0.26318958571E+01  0.14517325743E+04  0.14517699865E+04  0.10000000000E+02 0.  1.
</event>
<event>
 5    1  0.1520352E-008  0.3843722E+03  0.7957747E-01  0.3432339E+00
         13   -1    0    0    0    0  0.00000000000E+00  0.00000000000E+00  0.14999999963E+04  0.15000000000E+04  0.10566000000E+00 0.  1.
        994   -1    0    0    0    0 -0.00000000000E+00 -0.00000000000E+00  0.11368683772E-12  0.17120000000E+03  0.17120000000E+03 0.  0.
         13    1    1    2    0    0  0.10416505192E+02 -0.19317200570E+01  0.29025737932E+02  0.30898863237E+02  0.10566000000E+00 0.  1.
        994    1    1    2    0    0 -0.22548713891E+01 -0.13462712350E+01  0.19649024322E+01  0.17123141573E+03  0.17120000000E+03 0.  0.
        998    1    1    2    0    0 -0.81616338031E+01  0.32779912920E+01  0.14690093559E+04  0.14690697210E+04  0.10000000000E+02 0.  1.
</event>
<event>
 5    1  0.1520352E-008  0.3822146E+03  0.7957747E-01  0.3441572E+00
         13   -1    0    0    0    0  0.00000000000E+00  0.00000000000E+00  0.14999999963E+04  0.15000000000E+04  0.10566000000E+00 0. -1.
        994   -1    0    0    0    0 -0.00000000000E+00 -0.00000000000E+00  0.11368683772E-12  0.17120000000E+03  0.17120000000E+03 0.  0.
         13    1    1    2    0    0 -0.22841609912E+02  0.50424388529E+01  0.86114689425E+02  0.89235173736E+02  0.10566000000E+00 0. -1.
        994    1    1    2    0    0  0.21989072970E+02 -0.22287656774E+01  0.46421954079E+01  0.17268316856E+03  0.17120000000E+03 0.  0.
        998    1    1    2    0    0  0.85253694215E+00 -0.28136731754E+01  0.14092431114E+04  0.14092816577E+04  0.10000000000E+02 0. -1.
</event>
<event>
 5    1  0.1520352E-008  0.3813157E+03  0.7957747E-01  0.3445449E+00
         13   -1    0    0    0    0  0.00000000000E+00  0.00000000000E+00  0.14999999963E+04  0.15000000000E+04  0.10566000000E+00 0.  1.
        994   -1    0    0    0    0 -0.00000000000E+00 -0.00000000000E+00  0.11368683772E-12  0.17120000000E+03  0.17120000000E+03 0.  0.
         13    1    1    2    0    0 -0.65703296207E+02  0.25584831066E+02  0.14060502744E+03  0.15729364774E+03  0.10566000000E+00 0.  1.
        994    1    1    2    0    0  0.37145390502E+02 -0.28904259456E+02  0.25161731202E+02  0.17932592943E+03  0.17120000000E+03 0.  0.
        998    1    1    2    0    0  0.28557905706E+02  0.33194283899E+01  0.13342332376E+04  0.13345804228E+04  0.10000000000E+02 0.  1.
</event>
<event>
 5    1  0.1520352E-008  0.3704392E+03  0.7957747E-01  0.3493875E+00
         13   -1    0    0    0    0  0.00000000000E+00  0.00000000000E+00  0.14999999963E+04  0.15000000000E+04  0.10566000000E+00 0. -1.
        994   -1    0    0    0    0 -0.00000000000E+00 -0.00000000000E+00  0.11368683772E-12  0.17120000000E+03  0.17120000000E+03 0.  0.
         13    1    1    2    0    0 -0.94895733140E+01  0.16419879329E+03  0.62580606389E+03  0.64705837177E+03  0.10566000000E+00 0. -1.
        994    1    1    2    0    0  0.10592108855E+02 -0.16477582002E+03  0.11378503033E+03  0.26366595677E+03  0.17120000000E+03 0.  0.
        998    1    1    2    0    0 -0.11025355405E+01  0.57702672834E+00  0.76040890206E+03  0.76047567146E+03  0.10000000000E+02 0.  0.
</event>
<event>
 5    1  0.1520352E-008  0.3809891E+03  0.7957747E-01  0.3446863E+00
         13   -1    0    0    0    0  0.00000000000E+00  0.00000000000E+00  0.14999999963E+04  0.15000000000E+04  0.10566000000E+00 0.  1.
        994   -1    0    0    0    0 -0.00000000000E+00 -0.00000000000E+00  0.11368683772E-12  0.17120000000E+03  0.17120000000E+03 0.  0.
         13    1    1    2    0    0  0.10558542424E+02 -0.48160359225E+01  0.16502833843E+02  0.20175026865E+02  0.10566000000E+00 0.  1.
        994    1    1    2    0    0 -0.18978958737E+02  0.56952355507E+01  0.49440488389E+01  0.17241380514E+03  0.17120000000E+03 0.  0.
        998    1    1    2    0    0  0.84204163130E+01 -0.87919962817E+00  0.14785531136E+04  0.14786111680E+04  0.10000000000E+02 0.  1.
</event>
<event>
 5    1  0.1520352E-008  0.3793333E+03  0.7957747E-01  0.3454067E+00
         13   -1    0    0    0    0  0.00000000000E+00  0.00000000000E+00  0.14999999963E+04  0.15000000000E+04  0.10566000000E+00 0.  1.
        994   -1    0    0    0    0 -0.00000000000E+00 -0.00000000000E+00  0.11368683772E-12  0.17120000000E+03  0.17120000000E+03 0.  0.
         13    1    1    2    0    0 -0.17852480009E+02  0.70536084876E+01  0.36834501090E+02  0.41536201918E+02  0.10566000000E+00 0.  1.
        994    1    1    2    0    0  0.36714798297E+02  0.43189513386E-01  0.89994460148E+01  0.17532372432E+03  0.17120000000E+03 0.  0.
        998    1    1    2    0    0 -0.18862318288E+02 -0.70967980010E+01  0.14541660492E+04  0.14543400738E+04  0.10000000000E+02 0.  1.
</event>
<event>
 5    1  0.1520352E-008  0.3837565E+03  0.7957747E-01  0.3434963E+00
         13   -1    0    0    0    0  0.00000000000E+00  0.00000000000E+00  0.14999999963E+04  0.15000000000E+04  0.10566000000E+00 0. -1.
        994   -1    0    0    0    0 -0.00000000000E+00 -0.00000000000E+00  0.11368683772E-12  0.17120000000E+03  0.17120000000E+03 0.  0.
         13    1    1    2    0    0 -0.18350592167E+02 -0.71760623637E+01  0.72658608260E+02  0.75282963692E+02  0.10566000000E+00 0. -1.
        994    1    1    2    0    0  0.41114909835E+02  0.10625791725E+02  0.82262241002E+01  0.17657988001E+03  0.17120000000E+03 0.  0.
        998    1    1    2    0    0 -0.22764317668E+02 -0.34497293611E+01  0.14191151639E+04  0.14193371563E+04  0.10000000000E+02 0. -1.
</event>
<event>
 5    1  0.1520352E-008  0.3832443E+03  0.7957747E-01  0.3437153E+00
         13   -1    0    0    0    0  0.00000000000E+00  0.00000000000E+00  0.14999999963E+04  0.15000000000E+04  0.10566000000E+00 0. -1.
        994   -1    0    0    0    0 -0.00000000000E+00 -0.00000000000E+00  0.11368683772E-12  0.17120000000E+03  0.17120000000E+03 0.  0.
         13    1    1    2    0    0 -0.17263556637E+02  0.62128063054E+01  0.67641007601E+02  0.70085279647E+02  0.10566000000E+00 0. -1.
        994    1    1    2    0    0  0.69821690981E+01 -0.63547130642E+01  0.27991898264E+01  0.17148296862E+03  0.17120000000E+03 0.  0.
        998    1    1    2    0    0  0.10281387538E+02  0.14190675876E+00  0.14295597989E+04  0.14296317517E+04  0.10000000000E+02 0. -1.
</event>
<event>
 5    1  0.1520352E-008  0.3800862E+03  0.7957747E-01  0.3450783E+00
         13   -1    0    0    0    0  0.00000000000E+00  0.00000000000E+00  0.14999999963E+04  0.15000000000E+04  0.10566000000E+00 0.  1.
        994   -1    0    0    0    0 -0.00000000000E+00 -0.00000000000E+00  0.11368683772E-12  0.17120000000E+03  0.17120000000E+03 0.  0.
         13    1    1    2    0    0  0.12751966098E+02  0.18383286811E+02  0.63262149527E+02  0.67101926948E+02  0.10566000000E+00 0.  1.
        994    1    1    2    0    0  0.12063904929E+02 -0.91613868544E+01  0.48568866213E+01  0.17193748329E+03  0.17120000000E+03 0.  0.
        998    1    1    2    0    0 -0.24815871027E+02 -0.92218999565E+01  0.14318809601E+04  0.14321605898E+04  0.10000000000E+02 0.  1.
</event>
<event>
 5    1  0.1520352E-008  0.3812513E+03  0.7957747E-01  0.3445728E+00
         13   -1    0    0    0    0  0.00000000000E+00  0.00000000000E+00  0.14999999963E+04  0.15000000000E+04  0.10566000000E+00 0. -1.
        994   -1    0    0    0    0 -0.00000000000E+00 -0.00000000000E+00  0.11368683772E-12  0.17120000000E+03  0.17120000000E+03 0.  0.
         13    1    1    2    0    0  0.51708066950E+02 -0.10296318381E+03  0.68855540204E+03  0.69812870895E+03  0.10566000000E+00 0. -1.
        994    1    1    2    0    0 -0.43187058308E+02  0.13055008377E+03  0.69247864294E+02  0.23024585357E+03  0.17120000000E+03 0.  0.
        998    1    1    2    0    0 -0.85210086424E+01 -0.27586899955E+02  0.74219672994E+03  0.74282543749E+03  0.10000000000E+02 0. -1.
</event>
<event>
 5    1  0.1520352E-008  0.3847637E+03  0.7957747E-01  0.3430675E+00
         13   -1    0    0    0    0  0.00000000000E+00  0.00000000000E+00  0.14999999963E+04  0.15000000000E+04  0.10566000000E+00 0.  1.
        994   -1    0    0    0    0 -0.00000000000E+00 -0.00000000000E+00  0.11368683772E-12  0.17120000000E+03  0.17120000000E+03 0.  0.
         13    1    1    2    0    0  0.44701661157E+01 -0.90979627750E+01  0.29366540337E+02  0.31067027009E+02  0.10566000000E+00 0.  1.
        994    1    1    2    0    0 -0.57859820759E+00  0.47153654115E+01  0.18218090447E+01  0.17127559206E+03  0.17120000000E+03 0.  0.
        998    1    1    2    0    0 -0.38915679081E+01  0.43825973635E+01  0.14688116469E+04  0.14688573809E+04  0.10000000000E+02 0.  1.
</event>
<event>
 5    1  0.1520352E-008  0.3858525E+03  0.7957747E-01  0.3426065E+00
         13   -1    0    0    0    0  0.00000000000E+00  0.00000000000E+00  0.14999999963E+04  0.15000000000E+04  0.10566000000E+00 0.  1.
        994   -1    0    0    0    0 -0.00000000000E+00 -0.00000000000E+00  0.11368683772E-12  0.17120000000E+03  0.17120000000E+03 0.  0.
         13    1    1    2    0    0  0.61450672109E+01  0.81458674904E+01  0.42354504725E+02  0.43566411865E+02  0.10566000000E+00 0.  1.
        994    1    1    2    0    0 -0.10475643273E+02 -0.63750290076E+01  0.17008212303E+01  0.17164705908E+03  0.17120000000E+03 0.  0.
        998    1    1    2    0    0  0.43305760624E+01 -0.17708384829E+01  0.14559446703E+04  0.14559865291E+04  0.10000000000E+02 0.  1.
</event>
<event>
 5    1  0.1520352E-008  0.3842866E+03  0.7957747E-01  0.3432703E+00
         13   -1    0    0    0    0  0.00000000000E+00  0.00000000000E+00  0.14999999963E+04  0.15000000000E+04  0.10566000000E+00 0. -1.
        994   -1    0    0    0    0 -0.00000000000E+00 -0.00000000000E+00  0.11368683772E-12  0.17120000000E+03  0.17120000000E+03 0.  0.
         13    1    1    2    0    0 -0.29748463295E+00 -0.22741090173E+02  0.12463254698E+03  0.12669068084E+03  0.10566000000E+00 0. -1.
        994    1    1    2    0    0 -0.46738786961E+00  0.19294482373E+02  0.32135390856E+01  0.17231442869E+03  0.17120000000E+03 0.  0.
        998    1    1    2    0    0  0.76487250256E+00  0.34466078001E+01  0.13721539102E+04  0.13721948905E+04  0.10000000000E+02 0. -1.
</event>
<event>
 5    1  0.1520352E-008  0.4115228E+03  0.7957747E-01  0.3324427E+00
         13   -1    0    0    0    0  0.00000000000E+00  0.00000000000E+00  0.14999999963E+04  0.15000000000E+04  0.10566000000E+00 0.  1.
        994   -1    0    0    0    0 -0.00000000000E+00 -0.00000000000E+00  0.11368683772E-12  0.17120000000E+03  0.17120000000E+03 0.  0.
         13    1    1    2    0    0 -0.43630872252E+02  0.60966303273E+02  0.85982711177E+02  0.11407708330E+03  0.10566000000E+00 0.  1.
        994    1    1    2    0    0 -0.30958430408E+02  0.57046554655E+01  0.38936868462E+02  0.17837176692E+03  0.17120000000E+03 0.  0.
        998    1    1    2    0    0  0.74589302660E+02 -0.66670958738E+02  0.13750804166E+04  0.13787511498E+04  0.10000000000E+02 0.  1.
</event>
<event>
 5    1  0.1520352E-008  0.3843056E+03  0.7957747E-01  0.3432622E+00
         13   -1    0    0    0    0  0.00000000000E+00  0.00000000000E+00  0.14999999963E+04  0.15000000000E+04  0.10566000000E+00 0. -1.
        994   -1    0    0    0    0 -0.00000000000E+00 -0.00000000000E+00  0.11368683772E-12  0.17120000000E+03  0.17120000000E+03 0.  0.
         13    1    1    2    0    0 -0.28327107171E+01  0.14875867499E+02  0.53361199857E+02  0.55468409911E+02  0.10566000000E+00 0. -1.
        994    1    1    2    0    0 -0.71834899813E+00 -0.25646141656E+02  0.41478888661E+01  0.17316144371E+03  0.17120000000E+03 0.  0.
        998    1    1    2    0    0  0.35510597152E+01  0.10770274157E+02  0.14424909076E+04  0.14425701464E+04  0.10000000000E+02 0. -1.
</event>
<event>
 5    1  0.1520352E-008  0.3839109E+03  0.7957747E-01  0.3434304E+00
         13   -1    0    0    0    0  0.00000000000E+00  0.00000000000E+00  0.14999999963E+04  0.15000000000E+04  0.10566000000E+00 0.  1.
        994   -1    0    0    0    0 -0.00000000000E+00 -0.00000000000E+00  0.11368683772E-12  0.17120000000E+03  0.17120000000E+03 0.  0.
         13    1    1    2    0    0 -0.18860672067E+02 -0.64648413255E+01  0.91907379291E+02  0.94045184121E+02  0.10566000000E+00 0.  1.
        994    1    1    2    0    0  0.10202019650E+02  0.48009531251E+01  0.25914907147E+01  0.17159046063E+03  0.17120000000E+03 0.  0.
        998    1    1    2    0    0  0.86586524175E+01  0.16638882004E+01  0.14055011263E+04  0.14055643552E+04  0.10000000000E+02 0.  1.
</event>
<event>
 5    1  0.1520352E-008  0.3840383E+03  0.7957747E-01  0.3433761E+00
         13   -1    0    0    0    0  0.00000000000E+00  0.00000000000E+00  0.14999999963E+04  0.15000000000E+04  0.10566000000E+00 0. -1.
        994   -1    0    0    0    0 -0.00000000000E+00 -0.00000000000E+00  0.11368683772E-12  0.17120000000E+03  0.17120000000E+03 0.  0.
         13    1    1    2    0    0  0.11819995572E+02 -0.84137280937E+01  0.48926890950E+02  0.51032880948E+02  0.10566000000E+00 0. -1.
        994    1    1    2    0    0 -0.67584637202E+01  0.10991506808E+02  0.26577700076E+01  0.17170612626E+03  0.17120000000E+03 0.  0.
        998    1    1    2    0    0 -0.50615318518E+01 -0.25777787139E+01  0.14484153353E+04  0.14484609928E+04  0.10000000000E+02 0. -1.
</event>
<event>
 5    1  0.1520352E-008  0.3792784E+03  0.7957747E-01  0.3454306E+00
         13   -1    0    0    0    0  0.00000000000E+00  0.00000000000E+00  0.14999999963E+04  0.15000000000E+04  0.10566000000E+00 0. -1.
        994   -1    0    0    0    0 -0.00000000000E+00 -0.00000000000E+00  0.11368683772E-12  0.17120000000E+03  0.17120000000E+03 0.  0.
         13    1    1    2    0    0 -0.24817535301E+02 -0.34296771949E+02  0.17806551747E+03  0.18302873627E+03  0.10566000000E+00 0. -1.
        994    1    1    2    0    0  0.16798384623E+02  0.37894925696E+02  0.10276999847E+02  0.17644621800E+03  0.17120000000E+03 0.  0.
        998    1    1    2    0    0  0.80191506785E+01 -0.35981537466E+01  0.13116574790E+04  0.13117250457E+04  0.10000000000E+02 0. -1.
</event>
<event>
 5    1  0.1520352E-008  0.3855223E+03  0.7957747E-01  0.3427460E+00
         13   -1    0    0    0    0  0.00000000000E+00  0.00000000000E+00  0.14999999963E+04  0.15000000000E+04  0.10566000000E+00 0.  1.
        994   -1    0    0    0    0 -0.00000000000E+00 -0.00000000000E+00  0.11368683772E-12  0.17120000000E+03  0.17120000000E+03 0.  0.
         13    1    1    2    0    0  0.20003120862E+01  0.11913987812E+02  0.54896840094E+02  0.56210484524E+02  0.10566000000E+00 0.  1.
        994    1    1    2    0    0 -0.65466659309E+01 -0.29937130763E+01  0.15412064615E+01  0.17135821098E+03  0.17120000000E+03 0.  0.
        998    1    1    2    0    0  0.45463538447E+01 -0.89202747359E+01  0.14435619497E+04  0.14436313045E+04  0.10000000000E+02 0.  1.
</event>
<event>
 5    1  0.1520352E-008  0.3858837E+03  0.7957747E-01  0.3425933E+00
         13   -1    0    0    0    0  0.00000000000E+00  0.00000000000E+00  0.14999999963E+04  0.15000000000E+04  0.10566000000E+00 0. -1.
        994   -1    0    0    0    0 -0.00000000000E+00 -0.00000000000E+00  0.11368683772E-12  0.17120000000E+03  0.17120000000E+03 0.  0.
         13    1    1    2    0    0  0.93594305889E+01 -0.78688511926E+01  0.59076737217E+02  0.60329012956E+02  0.10566000000E+00 0. -1.
        994    1    1    2    0    0 -0.30516104869E+02 -0.66545792283E+01  0.43975521070E+01  0.17408128718E+03  0.17120000000E+03 0.  0.
        998    1    1    2    0    0  0.21156674281E+02  0.14523430421E+02  0.14365257070E+04  0.14367896999E+04  0.10000000000E+02 0. -1.
</event>
<event>
 5    1  0.1520352E-008  0.3721673E+03  0.7957747E-01  0.3485989E+00
         13   -1    0    0    0    0  0.00000000000E+00  0.00000000000E+00  0.14999999963E+04  0.15000000000E+04  0.10566000000E+00 0. -1.
        994   -1    0    0    0    0 -0.00000000000E+00 -0.00000000000E+00  0.11368683772E-12  0.17120000000E+03  0.17120000000E+03 0.  0.
         13    1    1    2    0    0  0.96509000625E+02  0.29176651088E+02  0.32956724680E+03  0.34464452048E+03  0.10566000000E+00 0. -1.
        994    1    1    2    0    0 -0.97705077681E+02 -0.12342236022E+02  0.47089000199E+02  0.20304045640E+03  0.17120000000E+03 0.  0.
        998    1    1    2    0    0  0.11960770561E+01 -0.16834415066E+02  0.11233437493E+04  0.11235150231E+04  0.10000000000E+02 0. -1.
</event>
<event>
 5    1  0.1520352E-008  0.3803795E+03  0.7957747E-01  0.3449508E+00
         13   -1    0    0    0    0  0.00000000000E+00  0.00000000000E+00  0.14999999963E+04  0.15000000000E+04  0.10566000000E+00 0. -1.
        994   -1    0    0    0    0 -0.00000000000E+00 -0.00000000000E+00  0.11368683772E-12  0.17120000000E+03  0.17120000000E+03 0.  0.
         13    1    1    2    0    0 -0.43092493777E+02 -0.13871589660E+02  0.22799028294E+03  0.23244131367E+03  0.10566000000E+00 0. -1.
        994    1    1    2    0    0  0.38873426965E+02  0.15616409551E+02  0.98235641585E+01  0.17652466679E+03  0.17120000000E+03 0.  0.
        998    1    1    2    0    0  0.42190668122E+01 -0.17448198912E+01  0.12621861492E+04  0.12622340195E+04  0.10000000000E+02 0.  0.
</event>
<event>
 5    1  0.1520352E-008  0.3942316E+03  0.7957747E-01  0.3391439E+00
         13   -1    0    0    0    0  0.00000000000E+00  0.00000000000E+00  0.14999999963E+04  0.15000000000E+04  0.10566000000E+00 0. -1.
        994   -1    0    0    0    0 -0.00000000000E+00 -0.00000000000E+00  0.11368683772E-12  0.17120000000E+03  0.17120000000E+03 0.  0.
         13    1    1    2    0    0  0.11364994354E+03  0.41348425499E+02  0.23169768556E+03  0.26136149413E+03  0.10566000000E+00 0. -1.
        994    1    1    2    0    0 -0.12209228378E+03 -0.48053571723E+02  0.93742525435E+02  0.23518667605E+03  0.17120000000E+03 0.  0.
        998    1    1    2    0    0  0.84423402443E+01  0.67051462238E+01  0.11745597853E+04  0.11746518298E+04  0.10000000000E+02 0. -1.
</event>
<event>
 5    1  0.1520352E-008  0.3777715E+03  0.7957747E-01  0.3460919E+00
         13   -1    0    0    0    0  0.00000000000E+00  0.00000000000E+00  0.14999999963E+04  0.15000000000E+04  0.10566000000E+00 0. -1.
        994   -1    0    0    0    0 -0.00000000000E+00 -0.00000000000E+00  0.11368683772E-12  0.17120000000E+03  0.17120000000E+03 0.  0.
         13    1    1    2    0    0 -0.45190327963E+01  0.38865710593E+02  0.16934108314E+03  0.17380270056E+03  0.10566000000E+00 0. -1.
        994    1    1    2    0    0 -0.56862484023E+01  0.28647563156E+01  0.53988542880E+01  0.17140340684E+03  0.17120000000E+03 0.  0.
        998    1    1    2    0    0  0.10205281199E+02 -0.41730466909E+02  0.13252600588E+04  0.13259938926E+04  0.10000000000E+02 0. -1.
</event>
<event>
 5    1  0.1520352E-008  0.3752723E+03  0.7957747E-01  0.3472006E+00
         13   -1    0    0    0    0  0.00000000000E+00  0.00000000000E+00  0.14999999963E+04  0.15000000000E+04  0.10566000000E+00 0.  1.
        994   -1    0    0    0    0 -0.00000000000E+00 -0.00000000000E+00  0.11368683772E-12  0.17120000000E+03  0.17120000000E+03 0.  0.
         13    1    1    2    0    0  0.17044469922E+02 -0.80455811220E+01  0.23877472106E+02  0.30420226310E+02  0.10566000000E+00 0.  1.
        994    1    1    2    0    0 -0.20326020843E+02  0.80278865852E+01  0.81626022366E+01  0.17278212339E+03  0.17120000000E+03 0.  0.
        998    1    1    2    0    0  0.32815509208E+01  0.17694536817E-01  0.14679599219E+04  0.14679976503E+04  0.10000000000E+02 0.  1.
</event>
<event>
 5    1  0.1520352E-008  0.3845749E+03  0.7957747E-01  0.3431477E+00
         13   -1    0    0    0    0  0.00000000000E+00  0.00000000000E+00  0.14999999963E+04  0.15000000000E+04  0.10566000000E+00 0. -1.
        994   -1    0    0    0    0 -0.00000000000E+00 -0.00000000000E+00  0.11368683772E-12  0.17120000000E+03  0.17120000000E+03 0.  0.
         13    1    1    2    0    0  0.90150963045E+01 -0.16492715297E+02  0.10228434023E+03  0.10399701457E+03  0.10566000000E+00 0. -1.
        994    1    1    2    0    0  0.11101094035E+01  0.43319524695E+01  0.19072002442E+01  0.17126901520E+03  0.17120000000E+03 0.  0.
        998    1    1    2    0    0 -0.10125205708E+02  0.12160762828E+02  0.13958084558E+04  0.13959339702E+04  0.10000000000E+02 0. -1.
</event>
<event>
 5    1  0.1520352E-008  0.3761889E+03  0.7957747E-01  0.3467923E+00
         13   -1    0    0    0    0  0.00000000000E+00  0.00000000000E+00  0.14999999963E+04  0.15000000000E+04  0.10566000000E+00 0.  1.
        994   -1    0    0    0    0 -0.00000000000E+00 -0.00000000000E+00  0.11368683772E-12  0.17120000000E+03  0.17120000000E+03 0.  0.
         13    1    1    2    0    0  0.18140303122E+02 -0.66046855696E+02  0.29179252815E+03  0.29972345319E+03  0.10566000000E+00 0.  1.
        994    1    1    2    0    0 -0.12981000017E+02  0.75448842551E+02  0.26178054643E+02  0.18935618487E+03  0.17120000000E+03 0.  0.
        998    1    1    2    0    0 -0.51593031051E+01 -0.94019868549E+01  0.11820294135E+04  0.11821203619E+04  0.10000000000E+02 0.  1.
</event>
<event>
 5    1  0.1520352E-008  0.3802831E+03  0.7957747E-01  0.3449927E+00
         13   -1    0    0    0    0  0.00000000000E+00  0.00000000000E+00  0.14999999963E+04  0.15000000000E+04  0.10566000000E+00 0. -1.
        994   -1    0    0    0    0 -0.00000000000E+00 -0.00000000000E+00  0.11368683772E-12  0.17120000000E+03  0.17120000000E+03 0.  0.
         13    1    1    2    0    0 -0.25033267045E+02 -0.13371431317E+02  0.11171724250E+03  0.11526583653E+03  0.10566000000E+00 0. -1.
        994    1    1    2    0    0  0.41799793752E+01 -0.14425271339E+02  0.47440017055E+01  0.17192296598E+03  0.17120000000E+03 0.  0.
        998    1    1    2    0    0  0.20853287670E+02  0.27796702656E+02  0.13835387521E+04  0.13840111975E+04  0.10000000000E+02 0. -1.
</event>
<event>
 5    1  0.1520352E-008  0.3845996E+03  0.7957747E-01  0.3431372E+00
         13   -1    0    0    0    0  0.00000000000E+00  0.00000000000E+00  0.14999999963E+04  0.15000000000E+04  0.10566000000E+00 0. -1.
        994   -1    0    0    0    0 -0.00000000000E+00 -0.00000000000E+00  0.11368683772E-12  0.17120000000E+03  0.17120000000E+03 0.  0.
         13    1    1    2    0    0  0.28583631706E+00 -0.18032194166E+02  0.89264191179E+02  0.91067824833E+02  0.10566000000E+00 0. -1.
        994    1    1    2    0    0 -0.26278841498E+01  0.10692897476E+02  0.22284028096E+01  0.17156820688E+03  0.17120000000E+03 0.  0.
        998    1    1    2    0    0  0.23420478328E+01  0.73392966901E+01  0.14085074023E+04  0.14085639683E+04  0.10000000000E+02 0. -1.
</event>
<event>
 5    1  0.1520352E-008  0.3827822E+03  0.7957747E-01  0.3439133E+00
         13   -1    0    0    0    0  0.00000000000E+00  0.00000000000E+00  0.14999999963E+04  0.15000000000E+04  0.10566000000E+00 0. -1.
        994   -1    0    0    0    0 -0.00000000000E+00 -0.00000000000E+00  0.11368683772E-12  0.17120000000E+03  0.17120000000E+03 0.  0.
         13    1    1    2    0    0  0.14314863609E+01 -0.22570809025E+02  0.90193787778E+02  0.92986133865E+02  0.10566000000E+00 0. -1.
        994    1    1    2    0    0  0.21937929464E+01  0.18967961864E+02  0.39438733625E+01  0.17230667556E+03  0.17120000000E+03 0.  0.
        998    1    1    2    0    0 -0.36252793072E+01  0.36028471615E+01  0.14058623351E+04  0.14059071906E+04  0.10000000000E+02 0. -1.
</event>
<event>
 5    1  0.1520352E-008  0.3818383E+03  0.7957747E-01  0.3443193E+00
         13   -1    0    0    0    0  0.00000000000E+00  0.00000000000E+00  0.14999999963E+04  0.15000000000E+04  0.10566000000E+00 0.  1.
        994   -1    0    0    0    0 -0.00000000000E+00 -0.00000000000E+00  0.11368683772E-12  0.17120000000E+03  0.17120000000E+03 0.  0.
         13    1    1    2    0    0  0.21416705587E+02 -0.18187547774E+02  0.11838998337E+03  0.12167851700E+03  0.10566000000E+00 0.  1.
        994    1    1    2    0    0 -0.19521556353E+02  0.10672534545E+02  0.48545076027E+01  0.17270784696E+03  0.17120000000E+03 0.  0.
        998    1    1    2    0    0 -0.18951492344E+01  0.75150132286E+01  0.13767555053E+04  0.13768136360E+04  0.10000000000E+02 0.  1.
</event>
<event>
 5    1  0.1520352E-008  0.3858251E+03  0.7957747E-01  0.3426180E+00
         13   -1    0    0    0    0  0.00000000000E+00  0.00000000000E+00  0.14999999963E+04  0.15000000000E+04  0.10566000000E+00 0.  1.
        994   -1    0    0    0    0 -0.00000000000E+00 -0.00000000000E+00  0.11368683772E-12  0.17120000000E+03  0.17120000000E+03 0.  0.
         13    1    1    2    0    0  0.11157034167E+02 -0.52385140562E+01  0.63965847599E+02  0.65142630159E+02  0.10566000000E+00 0.  1.
        994    1    1    2    0    0 -0.49296515076E+01  0.27214632162E+01  0.13250558031E+01  0.17129770459E+03  0.17120000000E+03 0.  0.
        998    1    1    2    0    0 -0.62273826591E+01  0.25170508400E+01  0.14347090929E+04  0.14347596652E+04  0.10000000000E+02 0.  1.
</event>
<event>
 5    1  0.1520352E-008  0.3774942E+03  0.7957747E-01  0.3462143E+00
         13   -1    0    0    0    0  0.00000000000E+00  0.00000000000E+00  0.14999999963E+04  0.15000000000E+04  0.10566000000E+00 0. -1.
        994   -1    0    0    0    0 -0.00000000000E+00 -0.00000000000E+00  0.11368683772E-12  0.17120000000E+03  0.17120000000E+03 0.  0.
         13    1    1    2    0    0 -0.17412083421E+02  0.33698191254E+02  0.14289640413E+03  0.14784499390E+03  0.10566000000E+00 0. -1.
        994    1    1    2    0    0  0.15751889717E+02 -0.11687289241E+00  0.62403283358E+01  0.17203638390E+03  0.17120000000E+03 0.  0.
        998    1    1    2    0    0  0.16601937036E+01 -0.33581318362E+02  0.13508632638E+04  0.13513186222E+04  0.10000000000E+02 0. -1.
</event>
<event>
 5    1  0.1520352E-008  0.3775971E+03  0.7957747E-01  0.3461688E+00
         13   -1    0    0    0    0  0.00000000000E+00  0.00000000000E+00  0.14999999963E+04  0.15000000000E+04  0.10566000000E+00 0. -1.
        994   -1    0    0    0    0 -0.00000000000E+00 -0.00000000000E+00  0.11368683772E-12  0.17120000000E+03  0.17120000000E+03 0.  0.
         13    1    1    2    0    0  0.14297652415E+02 -0.44021014970E+02  0.20211206230E+03  0.20734408483E+03  0.10566000000E+00 0. -1.
        994    1    1    2    0    0  0.18358503494E+02  0.32069117236E+02  0.99660463488E+01  0.17542583906E+03  0.17120000000E+03 0.  0.
        998    1    1    2    0    0 -0.32656155909E+02  0.11951897734E+02  0.12879218876E+04  0.12884300761E+04  0.10000000000E+02 0. -1.
</event>
<event>
 5    1  0.1520352E-008  0.3837840E+03  0.7957747E-01  0.3434846E+00
         13   -1    0    0    0    0  0.00000000000E+00  0.00000000000E+00  0.14999999963E+04  0.15000000000E+04  0.10566000000E+00 0. -1.
        994   -1    0    0    0    0 -0.00000000000E+00 -0.00000000000E+00  0.11368683772E-12  0.17120000000E+03  0.17120000000E+03 0.  0.
         13    1    1    2    0    0  0.58585860114E+01 -0.95285477400E+01  0.27691113479E+02  0.29865116471E+02  0.10566000000E+00 0. -1.
        994    1    1    2    0    0  0.53338243571E+01  0.79514168617E+01  0.25377894571E+01  0.17148631166E+03  0.17120000000E+03 0.  0.
        998    1    1    2    0    0 -0.11192410368E+02  0.15771308782E+01  0.14697710933E+04  0.14698485719E+04  0.10000000000E+02 0. -1.
</event>
<event>
 5    1  0.1520352E-008  0.3827544E+03  0.7957747E-01  0.3439252E+00
         13   -1    0    0    0    0  0.00000000000E+00  0.00000000000E+00  0.14999999963E+04  0.15000000000E+04  0.10566000000E+00 0.  1.
        994   -1    0    0    0    0 -0.00000000000E+00 -0.00000000000E+00  0.11368683772E-12  0.17120000000E+03  0.17120000000E+03 0.  0.
         13    1    1    2    0    0  0.52238905515E+01  0.15007217012E+02  0.41540741470E+02  0.44476397795E+02  0.10566000000E+00 0.  1.
        994    1    1    2    0    0 -0.18661072687E+02 -0.25843703901E+02  0.61226539031E+01  0.17424999155E+03  0.17120000000E+03 0.  0.
        998    1    1    2    0    0  0.13437182136E+02  0.10836486890E+02  0.14523366009E+04  0.14524736107E+04  0.10000000000E+02 0.  1.
</event>
<event>
 5    1  0.1520352E-008  0.3738746E+03  0.7957747E-01  0.3478271E+00
         13   -1    0    0    0    0  0.00000000000E+00  0.00000000000E+00  0.14999999963E+04  0.15000000000E+04  0.10566000000E+00 0.  1.
        994   -1    0    0    0    0 -0.00000000000E+00 -0.00000000000E+00  0.11368683772E-12  0.17120000000E+03  0.17120000000E+03 0.  0.
         13    1    1    2    0    0  0.16799311228E+01  0.15084359446E+02  0.28815050882E+01  0.15449087483E+02  0.10566000000E+00 0.  1.
        994    1    1    2    0    0  0.10817079281E+02 -0.16839451172E+02  0.14423351154E+02  0.17296834791E+03  0.17120000000E+03 0.  0.
        998    1    1    2    0    0 -0.12497010403E+02  0.17550917261E+01  0.14826951400E+04  0.14827825646E+04  0.10000000000E+02 0.  1.
</event>
<event>
 5    1  0.1520352E-008  0.3824667E+03  0.7957747E-01  0.3440488E+00
         13   -1    0    0    0    0  0.00000000000E+00  0.00000000000E+00  0.14999999963E+04  0.15000000000E+04  0.10566000000E+00 0. -1.
        994   -1    0    0    0    0 -0.00000000000E+00 -0.00000000000E+00  0.11368683772E-12  0.17120000000E+03  0.17120000000E+03 0.  0.
         13    1    1    2    0    0  0.57901956482E+02  0.89522455585E+01  0.84629742758E+02  0.10293193765E+03  0.10566000000E+00 0. -1.
        994    1    1    2    0    0 -0.65226283406E+02  0.31598653503E+00  0.33416289347E+02  0.18622743162E+03  0.17120000000E+03 0.  0.
        998    1    1    2    0    0  0.73243269244E+01 -0.92682320935E+01  0.13819539642E+04  0.13820406307E+04  0.10000000000E+02 0. -1.
</event>
<event>
 5    1  0.1520352E-008  0.3748329E+03  0.7957747E-01  0.3473970E+00
         13   -1    0    0    0    0  0.00000000000E+00  0.00000000000E+00  0.14999999963E+04  0.15000000000E+04  0.10566000000E+00 0.  1.
        994   -1    0    0    0    0 -0.00000000000E+00 -0.00000000000E+00  0.11368683772E-12  0.17120000000E+03  0.17120000000E+03 0.  0.
         13    1    1    2    0    0  0.27225853909E+01 -0.41577724480E+02  0.12208383652E+03  0.12899842615E+03  0.10566000000E+00 0.  1.
        994    1    1    2    0    0  0.86668424875E+01  0.32588039158E+02  0.10641698935E+02  0.17481355843E+03  0.17120000000E+03 0.  0.
        998    1    1    2    0    0 -0.11389427878E+02  0.89896853223E+01  0.13672744608E+04  0.13673880154E+04  0.10000000000E+02 0.  1.
</event>
<event>
 5    1  0.1520352E-008  0.3800055E+03  0.7957747E-01  0.3451134E+00
         13   -1    0    0    0    0  0.00000000000E+00  0.00000000000E+00  0.14999999963E+04  0.15000000000E+04  0.10566000000E+00 0.  1.
        994   -1    0    0    0    0 -0.00000000000E+00 -0.00000000000E+00  0.11368683772E-12  0.17120000000E+03  0.17120000000E+03 0.  0.
         13    1    1    2    0    0  0.64848774488E+01  0.43211115549E+02  0.20070529290E+03  0.20540662088E+03  0.10566000000E+00 0.  1.
        994    1    1    2    0    0 -0.12677084418E+02 -0.42439472909E+02  0.10716460422E+02  0.17716122559E+03  0.17120000000E+03 0.  0.
        998    1    1    2    0    0  0.61922069694E+01 -0.77164264006E+00  0.12885782430E+04  0.12886321535E+04  0.10000000000E+02 0.  1.
</event>
<event>
 5    1  0.1520352E-008  0.3753960E+03  0.7957747E-01  0.3471453E+00
         13   -1    0    0    0    0  0.00000000000E+00  0.00000000000E+00  0.14999999963E+04  0.15000000000E+04  0.10566000000E+00 0.  1.
        994   -1    0    0    0    0 -0.00000000000E+00 -0.00000000000E+00  0.11368683772E-12  0.17120000000E+03  0.17120000000E+03 0.  0.
         13    1    1    2    0    0 -0.58148288979E+01  0.11824863380E+02  0.10641553803E+02  0.16937929639E+02  0.10566000000E+00 0.  1.
        994    1    1    2    0    0 -0.10330617057E+02 -0.92861015892E+01  0.71307694576E+01  0.17191056164E+03  0.17120000000E+03 0.  0.
        998    1    1    2    0    0  0.16145445955E+02 -0.25387617912E+01  0.14822276730E+04  0.14823515087E+04  0.10000000000E+02 0.  1.
</event>
<event>
 5    1  0.1520352E-008  0.3746098E+03  0.7957747E-01  0.3474970E+00
         13   -1    0    0    0    0  0.00000000000E+00  0.00000000000E+00  0.14999999963E+04  0.15000000000E+04  0.10566000000E+00 0. -1.
        994   -1    0    0    0    0 -0.00000000000E+00 -0.00000000000E+00  0.11368683772E-12  0.17120000000E+03  0.17120000000E+03 0.  0.
         13    1    1    2    0    0 -0.54625087475E+02  0.39788718287E+02  0.27203131032E+03  0.28029999508E+03  0.10566000000E+00 0. -1.
        994    1    1    2    0    0  0.57746685356E+02 -0.34176240020E+02  0.22362872954E+02  0.18523561520E+03  0.17120000000E+03 0.  0.
        998    1    1    2    0    0 -0.31215978815E+01 -0.56124782663E+01  0.12056058130E+04  0.12056643897E+04  0.10000000000E+02 0.  0.
</event>
<event>
 5    1  0.1520352E-008  0.3818862E+03  0.7957747E-01  0.3442986E+00
         13   -1    0    0    0    0  0.00000000000E+00  0.00000000000E+00  0.14999999963E+04  0.15000000000E+04  0.10566000000E+00 0.  1.
        994   -1    0    0    0    0 -0.00000000000E+00 -0.00000000000E+00  0.11368683772E-12  0.17120000000E+03  0.17120000000E+03 0.  0.
         13    1    1    2    0    0  0.14564939049E+01 -0.32443116681E+02  0.13089632472E+03  0.13486488121E+03  0.10566000000E+00 0.  1.
        994    1    1    2    0    0 -0.30845005743E+01  0.55004772807E+02  0.13333405720E+02  0.18033928824E+03  0.17120000000E+03 0.  0.
        998    1    1    2    0    0  0.16280066695E+01 -0.22561656126E+02  0.13557702658E+04  0.13559958306E+04  0.10000000000E+02 0.  1.
</event>
<event>
 5    1  0.1520352E-008  0.3846849E+03  0.7957747E-01  0.3431010E+00
         13   -1    0    0    0    0  0.00000000000E+00  0.00000000000E+00  0.14999999963E+04  0.15000000000E+04  0.10566000000E+00 0. -1.
        994   -1    0    0    0    0 -0.00000000000E+00 -0.00000000000E+00  0.11368683772E-12  0.17120000000E+03  0.17120000000E+03 0.  0.
         13    1    1    2    0    0  0.66310206188E+01  0.85297822512E+01  0.31420875473E+02  0.33226648932E+02  0.10566000000E+00 0. -1.
        994    1    1    2    0    0 -0.82406427192E+01 -0.11305564314E+02  0.24312613624E+01  0.17178787794E+03  0.17120000000E+03 0.  0.
        998    1    1    2    0    0  0.16096221004E+01  0.27757820630E+01  0.14661478594E+04  0.14661854731E+04  0.10000000000E+02 0. -1.
</event>
<event>
 5    1  0.1520352E-008  0.3849989E+03  0.7957747E-01  0.3429677E+00
         13   -1    0    0    0    0  0.00000000000E+00  0.00000000000E+00  0.14999999963E+04  0.15000000000E+04  0.10566000000E+00 0.  1.
        994   -1    0    0    0    0 -0.00000000000E+00 -0.00000000000E+00  0.11368683772E-12  0.17120000000E+03  0.17120000000E+03 0.  0.
         13    1    1    2    0    0  0.12067549741E+02 -0.24033134627E+01  0.51152587766E+02  0.52611786432E+02  0.10566000000E+00 0.  1.
        994    1    1    2    0    0  0.97868857039E+01  0.34359163181E+01  0.19845721561E+01  0.17152541263E+03  0.17120000000E+03 0.  0.
        998    1    1    2    0    0 -0.21854435444E+02 -0.10326028554E+01  0.14468628364E+04  0.14470628009E+04  0.10000000000E+02 0.  1.
</event>
<event>
 5    1  0.1520352E-008  0.3852837E+03  0.7957747E-01  0.3428470E+00
         13   -1    0    0    0    0  0.00000000000E+00  0.00000000000E+00  0.14999999963E+04  0.15000000000E+04  0.10566000000E+00 0. -1.
        994   -1    0    0    0    0 -0.00000000000E+00 -0.00000000000E+00  0.11368683772E-12  0.17120000000E+03  0.17120000000E+03 0.  0.
         13    1    1    2    0    0  0.40640114258E+01  0.12969421863E+02  0.64394613582E+02  0.65813368815E+02  0.10566000000E+00 0. -1.
        994    1    1    2    0    0  0.30280020164E+00 -0.40045046181E+01  0.15423269732E+01  0.17125404088E+03  0.17120000000E+03 0.  0.
        998    1    1    2    0    0 -0.43668116275E+01 -0.89649172453E+01  0.14340630557E+04  0.14341325903E+04  0.10000000000E+02 0. -1.
</event>
<event>
 5    1  0.1520352E-008  0.3858144E+03  0.7957747E-01  0.3426226E+00
         13   -1    0    0    0    0  0.00000000000E+00  0.00000000000E+00  0.14999999963E+04  0.15000000000E+04  0.10566000000E+00 0. -1.
        994   -1    0    0    0    0 -0.00000000000E+00 -0.00000000000E+00  0.11368683772E-12  0.17120000000E+03  0.17120000000E+03 0.  0.
         13    1    1    2    0    0  0.86200769415E+01  0.11756670530E+02  0.84794499011E+02  0.86038614906E+02  0.10566000000E+00 0. -1.
        994    1    1    2    0    0 -0.75544219487E+01 -0.10783637824E+02  0.17951583024E+01  0.17171493450E+03  0.17120000000E+03 0.  0.
        998    1    1    2    0    0 -0.10656549929E+01 -0.97303270580E+00  0.14134103390E+04  0.14134464506E+04  0.10000000000E+02 0. -1.
</event>
<event>
 5    1  0.1520352E-008  0.3841887E+03  0.7957747E-01  0.3433120E+00
         13   -1    0    0    0    0  0.00000000000E+00  0.00000000000E+00  0.14999999963E+04  0.15000000000E+04  0.10566000000E+00 0. -1.
        994   -1    0    0    0    0 -0.00000000000E+00 -0.00000000000E+00  0.11368683772E-12  0.17120000000E+03  0.17120000000E+03 0.  0.
         13    1    1    2    0    0 -0.17663479523E+03 -0.13794845940E+03  0.11155741505E+04  0.11378643701E+04  0.10566000000E+00 0. -1.
        994    1    1    2    0    0  0.18682326454E+03  0.13693017824E+03  0.20546933128E+03  0.35380770481E+03  0.17120000000E+03 0.  0.
        998    1    1    2    0    0 -0.10188469301E+02  0.10182811632E+01  0.17895651451E+03  0.17952792509E+03  0.10000000000E+02 0.  1.
</event>
<event>
 5    1  0.1520352E-008  0.3850234E+03  0.7957747E-01  0.3429573E+00
         13   -1    0    0    0    0  0.00000000000E+00  0.00000000000E+00  0.14999999963E+04  0.15000000000E+04  0.10566000000E+00 0.  1.
        994   -1    0    0    0    0 -0.00000000000E+00 -0.00000000000E+00  0.11368683772E-12  0.17120000000E+03  0.17120000000E+03 0.  0.
         13    1    1    2    0    0  0.13666474464E+02  0.28517450522E+00  0.56023257987E+02  0.57666892133E+02  0.10566000000E+00 0.  1.
        994    1    1    2    0    0 -0.14422638338E+02  0.86553689888E+01  0.25494568397E+01  0.17204321445E+03  0.17120000000E+03 0.  0.
        998    1    1    2    0    0  0.75616387351E+00 -0.89405434941E+01  0.14414272815E+04  0.14414898934E+04  0.10000000000E+02 0.  1.
</event>
<event>
 5    1  0.1520352E-008  0.3717038E+03  0.7957747E-01  0.3488097E+00
         13   -1    0    0    0    0  0.00000000000E+00  0.00000000000E+00  0.14999999963E+04  0.15000000000E+04  0.10566000000E+00 0.  1.
        994   -1    0    0    0    0 -0.00000000000E+00 -0.00000000000E+00  0.11368683772E-12  0.17120000000E+03  0.17120000000E+03 0.  0.
         13    1    1    2    0    0  0.67376826783E+02  0.11203540004E+02  0.20240246072E+03  0.21361629939E+03  0.10566000000E+00 0.  1.
        994    1    1    2    0    0 -0.35845101312E+02  0.22149214740E+02  0.18112932040E+02  0.17723706528E+03  0.17120000000E+03 0.  0.
        998    1    1    2    0    0 -0.31531725471E+02 -0.33352754744E+02  0.12794846035E+04  0.12803466353E+04  0.10000000000E+02 0.  1.
</event>
<event>
 5    1  0.1520352E-008  0.3781992E+03  0.7957747E-01  0.3459037E+00
         13   -1    0    0    0    0  0.00000000000E+00  0.00000000000E+00  0.14999999963E+04  0.15000000000E+04  0.10566000000E+00 0. -1.
        994   -1    0    0    0    0 -0.00000000000E+00 -0.00000000000E+00  0.11368683772E-12  0.17120000000E+03  0.17120000000E+03 0.  0.
         13    1    1    2    0    0 -0.15146016353E+02 -0.31134504168E+02  0.12251558450E+03  0.12731393785E+03  0.10566000000E+00 0. -1.
        994    1    1    2    0    0  0.15389785675E+02  0.60187878680E+01  0.59638008592E+01  0.17209903611E+03  0.17120000000E+03 0.  0.
        998    1    1    2    0    0 -0.24376932183E+00  0.25115716300E+02  0.13715206109E+04  0.13717870260E+04  0.10000000000E+02 0. -1.
</event>
<event>
 5    1  0.1520352E-008  0.3785514E+03  0.7957747E-01  0.3457491E+00
         13   -1    0    0    0    0  0.00000000000E+00  0.00000000000E+00  0.14999999963E+04  0.15000000000E+04  0.10566000000E+00 0. -1.
        994   -1    0    0    0    0 -0.00000000000E+00 -0.00000000000E+00  0.11368683772E-12  0.17120000000E+03  0.17120000000E+03 0.  0.
         13    1    1    2    0    0 -0.38921900898E+02  0.19560935896E+01  0.16639402088E+03  0.17089681688E+03  0.10566000000E+00 0. -1.
        994    1    1    2    0    0  0.11709043379E+02  0.12547963933E+02  0.58562237582E+01  0.17215774293E+03  0.17120000000E+03 0.  0.
        998    1    1    2    0    0  0.27212857519E+02 -0.14504057523E+02  0.13277497516E+04  0.13281454402E+04  0.10000000000E+02 0. -1.
</event>
<event>
 5    1  0.1520352E-008  0.3798063E+03  0.7957747E-01  0.3452002E+00
         13   -1    0    0    0    0  0.00000000000E+00  0.00000000000E+00  0.14999999963E+04  0.15000000000E+04  0.10566000000E+00 0.  1.
        994   -1    0    0    0    0 -0.00000000000E+00 -0.00000000000E+00  0.11368683772E-12  0.17120000000E+03  0.17120000000E+03 0.  0.
         13    1    1    2    0    0  0.39237563879E+02  0.96879834424E+00  0.21259740753E+03  0.21619017980E+03  0.10566000000E+00 0.  1.
        994    1    1    2    0    0 -0.20496095525E+01  0.80801355975E+01  0.44634170006E+01  0.17146093311E+03  0.17120000000E+03 0.  0.
        998    1    1    2    0    0 -0.37187954326E+02 -0.90489339418E+01  0.12829391718E+04  0.12835488871E+04  0.10000000000E+02 0.  1.
</event>
<event>
 5    1  0.1520352E-008  0.3835621E+03  0.7957747E-01  0.3435793E+00
         13   -1    0    0    0    0  0.00000000000E+00  0.00000000000E+00  0.14999999963E+04  0.15000000000E+04  0.10566000000E+00 0. -1.
        994   -1    0    0    0    0 -0.00000000000E+00 -0.00000000000E+00  0.11368683772E-12  0.17120000000E+03  0.17120000000E+03 0.  0.
         13    1    1    2    0    0 -0.29617955371E+02  0.43195425588E+01  0.18051975839E+03  0.18298436016E+03  0.10566000000E+00 0. -1.
        994    1    1    2    0    0  0.22592288662E+02 -0.88609783536E+01  0.42939758224E+01  0.17296475558E+03  0.17120000000E+03 0.  0.
        998    1    1    2    0    0  0.70256667095E+01  0.45414357948E+01  0.13151862621E+04  0.13152508843E+04  0.10000000000E+02 0. -1.
</event>
<event>
 5    1  0.1520352E-008  0.3851355E+03  0.7957747E-01  0.3429098E+00
         13   -1    0    0    0    0  0.00000000000E+00  0.00000000000E+00  0.14999999963E+04  0.15000000000E+04  0.10566000000E+00 0. -1.
        994   -1    0    0    0    0 -0.00000000000E+00 -0.00000000000E+00  0.11368683772E-12  0.17120000000E+03  0.17120000000E+03 0.  0.
         13    1    1    2    0    0  0.10911426616E+02  0.50643068699E+01  0.49144479261E+02  0.50595429049E+02  0.10566000000E+00 0. -1.
        994    1    1    2    0    0  0.39644654315E+01 -0.27662791312E+01  0.16397008226E+01  0.17127608679E+03  0.17120000000E+03 0.  0.
        998    1    1    2    0    0 -0.14875892047E+02 -0.22980277387E+01  0.14492158162E+04  0.14493284842E+04  0.10000000000E+02 0. -1.
</event>
<event>
 5    1  0.1520352E-008  0.3320974E+03  0.7957747E-01  0.3690552E+00
         13   -1    0    0    0    0  0.00000000000E+00  0.00000000000E+00  0.14999999963E+04  0.15000000000E+04  0.10566000000E+00 0.  1.
        994   -1    0    0    0    0 -0.00000000000E+00 -0.00000000000E+00  0.11368683772E-12  0.17120000000E+03  0.17120000000E+03 0.  0.
         13    1    1    2    0    0  0.15773737443E+03  0.23994879598E+03  0.46937377131E+03  0.55024381172E+03  0.10566000000E+00 0.  1.
        994    1    1    2    0    0 -0.14421139643E+03 -0.24191998329E+03  0.55831892571E+03  0.64834533081E+03  0.17120000000E+03 0.  0.
        998    1    1    2    0    0 -0.13525977996E+02  0.19711873118E+01  0.47230729926E+03  0.47261085747E+03  0.10000000000E+02 0.  1.
</event>
<event>
 5    1  0.1520352E-008  0.3712041E+03  0.7957747E-01  0.3490376E+00
         13   -1    0    0    0    0  0.00000000000E+00  0.00000000000E+00  0.14999999963E+04  0.15000000000E+04  0.10566000000E+00 0.  1.
        994   -1    0    0    0    0 -0.00000000000E+00 -0.00000000000E+00  0.11368683772E-12  0.17120000000E+03  0.17120000000E+03 0.  0.
         13    1    1    2    0    0 -0.29516418851E+02  0.16999575101E+02  0.55979018696E+02  0.65527599022E+02  0.10566000000E+00 0.  1.
        994    1    1    2    0    0  0.17606704406E+02 -0.95898554124E+02  0.42123688802E+02  0.20147052857E+03  0.17120000000E+03 0.  0.
        998    1    1    2    0    0  0.11909714445E+02  0.78898979023E+02  0.14018972888E+04  0.14042018724E+04  0.10000000000E+02 0.  1.
</event>
<event>
 5    1  0.1520352E-008  0.3791942E+03  0.7957747E-01  0.3454675E+00
         13   -1    0    0    0    0  0.00000000000E+00  0.00000000000E+00  0.14999999963E+04  0.15000000000E+04  0.10566000000E+00 0.  1.
        994   -1    0    0    0    0 -0.00000000000E+00 -0.00000000000E+00  0.11368683772E-12  0.17120000000E+03  0.17120000000E+03 0.  0.
         13    1    1    2    0    0 -0.14002992900E+01 -0.22797131267E+02  0.57247343707E+02  0.61635538106E+02  0.10566000000E+00 0.  1.
        994    1    1    2    0    0 -0.74727207638E+00  0.78899944178E+01  0.47510117476E+01  0.17144918355E+03  0.17120000000E+03 0.  0.
        998    1    1    2    0    0  0.21475713664E+01  0.14907136849E+02  0.14380016408E+04  0.14381152783E+04  0.10000000000E+02 0.  1.
</event>
<event>
 5    1  0.1520352E-008  0.3964695E+03  0.7957747E-01  0.3382439E+00
         13   -1    0    0    0    0  0.00000000000E+00  0.00000000000E+00  0.14999999963E+04  0.15000000000E+04  0.10566000000E+00 0. -1.
        994   -1    0    0    0    0 -0.00000000000E+00 -0.00000000000E+00  0.11368683772E-12  0.17120000000E+03  0.17120000000E+03 0.  0.
         13    1    1    2    0    0  0.74112009826E+01  0.53343007379E+02  0.50767884258E+02  0.74012104228E+02  0.10566000000E+00 0. -1.
        994    1    1    2    0    0 -0.47689595680E+02 -0.48232957297E+01  0.34604348461E+02  0.18112002278E+03  0.17120000000E+03 0.  0.
        998    1    1    2    0    0  0.40278394697E+02 -0.48519711649E+02  0.14146277636E+04  0.14160678730E+04  0.10000000000E+02 0. -1.
</event>
<event>
 5    1  0.1520352E-008  0.3856353E+03  0.7957747E-01  0.3426982E+00
         13   -1    0    0    0    0  0.00000000000E+00  0.00000000000E+00  0.14999999963E+04  0.15000000000E+04  0.10566000000E+00 0. -1.
        994   -1    0    0    0    0 -0.00000000000E+00 -0.00000000000E+00  0.11368683772E-12  0.17120000000E+03  0.17120000000E+03 0.  0.
         13    1    1    2    0    0 -0.18936331015E+01  0.13933252750E+02  0.80268890480E+02  0.81491271443E+02  0.10566000000E+00 0. -1.
        994    1    1    2    0    0 -0.17004079634E+01 -0.20079536204E+01  0.13377551451E+01  0.17122544453E+03  0.17120000000E+03 0.  0.
        998    1    1    2    0    0  0.35940410649E+01 -0.11925299130E+02  0.14183933507E+04  0.14184832840E+04  0.10000000000E+02 0. -1.
</event>
<event>
 5    1  0.3742868E-008  0.3864856E+03  0.7957747E-01  0.3423396E+00
         13   -1    0    0    0    0  0.00000000000E+00  0.00000000000E+00  0.14999999963E+04  0.15000000000E+04  0.10566000000E+00 0.  1.
        994   -1    0    0    0    0 -0.00000000000E+00 -0.00000000000E+00  0.11368683772E-12  0.17120000000E+03  0.17120000000E+03 0.  0.
         13    1    1    2    0    0 -0.84653281265E+01 -0.58539973657E+01  0.60107918359E+02  0.60982817899E+02  0.10566000000E+00 0.  1.
        994    1    1    2    0    0  0.75425688480E+01  0.26610051835E+01  0.11037700938E+01  0.17139028444E+03  0.17120000000E+03 0.  0.
        998    1    1    2    0    0  0.92275927853E+00  0.31929921823E+01  0.14387883078E+04  0.14388268977E+04  0.10000000000E+02 0.  1.
</event>
<event>
 5    1  0.1520352E-008  0.3690579E+03  0.7957747E-01  0.3500232E+00
         13   -1    0    0    0    0  0.00000000000E+00  0.00000000000E+00  0.14999999963E+04  0.15000000000E+04  0.10566000000E+00 0.  1.
        994   -1    0    0    0    0 -0.00000000000E+00 -0.00000000000E+00  0.11368683772E-12  0.17120000000E+03  0.17120000000E+03 0.  0.
         13    1    1    2    0    0  0.53700336110E+01 -0.36184625013E+02  0.64191040803E+02  0.73882780346E+02  0.10566000000E+00 0.  1.
        994    1    1    2    0    0  0.18280632888E+01  0.28158967701E+02  0.12529461365E+02  0.17396176787E+03  0.17120000000E+03 0.  0.
        998    1    1    2    0    0 -0.71980968998E+01  0.80256573119E+01  0.14232794941E+04  0.14233554518E+04  0.10000000000E+02 0.  1.
</event>
<event>
 5    1  0.1520352E-008  0.3811089E+03  0.7957747E-01  0.3446344E+00
         13   -1    0    0    0    0  0.00000000000E+00  0.00000000000E+00  0.14999999963E+04  0.15000000000E+04  0.10566000000E+00 0.  1.
        994   -1    0    0    0    0 -0.00000000000E+00 -0.00000000000E+00  0.11368683772E-12  0.17120000000E+03  0.17120000000E+03 0.  0.
         13    1    1    2    0    0 -0.95161548093E+01 -0.20915578759E+02  0.81312070182E+02  0.84496642291E+02  0.10566000000E+00 0.  1.
        994    1    1    2    0    0 -0.77030769432E+01 -0.52635593893E+01  0.38644121895E+01  0.17149756888E+03  0.17120000000E+03 0.  0.
        998    1    1    2    0    0  0.17219231752E+02  0.26179138148E+02  0.14148235139E+04  0.14152057888E+04  0.10000000000E+02 0.  1.
</event>
<event>
 5    1  0.1520352E-008  0.3802333E+03  0.7957747E-01  0.3450143E+00
         13   -1    0    0    0    0  0.00000000000E+00  0.00000000000E+00  0.14999999963E+04  0.15000000000E+04  0.10566000000E+00 0. -1.
        994   -1    0    0    0    0 -0.00000000000E+00 -0.00000000000E+00  0.11368683772E-12  0.17120000000E+03  0.17120000000E+03 0.  0.
         13    1    1    2    0    0 -0.29080584514E+02 -0.22308133428E+02  0.17654870639E+03  0.18031303366E+03  0.10566000000E+00 0. -1.
        994    1    1    2    0    0  0.16055916732E+02 -0.81711482862E-01  0.48770519760E+01  0.17202041964E+03  0.17120000000E+03 0.  0.
        998    1    1    2    0    0  0.13024667783E+02  0.22389844910E+02  0.13185742379E+04  0.13188665467E+04  0.10000000000E+02 0. -1.
</event>
<event>
 5    1  0.1520352E-008  0.3841974E+03  0.7957747E-01  0.3433083E+00
         13   -1    0    0    0    0  0.00000000000E+00  0.00000000000E+00  0.14999999963E+04  0.15000000000E+04  0.10566000000E+00 0.  1.
        994   -1    0    0    0    0 -0.00000000000E+00 -0.00000000000E+00  0.11368683772E-12  0.17120000000E+03  0.17120000000E+03 0.  0.
         13    1    1    2    0    0 -0.85396239794E+01 -0.16981961416E+02  0.86278381467E+02  0.88347509664E+02  0.10566000000E+00 0.  1.
        994    1    1    2    0    0  0.70647381119E+01  0.14715791435E+02  0.29082099401E+01  0.17200105444E+03  0.17120000000E+03 0.  0.
        998    1    1    2    0    0  0.14748858676E+01  0.22661699811E+01  0.14108134049E+04  0.14108514359E+04  0.10000000000E+02 0.  0.
</event>
<event>
 5    1  0.1520352E-008  0.3843629E+03  0.7957747E-01  0.3432379E+00
         13   -1    0    0    0    0  0.00000000000E+00  0.00000000000E+00  0.14999999963E+04  0.15000000000E+04  0.10566000000E+00 0. -1.
        994   -1    0    0    0    0 -0.00000000000E+00 -0.00000000000E+00  0.11368683772E-12  0.17120000000E+03  0.17120000000E+03 0.  0.
         13    1    1    2    0    0 -0.11950148705E+02 -0.43015626867E+01  0.38565755736E+02  0.40603425658E+02  0.10566000000E+00 0. -1.
        994    1    1    2    0    0  0.24300811179E+02 -0.15865759486E+01  0.39035982052E+01  0.17296740943E+03  0.17120000000E+03 0.  0.
        998    1    1    2    0    0 -0.12350662474E+02  0.58881386354E+01  0.14575306423E+04  0.14576291649E+04  0.10000000000E+02 0. -1.
</event>
<event>
 5    1  0.1520352E-008  0.3840519E+03  0.7957747E-01  0.3433703E+00
         13   -1    0    0    0    0  0.00000000000E+00  0.00000000000E+00  0.14999999963E+04  0.15000000000E+04  0.10566000000E+00 0. -1.
        994   -1    0    0    0    0 -0.00000000000E+00 -0.00000000000E+00  0.11368683772E-12  0.17120000000E+03  0.17120000000E+03 0.  0.
         13    1    1    2    0    0 -0.17469919178E+02  0.13494698125E+02  0.11936846674E+03  0.12139253259E+03  0.10566000000E+00 0. -1.
        994    1    1    2    0    0  0.77110176766E+01 -0.54014980253E+01  0.23940334306E+01  0.17147538415E+03  0.17120000000E+03 0.  0.
        998    1    1    2    0    0  0.97589015014E+01 -0.80932000994E+01  0.13782374961E+04  0.13783320833E+04  0.10000000000E+02 0. -1.
</event>
<event>
 5    1  0.1520352E-008  0.3839263E+03  0.7957747E-01  0.3434239E+00
         13   -1    0    0    0    0  0.00000000000E+00  0.00000000000E+00  0.14999999963E+04  0.15000000000E+04  0.10566000000E+00 0.  1.
        994   -1    0    0    0    0 -0.00000000000E+00 -0.00000000000E+00  0.11368683772E-12  0.17120000000E+03  0.17120000000E+03 0.  0.
         13    1    1    2    0    0 -0.11516014431E+02 -0.24700914141E+02  0.15430184036E+03  0.15669021300E+03  0.10566000000E+00 0.  1.
        994    1    1    2    0    0  0.98180173474E+01  0.26920834629E+02  0.48786984999E+01  0.17365012669E+03  0.17120000000E+03 0.  0.
        998    1    1    2    0    0  0.16979970836E+01 -0.22199204879E+01  0.13408194574E+04  0.13408596603E+04  0.10000000000E+02 0.  1.
</event>
<event>
 5    1  0.1520352E-008  0.3857423E+03  0.7957747E-01  0.3426530E+00
         13   -1    0    0    0    0  0.00000000000E+00  0.00000000000E+00  0.14999999963E+04  0.15000000000E+04  0.10566000000E+00 0.  1.
        994   -1    0    0    0    0 -0.00000000000E+00 -0.00000000000E+00  0.11368683772E-12  0.17120000000E+03  0.17120000000E+03 0.  0.
         13    1    1    2    0    0  0.11998986253E+02 -0.97042340372E+01  0.91475115143E+02  0.92767751313E+02  0.10566000000E+00 0.  1.
        994    1    1    2    0    0  0.13883908962E+01  0.26154508050E+02  0.35158465230E+01  0.17322755871E+03  0.17120000000E+03 0.  0.
        998    1    1    2    0    0 -0.13387377149E+02 -0.16450274013E+02  0.14050090346E+04  0.14052046900E+04  0.10000000000E+02 0.  1.
</event>
<event>
 5    1  0.1520352E-008  0.3813907E+03  0.7957747E-01  0.3445126E+00
         13   -1    0    0    0    0  0.00000000000E+00  0.00000000000E+00  0.14999999963E+04  0.15000000000E+04  0.10566000000E+00 0. -1.
        994   -1    0    0    0    0 -0.00000000000E+00 -0.00000000000E+00  0.11368683772E-12  0.17120000000E+03  0.17120000000E+03 0.  0.
         13    1    1    2    0    0  0.87260147352E+01 -0.22109698281E+02  0.76699563061E+02  0.80298295305E+02  0.10566000000E+00 0. -1.
        994    1    1    2    0    0 -0.11278605461E+02  0.23939995629E+02  0.57667202803E+01  0.17332923987E+03  0.17120000000E+03 0.  0.
        998    1    1    2    0    0  0.25525907262E+01 -0.18302973485E+01  0.14175337129E+04  0.14175724648E+04  0.10000000000E+02 0. -1.
</event>
<event>
 5    1  0.1520352E-008  0.2207413E+03  0.7957747E-01  0.4698765E+00
         13   -1    0    0    0    0  0.00000000000E+00  0.00000000000E+00  0.14999999963E+04  0.15000000000E+04  0.10566000000E+00 0.  1.
        994   -1    0    0    0    0 -0.00000000000E+00 -0.00000000000E+00  0.11368683772E-12  0.17120000000E+03  0.17120000000E+03 0.  0.
         13    1    1    2    0    0  0.44072568981E+02 -0.56992697326E+01 -0.20491817596E+02  0.48936681175E+02  0.10566000000E+00 0.  1.
        994    1    1    2    0    0 -0.58838033243E+02 -0.33337635256E+01  0.11046882356E+03  0.21209863063E+03  0.17120000000E+03 0.  0.
        998    1    1    2    0    0  0.14765464262E+02  0.90330332582E+01  0.14100229903E+04  0.14101646882E+04  0.10000000000E+02 0.  1.
</event>
<event>
 5    1  0.1520352E-008  0.3848799E+03  0.7957747E-01  0.3430182E+00
         13   -1    0    0    0    0  0.00000000000E+00  0.00000000000E+00  0.14999999963E+04  0.15000000000E+04  0.10566000000E+00 0. -1.
        994   -1    0    0    0    0 -0.00000000000E+00 -0.00000000000E+00  0.11368683772E-12  0.17120000000E+03  0.17120000000E+03 0.  0.
         13    1    1    2    0    0  0.14394386209E+02 -0.53227525774E+01  0.70031434644E+02  0.71693396151E+02  0.10566000000E+00 0. -1.
        994    1    1    2    0    0 -0.91096963239E+01  0.19645788502E+01  0.19755312593E+01  0.17146483272E+03  0.17120000000E+03 0.  0.
        998    1    1    2    0    0 -0.52846898855E+01  0.33581737272E+01  0.14279930304E+04  0.14280417711E+04  0.10000000000E+02 0.  1.
</event>
<event>
 5    1  0.1520352E-008  0.3690417E+03  0.7957747E-01  0.3500307E+00
         13   -1    0    0    0    0  0.00000000000E+00  0.00000000000E+00  0.14999999963E+04  0.15000000000E+04  0.10566000000E+00 0.  1.
        994   -1    0    0    0    0 -0.00000000000E+00 -0.00000000000E+00  0.11368683772E-12  0.17120000000E+03  0.17120000000E+03 0.  0.
         13    1    1    2    0    0 -0.35916061345E+02 -0.48373745524E+02  0.23863199093E+03  0.24612033840E+03  0.10566000000E+00 0.  1.
        994    1    1    2    0    0  0.99228592920E+01 -0.20065868216E+02  0.11511137565E+02  0.17304059781E+03  0.17120000000E+03 0.  0.
        998    1    1    2    0    0  0.25993202053E+02  0.68439613740E+02  0.12498568678E+04  0.12520390638E+04  0.10000000000E+02 0.  1.
</event>
<event>
 5    1  0.1520352E-008  0.3732010E+03  0.7957747E-01  0.3481308E+00
         13   -1    0    0    0    0  0.00000000000E+00  0.00000000000E+00  0.14999999963E+04  0.15000000000E+04  0.10566000000E+00 0. -1.
        994   -1    0    0    0    0 -0.00000000000E+00 -0.00000000000E+00  0.11368683772E-12  0.17120000000E+03  0.17120000000E+03 0.  0.
         13    1    1    2    0    0 -0.27403822561E+02  0.37621447748E+02  0.16042344496E+03  0.16703902441E+03  0.10566000000E+00 0. -1.
        994    1    1    2    0    0  0.35868063099E+02  0.23330098586E+02  0.13892733872E+02  0.17701203209E+03  0.17120000000E+03 0.  0.
        998    1    1    2    0    0 -0.84642405378E+01 -0.60951546334E+02  0.13256838175E+04  0.13271489435E+04  0.10000000000E+02 0. -1.
</event>
<event>
 5    1  0.1520352E-008  0.3855801E+03  0.7957747E-01  0.3427216E+00
         13   -1    0    0    0    0  0.00000000000E+00  0.00000000000E+00  0.14999999963E+04  0.15000000000E+04  0.10566000000E+00 0.  1.
        994   -1    0    0    0    0 -0.00000000000E+00 -0.00000000000E+00  0.11368683772E-12  0.17120000000E+03  0.17120000000E+03 0.  0.
         13    1    1    2    0    0  0.80898435132E+01  0.11418452539E+02  0.69500611912E+02  0.70895506533E+02  0.10566000000E+00 0.  1.
        994    1    1    2    0    0 -0.71762811672E+01 -0.15595325530E+02  0.23103856849E+01  0.17207408600E+03  0.17120000000E+03 0.  0.
        998    1    1    2    0    0 -0.91356234595E+00  0.41768729906E+01  0.14281889987E+04  0.14282304075E+04  0.10000000000E+02 0.  1.
</event>
<event>
 5    1  0.1520352E-008  0.3761329E+03  0.7957747E-01  0.3468172E+00
         13   -1    0    0    0    0  0.00000000000E+00  0.00000000000E+00  0.14999999963E+04  0.15000000000E+04  0.10566000000E+00 0. -1.
        994   -1    0    0    0    0 -0.00000000000E+00 -0.00000000000E+00  0.11368683772E-12  0.17120000000E+03  0.17120000000E+03 0.  0.
         13    1    1    2    0    0  0.99777380922E+01 -0.41831489688E+02  0.17771016276E+03  0.18283966172E+03  0.10566000000E+00 0. -1.
        994    1    1    2    0    0 -0.10092948755E+02 -0.60243438517E+01  0.65661069917E+01  0.17172860593E+03  0.17120000000E+03 0.  0.
        998    1    1    2    0    0  0.11521066303E+00  0.47855833540E+02  0.13157237265E+04  0.13166317323E+04  0.10000000000E+02 0. -1.
</event>
<event>
 5    1  0.1520352E-008  0.3819125E+03  0.7957747E-01  0.3442873E+00
         13   -1    0    0    0    0  0.00000000000E+00  0.00000000000E+00  0.14999999963E+04  0.15000000000E+04  0.10566000000E+00 0. -1.
        994   -1    0    0    0    0 -0.00000000000E+00 -0.00000000000E+00  0.11368683772E-12  0.17120000000E+03  0.17120000000E+03 0.  0.
         13    1    1    2    0    0  0.16263010356E+02 -0.92975817176E+01  0.52453380329E+02  0.55698283668E+02  0.10566000000E+00 0. -1.
        994    1    1    2    0    0 -0.23572804283E+02 -0.42617445364E+00  0.50195282422E+01  0.17288867629E+03  0.17120000000E+03 0.  0.
        998    1    1    2    0    0  0.73097939272E+01  0.97237561712E+01  0.14425270877E+04  0.14426130400E+04  0.10000000000E+02 0. -1.
</event>
<event>
 5    1  0.1520352E-008  0.3845842E+03  0.7957747E-01  0.3431438E+00
         13   -1    0    0    0    0  0.00000000000E+00  0.00000000000E+00  0.14999999963E+04  0.15000000000E+04  0.10566000000E+00 0. -1.
        994   -1    0    0    0    0 -0.00000000000E+00 -0.00000000000E+00  0.11368683772E-12  0.17120000000E+03  0.17120000000E+03 0.  0.
         13    1    1    2    0    0 -0.40310690617E+01  0.20420874695E+02  0.12252152199E+03  0.12427709425E+03  0.10566000000E+00 0. -1.
        994    1    1    2    0    0 -0.71095881046E+01 -0.99210308160E+01  0.23274490909E+01  0.17165031347E+03  0.17120000000E+03 0.  0.
        998    1    1    2    0    0  0.11140657166E+02 -0.10499843879E+02  0.13751510252E+04  0.13752725923E+04  0.10000000000E+02 0. -1.
</event>
<event>
 5    1  0.1520352E-008  0.3741560E+03  0.7957747E-01  0.3477006E+00
         13   -1    0    0    0    0  0.00000000000E+00  0.00000000000E+00  0.14999999963E+04  0.15000000000E+04  0.10566000000E+00 0. -1.
        994   -1    0    0    0    0 -0.00000000000E+00 -0.00000000000E+00  0.11368683772E-12  0.17120000000E+03  0.17120000000E+03 0.  0.
         13    1    1    2    0    0  0.13774182445E+01 -0.37986932219E+02  0.93142748688E+02  0.10060063170E+03  0.10566000000E+00 0. -1.
        994    1    1    2    0    0  0.54597647798E+00  0.38897858644E+02  0.12289117014E+02  0.17599376095E+03  0.17120000000E+03 0.  0.
        998    1    1    2    0    0 -0.19233947225E+01 -0.91092642510E+00  0.13945681306E+04  0.13946056074E+04  0.10000000000E+02 0. -1.
</event>
<event>
 5    1  0.1520352E-008  0.3852802E+03  0.7957747E-01  0.3428485E+00
         13   -1    0    0    0    0  0.00000000000E+00  0.00000000000E+00  0.14999999963E+04  0.15000000000E+04  0.10566000000E+00 0.  1.
        994   -1    0    0    0    0 -0.00000000000E+00 -0.00000000000E+00  0.11368683772E-12  0.17120000000E+03  0.17120000000E+03 0.  0.
         13    1    1    2    0    0  0.71093097010E+01 -0.80947943867E+01  0.39162388921E+02  0.40617383601E+02  0.10566000000E+00 0.  1.
        994    1    1    2    0    0 -0.23810675280E+01  0.59621341450E+01  0.16265283548E+01  0.17132805410E+03  0.17120000000E+03 0.  0.
        998    1    1    2    0    0 -0.47282421730E+01  0.21326602417E+01  0.14592110790E+04  0.14592545623E+04  0.10000000000E+02 0.  1.
</event>
<event>
 5    1  0.1520352E-008  0.3815267E+03  0.7957747E-01  0.3444538E+00
         13   -1    0    0    0    0  0.00000000000E+00  0.00000000000E+00  0.14999999963E+04  0.15000000000E+04  0.10566000000E+00 0.  1.
        994   -1    0    0    0    0 -0.00000000000E+00 -0.00000000000E+00  0.11368683772E-12  0.17120000000E+03  0.17120000000E+03 0.  0.
         13    1    1    2    0    0  0.38707583464E+02  0.10405564238E+02  0.20659009608E+03  0.21044246659E+03  0.10566000000E+00 0.  1.
        994    1    1    2    0    0 -0.38207986441E+02 -0.13821654003E+02  0.88750876533E+01  0.17617915747E+03  0.17120000000E+03 0.  0.
        998    1    1    2    0    0 -0.49959702330E+00  0.34160897651E+01  0.12845348125E+04  0.12845783759E+04  0.10000000000E+02 0.  1.
</event>
<event>
 5    1  0.1520352E-008  0.3829228E+03  0.7957747E-01  0.3438530E+00
         13   -1    0    0    0    0  0.00000000000E+00  0.00000000000E+00  0.14999999963E+04  0.15000000000E+04  0.10566000000E+00 0.  1.
        994   -1    0    0    0    0 -0.00000000000E+00 -0.00000000000E+00  0.11368683772E-12  0.17120000000E+03  0.17120000000E+03 0.  0.
         13    1    1    2    0    0  0.23652158152E+02 -0.75126378328E+01  0.10540536627E+03  0.10828742639E+03  0.10566000000E+00 0.  1.
        994    1    1    2    0    0 -0.26284184956E+02  0.11977651212E+02  0.54322716762E+01  0.17370455401E+03  0.17120000000E+03 0.  0.
        998    1    1    2    0    0  0.26320268032E+01 -0.44650133790E+01  0.13891623583E+04  0.13892080196E+04  0.10000000000E+02 0.  1.
</event>
<event>
 5    1  0.1520352E-008  0.3823875E+03  0.7957747E-01  0.3440828E+00
         13   -1    0    0    0    0  0.00000000000E+00  0.00000000000E+00  0.14999999963E+04  0.15000000000E+04  0.10566000000E+00 0. -1.
        994   -1    0    0    0    0 -0.00000000000E+00 -0.00000000000E+00  0.11368683772E-12  0.17120000000E+03  0.17120000000E+03 0.  0.
         13    1    1    2    0    0  0.33977385054E+01 -0.27003249052E+02  0.13122845209E+03  0.13402103525E+03  0.10566000000E+00 0. -1.
        994    1    1    2    0    0 -0.97433927066E+01  0.87505026626E+01  0.35018179405E+01  0.17173586616E+03  0.17120000000E+03 0.  0.
        998    1    1    2    0    0  0.63456542011E+01  0.18252746390E+02  0.13652697262E+04  0.13654430986E+04  0.10000000000E+02 0. -1.
</event>
<event>
 5    1  0.1520352E-008  0.3824549E+03  0.7957747E-01  0.3440538E+00
         13   -1    0    0    0    0  0.00000000000E+00  0.00000000000E+00  0.14999999963E+04  0.15000000000E+04  0.10566000000E+00 0. -1.
        994   -1    0    0    0    0 -0.00000000000E+00 -0.00000000000E+00  0.11368683772E-12  0.17120000000E+03  0.17120000000E+03 0.  0.
         13    1    1    2    0    0  0.19364593628E+02 -0.28547800854E+02  0.17223159214E+03  0.17565220441E+03  0.10566000000E+00 0. -1.
        994    1    1    2    0    0 -0.30287217223E+02  0.30532320514E+02  0.90564817223E+01  0.17675123192E+03  0.17120000000E+03 0.  0.
        998    1    1    2    0    0  0.10922623594E+02 -0.19845196605E+01  0.13187119224E+04  0.13187965637E+04  0.10000000000E+02 0. -1.
</event>
<event>
 5    1  0.1520352E-008  0.3845480E+03  0.7957747E-01  0.3431592E+00
         13   -1    0    0    0    0  0.00000000000E+00  0.00000000000E+00  0.14999999963E+04  0.15000000000E+04  0.10566000000E+00 0. -1.
        994   -1    0    0    0    0 -0.00000000000E+00 -0.00000000000E+00  0.11368683772E-12  0.17120000000E+03  0.17120000000E+03 0.  0.
         13    1    1    2    0    0  0.43021708716E+02  0.17798848244E+02  0.51037113935E+02  0.69083026732E+02  0.10566000000E+00 0. -1.
        994    1    1    2    0    0 -0.34046936678E+02  0.26276947473E+01  0.23157183762E+02  0.17610165768E+03  0.17120000000E+03 0.  0.
        998    1    1    2    0    0 -0.89747720371E+01 -0.20426542992E+02  0.14258056986E+04  0.14260153156E+04  0.10000000000E+02 0. -1.
</event>
<event>
 5    1  0.1520352E-008  0.3841479E+03  0.7957747E-01  0.3433294E+00
         13   -1    0    0    0    0  0.00000000000E+00  0.00000000000E+00  0.14999999963E+04  0.15000000000E+04  0.10566000000E+00 0.  1.
        994   -1    0    0    0    0 -0.00000000000E+00 -0.00000000000E+00  0.11368683772E-12  0.17120000000E+03  0.17120000000E+03 0.  0.
         13    1    1    2    0    0 -0.21818079318E+02 -0.59915149955E+01  0.53610136840E+01  0.23252493820E+02  0.10566000000E+00 0.  1.
        994    1    1    2    0    0  0.33081917271E+02 -0.13440863900E+02  0.23330509961E+02  0.17643362142E+03  0.17120000000E+03 0.  0.
        998    1    1    2    0    0 -0.11263837952E+02  0.19432378896E+02  0.14713084726E+04  0.14715138848E+04  0.10000000000E+02 0.  1.
</event>
<event>
 5    1  0.1520352E-008  0.3849345E+03  0.7957747E-01  0.3429950E+00
         13   -1    0    0    0    0  0.00000000000E+00  0.00000000000E+00  0.14999999963E+04  0.15000000000E+04  0.10566000000E+00 0. -1.
        994   -1    0    0    0    0 -0.00000000000E+00 -0.00000000000E+00  0.11368683772E-12  0.17120000000E+03  0.17120000000E+03 0.  0.
         13    1    1    2    0    0 -0.68643915453E+01 -0.15349728046E+02  0.84304576147E+02  0.85965148436E+02  0.10566000000E+00 0. -1.
        994    1    1    2    0    0  0.46589226889E+01  0.11158402665E+02  0.21437623947E+01  0.17163988822E+03  0.17120000000E+03 0.  0.
        998    1    1    2    0    0  0.22054688564E+01  0.41913253812E+01  0.14135516577E+04  0.14135949633E+04  0.10000000000E+02 0. -1.
</event>
<event>
 5    1  0.1520352E-008  0.3830861E+03  0.7957747E-01  0.3437830E+00
         13   -1    0    0    0    0  0.00000000000E+00  0.00000000000E+00  0.14999999963E+04  0.15000000000E+04  0.10566000000E+00 0. -1.
        994   -1    0    0    0    0 -0.00000000000E+00 -0.00000000000E+00  0.11368683772E-12  0.17120000000E+03  0.17120000000E+03 0.  0.
         13    1    1    2    0    0  0.75734477622E+01  0.26946682467E+02  0.13892067385E+03  0.14171254565E+03  0.10566000000E+00 0. -1.
        994    1    1    2    0    0 -0.19887153235E+02 -0.23677332406E+02  0.57537410511E+01  0.17406510411E+03  0.17120000000E+03 0.  0.
        998    1    1    2    0    0  0.12313705473E+02 -0.32693500612E+01  0.13553255814E+04  0.13554223502E+04  0.10000000000E+02 0. -1.
</event>
<event>
 5    1  0.1520352E-008  0.3864491E+03  0.7957747E-01  0.3423550E+00
         13   -1    0    0    0    0  0.00000000000E+00  0.00000000000E+00  0.14999999963E+04  0.15000000000E+04  0.10566000000E+00 0. -1.
        994   -1    0    0    0    0 -0.00000000000E+00 -0.00000000000E+00  0.11368683772E-12  0.17120000000E+03  0.17120000000E+03 0.  0.
         13    1    1    2    0    0  0.92073053260E+01  0.51418796016E+01  0.59400300137E+02  0.60329265018E+02  0.10566000000E+00 0. -1.
        994    1    1    2    0    0 -0.14961357737E+02  0.18297882896E+00  0.16455413154E+01  0.17186047688E+03  0.17120000000E+03 0.  0.
        998    1    1    2    0    0  0.57540524110E+01 -0.53248584305E+01  0.14389541548E+04  0.14390102581E+04  0.10000000000E+02 0. -1.
</event>
<event>
 5    1  0.1520352E-008  0.3791011E+03  0.7957747E-01  0.3455082E+00
         13   -1    0    0    0    0  0.00000000000E+00  0.00000000000E+00  0.14999999963E+04  0.15000000000E+04  0.10566000000E+00 0. -1.
        994   -1    0    0    0    0 -0.00000000000E+00 -0.00000000000E+00  0.11368683772E-12  0.17120000000E+03  0.17120000000E+03 0.  0.
         13    1    1    2    0    0 -0.13960787542E+02  0.12649124626E+02  0.40011014189E+02  0.44224386520E+02  0.10566000000E+00 0. -1.
        994    1    1    2    0    0 -0.91230608751E+01  0.79265211671E+01  0.50774449769E+01  0.17170113694E+03  0.17120000000E+03 0.  0.
        998    1    1    2    0    0  0.23083848417E+02 -0.20575645793E+02  0.14549115371E+04  0.14552744765E+04  0.10000000000E+02 0. -1.
</event>
<event>
 5    1  0.1520352E-008  0.3846702E+03  0.7957747E-01  0.3431072E+00
         13   -1    0    0    0    0  0.00000000000E+00  0.00000000000E+00  0.14999999963E+04  0.15000000000E+04  0.10566000000E+00 0. -1.
        994   -1    0    0    0    0 -0.00000000000E+00 -0.00000000000E+00  0.11368683772E-12  0.17120000000E+03  0.17120000000E+03 0.  0.
         13    1    1    2    0    0 -0.13157941101E+02  0.10271360750E+02  0.79307105186E+02  0.81044804662E+02  0.10566000000E+00 0. -1.
        994    1    1    2    0    0  0.10150217809E+02  0.82602562554E+00  0.21354524020E+01  0.17151591587E+03  0.17120000000E+03 0.  0.
        998    1    1    2    0    0  0.30077232917E+01 -0.11097386376E+02  0.14185574387E+04  0.14186392795E+04  0.10000000000E+02 0. -1.
</event>
<event>
 5    1  0.1520352E-008  0.3825221E+03  0.7957747E-01  0.3440250E+00
         13   -1    0    0    0    0  0.00000000000E+00  0.00000000000E+00  0.14999999963E+04  0.15000000000E+04  0.10566000000E+00 0.  1.
        994   -1    0    0    0    0 -0.00000000000E+00 -0.00000000000E+00  0.11368683772E-12  0.17120000000E+03  0.17120000000E+03 0.  0.
         13    1    1    2    0    0 -0.21656586170E+02  0.58882223968E+01  0.83979730876E+02  0.86926896008E+02  0.10566000000E+00 0.  1.
        994    1    1    2    0    0  0.17937909849E+02 -0.12252678836E+02  0.44314140509E+01  0.17262958663E+03  0.17120000000E+03 0.  0.
        998    1    1    2    0    0  0.37186763206E+01  0.63644564393E+01  0.14115888514E+04  0.14116435174E+04  0.10000000000E+02 0.  0.
</event>
<event>
 5    1  0.1520352E-008  0.3729186E+03  0.7957747E-01  0.3482584E+00
         13   -1    0    0    0    0  0.00000000000E+00  0.00000000000E+00  0.14999999963E+04  0.15000000000E+04  0.10566000000E+00 0. -1.
        994   -1    0    0    0    0 -0.00000000000E+00 -0.00000000000E+00  0.11368683772E-12  0.17120000000E+03  0.17120000000E+03 0.  0.
         13    1    1    2    0    0  0.35633255721E+02  0.26516638726E+01  0.75230459779E+02  0.83285013521E+02  0.10566000000E+00 0. -1.
        994    1    1    2    0    0 -0.38150934824E+02 -0.34698452617E+01  0.12791860804E+02  0.17589941830E+03  0.17120000000E+03 0.  0.
        998    1    1    2    0    0  0.25176791028E+01  0.81818138905E+00  0.14119776757E+04  0.14120155682E+04  0.10000000000E+02 0. -1.
</event>
<event>
 5    1  0.1520352E-008  0.3706234E+03  0.7957747E-01  0.3493031E+00
         13   -1    0    0    0    0  0.00000000000E+00  0.00000000000E+00  0.14999999963E+04  0.15000000000E+04  0.10566000000E+00 0. -1.
        994   -1    0    0    0    0 -0.00000000000E+00 -0.00000000000E+00  0.11368683772E-12  0.17120000000E+03  0.17120000000E+03 0.  0.
         13    1    1    2    0    0  0.17161698786E+02  0.14614652294E+02  0.18499444169E+02  0.29160805295E+02  0.10566000000E+00 0. -1.
        994    1    1    2    0    0 -0.13827521354E+02  0.20397618037E+02  0.13399322330E+02  0.17348269368E+03  0.17120000000E+03 0.  0.
        998    1    1    2    0    0 -0.33341774326E+01 -0.35012270330E+02  0.14681012298E+04  0.14685565010E+04  0.10000000000E+02 0. -1.
</event>
<event>
 5    1  0.1520352E-008  0.3837271E+03  0.7957747E-01  0.3435089E+00
         13   -1    0    0    0    0  0.00000000000E+00  0.00000000000E+00  0.14999999963E+04  0.15000000000E+04  0.10566000000E+00 0. -1.
        994   -1    0    0    0    0 -0.00000000000E+00 -0.00000000000E+00  0.11368683772E-12  0.17120000000E+03  0.17120000000E+03 0.  0.
         13    1    1    2    0    0 -0.26097352473E+02 -0.12003655347E+02  0.16475471490E+03  0.16724020687E+03  0.10566000000E+00 0. -1.
        994    1    1    2    0    0  0.27667328750E+02  0.80571312458E+01  0.50104327202E+01  0.17368057715E+03  0.17120000000E+03 0.  0.
        998    1    1    2    0    0 -0.15699762766E+01  0.39465241015E+01  0.13302348487E+04  0.13302792160E+04  0.10000000000E+02 0. -1.
</event>
<event>
 5    1  0.1520352E-008  0.3852156E+03  0.7957747E-01  0.3428758E+00
         13   -1    0    0    0    0  0.00000000000E+00  0.00000000000E+00  0.14999999963E+04  0.15000000000E+04  0.10566000000E+00 0.  1.
        994   -1    0    0    0    0 -0.00000000000E+00 -0.00000000000E+00  0.11368683772E-12  0.17120000000E+03  0.17120000000E+03 0.  0.
         13    1    1    2    0    0 -0.88803628257E+01 -0.99341933198E+01  0.58617718869E+02  0.60113202961E+02  0.10566000000E+00 0.  1.
        994    1    1    2    0    0 -0.32656806782E+01  0.14186859772E+02  0.22199423313E+01  0.17183218501E+03  0.17120000000E+03 0.  0.
        998    1    1    2    0    0  0.12146043504E+02 -0.42526664526E+01  0.14391623351E+04  0.14392546120E+04  0.10000000000E+02 0.  1.
</event>
<event>
 5    1  0.1520352E-008  0.3842695E+03  0.7957747E-01  0.3432776E+00
         13   -1    0    0    0    0  0.00000000000E+00  0.00000000000E+00  0.14999999963E+04  0.15000000000E+04  0.10566000000E+00 0.  1.
        994   -1    0    0    0    0 -0.00000000000E+00 -0.00000000000E+00  0.11368683772E-12  0.17120000000E+03  0.17120000000E+03 0.  0.
         13    1    1    2    0    0 -0.64457467319E+01  0.13285717409E+02  0.54502956012E+02  0.56468055714E+02  0.10566000000E+00 0.  1.
        994    1    1    2    0    0  0.40280271793E+01 -0.82992429707E+01  0.22738236683E+01  0.17146344424E+03  0.17120000000E+03 0.  0.
        998    1    1    2    0    0  0.24177195526E+01 -0.49864744381E+01  0.14432232166E+04  0.14432685000E+04  0.10000000000E+02 0.  1.
</event>
<event>
 5    1  0.1520352E-008  0.3841939E+03  0.7957747E-01  0.3433098E+00
         13   -1    0    0    0    0  0.00000000000E+00  0.00000000000E+00  0.14999999963E+04  0.15000000000E+04  0.10566000000E+00 0. -1.
        994   -1    0    0    0    0 -0.00000000000E+00 -0.00000000000E+00  0.11368683772E-12  0.17120000000E+03  0.17120000000E+03 0.  0.
         13    1    1    2    0    0  0.99487894591E+00  0.15924653836E+02  0.56861601564E+02  0.59057914629E+02  0.10566000000E+00 0. -1.
        994    1    1    2    0    0 -0.34959931033E+02 -0.26552536182E+02  0.84115312097E+01  0.17693905112E+03  0.17120000000E+03 0.  0.
        998    1    1    2    0    0  0.33965052087E+02  0.10627882346E+02  0.14347268635E+04  0.14352030342E+04  0.10000000000E+02 0. -1.
</event>
<event>
 5    1  0.1520352E-008  0.3772793E+03  0.7957747E-01  0.3463091E+00
         13   -1    0    0    0    0  0.00000000000E+00  0.00000000000E+00  0.14999999963E+04  0.15000000000E+04  0.10566000000E+00 0. -1.
        994   -1    0    0    0    0 -0.00000000000E+00 -0.00000000000E+00  0.11368683772E-12  0.17120000000E+03  0.17120000000E+03 0.  0.
         13    1    1    2    0    0 -0.89504836044E+02 -0.31820156036E+02  0.57267590927E+03  0.58050094421E+03  0.10566000000E+00 0. -1.
        994    1    1    2    0    0  0.94748196407E+02 -0.34569758845E+01  0.36462946930E+02  0.19906822424E+03  0.17120000000E+03 0.  0.
        998    1    1    2    0    0 -0.52433603629E+01  0.35277131921E+02  0.89086114008E+03  0.89163083154E+03  0.10000000000E+02 0. -1.
</event>
<event>
 5    1  0.1520352E-008  0.3776504E+03  0.7957747E-01  0.3461453E+00
         13   -1    0    0    0    0  0.00000000000E+00  0.00000000000E+00  0.14999999963E+04  0.15000000000E+04  0.10566000000E+00 0. -1.
        994   -1    0    0    0    0 -0.00000000000E+00 -0.00000000000E+00  0.11368683772E-12  0.17120000000E+03  0.17120000000E+03 0.  0.
         13    1    1    2    0    0 -0.13417520308E+03 -0.81399499917E+02  0.82393578006E+03  0.83874849897E+03  0.10566000000E+00 0. -1.
        994    1    1    2    0    0  0.13911215074E+03  0.83475135507E+02  0.99848113949E+02  0.25612374859E+03  0.17120000000E+03 0.  0.
        998    1    1    2    0    0 -0.49369476545E+01 -0.20756355902E+01  0.57621610227E+03  0.57632775244E+03  0.10000000000E+02 0.  0.
</event>
<event>
 5    1  0.1520352E-008  0.3843630E+03  0.7957747E-01  0.3432378E+00
         13   -1    0    0    0    0  0.00000000000E+00  0.00000000000E+00  0.14999999963E+04  0.15000000000E+04  0.10566000000E+00 0.  1.
        994   -1    0    0    0    0 -0.00000000000E+00 -0.00000000000E+00  0.11368683772E-12  0.17120000000E+03  0.17120000000E+03 0.  0.
         13    1    1    2    0    0 -0.10350139898E+02  0.40465365401E+01  0.32040568584E+02  0.33913257777E+02  0.10566000000E+00 0.  1.
        994    1    1    2    0    0  0.28993427309E+00 -0.40749789136E+01  0.20017455827E+01  0.17126043472E+03  0.17120000000E+03 0.  0.
        998    1    1    2    0    0  0.10060205625E+02  0.28442373482E-01  0.14659576821E+04  0.14660263075E+04  0.10000000000E+02 0.  1.
</event>
<event>
 5    1  0.1520352E-008  0.3787161E+03  0.7957747E-01  0.3456768E+00
         13   -1    0    0    0    0  0.00000000000E+00  0.00000000000E+00  0.14999999963E+04  0.15000000000E+04  0.10566000000E+00 0.  1.
        994   -1    0    0    0    0 -0.00000000000E+00 -0.00000000000E+00  0.11368683772E-12  0.17120000000E+03  0.17120000000E+03 0.  0.
         13    1    1    2    0    0 -0.54091136458E+02 -0.10639337147E+02  0.28585749879E+03  0.29112465941E+03  0.10566000000E+00 0.  1.
        994    1    1    2    0    0  0.43543900348E+02  0.36452221381E+01  0.11219571090E+02  0.17704428169E+03  0.17120000000E+03 0.  0.
        998    1    1    2    0    0  0.10547236110E+02  0.69941150087E+01  0.12029229264E+04  0.12030310589E+04  0.10000000000E+02 0.  1.
</event>
<event>
 5    1  0.1520352E-008  0.3810582E+03  0.7957747E-01  0.3446564E+00
         13   -1    0    0    0    0  0.00000000000E+00  0.00000000000E+00  0.14999999963E+04  0.15000000000E+04  0.10566000000E+00 0.  1.
        994   -1    0    0    0    0 -0.00000000000E+00 -0.00000000000E+00  0.11368683772E-12  0.17120000000E+03  0.17120000000E+03 0.  0.
         13    1    1    2    0    0  0.32614350297E+01  0.29734555074E+02  0.10773583201E+03  0.11181145463E+03  0.10566000000E+00 0.  1.
        994    1    1    2    0    0 -0.55000656152E+01 -0.41560560031E+02  0.94770017086E+01  0.17651284495E+03  0.17120000000E+03 0.  0.
        998    1    1    2    0    0  0.22386305855E+01  0.11826004958E+02  0.13827871626E+04  0.13828757004E+04  0.10000000000E+02 0.  1.
</event>
<event>
 5    1  0.1593796E-008  0.3860434E+03  0.7957747E-01  0.3425259E+00
         13   -1    0    0    0    0  0.00000000000E+00  0.00000000000E+00  0.14999999963E+04  0.15000000000E+04  0.10566000000E+00 0.  1.
        994   -1    0    0    0    0 -0.00000000000E+00 -0.00000000000E+00  0.11368683772E-12  0.17120000000E+03  0.17120000000E+03 0.  0.
         13    1    1    2    0    0  0.17330549694E+01 -0.11900666188E+02  0.68961135470E+02  0.70001990719E+02  0.10566000000E+00 0.  1.
        994    1    1    2    0    0 -0.25801644168E+01  0.16854521840E+01  0.11441167654E+01  0.17123155959E+03  0.17120000000E+03 0.  0.
        998    1    1    2    0    0  0.84710944741E+00  0.10215214004E+02  0.14298947440E+04  0.14299664497E+04  0.10000000000E+02 0.  1.
</event>
<event>
 5    1  0.1520352E-008  0.3832114E+03  0.7957747E-01  0.3437293E+00
         13   -1    0    0    0    0  0.00000000000E+00  0.00000000000E+00  0.14999999963E+04  0.15000000000E+04  0.10566000000E+00 0. -1.
        994   -1    0    0    0    0 -0.00000000000E+00 -0.00000000000E+00  0.11368683772E-12  0.17120000000E+03  0.17120000000E+03 0.  0.
         13    1    1    2    0    0  0.19232045957E+01  0.13098057371E+02  0.34857479154E+02  0.37286899037E+02  0.10566000000E+00 0. -1.
        994    1    1    2    0    0 -0.31983455676E+01 -0.19164624205E+01  0.25667315245E+01  0.17125983287E+03  0.17120000000E+03 0.  0.
        998    1    1    2    0    0  0.12751409719E+01 -0.11181594950E+02  0.14625757856E+04  0.14626532681E+04  0.10000000000E+02 0. -1.
</event>
<event>
 5    1  0.1520352E-008  0.3842760E+03  0.7957747E-01  0.3432749E+00
         13   -1    0    0    0    0  0.00000000000E+00  0.00000000000E+00  0.14999999963E+04  0.15000000000E+04  0.10566000000E+00 0. -1.
        994   -1    0    0    0    0 -0.00000000000E+00 -0.00000000000E+00  0.11368683772E-12  0.17120000000E+03  0.17120000000E+03 0.  0.
         13    1    1    2    0    0  0.77617344603E+01  0.14144655391E+02  0.66043325113E+02  0.67985643734E+02  0.10566000000E+00 0. -1.
        994    1    1    2    0    0  0.29503671302E+01 -0.10845297450E+02  0.24065412809E+01  0.17158542066E+03  0.17120000000E+03 0.  0.
        998    1    1    2    0    0 -0.10712101590E+02 -0.32993579413E+01  0.14315501299E+04  0.14316289356E+04  0.10000000000E+02 0. -1.
</event>
<event>
 5    1  0.1520352E-008  0.3812172E+03  0.7957747E-01  0.3445876E+00
         13   -1    0    0    0    0  0.00000000000E+00  0.00000000000E+00  0.14999999963E+04  0.15000000000E+04  0.10566000000E+00 0. -1.
        994   -1    0    0    0    0 -0.00000000000E+00 -0.00000000000E+00  0.11368683772E-12  0.17120000000E+03  0.17120000000E+03 0.  0.
         13    1    1    2    0    0 -0.57822124914E+01  0.14728175323E+02  0.33382684010E+02  0.36942764994E+02  0.10566000000E+00 0. -1.
        994    1    1    2    0    0  0.57554776820E+01 -0.17229666972E+02  0.46194294893E+01  0.17222301262E+03  0.17120000000E+03 0.  0.
        998    1    1    2    0    0  0.26734809427E-01  0.25014916490E+01  0.14619978828E+04  0.14620342224E+04  0.10000000000E+02 0. -1.
</event>
<event>
 5    1  0.1520352E-008  0.3853122E+03  0.7957747E-01  0.3428349E+00
         13   -1    0    0    0    0  0.00000000000E+00  0.00000000000E+00  0.14999999963E+04  0.15000000000E+04  0.10566000000E+00 0. -1.
        994   -1    0    0    0    0 -0.00000000000E+00 -0.00000000000E+00  0.11368683772E-12  0.17120000000E+03  0.17120000000E+03 0.  0.
         13    1    1    2    0    0 -0.10319925562E+02 -0.48206687926E+01  0.44389805567E+02  0.45828001413E+02  0.10566000000E+00 0. -1.
        994    1    1    2    0    0  0.38552864323E+01  0.64560683936E+01  0.16609821020E+01  0.17137311024E+03  0.17120000000E+03 0.  0.
        998    1    1    2    0    0  0.64646391293E+01 -0.16353996010E+01  0.14539492086E+04  0.14539988883E+04  0.10000000000E+02 0. -1.
</event>
<event>
 5    1  0.1520352E-008  0.3840202E+03  0.7957747E-01  0.3433838E+00
         13   -1    0    0    0    0  0.00000000000E+00  0.00000000000E+00  0.14999999963E+04  0.15000000000E+04  0.10566000000E+00 0.  1.
        994   -1    0    0    0    0 -0.00000000000E+00 -0.00000000000E+00  0.11368683772E-12  0.17120000000E+03  0.17120000000E+03 0.  0.
         13    1    1    2    0    0 -0.14909380065E+02 -0.89944647919E+02  0.48176095146E+03  0.49031209940E+03  0.10566000000E+00 0.  1.
        994    1    1    2    0    0  0.38372407076E+02  0.15360389608E+03  0.89738215365E+02  0.24985793126E+03  0.17120000000E+03 0.  0.
        998    1    1    2    0    0 -0.23463027011E+02 -0.63659248162E+02  0.92850082946E+03  0.93102996934E+03  0.10000000000E+02 0.  1.
</event>
<event>
 5    1  0.1520352E-008  0.3806580E+03  0.7957747E-01  0.3448298E+00
         13   -1    0    0    0    0  0.00000000000E+00  0.00000000000E+00  0.14999999963E+04  0.15000000000E+04  0.10566000000E+00 0. -1.
        994   -1    0    0    0    0 -0.00000000000E+00 -0.00000000000E+00  0.11368683772E-12  0.17120000000E+03  0.17120000000E+03 0.  0.
         13    1    1    2    0    0  0.12774891297E+02  0.14692882729E+01  0.20458053919E+02  0.24164018495E+02  0.10566000000E+00 0. -1.
        994    1    1    2    0    0 -0.40809976916E+01 -0.13243078346E+01  0.38627720199E+01  0.17129731271E+03  0.17120000000E+03 0.  0.
        998    1    1    2    0    0 -0.86938936050E+01 -0.14498043826E+00  0.14756791703E+04  0.14757386688E+04  0.10000000000E+02 0. -1.
</event>
<event>
 5    1  0.1520352E-008  0.3857353E+03  0.7957747E-01  0.3426560E+00
         13   -1    0    0    0    0  0.00000000000E+00  0.00000000000E+00  0.14999999963E+04  0.15000000000E+04  0.10566000000E+00 0.  1.
        994   -1    0    0    0    0 -0.00000000000E+00 -0.00000000000E+00  0.11368683772E-12  0.17120000000E+03  0.17120000000E+03 0.  0.
         13    1    1    2    0    0 -0.10339623312E+02  0.42443489749E+01  0.46378331712E+02  0.47706216837E+02  0.10566000000E+00 0.  1.
        994    1    1    2    0    0  0.17527925502E+02 -0.77427322528E+01  0.24711069461E+01  0.17228675064E+03  0.17120000000E+03 0.  0.
        998    1    1    2    0    0 -0.71883021897E+01  0.34983832779E+01  0.14511505576E+04  0.14512070325E+04  0.10000000000E+02 0.  1.
</event>
<event>
 5    1  0.1520352E-008  0.3835880E+03  0.7957747E-01  0.3435683E+00
         13   -1    0    0    0    0  0.00000000000E+00  0.00000000000E+00  0.14999999963E+04  0.15000000000E+04  0.10566000000E+00 0.  1.
        994   -1    0    0    0    0 -0.00000000000E+00 -0.00000000000E+00  0.11368683772E-12  0.17120000000E+03  0.17120000000E+03 0.  0.
         13    1    1    2    0    0  0.24818988867E+02  0.10088481968E+01  0.14809055771E+03  0.15015933014E+03  0.10566000000E+00 0.  1.
        994    1    1    2    0    0 -0.15402176925E+01  0.10022916944E+02  0.26725990027E+01  0.17152088479E+03  0.17120000000E+03 0.  0.
        998    1    1    2    0    0 -0.23278771175E+02 -0.11031765141E+02  0.13492368396E+04  0.13495197851E+04  0.10000000000E+02 0.  1.
</event>
<event>
 5    1  0.1520352E-008  0.3711031E+03  0.7957747E-01  0.3490837E+00
         13   -1    0    0    0    0  0.00000000000E+00  0.00000000000E+00  0.14999999963E+04  0.15000000000E+04  0.10566000000E+00 0.  1.
        994   -1    0    0    0    0 -0.00000000000E+00 -0.00000000000E+00  0.11368683772E-12  0.17120000000E+03  0.17120000000E+03 0.  0.
         13    1    1    2    0    0 -0.75266401352E+02  0.20870901097E+01  0.21567397678E+03  0.22843962559E+03  0.10566000000E+00 0.  1.
        994    1    1    2    0    0  0.68765550040E+02  0.14896982781E+02  0.29106489111E+02  0.18736928424E+03  0.17120000000E+03 0.  0.
        998    1    1    2    0    0  0.65008513123E+01 -0.16984072891E+02  0.12552195304E+04  0.12553910902E+04  0.10000000000E+02 0.  0.
</event>
<event>
 5    1  0.1520352E-008  0.3851643E+03  0.7957747E-01  0.3428976E+00
         13   -1    0    0    0    0  0.00000000000E+00  0.00000000000E+00  0.14999999963E+04  0.15000000000E+04  0.10566000000E+00 0.  1.
        994   -1    0    0    0    0 -0.00000000000E+00 -0.00000000000E+00  0.11368683772E-12  0.17120000000E+03  0.17120000000E+03 0.  0.
         13    1    1    2    0    0 -0.37983585670E+01 -0.12291354989E+02  0.56674022746E+02  0.58115926849E+02  0.10566000000E+00 0.  1.
        994    1    1    2    0    0  0.35721637326E+01 -0.19749692490E+01  0.16033377211E+01  0.17125615770E+03  0.17120000000E+03 0.  0.
        998    1    1    2    0    0  0.22619483442E+00  0.14266324238E+02  0.14417226358E+04  0.14418279155E+04  0.10000000000E+02 0.  1.
</event>
<event>
 5    1  0.1520352E-008  0.3850534E+03  0.7957747E-01  0.3429446E+00
         13   -1    0    0    0    0  0.00000000000E+00  0.00000000000E+00  0.14999999963E+04  0.15000000000E+04  0.10566000000E+00 0.  1.
        994   -1    0    0    0    0 -0.00000000000E+00 -0.00000000000E+00  0.11368683772E-12  0.17120000000E+03  0.17120000000E+03 0.  0.
         13    1    1    2    0    0 -0.74391017345E+01  0.69639943626E+01  0.32742261464E+02  0.34291461064E+02  0.10566000000E+00 0.  1.
        994    1    1    2    0    0  0.46581623031E+01  0.19875619349E+00  0.16751199517E+01  0.17127166726E+03  0.17120000000E+03 0.  0.
        998    1    1    2    0    0  0.27809394313E+01 -0.71627505561E+01  0.14655826149E+04  0.14656368717E+04  0.10000000000E+02 0.  1.
</event>
<event>
 5    1  0.1520352E-008  0.3861758E+03  0.7957747E-01  0.3424701E+00
         13   -1    0    0    0    0  0.00000000000E+00  0.00000000000E+00  0.14999999963E+04  0.15000000000E+04  0.10566000000E+00 0.  1.
        994   -1    0    0    0    0 -0.00000000000E+00 -0.00000000000E+00  0.11368683772E-12  0.17120000000E+03  0.17120000000E+03 0.  0.
         13    1    1    2    0    0  0.26419586795E+01  0.10542348580E+02  0.54992446774E+02  0.56056234492E+02  0.10566000000E+00 0.  1.
        994    1    1    2    0    0 -0.27425159698E+01 -0.12567383808E+02  0.15897653885E+01  0.17168991783E+03  0.17120000000E+03 0.  0.
        998    1    1    2    0    0  0.10055729027E+00  0.20250352275E+01  0.14434177841E+04  0.14434538477E+04  0.10000000000E+02 0.  1.
</event>
<event>
 5    1  0.1520352E-008  0.3721426E+03  0.7957747E-01  0.3486101E+00
         13   -1    0    0    0    0  0.00000000000E+00  0.00000000000E+00  0.14999999963E+04  0.15000000000E+04  0.10566000000E+00 0. -1.
        994   -1    0    0    0    0 -0.00000000000E+00 -0.00000000000E+00  0.11368683772E-12  0.17120000000E+03  0.17120000000E+03 0.  0.
         13    1    1    2    0    0 -0.37484579389E+01 -0.14181219976E+02  0.96293377780E+01  0.17546887103E+02  0.10566000000E+00 0. -1.
        994    1    1    2    0    0 -0.60963530299E+00  0.68304131133E+01  0.83148436477E+01  0.17153892510E+03  0.17120000000E+03 0.  0.
        998    1    1    2    0    0  0.43580932419E+01  0.73508068630E+01  0.14820558149E+04  0.14821141878E+04  0.10000000000E+02 0. -1.
</event>
<event>
 5    1  0.1520352E-008  0.3756173E+03  0.7957747E-01  0.3470467E+00
         13   -1    0    0    0    0  0.00000000000E+00  0.00000000000E+00  0.14999999963E+04  0.15000000000E+04  0.10566000000E+00 0.  1.
        994   -1    0    0    0    0 -0.00000000000E+00 -0.00000000000E+00  0.11368683772E-12  0.17120000000E+03  0.17120000000E+03 0.  0.
         13    1    1    2    0    0  0.50906121177E+02 -0.26134405087E+02  0.27138940850E+03  0.27735656205E+03  0.10566000000E+00 0.  1.
        994    1    1    2    0    0 -0.10319351444E+02  0.35509843390E+02  0.11014690094E+02  0.17549416341E+03  0.17120000000E+03 0.  0.
        998    1    1    2    0    0 -0.40586769733E+02 -0.93754383026E+01  0.12175958977E+04  0.12183492745E+04  0.10000000000E+02 0.  1.
</event>
<event>
 5    1  0.1520352E-008  0.3722560E+03  0.7957747E-01  0.3485587E+00
         13   -1    0    0    0    0  0.00000000000E+00  0.00000000000E+00  0.14999999963E+04  0.15000000000E+04  0.10566000000E+00 0. -1.
        994   -1    0    0    0    0 -0.00000000000E+00 -0.00000000000E+00  0.11368683772E-12  0.17120000000E+03  0.17120000000E+03 0.  0.
         13    1    1    2    0    0 -0.51579055466E+02 -0.45678844279E+02  0.41607654645E+03  0.42174240888E+03  0.10566000000E+00 0. -1.
        994    1    1    2    0    0 -0.26663698479E+02  0.36117962019E+02  0.15041455106E+02  0.17762642081E+03  0.17120000000E+03 0.  0.
        998    1    1    2    0    0  0.78242753946E+02  0.95608822601E+01  0.10688819947E+04  0.10718311703E+04  0.10000000000E+02 0. -1.
</event>
<event>
 5    1  0.1520352E-008  0.3790980E+03  0.7957747E-01  0.3455096E+00
         13   -1    0    0    0    0  0.00000000000E+00  0.00000000000E+00  0.14999999963E+04  0.15000000000E+04  0.10566000000E+00 0. -1.
        994   -1    0    0    0    0 -0.00000000000E+00 -0.00000000000E+00  0.11368683772E-12  0.17120000000E+03  0.17120000000E+03 0.  0.
         13    1    1    2    0    0 -0.12933327624E+02 -0.38537420477E+01  0.17524050480E+02  0.22118449323E+02  0.10566000000E+00 0. -1.
        994    1    1    2    0    0  0.16724885143E+02  0.54306960430E+01  0.56266222533E+01  0.17219266280E+03  0.17120000000E+03 0.  0.
        998    1    1    2    0    0 -0.37915575191E+01 -0.15769539952E+01  0.14768493235E+04  0.14768888879E+04  0.10000000000E+02 0. -1.
</event>
<event>
 5    1  0.1520352E-008  0.3825273E+03  0.7957747E-01  0.3440227E+00
         13   -1    0    0    0    0  0.00000000000E+00  0.00000000000E+00  0.14999999963E+04  0.15000000000E+04  0.10566000000E+00 0.  1.
        994   -1    0    0    0    0 -0.00000000000E+00 -0.00000000000E+00  0.11368683772E-12  0.17120000000E+03  0.17120000000E+03 0.  0.
         13    1    1    2    0    0 -0.13563816962E+02 -0.72737636622E+00  0.31946955652E+02  0.34714915331E+02  0.10566000000E+00 0.  1.
        994    1    1    2    0    0  0.25106255996E+01  0.60641804155E+01  0.30056249547E+01  0.17135212665E+03  0.17120000000E+03 0.  0.
        998    1    1    2    0    0  0.11053191362E+02 -0.53368040493E+01  0.14650474157E+04  0.14651329580E+04  0.10000000000E+02 0.  1.
</event>
<event>
 5    1  0.1520352E-008  0.3844494E+03  0.7957747E-01  0.3432011E+00
         13   -1    0    0    0    0  0.00000000000E+00  0.00000000000E+00  0.14999999963E+04  0.15000000000E+04  0.10566000000E+00 0.  1.
        994   -1    0    0    0    0 -0.00000000000E+00 -0.00000000000E+00  0.11368683772E-12  0.17120000000E+03  0.17120000000E+03 0.  0.
         13    1    1    2    0    0  0.78238791029E+01  0.85592435730E+01  0.34447566928E+02  0.36347211255E+02  0.10566000000E+00 0.  1.
        994    1    1    2    0    0 -0.61545321044E+01 -0.92674314689E+01  0.23115849647E+01  0.17157665044E+03  0.17120000000E+03 0.  0.
        998    1    1    2    0    0 -0.16693469986E+01  0.70818789593E+00  0.14632408444E+04  0.14632761383E+04  0.10000000000E+02 0.  1.
</event>
<event>
 5    1  0.1520352E-008  0.3777946E+03  0.7957747E-01  0.3460818E+00
         13   -1    0    0    0    0  0.00000000000E+00  0.00000000000E+00  0.14999999963E+04  0.15000000000E+04  0.10566000000E+00 0. -1.
        994   -1    0    0    0    0 -0.00000000000E+00 -0.00000000000E+00  0.11368683772E-12  0.17120000000E+03  0.17120000000E+03 0.  0.
         13    1    1    2    0    0  0.19822518498E+02 -0.69246008558E+02  0.16668666971E+03  0.18158303600E+03  0.10566000000E+00 0. -1.
        994    1    1    2    0    0 -0.25169315926E+02  0.39810824920E+02  0.23138050921E+02  0.17906201620E+03  0.17120000000E+03 0.  0.
        998    1    1    2    0    0  0.53467974276E+01  0.29435183638E+02  0.13101752756E+04  0.13105549478E+04  0.10000000000E+02 0. -1.
</event>
<event>
 5    1  0.1520352E-008  0.3847627E+03  0.7957747E-01  0.3430679E+00
         13   -1    0    0    0    0  0.00000000000E+00  0.00000000000E+00  0.14999999963E+04  0.15000000000E+04  0.10566000000E+00 0. -1.
        994   -1    0    0    0    0 -0.00000000000E+00 -0.00000000000E+00  0.11368683772E-12  0.17120000000E+03  0.17120000000E+03 0.  0.
         13    1    1    2    0    0 -0.17830431686E+02  0.24779790154E+01  0.10410867446E+03  0.10565364138E+03  0.10566000000E+00 0. -1.
        994    1    1    2    0    0 -0.32662622714E+01  0.71826363055E-02  0.17830939512E+01  0.17124043899E+03  0.17120000000E+03 0.  0.
        998    1    1    2    0    0  0.21096693958E+02 -0.24851616517E+01  0.13941082279E+04  0.13943059196E+04  0.10000000000E+02 0. -1.
</event>
<event>
 5    1  0.1520352E-008  0.3814814E+03  0.7957747E-01  0.3444733E+00
         13   -1    0    0    0    0  0.00000000000E+00  0.00000000000E+00  0.14999999963E+04  0.15000000000E+04  0.10566000000E+00 0.  1.
        994   -1    0    0    0    0 -0.00000000000E+00 -0.00000000000E+00  0.11368683772E-12  0.17120000000E+03  0.17120000000E+03 0.  0.
         13    1    1    2    0    0  0.13734002398E+02 -0.51032482270E+01  0.29539545520E+02  0.32973654300E+02  0.10566000000E+00 0.  1.
        994    1    1    2    0    0 -0.13134358773E+02  0.18578183440E+02  0.51111580338E+01  0.17278085605E+03  0.17120000000E+03 0.  0.
        998    1    1    2    0    0 -0.59964362517E+00 -0.13474935213E+02  0.14653492927E+04  0.14654454897E+04  0.10000000000E+02 0.  1.
</event>
<event>
 5    1  0.1520352E-008  0.3826408E+03  0.7957747E-01  0.3439740E+00
         13   -1    0    0    0    0  0.00000000000E+00  0.00000000000E+00  0.14999999963E+04  0.15000000000E+04  0.10566000000E+00 0. -1.
        994   -1    0    0    0    0 -0.00000000000E+00 -0.00000000000E+00  0.11368683772E-12  0.17120000000E+03  0.17120000000E+03 0.  0.
         13    1    1    2    0    0  0.18056696340E+02 -0.10078587929E+02  0.88510550279E+02  0.90894174137E+02  0.10566000000E+00 0. -1.
        994    1    1    2    0    0  0.14945668891E+02 -0.23515145314E+01  0.35649101168E+01  0.17190419199E+03  0.17120000000E+03 0.  0.
        998    1    1    2    0    0 -0.33002365231E+02  0.12430102460E+02  0.14079245359E+04  0.14084016339E+04  0.10000000000E+02 0. -1.
</event>
<event>
 5    1  0.1520352E-008  0.3810134E+03  0.7957747E-01  0.3446758E+00
         13   -1    0    0    0    0  0.00000000000E+00  0.00000000000E+00  0.14999999963E+04  0.15000000000E+04  0.10566000000E+00 0. -1.
        994   -1    0    0    0    0 -0.00000000000E+00 -0.00000000000E+00  0.11368683772E-12  0.17120000000E+03  0.17120000000E+03 0.  0.
         13    1    1    2    0    0  0.30802521822E+01  0.39487449695E+02  0.22922725630E+03  0.23262393005E+03  0.10566000000E+00 0. -1.
        994    1    1    2    0    0 -0.71101468139E+01 -0.15036539826E+02  0.45447227883E+01  0.17206611004E+03  0.17120000000E+03 0.  0.
        998    1    1    2    0    0  0.40298946317E+01 -0.24450909869E+02  0.12662280172E+04  0.12665099599E+04  0.10000000000E+02 0. -1.
</event>
<event>
 5    1  0.1520352E-008  0.3816361E+03  0.7957747E-01  0.3444065E+00
         13   -1    0    0    0    0  0.00000000000E+00  0.00000000000E+00  0.14999999963E+04  0.15000000000E+04  0.10566000000E+00 0.  1.
        994   -1    0    0    0    0 -0.00000000000E+00 -0.00000000000E+00  0.11368683772E-12  0.17120000000E+03  0.17120000000E+03 0.  0.
         13    1    1    2    0    0 -0.24922113779E+02 -0.58199684221E+02  0.12149441369E+03  0.13700079825E+03  0.10566000000E+00 0.  1.
        994    1    1    2    0    0  0.22624544887E+02  0.54804703797E+01  0.19206735224E+02  0.17383970854E+03  0.17120000000E+03 0.  0.
        998    1    1    2    0    0  0.22975688922E+01  0.52719213841E+02  0.13592988474E+04  0.13603594932E+04  0.10000000000E+02 0.  1.
</event>
<event>
 5    1  0.1520352E-008  0.3782841E+03  0.7957747E-01  0.3458664E+00
         13   -1    0    0    0    0  0.00000000000E+00  0.00000000000E+00  0.14999999963E+04  0.15000000000E+04  0.10566000000E+00 0.  1.
        994   -1    0    0    0    0 -0.00000000000E+00 -0.00000000000E+00  0.11368683772E-12  0.17120000000E+03  0.17120000000E+03 0.  0.
         13    1    1    2    0    0 -0.11812824024E+02 -0.46670138413E+01  0.13912229323E+02  0.18838394793E+02  0.10566000000E+00 0.  1.
        994    1    1    2    0    0  0.98432403441E+01  0.20244389897E+01  0.53414464376E+01  0.17157785050E+03  0.17120000000E+03 0.  0.
        998    1    1    2    0    0  0.19695836801E+01  0.26425748516E+01  0.14807463205E+04  0.14807837547E+04  0.10000000000E+02 0.  1.
</event>
<event>
 5    1  0.1520352E-008  0.3754299E+03  0.7957747E-01  0.3471302E+00
         13   -1    0    0    0    0  0.00000000000E+00  0.00000000000E+00  0.14999999963E+04  0.15000000000E+04  0.10566000000E+00 0.  1.
        994   -1    0    0    0    0 -0.00000000000E+00 -0.00000000000E+00  0.11368683772E-12  0.17120000000E+03  0.17120000000E+03 0.  0.
         13    1    1    2    0    0  0.49669362240E+02 -0.50119481359E+02  0.36801298430E+03  0.37471666061E+03  0.10566000000E+00 0.  1.
        994    1    1    2    0    0 -0.41272774029E+02  0.22809331406E+02  0.14043642574E+02  0.17813020904E+03  0.17120000000E+03 0.  0.
        998    1    1    2    0    0 -0.83965882114E+01  0.27310149953E+02  0.11179433694E+04  0.11183531304E+04  0.10000000000E+02 0. -1.
</event>
<event>
 5    1  0.1520352E-008  0.3838365E+03  0.7957747E-01  0.3434622E+00
         13   -1    0    0    0    0  0.00000000000E+00  0.00000000000E+00  0.14999999963E+04  0.15000000000E+04  0.10566000000E+00 0. -1.
        994   -1    0    0    0    0 -0.00000000000E+00 -0.00000000000E+00  0.11368683772E-12  0.17120000000E+03  0.17120000000E+03 0.  0.
         13    1    1    2    0    0 -0.14142929743E+02 -0.37785974675E+01  0.46295305805E+02  0.48554781064E+02  0.10566000000E+00 0. -1.
        994    1    1    2    0    0  0.15363288510E+02  0.97736595268E+01  0.33041542062E+01  0.17219730686E+03  0.17120000000E+03 0.  0.
        998    1    1    2    0    0 -0.12203587664E+01 -0.59950620593E+01  0.14504005363E+04  0.14504479121E+04  0.10000000000E+02 0. -1.
</event>
<event>
 5    1  0.1520352E-008  0.3830925E+03  0.7957747E-01  0.3437802E+00
         13   -1    0    0    0    0  0.00000000000E+00  0.00000000000E+00  0.14999999963E+04  0.15000000000E+04  0.10566000000E+00 0. -1.
        994   -1    0    0    0    0 -0.00000000000E+00 -0.00000000000E+00  0.11368683772E-12  0.17120000000E+03  0.17120000000E+03 0.  0.
         13    1    1    2    0    0  0.20957360408E+00 -0.27603392866E+02  0.16541660972E+03  0.16770407614E+03  0.10566000000E+00 0. -1.
        994    1    1    2    0    0 -0.61302574636E+01  0.24591493839E+01  0.27245139708E+01  0.17134903107E+03  0.17120000000E+03 0.  0.
        998    1    1    2    0    0  0.59206838595E+01  0.25144243483E+02  0.13318588726E+04  0.13321468928E+04  0.10000000000E+02 0. -1.
</event>
<event>
 5    1  0.1520352E-008  0.3745655E+03  0.7957747E-01  0.3475168E+00
         13   -1    0    0    0    0  0.00000000000E+00  0.00000000000E+00  0.14999999963E+04  0.15000000000E+04  0.10566000000E+00 0. -1.
        994   -1    0    0    0    0 -0.00000000000E+00 -0.00000000000E+00  0.11368683772E-12  0.17120000000E+03  0.17120000000E+03 0.  0.
         13    1    1    2    0    0  0.42915870326E+02 -0.30032213701E+01  0.12043429628E+03  0.12788753712E+03  0.10566000000E+00 0. -1.
        994    1    1    2    0    0 -0.45553860231E+02  0.26401639997E+01  0.14023183840E+02  0.17773073548E+03  0.17120000000E+03 0.  0.
        998    1    1    2    0    0  0.26379899047E+01  0.36305737041E+00  0.13655425162E+04  0.13655817274E+04  0.10000000000E+02 0. -1.
</event>
<event>
 5    1  0.1520352E-008  0.3847376E+03  0.7957747E-01  0.3430786E+00
         13   -1    0    0    0    0  0.00000000000E+00  0.00000000000E+00  0.14999999963E+04  0.15000000000E+04  0.10566000000E+00 0. -1.
        994   -1    0    0    0    0 -0.00000000000E+00 -0.00000000000E+00  0.11368683772E-12  0.17120000000E+03  0.17120000000E+03 0.  0.
         13    1    1    2    0    0  0.91134856944E+01 -0.11551957226E+02  0.59682214728E+02  0.61469352170E+02  0.10566000000E+00 0. -1.
        994    1    1    2    0    0 -0.79397244603E+01  0.12155342110E+02  0.24545717608E+01  0.17183205897E+03  0.17120000000E+03 0.  0.
        998    1    1    2    0    0 -0.11737612341E+01 -0.60338488411E+00  0.14378632098E+04  0.14378985889E+04  0.10000000000E+02 0.  0.
</event>
<event>
 5    1  0.1520352E-008  0.3764838E+03  0.7957747E-01  0.3466613E+00
         13   -1    0    0    0    0  0.00000000000E+00  0.00000000000E+00  0.14999999963E+04  0.15000000000E+04  0.10566000000E+00 0. -1.
        994   -1    0    0    0    0 -0.00000000000E+00 -0.00000000000E+00  0.11368683772E-12  0.17120000000E+03  0.17120000000E+03 0.  0.
         13    1    1    2    0    0 -0.11775248899E+02  0.15046746446E+02  0.28056445749E+02  0.33944607485E+02  0.10566000000E+00 0. -1.
        994    1    1    2    0    0  0.50465989223E+01 -0.18295270231E+02  0.71379103188E+01  0.17239656272E+03  0.17120000000E+03 0.  0.
        998    1    1    2    0    0  0.67286499766E+01  0.32485237847E+01  0.14648056402E+04  0.14648588298E+04  0.10000000000E+02 0. -1.
</event>
<event>
 5    1  0.1520352E-008  0.3732124E+03  0.7957747E-01  0.3481256E+00
         13   -1    0    0    0    0  0.00000000000E+00  0.00000000000E+00  0.14999999963E+04  0.15000000000E+04  0.10566000000E+00 0.  1.
        994   -1    0    0    0    0 -0.00000000000E+00 -0.00000000000E+00  0.11368683772E-12  0.17120000000E+03  0.17120000000E+03 0.  0.
         13    1    1    2    0    0 -0.13637036945E+02 -0.38672343213E+02  0.59724328651E+02  0.72446708021E+02  0.10566000000E+00 0.  1.
        994    1    1    2    0    0  0.10545787218E+02  0.38516814225E+02  0.18307515004E+02  0.17674660877E+03  0.17120000000E+03 0.  0.
        998    1    1    2    0    0  0.30912497273E+01  0.15552898793E+00  0.14219681526E+04  0.14220066832E+04  0.10000000000E+02 0.  1.
</event>
<event>
 5    1  0.1520352E-008  0.3685459E+03  0.7957747E-01  0.3502601E+00
         13   -1    0    0    0    0  0.00000000000E+00  0.00000000000E+00  0.14999999963E+04  0.15000000000E+04  0.10566000000E+00 0.  1.
        994   -1    0    0    0    0 -0.00000000000E+00 -0.00000000000E+00  0.11368683772E-12  0.17120000000E+03  0.17120000000E+03 0.  0.
         13    1    1    2    0    0  0.51938050027E+02  0.13250688303E+03  0.63073599365E+03  0.64659379826E+03  0.10566000000E+00 0.  1.
        994    1    1    2    0    0 -0.94395468062E+02 -0.10799119127E+03  0.85347788240E+02  0.23909472336E+03  0.17120000000E+03 0.  0.
        998    1    1    2    0    0  0.42457418035E+02 -0.24515691756E+02  0.78391621438E+03  0.78551147838E+03  0.10000000000E+02 0.  1.
</event>
<event>
 5    1  0.1520352E-008  0.3834841E+03  0.7957747E-01  0.3436127E+00
         13   -1    0    0    0    0  0.00000000000E+00  0.00000000000E+00  0.14999999963E+04  0.15000000000E+04  0.10566000000E+00 0. -1.
        994   -1    0    0    0    0 -0.00000000000E+00 -0.00000000000E+00  0.11368683772E-12  0.17120000000E+03  0.17120000000E+03 0.  0.
         13    1    1    2    0    0  0.17359490467E+02  0.76482815401E+01  0.74822960194E+02  0.77190249747E+02  0.10566000000E+00 0. -1.
        994    1    1    2    0    0 -0.71511470198E+01 -0.14306979839E+02  0.32305657551E+01  0.17197588532E+03  0.17120000000E+03 0.  0.
        998    1    1    2    0    0 -0.10208343447E+02  0.66586982991E+01  0.14219464703E+04  0.14220338649E+04  0.10000000000E+02 0. -1.
</event>
<event>
 5    1  0.1520352E-008  0.3834602E+03  0.7957747E-01  0.3436229E+00
         13   -1    0    0    0    0  0.00000000000E+00  0.00000000000E+00  0.14999999963E+04  0.15000000000E+04  0.10566000000E+00 0.  1.
        994   -1    0    0    0    0 -0.00000000000E+00 -0.00000000000E+00  0.11368683772E-12  0.17120000000E+03  0.17120000000E+03 0.  0.
         13    1    1    2    0    0 -0.60792782718E+01 -0.16455042047E+02  0.65002764469E+02  0.67328274786E+02  0.10566000000E+00 0.  1.
        994    1    1    2    0    0 -0.45897338343E+01  0.94619172350E+01  0.27621545700E+01  0.17154493007E+03  0.17120000000E+03 0.  0.
        998    1    1    2    0    0  0.10669012106E+02  0.69931248120E+01  0.14322350772E+04  0.14323267951E+04  0.10000000000E+02 0.  1.
</event>
<event>
 5    1  0.1520352E-008  0.3806711E+03  0.7957747E-01  0.3448242E+00
         13   -1    0    0    0    0  0.00000000000E+00  0.00000000000E+00  0.14999999963E+04  0.15000000000E+04  0.10566000000E+00 0.  1.
        994   -1    0    0    0    0 -0.00000000000E+00 -0.00000000000E+00  0.11368683772E-12  0.17120000000E+03  0.17120000000E+03 0.  0.
         13    1    1    2    0    0  0.11487841407E+02  0.23340664907E+02  0.97888766652E+02  0.10128661777E+03  0.10566000000E+00 0.  1.
        994    1    1    2    0    0 -0.90886725466E+00  0.50449550720E+01  0.38824350669E+01  0.17132072529E+03  0.17120000000E+03 0.  0.
        998    1    1    2    0    0 -0.10578974153E+02 -0.28385619979E+02  0.13982287946E+04  0.13985926569E+04  0.10000000000E+02 0.  1.
</event>
<event>
 5    1  0.1520352E-008  0.3735316E+03  0.7957747E-01  0.3479816E+00
         13   -1    0    0    0    0  0.00000000000E+00  0.00000000000E+00  0.14999999963E+04  0.15000000000E+04  0.10566000000E+00 0. -1.
        994   -1    0    0    0    0 -0.00000000000E+00 -0.00000000000E+00  0.11368683772E-12  0.17120000000E+03  0.17120000000E+03 0.  0.
         13    1    1    2    0    0  0.49608150636E+01 -0.17380659584E+02  0.18438630953E+02  0.25820365782E+02  0.10566000000E+00 0. -1.
        994    1    1    2    0    0 -0.81130753391E+01  0.18759916158E+02  0.88631241709E+01  0.17264342274E+03  0.17120000000E+03 0.  0.
        998    1    1    2    0    0  0.31522602755E+01 -0.13792565742E+01  0.14726982412E+04  0.14727362115E+04  0.10000000000E+02 0. -1.
</event>
<event>
 5    1  0.1520352E-008  0.3832858E+03  0.7957747E-01  0.3436975E+00
         13   -1    0    0    0    0  0.00000000000E+00  0.00000000000E+00  0.14999999963E+04  0.15000000000E+04  0.10566000000E+00 0.  1.
        994   -1    0    0    0    0 -0.00000000000E+00 -0.00000000000E+00  0.11368683772E-12  0.17120000000E+03  0.17120000000E+03 0.  0.
         13    1    1    2    0    0 -0.78432282994E+01  0.74895426488E+01  0.23181716340E+02  0.25593214252E+02  0.10566000000E+00 0.  1.
        994    1    1    2    0    0 -0.10052711184E-01 -0.38873936851E+01  0.25335961121E+01  0.17126287117E+03  0.17120000000E+03 0.  0.
        998    1    1    2    0    0  0.78532810105E+01 -0.36021489637E+01  0.14742846838E+04  0.14743439146E+04  0.10000000000E+02 0.  1.
</event>
<event>
 5    1  0.1520352E-008  0.3757593E+03  0.7957747E-01  0.3469834E+00
         13   -1    0    0    0    0  0.00000000000E+00  0.00000000000E+00  0.14999999963E+04  0.15000000000E+04  0.10566000000E+00 0.  1.
        994   -1    0    0    0    0 -0.00000000000E+00 -0.00000000000E+00  0.11368683772E-12  0.17120000000E+03  0.17120000000E+03 0.  0.
         13    1    1    2    0    0  0.11644434300E+02 -0.20013054870E+01  0.83240533259E+01  0.14453342230E+02  0.10566000000E+00 0.  1.
        994    1    1    2    0    0 -0.42386753433E+01  0.19624185548E+01  0.63632906373E+01  0.17138188038E+03  0.17120000000E+03 0.  0.
        998    1    1    2    0    0 -0.74057589567E+01  0.38886932180E-01  0.14853126523E+04  0.14853647774E+04  0.10000000000E+02 0.  1.
</event>
<event>
 5    1  0.1520352E-008  0.3767511E+03  0.7957747E-01  0.3465428E+00
         13   -1    0    0    0    0  0.00000000000E+00  0.00000000000E+00  0.14999999963E+04  0.15000000000E+04  0.10566000000E+00 0. -1.
        994   -1    0    0    0    0 -0.00000000000E+00 -0.00000000000E+00  0.11368683772E-12  0.17120000000E+03  0.17120000000E+03 0.  0.
         13    1    1    2    0    0  0.22764272584E+02  0.77855694838E+00  0.42076010088E+02  0.47845794445E+02  0.10566000000E+00 0. -1.
        994    1    1    2    0    0 -0.18870694033E+02 -0.30832401822E+01  0.70186959724E+01  0.17240739995E+03  0.17120000000E+03 0.  0.
        998    1    1    2    0    0 -0.38935785508E+01  0.23046832338E+01  0.14509052902E+04  0.14509468056E+04  0.10000000000E+02 0. -1.
</event>
<event>
 5    1  0.1520352E-008  0.3844683E+03  0.7957747E-01  0.3431930E+00
         13   -1    0    0    0    0  0.00000000000E+00  0.00000000000E+00  0.14999999963E+04  0.15000000000E+04  0.10566000000E+00 0. -1.
        994   -1    0    0    0    0 -0.00000000000E+00 -0.00000000000E+00  0.11368683772E-12  0.17120000000E+03  0.17120000000E+03 0.  0.
         13    1    1    2    0    0  0.73914956397E+01  0.88243776496E+01  0.35134231986E+02  0.36972006573E+02  0.10566000000E+00 0. -1.
        994    1    1    2    0    0 -0.41129819849E+01 -0.21018831486E+01  0.19646340332E+01  0.17127356574E+03  0.17120000000E+03 0.  0.
        998    1    1    2    0    0 -0.32785136549E+01 -0.67224945010E+01  0.14629011303E+04  0.14629544277E+04  0.10000000000E+02 0. -1.
</event>
<event>
 5    1  0.1520352E-008  0.3841646E+03  0.7957747E-01  0.3433223E+00
         13   -1    0    0    0    0  0.00000000000E+00  0.00000000000E+00  0.14999999963E+04  0.15000000000E+04  0.10566000000E+00 0.  1.
        994   -1    0    0    0    0 -0.00000000000E+00 -0.00000000000E+00  0.11368683772E-12  0.17120000000E+03  0.17120000000E+03 0.  0.
         13    1    1    2    0    0 -0.15313410381E+02 -0.16962255628E+02  0.12154799184E+03  0.12367758139E+03  0.10566000000E+00 0.  1.
        994    1    1    2    0    0  0.17524049040E+02  0.11224934524E+02  0.34749326890E+01  0.17249523648E+03  0.17120000000E+03 0.  0.
        998    1    1    2    0    0 -0.22106386590E+01  0.57373211040E+01  0.13749770717E+04  0.13750271821E+04  0.10000000000E+02 0.  1.
</event>
<event>
 5    1  0.1520352E-008  0.3853581E+03  0.7957747E-01  0.3428155E+00
         13   -1    0    0    0    0  0.00000000000E+00  0.00000000000E+00  0.14999999963E+04  0.15000000000E+04  0.10566000000E+00 0.  1.
        994   -1    0    0    0    0 -0.00000000000E+00 -0.00000000000E+00  0.11368683772E-12  0.17120000000E+03  0.17120000000E+03 0.  0.
         13    1    1    2    0    0  0.10743636297E+03 -0.10169511484E+03  0.42300700093E+03  0.44812877889E+03  0.10566000000E+00 0.  1.
        994    1    1    2    0    0 -0.12648277777E+03  0.61894055569E+02  0.96884428791E+02  0.24191899415E+03  0.17120000000E+03 0.  0.
        998    1    1    2    0    0  0.19046414798E+02  0.39801059274E+02  0.98010856656E+03  0.98115222696E+03  0.10000000000E+02 0.  1.
</event>
<event>
 5    1  0.1520352E-008  0.3769575E+03  0.7957747E-01  0.3464514E+00
         13   -1    0    0    0    0  0.00000000000E+00  0.00000000000E+00  0.14999999963E+04  0.15000000000E+04  0.10566000000E+00 0.  1.
        994   -1    0    0    0    0 -0.00000000000E+00 -0.00000000000E+00  0.11368683772E-12  0.17120000000E+03  0.17120000000E+03 0.  0.
         13    1    1    2    0    0  0.52013026266E-01 -0.36660012866E+02  0.11775416438E+03  0.12332888405E+03  0.10566000000E+00 0.  1.
        994    1    1    2    0    0 -0.25266626728E+01  0.19640238057E+02  0.70022139181E+01  0.17248360495E+03  0.17120000000E+03 0.  0.
        998    1    1    2    0    0  0.24746496465E+01  0.17019774809E+02  0.13752436180E+04  0.13753875110E+04  0.10000000000E+02 0.  1.
</event>
<event>
 5    1  0.1520352E-008  0.3825784E+03  0.7957747E-01  0.3440008E+00
         13   -1    0    0    0    0  0.00000000000E+00  0.00000000000E+00  0.14999999963E+04  0.15000000000E+04  0.10566000000E+00 0.  1.
        994   -1    0    0    0    0 -0.00000000000E+00 -0.00000000000E+00  0.11368683772E-12  0.17120000000E+03  0.17120000000E+03 0.  0.
         13    1    1    2    0    0 -0.20405369248E+03 -0.59726871282E+02  0.11350872544E+04  0.11548282534E+04  0.10566000000E+00 0.  1.
        994    1    1    2    0    0  0.20409826636E+03  0.59035615935E+02  0.17059822322E+03  0.32179885029E+03  0.17120000000E+03 0.  0.
        998    1    1    2    0    0 -0.44573886177E-01  0.69125534682E+00  0.19431451864E+03  0.19457289630E+03  0.10000000000E+02 0.  0.
</event>
<event>
 5    1  0.1520352E-008  0.3819354E+03  0.7957747E-01  0.3442774E+00
         13   -1    0    0    0    0  0.00000000000E+00  0.00000000000E+00  0.14999999963E+04  0.15000000000E+04  0.10566000000E+00 0. -1.
        994   -1    0    0    0    0 -0.00000000000E+00 -0.00000000000E+00  0.11368683772E-12  0.17120000000E+03  0.17120000000E+03 0.  0.
         13    1    1    2    0    0 -0.18816907259E+02  0.32532042846E+01  0.55619869587E+02  0.58806805676E+02  0.10566000000E+00 0. -1.
        994    1    1    2    0    0  0.17277577076E+02  0.24986555456E+01  0.41722910485E+01  0.17213833380E+03  0.17120000000E+03 0.  0.
        998    1    1    2    0    0  0.15393301835E+01 -0.57518598302E+01  0.14402078356E+04  0.14402548605E+04  0.10000000000E+02 0. -1.
</event>
<event>
 5    1  0.1520352E-008  0.3720225E+03  0.7957747E-01  0.3486647E+00
         13   -1    0    0    0    0  0.00000000000E+00  0.00000000000E+00  0.14999999963E+04  0.15000000000E+04  0.10566000000E+00 0. -1.
        994   -1    0    0    0    0 -0.00000000000E+00 -0.00000000000E+00  0.11368683772E-12  0.17120000000E+03  0.17120000000E+03 0.  0.
         13    1    1    2    0    0  0.17120613260E+02  0.27700331759E+01  0.14501733550E+02  0.22607519152E+02  0.10566000000E+00 0. -1.
        994    1    1    2    0    0 -0.18586494590E+02 -0.13873470859E+01  0.94094636271E+01  0.17246843340E+03  0.17120000000E+03 0.  0.
        998    1    1    2    0    0  0.14658813299E+01 -0.13826860900E+01  0.14760887991E+04  0.14761240475E+04  0.10000000000E+02 0. -1.
</event>
<event>
 5    1  0.1520352E-008  0.3717172E+03  0.7957747E-01  0.3488036E+00
         13   -1    0    0    0    0  0.00000000000E+00  0.00000000000E+00  0.14999999963E+04  0.15000000000E+04  0.10566000000E+00 0.  1.
        994   -1    0    0    0    0 -0.00000000000E+00 -0.00000000000E+00  0.11368683772E-12  0.17120000000E+03  0.17120000000E+03 0.  0.
         13    1    1    2    0    0  0.21169962735E+02  0.22654110671E+02  0.51043904539E+02  0.59723256836E+02  0.10566000000E+00 0.  1.
        994    1    1    2    0    0 -0.24150478049E+02 -0.32626370229E+02  0.14059243434E+02  0.17650730282E+03  0.17120000000E+03 0.  0.
        998    1    1    2    0    0  0.29805153141E+01  0.99722595585E+01  0.14348968483E+04  0.14349694403E+04  0.10000000000E+02 0.  1.
</event>
<event>
 5    1  0.1520352E-008  0.3749281E+03  0.7957747E-01  0.3473544E+00
         13   -1    0    0    0    0  0.00000000000E+00  0.00000000000E+00  0.14999999963E+04  0.15000000000E+04  0.10566000000E+00 0. -1.
        994   -1    0    0    0    0 -0.00000000000E+00 -0.00000000000E+00  0.11368683772E-12  0.17120000000E+03  0.17120000000E+03 0.  0.
         13    1    1    2    0    0 -0.48842280371E+02 -0.12401628202E+02  0.18710368822E+03  0.19377092156E+03  0.10566000000E+00 0. -1.
        994    1    1    2    0    0  0.33255142448E+02 -0.11321162945E+02  0.10923054724E+02  0.17510804195E+03  0.17120000000E+03 0.  0.
        998    1    1    2    0    0  0.15587137923E+02  0.23722791148E+02  0.13019732533E+04  0.13023210365E+04  0.10000000000E+02 0. -1.
</event>
<event>
 5    1  0.1520352E-008  0.3795096E+03  0.7957747E-01  0.3453297E+00
         13   -1    0    0    0    0  0.00000000000E+00  0.00000000000E+00  0.14999999963E+04  0.15000000000E+04  0.10566000000E+00 0.  1.
        994   -1    0    0    0    0 -0.00000000000E+00 -0.00000000000E+00  0.11368683772E-12  0.17120000000E+03  0.17120000000E+03 0.  0.
         13    1    1    2    0    0 -0.95374150793E+01 -0.90737775208E+01  0.17762589656E+02  0.22109194472E+02  0.10566000000E+00 0.  1.
        994    1    1    2    0    0  0.52829189637E+01  0.12897797492E+02  0.50316234385E+01  0.17184009907E+03  0.17120000000E+03 0.  0.
        998    1    1    2    0    0  0.42544961156E+01 -0.38240199713E+01  0.14772057832E+04  0.14772507065E+04  0.10000000000E+02 0.  1.
</event>
<event>
 5    1  0.1520352E-008  0.3818688E+03  0.7957747E-01  0.3443062E+00
         13   -1    0    0    0    0  0.00000000000E+00  0.00000000000E+00  0.14999999963E+04  0.15000000000E+04  0.10566000000E+00 0. -1.
        994   -1    0    0    0    0 -0.00000000000E+00 -0.00000000000E+00  0.11368683772E-12  0.17120000000E+03  0.17120000000E+03 0.  0.
         13    1    1    2    0    0  0.91176605796E+01  0.74114590673E+01  0.20600952671E+02  0.23716489515E+02  0.10566000000E+00 0. -1.
        994    1    1    2    0    0 -0.10277128636E+02  0.60797593504E+01  0.36666169357E+01  0.17165508127E+03  0.17120000000E+03 0.  0.
        998    1    1    2    0    0  0.11594680565E+01 -0.13491218418E+02  0.14757324267E+04  0.14758284292E+04  0.10000000000E+02 0. -1.
</event>
<event>
 5    1  0.1520352E-008  0.3836436E+03  0.7957747E-01  0.3435445E+00
         13   -1    0    0    0    0  0.00000000000E+00  0.00000000000E+00  0.14999999963E+04  0.15000000000E+04  0.10566000000E+00 0. -1.
        994   -1    0    0    0    0 -0.00000000000E+00 -0.00000000000E+00  0.11368683772E-12  0.17120000000E+03  0.17120000000E+03 0.  0.
         13    1    1    2    0    0 -0.13127139508E+01  0.74982397292E+02  0.15864251796E+03  0.17547519138E+03  0.10566000000E+00 0. -1.
        994    1    1    2    0    0  0.38474561747E+01 -0.28778595170E+02  0.21445249966E+02  0.17496385114E+03  0.17120000000E+03 0.  0.
        998    1    1    2    0    0 -0.25347422238E+01 -0.46203802122E+02  0.13199122284E+04  0.13207609575E+04  0.10000000000E+02 0. -1.
</event>
<event>
 5    1  0.1520352E-008  0.3850010E+03  0.7957747E-01  0.3429668E+00
         13   -1    0    0    0    0  0.00000000000E+00  0.00000000000E+00  0.14999999963E+04  0.15000000000E+04  0.10566000000E+00 0. -1.
        994   -1    0    0    0    0 -0.00000000000E+00 -0.00000000000E+00  0.11368683772E-12  0.17120000000E+03  0.17120000000E+03 0.  0.
         13    1    1    2    0    0  0.65116489230E+01 -0.80300757014E+01  0.32299784709E+02  0.33914170250E+02  0.10566000000E+00 0. -1.
        994    1    1    2    0    0 -0.94140954851E+01  0.39602324951E+01  0.19727324516E+01  0.17151571447E+03  0.17120000000E+03 0.  0.
        998    1    1    2    0    0  0.29024465621E+01  0.40698432063E+01  0.14657274791E+04  0.14657701153E+04  0.10000000000E+02 0. -1.
</event>
<event>
 5    1  0.1520352E-008  0.3752771E+03  0.7957747E-01  0.3471984E+00
         13   -1    0    0    0    0  0.00000000000E+00  0.00000000000E+00  0.14999999963E+04  0.15000000000E+04  0.10566000000E+00 0. -1.
        994   -1    0    0    0    0 -0.00000000000E+00 -0.00000000000E+00  0.11368683772E-12  0.17120000000E+03  0.17120000000E+03 0.  0.
         13    1    1    2    0    0 -0.39840936132E+02  0.29916099515E+02  0.20441284870E+03  0.21039699874E+03  0.10566000000E+00 0. -1.
        994    1    1    2    0    0 -0.14575465678E+01 -0.28069632568E+02  0.92241118011E+01  0.17373702240E+03  0.17120000000E+03 0.  0.
        998    1    1    2    0    0  0.41298482700E+02 -0.18464669466E+01  0.12863630358E+04  0.12870659789E+04  0.10000000000E+02 0. -1.
</event>
<event>
 5    1  0.1520352E-008  0.3854786E+03  0.7957747E-01  0.3427645E+00
         13   -1    0    0    0    0  0.00000000000E+00  0.00000000000E+00  0.14999999963E+04  0.15000000000E+04  0.10566000000E+00 0. -1.
        994   -1    0    0    0    0 -0.00000000000E+00 -0.00000000000E+00  0.11368683772E-12  0.17120000000E+03  0.17120000000E+03 0.  0.
         13    1    1    2    0    0 -0.12640558234E+02 -0.63377662057E+01  0.77309964662E+02  0.78592574668E+02  0.10566000000E+00 0. -1.
        994    1    1    2    0    0  0.12407611247E+01 -0.22073127213E+01  0.14137487196E+01  0.17122456133E+03  0.17120000000E+03 0.  0.
        998    1    1    2    0    0  0.11399797109E+02  0.85450789270E+01  0.14212762829E+04  0.14213828640E+04  0.10000000000E+02 0. -1.
</event>
<event>
 5    1  0.1520352E-008  0.3703968E+03  0.7957747E-01  0.3494069E+00
         13   -1    0    0    0    0  0.00000000000E+00  0.00000000000E+00  0.14999999963E+04  0.15000000000E+04  0.10566000000E+00 0.  1.
        994   -1    0    0    0    0 -0.00000000000E+00 -0.00000000000E+00  0.11368683772E-12  0.17120000000E+03  0.17120000000E+03 0.  0.
         13    1    1    2    0    0  0.10945923741E+03 -0.25776888344E+02  0.44682860511E+03  0.46076196256E+03  0.10566000000E+00 0.  1.
        994    1    1    2    0    0 -0.11383933233E+03  0.36186448403E+02  0.60074012495E+02  0.21722610251E+03  0.17120000000E+03 0.  0.
        998    1    1    2    0    0  0.43800949190E+01 -0.10409560059E+02  0.99309737867E+03  0.99321193493E+03  0.10000000000E+02 0.  1.
</event>
<event>
 5    1  0.1520352E-008  0.3729067E+03  0.7957747E-01  0.3482638E+00
         13   -1    0    0    0    0  0.00000000000E+00  0.00000000000E+00  0.14999999963E+04  0.15000000000E+04  0.10566000000E+00 0. -1.
        994   -1    0    0    0    0 -0.00000000000E+00 -0.00000000000E+00  0.11368683772E-12  0.17120000000E+03  0.17120000000E+03 0.  0.
         13    1    1    2    0    0 -0.61139374987E+02  0.50549516225E+01  0.21430551321E+03  0.22291352553E+03  0.10566000000E+00 0. -1.
        994    1    1    2    0    0  0.55239004369E+02 -0.30312408592E+01  0.18308540859E+02  0.18084573175E+03  0.17120000000E+03 0.  0.
        998    1    1    2    0    0  0.59003706175E+01 -0.20237107633E+01  0.12673859422E+04  0.12674407427E+04  0.10000000000E+02 0. -1.
</event>
<event>
 5    1  0.1520352E-008  0.3796128E+03  0.7957747E-01  0.3452846E+00
         13   -1    0    0    0    0  0.00000000000E+00  0.00000000000E+00  0.14999999963E+04  0.15000000000E+04  0.10566000000E+00 0.  1.
        994   -1    0    0    0    0 -0.00000000000E+00 -0.00000000000E+00  0.11368683772E-12  0.17120000000E+03  0.17120000000E+03 0.  0.
         13    1    1    2    0    0  0.30069847505E+02  0.62038755791E+02  0.16398223722E+03  0.17788532328E+03  0.10566000000E+00 0.  1.
        994    1    1    2    0    0 -0.15502708518E+02 -0.68349871866E+00  0.16986570628E+02  0.17273906542E+03  0.17120000000E+03 0.  0.
        998    1    1    2    0    0 -0.14567138987E+02 -0.61355257072E+02  0.13190311884E+04  0.13205756113E+04  0.10000000000E+02 0.  1.
</event>
<event>
 5    1  0.1520352E-008  0.3840705E+03  0.7957747E-01  0.3433624E+00
         13   -1    0    0    0    0  0.00000000000E+00  0.00000000000E+00  0.14999999963E+04  0.15000000000E+04  0.10566000000E+00 0. -1.
        994   -1    0    0    0    0 -0.00000000000E+00 -0.00000000000E+00  0.11368683772E-12  0.17120000000E+03  0.17120000000E+03 0.  0.
         13    1    1    2    0    0 -0.11361435750E+02  0.95207575817E+01  0.53436339712E+02  0.55454311041E+02  0.10566000000E+00 0. -1.
        994    1    1    2    0    0  0.28293783890E+01 -0.41056381830E+01  0.21743287343E+01  0.17128639570E+03  0.17120000000E+03 0.  0.
        998    1    1    2    0    0  0.85320573607E+01 -0.54151193987E+01  0.14443893278E+04  0.14444592933E+04  0.10000000000E+02 0. -1.
</event>
<event>
 5    1  0.1520352E-008  0.3818986E+03  0.7957747E-01  0.3442933E+00
         13   -1    0    0    0    0  0.00000000000E+00  0.00000000000E+00  0.14999999963E+04  0.15000000000E+04  0.10566000000E+00 0.  1.
        994   -1    0    0    0    0 -0.00000000000E+00 -0.00000000000E+00  0.11368683772E-12  0.17120000000E+03  0.17120000000E+03 0.  0.
         13    1    1    2    0    0  0.10162383688E+01 -0.12738778649E+02  0.24089025535E+02  0.27269058237E+02  0.10566000000E+00 0.  1.
        994    1    1    2    0    0  0.15201836631E-01  0.13982394956E+02  0.38275631032E+01  0.17181268242E+03  0.17120000000E+03 0.  0.
        998    1    1    2    0    0 -0.10314402054E+01 -0.12436163072E+01  0.14720834076E+04  0.14721182593E+04  0.10000000000E+02 0.  1.
</event>
<event>
 5    1  0.1520352E-008  0.3976225E+03  0.7957747E-01  0.3377841E+00
         13   -1    0    0    0    0  0.00000000000E+00  0.00000000000E+00  0.14999999963E+04  0.15000000000E+04  0.10566000000E+00 0.  1.
        994   -1    0    0    0    0 -0.00000000000E+00 -0.00000000000E+00  0.11368683772E-12  0.17120000000E+03  0.17120000000E+03 0.  0.
         13    1    1    2    0    0 -0.48511583627E+02  0.21784510905E+02  0.42850276626E+02  0.68294187398E+02  0.10566000000E+00 0.  1.
        994    1    1    2    0    0  0.49460861371E+02 -0.19590610324E+02  0.37420075768E+02  0.18313893876E+03  0.17120000000E+03 0.  0.
        998    1    1    2    0    0 -0.94927774447E+00 -0.21939005809E+01  0.14197296439E+04  0.14197668738E+04  0.10000000000E+02 0.  1.
</event>
<event>
 5    1  0.1520352E-008  0.3850745E+03  0.7957747E-01  0.3429356E+00
         13   -1    0    0    0    0  0.00000000000E+00  0.00000000000E+00  0.14999999963E+04  0.15000000000E+04  0.10566000000E+00 0. -1.
        994   -1    0    0    0    0 -0.00000000000E+00 -0.00000000000E+00  0.11368683772E-12  0.17120000000E+03  0.17120000000E+03 0.  0.
         13    1    1    2    0    0 -0.13095605240E+02 -0.11998702117E+01  0.52743952092E+02  0.54358717898E+02  0.10566000000E+00 0. -1.
        994    1    1    2    0    0  0.14269953526E+02 -0.45890013678E+01  0.23322325340E+01  0.17187079396E+03  0.17120000000E+03 0.  0.
        998    1    1    2    0    0 -0.11743482866E+01  0.57888715794E+01  0.14449238117E+04  0.14449704881E+04  0.10000000000E+02 0. -1.
</event>
<event>
 5    1  0.1520352E-008  0.3796419E+03  0.7957747E-01  0.3452719E+00
         13   -1    0    0    0    0  0.00000000000E+00  0.00000000000E+00  0.14999999963E+04  0.15000000000E+04  0.10566000000E+00 0.  1.
        994   -1    0    0    0    0 -0.00000000000E+00 -0.00000000000E+00  0.11368683772E-12  0.17120000000E+03  0.17120000000E+03 0.  0.
         13    1    1    2    0    0  0.12003369673E+02 -0.14296350938E+02  0.39781684181E+02  0.43943828850E+02  0.10566000000E+00 0.  1.
        994    1    1    2    0    0  0.48523349657E-01  0.57921360198E+01  0.44263472486E+01  0.17135513924E+03  0.17120000000E+03 0.  0.
        998    1    1    2    0    0 -0.12051893023E+02  0.85042149183E+01  0.14557919648E+04  0.14559010319E+04  0.10000000000E+02 0.  1.
</event>
<event>
 5    1  0.1520352E-008  0.3808831E+03  0.7957747E-01  0.3447322E+00
         13   -1    0    0    0    0  0.00000000000E+00  0.00000000000E+00  0.14999999963E+04  0.15000000000E+04  0.10566000000E+00 0.  1.
        994   -1    0    0    0    0 -0.00000000000E+00 -0.00000000000E+00  0.11368683772E-12  0.17120000000E+03  0.17120000000E+03 0.  0.
         13    1    1    2    0    0  0.46589365993E+02  0.31095038404E+02  0.33479315967E+03  0.33944652209E+03  0.10566000000E+00 0.  1.
        994    1    1    2    0    0 -0.61119470846E+02 -0.10532608001E+02  0.16617277321E+02  0.18284446793E+03  0.17120000000E+03 0.  0.
        998    1    1    2    0    0  0.14530104853E+02 -0.20562430403E+02  0.11485895593E+04  0.11489090100E+04  0.10000000000E+02 0.  1.
</event>
<event>
 5    1  0.1520352E-008  0.3717752E+03  0.7957747E-01  0.3487772E+00
         13   -1    0    0    0    0  0.00000000000E+00  0.00000000000E+00  0.14999999963E+04  0.15000000000E+04  0.10566000000E+00 0.  1.
        994   -1    0    0    0    0 -0.00000000000E+00 -0.00000000000E+00  0.11368683772E-12  0.17120000000E+03  0.17120000000E+03 0.  0.
         13    1    1    2    0    0 -0.36437394445E+02  0.16876510595E+02  0.81580266255E+02  0.90927725860E+02  0.10566000000E+00 0.  1.
        994    1    1    2    0    0  0.62347895039E+02 -0.16863112374E+02  0.22819539764E+02  0.18439575909E+03  0.17120000000E+03 0.  0.
        998    1    1    2    0    0 -0.25910500594E+02 -0.13398220511E-01  0.13956001903E+04  0.13958765151E+04  0.10000000000E+02 0.  1.
</event>
<event>
 5    1  0.1520352E-008  0.3742915E+03  0.7957747E-01  0.3476397E+00
         13   -1    0    0    0    0  0.00000000000E+00  0.00000000000E+00  0.14999999963E+04  0.15000000000E+04  0.10566000000E+00 0. -1.
        994   -1    0    0    0    0 -0.00000000000E+00 -0.00000000000E+00  0.11368683772E-12  0.17120000000E+03  0.17120000000E+03 0.  0.
         13    1    1    2    0    0 -0.72823796488E+02  0.27510827577E+02  0.29250837692E+03  0.30269012654E+03  0.10566000000E+00 0. -1.
        994    1    1    2    0    0  0.17166566827E+01  0.26967554501E+01  0.13262606015E+02  0.17174270325E+03  0.17120000000E+03 0.  0.
        998    1    1    2    0    0  0.71107139806E+02 -0.30207583027E+02  0.11942290133E+04  0.11967671702E+04  0.10000000000E+02 0.  1.
</event>
<event>
 5    1  0.1520352E-008  0.3815089E+03  0.7957747E-01  0.3444614E+00
         13   -1    0    0    0    0  0.00000000000E+00  0.00000000000E+00  0.14999999963E+04  0.15000000000E+04  0.10566000000E+00 0.  1.
        994   -1    0    0    0    0 -0.00000000000E+00 -0.00000000000E+00  0.11368683772E-12  0.17120000000E+03  0.17120000000E+03 0.  0.
         13    1    1    2    0    0 -0.77104005062E+01  0.10521767113E+02  0.23744444588E+02  0.27091837737E+02  0.10566000000E+00 0.  1.
        994    1    1    2    0    0  0.59095043794E+01 -0.94978701604E+01  0.37897193157E+01  0.17160691639E+03  0.17120000000E+03 0.  0.
        998    1    1    2    0    0  0.18008961268E+01 -0.10238969530E+01  0.14724658324E+04  0.14725012459E+04  0.10000000000E+02 0.  1.
</event>
<event>
 5    1  0.1520352E-008  0.3830344E+03  0.7957747E-01  0.3438051E+00
         13   -1    0    0    0    0  0.00000000000E+00  0.00000000000E+00  0.14999999963E+04  0.15000000000E+04  0.10566000000E+00 0.  1.
        994   -1    0    0    0    0 -0.00000000000E+00 -0.00000000000E+00  0.11368683772E-12  0.17120000000E+03  0.17120000000E+03 0.  0.
         13    1    1    2    0    0  0.36090435074E+02  0.16150950973E+02  0.21116346788E+03  0.21483341000E+03  0.10566000000E+00 0.  1.
        994    1    1    2    0    0 -0.60883960632E+02 -0.16560312394E+02  0.15899067061E+02  0.18314835774E+03  0.17120000000E+03 0.  0.
        998    1    1    2    0    0  0.24793525558E+02  0.40936142093E+00  0.12729374613E+04  0.12732182323E+04  0.10000000000E+02 0.  1.
</event>
<event>
 5    1  0.1520352E-008  0.3279730E+03  0.7957747E-01  0.3714562E+00
         13   -1    0    0    0    0  0.00000000000E+00  0.00000000000E+00  0.14999999963E+04  0.15000000000E+04  0.10566000000E+00 0. -1.
        994   -1    0    0    0    0 -0.00000000000E+00 -0.00000000000E+00  0.11368683772E-12  0.17120000000E+03  0.17120000000E+03 0.  0.
         13    1    1    2    0    0 -0.23444090193E+03  0.79222088236E+02  0.69104080629E+03  0.73401368031E+03  0.10566000000E+00 0. -1.
        994    1    1    2    0    0  0.23940782328E+03 -0.86446438118E+02  0.30339630325E+03  0.43144854773E+03  0.17120000000E+03 0.  0.
        998    1    1    2    0    0 -0.49669213514E+01  0.72243498829E+01  0.50556288674E+03  0.50573777196E+03  0.10000000000E+02 0.  1.
</event>
<event>
 5    1  0.1520352E-008  0.3830893E+03  0.7957747E-01  0.3437816E+00
         13   -1    0    0    0    0  0.00000000000E+00  0.00000000000E+00  0.14999999963E+04  0.15000000000E+04  0.10566000000E+00 0.  1.
        994   -1    0    0    0    0 -0.00000000000E+00 -0.00000000000E+00  0.11368683772E-12  0.17120000000E+03  0.17120000000E+03 0.  0.
         13    1    1    2    0    0  0.12513501989E+02  0.64458123709E+01  0.37264776478E+02  0.39834795834E+02  0.10566000000E+00 0.  1.
        994    1    1    2    0    0 -0.97333206501E+01 -0.60879715952E+01  0.30180004076E+01  0.17161104060E+03  0.17120000000E+03 0.  0.
        998    1    1    2    0    0 -0.27801813388E+01 -0.35784077569E+00  0.14597172194E+04  0.14597541636E+04  0.10000000000E+02 0.  1.
</event>
<event>
 5    1  0.1520352E-008  0.3819022E+03  0.7957747E-01  0.3442917E+00
         13   -1    0    0    0    0  0.00000000000E+00  0.00000000000E+00  0.14999999963E+04  0.15000000000E+04  0.10566000000E+00 0. -1.
        994   -1    0    0    0    0 -0.00000000000E+00 -0.00000000000E+00  0.11368683772E-12  0.17120000000E+03  0.17120000000E+03 0.  0.
         13    1    1    2    0    0 -0.21070814247E+02  0.11135173769E+02  0.86465127170E+02  0.89689468102E+02  0.10566000000E+00 0. -1.
        994    1    1    2    0    0  0.15529261253E+02 -0.11112341255E+02  0.43882680783E+01  0.17231755273E+03  0.17120000000E+03 0.  0.
        998    1    1    2    0    0  0.55415529940E+01 -0.22832513462E-01  0.14091466010E+04  0.14091929792E+04  0.10000000000E+02 0. -1.
</event>
<event>
 5    1  0.1520352E-008  0.3735085E+03  0.7957747E-01  0.3479920E+00
         13   -1    0    0    0    0  0.00000000000E+00  0.00000000000E+00  0.14999999963E+04  0.15000000000E+04  0.10566000000E+00 0. -1.
        994   -1    0    0    0    0 -0.00000000000E+00 -0.00000000000E+00  0.11368683772E-12  0.17120000000E+03  0.17120000000E+03 0.  0.
         13    1    1    2    0    0 -0.24043431692E+01  0.21965192159E+02  0.28976887377E+02  0.36440659966E+02  0.10566000000E+00 0. -1.
        994    1    1    2    0    0 -0.11684775603E+00 -0.24967208765E+02  0.95792537607E+01  0.17327601470E+03  0.17120000000E+03 0.  0.
        998    1    1    2    0    0  0.25211909253E+01  0.30020166056E+01  0.14614438551E+04  0.14614833253E+04  0.10000000000E+02 0. -1.
</event>
<event>
 5    1  0.1520352E-008  0.3694876E+03  0.7957747E-01  0.3498249E+00
         13   -1    0    0    0    0  0.00000000000E+00  0.00000000000E+00  0.14999999963E+04  0.15000000000E+04  0.10566000000E+00 0. -1.
        994   -1    0    0    0    0 -0.00000000000E+00 -0.00000000000E+00  0.11368683772E-12  0.17120000000E+03  0.17120000000E+03 0.  0.
         13    1    1    2    0    0 -0.47213278425E+01  0.13610417646E+02  0.64671301510E+01  0.15791432535E+02  0.10566000000E+00 0. -1.
        994    1    1    2    0    0  0.64390815431E+01 -0.14310372486E+02  0.10390562144E+02  0.17223139178E+03  0.17120000000E+03 0.  0.
        998    1    1    2    0    0 -0.17177537006E+01  0.69995484037E+00  0.14831423040E+04  0.14831771757E+04  0.10000000000E+02 0. -1.
</event>
<event>
 5    1  0.1520352E-008  0.3756373E+03  0.7957747E-01  0.3470378E+00
         13   -1    0    0    0    0  0.00000000000E+00  0.00000000000E+00  0.14999999963E+04  0.15000000000E+04  0.10566000000E+00 0.  1.
        994   -1    0    0    0    0 -0.00000000000E+00 -0.00000000000E+00  0.11368683772E-12  0.17120000000E+03  0.17120000000E+03 0.  0.
         13    1    1    2    0    0  0.15580498926E+02  0.26571770032E+02  0.71089145187E+02  0.77475729340E+02  0.10566000000E+00 0.  1.
        994    1    1    2    0    0 -0.15848618115E+02 -0.18726867645E+02  0.83960205027E+01  0.17315255536E+03  0.17120000000E+03 0.  0.
        998    1    1    2    0    0  0.26811918873E+00 -0.78449023873E+01  0.14205148306E+04  0.14205717153E+04  0.10000000000E+02 0.  1.
</event>
<event>
 5    1  0.1520352E-008  0.3825625E+03  0.7957747E-01  0.3440076E+00
         13   -1    0    0    0    0  0.00000000000E+00  0.00000000000E+00  0.14999999963E+04  0.15000000000E+04  0.10566000000E+00 0.  1.
        994   -1    0    0    0    0 -0.00000000000E+00 -0.00000000000E+00  0.11368683772E-12  0.17120000000E+03  0.17120000000E+03 0.  0.
         13    1    1    2    0    0 -0.19966615289E+02 -0.35904701115E+01  0.73288945385E+02  0.76044972755E+02  0.10566000000E+00 0.  1.
        994    1    1    2    0    0  0.74680053454E+01  0.40752763213E+01  0.30851081497E+01  0.17143901794E+03  0.17120000000E+03 0.  0.
        998    1    1    2    0    0  0.12498609944E+02 -0.48480620976E+00  0.14236259427E+04  0.14237160093E+04  0.10000000000E+02 0.  1.
</event>
<event>
 5    1  0.1520352E-008  0.3861056E+03  0.7957747E-01  0.3424997E+00
         13   -1    0    0    0    0  0.00000000000E+00  0.00000000000E+00  0.14999999963E+04  0.15000000000E+04  0.10566000000E+00 0. -1.
        994   -1    0    0    0    0 -0.00000000000E+00 -0.00000000000E+00  0.11368683772E-12  0.17120000000E+03  0.17120000000E+03 0.  0.
         13    1    1    2    0    0  0.86030884849E+01  0.59195873680E+01  0.50728265242E+02  0.51792110447E+02  0.10566000000E+00 0. -1.
        994    1    1    2    0    0 -0.41038069152E+01 -0.82387427476E+01  0.13598599869E+01  0.17145263874E+03  0.17120000000E+03 0.  0.
        998    1    1    2    0    0 -0.44992815697E+01  0.23191553796E+01  0.14479118710E+04  0.14479552508E+04  0.10000000000E+02 0. -1.
</event>
<event>
 5    1  0.1520352E-008  0.3760225E+03  0.7957747E-01  0.3468662E+00
         13   -1    0    0    0    0  0.00000000000E+00  0.00000000000E+00  0.14999999963E+04  0.15000000000E+04  0.10566000000E+00 0.  1.
        994   -1    0    0    0    0 -0.00000000000E+00 -0.00000000000E+00  0.11368683772E-12  0.17120000000E+03  0.17120000000E+03 0.  0.
         13    1    1    2    0    0  0.20329285575E+02  0.44415696005E+01  0.88838460061E+01  0.22626119340E+02  0.10566000000E+00 0.  1.
        994    1    1    2    0    0 -0.21371344451E+02 -0.12234851491E+02  0.16328173851E+02  0.17373104275E+03  0.17120000000E+03 0.  0.
        998    1    1    2    0    0  0.10420588758E+01  0.77932818907E+01  0.14747879764E+04  0.14748428379E+04  0.10000000000E+02 0.  1.
</event>
<event>
 5    1  0.1520352E-008  0.3857369E+03  0.7957747E-01  0.3426553E+00
         13   -1    0    0    0    0  0.00000000000E+00  0.00000000000E+00  0.14999999963E+04  0.15000000000E+04  0.10566000000E+00 0. -1.
        994   -1    0    0    0    0 -0.00000000000E+00 -0.00000000000E+00  0.11368683772E-12  0.17120000000E+03  0.17120000000E+03 0.  0.
         13    1    1    2    0    0  0.67141428380E+00 -0.11940006663E+02  0.59955823423E+02  0.61136948588E+02  0.10566000000E+00 0. -1.
        994    1    1    2    0    0  0.51329914803E+01  0.99393863887E+00  0.13543936296E+01  0.17128517127E+03  0.17120000000E+03 0.  0.
        998    1    1    2    0    0 -0.58044057641E+01  0.10946068024E+02  0.14386897792E+04  0.14387778801E+04  0.10000000000E+02 0. -1.
</event>
<event>
 5    1  0.1520352E-008  0.3852506E+03  0.7957747E-01  0.3428610E+00
         13   -1    0    0    0    0  0.00000000000E+00  0.00000000000E+00  0.14999999963E+04  0.15000000000E+04  0.10566000000E+00 0. -1.
        994   -1    0    0    0    0 -0.00000000000E+00 -0.00000000000E+00  0.11368683772E-12  0.17120000000E+03  0.17120000000E+03 0.  0.
         13    1    1    2    0    0 -0.78713091215E+01  0.11420003719E+02  0.62606788152E+02  0.64124839796E+02  0.10566000000E+00 0. -1.
        994    1    1    2    0    0  0.14481753720E+02 -0.55471619620E+01  0.22964040601E+01  0.17191627517E+03  0.17120000000E+03 0.  0.
        998    1    1    2    0    0 -0.66104445989E+01 -0.58728417570E+01  0.14350968041E+04  0.14351588850E+04  0.10000000000E+02 0. -1.
</event>
<event>
 5    1  0.1520352E-008  0.3787033E+03  0.7957747E-01  0.3456824E+00
         13   -1    0    0    0    0  0.00000000000E+00  0.00000000000E+00  0.14999999963E+04  0.15000000000E+04  0.10566000000E+00 0.  1.
        994   -1    0    0    0    0 -0.00000000000E+00 -0.00000000000E+00  0.11368683772E-12  0.17120000000E+03  0.17120000000E+03 0.  0.
         13    1    1    2    0    0  0.76196256901E+01  0.28159843398E+02  0.97897161447E+02  0.10215136249E+03  0.10566000000E+00 0.  1.
        994    1    1    2    0    0 -0.67715312541E+01  0.80892987639E+01  0.51628751363E+01  0.17160240578E+03  0.17120000000E+03 0.  0.
        998    1    1    2    0    0 -0.84809443599E+00 -0.36249142161E+02  0.13969399597E+04  0.13974462317E+04  0.10000000000E+02 0.  1.
</event>
<event>
 5    1  0.1520352E-008  0.3854120E+03  0.7957747E-01  0.3427927E+00
         13   -1    0    0    0    0  0.00000000000E+00  0.00000000000E+00  0.14999999963E+04  0.15000000000E+04  0.10566000000E+00 0.  1.
        994   -1    0    0    0    0 -0.00000000000E+00 -0.00000000000E+00  0.11368683772E-12  0.17120000000E+03  0.17120000000E+03 0.  0.
         13    1    1    2    0    0  0.13294891857E+02 -0.57057372381E+01  0.82753644428E+02  0.84008847254E+02  0.10566000000E+00 0.  1.
        994    1    1    2    0    0  0.60594585371E+01  0.54268968452E+00  0.15472677431E+01  0.17131504776E+03  0.17120000000E+03 0.  0.
        998    1    1    2    0    0 -0.19354350394E+02  0.51630475536E+01  0.14156990841E+04  0.14158761050E+04  0.10000000000E+02 0.  1.
</event>
<event>
 5    1  0.1520352E-008  0.3860524E+03  0.7957747E-01  0.3425221E+00
         13   -1    0    0    0    0  0.00000000000E+00  0.00000000000E+00  0.14999999963E+04  0.15000000000E+04  0.10566000000E+00 0. -1.
        994   -1    0    0    0    0 -0.00000000000E+00 -0.00000000000E+00  0.11368683772E-12  0.17120000000E+03  0.17120000000E+03 0.  0.
         13    1    1    2    0    0 -0.45849788882E+01  0.91196477650E+01  0.48965896907E+02  0.50018598848E+02  0.10566000000E+00 0. -1.
        994    1    1    2    0    0 -0.32480667462E+01 -0.45650815692E+01  0.12114332573E+01  0.17129593538E+03  0.17120000000E+03 0.  0.
        998    1    1    2    0    0  0.78330456345E+01 -0.45545661958E+01  0.14498226661E+04  0.14498854658E+04  0.10000000000E+02 0. -1.
</event>
<event>
 5    1  0.1520352E-008  0.3812515E+03  0.7957747E-01  0.3445727E+00
         13   -1    0    0    0    0  0.00000000000E+00  0.00000000000E+00  0.14999999963E+04  0.15000000000E+04  0.10566000000E+00 0. -1.
        994   -1    0    0    0    0 -0.00000000000E+00 -0.00000000000E+00  0.11368683772E-12  0.17120000000E+03  0.17120000000E+03 0.  0.
         13    1    1    2    0    0  0.56022850612E+02  0.22675312830E+02  0.31413467578E+03  0.31989581943E+03  0.10566000000E+00 0. -1.
        994    1    1    2    0    0 -0.95968470339E+02 -0.24575829583E+01  0.34818154235E+02  0.19934324889E+03  0.17120000000E+03 0.  0.
        998    1    1    2    0    0  0.39945619727E+02 -0.20217729872E+02  0.11510471663E+04  0.11519609317E+04  0.10000000000E+02 0. -1.
</event>
<event>
 5    1  0.1520352E-008  0.3784519E+03  0.7957747E-01  0.3457927E+00
         13   -1    0    0    0    0  0.00000000000E+00  0.00000000000E+00  0.14999999963E+04  0.15000000000E+04  0.10566000000E+00 0. -1.
        994   -1    0    0    0    0 -0.00000000000E+00 -0.00000000000E+00  0.11368683772E-12  0.17120000000E+03  0.17120000000E+03 0.  0.
         13    1    1    2    0    0  0.81438836864E+01  0.22471843958E+02  0.54556334176E+02  0.59562667630E+02  0.10566000000E+00 0. -1.
        994    1    1    2    0    0 -0.12637193045E+02 -0.20725217645E+02  0.68990717383E+01  0.17304990750E+03  0.17120000000E+03 0.  0.
        998    1    1    2    0    0  0.44933093589E+01 -0.17466263126E+01  0.14385445904E+04  0.14385874249E+04  0.10000000000E+02 0. -1.
</event>
<event>
 5    1  0.1520352E-008  0.3761887E+03  0.7957747E-01  0.3467923E+00
         13   -1    0    0    0    0  0.00000000000E+00  0.00000000000E+00  0.14999999963E+04  0.15000000000E+04  0.10566000000E+00 0. -1.
        994   -1    0    0    0    0 -0.00000000000E+00 -0.00000000000E+00  0.11368683772E-12  0.17120000000E+03  0.17120000000E+03 0.  0.
         13    1    1    2    0    0 -0.19514764744E+02  0.29154462505E+02  0.94652715647E+02  0.10094531426E+03  0.10566000000E+00 0. -1.
        994    1    1    2    0    0  0.18626025693E+02 -0.26719982508E+02  0.96697323564E+01  0.17453890690E+03  0.17120000000E+03 0.  0.
        998    1    1    2    0    0  0.88873905075E+00 -0.24344799966E+01  0.13956775483E+04  0.13957157788E+04  0.10000000000E+02 0. -1.
</event>
<event>
 5    1  0.1520352E-008  0.3748568E+03  0.7957747E-01  0.3473863E+00
         13   -1    0    0    0    0  0.00000000000E+00  0.00000000000E+00  0.14999999963E+04  0.15000000000E+04  0.10566000000E+00 0. -1.
        994   -1    0    0    0    0 -0.00000000000E+00 -0.00000000000E+00  0.11368683772E-12  0.17120000000E+03  0.17120000000E+03 0.  0.
         13    1    1    2    0    0 -0.83539599095E+01 -0.16334829983E+02  0.22381921091E+02  0.28940920381E+02  0.10566000000E+00 0. -1.
        994    1    1    2    0    0  0.58293076099E+01  0.49199021260E+01  0.69501909856E+01  0.17151073266E+03  0.17120000000E+03 0.  0.
        998    1    1    2    0    0  0.25246522996E+01  0.11414927858E+02  0.14706678842E+04  0.14707483470E+04  0.10000000000E+02 0. -1.
</event>
<event>
 5    1  0.1520352E-008  0.3823299E+03  0.7957747E-01  0.3441076E+00
         13   -1    0    0    0    0  0.00000000000E+00  0.00000000000E+00  0.14999999963E+04  0.15000000000E+04  0.10566000000E+00 0. -1.
        994   -1    0    0    0    0 -0.00000000000E+00 -0.00000000000E+00  0.11368683772E-12  0.17120000000E+03  0.17120000000E+03 0.  0.
         13    1    1    2    0    0  0.10028801460E+02  0.26891595378E+02  0.13718313598E+03  0.14015334004E+03  0.10566000000E+00 0. -1.
        994    1    1    2    0    0 -0.59461242181E+02 -0.17383730556E+01  0.14790774727E+02  0.18184297699E+03  0.17120000000E+03 0.  0.
        998    1    1    2    0    0  0.49432440721E+02 -0.25153222322E+02  0.13480260856E+04  0.13492036830E+04  0.10000000000E+02 0. -1.
</event>
<event>
 5    1  0.1520352E-008  0.3698232E+03  0.7957747E-01  0.3496704E+00
         13   -1    0    0    0    0  0.00000000000E+00  0.00000000000E+00  0.14999999963E+04  0.15000000000E+04  0.10566000000E+00 0. -1.
        994   -1    0    0    0    0 -0.00000000000E+00 -0.00000000000E+00  0.11368683772E-12  0.17120000000E+03  0.17120000000E+03 0.  0.
         13    1    1    2    0    0 -0.58939776956E+02 -0.37796902462E+02  0.32327156213E+03  0.33076731578E+03  0.10566000000E+00 0. -1.
        994    1    1    2    0    0  0.90050041867E+01  0.25857650183E+01  0.96652542366E+01  0.17172837104E+03  0.17120000000E+03 0.  0.
        998    1    1    2    0    0  0.49934772769E+02  0.35211137444E+02  0.11670631799E+04  0.11687043132E+04  0.10000000000E+02 0. -1.
</event>
<event>
 5    1  0.1520352E-008  0.3785594E+03  0.7957747E-01  0.3457455E+00
         13   -1    0    0    0    0  0.00000000000E+00  0.00000000000E+00  0.14999999963E+04  0.15000000000E+04  0.10566000000E+00 0. -1.
        994   -1    0    0    0    0 -0.00000000000E+00 -0.00000000000E+00  0.11368683772E-12  0.17120000000E+03  0.17120000000E+03 0.  0.
         13    1    1    2    0    0 -0.30371604663E+02  0.14716630911E+02  0.12269588120E+03  0.12725291361E+03  0.10566000000E+00 0. -1.
        994    1    1    2    0    0  0.32459225690E+01 -0.13765104898E+02  0.55342529201E+01  0.17187228422E+03  0.17120000000E+03 0.  0.
        998    1    1    2    0    0  0.27125682094E+02 -0.95152601356E+00  0.13717698622E+04  0.13720748022E+04  0.10000000000E+02 0. -1.
</event>
<event>
 5    1  0.1520352E-008  0.3815517E+03  0.7957747E-01  0.3444430E+00
         13   -1    0    0    0    0  0.00000000000E+00  0.00000000000E+00  0.14999999963E+04  0.15000000000E+04  0.10566000000E+00 0.  1.
        994   -1    0    0    0    0 -0.00000000000E+00 -0.00000000000E+00  0.11368683772E-12  0.17120000000E+03  0.17120000000E+03 0.  0.
         13    1    1    2    0    0  0.32940761009E+01  0.30195056506E+02  0.13833850383E+03  0.14163384193E+03  0.10566000000E+00 0.  1.
        994    1    1    2    0    0  0.62096951023E+01 -0.16944435368E+02  0.44357880993E+01  0.17220566315E+03  0.17120000000E+03 0.  0.
        998    1    1    2    0    0 -0.95037712032E+01 -0.13250621139E+02  0.13572257043E+04  0.13573604949E+04  0.10000000000E+02 0.  1.
</event>
<event>
 5    1  0.1520352E-008  0.3706883E+03  0.7957747E-01  0.3492733E+00
         13   -1    0    0    0    0  0.00000000000E+00  0.00000000000E+00  0.14999999963E+04  0.15000000000E+04  0.10566000000E+00 0.  1.
        994   -1    0    0    0    0 -0.00000000000E+00 -0.00000000000E+00  0.11368683772E-12  0.17120000000E+03  0.17120000000E+03 0.  0.
         13    1    1    2    0    0 -0.50287941871E+01  0.25148251382E+02  0.33230228865E+02  0.41975976380E+02  0.10566000000E+00 0.  1.
        994    1    1    2    0    0  0.13053857274E+02 -0.16115685011E+02  0.10394803713E+02  0.17276460991E+03  0.17120000000E+03 0.  0.
        998    1    1    2    0    0 -0.80250630871E+01 -0.90325663713E+01  0.14563749637E+04  0.14564594137E+04  0.10000000000E+02 0.  1.
</event>
<event>
 5    1  0.1520352E-008  0.3992491E+03  0.7957747E-01  0.3371400E+00
         13   -1    0    0    0    0  0.00000000000E+00  0.00000000000E+00  0.14999999963E+04  0.15000000000E+04  0.10566000000E+00 0. -1.
        994   -1    0    0    0    0 -0.00000000000E+00 -0.00000000000E+00  0.11368683772E-12  0.17120000000E+03  0.17120000000E+03 0.  0.
         13    1    1    2    0    0  0.48221164404E+02 -0.61216190810E+02  0.12673295545E+03  0.14877484961E+03  0.10566000000E+00 0. -1.
        994    1    1    2    0    0 -0.23180139362E+01 -0.20335818746E+02  0.28968121815E+02  0.17483566797E+03  0.17120000000E+03 0.  0.
        998    1    1    2    0    0 -0.45903150468E+02  0.81552009556E+02  0.13442989190E+04  0.13475894824E+04  0.10000000000E+02 0. -1.
</event>
<event>
 5    1  0.1520352E-008  0.3698398E+03  0.7957747E-01  0.3496627E+00
         13   -1    0    0    0    0  0.00000000000E+00  0.00000000000E+00  0.14999999963E+04  0.15000000000E+04  0.10566000000E+00 0.  1.
        994   -1    0    0    0    0 -0.00000000000E+00 -0.00000000000E+00  0.11368683772E-12  0.17120000000E+03  0.17120000000E+03 0.  0.
         13    1    1    2    0    0  0.89747730564E+01  0.64613738241E+01  0.23767341446E+01  0.11311760797E+02  0.10566000000E+00 0.  1.
        994    1    1    2    0    0  0.46951277794E+01  0.14709105706E+02  0.10178005915E+02  0.17219591697E+03  0.17120000000E+03 0.  0.
        998    1    1    2    0    0 -0.13669900836E+02 -0.21170479530E+02  0.14874452562E+04  0.14876923222E+04  0.10000000000E+02 0.  1.
</event>
<event>
 5    1  0.1520352E-008  0.3767731E+03  0.7957747E-01  0.3465331E+00
         13   -1    0    0    0    0  0.00000000000E+00  0.00000000000E+00  0.14999999963E+04  0.15000000000E+04  0.10566000000E+00 0. -1.
        994   -1    0    0    0    0 -0.00000000000E+00 -0.00000000000E+00  0.11368683772E-12  0.17120000000E+03  0.17120000000E+03 0.  0.
         13    1    1    2    0    0 -0.16067679890E+02  0.19485645522E+02  0.51041521048E+02  0.56948298950E+02  0.10566000000E+00 0. -1.
        994    1    1    2    0    0  0.17260715721E+02 -0.21946180863E+02  0.84096454759E+01  0.17366556740E+03  0.17120000000E+03 0.  0.
        998    1    1    2    0    0 -0.11930358312E+01  0.24605353409E+01  0.14405488298E+04  0.14405861337E+04  0.10000000000E+02 0. -1.
</event>
<event>
 5    1  0.1520352E-008  0.3759862E+03  0.7957747E-01  0.3468824E+00
         13   -1    0    0    0    0  0.00000000000E+00  0.00000000000E+00  0.14999999963E+04  0.15000000000E+04  0.10566000000E+00 0. -1.
        994   -1    0    0    0    0 -0.00000000000E+00 -0.00000000000E+00  0.11368683772E-12  0.17120000000E+03  0.17120000000E+03 0.  0.
         13    1    1    2    0    0  0.37266433571E+02  0.14417419130E+02  0.13515056584E+03  0.14093379885E+03  0.10566000000E+00 0. -1.
        994    1    1    2    0    0 -0.11219283005E+02 -0.38621471419E+01  0.66502774196E+01  0.17173949657E+03  0.17120000000E+03 0.  0.
        998    1    1    2    0    0 -0.26047150566E+02 -0.10555271988E+02  0.13581991530E+04  0.13585267046E+04  0.10000000000E+02 0. -1.
</event>
<event>
 5    1  0.1520352E-008  0.3852905E+03  0.7957747E-01  0.3428441E+00
         13   -1    0    0    0    0  0.00000000000E+00  0.00000000000E+00  0.14999999963E+04  0.15000000000E+04  0.10566000000E+00 0.  1.
        994   -1    0    0    0    0 -0.00000000000E+00 -0.00000000000E+00  0.11368683772E-12  0.17120000000E+03  0.17120000000E+03 0.  0.
         13    1    1    2    0    0  0.15449740475E+02  0.53452383141E-01  0.72520944570E+02  0.74148472023E+02  0.10566000000E+00 0.  1.
        994    1    1    2    0    0 -0.26251898910E+02  0.23013196782E+02  0.55005782198E+01  0.17480979888E+03  0.17120000000E+03 0.  0.
        998    1    1    2    0    0  0.10802158435E+02 -0.23066649165E+02  0.14219784735E+04  0.14222417291E+04  0.10000000000E+02 0.  1.
</event>
<event>
 5    1  0.1520352E-008  0.3823363E+03  0.7957747E-01  0.3441048E+00
         13   -1    0    0    0    0  0.00000000000E+00  0.00000000000E+00  0.14999999963E+04  0.15000000000E+04  0.10566000000E+00 0. -1.
        994   -1    0    0    0    0 -0.00000000000E+00 -0.00000000000E+00  0.11368683772E-12  0.17120000000E+03  0.17120000000E+03 0.  0.
         13    1    1    2    0    0  0.11014083389E+02 -0.17663879449E+02  0.69994808393E+02  0.73024701547E+02  0.10566000000E+00 0. -1.
        994    1    1    2    0    0 -0.13706040533E+02  0.14727754311E+02  0.43022843152E+01  0.17243176025E+03  0.17120000000E+03 0.  0.
        998    1    1    2    0    0  0.26919571443E+01  0.29361251381E+01  0.14257029036E+04  0.14257435382E+04  0.10000000000E+02 0. -1.
</event>
<event>
 5    1  0.1520352E-008  0.3757701E+03  0.7957747E-01  0.3469786E+00
         13   -1    0    0    0    0  0.00000000000E+00  0.00000000000E+00  0.14999999963E+04  0.15000000000E+04  0.10566000000E+00 0. -1.
        994   -1    0    0    0    0 -0.00000000000E+00 -0.00000000000E+00  0.11368683772E-12  0.17120000000E+03  0.17120000000E+03 0.  0.
         13    1    1    2    0    0 -0.27412700954E+01  0.14038812376E+02  0.13443175885E+02  0.19629899556E+02  0.10566000000E+00 0. -1.
        994    1    1    2    0    0 -0.11317058438E+01 -0.12818806453E+02  0.68454720475E+01  0.17181939077E+03  0.17120000000E+03 0.  0.
        998    1    1    2    0    0  0.38729759393E+01 -0.12200059229E+01  0.14797113483E+04  0.14797507097E+04  0.10000000000E+02 0. -1.
</event>
<event>
 5    1  0.1520352E-008  0.3860176E+03  0.7957747E-01  0.3425368E+00
         13   -1    0    0    0    0  0.00000000000E+00  0.00000000000E+00  0.14999999963E+04  0.15000000000E+04  0.10566000000E+00 0.  1.
        994   -1    0    0    0    0 -0.00000000000E+00 -0.00000000000E+00  0.11368683772E-12  0.17120000000E+03  0.17120000000E+03 0.  0.
         13    1    1    2    0    0 -0.65756519096E+01  0.76574584689E+01  0.44768951280E+02  0.45892766652E+02  0.10566000000E+00 0.  1.
        994    1    1    2    0    0  0.63479577857E+01 -0.82298881502E+01  0.14799313493E+01  0.17152159579E+03  0.17120000000E+03 0.  0.
        998    1    1    2    0    0  0.22769412394E+00  0.57242968123E+00  0.14537511136E+04  0.14537856376E+04  0.10000000000E+02 0.  0.
</event>
<event>
 5    1  0.1520352E-008  0.3820000E+03  0.7957747E-01  0.3442496E+00
         13   -1    0    0    0    0  0.00000000000E+00  0.00000000000E+00  0.14999999963E+04  0.15000000000E+04  0.10566000000E+00 0. -1.
        994   -1    0    0    0    0 -0.00000000000E+00 -0.00000000000E+00  0.11368683772E-12  0.17120000000E+03  0.17120000000E+03 0.  0.
         13    1    1    2    0    0  0.11478237391E+02 -0.19224097900E+02  0.85141172134E+02  0.88036050741E+02  0.10566000000E+00 0. -1.
        994    1    1    2    0    0  0.52443722344E+01  0.38676421529E+01  0.32679964395E+01  0.17135513385E+03  0.17120000000E+03 0.  0.
        998    1    1    2    0    0 -0.16722609626E+02  0.15356455747E+02  0.14115908277E+04  0.14118088154E+04  0.10000000000E+02 0. -1.
</event>
<event>
 5    1  0.1520352E-008  0.3798305E+03  0.7957747E-01  0.3451897E+00
         13   -1    0    0    0    0  0.00000000000E+00  0.00000000000E+00  0.14999999963E+04  0.15000000000E+04  0.10566000000E+00 0.  1.
        994   -1    0    0    0    0 -0.00000000000E+00 -0.00000000000E+00  0.11368683772E-12  0.17120000000E+03  0.17120000000E+03 0.  0.
         13    1    1    2    0    0  0.76690753155E+01 -0.11160298187E+02  0.19822004169E+02  0.24006040597E+02  0.10566000000E+00 0.  1.
        994    1    1    2    0    0  0.51921144809E+01  0.18358806437E+02  0.54371856743E+01  0.17234560283E+03  0.17120000000E+03 0.  0.
        998    1    1    2    0    0 -0.12861189796E+02 -0.71985082501E+01  0.14747408064E+04  0.14748483566E+04  0.10000000000E+02 0.  1.
</event>
<event>
 5    1  0.1520352E-008  0.3751384E+03  0.7957747E-01  0.3472604E+00
         13   -1    0    0    0    0  0.00000000000E+00  0.00000000000E+00  0.14999999963E+04  0.15000000000E+04  0.10566000000E+00 0. -1.
        994   -1    0    0    0    0 -0.00000000000E+00 -0.00000000000E+00  0.11368683772E-12  0.17120000000E+03  0.17120000000E+03 0.  0.
         13    1    1    2    0    0 -0.94453501979E+01  0.49285121737E+02  0.17222431095E+03  0.17938634929E+03  0.10566000000E+00 0. -1.
        994    1    1    2    0    0  0.34800891024E+02 -0.40375504356E+02  0.16323186190E+02  0.18004768750E+03  0.17120000000E+03 0.  0.
        998    1    1    2    0    0 -0.25355540826E+02 -0.89096173815E+01  0.13114524991E+04  0.13117659632E+04  0.10000000000E+02 0. -1.
</event>
<event>
 5    1  0.1520352E-008  0.3820313E+03  0.7957747E-01  0.3442361E+00
         13   -1    0    0    0    0  0.00000000000E+00  0.00000000000E+00  0.14999999963E+04  0.15000000000E+04  0.10566000000E+00 0. -1.
        994   -1    0    0    0    0 -0.00000000000E+00 -0.00000000000E+00  0.11368683772E-12  0.17120000000E+03  0.17120000000E+03 0.  0.
         13    1    1    2    0    0 -0.20883969302E+02 -0.19018307688E+02  0.12936588018E+03  0.13241366365E+03  0.10566000000E+00 0. -1.
        994    1    1    2    0    0 -0.32972639632E+01  0.25952710482E+02  0.53872463066E+01  0.17327110998E+03  0.17120000000E+03 0.  0.
        998    1    1    2    0    0  0.24181233265E+02 -0.69344027934E+01  0.13652468698E+04  0.13655152264E+04  0.10000000000E+02 0. -1.
</event>
<event>
 5    1  0.1520352E-008  0.3753506E+03  0.7957747E-01  0.3471656E+00
         13   -1    0    0    0    0  0.00000000000E+00  0.00000000000E+00  0.14999999963E+04  0.15000000000E+04  0.10566000000E+00 0. -1.
        994   -1    0    0    0    0 -0.00000000000E+00 -0.00000000000E+00  0.11368683772E-12  0.17120000000E+03  0.17120000000E+03 0.  0.
         13    1    1    2    0    0  0.17999528218E+02 -0.19151173197E+02  0.50001473887E+02  0.56488131549E+02  0.10566000000E+00 0. -1.
        994    1    1    2    0    0 -0.13120573908E+02  0.16634610494E+02  0.80242451482E+01  0.17269246722E+03  0.17120000000E+03 0.  0.
        998    1    1    2    0    0 -0.48789543099E+01  0.25165627037E+01  0.14419742772E+04  0.14420194012E+04  0.10000000000E+02 0. -1.
</event>
<event>
 5    1  0.1520352E-008  0.3839018E+03  0.7957747E-01  0.3434343E+00
         13   -1    0    0    0    0  0.00000000000E+00  0.00000000000E+00  0.14999999963E+04  0.15000000000E+04  0.10566000000E+00 0.  1.
        994   -1    0    0    0    0 -0.00000000000E+00 -0.00000000000E+00  0.11368683772E-12  0.17120000000E+03  0.17120000000E+03 0.  0.
         13    1    1    2    0    0  0.12068022751E+02 -0.25273253738E+02  0.14902815342E+03  0.15163698824E+03  0.10566000000E+00 0.  1.
        994    1    1    2    0    0 -0.15996840433E+01  0.43804323839E+02  0.85436108857E+01  0.17692883050E+03  0.17120000000E+03 0.  0.
        998    1    1    2    0    0 -0.10468338708E+02 -0.18531070101E+02  0.13424282320E+04  0.13426341813E+04  0.10000000000E+02 0.  1.
</event>
<event>
 5    1  0.1520352E-008  0.3742705E+03  0.7957747E-01  0.3476492E+00
         13   -1    0    0    0    0  0.00000000000E+00  0.00000000000E+00  0.14999999963E+04  0.15000000000E+04  0.10566000000E+00 0. -1.
        994   -1    0    0    0    0 -0.00000000000E+00 -0.00000000000E+00  0.11368683772E-12  0.17120000000E+03  0.17120000000E+03 0.  0.
         13    1    1    2    0    0  0.46572300404E+02 -0.35322240130E+01  0.79231588107E+02  0.91973428170E+02  0.10566000000E+00 0. -1.
        994    1    1    2    0    0 -0.26428673013E+02 -0.14128497175E+02  0.16408930423E+02  0.17457600691E+03  0.17120000000E+03 0.  0.
        998    1    1    2    0    0 -0.20143627391E+02  0.17660721188E+02  0.14043594777E+04  0.14046505649E+04  0.10000000000E+02 0. -1.
</event>
<event>
 5    1  0.1520352E-008  0.3756857E+03  0.7957747E-01  0.3470162E+00
         13   -1    0    0    0    0  0.00000000000E+00  0.00000000000E+00  0.14999999963E+04  0.15000000000E+04  0.10566000000E+00 0. -1.
        994   -1    0    0    0    0 -0.00000000000E+00 -0.00000000000E+00  0.11368683772E-12  0.17120000000E+03  0.17120000000E+03 0.  0.
         13    1    1    2    0    0  0.10186685642E+03 -0.24052632600E+02  0.45769538670E+03  0.46951087713E+03  0.10566000000E+00 0. -1.
        994    1    1    2    0    0 -0.35370832248E+02  0.21034058658E+02  0.20042836389E+02  0.17721366394E+03  0.17120000000E+03 0.  0.
        998    1    1    2    0    0 -0.66496024174E+02  0.30185739427E+01  0.10222617732E+04  0.10244754589E+04  0.10000000000E+02 0. -1.
</event>
<event>
 5    1  0.1520352E-008  0.3856579E+03  0.7957747E-01  0.3426887E+00
         13   -1    0    0    0    0  0.00000000000E+00  0.00000000000E+00  0.14999999963E+04  0.15000000000E+04  0.10566000000E+00 0. -1.
        994   -1    0    0    0    0 -0.00000000000E+00 -0.00000000000E+00  0.11368683772E-12  0.17120000000E+03  0.17120000000E+03 0.  0.
         13    1    1    2    0    0 -0.27629022915E+01 -0.43105840282E+02  0.39998500476E+02  0.58869672157E+02  0.10566000000E+00 0. -1.
        994    1    1    2    0    0  0.23589303589E+01  0.37892046826E+02  0.24822797723E+02  0.17710726426E+03  0.17120000000E+03 0.  0.
        998    1    1    2    0    0  0.40397193261E+00  0.52137934553E+01  0.14351786981E+04  0.14352230636E+04  0.10000000000E+02 0. -1.
</event>
<event>
 5    1  0.1520352E-008  0.3852744E+03  0.7957747E-01  0.3428509E+00
         13   -1    0    0    0    0  0.00000000000E+00  0.00000000000E+00  0.14999999963E+04  0.15000000000E+04  0.10566000000E+00 0.  1.
        994   -1    0    0    0    0 -0.00000000000E+00 -0.00000000000E+00  0.11368683772E-12  0.17120000000E+03  0.17120000000E+03 0.  0.
         13    1    1    2    0    0  0.17951499831E+01  0.17669850499E+02  0.10495440995E+03  0.10644663223E+03  0.10566000000E+00 0.  1.
        994    1    1    2    0    0  0.28372240536E+01 -0.12718074795E+02  0.20520706064E+01  0.17170745546E+03  0.17120000000E+03 0.  0.
        998    1    1    2    0    0 -0.46323740367E+01 -0.49517757039E+01  0.13929935157E+04  0.13930459123E+04  0.10000000000E+02 0.  1.
</event>
<event>
 5    1  0.1520352E-008  0.3756732E+03  0.7957747E-01  0.3470218E+00
         13   -1    0    0    0    0  0.00000000000E+00  0.00000000000E+00  0.14999999963E+04  0.15000000000E+04  0.10566000000E+00 0. -1.
        994   -1    0    0    0    0 -0.00000000000E+00 -0.00000000000E+00  0.11368683772E-12  0.17120000000E+03  0.17120000000E+03 0.  0.
         13    1    1    2    0    0 -0.60638938392E+01  0.73382925169E+02  0.35314151384E+03  0.36073641967E+03  0.10566000000E+00 0. -1.
        994    1    1    2    0    0  0.25183717817E+01 -0.64542674716E+02  0.20617020539E+02  0.18413745027E+03  0.17120000000E+03 0.  0.
        998    1    1    2    0    0  0.35455220575E+01 -0.88402504531E+01  0.11262414619E+04  0.11263261301E+04  0.10000000000E+02 0. -1.
</event>
<event>
 5    1  0.1520352E-008  0.3810054E+03  0.7957747E-01  0.3446792E+00
         13   -1    0    0    0    0  0.00000000000E+00  0.00000000000E+00  0.14999999963E+04  0.15000000000E+04  0.10566000000E+00 0.  1.
        994   -1    0    0    0    0 -0.00000000000E+00 -0.00000000000E+00  0.11368683772E-12  0.17120000000E+03  0.17120000000E+03 0.  0.
         13    1    1    2    0    0  0.17981793266E+02  0.26464898000E+02  0.13524922246E+03  0.13898236958E+03  0.10566000000E+00 0.  1.
        994    1    1    2    0    0 -0.32269946919E+02 -0.82354389007E+01  0.73308854401E+01  0.17456332321E+03  0.17120000000E+03 0.  0.
        998    1    1    2    0    0  0.14288153653E+02 -0.18229459099E+02  0.13574198884E+04  0.13576543072E+04  0.10000000000E+02 0.  1.
</event>
<event>
 5    1  0.1520352E-008  0.3843696E+03  0.7957747E-01  0.3432350E+00
         13   -1    0    0    0    0  0.00000000000E+00  0.00000000000E+00  0.14999999963E+04  0.15000000000E+04  0.10566000000E+00 0.  1.
        994   -1    0    0    0    0 -0.00000000000E+00 -0.00000000000E+00  0.11368683772E-12  0.17120000000E+03  0.17120000000E+03 0.  0.
         13    1    1    2    0    0 -0.90758279141E+01  0.10066114482E+02  0.48338689133E+02  0.50202961508E+02  0.10566000000E+00 0.  1.
        994    1    1    2    0    0  0.25413700775E+01 -0.19940442706E+01  0.19778527294E+01  0.17124189521E+03  0.17120000000E+03 0.  0.
        998    1    1    2    0    0  0.65344578367E+01 -0.80720702114E+01  0.14496834544E+04  0.14497551433E+04  0.10000000000E+02 0.  1.
</event>
<event>
 5    1  0.1520352E-008  0.3858017E+03  0.7957747E-01  0.3426279E+00
         13   -1    0    0    0    0  0.00000000000E+00  0.00000000000E+00  0.14999999963E+04  0.15000000000E+04  0.10566000000E+00 0.  1.
        994   -1    0    0    0    0 -0.00000000000E+00 -0.00000000000E+00  0.11368683772E-12  0.17120000000E+03  0.17120000000E+03 0.  0.
         13    1    1    2    0    0  0.10733686930E+02  0.45832489650E+01  0.56162075154E+02  0.57362078552E+02  0.10566000000E+00 0.  1.
        994    1    1    2    0    0 -0.74357257454E+01  0.33514411939E+00  0.14143848592E+01  0.17136756643E+03  0.17120000000E+03 0.  0.
        998    1    1    2    0    0 -0.32979611844E+01 -0.49183930844E+01  0.14424235363E+04  0.14424703550E+04  0.10000000000E+02 0.  1.
</event>
<event>
 5    1  0.1520352E-008  0.3834812E+03  0.7957747E-01  0.3436139E+00
         13   -1    0    0    0    0  0.00000000000E+00  0.00000000000E+00  0.14999999963E+04  0.15000000000E+04  0.10566000000E+00 0.  1.
        994   -1    0    0    0    0 -0.00000000000E+00 -0.00000000000E+00  0.11368683772E-12  0.17120000000E+03  0.17120000000E+03 0.  0.
         13    1    1    2    0    0 -0.21863570983E+01  0.15877159259E+02  0.52623966100E+02  0.55010520045E+02  0.10566000000E+00 0.  1.
        994    1    1    2    0    0 -0.64847800592E+01 -0.13847022057E+02  0.31591052260E+01  0.17191047769E+03  0.17120000000E+03 0.  0.
        998    1    1    2    0    0  0.86711371576E+01 -0.20301372022E+01  0.14442169250E+04  0.14442790023E+04  0.10000000000E+02 0.  1.
</event>
<event>
 5    1  0.1520352E-008  0.3845807E+03  0.7957747E-01  0.3431452E+00
         13   -1    0    0    0    0  0.00000000000E+00  0.00000000000E+00  0.14999999963E+04  0.15000000000E+04  0.10566000000E+00 0. -1.
        994   -1    0    0    0    0 -0.00000000000E+00 -0.00000000000E+00  0.11368683772E-12  0.17120000000E+03  0.17120000000E+03 0.  0.
         13    1    1    2    0    0 -0.19297867195E+02  0.48151043804E+01  0.11440274005E+03  0.11611886584E+03  0.10566000000E+00 0. -1.
        994    1    1    2    0    0  0.46193397629E+01 -0.78391421076E+00  0.19107423366E+01  0.17127476101E+03  0.17120000000E+03 0.  0.
        998    1    1    2    0    0  0.14678527432E+02 -0.40311901697E+01  0.13836865139E+04  0.13838063732E+04  0.10000000000E+02 0. -1.
</event>
<event>
 5    1  0.1520352E-008  0.3785051E+03  0.7957747E-01  0.3457693E+00
         13   -1    0    0    0    0  0.00000000000E+00  0.00000000000E+00  0.14999999963E+04  0.15000000000E+04  0.10566000000E+00 0. -1.
        994   -1    0    0    0    0 -0.00000000000E+00 -0.00000000000E+00  0.11368683772E-12  0.17120000000E+03  0.17120000000E+03 0.  0.
         13    1    1    2    0    0  0.19360093493E+02  0.43382675949E+01  0.38750558397E+02  0.43534477439E+02  0.10566000000E+00 0. -1.
        994    1    1    2    0    0 -0.11863245018E+02  0.81643064268E+01  0.55867007734E+01  0.17189544411E+03  0.17120000000E+03 0.  0.
        998    1    1    2    0    0 -0.74968484753E+01 -0.12502574022E+02  0.14556627371E+04  0.14557700784E+04  0.10000000000E+02 0. -1.
</event>
<event>
 5    1  0.1520352E-008  0.3779799E+03  0.7957747E-01  0.3460002E+00
         13   -1    0    0    0    0  0.00000000000E+00  0.00000000000E+00  0.14999999963E+04  0.15000000000E+04  0.10566000000E+00 0.  1.
        994   -1    0    0    0    0 -0.00000000000E+00 -0.00000000000E+00  0.11368683772E-12  0.17120000000E+03  0.17120000000E+03 0.  0.
         13    1    1    2    0    0  0.12080986686E+03  0.18242850970E+03  0.97134807699E+03  0.99568683979E+03  0.10566000000E+00 0.  1.
        994    1    1    2    0    0 -0.12047277810E+03 -0.18673689865E+03  0.19490178717E+03  0.34158528397E+03  0.17120000000E+03 0.  0.
        998    1    1    2    0    0 -0.33708875738E+00  0.43083889528E+01  0.33375013212E+03  0.33392787624E+03  0.10000000000E+02 0.  1.
</event>
<event>
 5    1  0.1520352E-008  0.3821355E+03  0.7957747E-01  0.3441913E+00
         13   -1    0    0    0    0  0.00000000000E+00  0.00000000000E+00  0.14999999963E+04  0.15000000000E+04  0.10566000000E+00 0.  1.
        994   -1    0    0    0    0 -0.00000000000E+00 -0.00000000000E+00  0.11368683772E-12  0.17120000000E+03  0.17120000000E+03 0.  0.
         13    1    1    2    0    0  0.37221803236E+02  0.11751924461E+02  0.18893524720E+03  0.19292513875E+03  0.10566000000E+00 0.  1.
        994    1    1    2    0    0 -0.76034564666E+02  0.33815655223E+02  0.26396833690E+02  0.19217436455E+03  0.17120000000E+03 0.  0.
        998    1    1    2    0    0  0.38812761430E+02 -0.45567579684E+02  0.12846679154E+04  0.12861004967E+04  0.10000000000E+02 0.  1.
</event>
<event>
 5    1  0.2266430E-008  0.3858426E+03  0.7957747E-01  0.3426106E+00
         13   -1    0    0    0    0  0.00000000000E+00  0.00000000000E+00  0.14999999963E+04  0.15000000000E+04  0.10566000000E+00 0.  1.
        994   -1    0    0    0    0 -0.00000000000E+00 -0.00000000000E+00  0.11368683772E-12  0.17120000000E+03  0.17120000000E+03 0.  0.
         13    1    1    2    0    0 -0.37697261174E+00  0.11102300698E+02  0.52641730671E+02  0.53801172489E+02  0.10566000000E+00 0.  1.
        994    1    1    2    0    0  0.14173793593E+01 -0.36983806692E+01  0.12638132056E+01  0.17125047214E+03  0.17120000000E+03 0.  0.
        998    1    1    2    0    0 -0.10404067475E+01 -0.74039200289E+01  0.14460944524E+04  0.14461483554E+04  0.10000000000E+02 0.  1.
</event>
<event>
 5    1  0.1520352E-008  0.3769097E+03  0.7957747E-01  0.3464726E+00
         13   -1    0    0    0    0  0.00000000000E+00  0.00000000000E+00  0.14999999963E+04  0.15000000000E+04  0.10566000000E+00 0. -1.
        994   -1    0    0    0    0 -0.00000000000E+00 -0.00000000000E+00  0.11368683772E-12  0.17120000000E+03  0.17120000000E+03 0.  0.
         13    1    1    2    0    0  0.23016349624E+02  0.54984869633E+02  0.25278917332E+03  0.25972190041E+03  0.10566000000E+00 0. -1.
        994    1    1    2    0    0 -0.23195494135E+02 -0.58230456533E+02  0.19087866464E+02  0.18331012973E+03  0.17120000000E+03 0.  0.
        998    1    1    2    0    0  0.17914451092E+00  0.32455868999E+01  0.12281229565E+04  0.12281679699E+04  0.10000000000E+02 0.  1.
</event>
<event>
 5    1  0.1520352E-008  0.3850868E+03  0.7957747E-01  0.3429304E+00
         13   -1    0    0    0    0  0.00000000000E+00  0.00000000000E+00  0.14999999963E+04  0.15000000000E+04  0.10566000000E+00 0. -1.
        994   -1    0    0    0    0 -0.00000000000E+00 -0.00000000000E+00  0.11368683772E-12  0.17120000000E+03  0.17120000000E+03 0.  0.
         13    1    1    2    0    0 -0.98087726059E+01 -0.91744725660E+01  0.54922606365E+02  0.56541018923E+02  0.10566000000E+00 0. -1.
        994    1    1    2    0    0  0.94945698823E+01  0.11552266505E+02  0.23225533126E+01  0.17186749539E+03  0.17120000000E+03 0.  0.
        998    1    1    2    0    0  0.31420272358E+00 -0.23777939391E+01  0.14427548366E+04  0.14427914857E+04  0.10000000000E+02 0. -1.
</event>
<event>
 5    1  0.1520352E-008  0.3862936E+03  0.7957747E-01  0.3424204E+00
         13   -1    0    0    0    0  0.00000000000E+00  0.00000000000E+00  0.14999999963E+04  0.15000000000E+04  0.10566000000E+00 0.  1.
        994   -1    0    0    0    0 -0.00000000000E+00 -0.00000000000E+00  0.11368683772E-12  0.17120000000E+03  0.17120000000E+03 0.  0.
         13    1    1    2    0    0  0.70174612482E+01 -0.96796069293E+01  0.71251600191E+02  0.72247776758E+02  0.10566000000E+00 0.  1.
        994    1    1    2    0    0 -0.86539161347E+01  0.80213576548E+01  0.14453464879E+01  0.17161224161E+03  0.17120000000E+03 0.  0.
        998    1    1    2    0    0  0.16364548865E+01  0.16582492745E+01  0.14273030496E+04  0.14273399816E+04  0.10000000000E+02 0.  1.
</event>
<event>
 5    1  0.1520352E-008  0.3792157E+03  0.7957747E-01  0.3454580E+00
         13   -1    0    0    0    0  0.00000000000E+00  0.00000000000E+00  0.14999999963E+04  0.15000000000E+04  0.10566000000E+00 0.  1.
        994   -1    0    0    0    0 -0.00000000000E+00 -0.00000000000E+00  0.11368683772E-12  0.17120000000E+03  0.17120000000E+03 0.  0.
         13    1    1    2    0    0 -0.19560118562E+02  0.25371247073E+02  0.11832427769E+03  0.12258443731E+03  0.10566000000E+00 0.  1.
        994    1    1    2    0    0  0.10674359384E+02 -0.27278576162E+01  0.49364849568E+01  0.17162514979E+03  0.17120000000E+03 0.  0.
        998    1    1    2    0    0  0.88857591779E+01 -0.22643389456E+02  0.13767392336E+04  0.13769904129E+04  0.10000000000E+02 0.  1.
</event>
<event>
 5    1  0.1520352E-008  0.3861495E+03  0.7957747E-01  0.3424811E+00
         13   -1    0    0    0    0  0.00000000000E+00  0.00000000000E+00  0.14999999963E+04  0.15000000000E+04  0.10566000000E+00 0.  1.
        994   -1    0    0    0    0 -0.00000000000E+00 -0.00000000000E+00  0.11368683772E-12  0.17120000000E+03  0.17120000000E+03 0.  0.
         13    1    1    2    0    0 -0.10217704006E+02 -0.34653523804E+01  0.56944393826E+02  0.57957616363E+02  0.10566000000E+00 0.  1.
        994    1    1    2    0    0  0.57594786596E+01 -0.38327249832E+01  0.12173074253E+01  0.17134404925E+03  0.17120000000E+03 0.  0.
        998    1    1    2    0    0  0.44582253461E+01  0.72980773636E+01  0.14418382950E+04  0.14418983344E+04  0.10000000000E+02 0.  1.
</event>
<event>
 5    1  0.1520352E-008  0.3844574E+03  0.7957747E-01  0.3431977E+00
         13   -1    0    0    0    0  0.00000000000E+00  0.00000000000E+00  0.14999999963E+04  0.15000000000E+04  0.10566000000E+00 0. -1.
        994   -1    0    0    0    0 -0.00000000000E+00 -0.00000000000E+00  0.11368683772E-12  0.17120000000E+03  0.17120000000E+03 0.  0.
         13    1    1    2    0    0 -0.14029880839E+00  0.10551573335E+02  0.28822237632E+02  0.30693450927E+02  0.10566000000E+00 0. -1.
        994    1    1    2    0    0 -0.74288308921E+01 -0.76473709151E+01  0.22743556247E+01  0.17154673563E+03  0.17120000000E+03 0.  0.
        998    1    1    2    0    0  0.75691297005E+01 -0.29042024201E+01  0.14689034030E+04  0.14689598134E+04  0.10000000000E+02 0. -1.
</event>
<event>
 5    1  0.1520352E-008  0.3817000E+03  0.7957747E-01  0.3443789E+00
         13   -1    0    0    0    0  0.00000000000E+00  0.00000000000E+00  0.14999999963E+04  0.15000000000E+04  0.10566000000E+00 0. -1.
        994   -1    0    0    0    0 -0.00000000000E+00 -0.00000000000E+00  0.11368683772E-12  0.17120000000E+03  0.17120000000E+03 0.  0.
         13    1    1    2    0    0 -0.25940794914E+02 -0.63600715699E+01  0.12110663142E+03  0.12401694517E+03  0.10566000000E+00 0. -1.
        994    1    1    2    0    0 -0.38161953974E+01  0.72190643891E+01  0.34991265434E+01  0.17143034190E+03  0.17120000000E+03 0.  0.
        998    1    1    2    0    0  0.29756990311E+02 -0.85899281923E+00  0.13753942383E+04  0.13757527129E+04  0.10000000000E+02 0. -1.
</event>
<event>
 5    1  0.1520352E-008  0.3860296E+03  0.7957747E-01  0.3425317E+00
         13   -1    0    0    0    0  0.00000000000E+00  0.00000000000E+00  0.14999999963E+04  0.15000000000E+04  0.10566000000E+00 0.  1.
        994   -1    0    0    0    0 -0.00000000000E+00 -0.00000000000E+00  0.11368683772E-12  0.17120000000E+03  0.17120000000E+03 0.  0.
         13    1    1    2    0    0  0.14532470800E+01  0.12113551640E+02  0.71943923753E+02  0.72971154503E+02  0.10566000000E+00 0.  1.
        994    1    1    2    0    0 -0.52208361559E+01  0.78184258269E+00  0.12111666978E+01  0.17128565419E+03  0.17120000000E+03 0.  0.
        998    1    1    2    0    0  0.37675890759E+01 -0.12895394223E+02  0.14268449058E+04  0.14269431913E+04  0.10000000000E+02 0.  1.
</event>
<event>
 5    1  0.1520352E-008  0.3704762E+03  0.7957747E-01  0.3493705E+00
         13   -1    0    0    0    0  0.00000000000E+00  0.00000000000E+00  0.14999999963E+04  0.15000000000E+04  0.10566000000E+00 0.  1.
        994   -1    0    0    0    0 -0.00000000000E+00 -0.00000000000E+00  0.11368683772E-12  0.17120000000E+03  0.17120000000E+03 0.  0.
         13    1    1    2    0    0  0.28732181564E+02  0.17160571254E+00  0.42594590056E+02  0.51379742817E+02  0.10566000000E+00 0.  1.
        994    1    1    2    0    0 -0.15886450463E+02 -0.17111202438E+02  0.10904557122E+02  0.17312862826E+03  0.17120000000E+03 0.  0.
        998    1    1    2    0    0 -0.12845731100E+02  0.16939596726E+02  0.14465008491E+04  0.14466916289E+04  0.10000000000E+02 0.  1.
</event>
<event>
 5    1  0.1520352E-008  0.3854245E+03  0.7957747E-01  0.3427874E+00
         13   -1    0    0    0    0  0.00000000000E+00  0.00000000000E+00  0.14999999963E+04  0.15000000000E+04  0.10566000000E+00 0. -1.
        994   -1    0    0    0    0 -0.00000000000E+00 -0.00000000000E+00  0.11368683772E-12  0.17120000000E+03  0.17120000000E+03 0.  0.
         13    1    1    2    0    0  0.12054730340E+02  0.10779648874E+02  0.93844815454E+02  0.95228031089E+02  0.10566000000E+00 0. -1.
        994    1    1    2    0    0 -0.95408960408E+01 -0.23818851142E+01  0.17371600367E+01  0.17149099043E+03  0.17120000000E+03 0.  0.
        998    1    1    2    0    0 -0.25138342995E+01 -0.83977637595E+01  0.14044180208E+04  0.14044809785E+04  0.10000000000E+02 0. -1.
</event>
<event>
 5    1  0.1520352E-008  0.3764807E+03  0.7957747E-01  0.3466627E+00
         13   -1    0    0    0    0  0.00000000000E+00  0.00000000000E+00  0.14999999963E+04  0.15000000000E+04  0.10566000000E+00 0.  1.
        994   -1    0    0    0    0 -0.00000000000E+00 -0.00000000000E+00  0.11368683772E-12  0.17120000000E+03  0.17120000000E+03 0.  0.
         13    1    1    2    0    0  0.92094427882E+02 -0.31961209672E+02  0.51643720645E+03  0.52555713480E+03  0.10566000000E+00 0.  1.
        994    1    1    2    0    0 -0.91705740781E+02  0.32638850183E+02  0.38672547899E+02  0.20069938564E+03  0.17120000000E+03 0.  0.
        998    1    1    2    0    0 -0.38868710053E+00 -0.67764051099E+00  0.94489024193E+03  0.94494347956E+03  0.10000000000E+02 0.  0.
</event>
<event>
 5    1  0.1520352E-008  0.3824117E+03  0.7957747E-01  0.3440724E+00
         13   -1    0    0    0    0  0.00000000000E+00  0.00000000000E+00  0.14999999963E+04  0.15000000000E+04  0.10566000000E+00 0. -1.
        994   -1    0    0    0    0 -0.00000000000E+00 -0.00000000000E+00  0.11368683772E-12  0.17120000000E+03  0.17120000000E+03 0.  0.
         13    1    1    2    0    0 -0.16904106499E+02  0.10523085711E+02  0.70292084067E+02  0.73058007062E+02  0.10566000000E+00 0. -1.
        994    1    1    2    0    0  0.50373706349E+01  0.20589794826E+01  0.30188616671E+01  0.17131307021E+03  0.17120000000E+03 0.  0.
        998    1    1    2    0    0  0.11866735864E+02 -0.12582065194E+02  0.14266890505E+04  0.14268289227E+04  0.10000000000E+02 0. -1.
</event>
<event>
 5    1  0.1520352E-008  0.3741638E+03  0.7957747E-01  0.3476971E+00
         13   -1    0    0    0    0  0.00000000000E+00  0.00000000000E+00  0.14999999963E+04  0.15000000000E+04  0.10566000000E+00 0.  1.
        994   -1    0    0    0    0 -0.00000000000E+00 -0.00000000000E+00  0.11368683772E-12  0.17120000000E+03  0.17120000000E+03 0.  0.
         13    1    1    2    0    0 -0.88796540147E+01 -0.15830487086E+02  0.19837849953E+02  0.26888734288E+02  0.10566000000E+00 0.  1.
        994    1    1    2    0    0  0.73240469633E+01  0.17463239527E+02  0.83321385316E+01  0.17244555933E+03  0.17120000000E+03 0.  0.
        998    1    1    2    0    0  0.15556070514E+01 -0.16327524417E+01  0.14718300078E+04  0.14718657064E+04  0.10000000000E+02 0.  1.
</event>
<event>
 5    1  0.1520352E-008  0.3774840E+03  0.7957747E-01  0.3462187E+00
         13   -1    0    0    0    0  0.00000000000E+00  0.00000000000E+00  0.14999999963E+04  0.15000000000E+04  0.10566000000E+00 0. -1.
        994   -1    0    0    0    0 -0.00000000000E+00 -0.00000000000E+00  0.11368683772E-12  0.17120000000E+03  0.17120000000E+03 0.  0.
         13    1    1    2    0    0 -0.27677012720E+01  0.34747589023E+02  0.34188890684E+02  0.48825674839E+02  0.10566000000E+00 0. -1.
        994    1    1    2    0    0 -0.20580303708E+02 -0.33082961241E+02  0.20422125340E+02  0.17676123565E+03  0.17120000000E+03 0.  0.
        998    1    1    2    0    0  0.23348004980E+02 -0.16646277828E+01  0.14453889803E+04  0.14456130895E+04  0.10000000000E+02 0. -1.
</event>
<event>
 5    1  0.1520352E-008  0.3773458E+03  0.7957747E-01  0.3462798E+00
         13   -1    0    0    0    0  0.00000000000E+00  0.00000000000E+00  0.14999999963E+04  0.15000000000E+04  0.10566000000E+00 0. -1.
        994   -1    0    0    0    0 -0.00000000000E+00 -0.00000000000E+00  0.11368683772E-12  0.17120000000E+03  0.17120000000E+03 0.  0.
         13    1    1    2    0    0  0.10411463922E+02 -0.29523868280E+01  0.81166659839E+01  0.13527993188E+02  0.10566000000E+00 0. -1.
        994    1    1    2    0    0 -0.15675478555E+02 -0.10058210568E+02  0.66497677602E+01  0.17233846825E+03  0.17120000000E+03 0.  0.
        998    1    1    2    0    0  0.52640146336E+01  0.13010597396E+02  0.14852335625E+04  0.14853335386E+04  0.10000000000E+02 0. -1.
</event>
<event>
 5    1  0.1520352E-008  0.3725447E+03  0.7957747E-01  0.3484277E+00
         13   -1    0    0    0    0  0.00000000000E+00  0.00000000000E+00  0.14999999963E+04  0.15000000000E+04  0.10566000000E+00 0.  1.
        994   -1    0    0    0    0 -0.00000000000E+00 -0.00000000000E+00  0.11368683772E-12  0.17120000000E+03  0.17120000000E+03 0.  0.
         13    1    1    2    0    0  0.21727002738E+02 -0.55570199172E+02  0.30943796767E+03  0.31513802798E+03  0.10566000000E+00 0.  1.
        994    1    1    2    0    0  0.10681546951E+03 -0.34143037320E+02  0.58080297807E+02  0.21273940048E+03  0.17120000000E+03 0.  0.
        998    1    1    2    0    0 -0.12854247225E+03  0.89713236492E+02  0.11324817308E+04  0.11433225715E+04  0.10000000000E+02 0.  1.
</event>
<event>
 5    1  0.1520352E-008  0.3849833E+03  0.7957747E-01  0.3429743E+00
         13   -1    0    0    0    0  0.00000000000E+00  0.00000000000E+00  0.14999999963E+04  0.15000000000E+04  0.10566000000E+00 0. -1.
        994   -1    0    0    0    0 -0.00000000000E+00 -0.00000000000E+00  0.11368683772E-12  0.17120000000E+03  0.17120000000E+03 0.  0.
         13    1    1    2    0    0  0.12842031746E+02  0.20561766739E+00  0.49308639077E+02  0.50954029376E+02  0.10566000000E+00 0. -1.
        994    1    1    2    0    0 -0.12087815482E+02 -0.21419988253E+01  0.21342365299E+01  0.17165284270E+03  0.17120000000E+03 0.  0.
        998    1    1    2    0    0 -0.75421626348E+00  0.19363811579E+01  0.14485571207E+04  0.14485931279E+04  0.10000000000E+02 0. -1.
</event>
<event>
 5    1  0.1520352E-008  0.3846804E+03  0.7957747E-01  0.3431029E+00
         13   -1    0    0    0    0  0.00000000000E+00  0.00000000000E+00  0.14999999963E+04  0.15000000000E+04  0.10566000000E+00 0.  1.
        994   -1    0    0    0    0 -0.00000000000E+00 -0.00000000000E+00  0.11368683772E-12  0.17120000000E+03  0.17120000000E+03 0.  0.
         13    1    1    2    0    0 -0.89371354560E+01  0.53972196978E+01  0.29288546729E+02  0.31093930342E+02  0.10566000000E+00 0.  1.
        994    1    1    2    0    0  0.12224606474E+02 -0.63110365219E+01  0.24122213223E+01  0.17176882429E+03  0.17120000000E+03 0.  0.
        998    1    1    2    0    0 -0.32874710179E+01  0.91381682413E+00  0.14682992282E+04  0.14683372454E+04  0.10000000000E+02 0.  1.
</event>
<event>
 5    1  0.1520352E-008  0.3839685E+03  0.7957747E-01  0.3434059E+00
         13   -1    0    0    0    0  0.00000000000E+00  0.00000000000E+00  0.14999999963E+04  0.15000000000E+04  0.10566000000E+00 0. -1.
        994   -1    0    0    0    0 -0.00000000000E+00 -0.00000000000E+00  0.11368683772E-12  0.17120000000E+03  0.17120000000E+03 0.  0.
         13    1    1    2    0    0  0.96898516744E+01 -0.42060051885E+01  0.25687708881E+02  0.27775047376E+02  0.10566000000E+00 0. -1.
        994    1    1    2    0    0  0.51580722260E+00  0.11589957042E+02  0.25873576866E+01  0.17161214287E+03  0.17120000000E+03 0.  0.
        998    1    1    2    0    0 -0.10205658897E+02 -0.73839518538E+01  0.14717249297E+04  0.14718128098E+04  0.10000000000E+02 0. -1.
</event>
<event>
 5    1  0.1520352E-008  0.3810975E+03  0.7957747E-01  0.3446394E+00
         13   -1    0    0    0    0  0.00000000000E+00  0.00000000000E+00  0.14999999963E+04  0.15000000000E+04  0.10566000000E+00 0. -1.
        994   -1    0    0    0    0 -0.00000000000E+00 -0.00000000000E+00  0.11368683772E-12  0.17120000000E+03  0.17120000000E+03 0.  0.
         13    1    1    2    0    0  0.24881861676E+02 -0.23086074096E+02  0.18479561627E+03  0.18788694689E+03  0.10566000000E+00 0. -1.
        994    1    1    2    0    0  0.16211655175E+01  0.32451009263E+01  0.36239851805E+01  0.17127677054E+03  0.17120000000E+03 0.  0.
        998    1    1    2    0    0 -0.26503027194E+02  0.19840973170E+02  0.13115803948E+04  0.13120362826E+04  0.10000000000E+02 0. -1.
</event>
<event>
 5    1  0.1520352E-008  0.3813620E+03  0.7957747E-01  0.3445249E+00
         13   -1    0    0    0    0  0.00000000000E+00  0.00000000000E+00  0.14999999963E+04  0.15000000000E+04  0.10566000000E+00 0. -1.
        994   -1    0    0    0    0 -0.00000000000E+00 -0.00000000000E+00  0.11368683772E-12  0.17120000000E+03  0.17120000000E+03 0.  0.
         13    1    1    2    0    0 -0.19017133663E+01 -0.10592080376E+02  0.15277979582E+02  0.18687870520E+02  0.10566000000E+00 0. -1.
        994    1    1    2    0    0 -0.25198870665E+01  0.10223426676E+02  0.38162370749E+01  0.17156594053E+03  0.17120000000E+03 0.  0.
        998    1    1    2    0    0  0.44216004328E+01  0.36865369983E+00  0.14809057796E+04  0.14809461890E+04  0.10000000000E+02 0. -1.
</event>
<event>
 5    1  0.1520352E-008  0.3803042E+03  0.7957747E-01  0.3449835E+00
         13   -1    0    0    0    0  0.00000000000E+00  0.00000000000E+00  0.14999999963E+04  0.15000000000E+04  0.10566000000E+00 0.  1.
        994   -1    0    0    0    0 -0.00000000000E+00 -0.00000000000E+00  0.11368683772E-12  0.17120000000E+03  0.17120000000E+03 0.  0.
         13    1    1    2    0    0 -0.29405484639E+00  0.12817817572E+02  0.18143987726E+02  0.22217073844E+02  0.10566000000E+00 0.  1.
        994    1    1    2    0    0 -0.12988490748E+02 -0.26310463282E+02  0.68601418248E+01  0.17383165108E+03  0.17120000000E+03 0.  0.
        998    1    1    2    0    0  0.13282545594E+02  0.13492645710E+02  0.14749958667E+04  0.14751512751E+04  0.10000000000E+02 0.  1.
</event>
<event>
 5    1  0.1542036E-008  0.3860448E+03  0.7957747E-01  0.3425253E+00
         13   -1    0    0    0    0  0.00000000000E+00  0.00000000000E+00  0.14999999963E+04  0.15000000000E+04  0.10566000000E+00 0. -1.
        994   -1    0    0    0    0 -0.00000000000E+00 -0.00000000000E+00  0.11368683772E-12  0.17120000000E+03  0.17120000000E+03 0.  0.
         13    1    1    2    0    0  0.70467344215E+01  0.10971545311E+02  0.73342435878E+02  0.74492652907E+02  0.10566000000E+00 0. -1.
        994    1    1    2    0    0 -0.61445414725E+01 -0.14218191298E+02  0.18990311057E+01  0.17190973990E+03  0.17120000000E+03 0.  0.
        998    1    1    2    0    0 -0.90219294895E+00  0.32466459871E+01  0.14247585293E+04  0.14247976072E+04  0.10000000000E+02 0. -1.
</event>
<event>
 5    1  0.1687665E-008  0.3862399E+03  0.7957747E-01  0.3424430E+00
         13   -1    0    0    0    0  0.00000000000E+00  0.00000000000E+00  0.14999999963E+04  0.15000000000E+04  0.10566000000E+00 0. -1.
        994   -1    0    0    0    0 -0.00000000000E+00 -0.00000000000E+00  0.11368683772E-12  0.17120000000E+03  0.17120000000E+03 0.  0.
         13    1    1    2    0    0  0.30017355860E+01  0.11083254121E+02  0.65380934805E+02  0.66381674719E+02  0.10566000000E+00 0. -1.
        994    1    1    2    0    0 -0.12279251242E+01 -0.87045233895E+01  0.12689290005E+01  0.17143023861E+03  0.17120000000E+03 0.  0.
        998    1    1    2    0    0 -0.17738104618E+01 -0.23787307315E+01  0.14333501325E+04  0.14333880867E+04  0.10000000000E+02 0. -1.
</event>
<event>
 5    1  0.1520352E-008  0.3850451E+03  0.7957747E-01  0.3429481E+00
         13   -1    0    0    0    0  0.00000000000E+00  0.00000000000E+00  0.14999999963E+04  0.15000000000E+04  0.10566000000E+00 0.  1.
        994   -1    0    0    0    0 -0.00000000000E+00 -0.00000000000E+00  0.11368683772E-12  0.17120000000E+03  0.17120000000E+03 0.  0.
         13    1    1    2    0    0  0.45360927962E+01  0.12641571959E+02  0.55128721641E+02  0.56741277684E+02  0.10566000000E+00 0.  1.
        994    1    1    2    0    0  0.31406682922E+00 -0.12789132045E+02  0.21460970587E+01  0.17169072855E+03  0.17120000000E+03 0.  0.
        998    1    1    2    0    0 -0.48501596254E+01  0.14756008571E+00  0.14427251776E+04  0.14427679938E+04  0.10000000000E+02 0.  1.
</event>
<event>
 5    1  0.1520352E-008  0.3845932E+03  0.7957747E-01  0.3431399E+00
         13   -1    0    0    0    0  0.00000000000E+00  0.00000000000E+00  0.14999999963E+04  0.15000000000E+04  0.10566000000E+00 0.  1.
        994   -1    0    0    0    0 -0.00000000000E+00 -0.00000000000E+00  0.11368683772E-12  0.17120000000E+03  0.17120000000E+03 0.  0.
         13    1    1    2    0    0  0.15023702006E+02  0.50091876294E+00  0.59120720697E+02  0.61001912440E+02  0.10566000000E+00 0.  1.
        994    1    1    2    0    0 -0.16715835432E+02 -0.86657247658E+00  0.27553712114E+01  0.17203837413E+03  0.17120000000E+03 0.  0.
        998    1    1    2    0    0  0.16921334263E+01  0.36565371364E+00  0.14381239044E+04  0.14381597134E+04  0.10000000000E+02 0.  1.
</event>
<event>
 5    1  0.1520352E-008  0.3823981E+03  0.7957747E-01  0.3440783E+00
         13   -1    0    0    0    0  0.00000000000E+00  0.00000000000E+00  0.14999999963E+04  0.15000000000E+04  0.10566000000E+00 0.  1.
        994   -1    0    0    0    0 -0.00000000000E+00 -0.00000000000E+00  0.11368683772E-12  0.17120000000E+03  0.17120000000E+03 0.  0.
         13    1    1    2    0    0  0.21101888414E+02 -0.12776340323E+02  0.93730110008E+02  0.96921975077E+02  0.10566000000E+00 0.  1.
        994    1    1    2    0    0 -0.23352610759E+02  0.22812701116E+02  0.64702648745E+01  0.17440489698E+03  0.17120000000E+03 0.  0.
        998    1    1    2    0    0  0.22507223460E+01 -0.10036360793E+02  0.13997996214E+04  0.13998731279E+04  0.10000000000E+02 0.  1.
</event>
<event>
 5    1  0.1520352E-008  0.3729876E+03  0.7957747E-01  0.3482272E+00
         13   -1    0    0    0    0  0.00000000000E+00  0.00000000000E+00  0.14999999963E+04  0.15000000000E+04  0.10566000000E+00 0.  1.
        994   -1    0    0    0    0 -0.00000000000E+00 -0.00000000000E+00  0.11368683772E-12  0.17120000000E+03  0.17120000000E+03 0.  0.
         13    1    1    2    0    0 -0.12127036439E+02 -0.39986138153E+02  0.10665742360E+03  0.11455030960E+03  0.10566000000E+00 0.  1.
        994    1    1    2    0    0  0.10248874185E+02  0.32513967799E+02  0.11703731025E+02  0.17495317901E+03  0.17120000000E+03 0.  0.
        998    1    1    2    0    0  0.18781622533E+01  0.74721703539E+01  0.13816388417E+04  0.13816965114E+04  0.10000000000E+02 0.  1.
</event>
<event>
 5    1  0.1520352E-008  0.3795498E+03  0.7957747E-01  0.3453121E+00
         13   -1    0    0    0    0  0.00000000000E+00  0.00000000000E+00  0.14999999963E+04  0.15000000000E+04  0.10566000000E+00 0. -1.
        994   -1    0    0    0    0 -0.00000000000E+00 -0.00000000000E+00  0.11368683772E-12  0.17120000000E+03  0.17120000000E+03 0.  0.
         13    1    1    2    0    0  0.20475597998E+02 -0.58914849316E+01  0.48422878215E+02  0.52903175772E+02  0.10566000000E+00 0. -1.
        994    1    1    2    0    0 -0.27972158892E+02 -0.67177884604E+01  0.71361503250E+01  0.17374675535E+03  0.17120000000E+03 0.  0.
        998    1    1    2    0    0  0.74965608937E+01  0.12609273392E+02  0.14444409677E+04  0.14445500689E+04  0.10000000000E+02 0. -1.
</event>
<event>
 5    1  0.1520352E-008  0.3830287E+03  0.7957747E-01  0.3438076E+00
         13   -1    0    0    0    0  0.00000000000E+00  0.00000000000E+00  0.14999999963E+04  0.15000000000E+04  0.10566000000E+00 0.  1.
        994   -1    0    0    0    0 -0.00000000000E+00 -0.00000000000E+00  0.11368683772E-12  0.17120000000E+03  0.17120000000E+03 0.  0.
         13    1    1    2    0    0  0.57122993084E+01  0.12068209548E+02  0.34114183903E+02  0.36634147356E+02  0.10566000000E+00 0.  1.
        994    1    1    2    0    0 -0.29234501245E+00 -0.26476167668E+01  0.26354949122E+01  0.17124100319E+03  0.17120000000E+03 0.  0.
        998    1    1    2    0    0 -0.54199542959E+01 -0.94205927809E+01  0.14632503175E+04  0.14633248495E+04  0.10000000000E+02 0.  1.
</event>
<event>
 5    1  0.1520352E-008  0.3815249E+03  0.7957747E-01  0.3444545E+00
         13   -1    0    0    0    0  0.00000000000E+00  0.00000000000E+00  0.14999999963E+04  0.15000000000E+04  0.10566000000E+00 0. -1.
        994   -1    0    0    0    0 -0.00000000000E+00 -0.00000000000E+00  0.11368683772E-12  0.17120000000E+03  0.17120000000E+03 0.  0.
         13    1    1    2    0    0  0.23946988087E+01  0.21428703927E+02  0.64747599127E+02  0.68243583516E+02  0.10566000000E+00 0. -1.
        994    1    1    2    0    0 -0.67300383957E+01 -0.23697100735E+02  0.53864221088E+01  0.17304710209E+03  0.17120000000E+03 0.  0.
        998    1    1    2    0    0  0.43353395870E+01  0.22683968082E+01  0.14298659750E+04  0.14299093144E+04  0.10000000000E+02 0. -1.
</event>
<event>
 5    1  0.1520352E-008  0.3841915E+03  0.7957747E-01  0.3433108E+00
         13   -1    0    0    0    0  0.00000000000E+00  0.00000000000E+00  0.14999999963E+04  0.15000000000E+04  0.10566000000E+00 0. -1.
        994   -1    0    0    0    0 -0.00000000000E+00 -0.00000000000E+00  0.11368683772E-12  0.17120000000E+03  0.17120000000E+03 0.  0.
         13    1    1    2    0    0 -0.46535130654E+01  0.18224882395E+02  0.83341406694E+02  0.85437712726E+02  0.10566000000E+00 0. -1.
        994    1    1    2    0    0  0.97422228077E+01 -0.16319314307E+02  0.32240572138E+01  0.17228193599E+03  0.17120000000E+03 0.  0.
        998    1    1    2    0    0 -0.50887097422E+01 -0.19055680878E+01  0.14134345324E+04  0.14134803513E+04  0.10000000000E+02 0. -1.
</event>
<event>
 5    1  0.1520352E-008  0.3775762E+03  0.7957747E-01  0.3461781E+00
         13   -1    0    0    0    0  0.00000000000E+00  0.00000000000E+00  0.14999999963E+04  0.15000000000E+04  0.10566000000E+00 0.  1.
        994   -1    0    0    0    0 -0.00000000000E+00 -0.00000000000E+00  0.11368683772E-12  0.17120000000E+03  0.17120000000E+03 0.  0.
         13    1    1    2    0    0  0.70909658805E+00 -0.10729873285E+02  0.83748947543E+01  0.13630224682E+02  0.10566000000E+00 0.  1.
        994    1    1    2    0    0 -0.92877820178E+00  0.68201315863E+01  0.55213812292E+01  0.17142725126E+03  0.17120000000E+03 0.  0.
        998    1    1    2    0    0  0.21968161373E+00  0.39097416990E+01  0.14861037203E+04  0.14861425241E+04  0.10000000000E+02 0.  1.
</event>
<event>
 5    1  0.1520352E-008  0.3705659E+03  0.7957747E-01  0.3493294E+00
         13   -1    0    0    0    0  0.00000000000E+00  0.00000000000E+00  0.14999999963E+04  0.15000000000E+04  0.10566000000E+00 0.  1.
        994   -1    0    0    0    0 -0.00000000000E+00 -0.00000000000E+00  0.11368683772E-12  0.17120000000E+03  0.17120000000E+03 0.  0.
         13    1    1    2    0    0  0.34658268091E+02  0.91364841922E+01  0.55613070626E+02  0.66162645646E+02  0.10566000000E+00 0.  1.
        994    1    1    2    0    0 -0.11547860510E+02  0.18995899453E+02  0.12971350485E+02  0.17312392443E+03  0.17120000000E+03 0.  0.
        998    1    1    2    0    0 -0.23110407581E+02 -0.28132383645E+02  0.14314155752E+04  0.14319134299E+04  0.10000000000E+02 0.  1.
</event>
<event>
 5    1  0.1520352E-008  0.3825088E+03  0.7957747E-01  0.3440307E+00
         13   -1    0    0    0    0  0.00000000000E+00  0.00000000000E+00  0.14999999963E+04  0.15000000000E+04  0.10566000000E+00 0. -1.
        994   -1    0    0    0    0 -0.00000000000E+00 -0.00000000000E+00  0.11368683772E-12  0.17120000000E+03  0.17120000000E+03 0.  0.
         13    1    1    2    0    0 -0.21627752707E+02 -0.11736505540E+02  0.11001784941E+03  0.11273616812E+03  0.10566000000E+00 0. -1.
        994    1    1    2    0    0  0.94708312364E+01 -0.24779302627E+01  0.31898274523E+01  0.17150933439E+03  0.17120000000E+03 0.  0.
        998    1    1    2    0    0  0.12156921470E+02  0.14214435803E+02  0.13867923194E+04  0.13869544975E+04  0.10000000000E+02 0. -1.
</event>
<event>
 5    1  0.1520352E-008  0.3851573E+03  0.7957747E-01  0.3429005E+00
         13   -1    0    0    0    0  0.00000000000E+00  0.00000000000E+00  0.14999999963E+04  0.15000000000E+04  0.10566000000E+00 0.  1.
        994   -1    0    0    0    0 -0.00000000000E+00 -0.00000000000E+00  0.11368683772E-12  0.17120000000E+03  0.17120000000E+03 0.  0.
         13    1    1    2    0    0  0.13001944397E+02  0.75267155044E+01  0.70035728457E+02  0.71629019460E+02  0.10566000000E+00 0.  1.
        994    1    1    2    0    0 -0.11588729859E+02 -0.11445487295E+02  0.24245536376E+01  0.17199016338E+03  0.17120000000E+03 0.  0.
        998    1    1    2    0    0 -0.14132145387E+01  0.39187717905E+01  0.14275397142E+04  0.14275808172E+04  0.10000000000E+02 0.  1.
</event>
<event>
 5    1  0.1520352E-008  0.3853641E+03  0.7957747E-01  0.3428130E+00
         13   -1    0    0    0    0  0.00000000000E+00  0.00000000000E+00  0.14999999963E+04  0.15000000000E+04  0.10566000000E+00 0. -1.
        994   -1    0    0    0    0 -0.00000000000E+00 -0.00000000000E+00  0.11368683772E-12  0.17120000000E+03  0.17120000000E+03 0.  0.
         13    1    1    2    0    0 -0.91444008456E+01  0.55486600204E+01  0.37893258475E+02  0.39374076456E+02  0.10566000000E+00 0. -1.
        994    1    1    2    0    0  0.97605332445E+01 -0.13515004392E+02  0.23629396728E+01  0.17202600628E+03  0.17120000000E+03 0.  0.
        998    1    1    2    0    0 -0.61613239886E+00  0.79663443718E+01  0.14597437981E+04  0.14597999173E+04  0.10000000000E+02 0. -1.
</event>
<event>
 5    1  0.1520352E-008  0.3852836E+03  0.7957747E-01  0.3428470E+00
         13   -1    0    0    0    0  0.00000000000E+00  0.00000000000E+00  0.14999999963E+04  0.15000000000E+04  0.10566000000E+00 0.  1.
        994   -1    0    0    0    0 -0.00000000000E+00 -0.00000000000E+00  0.11368683772E-12  0.17120000000E+03  0.17120000000E+03 0.  0.
         13    1    1    2    0    0  0.14258380738E+02  0.40693076136E+01  0.73786377146E+02  0.75261552616E+02  0.10566000000E+00 0.  1.
        994    1    1    2    0    0 -0.95830806213E+01 -0.35357967172E+01  0.18322870667E+01  0.17151424013E+03  0.17120000000E+03 0.  0.
        998    1    1    2    0    0 -0.46753001169E+01 -0.53351089639E+00  0.14243813321E+04  0.14244242073E+04  0.10000000000E+02 0.  1.
</event>
<event>
 5    1  0.1520352E-008  0.3856145E+03  0.7957747E-01  0.3427070E+00
         13   -1    0    0    0    0  0.00000000000E+00  0.00000000000E+00  0.14999999963E+04  0.15000000000E+04  0.10566000000E+00 0.  1.
        994   -1    0    0    0    0 -0.00000000000E+00 -0.00000000000E+00  0.11368683772E-12  0.17120000000E+03  0.17120000000E+03 0.  0.
         13    1    1    2    0    0 -0.56849999434E+01 -0.12344811355E+02  0.72553548639E+02  0.73815595750E+02  0.10566000000E+00 0.  1.
        994    1    1    2    0    0 -0.33179450700E+01  0.64271710793E+01  0.14970728300E+01  0.17135926737E+03  0.17120000000E+03 0.  0.
        998    1    1    2    0    0  0.90029450134E+01  0.59176402759E+01  0.14259493748E+04  0.14260251369E+04  0.10000000000E+02 0.  1.
</event>
<event>
 5    1  0.1520352E-008  0.3849952E+03  0.7957747E-01  0.3429692E+00
         13   -1    0    0    0    0  0.00000000000E+00  0.00000000000E+00  0.14999999963E+04  0.15000000000E+04  0.10566000000E+00 0.  1.
        994   -1    0    0    0    0 -0.00000000000E+00 -0.00000000000E+00  0.11368683772E-12  0.17120000000E+03  0.17120000000E+03 0.  0.
         13    1    1    2    0    0 -0.10735631744E+02 -0.43547566671E+01  0.42059376992E+02  0.43625910323E+02  0.10566000000E+00 0.  1.
        994    1    1    2    0    0 -0.24387043564E+01  0.13876971786E+02  0.22856446062E+01  0.17179400978E+03  0.17120000000E+03 0.  0.
        998    1    1    2    0    0  0.13174336100E+02 -0.95222151190E+01  0.14556549747E+04  0.14557800799E+04  0.10000000000E+02 0.  1.
</event>
<event>
 5    1  0.1520352E-008  0.3835532E+03  0.7957747E-01  0.3435831E+00
         13   -1    0    0    0    0  0.00000000000E+00  0.00000000000E+00  0.14999999963E+04  0.15000000000E+04  0.10566000000E+00 0.  1.
        994   -1    0    0    0    0 -0.00000000000E+00 -0.00000000000E+00  0.11368683772E-12  0.17120000000E+03  0.17120000000E+03 0.  0.
         13    1    1    2    0    0  0.91596799496E+01 -0.17961253855E+02  0.92685516458E+02  0.94853162846E+02  0.10566000000E+00 0.  1.
        994    1    1    2    0    0 -0.16414089080E+02 -0.68466329071E+01  0.33959450476E+01  0.17215478833E+03  0.17120000000E+03 0.  0.
        998    1    1    2    0    0  0.72544091306E+01  0.24807886763E+02  0.14039185348E+04  0.14041920488E+04  0.10000000000E+02 0.  1.
</event>
<event>
 5    1  0.1520352E-008  0.3850937E+03  0.7957747E-01  0.3429275E+00
         13   -1    0    0    0    0  0.00000000000E+00  0.00000000000E+00  0.14999999963E+04  0.15000000000E+04  0.10566000000E+00 0.  1.
        994   -1    0    0    0    0 -0.00000000000E+00 -0.00000000000E+00  0.11368683772E-12  0.17120000000E+03  0.17120000000E+03 0.  0.
         13    1    1    2    0    0  0.10036311060E+02 -0.11211209882E+02  0.73457561344E+02  0.74982953058E+02  0.10566000000E+00 0.  1.
        994    1    1    2    0    0 -0.27146487611E+01  0.57306531800E+01  0.17158173430E+01  0.17132598674E+03  0.17120000000E+03 0.  0.
        998    1    1    2    0    0 -0.73216622989E+01  0.54805567024E+01  0.14248266176E+04  0.14248910602E+04  0.10000000000E+02 0.  1.
</event>
<event>
 5    1  0.1520352E-008  0.3814866E+03  0.7957747E-01  0.3444711E+00
         13   -1    0    0    0    0  0.00000000000E+00  0.00000000000E+00  0.14999999963E+04  0.15000000000E+04  0.10566000000E+00 0.  1.
        994   -1    0    0    0    0 -0.00000000000E+00 -0.00000000000E+00  0.11368683772E-12  0.17120000000E+03  0.17120000000E+03 0.  0.
         13    1    1    2    0    0  0.13746489271E+02 -0.20731357742E+02  0.86686903038E+02  0.90185284185E+02  0.10566000000E+00 0.  1.
        994    1    1    2    0    0 -0.17016590991E+02  0.16585875799E+02  0.52652082200E+01  0.17292142164E+03  0.17120000000E+03 0.  0.
        998    1    1    2    0    0  0.32701017197E+01  0.41454819431E+01  0.14080478850E+04  0.14080932942E+04  0.10000000000E+02 0.  1.
</event>
<event>
 5    1  0.1520352E-008  0.3765330E+03  0.7957747E-01  0.3466395E+00
         13   -1    0    0    0    0  0.00000000000E+00  0.00000000000E+00  0.14999999963E+04  0.15000000000E+04  0.10566000000E+00 0.  1.
        994   -1    0    0    0    0 -0.00000000000E+00 -0.00000000000E+00  0.11368683772E-12  0.17120000000E+03  0.17120000000E+03 0.  0.
         13    1    1    2    0    0 -0.15033869962E+02  0.29760095530E+02  0.93488663744E+02  0.99256344606E+02  0.10566000000E+00 0.  1.
        994    1    1    2    0    0  0.49361244288E+01 -0.16864203915E+02  0.69384554269E+01  0.17223921987E+03  0.17120000000E+03 0.  0.
        998    1    1    2    0    0  0.10097745533E+02 -0.12895891615E+02  0.13995728771E+04  0.13997044355E+04  0.10000000000E+02 0.  1.
</event>
<event>
 5    1  0.1520352E-008  0.3781201E+03  0.7957747E-01  0.3459385E+00
         13   -1    0    0    0    0  0.00000000000E+00  0.00000000000E+00  0.14999999963E+04  0.15000000000E+04  0.10566000000E+00 0.  1.
        994   -1    0    0    0    0 -0.00000000000E+00 -0.00000000000E+00  0.11368683772E-12  0.17120000000E+03  0.17120000000E+03 0.  0.
         13    1    1    2    0    0 -0.26121992441E+02 -0.13431238057E+02  0.80466256479E+02  0.85659711887E+02  0.10566000000E+00 0.  1.
        994    1    1    2    0    0  0.27989254442E+02  0.14670434658E+01  0.77320999771E+01  0.17365130564E+03  0.17120000000E+03 0.  0.
        998    1    1    2    0    0 -0.18672620016E+01  0.11964194591E+02  0.14118016398E+04  0.14118889825E+04  0.10000000000E+02 0.  1.
</event>
<event>
 5    1  0.1520352E-008  0.3833237E+03  0.7957747E-01  0.3436813E+00
         13   -1    0    0    0    0  0.00000000000E+00  0.00000000000E+00  0.14999999963E+04  0.15000000000E+04  0.10566000000E+00 0.  1.
        994   -1    0    0    0    0 -0.00000000000E+00 -0.00000000000E+00  0.11368683772E-12  0.17120000000E+03  0.17120000000E+03 0.  0.
         13    1    1    2    0    0 -0.84475593539E+01 -0.11071882387E+02  0.36553455182E+02  0.39116672767E+02  0.10566000000E+00 0.  1.
        994    1    1    2    0    0  0.13312621244E+02  0.18684029628E+02  0.42069724199E+01  0.17278153103E+03  0.17120000000E+03 0.  0.
        998    1    1    2    0    0 -0.48650618903E+01 -0.76121472409E+01  0.14592395687E+04  0.14593017962E+04  0.10000000000E+02 0.  1.
</event>
<event>
 5    1  0.1520352E-008  0.3829779E+03  0.7957747E-01  0.3438294E+00
         13   -1    0    0    0    0  0.00000000000E+00  0.00000000000E+00  0.14999999963E+04  0.15000000000E+04  0.10566000000E+00 0.  1.
        994   -1    0    0    0    0 -0.00000000000E+00 -0.00000000000E+00  0.11368683772E-12  0.17120000000E+03  0.17120000000E+03 0.  0.
         13    1    1    2    0    0 -0.18761456190E+02  0.87065452014E+01  0.82312636918E+02  0.84871535441E+02  0.10566000000E+00 0.  1.
        994    1    1    2    0    0  0.89709889803E+01 -0.17165500291E+01  0.29136082808E+01  0.17146823117E+03  0.17120000000E+03 0.  0.
        998    1    1    2    0    0  0.97904672102E+01 -0.69899951723E+01  0.14147737511E+04  0.14148602334E+04  0.10000000000E+02 0.  1.
</event>
<event>
 5    1  0.1520352E-008  0.3699123E+03  0.7957747E-01  0.3496294E+00
         13   -1    0    0    0    0  0.00000000000E+00  0.00000000000E+00  0.14999999963E+04  0.15000000000E+04  0.10566000000E+00 0. -1.
        994   -1    0    0    0    0 -0.00000000000E+00 -0.00000000000E+00  0.11368683772E-12  0.17120000000E+03  0.17120000000E+03 0.  0.
         13    1    1    2    0    0 -0.59755521117E+02 -0.54006808121E+02  0.44924485289E+03  0.45640815794E+03  0.10566000000E+00 0. -1.
        994    1    1    2    0    0 -0.71990481197E+01  0.38800621120E+01  0.11126259768E+02  0.17175597466E+03  0.17120000000E+03 0.  0.
        998    1    1    2    0    0  0.66954569237E+02  0.50126746009E+02  0.10396288836E+04  0.10430358674E+04  0.10000000000E+02 0. -1.
</event>
<event>
 5    1  0.1520352E-008  0.3760562E+03  0.7957747E-01  0.3468513E+00
         13   -1    0    0    0    0  0.00000000000E+00  0.00000000000E+00  0.14999999963E+04  0.15000000000E+04  0.10566000000E+00 0.  1.
        994   -1    0    0    0    0 -0.00000000000E+00 -0.00000000000E+00  0.11368683772E-12  0.17120000000E+03  0.17120000000E+03 0.  0.
         13    1    1    2    0    0  0.10079735663E+02  0.11344715814E+02  0.17065396090E+02  0.22837306227E+02  0.10566000000E+00 0.  1.
        994    1    1    2    0    0 -0.58203239728E+01  0.24528034890E+02  0.82928760116E+01  0.17324466069E+03  0.17120000000E+03 0.  0.
        998    1    1    2    0    0 -0.42594116904E+01 -0.35872750704E+02  0.14746417242E+04  0.14751180331E+04  0.10000000000E+02 0.  1.
</event>
<event>
 5    1  0.1520352E-008  0.3713509E+03  0.7957747E-01  0.3489705E+00
         13   -1    0    0    0    0  0.00000000000E+00  0.00000000000E+00  0.14999999963E+04  0.15000000000E+04  0.10566000000E+00 0. -1.
        994   -1    0    0    0    0 -0.00000000000E+00 -0.00000000000E+00  0.11368683772E-12  0.17120000000E+03  0.17120000000E+03 0.  0.
         13    1    1    2    0    0  0.20265170598E+02  0.59893943422E+02  0.15661439860E+03  0.16889654410E+03  0.10566000000E+00 0. -1.
        994    1    1    2    0    0  0.38439152490E+02 -0.71954964049E+02  0.35414031119E+02  0.19292143192E+03  0.17120000000E+03 0.  0.
        998    1    1    2    0    0 -0.58704323087E+02  0.12061020627E+02  0.13079715666E+04  0.13093820240E+04  0.10000000000E+02 0. -1.
</event>
<event>
 5    1  0.1520352E-008  0.3822232E+03  0.7957747E-01  0.3441535E+00
         13   -1    0    0    0    0  0.00000000000E+00  0.00000000000E+00  0.14999999963E+04  0.15000000000E+04  0.10566000000E+00 0. -1.
        994   -1    0    0    0    0 -0.00000000000E+00 -0.00000000000E+00  0.11368683772E-12  0.17120000000E+03  0.17120000000E+03 0.  0.
         13    1    1    2    0    0 -0.57805761815E+02  0.17693133289E+03  0.11017146372E+04  0.11173277745E+04  0.10566000000E+00 0. -1.
        994    1    1    2    0    0  0.57257908021E+02 -0.17709949175E+03  0.12806385840E+03  0.28346514748E+03  0.17120000000E+03 0.  0.
        998    1    1    2    0    0  0.54785379392E+00  0.16815886253E+00  0.27022150067E+03  0.27040707802E+03  0.10000000000E+02 0.  0.
</event>
<event>
 5    1  0.1520352E-008  0.3829898E+03  0.7957747E-01  0.3438243E+00
         13   -1    0    0    0    0  0.00000000000E+00  0.00000000000E+00  0.14999999963E+04  0.15000000000E+04  0.10566000000E+00 0.  1.
        994   -1    0    0    0    0 -0.00000000000E+00 -0.00000000000E+00  0.11368683772E-12  0.17120000000E+03  0.17120000000E+03 0.  0.
         13    1    1    2    0    0  0.12571452485E+02 -0.44269837291E+01  0.32104637199E+02  0.34761451297E+02  0.10566000000E+00 0.  1.
        994    1    1    2    0    0 -0.14232446784E+02  0.61881191449E+01  0.34291457809E+01  0.17193619282E+03  0.17120000000E+03 0.  0.
        998    1    1    2    0    0  0.16609942992E+01 -0.17611354158E+01  0.14644662133E+04  0.14645023559E+04  0.10000000000E+02 0.  1.
</event>
<event>
 5    1  0.1520352E-008  0.3822200E+03  0.7957747E-01  0.3441549E+00
         13   -1    0    0    0    0  0.00000000000E+00  0.00000000000E+00  0.14999999963E+04  0.15000000000E+04  0.10566000000E+00 0. -1.
        994   -1    0    0    0    0 -0.00000000000E+00 -0.00000000000E+00  0.11368683772E-12  0.17120000000E+03  0.17120000000E+03 0.  0.
         13    1    1    2    0    0  0.27051198868E+02 -0.15318443152E+02  0.17070306086E+03  0.17351071498E+03  0.10566000000E+00 0. -1.
        994    1    1    2    0    0 -0.93627314003E+01  0.27849552655E+01  0.33333998741E+01  0.17151084009E+03  0.17120000000E+03 0.  0.
        998    1    1    2    0    0 -0.17688467468E+02  0.12533487887E+02  0.13259635355E+04  0.13261784449E+04  0.10000000000E+02 0. -1.
</event>
<event>
 5    1  0.1520352E-008  0.3855634E+03  0.7957747E-01  0.3427286E+00
         13   -1    0    0    0    0  0.00000000000E+00  0.00000000000E+00  0.14999999963E+04  0.15000000000E+04  0.10566000000E+00 0. -1.
        994   -1    0    0    0    0 -0.00000000000E+00 -0.00000000000E+00  0.11368683772E-12  0.17120000000E+03  0.17120000000E+03 0.  0.
         13    1    1    2    0    0 -0.42896455694E+01 -0.12194628405E+02  0.61581027821E+02  0.62923319783E+02  0.10566000000E+00 0. -1.
        994    1    1    2    0    0  0.82834763755E+01  0.78538128380E+01  0.17785400593E+01  0.17158933988E+03  0.17120000000E+03 0.  0.
        998    1    1    2    0    0 -0.39938308061E+01  0.43408155666E+01  0.14366404284E+04  0.14366873403E+04  0.10000000000E+02 0. -1.
</event>
<event>
 5    1  0.1520352E-008  0.3713994E+03  0.7957747E-01  0.3489484E+00
         13   -1    0    0    0    0  0.00000000000E+00  0.00000000000E+00  0.14999999963E+04  0.15000000000E+04  0.10566000000E+00 0. -1.
        994   -1    0    0    0    0 -0.00000000000E+00 -0.00000000000E+00  0.11368683772E-12  0.17120000000E+03  0.17120000000E+03 0.  0.
         13    1    1    2    0    0  0.76815744634E+01 -0.14317913547E+02  0.12061242970E+02  0.20235957615E+02  0.10566000000E+00 0. -1.
        994    1    1    2    0    0 -0.73156001480E+01 -0.70630732785E+01  0.88953608403E+01  0.17173226969E+03  0.17120000000E+03 0.  0.
        998    1    1    2    0    0 -0.36597431540E+00  0.21380986826E+02  0.14790433925E+04  0.14792317727E+04  0.10000000000E+02 0. -1.
</event>
<event>
 5    1  0.1520352E-008  0.3849758E+03  0.7957747E-01  0.3429775E+00
         13   -1    0    0    0    0  0.00000000000E+00  0.00000000000E+00  0.14999999963E+04  0.15000000000E+04  0.10566000000E+00 0.  1.
        994   -1    0    0    0    0 -0.00000000000E+00 -0.00000000000E+00  0.11368683772E-12  0.17120000000E+03  0.17120000000E+03 0.  0.
         13    1    1    2    0    0  0.18463040950E+02  0.34744918822E+01  0.10103170941E+03  0.10276367766E+03  0.10566000000E+00 0.  1.
        994    1    1    2    0    0 -0.19825368467E+02 -0.24522317461E+01  0.29556947374E+01  0.17238687539E+03  0.17120000000E+03 0.  0.
        998    1    1    2    0    0  0.13623275172E+01 -0.10222601362E+01  0.13960125921E+04  0.13960494470E+04  0.10000000000E+02 0.  1.
</event>
<event>
 5    1  0.1520352E-008  0.3785109E+03  0.7957747E-01  0.3457668E+00
         13   -1    0    0    0    0  0.00000000000E+00  0.00000000000E+00  0.14999999963E+04  0.15000000000E+04  0.10566000000E+00 0.  1.
        994   -1    0    0    0    0 -0.00000000000E+00 -0.00000000000E+00  0.11368683772E-12  0.17120000000E+03  0.17120000000E+03 0.  0.
         13    1    1    2    0    0  0.17663213601E+02  0.43980335377E+02  0.18989717825E+03  0.19572227387E+03  0.10566000000E+00 0.  1.
        994    1    1    2    0    0 -0.26476295681E+02 -0.49380758131E+02  0.15506962919E+02  0.18080198950E+03  0.17120000000E+03 0.  0.
        998    1    1    2    0    0  0.88130820802E+01  0.54004227542E+01  0.12945958551E+04  0.12946757366E+04  0.10000000000E+02 0.  1.
</event>
<event>
 5    1  0.1520352E-008  0.3840014E+03  0.7957747E-01  0.3433918E+00
         13   -1    0    0    0    0  0.00000000000E+00  0.00000000000E+00  0.14999999963E+04  0.15000000000E+04  0.10566000000E+00 0. -1.
        994   -1    0    0    0    0 -0.00000000000E+00 -0.00000000000E+00  0.11368683772E-12  0.17120000000E+03  0.17120000000E+03 0.  0.
         13    1    1    2    0    0 -0.20465683600E+02 -0.13223886026E+01  0.98937622144E+02  0.10104086874E+03  0.10566000000E+00 0. -1.
        994    1    1    2    0    0  0.11693446410E+02  0.97640695454E+01  0.28927951914E+01  0.17190079118E+03  0.17120000000E+03 0.  0.
        998    1    1    2    0    0  0.87722371902E+01 -0.84416809427E+01  0.13981695789E+04  0.13982583401E+04  0.10000000000E+02 0. -1.
</event>
<event>
 5    1  0.1520352E-008  0.3759322E+03  0.7957747E-01  0.3469064E+00
         13   -1    0    0    0    0  0.00000000000E+00  0.00000000000E+00  0.14999999963E+04  0.15000000000E+04  0.10566000000E+00 0.  1.
        994   -1    0    0    0    0 -0.00000000000E+00 -0.00000000000E+00  0.11368683772E-12  0.17120000000E+03  0.17120000000E+03 0.  0.
         13    1    1    2    0    0  0.95236396476E+01  0.36572460112E+01  0.50274733229E+01  0.11373733449E+02  0.10566000000E+00 0.  1.
        994    1    1    2    0    0 -0.60412039157E+01 -0.83155667472E+02  0.30132088236E+02  0.19279197058E+03  0.17120000000E+03 0.  0.
        998    1    1    2    0    0 -0.34824357319E+01  0.79498421461E+02  0.14648404347E+04  0.14670342960E+04  0.10000000000E+02 0.  1.
</event>
<event>
 5    1  0.1520352E-008  0.3761527E+03  0.7957747E-01  0.3468084E+00
         13   -1    0    0    0    0  0.00000000000E+00  0.00000000000E+00  0.14999999963E+04  0.15000000000E+04  0.10566000000E+00 0. -1.
        994   -1    0    0    0    0 -0.00000000000E+00 -0.00000000000E+00  0.11368683772E-12  0.17120000000E+03  0.17120000000E+03 0.  0.
         13    1    1    2    0    0  0.11787411109E+02  0.52750072698E+02  0.21301558586E+03  0.21976615802E+03  0.10566000000E+00 0. -1.
        994    1    1    2    0    0 -0.12985977498E+02 -0.46852950120E+02  0.14134334913E+02  0.17853026066E+03  0.17120000000E+03 0.  0.
        998    1    1    2    0    0  0.11985663889E+01 -0.58971225783E+01  0.12728500755E+04  0.12729035813E+04  0.10000000000E+02 0. -1.
</event>
<event>
 5    1  0.1520352E-008  0.3825803E+03  0.7957747E-01  0.3440000E+00
         13   -1    0    0    0    0  0.00000000000E+00  0.00000000000E+00  0.14999999963E+04  0.15000000000E+04  0.10566000000E+00 0. -1.
        994   -1    0    0    0    0 -0.00000000000E+00 -0.00000000000E+00  0.11368683772E-12  0.17120000000E+03  0.17120000000E+03 0.  0.
         13    1    1    2    0    0  0.42207613360E+00 -0.13759051466E+02  0.33178747281E+02  0.35921164802E+02  0.10566000000E+00 0. -1.
        994    1    1    2    0    0 -0.30344929887E+01  0.29442614658E+01  0.28955241140E+01  0.17127667933E+03  0.17120000000E+03 0.  0.
        998    1    1    2    0    0  0.26124168551E+01  0.10814790001E+02  0.14639257249E+04  0.14640021559E+04  0.10000000000E+02 0. -1.
</event>
<event>
 5    1  0.1520352E-008  0.3797606E+03  0.7957747E-01  0.3452202E+00
         13   -1    0    0    0    0  0.00000000000E+00  0.00000000000E+00  0.14999999963E+04  0.15000000000E+04  0.10566000000E+00 0. -1.
        994   -1    0    0    0    0 -0.00000000000E+00 -0.00000000000E+00  0.11368683772E-12  0.17120000000E+03  0.17120000000E+03 0.  0.
         13    1    1    2    0    0 -0.10207767004E+02  0.23081907000E+02  0.71757864278E+02  0.76066912569E+02  0.10566000000E+00 0. -1.
        994    1    1    2    0    0  0.50508210558E+01 -0.20611136740E+02  0.57620935030E+01  0.17260640623E+03  0.17120000000E+03 0.  0.
        998    1    1    2    0    0  0.51569459481E+01 -0.24707702598E+01  0.14224800385E+04  0.14225266812E+04  0.10000000000E+02 0. -1.
</event>
<event>
 5    1  0.1520352E-008  0.3857568E+03  0.7957747E-01  0.3426469E+00
         13   -1    0    0    0    0  0.00000000000E+00  0.00000000000E+00  0.14999999963E+04  0.15000000000E+04  0.10566000000E+00 0.  1.
        994   -1    0    0    0    0 -0.00000000000E+00 -0.00000000000E+00  0.11368683772E-12  0.17120000000E+03  0.17120000000E+03 0.  0.
         13    1    1    2    0    0 -0.13894511755E+02  0.57463408927E+01  0.88388601888E+02  0.89658429600E+02  0.10566000000E+00 0.  1.
        994    1    1    2    0    0  0.12491820230E+02 -0.37352945823E+01  0.18127626519E+01  0.17170534094E+03  0.17120000000E+03 0.  0.
        998    1    1    2    0    0  0.14026915252E+01 -0.20110463103E+01  0.14097986317E+04  0.14098362295E+04  0.10000000000E+02 0.  1.
</event>
<event>
 5    1  0.1520352E-008  0.3787804E+03  0.7957747E-01  0.3456486E+00
         13   -1    0    0    0    0  0.00000000000E+00  0.00000000000E+00  0.14999999963E+04  0.15000000000E+04  0.10566000000E+00 0.  1.
        994   -1    0    0    0    0 -0.00000000000E+00 -0.00000000000E+00  0.11368683772E-12  0.17120000000E+03  0.17120000000E+03 0.  0.
         13    1    1    2    0    0  0.22296641792E+02  0.54950173105E+02  0.28875256834E+03  0.29477910145E+03  0.10566000000E+00 0.  1.
        994    1    1    2    0    0 -0.23839921297E+02 -0.58665166447E+02  0.18329146533E+02  0.18345392123E+03  0.17120000000E+03 0.  0.
        998    1    1    2    0    0  0.15432795050E+01  0.37149933417E+01  0.11929182814E+04  0.11929669773E+04  0.10000000000E+02 0.  1.
</event>
<event>
 5    1  0.1520352E-008  0.3840415E+03  0.7957747E-01  0.3433748E+00
         13   -1    0    0    0    0  0.00000000000E+00  0.00000000000E+00  0.14999999963E+04  0.15000000000E+04  0.10566000000E+00 0. -1.
        994   -1    0    0    0    0 -0.00000000000E+00 -0.00000000000E+00  0.11368683772E-12  0.17120000000E+03  0.17120000000E+03 0.  0.
         13    1    1    2    0    0  0.89260586987E+01 -0.92022596522E+01  0.39766353900E+02  0.41781935967E+02  0.10566000000E+00 0. -1.
        994    1    1    2    0    0 -0.21398739375E+01 -0.10414511134E+00  0.21219108171E+01  0.17122655288E+03  0.17120000000E+03 0.  0.
        998    1    1    2    0    0 -0.67861847612E+01  0.93064047635E+01  0.14581117316E+04  0.14581915111E+04  0.10000000000E+02 0. -1.
</event>
<event>
 5    1  0.1520352E-008  0.3830084E+03  0.7957747E-01  0.3438163E+00
         13   -1    0    0    0    0  0.00000000000E+00  0.00000000000E+00  0.14999999963E+04  0.15000000000E+04  0.10566000000E+00 0.  1.
        994   -1    0    0    0    0 -0.00000000000E+00 -0.00000000000E+00  0.11368683772E-12  0.17120000000E+03  0.17120000000E+03 0.  0.
         13    1    1    2    0    0  0.65067017775E+01  0.27527829768E+02  0.13945988821E+03  0.14229964920E+03  0.10566000000E+00 0.  1.
        994    1    1    2    0    0 -0.49231160785E+01 -0.28054911834E+02  0.53122819930E+01  0.17363460338E+03  0.17120000000E+03 0.  0.
        998    1    1    2    0    0 -0.15835856990E+01  0.52708206622E+00  0.13552278261E+04  0.13552657474E+04  0.10000000000E+02 0.  0.
</event>
<event>
 5    1  0.1520352E-008  0.3722424E+03  0.7957747E-01  0.3485648E+00
         13   -1    0    0    0    0  0.00000000000E+00  0.00000000000E+00  0.14999999963E+04  0.15000000000E+04  0.10566000000E+00 0.  1.
        994   -1    0    0    0    0 -0.00000000000E+00 -0.00000000000E+00  0.11368683772E-12  0.17120000000E+03  0.17120000000E+03 0.  0.
         13    1    1    2    0    0  0.21700415399E+02  0.11678505097E+01  0.25300468180E+02  0.33352612453E+02  0.10566000000E+00 0.  1.
        994    1    1    2    0    0 -0.22899331819E+02  0.10911872022E+02  0.10312597524E+02  0.17337600185E+03  0.17120000000E+03 0.  0.
        998    1    1    2    0    0  0.11989164206E+01 -0.12079722532E+02  0.14643869306E+04  0.14644713857E+04  0.10000000000E+02 0.  1.
</event>
<event>
 5    1  0.1520352E-008  0.3821088E+03  0.7957747E-01  0.3442027E+00
         13   -1    0    0    0    0  0.00000000000E+00  0.00000000000E+00  0.14999999963E+04  0.15000000000E+04  0.10566000000E+00 0. -1.
        994   -1    0    0    0    0 -0.00000000000E+00 -0.00000000000E+00  0.11368683772E-12  0.17120000000E+03  0.17120000000E+03 0.  0.
         13    1    1    2    0    0 -0.22503936550E+02  0.64625893174E+02  0.12118795261E+03  0.13917422265E+03  0.10566000000E+00 0. -1.
        994    1    1    2    0    0  0.20020617099E+02 -0.58415733917E+02  0.31550893600E+02  0.18471091458E+03  0.17120000000E+03 0.  0.
        998    1    1    2    0    0  0.24833194508E+01 -0.62101592573E+01  0.13472611501E+04  0.13473148628E+04  0.10000000000E+02 0.  0.
</event>
<event>
 5    1  0.1520352E-008  0.3843277E+03  0.7957747E-01  0.3432528E+00
         13   -1    0    0    0    0  0.00000000000E+00  0.00000000000E+00  0.14999999963E+04  0.15000000000E+04  0.10566000000E+00 0.  1.
        994   -1    0    0    0    0 -0.00000000000E+00 -0.00000000000E+00  0.11368683772E-12  0.17120000000E+03  0.17120000000E+03 0.  0.
         13    1    1    2    0    0  0.44347197784E+01 -0.20823570316E+02  0.11117485897E+03  0.11319517768E+03  0.10566000000E+00 0.  1.
        994    1    1    2    0    0 -0.24639828192E+01  0.17728819958E+02  0.30209103146E+01  0.17215965894E+03  0.17120000000E+03 0.  0.
        998    1    1    2    0    0 -0.19707369593E+01  0.30947503573E+01  0.13858042270E+04  0.13858451634E+04  0.10000000000E+02 0.  1.
</event>
<event>
 5    1  0.1520352E-008  0.3813451E+03  0.7957747E-01  0.3445323E+00
         13   -1    0    0    0    0  0.00000000000E+00  0.00000000000E+00  0.14999999963E+04  0.15000000000E+04  0.10566000000E+00 0. -1.
        994   -1    0    0    0    0 -0.00000000000E+00 -0.00000000000E+00  0.11368683772E-12  0.17120000000E+03  0.17120000000E+03 0.  0.
         13    1    1    2    0    0 -0.43643431370E+02 -0.77375555678E+02  0.19692186833E+03  0.21603231034E+03  0.10566000000E+00 0. -1.
        994    1    1    2    0    0  0.38186656292E+02  0.79217311004E+02  0.45804477053E+02  0.19784108067E+03  0.17120000000E+03 0.  0.
        998    1    1    2    0    0  0.54567750779E+01 -0.18417553259E+01  0.12572736509E+04  0.12573266090E+04  0.10000000000E+02 0. -1.
</event>
<event>
 5    1  0.1520352E-008  0.3844492E+03  0.7957747E-01  0.3432012E+00
         13   -1    0    0    0    0  0.00000000000E+00  0.00000000000E+00  0.14999999963E+04  0.15000000000E+04  0.10566000000E+00 0. -1.
        994   -1    0    0    0    0 -0.00000000000E+00 -0.00000000000E+00  0.11368683772E-12  0.17120000000E+03  0.17120000000E+03 0.  0.
         13    1    1    2    0    0  0.20101698225E+02 -0.64249937981E+00  0.11227536789E+03  0.11406252880E+03  0.10566000000E+00 0. -1.
        994    1    1    2    0    0 -0.54436333695E+01 -0.42073200117E+01  0.20598210564E+01  0.17135056915E+03  0.17120000000E+03 0.  0.
        998    1    1    2    0    0 -0.14658064856E+02  0.48498193915E+01  0.13856648073E+04  0.13857869021E+04  0.10000000000E+02 0. -1.
</event>
<event>
 5    1  0.1520352E-008  0.3809932E+03  0.7957747E-01  0.3446845E+00
         13   -1    0    0    0    0  0.00000000000E+00  0.00000000000E+00  0.14999999963E+04  0.15000000000E+04  0.10566000000E+00 0.  1.
        994   -1    0    0    0    0 -0.00000000000E+00 -0.00000000000E+00  0.11368683772E-12  0.17120000000E+03  0.17120000000E+03 0.  0.
         13    1    1    2    0    0  0.10990608158E+01  0.12262218987E+02  0.19229499050E+02  0.22833193971E+02  0.10566000000E+00 0.  1.
        994    1    1    2    0    0 -0.31405262770E+01 -0.11088289418E+02  0.40752658160E+01  0.17163583792E+03  0.17120000000E+03 0.  0.
        998    1    1    2    0    0  0.20414654612E+01 -0.11739295681E+01  0.14766952314E+04  0.14767309681E+04  0.10000000000E+02 0.  1.
</event>
<event>
 5    1  0.1520352E-008  0.3812533E+03  0.7957747E-01  0.3445720E+00
         13   -1    0    0    0    0  0.00000000000E+00  0.00000000000E+00  0.14999999963E+04  0.15000000000E+04  0.10566000000E+00 0.  1.
        994   -1    0    0    0    0 -0.00000000000E+00 -0.00000000000E+00  0.11368683772E-12  0.17120000000E+03  0.17120000000E+03 0.  0.
         13    1    1    2    0    0  0.39795275369E+00 -0.11016731838E+02  0.16122189352E+02  0.19531075248E+02  0.10566000000E+00 0.  1.
        994    1    1    2    0    0  0.22174655232E+01  0.24488593715E+01  0.35381851339E+01  0.17126842330E+03  0.17120000000E+03 0.  0.
        998    1    1    2    0    0 -0.26154182769E+01  0.85678724668E+01  0.14803396218E+04  0.14804005015E+04  0.10000000000E+02 0.  1.
</event>
<event>
 5    1  0.1520352E-008  0.3773852E+03  0.7957747E-01  0.3462624E+00
         13   -1    0    0    0    0  0.00000000000E+00  0.00000000000E+00  0.14999999963E+04  0.15000000000E+04  0.10566000000E+00 0.  1.
        994   -1    0    0    0    0 -0.00000000000E+00 -0.00000000000E+00  0.11368683772E-12  0.17120000000E+03  0.17120000000E+03 0.  0.
         13    1    1    2    0    0 -0.61373357084E+02  0.44302803845E+02  0.25394776253E+03  0.26498849909E+03  0.10566000000E+00 0.  1.
        994    1    1    2    0    0 -0.11707046048E+02  0.70877724862E+01  0.15570859516E+02  0.17245052366E+03  0.17120000000E+03 0.  0.
        998    1    1    2    0    0  0.73080403132E+02 -0.51390576331E+02  0.12304813742E+04  0.12337609772E+04  0.10000000000E+02 0.  1.
</event>
<event>
 5    1  0.1520352E-008  0.3782233E+03  0.7957747E-01  0.3458931E+00
         13   -1    0    0    0    0  0.00000000000E+00  0.00000000000E+00  0.14999999963E+04  0.15000000000E+04  0.10566000000E+00 0. -1.
        994   -1    0    0    0    0 -0.00000000000E+00 -0.00000000000E+00  0.11368683772E-12  0.17120000000E+03  0.17120000000E+03 0.  0.
         13    1    1    2    0    0 -0.29016766781E+02  0.34684832370E+02  0.22230240288E+03  0.22685541616E+03  0.10566000000E+00 0. -1.
        994    1    1    2    0    0  0.12416840863E+02 -0.59883973096E+01  0.56719879111E+01  0.17184775322E+03  0.17120000000E+03 0.  0.
        998    1    1    2    0    0  0.16599925919E+02 -0.28696435060E+02  0.12720256055E+04  0.12724968306E+04  0.10000000000E+02 0. -1.
</event>
<event>
 5    1  0.1520352E-008  0.3801732E+03  0.7957747E-01  0.3450405E+00
         13   -1    0    0    0    0  0.00000000000E+00  0.00000000000E+00  0.14999999963E+04  0.15000000000E+04  0.10566000000E+00 0. -1.
        994   -1    0    0    0    0 -0.00000000000E+00 -0.00000000000E+00  0.11368683772E-12  0.17120000000E+03  0.17120000000E+03 0.  0.
         13    1    1    2    0    0 -0.48050578338E+02 -0.21725934559E+01  0.24513153422E+03  0.24980604171E+03  0.10566000000E+00 0. -1.
        994    1    1    2    0    0  0.47093802249E+02 -0.16344835557E+02  0.12393153257E+02  0.17874006296E+03  0.17120000000E+03 0.  0.
        998    1    1    2    0    0  0.95677608901E+00  0.18517429013E+02  0.12424753088E+04  0.12426538953E+04  0.10000000000E+02 0. -1.
</event>
<event>
 5    1  0.1576063E-008  0.3864358E+03  0.7957747E-01  0.3423605E+00
         13   -1    0    0    0    0  0.00000000000E+00  0.00000000000E+00  0.14999999963E+04  0.15000000000E+04  0.10566000000E+00 0. -1.
        994   -1    0    0    0    0 -0.00000000000E+00 -0.00000000000E+00  0.11368683772E-12  0.17120000000E+03  0.17120000000E+03 0.  0.
         13    1    1    2    0    0 -0.10185642591E+02 -0.22513546166E+01  0.60491119717E+02  0.61384058527E+02  0.10566000000E+00 0. -1.
        994    1    1    2    0    0  0.59299271770E+01  0.49707860828E+01  0.11149614217E+01  0.17137839972E+03  0.17120000000E+03 0.  0.
        998    1    1    2    0    0  0.42557154138E+01 -0.27194314662E+01  0.14383939151E+04  0.14384375418E+04  0.10000000000E+02 0. -1.
</event>
<event>
 5    1  0.1520352E-008  0.3862866E+03  0.7957747E-01  0.3424234E+00
         13   -1    0    0    0    0  0.00000000000E+00  0.00000000000E+00  0.14999999963E+04  0.15000000000E+04  0.10566000000E+00 0. -1.
        994   -1    0    0    0    0 -0.00000000000E+00 -0.00000000000E+00  0.11368683772E-12  0.17120000000E+03  0.17120000000E+03 0.  0.
         13    1    1    2    0    0 -0.60402641058E+02 -0.11701265010E+03  0.41219392648E+03  0.43271732519E+03  0.10566000000E+00 0. -1.
        994    1    1    2    0    0  0.42372487499E+02  0.75189173229E+02  0.48013480035E+02  0.19764507009E+03  0.17120000000E+03 0.  0.
        998    1    1    2    0    0  0.18030153560E+02  0.41823476875E+02  0.10397925898E+04  0.10408376047E+04  0.10000000000E+02 0.  0.
</event>
<event>
 5    1  0.1520352E-008  0.3701597E+03  0.7957747E-01  0.3495157E+00
         13   -1    0    0    0    0  0.00000000000E+00  0.00000000000E+00  0.14999999963E+04  0.15000000000E+04  0.10566000000E+00 0.  1.
        994   -1    0    0    0    0 -0.00000000000E+00 -0.00000000000E+00  0.11368683772E-12  0.17120000000E+03  0.17120000000E+03 0.  0.
         13    1    1    2    0    0 -0.40710722886E+02  0.29942100793E+02  0.11335889712E+03  0.12411342827E+03  0.10566000000E+00 0.  1.
        994    1    1    2    0    0  0.61952523317E+02  0.34807430203E+02  0.28902153011E+02  0.18760183046E+03  0.17120000000E+03 0.  0.
        998    1    1    2    0    0 -0.21241800431E+02 -0.64749530996E+02  0.13577389462E+04  0.13594847413E+04  0.10000000000E+02 0.  1.
</event>
<event>
 5    1  0.1520352E-008  0.3741199E+03  0.7957747E-01  0.3477168E+00
         13   -1    0    0    0    0  0.00000000000E+00  0.00000000000E+00  0.14999999963E+04  0.15000000000E+04  0.10566000000E+00 0. -1.
        994   -1    0    0    0    0 -0.00000000000E+00 -0.00000000000E+00  0.11368683772E-12  0.17120000000E+03  0.17120000000E+03 0.  0.
         13    1    1    2    0    0 -0.56951987724E+01  0.18668144437E+02  0.23109398007E+02  0.30248807349E+02  0.10566000000E+00 0. -1.
        994    1    1    2    0    0  0.35381569107E+01 -0.23697215608E+02  0.90910462085E+01  0.17310737622E+03  0.17120000000E+03 0.  0.
        998    1    1    2    0    0  0.21570418617E+01  0.50290711715E+01  0.14677995521E+04  0.14678438164E+04  0.10000000000E+02 0. -1.
</event>
<event>
 5    1  0.1520352E-008  0.3840072E+03  0.7957747E-01  0.3433894E+00
         13   -1    0    0    0    0  0.00000000000E+00  0.00000000000E+00  0.14999999963E+04  0.15000000000E+04  0.10566000000E+00 0. -1.
        994   -1    0    0    0    0 -0.00000000000E+00 -0.00000000000E+00  0.11368683772E-12  0.17120000000E+03  0.17120000000E+03 0.  0.
         13    1    1    2    0    0 -0.11021586626E+02  0.87324763085E+01  0.44141395089E+02  0.46327156601E+02  0.10566000000E+00 0. -1.
        994    1    1    2    0    0  0.12161495129E+02 -0.14544255001E+02  0.33106256198E+01  0.17227837229E+03  0.17120000000E+03 0.  0.
        998    1    1    2    0    0 -0.11399085027E+01  0.58117786927E+01  0.14525479756E+04  0.14525944711E+04  0.10000000000E+02 0. -1.
</event>
<event>
 5    1  0.1520352E-008  0.3820817E+03  0.7957747E-01  0.3442144E+00
         13   -1    0    0    0    0  0.00000000000E+00  0.00000000000E+00  0.14999999963E+04  0.15000000000E+04  0.10566000000E+00 0. -1.
        994   -1    0    0    0    0 -0.00000000000E+00 -0.00000000000E+00  0.11368683772E-12  0.17120000000E+03  0.17120000000E+03 0.  0.
         13    1    1    2    0    0  0.70895882955E+01  0.11289939431E+02  0.27770247756E+02  0.30804590876E+02  0.10566000000E+00 0. -1.
        994    1    1    2    0    0  0.17070352889E+01 -0.10275755286E+02  0.34462946460E+01  0.17155122285E+03  0.17120000000E+03 0.  0.
        998    1    1    2    0    0 -0.87966235844E+01 -0.10141841448E+01  0.14687834539E+04  0.14688441863E+04  0.10000000000E+02 0. -1.
</event>
<event>
 5    1  0.1520352E-008  0.3701747E+03  0.7957747E-01  0.3495088E+00
         13   -1    0    0    0    0  0.00000000000E+00  0.00000000000E+00  0.14999999963E+04  0.15000000000E+04  0.10566000000E+00 0.  1.
        994   -1    0    0    0    0 -0.00000000000E+00 -0.00000000000E+00  0.11368683772E-12  0.17120000000E+03  0.17120000000E+03 0.  0.
         13    1    1    2    0    0  0.93126359633E+01 -0.57006914696E+02  0.13525380401E+03  0.14707180619E+03  0.10566000000E+00 0.  1.
        994    1    1    2    0    0 -0.27043826738E+02  0.53548150220E+02  0.23728461202E+02  0.18295150403E+03  0.17120000000E+03 0.  0.
        998    1    1    2    0    0  0.17731190775E+02  0.34587644764E+01  0.13410177311E+04  0.13411766898E+04  0.10000000000E+02 0.  1.
</event>
<event>
 5    1  0.1520352E-008  0.3824101E+03  0.7957747E-01  0.3440731E+00
         13   -1    0    0    0    0  0.00000000000E+00  0.00000000000E+00  0.14999999963E+04  0.15000000000E+04  0.10566000000E+00 0. -1.
        994   -1    0    0    0    0 -0.00000000000E+00 -0.00000000000E+00  0.11368683772E-12  0.17120000000E+03  0.17120000000E+03 0.  0.
         13    1    1    2    0    0  0.99490736993E+01 -0.20375071342E+02  0.83348668249E+02  0.86377886422E+02  0.10566000000E+00 0. -1.
        994    1    1    2    0    0 -0.68625314591E+01  0.21403477303E+02  0.45987735719E+01  0.17273040235E+03  0.17120000000E+03 0.  0.
        998    1    1    2    0    0 -0.30865422402E+01 -0.10284059613E+01  0.14120525545E+04  0.14120917112E+04  0.10000000000E+02 0. -1.
</event>
<event>
 5    1  0.1520352E-008  0.3846253E+03  0.7957747E-01  0.3431263E+00
         13   -1    0    0    0    0  0.00000000000E+00  0.00000000000E+00  0.14999999963E+04  0.15000000000E+04  0.10566000000E+00 0. -1.
        994   -1    0    0    0    0 -0.00000000000E+00 -0.00000000000E+00  0.11368683772E-12  0.17120000000E+03  0.17120000000E+03 0.  0.
         13    1    1    2    0    0 -0.49474288567E+01 -0.12907082305E+02  0.54459711047E+02  0.56186663162E+02  0.10566000000E+00 0. -1.
        994    1    1    2    0    0  0.33589805791E+00  0.22389172732E+01  0.18331421537E+01  0.17122478205E+03  0.17120000000E+03 0.  0.
        998    1    1    2    0    0  0.46115307988E+01  0.10668165032E+02  0.14437071431E+04  0.14437885548E+04  0.10000000000E+02 0. -1.
</event>
<event>
 5    1  0.1520352E-008  0.3765122E+03  0.7957747E-01  0.3466487E+00
         13   -1    0    0    0    0  0.00000000000E+00  0.00000000000E+00  0.14999999963E+04  0.15000000000E+04  0.10566000000E+00 0. -1.
        994   -1    0    0    0    0 -0.00000000000E+00 -0.00000000000E+00  0.11368683772E-12  0.17120000000E+03  0.17120000000E+03 0.  0.
         13    1    1    2    0    0  0.65584051840E+02  0.17536443607E+01  0.14425490445E+03  0.15847344177E+03  0.10566000000E+00 0. -1.
        994    1    1    2    0    0 -0.41240117016E+02 -0.30674778626E+02  0.23936864156E+02  0.18034440041E+03  0.17120000000E+03 0.  0.
        998    1    1    2    0    0 -0.24343934824E+02  0.28921134265E+02  0.13318082277E+04  0.13323821578E+04  0.10000000000E+02 0. -1.
</event>
<event>
 5    1  0.1520352E-008  0.3837260E+03  0.7957747E-01  0.3435094E+00
         13   -1    0    0    0    0  0.00000000000E+00  0.00000000000E+00  0.14999999963E+04  0.15000000000E+04  0.10566000000E+00 0. -1.
        994   -1    0    0    0    0 -0.00000000000E+00 -0.00000000000E+00  0.11368683772E-12  0.17120000000E+03  0.17120000000E+03 0.  0.
         13    1    1    2    0    0 -0.14558247710E+02 -0.99253051365E+01  0.84993863913E+02  0.86801050255E+02  0.10566000000E+00 0. -1.
        994    1    1    2    0    0  0.19525063881E+01 -0.41084638733E+02  0.78708007627E+01  0.17624740942E+03  0.17120000000E+03 0.  0.
        998    1    1    2    0    0  0.12605741322E+02  0.51009943869E+02  0.14071353316E+04  0.14081515403E+04  0.10000000000E+02 0. -1.
</event>
<event>
 5    1  0.1520352E-008  0.3825579E+03  0.7957747E-01  0.3440096E+00
         13   -1    0    0    0    0  0.00000000000E+00  0.00000000000E+00  0.14999999963E+04  0.15000000000E+04  0.10566000000E+00 0.  1.
        994   -1    0    0    0    0 -0.00000000000E+00 -0.00000000000E+00  0.11368683772E-12  0.17120000000E+03  0.17120000000E+03 0.  0.
         13    1    1    2    0    0 -0.65352088159E+00 -0.11035798738E+02  0.19513158524E+02  0.22427448873E+02  0.10566000000E+00 0.  1.
        994    1    1    2    0    0  0.19362226185E+02  0.20890029788E+02  0.55414372402E+01  0.17364169048E+03  0.17120000000E+03 0.  0.
        998    1    1    2    0    0 -0.18708705303E+02 -0.98542310499E+01  0.14749454005E+04  0.14751308606E+04  0.10000000000E+02 0.  1.
</event>
<event>
 5    1  0.1520352E-008  0.3829114E+03  0.7957747E-01  0.3438579E+00
         13   -1    0    0    0    0  0.00000000000E+00  0.00000000000E+00  0.14999999963E+04  0.15000000000E+04  0.10566000000E+00 0.  1.
        994   -1    0    0    0    0 -0.00000000000E+00 -0.00000000000E+00  0.11368683772E-12  0.17120000000E+03  0.17120000000E+03 0.  0.
         13    1    1    2    0    0  0.12625073224E+02 -0.34716872508E+02  0.21883165179E+03  0.22192781867E+03  0.10566000000E+00 0.  1.
        994    1    1    2    0    0 -0.11578458207E+02  0.36004362007E+02  0.74212242846E+01  0.17548472682E+03  0.17120000000E+03 0.  0.
        998    1    1    2    0    0 -0.10466150172E+01 -0.12874894991E+01  0.12737471202E+04  0.12737874545E+04  0.10000000000E+02 0.  0.
</event>
<event>
 5    1  0.1520352E-008  0.3764405E+03  0.7957747E-01  0.3466805E+00
         13   -1    0    0    0    0  0.00000000000E+00  0.00000000000E+00  0.14999999963E+04  0.15000000000E+04  0.10566000000E+00 0.  1.
        994   -1    0    0    0    0 -0.00000000000E+00 -0.00000000000E+00  0.11368683772E-12  0.17120000000E+03  0.17120000000E+03 0.  0.
         13    1    1    2    0    0 -0.11650802858E+02  0.92409180555E+01  0.15832629402E+02  0.21721397091E+02  0.10566000000E+00 0.  1.
        994    1    1    2    0    0  0.14242575580E+02 -0.72298262366E+01  0.68043135670E+01  0.17207806377E+03  0.17120000000E+03 0.  0.
        998    1    1    2    0    0 -0.25917727219E+01 -0.20110918189E+01  0.14773630533E+04  0.14774005391E+04  0.10000000000E+02 0.  1.
</event>
<event>
 5    1  0.1520352E-008  0.3819889E+03  0.7957747E-01  0.3442544E+00
         13   -1    0    0    0    0  0.00000000000E+00  0.00000000000E+00  0.14999999963E+04  0.15000000000E+04  0.10566000000E+00 0. -1.
        994   -1    0    0    0    0 -0.00000000000E+00 -0.00000000000E+00  0.11368683772E-12  0.17120000000E+03  0.17120000000E+03 0.  0.
         13    1    1    2    0    0 -0.33002458535E+02 -0.18736572817E+02  0.22024270125E+03  0.22348843382E+03  0.10566000000E+00 0. -1.
        994    1    1    2    0    0  0.17514240038E+02  0.22802850296E+02  0.58829625348E+01  0.17369734550E+03  0.17120000000E+03 0.  0.
        998    1    1    2    0    0  0.15488218497E+02 -0.40662774788E+01  0.12738743325E+04  0.12740142207E+04  0.10000000000E+02 0. -1.
</event>
<event>
 5    1  0.1520352E-008  0.3815889E+03  0.7957747E-01  0.3444269E+00
         13   -1    0    0    0    0  0.00000000000E+00  0.00000000000E+00  0.14999999963E+04  0.15000000000E+04  0.10566000000E+00 0. -1.
        994   -1    0    0    0    0 -0.00000000000E+00 -0.00000000000E+00  0.11368683772E-12  0.17120000000E+03  0.17120000000E+03 0.  0.
         13    1    1    2    0    0 -0.21438171075E+02 -0.19574384192E+02  0.11438182400E+03  0.11800832394E+03  0.10566000000E+00 0. -1.
        994    1    1    2    0    0  0.21693192893E+02  0.24892985522E+02  0.69672813805E+01  0.17449423588E+03  0.17120000000E+03 0.  0.
        998    1    1    2    0    0 -0.25502181846E+00 -0.53186013307E+01  0.13786508909E+04  0.13786974402E+04  0.10000000000E+02 0. -1.
</event>
<event>
 5    1  0.1520352E-008  0.3847637E+03  0.7957747E-01  0.3430675E+00
         13   -1    0    0    0    0  0.00000000000E+00  0.00000000000E+00  0.14999999963E+04  0.15000000000E+04  0.10566000000E+00 0. -1.
        994   -1    0    0    0    0 -0.00000000000E+00 -0.00000000000E+00  0.11368683772E-12  0.17120000000E+03  0.17120000000E+03 0.  0.
         13    1    1    2    0    0  0.17686686127E+02 -0.65829854598E+01  0.10665746653E+03  0.10831426912E+03  0.10566000000E+00 0. -1.
        994    1    1    2    0    0 -0.11487352710E+02 -0.12180016582E+02  0.26705845002E+01  0.17203744970E+03  0.17120000000E+03 0.  0.
        998    1    1    2    0    0 -0.61993334175E+01  0.18763002042E+02  0.13906719452E+04  0.13908482812E+04  0.10000000000E+02 0. -1.
</event>
<event>
 5    1  0.1520352E-008  0.3792619E+03  0.7957747E-01  0.3454379E+00
         13   -1    0    0    0    0  0.00000000000E+00  0.00000000000E+00  0.14999999963E+04  0.15000000000E+04  0.10566000000E+00 0. -1.
        994   -1    0    0    0    0 -0.00000000000E+00 -0.00000000000E+00  0.11368683772E-12  0.17120000000E+03  0.17120000000E+03 0.  0.
         13    1    1    2    0    0  0.17197789681E+02 -0.35910222296E+01  0.30795105401E+02  0.35454324014E+02  0.10566000000E+00 0. -1.
        994    1    1    2    0    0 -0.26440508431E+02  0.15947093908E+02  0.77077593454E+01  0.17413287985E+03  0.17120000000E+03 0.  0.
        998    1    1    2    0    0  0.92427187496E+01 -0.12356071679E+02  0.14614971315E+04  0.14616127961E+04  0.10000000000E+02 0. -1.
</event>
<event>
 5    1  0.1520352E-008  0.3791695E+03  0.7957747E-01  0.3454783E+00
         13   -1    0    0    0    0  0.00000000000E+00  0.00000000000E+00  0.14999999963E+04  0.15000000000E+04  0.10566000000E+00 0. -1.
        994   -1    0    0    0    0 -0.00000000000E+00 -0.00000000000E+00  0.11368683772E-12  0.17120000000E+03  0.17120000000E+03 0.  0.
         13    1    1    2    0    0  0.28998490262E+02  0.28441414855E+01  0.10479391727E+03  0.10876937914E+03  0.10566000000E+00 0. -1.
        994    1    1    2    0    0  0.88965002738E+01 -0.56508134132E+01  0.49254083824E+01  0.17159481069E+03  0.17120000000E+03 0.  0.
        998    1    1    2    0    0 -0.37894990536E+02  0.28066719277E+01  0.13902806706E+04  0.13908358102E+04  0.10000000000E+02 0. -1.
</event>
<event>
 5    1  0.1520352E-008  0.3836323E+03  0.7957747E-01  0.3435493E+00
         13   -1    0    0    0    0  0.00000000000E+00  0.00000000000E+00  0.14999999963E+04  0.15000000000E+04  0.10566000000E+00 0. -1.
        994   -1    0    0    0    0 -0.00000000000E+00 -0.00000000000E+00  0.11368683772E-12  0.17120000000E+03  0.17120000000E+03 0.  0.
         13    1    1    2    0    0 -0.18839800983E+02  0.27469024081E+01  0.83406854793E+02  0.85552312443E+02  0.10566000000E+00 0. -1.
        994    1    1    2    0    0  0.19558435902E+01  0.59677121971E+01  0.24409783927E+01  0.17133253424E+03  0.17120000000E+03 0.  0.
        998    1    1    2    0    0  0.16883957393E+02 -0.87146146052E+01  0.14141521631E+04  0.14143151533E+04  0.10000000000E+02 0. -1.
</event>
<event>
 5    1  0.1520352E-008  0.3769451E+03  0.7957747E-01  0.3464569E+00
         13   -1    0    0    0    0  0.00000000000E+00  0.00000000000E+00  0.14999999963E+04  0.15000000000E+04  0.10566000000E+00 0.  1.
        994   -1    0    0    0    0 -0.00000000000E+00 -0.00000000000E+00  0.11368683772E-12  0.17120000000E+03  0.17120000000E+03 0.  0.
         13    1    1    2    0    0 -0.52131684938E+00  0.21924616430E+02  0.40803530695E+02  0.46323858411E+02  0.10566000000E+00 0.  1.
        994    1    1    2    0    0 -0.57280106762E+01 -0.88232821807E+01  0.60570253951E+01  0.17162979919E+03  0.17120000000E+03 0.  0.
        998    1    1    2    0    0  0.62493275256E+01 -0.13101334249E+02  0.14531394402E+04  0.14532463424E+04  0.10000000000E+02 0.  1.
</event>
<event>
 5    1  0.1520352E-008  0.3814270E+03  0.7957747E-01  0.3444969E+00
         13   -1    0    0    0    0  0.00000000000E+00  0.00000000000E+00  0.14999999963E+04  0.15000000000E+04  0.10566000000E+00 0. -1.
        994   -1    0    0    0    0 -0.00000000000E+00 -0.00000000000E+00  0.11368683772E-12  0.17120000000E+03  0.17120000000E+03 0.  0.
         13    1    1    2    0    0  0.12697826359E+02  0.60465144424E+01  0.27637971437E+02  0.31010703964E+02  0.10566000000E+00 0. -1.
        994    1    1    2    0    0 -0.79935660103E+01 -0.59379712370E+01  0.37445373805E+01  0.17153022521E+03  0.17120000000E+03 0.  0.
        998    1    1    2    0    0 -0.47042603485E+01 -0.10854320540E+00  0.14686174875E+04  0.14686590708E+04  0.10000000000E+02 0. -1.
</event>
<event>
 5    1  0.1520352E-008  0.3851808E+03  0.7957747E-01  0.3428906E+00
         13   -1    0    0    0    0  0.00000000000E+00  0.00000000000E+00  0.14999999963E+04  0.15000000000E+04  0.10566000000E+00 0. -1.
        994   -1    0    0    0    0 -0.00000000000E+00 -0.00000000000E+00  0.11368683772E-12  0.17120000000E+03  0.17120000000E+03 0.  0.
         13    1    1    2    0    0  0.15497368839E+02 -0.10246295252E+01  0.89291795319E+02  0.90632522761E+02  0.10566000000E+00 0. -1.
        994    1    1    2    0    0  0.61767644704E+01 -0.38139095801E+01  0.17136132091E+01  0.17136240777E+03  0.17120000000E+03 0.  0.
        998    1    1    2    0    0 -0.21674133310E+02  0.48385391053E+01  0.14089945878E+04  0.14092050695E+04  0.10000000000E+02 0. -1.
</event>
<event>
 5    1  0.1520352E-008  0.3726810E+03  0.7957747E-01  0.3483660E+00
         13   -1    0    0    0    0  0.00000000000E+00  0.00000000000E+00  0.14999999963E+04  0.15000000000E+04  0.10566000000E+00 0.  1.
        994   -1    0    0    0    0 -0.00000000000E+00 -0.00000000000E+00  0.11368683772E-12  0.17120000000E+03  0.17120000000E+03 0.  0.
         13    1    1    2    0    0 -0.34349037308E+02  0.59583716414E+02  0.16435167811E+03  0.17816161452E+03  0.10566000000E+00 0.  1.
        994    1    1    2    0    0  0.34642842462E+02 -0.63964689746E+02  0.31281089679E+02  0.18862543476E+03  0.17120000000E+03 0.  0.
        998    1    1    2    0    0 -0.29380515438E+00  0.43809733313E+01  0.13043672285E+04  0.13044129507E+04  0.10000000000E+02 0.  1.
</event>
<event>
 5    1  0.1520352E-008  0.3779686E+03  0.7957747E-01  0.3460052E+00
         13   -1    0    0    0    0  0.00000000000E+00  0.00000000000E+00  0.14999999963E+04  0.15000000000E+04  0.10566000000E+00 0.  1.
        994   -1    0    0    0    0 -0.00000000000E+00 -0.00000000000E+00  0.11368683772E-12  0.17120000000E+03  0.17120000000E+03 0.  0.
         13    1    1    2    0    0 -0.33444056036E+02 -0.34253728333E+02  0.26501110858E+03  0.26930043005E+03  0.10566000000E+00 0.  1.
        994    1    1    2    0    0  0.19315055917E+00  0.62624967276E+01  0.52942406097E+01  0.17139639773E+03  0.17120000000E+03 0.  0.
        998    1    1    2    0    0  0.33250905477E+02  0.27991231606E+02  0.12296946471E+04  0.12305031722E+04  0.10000000000E+02 0.  1.
</event>
<event>
 5    1  0.1520352E-008  0.3761329E+03  0.7957747E-01  0.3468172E+00
         13   -1    0    0    0    0  0.00000000000E+00  0.00000000000E+00  0.14999999963E+04  0.15000000000E+04  0.10566000000E+00 0. -1.
        994   -1    0    0    0    0 -0.00000000000E+00 -0.00000000000E+00  0.11368683772E-12  0.17120000000E+03  0.17120000000E+03 0.  0.
         13    1    1    2    0    0 -0.12203108039E+03  0.93876492001E+00  0.59906544582E+03  0.61136886198E+03  0.10566000000E+00 0. -1.
        994    1    1    2    0    0  0.13409875253E+03  0.12333257099E+02  0.70209621783E+02  0.22885238835E+03  0.17120000000E+03 0.  0.
        998    1    1    2    0    0 -0.12067672142E+02 -0.13272022019E+02  0.83072492868E+03  0.83097874967E+03  0.10000000000E+02 0.  0.
</event>
<event>
 5    1  0.1520352E-008  0.3847038E+03  0.7957747E-01  0.3430930E+00
         13   -1    0    0    0    0  0.00000000000E+00  0.00000000000E+00  0.14999999963E+04  0.15000000000E+04  0.10566000000E+00 0.  1.
        994   -1    0    0    0    0 -0.00000000000E+00 -0.00000000000E+00  0.11368683772E-12  0.17120000000E+03  0.17120000000E+03 0.  0.
         13    1    1    2    0    0 -0.11085956683E+02 -0.82109208291E+01  0.50275964182E+02  0.52134454969E+02  0.10566000000E+00 0.  1.
        994    1    1    2    0    0  0.10709926865E+02  0.19876706320E+02  0.34572010360E+01  0.17271704672E+03  0.17120000000E+03 0.  0.
        998    1    1    2    0    0  0.37602981745E+00 -0.11665785491E+02  0.14462668311E+04  0.14463484983E+04  0.10000000000E+02 0.  1.
</event>
<event>
 5    1  0.1520352E-008  0.3725807E+03  0.7957747E-01  0.3484114E+00
         13   -1    0    0    0    0  0.00000000000E+00  0.00000000000E+00  0.14999999963E+04  0.15000000000E+04  0.10566000000E+00 0.  1.
        994   -1    0    0    0    0 -0.00000000000E+00 -0.00000000000E+00  0.11368683772E-12  0.17120000000E+03  0.17120000000E+03 0.  0.
         13    1    1    2    0    0 -0.58983799886E+02  0.18076138990E+02  0.31060051830E+03  0.31666785215E+03  0.10566000000E+00 0.  1.
        994    1    1    2    0    0  0.28395906872E+01  0.10261462378E+02  0.83149828508E+01  0.17173217469E+03  0.17120000000E+03 0.  0.
        998    1    1    2    0    0  0.56144209199E+02 -0.28337601369E+02  0.11810844951E+04  0.11827999732E+04  0.10000000000E+02 0.  1.
</event>
<event>
 5    1  0.1520352E-008  0.3848556E+03  0.7957747E-01  0.3430285E+00
         13   -1    0    0    0    0  0.00000000000E+00  0.00000000000E+00  0.14999999963E+04  0.15000000000E+04  0.10566000000E+00 0. -1.
        994   -1    0    0    0    0 -0.00000000000E+00 -0.00000000000E+00  0.11368683772E-12  0.17120000000E+03  0.17120000000E+03 0.  0.
         13    1    1    2    0    0  0.10183783720E+02 -0.10001309203E+02  0.61552803417E+02  0.63186188437E+02  0.10566000000E+00 0. -1.
        994    1    1    2    0    0 -0.69471275226E+01 -0.43250483259E+00  0.18612709602E+01  0.17135155083E+03  0.17120000000E+03 0.  0.
        998    1    1    2    0    0 -0.32366561971E+01  0.10433814035E+02  0.14365859219E+04  0.14366622607E+04  0.10000000000E+02 0. -1.
</event>
<event>
 5    1  0.1520352E-008  0.3773961E+03  0.7957747E-01  0.3462575E+00
         13   -1    0    0    0    0  0.00000000000E+00  0.00000000000E+00  0.14999999963E+04  0.15000000000E+04  0.10566000000E+00 0.  1.
        994   -1    0    0    0    0 -0.00000000000E+00 -0.00000000000E+00  0.11368683772E-12  0.17120000000E+03  0.17120000000E+03 0.  0.
         13    1    1    2    0    0 -0.40963916284E+02  0.23792914276E+02  0.61424218640E+02  0.77569910446E+02  0.10566000000E+00 0.  1.
        994    1    1    2    0    0  0.65037414424E+02 -0.42634800778E+02  0.36944319377E+02  0.19162962779E+03  0.17120000000E+03 0.  0.
        998    1    1    2    0    0 -0.24073498140E+02  0.18841886502E+02  0.14016314583E+04  0.14020004618E+04  0.10000000000E+02 0.  1.
</event>
<event>
 5    1  0.1520352E-008  0.3735762E+03  0.7957747E-01  0.3479615E+00
         13   -1    0    0    0    0  0.00000000000E+00  0.00000000000E+00  0.14999999963E+04  0.15000000000E+04  0.10566000000E+00 0.  1.
        994   -1    0    0    0    0 -0.00000000000E+00 -0.00000000000E+00  0.11368683772E-12  0.17120000000E+03  0.17120000000E+03 0.  0.
         13    1    1    2    0    0  0.11227950455E+01  0.37562158352E+02  0.85960988839E+02  0.93816198895E+02  0.10566000000E+00 0.  1.
        994    1    1    2    0    0 -0.27751728428E+01 -0.42951922808E+02  0.13765829173E+02  0.17706356856E+03  0.17120000000E+03 0.  0.
        998    1    1    2    0    0  0.16523777973E+01  0.53897644554E+01  0.14002731783E+04  0.14003202325E+04  0.10000000000E+02 0.  1.
</event>
<event>
 5    1  0.1520352E-008  0.3797722E+03  0.7957747E-01  0.3452151E+00
         13   -1    0    0    0    0  0.00000000000E+00  0.00000000000E+00  0.14999999963E+04  0.15000000000E+04  0.10566000000E+00 0. -1.
        994   -1    0    0    0    0 -0.00000000000E+00 -0.00000000000E+00  0.11368683772E-12  0.17120000000E+03  0.17120000000E+03 0.  0.
         13    1    1    2    0    0 -0.10360540723E+02  0.86009407050E+01  0.18757182782E+02  0.23090258878E+02  0.10566000000E+00 0. -1.
        994    1    1    2    0    0  0.18504983873E+02 -0.17197365531E+02  0.63861216624E+01  0.17317160956E+03  0.17120000000E+03 0.  0.
        998    1    1    2    0    0 -0.81444431496E+01  0.85964248261E+01  0.14748566918E+04  0.14749381316E+04  0.10000000000E+02 0. -1.
</event>
<event>
 5    1  0.1520352E-008  0.3743777E+03  0.7957747E-01  0.3476011E+00
         13   -1    0    0    0    0  0.00000000000E+00  0.00000000000E+00  0.14999999963E+04  0.15000000000E+04  0.10566000000E+00 0.  1.
        994   -1    0    0    0    0 -0.00000000000E+00 -0.00000000000E+00  0.11368683772E-12  0.17120000000E+03  0.17120000000E+03 0.  0.
         13    1    1    2    0    0 -0.79445959617E+01 -0.21597556381E+02  0.14972828203E+02  0.27454831907E+02  0.10566000000E+00 0.  1.
        994    1    1    2    0    0  0.84058405813E+01 -0.75936771356E+01  0.13728318297E+02  0.17212271440E+03  0.17120000000E+03 0.  0.
        998    1    1    2    0    0 -0.46124461961E+00  0.29191233516E+02  0.14712988498E+04  0.14716224537E+04  0.10000000000E+02 0.  1.
</event>
<event>
 5    1  0.1520352E-008  0.3999791E+03  0.7957747E-01  0.3368526E+00
         13   -1    0    0    0    0  0.00000000000E+00  0.00000000000E+00  0.14999999963E+04  0.15000000000E+04  0.10566000000E+00 0.  1.
        994   -1    0    0    0    0 -0.00000000000E+00 -0.00000000000E+00  0.11368683772E-12  0.17120000000E+03  0.17120000000E+03 0.  0.
         13    1    1    2    0    0 -0.30928547886E+02 -0.10178950724E+02  0.72668693614E+01  0.33361724574E+02  0.10566000000E+00 0.  1.
        994    1    1    2    0    0  0.32303996875E+02  0.25204122247E+02  0.34364868656E+02  0.17935768785E+03  0.17120000000E+03 0.  0.
        998    1    1    2    0    0 -0.13754489893E+01 -0.15025171523E+02  0.14583682583E+04  0.14584805876E+04  0.10000000000E+02 0.  1.
</event>
<event>
 5    1  0.1520352E-008  0.3840795E+03  0.7957747E-01  0.3433585E+00
         13   -1    0    0    0    0  0.00000000000E+00  0.00000000000E+00  0.14999999963E+04  0.15000000000E+04  0.10566000000E+00 0.  1.
        994   -1    0    0    0    0 -0.00000000000E+00 -0.00000000000E+00  0.11368683772E-12  0.17120000000E+03  0.17120000000E+03 0.  0.
         13    1    1    2    0    0 -0.20023399311E+02  0.42081072154E+01  0.10561573919E+03  0.10757946001E+03  0.10566000000E+00 0.  1.
        994    1    1    2    0    0  0.47641751977E+01 -0.23021750919E+01  0.21801782170E+01  0.17129562327E+03  0.17120000000E+03 0.  0.
        998    1    1    2    0    0  0.15259224113E+02 -0.19059321235E+01  0.13922040789E+04  0.13923249167E+04  0.10000000000E+02 0.  0.
</event>
<event>
 5    1  0.1520352E-008  0.3799233E+03  0.7957747E-01  0.3451493E+00
         13   -1    0    0    0    0  0.00000000000E+00  0.00000000000E+00  0.14999999963E+04  0.15000000000E+04  0.10566000000E+00 0.  1.
        994   -1    0    0    0    0 -0.00000000000E+00 -0.00000000000E+00  0.11368683772E-12  0.17120000000E+03  0.17120000000E+03 0.  0.
         13    1    1    2    0    0  0.40614140044E+02  0.17936022456E+02  0.24327982503E+03  0.24729798564E+03  0.10566000000E+00 0.  1.
        994    1    1    2    0    0 -0.34550675135E+02  0.21140190549E+02  0.96774067775E+01  0.17619236366E+03  0.17120000000E+03 0.  0.
        998    1    1    2    0    0 -0.60634649090E+01 -0.39076213005E+02  0.12470427645E+04  0.12477096507E+04  0.10000000000E+02 0.  1.
</event>
<event>
 5    1  0.1520352E-008  0.3732051E+03  0.7957747E-01  0.3481289E+00
         13   -1    0    0    0    0  0.00000000000E+00  0.00000000000E+00  0.14999999963E+04  0.15000000000E+04  0.10566000000E+00 0. -1.
        994   -1    0    0    0    0 -0.00000000000E+00 -0.00000000000E+00  0.11368683772E-12  0.17120000000E+03  0.17120000000E+03 0.  0.
         13    1    1    2    0    0 -0.80116045061E+01 -0.79001901599E+02  0.33450133600E+03  0.34379738395E+03  0.10566000000E+00 0. -1.
        994    1    1    2    0    0 -0.45413028020E+01  0.74612798560E+02  0.26960886054E+02  0.18874327145E+03  0.17120000000E+03 0.  0.
        998    1    1    2    0    0  0.12552907308E+02  0.43891030397E+01  0.11385377742E+04  0.11386593446E+04  0.10000000000E+02 0. -1.
</event>
<event>
 5    1  0.1520352E-008  0.3787110E+03  0.7957747E-01  0.3456790E+00
         13   -1    0    0    0    0  0.00000000000E+00  0.00000000000E+00  0.14999999963E+04  0.15000000000E+04  0.10566000000E+00 0. -1.
        994   -1    0    0    0    0 -0.00000000000E+00 -0.00000000000E+00  0.11368683772E-12  0.17120000000E+03  0.17120000000E+03 0.  0.
         13    1    1    2    0    0  0.14143658003E+02  0.12759522947E+02  0.34616757954E+02  0.39511765119E+02  0.10566000000E+00 0. -1.
        994    1    1    2    0    0 -0.14929404927E+02 -0.21652693217E+02  0.71109725545E+01  0.17335435439E+03  0.17120000000E+03 0.  0.
        998    1    1    2    0    0  0.78574692438E+00  0.88931702708E+01  0.14582722658E+04  0.14583338805E+04  0.10000000000E+02 0. -1.
</event>
<event>
 5    1  0.1520352E-008  0.3836555E+03  0.7957747E-01  0.3435394E+00
         13   -1    0    0    0    0  0.00000000000E+00  0.00000000000E+00  0.14999999963E+04  0.15000000000E+04  0.10566000000E+00 0. -1.
        994   -1    0    0    0    0 -0.00000000000E+00 -0.00000000000E+00  0.11368683772E-12  0.17120000000E+03  0.17120000000E+03 0.  0.
         13    1    1    2    0    0 -0.13482867441E+00 -0.14670054951E+02  0.48065635965E+02  0.50254802912E+02  0.10566000000E+00 0. -1.
        994    1    1    2    0    0  0.54313739205E+01  0.13745735679E+01  0.24028065352E+01  0.17130850170E+03  0.17120000000E+03 0.  0.
        998    1    1    2    0    0 -0.52965452461E+01  0.13295481383E+02  0.14495315538E+04  0.14496366954E+04  0.10000000000E+02 0. -1.
</event>
<event>
 5    1  0.1520352E-008  0.3812941E+03  0.7957747E-01  0.3445543E+00
         13   -1    0    0    0    0  0.00000000000E+00  0.00000000000E+00  0.14999999963E+04  0.15000000000E+04  0.10566000000E+00 0.  1.
        994   -1    0    0    0    0 -0.00000000000E+00 -0.00000000000E+00  0.11368683772E-12  0.17120000000E+03  0.17120000000E+03 0.  0.
         13    1    1    2    0    0  0.22750490496E+02  0.34389836175E+01  0.87539640559E+02  0.90513044691E+02  0.10566000000E+00 0.  1.
        994    1    1    2    0    0  0.16611379226E+02 -0.10084747872E+02  0.47393439411E+01  0.17236455970E+03  0.17120000000E+03 0.  0.
        998    1    1    2    0    0 -0.39361869722E+02  0.66457642540E+01  0.14077210118E+04  0.14083223956E+04  0.10000000000E+02 0.  1.
</event>
<event>
 5    1  0.1520352E-008  0.3707080E+03  0.7957747E-01  0.3492644E+00
         13   -1    0    0    0    0  0.00000000000E+00  0.00000000000E+00  0.14999999963E+04  0.15000000000E+04  0.10566000000E+00 0.  1.
        994   -1    0    0    0    0 -0.00000000000E+00 -0.00000000000E+00  0.11368683772E-12  0.17120000000E+03  0.17120000000E+03 0.  0.
         13    1    1    2    0    0  0.16341951464E+03  0.32423180583E+02  0.62224675286E+03  0.64416475611E+03  0.10566000000E+00 0.  1.
        994    1    1    2    0    0 -0.16295570475E+03 -0.48578873251E+02  0.12080358756E+03  0.26984702222E+03  0.17120000000E+03 0.  0.
        998    1    1    2    0    0 -0.46380989538E+00  0.16155692669E+02  0.75694965586E+03  0.75718822167E+03  0.10000000000E+02 0.  1.
</event>
<event>
 5    1  0.1520352E-008  0.4116475E+03  0.7957747E-01  0.3323964E+00
         13   -1    0    0    0    0  0.00000000000E+00  0.00000000000E+00  0.14999999963E+04  0.15000000000E+04  0.10566000000E+00 0. -1.
        994   -1    0    0    0    0 -0.00000000000E+00 -0.00000000000E+00  0.11368683772E-12  0.17120000000E+03  0.17120000000E+03 0.  0.
         13    1    1    2    0    0 -0.23810300243E+02  0.39030359644E+02  0.15949280284E+02  0.48421999930E+02  0.10566000000E+00 0. -1.
        994    1    1    2    0    0  0.44570636108E+02 -0.31576399526E+02  0.47300320295E+02  0.18582349397E+03  0.17120000000E+03 0.  0.
        998    1    1    2    0    0 -0.20760335864E+02 -0.74539601182E+01  0.14367503957E+04  0.14369545061E+04  0.10000000000E+02 0. -1.
</event>
<event>
 5    1  0.1520352E-008  0.3856483E+03  0.7957747E-01  0.3426927E+00
         13   -1    0    0    0    0  0.00000000000E+00  0.00000000000E+00  0.14999999963E+04  0.15000000000E+04  0.10566000000E+00 0. -1.
        994   -1    0    0    0    0 -0.00000000000E+00 -0.00000000000E+00  0.11368683772E-12  0.17120000000E+03  0.17120000000E+03 0.  0.
         13    1    1    2    0    0  0.54840450778E+01  0.12320257393E+02  0.70185240707E+02  0.71469172863E+02  0.10566000000E+00 0. -1.
        994    1    1    2    0    0 -0.34767040000E+01 -0.77266705727E+01  0.15442240881E+01  0.17141649144E+03  0.17120000000E+03 0.  0.
        998    1    1    2    0    0 -0.20073410779E+01 -0.45935868203E+01  0.14282705315E+04  0.14283143357E+04  0.10000000000E+02 0. -1.
</event>
<event>
 5    1  0.1520352E-008  0.3834479E+03  0.7957747E-01  0.3436282E+00
         13   -1    0    0    0    0  0.00000000000E+00  0.00000000000E+00  0.14999999963E+04  0.15000000000E+04  0.10566000000E+00 0. -1.
        994   -1    0    0    0    0 -0.00000000000E+00 -0.00000000000E+00  0.11368683772E-12  0.17120000000E+03  0.17120000000E+03 0.  0.
         13    1    1    2    0    0  0.60513299985E-01  0.19118465135E+02  0.81474634524E+02  0.83687792454E+02  0.10566000000E+00 0. -1.
        994    1    1    2    0    0  0.16417492396E+01  0.60803038995E+00  0.24128223088E+01  0.17122595233E+03  0.17120000000E+03 0.  0.
        998    1    1    2    0    0 -0.17022625396E+01 -0.19726495525E+02  0.14161125394E+04  0.14162862552E+04  0.10000000000E+02 0. -1.
</event>
<event>
 5    1  0.1520352E-008  0.3770802E+03  0.7957747E-01  0.3463971E+00
         13   -1    0    0    0    0  0.00000000000E+00  0.00000000000E+00  0.14999999963E+04  0.15000000000E+04  0.10566000000E+00 0.  1.
        994   -1    0    0    0    0 -0.00000000000E+00 -0.00000000000E+00  0.11368683772E-12  0.17120000000E+03  0.17120000000E+03 0.  0.
         13    1    1    2    0    0 -0.16807588239E+02 -0.79326086154E+01  0.28202224271E+02  0.33775700136E+02  0.10566000000E+00 0.  1.
        994    1    1    2    0    0  0.15393345229E+02  0.46830597307E+01  0.64886918582E+01  0.17207681206E+03  0.17120000000E+03 0.  0.
        998    1    1    2    0    0  0.14142430101E+01  0.32495488847E+01  0.14653090801E+04  0.14653474878E+04  0.10000000000E+02 0.  1.
</event>
<event>
 5    1  0.1520352E-008  0.3756765E+03  0.7957747E-01  0.3470203E+00
         13   -1    0    0    0    0  0.00000000000E+00  0.00000000000E+00  0.14999999963E+04  0.15000000000E+04  0.10566000000E+00 0.  1.
        994   -1    0    0    0    0 -0.00000000000E+00 -0.00000000000E+00  0.11368683772E-12  0.17120000000E+03  0.17120000000E+03 0.  0.
         13    1    1    2    0    0 -0.12589247362E+03  0.89816109343E+02  0.79078333734E+03  0.80576308316E+03  0.10566000000E+00 0.  1.
        994    1    1    2    0    0  0.12024413276E+03 -0.98967206977E+02  0.93602774485E+02  0.24964790989E+03  0.17120000000E+03 0.  0.
        998    1    1    2    0    0  0.56483408596E+01  0.91510976341E+01  0.61561388446E+03  0.61578900695E+03  0.10000000000E+02 0.  1.
</event>
<event>
 5    1  0.1520352E-008  0.3841871E+03  0.7957747E-01  0.3433127E+00
         13   -1    0    0    0    0  0.00000000000E+00  0.00000000000E+00  0.14999999963E+04  0.15000000000E+04  0.10566000000E+00 0. -1.
        994   -1    0    0    0    0 -0.00000000000E+00 -0.00000000000E+00  0.11368683772E-12  0.17120000000E+03  0.17120000000E+03 0.  0.
         13    1    1    2    0    0  0.11338134829E+02  0.50178579779E+01  0.38563603798E+02  0.40507960970E+02  0.10566000000E+00 0. -1.
        994    1    1    2    0    0 -0.28589802870E+01  0.37837170547E+01  0.21084383957E+01  0.17127864956E+03  0.17120000000E+03 0.  0.
        998    1    1    2    0    0 -0.84791545418E+01 -0.88015750327E+01  0.14593279541E+04  0.14594133895E+04  0.10000000000E+02 0. -1.
</event>
<event>
 5    1  0.1520352E-008  0.3826762E+03  0.7957747E-01  0.3439588E+00
         13   -1    0    0    0    0  0.00000000000E+00  0.00000000000E+00  0.14999999963E+04  0.15000000000E+04  0.10566000000E+00 0.  1.
        994   -1    0    0    0    0 -0.00000000000E+00 -0.00000000000E+00  0.11368683772E-12  0.17120000000E+03  0.17120000000E+03 0.  0.
         13    1    1    2    0    0  0.89231445425E+01  0.10937076114E+02  0.33926928838E+02  0.36746289702E+02  0.10566000000E+00 0.  1.
        994    1    1    2    0    0 -0.10110483090E+02 -0.12705083576E+02  0.36623468320E+01  0.17200724927E+03  0.17120000000E+03 0.  0.
        998    1    1    2    0    0  0.11873385476E+01  0.17680074615E+01  0.14624107206E+04  0.14624464610E+04  0.10000000000E+02 0.  1.
</event>
<event>
 5    1  0.1520352E-008  0.3748247E+03  0.7957747E-01  0.3474007E+00
         13   -1    0    0    0    0  0.00000000000E+00  0.00000000000E+00  0.14999999963E+04  0.15000000000E+04  0.10566000000E+00 0.  1.
        994   -1    0    0    0    0 -0.00000000000E+00 -0.00000000000E+00  0.11368683772E-12  0.17120000000E+03  0.17120000000E+03 0.  0.
         13    1    1    2    0    0  0.10629690866E+03  0.30894633975E+02  0.51868865018E+03  0.53036915275E+03  0.10566000000E+00 0.  1.
        994    1    1    2    0    0 -0.11989038673E+03 -0.17548871011E+02  0.58469028214E+02  0.21773776651E+03  0.17120000000E+03 0.  0.
        998    1    1    2    0    0  0.13593478071E+02 -0.13345762964E+02  0.92284231789E+03  0.92309308075E+03  0.10000000000E+02 0. -1.
</event>
<event>
 5    1  0.1520352E-008  0.3776026E+03  0.7957747E-01  0.3461664E+00
         13   -1    0    0    0    0  0.00000000000E+00  0.00000000000E+00  0.14999999963E+04  0.15000000000E+04  0.10566000000E+00 0.  1.
        994   -1    0    0    0    0 -0.00000000000E+00 -0.00000000000E+00  0.11368683772E-12  0.17120000000E+03  0.17120000000E+03 0.  0.
         13    1    1    2    0    0  0.99314734086E+00 -0.29166163782E+02  0.85606079585E+02  0.90443703359E+02  0.10566000000E+00 0.  1.
        994    1    1    2    0    0  0.10543228542E+02 -0.39002609973E+01  0.57742021462E+01  0.17166581813E+03  0.17120000000E+03 0.  0.
        998    1    1    2    0    0 -0.11536375883E+02  0.33066424780E+02  0.14086197145E+04  0.14090904785E+04  0.10000000000E+02 0.  1.
</event>
<event>
 5    1  0.1520352E-008  0.3812780E+03  0.7957747E-01  0.3445613E+00
         13   -1    0    0    0    0  0.00000000000E+00  0.00000000000E+00  0.14999999963E+04  0.15000000000E+04  0.10566000000E+00 0.  1.
        994   -1    0    0    0    0 -0.00000000000E+00 -0.00000000000E+00  0.11368683772E-12  0.17120000000E+03  0.17120000000E+03 0.  0.
         13    1    1    2    0    0 -0.83675159155E+01  0.34361639915E+02  0.16330098969E+03  0.16708669013E+03  0.10566000000E+00 0.  1.
        994    1    1    2    0    0 -0.95151717982E+00 -0.34282391663E+02  0.74146831923E+01  0.17475870591E+03  0.17120000000E+03 0.  0.
        998    1    1    2    0    0  0.93190330953E+01 -0.79248252013E-01  0.13292843234E+04  0.13293546040E+04  0.10000000000E+02 0.  1.
</event>
<event>
 5    1  0.1520352E-008  0.4027287E+03  0.7957747E-01  0.3357795E+00
         13   -1    0    0    0    0  0.00000000000E+00  0.00000000000E+00  0.14999999963E+04  0.15000000000E+04  0.10566000000E+00 0. -1.
        994   -1    0    0    0    0 -0.00000000000E+00 -0.00000000000E+00  0.11368683772E-12  0.17120000000E+03  0.17120000000E+03 0.  0.
         13    1    1    2    0    0  0.20006941937E+02  0.24081907955E+01 -0.56777483498E+01  0.20936215010E+02  0.10566000000E+00 0. -1.
        994    1    1    2    0    0  0.17413733226E+02 -0.26262131526E+02  0.33360072413E+02  0.17724353892E+03  0.17120000000E+03 0.  0.
        998    1    1    2    0    0 -0.37420675164E+02  0.23853940730E+02  0.14723176722E+04  0.14730202461E+04  0.10000000000E+02 0. -1.
</event>
<event>
 5    1  0.1520352E-008  0.3859164E+03  0.7957747E-01  0.3425795E+00
         13   -1    0    0    0    0  0.00000000000E+00  0.00000000000E+00  0.14999999963E+04  0.15000000000E+04  0.10566000000E+00 0. -1.
        994   -1    0    0    0    0 -0.00000000000E+00 -0.00000000000E+00  0.11368683772E-12  0.17120000000E+03  0.17120000000E+03 0.  0.
         13    1    1    2    0    0 -0.11931899413E+02 -0.43319267342E+01  0.68891019789E+02  0.70050835716E+02  0.10566000000E+00 0. -1.
        994    1    1    2    0    0  0.66104053590E+01  0.85021856582E+01  0.15562393867E+01  0.17154546482E+03  0.17120000000E+03 0.  0.
        998    1    1    2    0    0  0.53214940538E+01 -0.41702589240E+01  0.14295527371E+04  0.14296036995E+04  0.10000000000E+02 0. -1.
</event>
<event>
 5    1  0.1520352E-008  0.3760955E+03  0.7957747E-01  0.3468338E+00
         13   -1    0    0    0    0  0.00000000000E+00  0.00000000000E+00  0.14999999963E+04  0.15000000000E+04  0.10566000000E+00 0. -1.
        994   -1    0    0    0    0 -0.00000000000E+00 -0.00000000000E+00  0.11368683772E-12  0.17120000000E+03  0.17120000000E+03 0.  0.
         13    1    1    2    0    0  0.64963189363E+01 -0.16117353924E+02  0.21920547918E+02  0.27973073523E+02  0.10566000000E+00 0. -1.
        994    1    1    2    0    0 -0.44312988380E+01  0.14595694499E+02  0.69055979262E+01  0.17201685380E+03  0.17120000000E+03 0.  0.
        998    1    1    2    0    0 -0.20650200983E+01  0.15216594250E+01  0.14711738504E+04  0.14712100727E+04  0.10000000000E+02 0. -1.
</event>
<event>
 5    1  0.1520352E-008  0.3848117E+03  0.7957747E-01  0.3430471E+00
         13   -1    0    0    0    0  0.00000000000E+00  0.00000000000E+00  0.14999999963E+04  0.15000000000E+04  0.10566000000E+00 0. -1.
        994   -1    0    0    0    0 -0.00000000000E+00 -0.00000000000E+00  0.11368683772E-12  0.17120000000E+03  0.17120000000E+03 0.  0.
         13    1    1    2    0    0  0.22061649547E+01  0.29992255245E+02  0.15607018826E+02  0.33882041543E+02  0.10566000000E+00 0. -1.
        994    1    1    2    0    0  0.33182300217E+01 -0.31279082620E+02  0.22653773995E+02  0.17553354419E+03  0.17120000000E+03 0.  0.
        998    1    1    2    0    0 -0.55243949764E+01  0.12868273752E+01  0.14617392035E+04  0.14617844143E+04  0.10000000000E+02 0. -1.
</event>
<event>
 5    1  0.1520352E-008  0.3750758E+03  0.7957747E-01  0.3472884E+00
         13   -1    0    0    0    0  0.00000000000E+00  0.00000000000E+00  0.14999999963E+04  0.15000000000E+04  0.10566000000E+00 0. -1.
        994   -1    0    0    0    0 -0.00000000000E+00 -0.00000000000E+00  0.11368683772E-12  0.17120000000E+03  0.17120000000E+03 0.  0.
         13    1    1    2    0    0 -0.20201210764E+02  0.27466354212E+02  0.82704760290E+02  0.89457129782E+02  0.10566000000E+00 0. -1.
        994    1    1    2    0    0  0.38838493797E+01 -0.32841884021E+02  0.10365504440E+02  0.17467271485E+03  0.17120000000E+03 0.  0.
        998    1    1    2    0    0  0.16317361385E+02  0.53755298091E+01  0.14069297315E+04  0.14070701554E+04  0.10000000000E+02 0. -1.
</event>
<event>
 5    1  0.1520352E-008  0.3781034E+03  0.7957747E-01  0.3459459E+00
         13   -1    0    0    0    0  0.00000000000E+00  0.00000000000E+00  0.14999999963E+04  0.15000000000E+04  0.10566000000E+00 0.  1.
        994   -1    0    0    0    0 -0.00000000000E+00 -0.00000000000E+00  0.11368683772E-12  0.17120000000E+03  0.17120000000E+03 0.  0.
         13    1    1    2    0    0 -0.16194086651E+02 -0.75851944635E+01  0.31787940582E+02  0.36472838496E+02  0.10566000000E+00 0.  1.
        994    1    1    2    0    0 -0.15694614442E+02 -0.31675472428E+01  0.59564827842E+01  0.17205020769E+03  0.17120000000E+03 0.  0.
        998    1    1    2    0    0  0.31888701093E+02  0.10752741706E+02  0.14622555729E+04  0.14626769538E+04  0.10000000000E+02 0.  1.
</event>
<event>
 5    1  0.1520352E-008  0.4294893E+03  0.7957747E-01  0.3260443E+00
         13   -1    0    0    0    0  0.00000000000E+00  0.00000000000E+00  0.14999999963E+04  0.15000000000E+04  0.10566000000E+00 0. -1.
        994   -1    0    0    0    0 -0.00000000000E+00 -0.00000000000E+00  0.11368683772E-12  0.17120000000E+03  0.17120000000E+03 0.  0.
         13    1    1    2    0    0 -0.33284241672E+02 -0.56305013797E+02  0.28749591115E+02  0.71446801718E+02  0.10566000000E+00 0. -1.
        994    1    1    2    0    0  0.34264820660E+02  0.60665467817E+02  0.68744498720E+02  0.19720452080E+03  0.17120000000E+03 0.  0.
        998    1    1    2    0    0 -0.98057898818E+00 -0.43604540205E+01  0.14025059064E+04  0.14025486775E+04  0.10000000000E+02 0. -1.
</event>
<event>
 5    1  0.1520352E-008  0.3853365E+03  0.7957747E-01  0.3428246E+00
         13   -1    0    0    0    0  0.00000000000E+00  0.00000000000E+00  0.14999999963E+04  0.15000000000E+04  0.10566000000E+00 0.  1.
        994   -1    0    0    0    0 -0.00000000000E+00 -0.00000000000E+00  0.11368683772E-12  0.17120000000E+03  0.17120000000E+03 0.  0.
         13    1    1    2    0    0  0.10363254559E+02  0.48112982224E+01  0.46966921132E+02  0.48336823233E+02  0.10566000000E+00 0.  1.
        994    1    1    2    0    0  0.46796950172E+01 -0.79998415934E+01  0.17453782136E+01  0.17145956770E+03  0.17120000000E+03 0.  0.
        998    1    1    2    0    0 -0.15042949576E+02  0.31885433711E+01  0.14512876969E+04  0.14514036091E+04  0.10000000000E+02 0.  1.
</event>
<event>
 5    1  0.1520352E-008  0.3753930E+03  0.7957747E-01  0.3471467E+00
         13   -1    0    0    0    0  0.00000000000E+00  0.00000000000E+00  0.14999999963E+04  0.15000000000E+04  0.10566000000E+00 0. -1.
        994   -1    0    0    0    0 -0.00000000000E+00 -0.00000000000E+00  0.11368683772E-12  0.17120000000E+03  0.17120000000E+03 0.  0.
         13    1    1    2    0    0  0.52141059506E+02  0.36933936944E+02  0.24944443694E+03  0.25749824090E+03  0.10566000000E+00 0. -1.
        994    1    1    2    0    0 -0.61623187518E+02 -0.35436473060E+02  0.23828930418E+02  0.18689681321E+03  0.17120000000E+03 0.  0.
        998    1    1    2    0    0  0.94821280114E+01 -0.14974638839E+01  0.12267266289E+04  0.12268049459E+04  0.10000000000E+02 0. -1.
</event>
<event>
 5    1  0.1520352E-008  0.3792856E+03  0.7957747E-01  0.3454275E+00
         13   -1    0    0    0    0  0.00000000000E+00  0.00000000000E+00  0.14999999963E+04  0.15000000000E+04  0.10566000000E+00 0.  1.
        994   -1    0    0    0    0 -0.00000000000E+00 -0.00000000000E+00  0.11368683772E-12  0.17120000000E+03  0.17120000000E+03 0.  0.
         13    1    1    2    0    0  0.10790244933E+02 -0.12611393756E+02  0.26299363056E+02  0.31098943702E+02  0.10566000000E+00 0.  1.
        994    1    1    2    0    0 -0.37974999908E+02  0.23970055367E+02  0.11281506436E+02  0.17735099819E+03  0.17120000000E+03 0.  0.
        998    1    1    2    0    0  0.27184754976E+02 -0.11358661611E+02  0.14624191268E+04  0.14627500581E+04  0.10000000000E+02 0.  1.
</event>
<event>
 5    1  0.1520352E-008  0.3853059E+03  0.7957747E-01  0.3428376E+00
         13   -1    0    0    0    0  0.00000000000E+00  0.00000000000E+00  0.14999999963E+04  0.15000000000E+04  0.10566000000E+00 0.  1.
        994   -1    0    0    0    0 -0.00000000000E+00 -0.00000000000E+00  0.11368683772E-12  0.17120000000E+03  0.17120000000E+03 0.  0.
         13    1    1    2    0    0  0.33101530335E+01 -0.12691542842E+02  0.51929343570E+02  0.53560248883E+02  0.10566000000E+00 0.  1.
        994    1    1    2    0    0 -0.12475681916E+02  0.26434242018E+02  0.42904477203E+01  0.17373042259E+03  0.17120000000E+03 0.  0.
        998    1    1    2    0    0  0.91655288821E+01 -0.13742699176E+02  0.14437802050E+04  0.14439093285E+04  0.10000000000E+02 0.  1.
</event>
<event>
 5    1  0.1520352E-008  0.3821321E+03  0.7957747E-01  0.3441927E+00
         13   -1    0    0    0    0  0.00000000000E+00  0.00000000000E+00  0.14999999963E+04  0.15000000000E+04  0.10566000000E+00 0. -1.
        994   -1    0    0    0    0 -0.00000000000E+00 -0.00000000000E+00  0.11368683772E-12  0.17120000000E+03  0.17120000000E+03 0.  0.
         13    1    1    2    0    0  0.21101746600E+02  0.13516843577E+02  0.11343692720E+03  0.11617201206E+03  0.10566000000E+00 0. -1.
        994    1    1    2    0    0 -0.32114261434E+01  0.84366988009E+01  0.33312961989E+01  0.17147019764E+03  0.17120000000E+03 0.  0.
        998    1    1    2    0    0 -0.17890320457E+02 -0.21953542378E+02  0.13832317729E+04  0.13835577903E+04  0.10000000000E+02 0. -1.
</event>
<event>
 5    1  0.1520352E-008  0.3845772E+03  0.7957747E-01  0.3431468E+00
         13   -1    0    0    0    0  0.00000000000E+00  0.00000000000E+00  0.14999999963E+04  0.15000000000E+04  0.10566000000E+00 0.  1.
        994   -1    0    0    0    0 -0.00000000000E+00 -0.00000000000E+00  0.11368683772E-12  0.17120000000E+03  0.17120000000E+03 0.  0.
         13    1    1    2    0    0  0.79294695810E+01  0.14369590198E+02  0.74435519374E+02  0.76223482725E+02  0.10566000000E+00 0.  1.
        994    1    1    2    0    0 -0.26470362906E+00 -0.86103234407E+01  0.20846361184E+01  0.17142926660E+03  0.17120000000E+03 0.  0.
        998    1    1    2    0    0 -0.76647659520E+01 -0.57592667571E+01  0.14234798408E+04  0.14235472507E+04  0.10000000000E+02 0.  1.
</event>
<event>
 5    1  0.1520352E-008  0.3712527E+03  0.7957747E-01  0.3490154E+00
         13   -1    0    0    0    0  0.00000000000E+00  0.00000000000E+00  0.14999999963E+04  0.15000000000E+04  0.10566000000E+00 0. -1.
        994   -1    0    0    0    0 -0.00000000000E+00 -0.00000000000E+00  0.11368683772E-12  0.17120000000E+03  0.17120000000E+03 0.  0.
         13    1    1    2    0    0 -0.55401937243E+02  0.26469405483E+02  0.19085200137E+03  0.20048566450E+03  0.10566000000E+00 0. -1.
        994    1    1    2    0    0  0.47873369673E+02 -0.38983827333E+02  0.21854732754E+02  0.18329939351E+03  0.17120000000E+03 0.  0.
        998    1    1    2    0    0  0.75285675698E+01  0.12514421850E+02  0.12872932622E+04  0.12874149420E+04  0.10000000000E+02 0. -1.
</event>
<event>
 5    1  0.1520352E-008  0.3841664E+03  0.7957747E-01  0.3433215E+00
         13   -1    0    0    0    0  0.00000000000E+00  0.00000000000E+00  0.14999999963E+04  0.15000000000E+04  0.10566000000E+00 0.  1.
        994   -1    0    0    0    0 -0.00000000000E+00 -0.00000000000E+00  0.11368683772E-12  0.17120000000E+03  0.17120000000E+03 0.  0.
         13    1    1    2    0    0 -0.15222843326E+02  0.58447969367E+01  0.60965368554E+02  0.63108509229E+02  0.10566000000E+00 0.  1.
        994    1    1    2    0    0  0.22013116559E+02 -0.23960420013E+01  0.36631003735E+01  0.17266492586E+03  0.17120000000E+03 0.  0.
        998    1    1    2    0    0 -0.67902732328E+01 -0.34487549355E+01  0.14353715274E+04  0.14354265649E+04  0.10000000000E+02 0.  1.
</event>
<event>
 5    1  0.1520352E-008  0.3753591E+03  0.7957747E-01  0.3471618E+00
         13   -1    0    0    0    0  0.00000000000E+00  0.00000000000E+00  0.14999999963E+04  0.15000000000E+04  0.10566000000E+00 0.  1.
        994   -1    0    0    0    0 -0.00000000000E+00 -0.00000000000E+00  0.11368683772E-12  0.17120000000E+03  0.17120000000E+03 0.  0.
         13    1    1    2    0    0 -0.46160954927E+02 -0.50863268825E+02  0.30624153568E+03  0.31384995653E+03  0.10566000000E+00 0.  1.
        994    1    1    2    0    0  0.35779139583E+02  0.49997657902E+02  0.19437549973E+02  0.18294034813E+03  0.17120000000E+03 0.  0.
        998    1    1    2    0    0  0.10381815345E+02  0.86561092372E+00  0.11743209106E+04  0.11744096953E+04  0.10000000000E+02 0.  1.
</event>
<event>
 5    1  0.1520352E-008  0.3798242E+03  0.7957747E-01  0.3451924E+00
         13   -1    0    0    0    0  0.00000000000E+00  0.00000000000E+00  0.14999999963E+04  0.15000000000E+04  0.10566000000E+00 0. -1.
        994   -1    0    0    0    0 -0.00000000000E+00 -0.00000000000E+00  0.11368683772E-12  0.17120000000E+03  0.17120000000E+03 0.  0.
         13    1    1    2    0    0  0.43751911268E+01 -0.15773556707E+02  0.29491226037E+02  0.33729674855E+02  0.10566000000E+00 0. -1.
        994    1    1    2    0    0 -0.10775126421E+01  0.17686782119E+02  0.52728427708E+01  0.17219531401E+03  0.17120000000E+03 0.  0.
        998    1    1    2    0    0 -0.32976784847E+01 -0.19132254122E+01  0.14652359275E+04  0.14652750111E+04  0.10000000000E+02 0. -1.
</event>
<event>
 5    1  0.1520352E-008  0.3847805E+03  0.7957747E-01  0.3430604E+00
         13   -1    0    0    0    0  0.00000000000E+00  0.00000000000E+00  0.14999999963E+04  0.15000000000E+04  0.10566000000E+00 0.  1.
        994   -1    0    0    0    0 -0.00000000000E+00 -0.00000000000E+00  0.11368683772E-12  0.17120000000E+03  0.17120000000E+03 0.  0.
         13    1    1    2    0    0 -0.30531691259E+01  0.14964580518E+02  0.69917535500E+02  0.71566287079E+02  0.10566000000E+00 0.  1.
        994    1    1    2    0    0  0.27618226322E+01 -0.28055093071E+01  0.17901520357E+01  0.17125461509E+03  0.17120000000E+03 0.  0.
        998    1    1    2    0    0  0.29134649371E+00 -0.12159071211E+02  0.14282923087E+04  0.14283790978E+04  0.10000000000E+02 0.  1.
</event>
<event>
 5    1  0.1520352E-008  0.3807305E+03  0.7957747E-01  0.3447984E+00
         13   -1    0    0    0    0  0.00000000000E+00  0.00000000000E+00  0.14999999963E+04  0.15000000000E+04  0.10566000000E+00 0. -1.
        994   -1    0    0    0    0 -0.00000000000E+00 -0.00000000000E+00  0.11368683772E-12  0.17120000000E+03  0.17120000000E+03 0.  0.
         13    1    1    2    0    0 -0.14022081524E+03 -0.15132559685E+03  0.88672959353E+03  0.91041237716E+03  0.10566000000E+00 0. -1.
        994    1    1    2    0    0  0.14906323293E+03  0.17579387427E+03  0.20794534109E+03  0.35450534343E+03  0.17120000000E+03 0.  0.
        998    1    1    2    0    0 -0.88424176858E+01 -0.24468277415E+02  0.40532506166E+03  0.40628227941E+03  0.10000000000E+02 0.  1.
</event>
<event>
 5    1  0.1520352E-008  0.3896889E+03  0.7957747E-01  0.3410026E+00
         13   -1    0    0    0    0  0.00000000000E+00  0.00000000000E+00  0.14999999963E+04  0.15000000000E+04  0.10566000000E+00 0.  1.
        994   -1    0    0    0    0 -0.00000000000E+00 -0.00000000000E+00  0.11368683772E-12  0.17120000000E+03  0.17120000000E+03 0.  0.
         13    1    1    2    0    0  0.99893723254E+02 -0.83748562396E+02  0.35274608590E+03  0.37606168367E+03  0.10566000000E+00 0.  1.
        994    1    1    2    0    0 -0.74161491010E+02  0.59319066828E+02  0.56505303939E+02  0.20376694484E+03  0.17120000000E+03 0.  0.
        998    1    1    2    0    0 -0.25732232244E+02  0.24429495567E+02  0.10907486064E+04  0.10913713715E+04  0.10000000000E+02 0.  1.
</event>
<event>
 5    1  0.1520352E-008  0.3828282E+03  0.7957747E-01  0.3438936E+00
         13   -1    0    0    0    0  0.00000000000E+00  0.00000000000E+00  0.14999999963E+04  0.15000000000E+04  0.10566000000E+00 0. -1.
        994   -1    0    0    0    0 -0.00000000000E+00 -0.00000000000E+00  0.11368683772E-12  0.17120000000E+03  0.17120000000E+03 0.  0.
         13    1    1    2    0    0  0.16576855300E+02  0.22947133065E+02  0.12549003603E+03  0.12864339608E+03  0.10566000000E+00 0. -1.
        994    1    1    2    0    0 -0.21817205899E+02 -0.33886675588E+02  0.81105886033E+01  0.17606680239E+03  0.17120000000E+03 0.  0.
        998    1    1    2    0    0  0.52403505996E+01  0.10939542524E+02  0.13663993716E+04  0.13664898015E+04  0.10000000000E+02 0. -1.
</event>
<event>
 5    1  0.1520352E-008  0.3853145E+03  0.7957747E-01  0.3428339E+00
         13   -1    0    0    0    0  0.00000000000E+00  0.00000000000E+00  0.14999999963E+04  0.15000000000E+04  0.10566000000E+00 0. -1.
        994   -1    0    0    0    0 -0.00000000000E+00 -0.00000000000E+00  0.11368683772E-12  0.17120000000E+03  0.17120000000E+03 0.  0.
         13    1    1    2    0    0  0.10413268999E+02  0.40637248181E+01  0.41855909007E+02  0.43322953656E+02  0.10566000000E+00 0. -1.
        994    1    1    2    0    0 -0.81261217379E+01 -0.68784079163E+01  0.18465444185E+01  0.17154065430E+03  0.17120000000E+03 0.  0.
        998    1    1    2    0    0 -0.22871472615E+01  0.28146830982E+01  0.14562975429E+04  0.14563363920E+04  0.10000000000E+02 0. -1.
</event>
<event>
 5    1  0.1520352E-008  0.3813805E+03  0.7957747E-01  0.3445170E+00
         13   -1    0    0    0    0  0.00000000000E+00  0.00000000000E+00  0.14999999963E+04  0.15000000000E+04  0.10566000000E+00 0.  1.
        994   -1    0    0    0    0 -0.00000000000E+00 -0.00000000000E+00  0.11368683772E-12  0.17120000000E+03  0.17120000000E+03 0.  0.
         13    1    1    2    0    0  0.43679550098E+01  0.13133490337E+02  0.26603903005E+02  0.29989104997E+02  0.10566000000E+00 0.  1.
        994    1    1    2    0    0 -0.60188601484E+01 -0.70534333806E+01  0.37240821021E+01  0.17149135951E+03  0.17120000000E+03 0.  0.
        998    1    1    2    0    0  0.16509051386E+01 -0.60800569566E+01  0.14696720112E+04  0.14697195355E+04  0.10000000000E+02 0. -1.
</event>
<event>
 5    1  0.1520352E-008  0.3846847E+03  0.7957747E-01  0.3431011E+00
         13   -1    0    0    0    0  0.00000000000E+00  0.00000000000E+00  0.14999999963E+04  0.15000000000E+04  0.10566000000E+00 0. -1.
        994   -1    0    0    0    0 -0.00000000000E+00 -0.00000000000E+00  0.11368683772E-12  0.17120000000E+03  0.17120000000E+03 0.  0.
         13    1    1    2    0    0  0.11009922562E+02  0.96302128995E+01  0.53315136329E+02  0.55285389761E+02  0.10566000000E+00 0. -1.
        994    1    1    2    0    0 -0.24076732526E+02 -0.18884253509E+02  0.48751856654E+01  0.17398135393E+03  0.17120000000E+03 0.  0.
        998    1    1    2    0    0  0.13066809964E+02  0.92540406093E+01  0.14418096743E+04  0.14419332563E+04  0.10000000000E+02 0. -1.
</event>
<event>
 5    1  0.1520352E-008  0.3822288E+03  0.7957747E-01  0.3441511E+00
         13   -1    0    0    0    0  0.00000000000E+00  0.00000000000E+00  0.14999999963E+04  0.15000000000E+04  0.10566000000E+00 0.  1.
        994   -1    0    0    0    0 -0.00000000000E+00 -0.00000000000E+00  0.11368683772E-12  0.17120000000E+03  0.17120000000E+03 0.  0.
         13    1    1    2    0    0  0.11237513775E+02 -0.31074317001E+02  0.18800693659E+03  0.19088874839E+03  0.10566000000E+00 0.  1.
        994    1    1    2    0    0  0.34691568955E+01  0.16562503094E+02  0.39631112007E+01  0.17207991692E+03  0.17120000000E+03 0.  0.
        998    1    1    2    0    0 -0.14706670671E+02  0.14511813907E+02  0.13080299485E+04  0.13082313347E+04  0.10000000000E+02 0.  1.
</event>
<event>
 5    1  0.1520352E-008  0.3701262E+03  0.7957747E-01  0.3495311E+00
         13   -1    0    0    0    0  0.00000000000E+00  0.00000000000E+00  0.14999999963E+04  0.15000000000E+04  0.10566000000E+00 0. -1.
        994   -1    0    0    0    0 -0.00000000000E+00 -0.00000000000E+00  0.11368683772E-12  0.17120000000E+03  0.17120000000E+03 0.  0.
         13    1    1    2    0    0 -0.17882196891E+02  0.69709918909E+02  0.26123513936E+03  0.27096688905E+03  0.10566000000E+00 0. -1.
        994    1    1    2    0    0 -0.74353101051E+01 -0.56362784248E+02  0.20457818427E+02  0.18154891798E+03  0.17120000000E+03 0.  0.
        998    1    1    2    0    0  0.25317506996E+02 -0.13347134661E+02  0.12183070385E+04  0.12186841930E+04  0.10000000000E+02 0. -1.
</event>
<event>
 5    1  0.1520352E-008  0.3994865E+03  0.7957747E-01  0.3370464E+00
         13   -1    0    0    0    0  0.00000000000E+00  0.00000000000E+00  0.14999999963E+04  0.15000000000E+04  0.10566000000E+00 0. -1.
        994   -1    0    0    0    0 -0.00000000000E+00 -0.00000000000E+00  0.11368683772E-12  0.17120000000E+03  0.17120000000E+03 0.  0.
         13    1    1    2    0    0  0.12604793270E+03 -0.23960365209E+02  0.24406049762E+03  0.27573124252E+03  0.10566000000E+00 0. -1.
        994    1    1    2    0    0 -0.12034679123E+03  0.30091374331E+02  0.90530968948E+02  0.22998725466E+03  0.17120000000E+03 0.  0.
        998    1    1    2    0    0 -0.57011414746E+01 -0.61310091216E+01  0.11654085297E+04  0.11654815028E+04  0.10000000000E+02 0. -1.
</event>
<event>
 5    1  0.1520352E-008  0.3768419E+03  0.7957747E-01  0.3465026E+00
         13   -1    0    0    0    0  0.00000000000E+00  0.00000000000E+00  0.14999999963E+04  0.15000000000E+04  0.10566000000E+00 0.  1.
        994   -1    0    0    0    0 -0.00000000000E+00 -0.00000000000E+00  0.11368683772E-12  0.17120000000E+03  0.17120000000E+03 0.  0.
         13    1    1    2    0    0 -0.17374055819E+02  0.12601272966E+02  0.37090775831E+02  0.42853082873E+02  0.10566000000E+00 0.  1.
        994    1    1    2    0    0  0.19909153206E+02 -0.87838927593E+01  0.73372038446E+01  0.17273333701E+03  0.17120000000E+03 0.  0.
        998    1    1    2    0    0 -0.25350973877E+01 -0.38173802071E+01  0.14555720166E+04  0.14556135801E+04  0.10000000000E+02 0.  1.
</event>
<event>
 5    1  0.1520352E-008  0.3828025E+03  0.7957747E-01  0.3439046E+00
         13   -1    0    0    0    0  0.00000000000E+00  0.00000000000E+00  0.14999999963E+04  0.15000000000E+04  0.10566000000E+00 0. -1.
        994   -1    0    0    0    0 -0.00000000000E+00 -0.00000000000E+00  0.11368683772E-12  0.17120000000E+03  0.17120000000E+03 0.  0.
         13    1    1    2    0    0  0.35307297500E+01  0.20300731965E+02  0.83940915110E+02  0.86433061756E+02  0.10566000000E+00 0. -1.
        994    1    1    2    0    0 -0.49921284386E+01  0.26245823553E+01  0.28304687803E+01  0.17131626114E+03  0.17120000000E+03 0.  0.
        998    1    1    2    0    0  0.14613986886E+01 -0.22925314320E+02  0.14132286124E+04  0.14134506771E+04  0.10000000000E+02 0. -1.
</event>
<event>
 5    1  0.1520352E-008  0.3862353E+03  0.7957747E-01  0.3424450E+00
         13   -1    0    0    0    0  0.00000000000E+00  0.00000000000E+00  0.14999999963E+04  0.15000000000E+04  0.10566000000E+00 0. -1.
        994   -1    0    0    0    0 -0.00000000000E+00 -0.00000000000E+00  0.11368683772E-12  0.17120000000E+03  0.17120000000E+03 0.  0.
         13    1    1    2    0    0 -0.40336889570E+01 -0.97783435525E+01  0.52292524607E+02  0.53351719213E+02  0.10566000000E+00 0. -1.
        994    1    1    2    0    0  0.13487539533E+02  0.12296415148E+02  0.21099467945E+01  0.17218306370E+03  0.17120000000E+03 0.  0.
        998    1    1    2    0    0 -0.94538505762E+01 -0.25180715953E+01  0.14455975249E+04  0.14456652171E+04  0.10000000000E+02 0. -1.
</event>
<event>
 5    1  0.1520352E-008  0.3738509E+03  0.7957747E-01  0.3478378E+00
         13   -1    0    0    0    0  0.00000000000E+00  0.00000000000E+00  0.14999999963E+04  0.15000000000E+04  0.10566000000E+00 0.  1.
        994   -1    0    0    0    0 -0.00000000000E+00 -0.00000000000E+00  0.11368683772E-12  0.17120000000E+03  0.17120000000E+03 0.  0.
         13    1    1    2    0    0 -0.17158271319E+02 -0.16738167620E+02  0.17852929862E+02  0.29888305383E+02  0.10566000000E+00 0.  1.
        994    1    1    2    0    0  0.34685777308E+02 -0.66942278885E+02  0.33418280916E+02  0.19002787519E+03  0.17120000000E+03 0.  0.
        998    1    1    2    0    0 -0.17527505988E+02  0.83680446505E+02  0.14487287855E+04  0.14512838194E+04  0.10000000000E+02 0.  1.
</event>
<event>
 5    1  0.1520352E-008  0.3775324E+03  0.7957747E-01  0.3461974E+00
         13   -1    0    0    0    0  0.00000000000E+00  0.00000000000E+00  0.14999999963E+04  0.15000000000E+04  0.10566000000E+00 0. -1.
        994   -1    0    0    0    0 -0.00000000000E+00 -0.00000000000E+00  0.11368683772E-12  0.17120000000E+03  0.17120000000E+03 0.  0.
         13    1    1    2    0    0  0.78383057223E+01 -0.79519321401E+02  0.42868329765E+03  0.43606667192E+03  0.10566000000E+00 0. -1.
        994    1    1    2    0    0 -0.19184956308E+02  0.76847735434E+02  0.26829476353E+02  0.19053319341E+03  0.17120000000E+03 0.  0.
        998    1    1    2    0    0  0.11346650585E+02  0.26715859672E+01  0.10444872223E+04  0.10446001347E+04  0.10000000000E+02 0.  0.
</event>
<event>
 5    1  0.1520352E-008  0.3806055E+03  0.7957747E-01  0.3448526E+00
         13   -1    0    0    0    0  0.00000000000E+00  0.00000000000E+00  0.14999999963E+04  0.15000000000E+04  0.10566000000E+00 0. -1.
        994   -1    0    0    0    0 -0.00000000000E+00 -0.00000000000E+00  0.11368683772E-12  0.17120000000E+03  0.17120000000E+03 0.  0.
         13    1    1    2    0    0 -0.20379647086E+02 -0.34598521614E+01  0.61011219330E+02  0.64418014875E+02  0.10566000000E+00 0. -1.
        994    1    1    2    0    0 -0.16567340163E+02  0.18804869509E+02  0.59261318702E+01  0.17312613586E+03  0.17120000000E+03 0.  0.
        998    1    1    2    0    0  0.36946987249E+02 -0.15345017347E+02  0.14330626451E+04  0.14336558493E+04  0.10000000000E+02 0. -1.
</event>
<event>
 5    1  0.1520352E-008  0.3810032E+03  0.7957747E-01  0.3446802E+00
         13   -1    0    0    0    0  0.00000000000E+00  0.00000000000E+00  0.14999999963E+04  0.15000000000E+04  0.10566000000E+00 0.  1.
        994   -1    0    0    0    0 -0.00000000000E+00 -0.00000000000E+00  0.11368683772E-12  0.17120000000E+03  0.17120000000E+03 0.  0.
         13    1    1    2    0    0  0.79795233508E+01 -0.18265772093E+02  0.53440912797E+02  0.57037299618E+02  0.10566000000E+00 0.  1.
        994    1    1    2    0    0  0.18273710182E+02  0.22512781574E+02  0.64339034833E+01  0.17375727016E+03  0.17120000000E+03 0.  0.
        998    1    1    2    0    0 -0.26253233533E+02 -0.42470094801E+01  0.14401251800E+04  0.14404054302E+04  0.10000000000E+02 0.  1.
</event>
<event>
 5    1  0.1520352E-008  0.3898819E+03  0.7957747E-01  0.3409228E+00
         13   -1    0    0    0    0  0.00000000000E+00  0.00000000000E+00  0.14999999963E+04  0.15000000000E+04  0.10566000000E+00 0. -1.
        994   -1    0    0    0    0 -0.00000000000E+00 -0.00000000000E+00  0.11368683772E-12  0.17120000000E+03  0.17120000000E+03 0.  0.
         13    1    1    2    0    0 -0.82496387624E+02  0.23181059708E+02  0.17949595702E+03  0.19890154663E+03  0.10566000000E+00 0. -1.
        994    1    1    2    0    0  0.24047763456E+02 -0.15157830404E+02  0.24909136703E+02  0.17532244534E+03  0.17120000000E+03 0.  0.
        998    1    1    2    0    0  0.58448624168E+02 -0.80232293041E+01  0.12955949026E+04  0.12969760080E+04  0.10000000000E+02 0. -1.
</event>
<event>
 5    1  0.1877170E-008  0.3863748E+03  0.7957747E-01  0.3423862E+00
         13   -1    0    0    0    0  0.00000000000E+00  0.00000000000E+00  0.14999999963E+04  0.15000000000E+04  0.10566000000E+00 0.  1.
        994   -1    0    0    0    0 -0.00000000000E+00 -0.00000000000E+00  0.11368683772E-12  0.17120000000E+03  0.17120000000E+03 0.  0.
         13    1    1    2    0    0 -0.50053930370E+00 -0.11025777483E+02  0.64395758635E+02  0.65334854426E+02  0.10566000000E+00 0.  1.
        994    1    1    2    0    0 -0.98047193971E+00  0.92937070411E+01  0.12350843869E+01  0.17145932389E+03  0.17120000000E+03 0.  0.
        998    1    1    2    0    0  0.14810112434E+01  0.17320704414E+01  0.14343691533E+04  0.14344058217E+04  0.10000000000E+02 0.  1.
</event>
<event>
 5    1  0.1520352E-008  0.3776764E+03  0.7957747E-01  0.3461339E+00
         13   -1    0    0    0    0  0.00000000000E+00  0.00000000000E+00  0.14999999963E+04  0.15000000000E+04  0.10566000000E+00 0.  1.
        994   -1    0    0    0    0 -0.00000000000E+00 -0.00000000000E+00  0.11368683772E-12  0.17120000000E+03  0.17120000000E+03 0.  0.
         13    1    1    2    0    0 -0.41765564200E+02  0.29540202936E+02  0.29604452635E+03  0.30043195351E+03  0.10566000000E+00 0.  1.
        994    1    1    2    0    0 -0.94281434706E+00 -0.13758665802E+02  0.59516831440E+01  0.17185765132E+03  0.17120000000E+03 0.  0.
        998    1    1    2    0    0  0.42708378547E+02 -0.15781537134E+02  0.11980037868E+04  0.11989103952E+04  0.10000000000E+02 0.  1.
</event>
<event>
 5    1  0.1520352E-008  0.3849202E+03  0.7957747E-01  0.3430011E+00
         13   -1    0    0    0    0  0.00000000000E+00  0.00000000000E+00  0.14999999963E+04  0.15000000000E+04  0.10566000000E+00 0.  1.
        994   -1    0    0    0    0 -0.00000000000E+00 -0.00000000000E+00  0.11368683772E-12  0.17120000000E+03  0.17120000000E+03 0.  0.
         13    1    1    2    0    0 -0.15039337007E+02  0.90927717588E+01  0.81452523624E+02  0.83326975972E+02  0.10566000000E+00 0.  1.
        994    1    1    2    0    0  0.22543717666E+02 -0.20605527897E+02  0.47442862233E+01  0.17396768446E+03  0.17120000000E+03 0.  0.
        998    1    1    2    0    0 -0.75043806593E+01  0.11512756139E+02  0.14138031864E+04  0.14139053396E+04  0.10000000000E+02 0.  1.
</event>
<event>
 5    1  0.1520352E-008  0.3689694E+03  0.7957747E-01  0.3500641E+00
         13   -1    0    0    0    0  0.00000000000E+00  0.00000000000E+00  0.14999999963E+04  0.15000000000E+04  0.10566000000E+00 0.  1.
        994   -1    0    0    0    0 -0.00000000000E+00 -0.00000000000E+00  0.11368683772E-12  0.17120000000E+03  0.17120000000E+03 0.  0.
         13    1    1    2    0    0 -0.43761901545E+02  0.70441440598E+02  0.23419323863E+03  0.24844231678E+03  0.10566000000E+00 0.  1.
        994    1    1    2    0    0  0.86565540528E+02 -0.77678492986E+02  0.59120210945E+02  0.21524911248E+03  0.17120000000E+03 0.  0.
        998    1    1    2    0    0 -0.42803638983E+02  0.72370523874E+01  0.12066865467E+04  0.12075085707E+04  0.10000000000E+02 0.  1.
</event>
<event>
 5    1  0.1520352E-008  0.3841284E+03  0.7957747E-01  0.3433377E+00
         13   -1    0    0    0    0  0.00000000000E+00  0.00000000000E+00  0.14999999963E+04  0.15000000000E+04  0.10566000000E+00 0. -1.
        994   -1    0    0    0    0 -0.00000000000E+00 -0.00000000000E+00  0.11368683772E-12  0.17120000000E+03  0.17120000000E+03 0.  0.
         13    1    1    2    0    0  0.14883496864E+02 -0.17448786712E+01  0.55492931167E+02  0.57480776387E+02  0.10566000000E+00 0. -1.
        994    1    1    2    0    0 -0.53641946806E+01 -0.46418965502E+01  0.22294709017E+01  0.17136140852E+03  0.17120000000E+03 0.  0.
        998    1    1    2    0    0 -0.95193021831E+01  0.63867752214E+01  0.14422775942E+04  0.14423578151E+04  0.10000000000E+02 0. -1.
</event>
<event>
 5    1  0.1520352E-008  0.3833189E+03  0.7957747E-01  0.3436833E+00
         13   -1    0    0    0    0  0.00000000000E+00  0.00000000000E+00  0.14999999963E+04  0.15000000000E+04  0.10566000000E+00 0. -1.
        994   -1    0    0    0    0 -0.00000000000E+00 -0.00000000000E+00  0.11368683772E-12  0.17120000000E+03  0.17120000000E+03 0.  0.
         13    1    1    2    0    0 -0.89824745643E+01  0.15574619167E+02  0.66016374724E+02  0.68420950792E+02  0.10566000000E+00 0. -1.
        994    1    1    2    0    0  0.44292114939E+01 -0.69881254760E+01  0.26934655173E+01  0.17142096304E+03  0.17120000000E+03 0.  0.
        998    1    1    2    0    0  0.45532630704E+01 -0.85864936906E+01  0.14312901560E+04  0.14313580862E+04  0.10000000000E+02 0. -1.
</event>
<event>
 5    1  0.1520352E-008  0.3716510E+03  0.7957747E-01  0.3488337E+00
         13   -1    0    0    0    0  0.00000000000E+00  0.00000000000E+00  0.14999999963E+04  0.15000000000E+04  0.10566000000E+00 0.  1.
        994   -1    0    0    0    0 -0.00000000000E+00 -0.00000000000E+00  0.11368683772E-12  0.17120000000E+03  0.17120000000E+03 0.  0.
         13    1    1    2    0    0 -0.42935633711E+02  0.92056025841E+02  0.30326903657E+03  0.31982792286E+03  0.10566000000E+00 0.  1.
        994    1    1    2    0    0  0.61004362785E+02 -0.10357213119E+03  0.64512048230E+02  0.21890628818E+03  0.17120000000E+03 0.  0.
        998    1    1    2    0    0 -0.18068729074E+02  0.11516105348E+02  0.11322189115E+04  0.11324657890E+04  0.10000000000E+02 0.  1.
</event>
<event>
 5    1  0.1520352E-008  0.3799179E+03  0.7957747E-01  0.3451516E+00
         13   -1    0    0    0    0  0.00000000000E+00  0.00000000000E+00  0.14999999963E+04  0.15000000000E+04  0.10566000000E+00 0. -1.
        994   -1    0    0    0    0 -0.00000000000E+00 -0.00000000000E+00  0.11368683772E-12  0.17120000000E+03  0.17120000000E+03 0.  0.
         13    1    1    2    0    0 -0.47555450499E+02  0.16401785508E+02  0.27145497730E+03  0.27607671996E+03  0.10566000000E+00 0. -1.
        994    1    1    2    0    0  0.41013039604E+02 -0.68138141921E+01  0.99761498713E+01  0.17645809998E+03  0.17120000000E+03 0.  0.
        998    1    1    2    0    0  0.65424108957E+01 -0.95879713160E+01  0.12185688691E+04  0.12186651801E+04  0.10000000000E+02 0. -1.
</event>
<event>
 5    1  0.1520352E-008  0.3684183E+03  0.7957747E-01  0.3503192E+00
         13   -1    0    0    0    0  0.00000000000E+00  0.00000000000E+00  0.14999999963E+04  0.15000000000E+04  0.10566000000E+00 0. -1.
        994   -1    0    0    0    0 -0.00000000000E+00 -0.00000000000E+00  0.11368683772E-12  0.17120000000E+03  0.17120000000E+03 0.  0.
         13    1    1    2    0    0  0.13447768206E+02  0.11799072513E+02  0.11317765754E+02  0.21169874057E+02  0.10566000000E+00 0. -1.
        994    1    1    2    0    0 -0.13450904577E+02 -0.83519424890E+01  0.10970157405E+02  0.17228019657E+03  0.17120000000E+03 0.  0.
        998    1    1    2    0    0  0.31363715686E-02 -0.34471300241E+01  0.14777120731E+04  0.14777499294E+04  0.10000000000E+02 0. -1.
</event>
<event>
 5    1  0.1520352E-008  0.3807302E+03  0.7957747E-01  0.3447985E+00
         13   -1    0    0    0    0  0.00000000000E+00  0.00000000000E+00  0.14999999963E+04  0.15000000000E+04  0.10566000000E+00 0. -1.
        994   -1    0    0    0    0 -0.00000000000E+00 -0.00000000000E+00  0.11368683772E-12  0.17120000000E+03  0.17120000000E+03 0.  0.
         13    1    1    2    0    0 -0.21388224114E+02  0.31234803486E+02  0.21346097281E+03  0.21679175989E+03  0.10566000000E+00 0. -1.
        994    1    1    2    0    0  0.19947597910E+01 -0.71513040830E+01  0.39488301690E+01  0.17140639859E+03  0.17120000000E+03 0.  0.
        998    1    1    2    0    0  0.19393464323E+02 -0.24083499403E+02  0.12825901933E+04  0.12830018415E+04  0.10000000000E+02 0. -1.
</event>
<event>
 5    1  0.1520352E-008  0.3780669E+03  0.7957747E-01  0.3459619E+00
         13   -1    0    0    0    0  0.00000000000E+00  0.00000000000E+00  0.14999999963E+04  0.15000000000E+04  0.10566000000E+00 0. -1.
        994   -1    0    0    0    0 -0.00000000000E+00 -0.00000000000E+00  0.11368683772E-12  0.17120000000E+03  0.17120000000E+03 0.  0.
         13    1    1    2    0    0 -0.53117574123E+02 -0.14698130698E+02  0.27796479481E+03  0.28337598706E+03  0.10566000000E+00 0. -1.
        994    1    1    2    0    0  0.44479876576E+02 -0.11479623452E+02  0.12244938703E+02  0.17767841652E+03  0.17120000000E+03 0.  0.
        998    1    1    2    0    0  0.86376975475E+01  0.26177754151E+02  0.12097902628E+04  0.12101455964E+04  0.10000000000E+02 0. -1.
</event>
<event>
 5    1  0.1520352E-008  0.3830224E+03  0.7957747E-01  0.3438103E+00
         13   -1    0    0    0    0  0.00000000000E+00  0.00000000000E+00  0.14999999963E+04  0.15000000000E+04  0.10566000000E+00 0. -1.
        994   -1    0    0    0    0 -0.00000000000E+00 -0.00000000000E+00  0.11368683772E-12  0.17120000000E+03  0.17120000000E+03 0.  0.
         13    1    1    2    0    0 -0.23966457950E+00  0.21563733151E+02  0.94414886980E+02  0.96846445851E+02  0.10566000000E+00 0. -1.
        994    1    1    2    0    0  0.13801903122E+01 -0.24475774393E+01  0.26413135298E+01  0.17124342936E+03  0.17120000000E+03 0.  0.
        998    1    1    2    0    0 -0.11405257327E+01 -0.19116155712E+02  0.14029437958E+04  0.14031101248E+04  0.10000000000E+02 0. -1.
</event>
<event>
 5    1  0.1520352E-008  0.3717490E+03  0.7957747E-01  0.3487891E+00
         13   -1    0    0    0    0  0.00000000000E+00  0.00000000000E+00  0.14999999963E+04  0.15000000000E+04  0.10566000000E+00 0.  1.
        994   -1    0    0    0    0 -0.00000000000E+00 -0.00000000000E+00  0.11368683772E-12  0.17120000000E+03  0.17120000000E+03 0.  0.
         13    1    1    2    0    0  0.43266864214E+01  0.23777120175E+02  0.21282428338E+02  0.32202866009E+02  0.10566000000E+00 0.  1.
        994    1    1    2    0    0 -0.17337539632E+01  0.19399197769E+02  0.13202054258E+02  0.17280934296E+03  0.17120000000E+03 0.  0.
        998    1    1    2    0    0 -0.25929324582E+01 -0.43176317944E+02  0.14655155137E+04  0.14661877910E+04  0.10000000000E+02 0.  1.
</event>
<event>
 5    1  0.1520352E-008  0.3738476E+03  0.7957747E-01  0.3478393E+00
         13   -1    0    0    0    0  0.00000000000E+00  0.00000000000E+00  0.14999999963E+04  0.15000000000E+04  0.10566000000E+00 0.  1.
        994   -1    0    0    0    0 -0.00000000000E+00 -0.00000000000E+00  0.11368683772E-12  0.17120000000E+03  0.17120000000E+03 0.  0.
         13    1    1    2    0    0 -0.61065511880E+02 -0.33334783688E+02  0.31110390272E+03  0.31878810203E+03  0.10566000000E+00 0.  1.
        994    1    1    2    0    0  0.47869519225E+02  0.12808455812E+02  0.15697885032E+02  0.17891733009E+03  0.17120000000E+03 0.  0.
        998    1    1    2    0    0  0.13195992655E+02  0.20526327876E+02  0.11731982085E+04  0.11734945679E+04  0.10000000000E+02 0.  1.
</event>
<event>
 5    1  0.1520352E-008  0.3732212E+03  0.7957747E-01  0.3481217E+00
         13   -1    0    0    0    0  0.00000000000E+00  0.00000000000E+00  0.14999999963E+04  0.15000000000E+04  0.10566000000E+00 0. -1.
        994   -1    0    0    0    0 -0.00000000000E+00 -0.00000000000E+00  0.11368683772E-12  0.17120000000E+03  0.17120000000E+03 0.  0.
         13    1    1    2    0    0  0.38915847477E+02 -0.11134329490E+01  0.11564054463E+03  0.12201815293E+03  0.10566000000E+00 0. -1.
        994    1    1    2    0    0  0.16317263636E+02  0.34176355065E+01  0.85460613798E+01  0.17222197447E+03  0.17120000000E+03 0.  0.
        998    1    1    2    0    0 -0.55233111112E+02 -0.23042025575E+01  0.13758133903E+04  0.13769598726E+04  0.10000000000E+02 0. -1.
</event>
<event>
 5    1  0.1520352E-008  0.3749852E+03  0.7957747E-01  0.3473289E+00
         13   -1    0    0    0    0  0.00000000000E+00  0.00000000000E+00  0.14999999963E+04  0.15000000000E+04  0.10566000000E+00 0.  1.
        994   -1    0    0    0    0 -0.00000000000E+00 -0.00000000000E+00  0.11368683772E-12  0.17120000000E+03  0.17120000000E+03 0.  0.
         13    1    1    2    0    0 -0.45169283944E+02 -0.49190347807E+01  0.76319747010E+02  0.88821033899E+02  0.10566000000E+00 0.  1.
        994    1    1    2    0    0  0.75564000622E+01 -0.10034162112E+02  0.14161104323E+02  0.17224331763E+03  0.17120000000E+03 0.  0.
        998    1    1    2    0    0  0.37612883882E+02  0.14953196893E+02  0.14095191449E+04  0.14101356485E+04  0.10000000000E+02 0.  1.
</event>
<event>
 5    1  0.1520352E-008  0.3733220E+03  0.7957747E-01  0.3480762E+00
         13   -1    0    0    0    0  0.00000000000E+00  0.00000000000E+00  0.14999999963E+04  0.15000000000E+04  0.10566000000E+00 0. -1.
        994   -1    0    0    0    0 -0.00000000000E+00 -0.00000000000E+00  0.11368683772E-12  0.17120000000E+03  0.17120000000E+03 0.  0.
         13    1    1    2    0    0  0.31860182644E+02  0.18968229894E+02  0.90719292781E+02  0.98004419442E+02  0.10566000000E+00 0. -1.
        994    1    1    2    0    0 -0.16702116868E+02 -0.41900058501E+01  0.85572545199E+01  0.17227647391E+03  0.17120000000E+03 0.  0.
        998    1    1    2    0    0 -0.15158065776E+02 -0.14778224044E+02  0.14007234490E+04  0.14009191067E+04  0.10000000000E+02 0. -1.
</event>
<event>
 5    1  0.1520352E-008  0.3707403E+03  0.7957747E-01  0.3492496E+00
         13   -1    0    0    0    0  0.00000000000E+00  0.00000000000E+00  0.14999999963E+04  0.15000000000E+04  0.10566000000E+00 0. -1.
        994   -1    0    0    0    0 -0.00000000000E+00 -0.00000000000E+00  0.11368683772E-12  0.17120000000E+03  0.17120000000E+03 0.  0.
         13    1    1    2    0    0 -0.56516953909E+02  0.93094453635E+02  0.42568190368E+03  0.43939257806E+03  0.10566000000E+00 0. -1.
        994    1    1    2    0    0  0.61562554196E+02 -0.68478134374E+02  0.41674799691E+02  0.19881003973E+03  0.17120000000E+03 0.  0.
        998    1    1    2    0    0 -0.50456002878E+01 -0.24616319261E+02  0.10326432929E+04  0.10329973822E+04  0.10000000000E+02 0. -1.
</event>
<event>
 5    1  0.1520352E-008  0.3819070E+03  0.7957747E-01  0.3442897E+00
         13   -1    0    0    0    0  0.00000000000E+00  0.00000000000E+00  0.14999999963E+04  0.15000000000E+04  0.10566000000E+00 0. -1.
        994   -1    0    0    0    0 -0.00000000000E+00 -0.00000000000E+00  0.11368683772E-12  0.17120000000E+03  0.17120000000E+03 0.  0.
         13    1    1    2    0    0 -0.20860671484E+02 -0.18140903343E+02  0.13212331225E+03  0.13498459465E+03  0.10566000000E+00 0. -1.
        994    1    1    2    0    0 -0.92269640541E+00  0.36242397424E+01  0.32200741355E+01  0.17127111654E+03  0.17120000000E+03 0.  0.
        998    1    1    2    0    0  0.21783367889E+02  0.14516663601E+02  0.13646566099E+04  0.13649442888E+04  0.10000000000E+02 0. -1.
</event>
<event>
 5    1  0.1520352E-008  0.3851620E+03  0.7957747E-01  0.3428985E+00
         13   -1    0    0    0    0  0.00000000000E+00  0.00000000000E+00  0.14999999963E+04  0.15000000000E+04  0.10566000000E+00 0.  1.
        994   -1    0    0    0    0 -0.00000000000E+00 -0.00000000000E+00  0.11368683772E-12  0.17120000000E+03  0.17120000000E+03 0.  0.
         13    1    1    2    0    0 -0.10155728390E+02 -0.43524175523E+01  0.38717196913E+02  0.40263070654E+02  0.10566000000E+00 0.  1.
        994    1    1    2    0    0  0.90352302201E+01  0.57149290097E+01  0.19254870706E+01  0.17154428961E+03  0.17120000000E+03 0.  0.
        998    1    1    2    0    0  0.11204981701E+01 -0.13625114573E+01  0.14593573123E+04  0.14593926397E+04  0.10000000000E+02 0.  1.
</event>
<event>
 5    1  0.1520352E-008  0.3857278E+03  0.7957747E-01  0.3426592E+00
         13   -1    0    0    0    0  0.00000000000E+00  0.00000000000E+00  0.14999999963E+04  0.15000000000E+04  0.10566000000E+00 0. -1.
        994   -1    0    0    0    0 -0.00000000000E+00 -0.00000000000E+00  0.11368683772E-12  0.17120000000E+03  0.17120000000E+03 0.  0.
         13    1    1    2    0    0  0.11395108895E+02  0.30141259516E-02  0.55168953915E+02  0.56333588168E+02  0.10566000000E+00 0. -1.
        994    1    1    2    0    0  0.25305663341E+01 -0.51029805775E+01  0.13757017386E+01  0.17130025316E+03  0.17120000000E+03 0.  0.
        998    1    1    2    0    0 -0.13925675229E+02  0.50999664515E+01  0.14434553406E+04  0.14435661587E+04  0.10000000000E+02 0. -1.
</event>
<event>
 5    1  0.1520352E-008  0.3761331E+03  0.7957747E-01  0.3468171E+00
         13   -1    0    0    0    0  0.00000000000E+00  0.00000000000E+00  0.14999999963E+04  0.15000000000E+04  0.10566000000E+00 0.  1.
        994   -1    0    0    0    0 -0.00000000000E+00 -0.00000000000E+00  0.11368683772E-12  0.17120000000E+03  0.17120000000E+03 0.  0.
         13    1    1    2    0    0  0.20100642272E+02  0.39689139844E+01  0.31845443269E+02  0.37867288244E+02  0.10566000000E+00 0.  1.
        994    1    1    2    0    0 -0.15159785881E+02 -0.20983036865E+00  0.68767836195E+01  0.17200753847E+03  0.17120000000E+03 0.  0.
        998    1    1    2    0    0 -0.49408563910E+01 -0.37590836157E+01  0.14612777694E+04  0.14613251733E+04  0.10000000000E+02 0.  1.
</event>
<event>
 5    1  0.1520352E-008  0.3845374E+03  0.7957747E-01  0.3431636E+00
         13   -1    0    0    0    0  0.00000000000E+00  0.00000000000E+00  0.14999999963E+04  0.15000000000E+04  0.10566000000E+00 0.  1.
        994   -1    0    0    0    0 -0.00000000000E+00 -0.00000000000E+00  0.11368683772E-12  0.17120000000E+03  0.17120000000E+03 0.  0.
         13    1    1    2    0    0 -0.19386979077E+02 -0.18318352709E+01  0.10198463939E+03  0.10382720459E+03  0.10566000000E+00 0.  1.
        994    1    1    2    0    0  0.11817180545E+02  0.24736289666E+01  0.23402018020E+01  0.17164114058E+03  0.17120000000E+03 0.  0.
        998    1    1    2    0    0  0.75697985319E+01 -0.64179369571E+00  0.13956751551E+04  0.13957316548E+04  0.10000000000E+02 0.  1.
</event>
<event>
 5    1  0.1520352E-008  0.3778307E+03  0.7957747E-01  0.3460659E+00
         13   -1    0    0    0    0  0.00000000000E+00  0.00000000000E+00  0.14999999963E+04  0.15000000000E+04  0.10566000000E+00 0.  1.
        994   -1    0    0    0    0 -0.00000000000E+00 -0.00000000000E+00  0.11368683772E-12  0.17120000000E+03  0.17120000000E+03 0.  0.
         13    1    1    2    0    0  0.14668391698E+02 -0.10862449430E+02  0.28838527201E+02  0.34129552265E+02  0.10566000000E+00 0.  1.
        994    1    1    2    0    0 -0.19060182904E+02  0.12628543557E+02  0.69944212074E+01  0.17286159959E+03  0.17120000000E+03 0.  0.
        998    1    1    2    0    0  0.43917912060E+01 -0.17660941270E+01  0.14641670479E+04  0.14642088481E+04  0.10000000000E+02 0.  1.
</event>
<event>
 5    1  0.1520352E-008  0.3690108E+03  0.7957747E-01  0.3500450E+00
         13   -1    0    0    0    0  0.00000000000E+00  0.00000000000E+00  0.14999999963E+04  0.15000000000E+04  0.10566000000E+00 0.  1.
        994   -1    0    0    0    0 -0.00000000000E+00 -0.00000000000E+00  0.11368683772E-12  0.17120000000E+03  0.17120000000E+03 0.  0.
         13    1    1    2    0    0 -0.11392445079E+02  0.17267000615E+01  0.21714103315E+01  0.11725846871E+02  0.10566000000E+00 0.  1.
        994    1    1    2    0    0  0.15256530858E+02 -0.30759751954E+01  0.10627870965E+02  0.17223418650E+03  0.17120000000E+03 0.  0.
        998    1    1    2    0    0 -0.38640857794E+01  0.13492751339E+01  0.14872007150E+04  0.14872399666E+04  0.10000000000E+02 0.  1.
</event>
<event>
 5    1  0.1520352E-008  0.3823660E+03  0.7957747E-01  0.3440921E+00
         13   -1    0    0    0    0  0.00000000000E+00  0.00000000000E+00  0.14999999963E+04  0.15000000000E+04  0.10566000000E+00 0. -1.
        994   -1    0    0    0    0 -0.00000000000E+00 -0.00000000000E+00  0.11368683772E-12  0.17120000000E+03  0.17120000000E+03 0.  0.
         13    1    1    2    0    0  0.13112366783E+01  0.12087370829E+02  0.24968009088E+02  0.27771145404E+02  0.10566000000E+00 0. -1.
        994    1    1    2    0    0  0.49573144130E+00  0.37138755695E+01  0.29901098708E+01  0.17126709952E+03  0.17120000000E+03 0.  0.
        998    1    1    2    0    0 -0.18069681196E+01 -0.15801246399E+02  0.14720418773E+04  0.14721617551E+04  0.10000000000E+02 0. -1.
</event>
<event>
 5    1  0.1520352E-008  0.3843182E+03  0.7957747E-01  0.3432569E+00
         13   -1    0    0    0    0  0.00000000000E+00  0.00000000000E+00  0.14999999963E+04  0.15000000000E+04  0.10566000000E+00 0. -1.
        994   -1    0    0    0    0 -0.00000000000E+00 -0.00000000000E+00  0.11368683772E-12  0.17120000000E+03  0.17120000000E+03 0.  0.
         13    1    1    2    0    0 -0.10974044748E+02  0.17079909915E+02  0.10773896213E+03  0.10963506786E+03  0.10566000000E+00 0. -1.
        994    1    1    2    0    0 -0.19815407941E+01 -0.11497095912E+02  0.24177575388E+01  0.17161408820E+03  0.17120000000E+03 0.  0.
        998    1    1    2    0    0  0.12955585542E+02 -0.55828140029E+01  0.13898432766E+04  0.13899508439E+04  0.10000000000E+02 0. -1.
</event>
<event>
 5    1  0.1520352E-008  0.3737192E+03  0.7957747E-01  0.3478971E+00
         13   -1    0    0    0    0  0.00000000000E+00  0.00000000000E+00  0.14999999963E+04  0.15000000000E+04  0.10566000000E+00 0. -1.
        994   -1    0    0    0    0 -0.00000000000E+00 -0.00000000000E+00  0.11368683772E-12  0.17120000000E+03  0.17120000000E+03 0.  0.
         13    1    1    2    0    0 -0.58496977269E+01  0.91395592523E+01  0.45849161441E+01  0.11780625064E+02  0.10566000000E+00 0. -1.
        994    1    1    2    0    0  0.56115520185E+01 -0.10442003609E+02  0.78178066509E+01  0.17178790137E+03  0.17120000000E+03 0.  0.
        998    1    1    2    0    0  0.23814570835E+00  0.13024443569E+01  0.14875972735E+04  0.14876314736E+04  0.10000000000E+02 0. -1.
</event>
<event>
 5    1  0.1520352E-008  0.3783611E+03  0.7957747E-01  0.3458326E+00
         13   -1    0    0    0    0  0.00000000000E+00  0.00000000000E+00  0.14999999963E+04  0.15000000000E+04  0.10566000000E+00 0.  1.
        994   -1    0    0    0    0 -0.00000000000E+00 -0.00000000000E+00  0.11368683772E-12  0.17120000000E+03  0.17120000000E+03 0.  0.
         13    1    1    2    0    0 -0.29635700708E+02  0.11413295941E+02  0.89902276175E+02  0.95346570501E+02  0.10566000000E+00 0.  1.
        994    1    1    2    0    0  0.32329654854E+02 -0.35707353872E+02  0.12801256606E+02  0.17830741396E+03  0.17120000000E+03 0.  0.
        998    1    1    2    0    0 -0.26939541463E+01  0.24294057931E+02  0.13972964635E+04  0.13975460155E+04  0.10000000000E+02 0.  1.
</event>
<event>
 5    1  0.1520352E-008  0.3852314E+03  0.7957747E-01  0.3428691E+00
         13   -1    0    0    0    0  0.00000000000E+00  0.00000000000E+00  0.14999999963E+04  0.15000000000E+04  0.10566000000E+00 0.  1.
        994   -1    0    0    0    0 -0.00000000000E+00 -0.00000000000E+00  0.11368683772E-12  0.17120000000E+03  0.17120000000E+03 0.  0.
         13    1    1    2    0    0  0.10765008379E+02 -0.87611926857E+01  0.64378503151E+02  0.65857776570E+02  0.10566000000E+00 0.  1.
        994    1    1    2    0    0 -0.17723656800E+01  0.99274178777E+01  0.18495386689E+01  0.17150672202E+03  0.17120000000E+03 0.  0.
        998    1    1    2    0    0 -0.89926426990E+01 -0.11662251920E+01  0.14337719545E+04  0.14338355014E+04  0.10000000000E+02 0.  1.
</event>
<event>
 5    1  0.1520352E-008  0.3815373E+03  0.7957747E-01  0.3444492E+00
         13   -1    0    0    0    0  0.00000000000E+00  0.00000000000E+00  0.14999999963E+04  0.15000000000E+04  0.10566000000E+00 0.  1.
        994   -1    0    0    0    0 -0.00000000000E+00 -0.00000000000E+00  0.11368683772E-12  0.17120000000E+03  0.17120000000E+03 0.  0.
         13    1    1    2    0    0 -0.17666334010E+02 -0.79819673494E+01  0.54710432588E+02  0.58043550530E+02  0.10566000000E+00 0.  1.
        994    1    1    2    0    0  0.16586511081E+02 -0.53192862555E+01  0.43688959109E+01  0.17213928781E+03  0.17120000000E+03 0.  0.
        998    1    1    2    0    0  0.10798229293E+01  0.13301253605E+02  0.14409206678E+04  0.14410171617E+04  0.10000000000E+02 0.  1.
</event>
<event>
 5    1  0.1520352E-008  0.3767730E+03  0.7957747E-01  0.3465331E+00
         13   -1    0    0    0    0  0.00000000000E+00  0.00000000000E+00  0.14999999963E+04  0.15000000000E+04  0.10566000000E+00 0.  1.
        994   -1    0    0    0    0 -0.00000000000E+00 -0.00000000000E+00  0.11368683772E-12  0.17120000000E+03  0.17120000000E+03 0.  0.
         13    1    1    2    0    0  0.27414654907E+01 -0.57566586930E+02  0.34663876493E+03  0.35139702913E+03  0.10566000000E+00 0.  1.
        994    1    1    2    0    0 -0.14903120516E+02  0.11393952274E+02  0.69611181246E+01  0.17236537447E+03  0.17120000000E+03 0.  0.
        998    1    1    2    0    0  0.12161655025E+02  0.46172634655E+02  0.11464001132E+04  0.11474375964E+04  0.10000000000E+02 0.  1.
</event>
<event>
 5    1  0.1520352E-008  0.3837348E+03  0.7957747E-01  0.3435056E+00
         13   -1    0    0    0    0  0.00000000000E+00  0.00000000000E+00  0.14999999963E+04  0.15000000000E+04  0.10566000000E+00 0.  1.
        994   -1    0    0    0    0 -0.00000000000E+00 -0.00000000000E+00  0.11368683772E-12  0.17120000000E+03  0.17120000000E+03 0.  0.
         13    1    1    2    0    0 -0.27894002171E+02  0.34889797463E+01  0.16044568595E+03  0.16288977144E+03  0.10566000000E+00 0.  1.
        994    1    1    2    0    0  0.26090768742E+02 -0.49279913893E+01  0.45911512735E+01  0.17330762240E+03  0.17120000000E+03 0.  0.
        998    1    1    2    0    0  0.18032334286E+01  0.14390116430E+01  0.13349631591E+04  0.13350026062E+04  0.10000000000E+02 0.  0.
</event>
<event>
 5    1  0.1520352E-008  0.3844366E+03  0.7957747E-01  0.3432065E+00
         13   -1    0    0    0    0  0.00000000000E+00  0.00000000000E+00  0.14999999963E+04  0.15000000000E+04  0.10566000000E+00 0. -1.
        994   -1    0    0    0    0 -0.00000000000E+00 -0.00000000000E+00  0.11368683772E-12  0.17120000000E+03  0.17120000000E+03 0.  0.
         13    1    1    2    0    0 -0.16960064089E+02  0.11819606117E+01  0.73754816203E+02  0.75689001064E+02  0.10566000000E+00 0. -1.
        994    1    1    2    0    0  0.16364018673E+02  0.18476826564E+02  0.39196945508E+01  0.17301438736E+03  0.17120000000E+03 0.  0.
        998    1    1    2    0    0  0.59604541619E+00 -0.19658787176E+02  0.14223254855E+04  0.14224966116E+04  0.10000000000E+02 0. -1.
</event>
<event>
 5    1  0.1520352E-008  0.3824653E+03  0.7957747E-01  0.3440494E+00
         13   -1    0    0    0    0  0.00000000000E+00  0.00000000000E+00  0.14999999963E+04  0.15000000000E+04  0.10566000000E+00 0.  1.
        994   -1    0    0    0    0 -0.00000000000E+00 -0.00000000000E+00  0.11368683772E-12  0.17120000000E+03  0.17120000000E+03 0.  0.
         13    1    1    2    0    0 -0.39167512578E+01  0.12711432594E+02  0.29642782520E+02  0.32490416718E+02  0.10566000000E+00 0.  1.
        994    1    1    2    0    0 -0.22566611039E+01 -0.90898811781E+01  0.31847371915E+01  0.17148557085E+03  0.17120000000E+03 0.  0.
        998    1    1    2    0    0  0.61734123617E+01 -0.36215514156E+01  0.14671724766E+04  0.14672240124E+04  0.10000000000E+02 0.  1.
</event>
<event>
 5    1  0.1520352E-008  0.3834857E+03  0.7957747E-01  0.3436120E+00
         13   -1    0    0    0    0  0.00000000000E+00  0.00000000000E+00  0.14999999963E+04  0.15000000000E+04  0.10566000000E+00 0.  1.
        994   -1    0    0    0    0 -0.00000000000E+00 -0.00000000000E+00  0.11368683772E-12  0.17120000000E+03  0.17120000000E+03 0.  0.
         13    1    1    2    0    0  0.10976862147E+03 -0.60869058616E+02  0.58102891883E+03  0.59443150004E+03  0.10566000000E+00 0.  1.
        994    1    1    2    0    0 -0.53637329461E+02 -0.15108141640E+02  0.29742763117E+02  0.18248093329E+03  0.17120000000E+03 0.  0.
        998    1    1    2    0    0 -0.56131292008E+02  0.75977200256E+02  0.88922831433E+03  0.89428756667E+03  0.10000000000E+02 0.  1.
</event>
<event>
 5    1  0.1520352E-008  0.3844012E+03  0.7957747E-01  0.3432216E+00
         13   -1    0    0    0    0  0.00000000000E+00  0.00000000000E+00  0.14999999963E+04  0.15000000000E+04  0.10566000000E+00 0.  1.
        994   -1    0    0    0    0 -0.00000000000E+00 -0.00000000000E+00  0.11368683772E-12  0.17120000000E+03  0.17120000000E+03 0.  0.
         13    1    1    2    0    0  0.13631310618E+02  0.94063537795E+01  0.76369749269E+02  0.78145005522E+02  0.10566000000E+00 0.  1.
        994    1    1    2    0    0 -0.39773567792E+01  0.71312083146E+01  0.21474650743E+01  0.17140806604E+03  0.17120000000E+03 0.  0.
        998    1    1    2    0    0 -0.96539538387E+01 -0.16537562094E+02  0.14214827819E+04  0.14216469284E+04  0.10000000000E+02 0.  1.
</event>
<event>
 5    1  0.1520352E-008  0.3747448E+03  0.7957747E-01  0.3474365E+00
         13   -1    0    0    0    0  0.00000000000E+00  0.00000000000E+00  0.14999999963E+04  0.15000000000E+04  0.10566000000E+00 0.  1.
        994   -1    0    0    0    0 -0.00000000000E+00 -0.00000000000E+00  0.11368683772E-12  0.17120000000E+03  0.17120000000E+03 0.  0.
         13    1    1    2    0    0 -0.82312390359E+01 -0.36200782818E+02  0.10211958718E+03  0.10865850736E+03  0.10566000000E+00 0.  1.
        994    1    1    2    0    0 -0.52356166130E+01  0.16528589704E+02  0.78331984618E+01  0.17225389678E+03  0.17120000000E+03 0.  0.
        998    1    1    2    0    0  0.13466855649E+02  0.19672193114E+02  0.13900472106E+04  0.13902875959E+04  0.10000000000E+02 0.  1.
</event>
<event>
 5    1  0.1520352E-008  0.3859318E+03  0.7957747E-01  0.3425730E+00
         13   -1    0    0    0    0  0.00000000000E+00  0.00000000000E+00  0.14999999963E+04  0.15000000000E+04  0.10566000000E+00 0.  1.
        994   -1    0    0    0    0 -0.00000000000E+00 -0.00000000000E+00  0.11368683772E-12  0.17120000000E+03  0.17120000000E+03 0.  0.
         13    1    1    2    0    0  0.11651813700E+02 -0.43706935965E+01  0.66207188924E+02  0.67366688758E+02  0.10566000000E+00 0.  1.
        994    1    1    2    0    0 -0.11136548236E+02 -0.15422122010E+01  0.15827704768E+01  0.17157606560E+03  0.17120000000E+03 0.  0.
        998    1    1    2    0    0 -0.51526546390E+00  0.59129057974E+01  0.14322100369E+04  0.14322572456E+04  0.10000000000E+02 0.  1.
</event>
<event>
 5    1  0.1520352E-008  0.3770482E+03  0.7957747E-01  0.3464113E+00
         13   -1    0    0    0    0  0.00000000000E+00  0.00000000000E+00  0.14999999963E+04  0.15000000000E+04  0.10566000000E+00 0. -1.
        994   -1    0    0    0    0 -0.00000000000E+00 -0.00000000000E+00  0.11368683772E-12  0.17120000000E+03  0.17120000000E+03 0.  0.
         13    1    1    2    0    0  0.63313618176E+01  0.10924442311E+02  0.11756784461E+02  0.17252904891E+02  0.10566000000E+00 0. -1.
        994    1    1    2    0    0 -0.94133428728E+01 -0.61461238941E+00  0.59311588688E+01  0.17156225523E+03  0.17120000000E+03 0.  0.
        998    1    1    2    0    0  0.30819810553E+01 -0.10309829922E+02  0.14823120529E+04  0.14823848399E+04  0.10000000000E+02 0. -1.
</event>
<event>
 5    1  0.1520352E-008  0.3827545E+03  0.7957747E-01  0.3439252E+00
         13   -1    0    0    0    0  0.00000000000E+00  0.00000000000E+00  0.14999999963E+04  0.15000000000E+04  0.10566000000E+00 0. -1.
        994   -1    0    0    0    0 -0.00000000000E+00 -0.00000000000E+00  0.11368683772E-12  0.17120000000E+03  0.17120000000E+03 0.  0.
         13    1    1    2    0    0 -0.71034609295E+01  0.10553251140E+02  0.28064641512E+02  0.30813398612E+02  0.10566000000E+00 0. -1.
        994    1    1    2    0    0  0.10315810458E+02 -0.85066067802E+01  0.33415870336E+01  0.17175384860E+03  0.17120000000E+03 0.  0.
        998    1    1    2    0    0 -0.32123495283E+01 -0.20466443598E+01  0.14685937677E+04  0.14686327528E+04  0.10000000000E+02 0. -1.
</event>
<event>
 5    1  0.1520352E-008  0.3244568E+03  0.7957747E-01  0.3735541E+00
         13   -1    0    0    0    0  0.00000000000E+00  0.00000000000E+00  0.14999999963E+04  0.15000000000E+04  0.10566000000E+00 0. -1.
        994   -1    0    0    0    0 -0.00000000000E+00 -0.00000000000E+00  0.11368683772E-12  0.17120000000E+03  0.17120000000E+03 0.  0.
         13    1    1    2    0    0  0.18665255449E+03 -0.15032033886E+03  0.70684806183E+03  0.74637093596E+03  0.10566000000E+00 0. -1.
        994    1    1    2    0    0 -0.18014569238E+03  0.15504018983E+03  0.26041583906E+03  0.39193849030E+03  0.17120000000E+03 0.  0.
        998    1    1    2    0    0 -0.65068621026E+01 -0.47198509710E+01  0.53273609539E+03  0.53289057374E+03  0.10000000000E+02 0.  1.
</event>
<event>
 5    1  0.1520352E-008  0.3796240E+03  0.7957747E-01  0.3452797E+00
         13   -1    0    0    0    0  0.00000000000E+00  0.00000000000E+00  0.14999999963E+04  0.15000000000E+04  0.10566000000E+00 0. -1.
        994   -1    0    0    0    0 -0.00000000000E+00 -0.00000000000E+00  0.11368683772E-12  0.17120000000E+03  0.17120000000E+03 0.  0.
         13    1    1    2    0    0  0.22024729221E+01  0.12771384790E+02  0.17796649133E+02  0.22015699872E+02  0.10566000000E+00 0. -1.
        994    1    1    2    0    0  0.54576930744E+01 -0.56758747003E+01  0.45306332685E+01  0.17144086037E+03  0.17120000000E+03 0.  0.
        998    1    1    2    0    0 -0.76601659965E+01 -0.70955100897E+01  0.14776727139E+04  0.14777434398E+04  0.10000000000E+02 0. -1.
</event>
<event>
 5    1  0.1520352E-008  0.3805118E+03  0.7957747E-01  0.3448933E+00
         13   -1    0    0    0    0  0.00000000000E+00  0.00000000000E+00  0.14999999963E+04  0.15000000000E+04  0.10566000000E+00 0.  1.
        994   -1    0    0    0    0 -0.00000000000E+00 -0.00000000000E+00  0.11368683772E-12  0.17120000000E+03  0.17120000000E+03 0.  0.
         13    1    1    2    0    0  0.30533102889E+02  0.18805430234E+02  0.14811698521E+03  0.15239608607E+03  0.10566000000E+00 0.  1.
        994    1    1    2    0    0 -0.32510010829E+02 -0.19029134435E+02  0.86251786754E+01  0.17550738580E+03  0.17120000000E+03 0.  0.
        998    1    1    2    0    0  0.19769079397E+01  0.22370420140E+00  0.13432578324E+04  0.13432965281E+04  0.10000000000E+02 0.  1.
</event>
<event>
 5    1  0.1520352E-008  0.3056753E+03  0.7957747E-01  0.3856317E+00
         13   -1    0    0    0    0  0.00000000000E+00  0.00000000000E+00  0.14999999963E+04  0.15000000000E+04  0.10566000000E+00 0. -1.
        994   -1    0    0    0    0 -0.00000000000E+00 -0.00000000000E+00  0.11368683772E-12  0.17120000000E+03  0.17120000000E+03 0.  0.
         13    1    1    2    0    0  0.11008804423E+03  0.17902459908E+03  0.63590533076E+03  0.66973486203E+03  0.10566000000E+00 0. -1.
        994    1    1    2    0    0 -0.11094879129E+03 -0.17265699192E+03  0.19155480710E+03  0.32882024766E+03  0.17120000000E+03 0.  0.
        998    1    1    2    0    0  0.86074705594E+00 -0.63676071625E+01  0.67253985842E+03  0.67264489031E+03  0.10000000000E+02 0.  0.
</event>
<event>
 5    1  0.1520352E-008  0.3805045E+03  0.7957747E-01  0.3448965E+00
         13   -1    0    0    0    0  0.00000000000E+00  0.00000000000E+00  0.14999999963E+04  0.15000000000E+04  0.10566000000E+00 0. -1.
        994   -1    0    0    0    0 -0.00000000000E+00 -0.00000000000E+00  0.11368683772E-12  0.17120000000E+03  0.17120000000E+03 0.  0.
         13    1    1    2    0    0 -0.27604311582E+02  0.97812526775E+01  0.11013466461E+03  0.11396195170E+03  0.10566000000E+00 0. -1.
        994    1    1    2    0    0  0.14539421935E+02 -0.75781416957E+01  0.47763830128E+01  0.17204963486E+03  0.17120000000E+03 0.  0.
        998    1    1    2    0    0  0.13064889647E+02 -0.22031109818E+01  0.13850889487E+04  0.13851884134E+04  0.10000000000E+02 0. -1.
</event>
<event>
 5    1  0.1520352E-008  0.3807824E+03  0.7957747E-01  0.3447759E+00
         13   -1    0    0    0    0  0.00000000000E+00  0.00000000000E+00  0.14999999963E+04  0.15000000000E+04  0.10566000000E+00 0.  1.
        994   -1    0    0    0    0 -0.00000000000E+00 -0.00000000000E+00  0.11368683772E-12  0.17120000000E+03  0.17120000000E+03 0.  0.
         13    1    1    2    0    0 -0.17342060763E+02  0.42754550154E+01  0.42249178856E+02  0.45869716209E+02  0.10566000000E+00 0.  1.
        994    1    1    2    0    0  0.48480156112E+01 -0.30514744483E+01  0.38481492643E+01  0.17133902943E+03  0.17120000000E+03 0.  0.
        998    1    1    2    0    0  0.12494045151E+02 -0.12239805671E+01  0.14539026682E+04  0.14539912544E+04  0.10000000000E+02 0.  1.
</event>
<event>
 5    1  0.1520352E-008  0.3685383E+03  0.7957747E-01  0.3502636E+00
         13   -1    0    0    0    0  0.00000000000E+00  0.00000000000E+00  0.14999999963E+04  0.15000000000E+04  0.10566000000E+00 0.  1.
        994   -1    0    0    0    0 -0.00000000000E+00 -0.00000000000E+00  0.11368683772E-12  0.17120000000E+03  0.17120000000E+03 0.  0.
         13    1    1    2    0    0 -0.70458960363E+01  0.26445069610E+02  0.33246902757E+02  0.43062211562E+02  0.10566000000E+00 0.  1.
        994    1    1    2    0    0 -0.21782547039E+01 -0.20409899296E+02  0.11500588473E+02  0.17280917892E+03  0.17120000000E+03 0.  0.
        998    1    1    2    0    0  0.92241507402E+01 -0.60351703144E+01  0.14552525050E+04  0.14553286095E+04  0.10000000000E+02 0.  1.
</event>
<event>
 5    1  0.1520352E-008  0.3793247E+03  0.7957747E-01  0.3454104E+00
         13   -1    0    0    0    0  0.00000000000E+00  0.00000000000E+00  0.14999999963E+04  0.15000000000E+04  0.10566000000E+00 0. -1.
        994   -1    0    0    0    0 -0.00000000000E+00 -0.00000000000E+00  0.11368683772E-12  0.17120000000E+03  0.17120000000E+03 0.  0.
         13    1    1    2    0    0  0.78922860415E+01  0.15271245116E+02  0.30449292818E+02  0.34966694203E+02  0.10566000000E+00 0. -1.
        994    1    1    2    0    0 -0.12888549296E+02 -0.15930721521E+02  0.58825421747E+01  0.17252230839E+03  0.17120000000E+03 0.  0.
        998    1    1    2    0    0  0.49962632549E+01  0.65947640457E+00  0.14636681613E+04  0.14637109974E+04  0.10000000000E+02 0. -1.
</event>
<event>
 5    1  0.1520352E-008  0.3687907E+03  0.7957747E-01  0.3501467E+00
         13   -1    0    0    0    0  0.00000000000E+00  0.00000000000E+00  0.14999999963E+04  0.15000000000E+04  0.10566000000E+00 0. -1.
        994   -1    0    0    0    0 -0.00000000000E+00 -0.00000000000E+00  0.11368683772E-12  0.17120000000E+03  0.17120000000E+03 0.  0.
         13    1    1    2    0    0  0.72955453925E+01 -0.35488555271E+02  0.61717215074E+02  0.71565971930E+02  0.10566000000E+00 0. -1.
        994    1    1    2    0    0  0.29087190629E+02  0.19843393122E+02  0.14629256886E+02  0.17539464093E+03  0.17120000000E+03 0.  0.
        998    1    1    2    0    0 -0.36382736021E+02  0.15645162150E+02  0.14236535243E+04  0.14242393871E+04  0.10000000000E+02 0. -1.
</event>
<event>
 5    1  0.1520352E-008  0.3848710E+03  0.7957747E-01  0.3430219E+00
         13   -1    0    0    0    0  0.00000000000E+00  0.00000000000E+00  0.14999999963E+04  0.15000000000E+04  0.10566000000E+00 0. -1.
        994   -1    0    0    0    0 -0.00000000000E+00 -0.00000000000E+00  0.11368683772E-12  0.17120000000E+03  0.17120000000E+03 0.  0.
         13    1    1    2    0    0  0.98022262823E+01  0.12325783162E+02  0.68054861204E+02  0.69853302486E+02  0.10566000000E+00 0. -1.
        994    1    1    2    0    0 -0.16973322463E+02 -0.14395702574E+02  0.33255397085E+01  0.17267260681E+03  0.17120000000E+03 0.  0.
        998    1    1    2    0    0  0.71710961809E+01  0.20699194124E+01  0.14286195954E+04  0.14286740907E+04  0.10000000000E+02 0. -1.
</event>
<event>
 5    1  0.2389039E-008  0.3863925E+03  0.7957747E-01  0.3423788E+00
         13   -1    0    0    0    0  0.00000000000E+00  0.00000000000E+00  0.14999999963E+04  0.15000000000E+04  0.10566000000E+00 0.  1.
        994   -1    0    0    0    0 -0.00000000000E+00 -0.00000000000E+00  0.11368683772E-12  0.17120000000E+03  0.17120000000E+03 0.  0.
         13    1    1    2    0    0  0.10827153456E+02  0.34879185144E+00  0.62220685369E+02  0.63156739621E+02  0.10566000000E+00 0.  1.
        994    1    1    2    0    0 -0.99243373989E+01 -0.17878836823E+01  0.12733200283E+01  0.17150145872E+03  0.17120000000E+03 0.  0.
        998    1    1    2    0    0 -0.90281605672E+00  0.14390918309E+01  0.14365059909E+04  0.14365418017E+04  0.10000000000E+02 0.  1.
</event>
<event>
 5    1  0.1520352E-008  0.3773208E+03  0.7957747E-01  0.3462908E+00
         13   -1    0    0    0    0  0.00000000000E+00  0.00000000000E+00  0.14999999963E+04  0.15000000000E+04  0.10566000000E+00 0.  1.
        994   -1    0    0    0    0 -0.00000000000E+00 -0.00000000000E+00  0.11368683772E-12  0.17120000000E+03  0.17120000000E+03 0.  0.
         13    1    1    2    0    0 -0.27230986074E+02  0.13660041013E+01  0.66287793454E+02  0.71676183595E+02  0.10566000000E+00 0.  1.
        994    1    1    2    0    0  0.14464346256E+02 -0.55277616271E+01  0.63008553235E+01  0.17201428499E+03  0.17120000000E+03 0.  0.
        998    1    1    2    0    0  0.12766639817E+02  0.41617575259E+01  0.14274113475E+04  0.14275095314E+04  0.10000000000E+02 0.  1.
</event>
<event>
 5    1  0.1520352E-008  0.3690417E+03  0.7957747E-01  0.3500307E+00
         13   -1    0    0    0    0  0.00000000000E+00  0.00000000000E+00  0.14999999963E+04  0.15000000000E+04  0.10566000000E+00 0.  1.
        994   -1    0    0    0    0 -0.00000000000E+00 -0.00000000000E+00  0.11368683772E-12  0.17120000000E+03  0.17120000000E+03 0.  0.
         13    1    1    2    0    0 -0.66908114308E+02 -0.14063150277E+02  0.21270197416E+03  0.22342025184E+03  0.10566000000E+00 0.  1.
        994    1    1    2    0    0  0.52212418300E+02 -0.14975489854E+02  0.20784692200E+02  0.18080886414E+03  0.17120000000E+03 0.  0.
        998    1    1    2    0    0  0.14695696008E+02  0.29038640131E+02  0.12665133299E+04  0.12669708840E+04  0.10000000000E+02 0.  1.
</event>
<event>
 5    1  0.1520352E-008  0.3771340E+03  0.7957747E-01  0.3463733E+00
         13   -1    0    0    0    0  0.00000000000E+00  0.00000000000E+00  0.14999999963E+04  0.15000000000E+04  0.10566000000E+00 0.  1.
        994   -1    0    0    0    0 -0.00000000000E+00 -0.00000000000E+00  0.11368683772E-12  0.17120000000E+03  0.17120000000E+03 0.  0.
         13    1    1    2    0    0 -0.18683602524E+02 -0.11795077507E+02  0.38671470257E+02  0.44538686920E+02  0.10566000000E+00 0.  1.
        994    1    1    2    0    0  0.41931275158E+02  0.36869342177E+01  0.11590111699E+02  0.17667935932E+03  0.17120000000E+03 0.  0.
        998    1    1    2    0    0 -0.23247672634E+02  0.81081432894E+01  0.14497384143E+04  0.14499819538E+04  0.10000000000E+02 0.  1.
</event>
<event>
 5    1  0.1520352E-008  0.3819425E+03  0.7957747E-01  0.3442744E+00
         13   -1    0    0    0    0  0.00000000000E+00  0.00000000000E+00  0.14999999963E+04  0.15000000000E+04  0.10566000000E+00 0.  1.
        994   -1    0    0    0    0 -0.00000000000E+00 -0.00000000000E+00  0.11368683772E-12  0.17120000000E+03  0.17120000000E+03 0.  0.
         13    1    1    2    0    0  0.58641267797E+01 -0.38354119188E+02  0.21027491889E+03  0.21382464572E+03  0.10566000000E+00 0.  1.
        994    1    1    2    0    0 -0.82042373621E+01  0.36040818749E+02  0.77072103907E+01  0.17531426416E+03  0.17120000000E+03 0.  0.
        998    1    1    2    0    0  0.23401105824E+01  0.23133004384E+01  0.12820178670E+04  0.12820610901E+04  0.10000000000E+02 0.  0.
</event>
<event>
 5    1  0.1520352E-008  0.3833526E+03  0.7957747E-01  0.3436689E+00
         13   -1    0    0    0    0  0.00000000000E+00  0.00000000000E+00  0.14999999963E+04  0.15000000000E+04  0.10566000000E+00 0. -1.
        994   -1    0    0    0    0 -0.00000000000E+00 -0.00000000000E+00  0.11368683772E-12  0.17120000000E+03  0.17120000000E+03 0.  0.
         13    1    1    2    0    0 -0.14646301470E+02 -0.16270215099E+02  0.10062549524E+03  0.10297929648E+03  0.10566000000E+00 0. -1.
        994    1    1    2    0    0  0.69177038404E+01  0.49159765254E+01  0.26884230414E+01  0.17143129548E+03  0.17120000000E+03 0.  0.
        998    1    1    2    0    0  0.77285976298E+01  0.11354238574E+02  0.13966860780E+04  0.13967894080E+04  0.10000000000E+02 0. -1.
</event>
<event>
 5    1  0.1520352E-008  0.3709748E+03  0.7957747E-01  0.3491423E+00
         13   -1    0    0    0    0  0.00000000000E+00  0.00000000000E+00  0.14999999963E+04  0.15000000000E+04  0.10566000000E+00 0.  1.
        994   -1    0    0    0    0 -0.00000000000E+00 -0.00000000000E+00  0.11368683772E-12  0.17120000000E+03  0.17120000000E+03 0.  0.
         13    1    1    2    0    0  0.65892196860E+01  0.26720044668E+02  0.39136421070E+02  0.47844009252E+02  0.10566000000E+00 0.  1.
        994    1    1    2    0    0 -0.41127523515E-01 -0.25024259556E+02  0.10921431224E+02  0.17336358590E+03  0.17120000000E+03 0.  0.
        998    1    1    2    0    0 -0.65480921624E+01 -0.16957851121E+01  0.14499421440E+04  0.14499924048E+04  0.10000000000E+02 0.  1.
</event>
<event>
 5    1  0.1520352E-008  0.3831848E+03  0.7957747E-01  0.3437407E+00
         13   -1    0    0    0    0  0.00000000000E+00  0.00000000000E+00  0.14999999963E+04  0.15000000000E+04  0.10566000000E+00 0. -1.
        994   -1    0    0    0    0 -0.00000000000E+00 -0.00000000000E+00  0.11368683772E-12  0.17120000000E+03  0.17120000000E+03 0.  0.
         13    1    1    2    0    0 -0.29305571707E+02  0.20646328802E+02  0.20272938946E+03  0.20587448589E+03  0.10566000000E+00 0. -1.
        994    1    1    2    0    0  0.40280649039E+02 -0.21929674813E+02  0.95238165752E+01  0.17749249113E+03  0.17120000000E+03 0.  0.
        998    1    1    2    0    0 -0.10975077333E+02  0.12833460103E+01  0.12877467902E+04  0.12878330230E+04  0.10000000000E+02 0. -1.
</event>
<event>
 5    1  0.1520352E-008  0.3723211E+03  0.7957747E-01  0.3485291E+00
         13   -1    0    0    0    0  0.00000000000E+00  0.00000000000E+00  0.14999999963E+04  0.15000000000E+04  0.10566000000E+00 0. -1.
        994   -1    0    0    0    0 -0.00000000000E+00 -0.00000000000E+00  0.11368683772E-12  0.17120000000E+03  0.17120000000E+03 0.  0.
         13    1    1    2    0    0  0.25084082978E+02  0.13333387553E+02  0.48433790725E+02  0.56150099649E+02  0.10566000000E+00 0. -1.
        994    1    1    2    0    0 -0.13325369815E+02  0.79499377836E+01  0.88871685597E+01  0.17213131254E+03  0.17120000000E+03 0.  0.
        998    1    1    2    0    0 -0.11758713163E+02 -0.21283325336E+02  0.14426790370E+04  0.14429185878E+04  0.10000000000E+02 0. -1.
</event>
<event>
 5    1  0.1520352E-008  0.3855599E+03  0.7957747E-01  0.3427301E+00
         13   -1    0    0    0    0  0.00000000000E+00  0.00000000000E+00  0.14999999963E+04  0.15000000000E+04  0.10566000000E+00 0.  1.
        994   -1    0    0    0    0 -0.00000000000E+00 -0.00000000000E+00  0.11368683772E-12  0.17120000000E+03  0.17120000000E+03 0.  0.
         13    1    1    2    0    0 -0.40400125000E+01 -0.14189479849E+02  0.75921130205E+02  0.77341400395E+02  0.10566000000E+00 0.  1.
        994    1    1    2    0    0  0.92107466569E+01  0.16445505909E+02  0.25195884364E+01  0.17225295598E+03  0.17120000000E+03 0.  0.
        998    1    1    2    0    0 -0.51707341570E+01 -0.22560260601E+01  0.14215592776E+04  0.14216056436E+04  0.10000000000E+02 0.  1.
</event>
<event>
 5    1  0.1520352E-008  0.3848632E+03  0.7957747E-01  0.3430253E+00
         13   -1    0    0    0    0  0.00000000000E+00  0.00000000000E+00  0.14999999963E+04  0.15000000000E+04  0.10566000000E+00 0. -1.
        994   -1    0    0    0    0 -0.00000000000E+00 -0.00000000000E+00  0.11368683772E-12  0.17120000000E+03  0.17120000000E+03 0.  0.
         13    1    1    2    0    0  0.70176270482E+01  0.10729518239E+02  0.45287898043E+02  0.47067765235E+02  0.10566000000E+00 0. -1.
        994    1    1    2    0    0 -0.21729515747E+02 -0.10873151210E+02  0.36429678865E+01  0.17295406467E+03  0.17120000000E+03 0.  0.
        998    1    1    2    0    0  0.14711888699E+02  0.14363297065E+00  0.14510691303E+04  0.14511781701E+04  0.10000000000E+02 0. -1.
</event>
<event>
 5    1  0.1520352E-008  0.3742829E+03  0.7957747E-01  0.3476436E+00
         13   -1    0    0    0    0  0.00000000000E+00  0.00000000000E+00  0.14999999963E+04  0.15000000000E+04  0.10566000000E+00 0.  1.
        994   -1    0    0    0    0 -0.00000000000E+00 -0.00000000000E+00  0.11368683772E-12  0.17120000000E+03  0.17120000000E+03 0.  0.
         13    1    1    2    0    0 -0.17879467146E+02  0.10744146562E+02  0.30457572215E+02  0.36915943710E+02  0.10566000000E+00 0.  1.
        994    1    1    2    0    0 -0.15587020380E+02  0.99073200123E+01  0.82106022835E+01  0.17238899090E+03  0.17120000000E+03 0.  0.
        998    1    1    2    0    0  0.33466487526E+02 -0.20651466574E+02  0.14613318218E+04  0.14618950654E+04  0.10000000000E+02 0.  1.
</event>
<event>
 5    1  0.1520352E-008  0.3842824E+03  0.7957747E-01  0.3432722E+00
         13   -1    0    0    0    0  0.00000000000E+00  0.00000000000E+00  0.14999999963E+04  0.15000000000E+04  0.10566000000E+00 0. -1.
        994   -1    0    0    0    0 -0.00000000000E+00 -0.00000000000E+00  0.11368683772E-12  0.17120000000E+03  0.17120000000E+03 0.  0.
         13    1    1    2    0    0  0.25192148757E+01  0.22327403636E+02  0.11739372651E+03  0.11952471537E+03  0.10566000000E+00 0. -1.
        994    1    1    2    0    0 -0.90325422904E+01 -0.23068169331E+02  0.40125108252E+01  0.17302967231E+03  0.17120000000E+03 0.  0.
        998    1    1    2    0    0  0.65133274147E+01  0.74076569506E+00  0.13785937589E+04  0.13786456123E+04  0.10000000000E+02 0. -1.
</event>
<event>
 5    1  0.1520352E-008  0.3784645E+03  0.7957747E-01  0.3457872E+00
         13   -1    0    0    0    0  0.00000000000E+00  0.00000000000E+00  0.14999999963E+04  0.15000000000E+04  0.10566000000E+00 0. -1.
        994   -1    0    0    0    0 -0.00000000000E+00 -0.00000000000E+00  0.11368683772E-12  0.17120000000E+03  0.17120000000E+03 0.  0.
         13    1    1    2    0    0 -0.22653447813E+02 -0.11081849357E+02  0.60767935014E+02  0.65793154453E+02  0.10566000000E+00 0. -1.
        994    1    1    2    0    0  0.24056560563E+02  0.83572274636E+01  0.70924587454E+01  0.17322905163E+03  0.17120000000E+03 0.  0.
        998    1    1    2    0    0 -0.14031127500E+01  0.27246218936E+01  0.14321396025E+04  0.14321777939E+04  0.10000000000E+02 0. -1.
</event>
<event>
 5    1  0.1520352E-008  0.3839908E+03  0.7957747E-01  0.3433964E+00
         13   -1    0    0    0    0  0.00000000000E+00  0.00000000000E+00  0.14999999963E+04  0.15000000000E+04  0.10566000000E+00 0.  1.
        994   -1    0    0    0    0 -0.00000000000E+00 -0.00000000000E+00  0.11368683772E-12  0.17120000000E+03  0.17120000000E+03 0.  0.
         13    1    1    2    0    0 -0.88496467424E+01  0.13301004370E+02  0.59283114405E+02  0.61398141522E+02  0.10566000000E+00 0.  1.
        994    1    1    2    0    0  0.99410483076E+01 -0.64846297878E+01  0.25969470572E+01  0.17163058876E+03  0.17120000000E+03 0.  0.
        998    1    1    2    0    0 -0.10914015652E+01 -0.68163745821E+01  0.14381199348E+04  0.14381712697E+04  0.10000000000E+02 0.  1.
</event>
<event>
 5    1  0.1520352E-008  0.4154076E+03  0.7957747E-01  0.3310132E+00
         13   -1    0    0    0    0  0.00000000000E+00  0.00000000000E+00  0.14999999963E+04  0.15000000000E+04  0.10566000000E+00 0. -1.
        994   -1    0    0    0    0 -0.00000000000E+00 -0.00000000000E+00  0.11368683772E-12  0.17120000000E+03  0.17120000000E+03 0.  0.
         13    1    1    2    0    0 -0.11590610530E+01 -0.16133786464E+02 -0.13169478232E+02  0.20858782541E+02  0.10566000000E+00 0. -1.
        994    1    1    2    0    0  0.13561037080E+02  0.51735687263E+02  0.49381215420E+02  0.18603340426E+03  0.17120000000E+03 0.  0.
        998    1    1    2    0    0 -0.12401976027E+02 -0.35601900800E+02  0.14637882591E+04  0.14643078132E+04  0.10000000000E+02 0. -1.
</event>
<event>
 5    1  0.1520352E-008  0.3854432E+03  0.7957747E-01  0.3427795E+00
         13   -1    0    0    0    0  0.00000000000E+00  0.00000000000E+00  0.14999999963E+04  0.15000000000E+04  0.10566000000E+00 0.  1.
        994   -1    0    0    0    0 -0.00000000000E+00 -0.00000000000E+00  0.11368683772E-12  0.17120000000E+03  0.17120000000E+03 0.  0.
         13    1    1    2    0    0  0.10943559197E+02  0.12982930634E+01  0.42183955478E+02  0.43599820144E+02  0.10566000000E+00 0.  1.
        994    1    1    2    0    0 -0.10169499046E+02 -0.14882815740E+02  0.24779785798E+01  0.17216415798E+03  0.17120000000E+03 0.  0.
        998    1    1    2    0    0 -0.77406015033E+00  0.13584522676E+02  0.14553380622E+04  0.14554360219E+04  0.10000000000E+02 0.  1.
</event>
<event>
 5    1  0.1520352E-008  0.3841425E+03  0.7957747E-01  0.3433317E+00
         13   -1    0    0    0    0  0.00000000000E+00  0.00000000000E+00  0.14999999963E+04  0.15000000000E+04  0.10566000000E+00 0.  1.
        994   -1    0    0    0    0 -0.00000000000E+00 -0.00000000000E+00  0.11368683772E-12  0.17120000000E+03  0.17120000000E+03 0.  0.
         13    1    1    2    0    0 -0.96388434770E+01 -0.15367242692E+02  0.78054911611E+02  0.80135134880E+02  0.10566000000E+00 0.  1.
        994    1    1    2    0    0  0.84269330605E+01  0.12301824847E+02  0.27900816115E+01  0.17187080221E+03  0.17120000000E+03 0.  0.
        998    1    1    2    0    0  0.12119104165E+01  0.30654178451E+01  0.14191550031E+04  0.14191940629E+04  0.10000000000E+02 0.  1.
</event>
<event>
 5    1  0.1520352E-008  0.3842704E+03  0.7957747E-01  0.3432772E+00
         13   -1    0    0    0    0  0.00000000000E+00  0.00000000000E+00  0.14999999963E+04  0.15000000000E+04  0.10566000000E+00 0. -1.
        994   -1    0    0    0    0 -0.00000000000E+00 -0.00000000000E+00  0.11368683772E-12  0.17120000000E+03  0.17120000000E+03 0.  0.
         13    1    1    2    0    0 -0.15712546471E+01 -0.20299683783E+02  0.10936354990E+03  0.11124272207E+03  0.10566000000E+00 0. -1.
        994    1    1    2    0    0 -0.22266906095E+01  0.59289656480E+01  0.21250189444E+01  0.17133028480E+03  0.17120000000E+03 0.  0.
        998    1    1    2    0    0  0.37979452566E+01  0.14370718135E+02  0.13885114274E+04  0.13886269931E+04  0.10000000000E+02 0. -1.
</event>
<event>
 5    1  0.1520352E-008  0.3752716E+03  0.7957747E-01  0.3472009E+00
         13   -1    0    0    0    0  0.00000000000E+00  0.00000000000E+00  0.14999999963E+04  0.15000000000E+04  0.10566000000E+00 0. -1.
        994   -1    0    0    0    0 -0.00000000000E+00 -0.00000000000E+00  0.11368683772E-12  0.17120000000E+03  0.17120000000E+03 0.  0.
         13    1    1    2    0    0  0.19543401744E+03  0.78313096936E+02  0.91067712973E+03  0.93469794163E+03  0.10566000000E+00 0. -1.
        994    1    1    2    0    0 -0.20031375005E+03 -0.72011140974E+02  0.18035777624E+03  0.32733708976E+03  0.17120000000E+03 0.  0.
        998    1    1    2    0    0  0.48797326118E+01 -0.63019559618E+01  0.40896509031E+03  0.40916496860E+03  0.10000000000E+02 0.  0.
</event>
<event>
 5    1  0.1520352E-008  0.3834749E+03  0.7957747E-01  0.3436166E+00
         13   -1    0    0    0    0  0.00000000000E+00  0.00000000000E+00  0.14999999963E+04  0.15000000000E+04  0.10566000000E+00 0.  1.
        994   -1    0    0    0    0 -0.00000000000E+00 -0.00000000000E+00  0.11368683772E-12  0.17120000000E+03  0.17120000000E+03 0.  0.
         13    1    1    2    0    0 -0.14183356192E+02  0.26107342156E+00  0.40499104838E+02  0.42911821319E+02  0.10566000000E+00 0.  1.
        994    1    1    2    0    0  0.14906048114E+02  0.29317514122E+01  0.31523313184E+01  0.17190160741E+03  0.17120000000E+03 0.  0.
        998    1    1    2    0    0 -0.72269192131E+00 -0.31928248338E+01  0.14563485601E+04  0.14563865713E+04  0.10000000000E+02 0.  1.
</event>
<event>
 5    1  0.1520352E-008  0.3848951E+03  0.7957747E-01  0.3430117E+00
         13   -1    0    0    0    0  0.00000000000E+00  0.00000000000E+00  0.14999999963E+04  0.15000000000E+04  0.10566000000E+00 0.  1.
        994   -1    0    0    0    0 -0.00000000000E+00 -0.00000000000E+00  0.11368683772E-12  0.17120000000E+03  0.17120000000E+03 0.  0.
         13    1    1    2    0    0 -0.47455273674E+01  0.14507978461E+02  0.73444366176E+02  0.75013915750E+02  0.10566000000E+00 0.  1.
        994    1    1    2    0    0 -0.35650881651E+01 -0.24137956573E+01  0.17431997179E+01  0.17126299953E+03  0.17120000000E+03 0.  0.
        998    1    1    2    0    0  0.83106155325E+01 -0.12094182804E+02  0.14248124304E+04  0.14249230847E+04  0.10000000000E+02 0.  1.
</event>
<event>
 5    1  0.1520352E-008  0.3802044E+03  0.7957747E-01  0.3450269E+00
         13   -1    0    0    0    0  0.00000000000E+00  0.00000000000E+00  0.14999999963E+04  0.15000000000E+04  0.10566000000E+00 0.  1.
        994   -1    0    0    0    0 -0.00000000000E+00 -0.00000000000E+00  0.11368683772E-12  0.17120000000E+03  0.17120000000E+03 0.  0.
         13    1    1    2    0    0 -0.10920096551E+02 -0.81330773411E+01  0.21937508564E+02  0.25819777337E+02  0.10566000000E+00 0.  1.
        994    1    1    2    0    0  0.54197569384E+00 -0.13664025172E+01  0.40372320238E+01  0.17125390517E+03  0.17120000000E+03 0.  0.
        998    1    1    2    0    0  0.10378120857E+02  0.94994798583E+01  0.14740252557E+04  0.14741263175E+04  0.10000000000E+02 0.  1.
</event>
<event>
 5    1  0.1520352E-008  0.3849149E+03  0.7957747E-01  0.3430033E+00
         13   -1    0    0    0    0  0.00000000000E+00  0.00000000000E+00  0.14999999963E+04  0.15000000000E+04  0.10566000000E+00 0.  1.
        994   -1    0    0    0    0 -0.00000000000E+00 -0.00000000000E+00  0.11368683772E-12  0.17120000000E+03  0.17120000000E+03 0.  0.
         13    1    1    2    0    0 -0.15777485724E+02  0.10878446659E+02  0.91970146903E+02  0.93945669101E+02  0.10566000000E+00 0.  1.
        994    1    1    2    0    0  0.29523802082E+02 -0.22045663836E+02  0.61513163580E+01  0.17522826506E+03  0.17120000000E+03 0.  0.
        998    1    1    2    0    0 -0.13746316357E+02  0.11167217176E+02  0.14018785330E+04  0.14020260658E+04  0.10000000000E+02 0.  1.
</event>
<event>
 5    1  0.1520352E-008  0.3832126E+03  0.7957747E-01  0.3437288E+00
         13   -1    0    0    0    0  0.00000000000E+00  0.00000000000E+00  0.14999999963E+04  0.15000000000E+04  0.10566000000E+00 0.  1.
        994   -1    0    0    0    0 -0.00000000000E+00 -0.00000000000E+00  0.11368683772E-12  0.17120000000E+03  0.17120000000E+03 0.  0.
         13    1    1    2    0    0  0.28952136242E+01  0.22193857845E+02  0.10672064704E+03  0.10904245621E+03  0.10566000000E+00 0.  1.
        994    1    1    2    0    0 -0.78214671394E+01 -0.13346970019E+01  0.27284113943E+01  0.17140548706E+03  0.17120000000E+03 0.  0.
        998    1    1    2    0    0  0.49262535151E+01 -0.20859160843E+02  0.13905509378E+04  0.13907520567E+04  0.10000000000E+02 0.  1.
</event>
<event>
 5    1  0.1520352E-008  0.3746127E+03  0.7957747E-01  0.3474957E+00
         13   -1    0    0    0    0  0.00000000000E+00  0.00000000000E+00  0.14999999963E+04  0.15000000000E+04  0.10566000000E+00 0. -1.
        994   -1    0    0    0    0 -0.00000000000E+00 -0.00000000000E+00  0.11368683772E-12  0.17120000000E+03  0.17120000000E+03 0.  0.
         13    1    1    2    0    0 -0.13191841724E+02 -0.22271930613E+01  0.67006148854E+00  0.13395716607E+02  0.10566000000E+00 0. -1.
        994    1    1    2    0    0 -0.44226611162E+01 -0.16308328443E+02  0.14414129111E+02  0.17263466809E+03  0.17120000000E+03 0.  0.
        998    1    1    2    0    0  0.17614502840E+02  0.18535521504E+02  0.14849158057E+04  0.14851696153E+04  0.10000000000E+02 0. -1.
</event>
<event>
 5    1  0.1520352E-008  0.3698531E+03  0.7957747E-01  0.3496567E+00
         13   -1    0    0    0    0  0.00000000000E+00  0.00000000000E+00  0.14999999963E+04  0.15000000000E+04  0.10566000000E+00 0.  1.
        994   -1    0    0    0    0 -0.00000000000E+00 -0.00000000000E+00  0.11368683772E-12  0.17120000000E+03  0.17120000000E+03 0.  0.
         13    1    1    2    0    0 -0.74115443093E+02  0.16537352844E+02  0.45856311794E+03  0.46480826933E+03  0.10566000000E+00 0.  1.
        994    1    1    2    0    0 -0.20221434160E+02 -0.50352370823E+01  0.12379955465E+02  0.17290738362E+03  0.17120000000E+03 0.  0.
        998    1    1    2    0    0  0.94336877253E+02 -0.11502115761E+02  0.10290569229E+04  0.10334843470E+04  0.10000000000E+02 0.  1.
</event>
<event>
 5    1  0.1520352E-008  0.3847356E+03  0.7957747E-01  0.3430794E+00
         13   -1    0    0    0    0  0.00000000000E+00  0.00000000000E+00  0.14999999963E+04  0.15000000000E+04  0.10566000000E+00 0.  1.
        994   -1    0    0    0    0 -0.00000000000E+00 -0.00000000000E+00  0.11368683772E-12  0.17120000000E+03  0.17120000000E+03 0.  0.
         13    1    1    2    0    0 -0.10075939654E+02  0.66008996577E+01  0.41425650576E+02  0.43141535970E+02  0.10566000000E+00 0.  1.
        994    1    1    2    0    0  0.40036808570E+01 -0.44386097426E+01  0.18790939563E+01  0.17131462784E+03  0.17120000000E+03 0.  0.
        998    1    1    2    0    0  0.60722587973E+01 -0.21622899151E+01  0.14566952517E+04  0.14567438362E+04  0.10000000000E+02 0.  1.
</event>
<event>
 5    1  0.1520352E-008  0.3824564E+03  0.7957747E-01  0.3440532E+00
         13   -1    0    0    0    0  0.00000000000E+00  0.00000000000E+00  0.14999999963E+04  0.15000000000E+04  0.10566000000E+00 0.  1.
        994   -1    0    0    0    0 -0.00000000000E+00 -0.00000000000E+00  0.11368683772E-12  0.17120000000E+03  0.17120000000E+03 0.  0.
         13    1    1    2    0    0 -0.21524409928E+02  0.30131988967E+01  0.76232185839E+02  0.79270025307E+02  0.10566000000E+00 0.  1.
        994    1    1    2    0    0  0.23060355811E+02 -0.11312855052E+02  0.50891223103E+01  0.17319093471E+03  0.17120000000E+03 0.  0.
        998    1    1    2    0    0 -0.15359458838E+01  0.82996561554E+01  0.14186786881E+04  0.14187390400E+04  0.10000000000E+02 0.  1.
</event>
<event>
 5    1  0.1520352E-008  0.3854013E+03  0.7957747E-01  0.3427972E+00
         13   -1    0    0    0    0  0.00000000000E+00  0.00000000000E+00  0.14999999963E+04  0.15000000000E+04  0.10566000000E+00 0. -1.
        994   -1    0    0    0    0 -0.00000000000E+00 -0.00000000000E+00  0.11368683772E-12  0.17120000000E+03  0.17120000000E+03 0.  0.
         13    1    1    2    0    0  0.46080690426E+01  0.91260329115E+01  0.38074444310E+02  0.39423257736E+02  0.10566000000E+00 0. -1.
        994    1    1    2    0    0 -0.17181307745E+01  0.18594712797E+01  0.14520942151E+01  0.17122487607E+03  0.17120000000E+03 0.  0.
        998    1    1    2    0    0 -0.28899382681E+01 -0.10985504191E+02  0.14604734578E+04  0.14605518662E+04  0.10000000000E+02 0. -1.
</event>
<event>
 5    1  0.1520352E-008  0.3776654E+03  0.7957747E-01  0.3461387E+00
         13   -1    0    0    0    0  0.00000000000E+00  0.00000000000E+00  0.14999999963E+04  0.15000000000E+04  0.10566000000E+00 0. -1.
        994   -1    0    0    0    0 -0.00000000000E+00 -0.00000000000E+00  0.11368683772E-12  0.17120000000E+03  0.17120000000E+03 0.  0.
         13    1    1    2    0    0  0.13920057028E+02  0.25489041168E+02  0.95719250175E+02  0.10002822214E+03  0.10566000000E+00 0. -1.
        994    1    1    2    0    0 -0.43123948089E+01  0.33713209087E+02  0.92178441709E+01  0.17478439824E+03  0.17120000000E+03 0.  0.
        998    1    1    2    0    0 -0.96076622188E+01 -0.59202250254E+02  0.13950629019E+04  0.13963873796E+04  0.10000000000E+02 0. -1.
</event>
<event>
 5    1  0.1520352E-008  0.3775433E+03  0.7957747E-01  0.3461926E+00
         13   -1    0    0    0    0  0.00000000000E+00  0.00000000000E+00  0.14999999963E+04  0.15000000000E+04  0.10566000000E+00 0.  1.
        994   -1    0    0    0    0 -0.00000000000E+00 -0.00000000000E+00  0.11368683772E-12  0.17120000000E+03  0.17120000000E+03 0.  0.
         13    1    1    2    0    0 -0.66322534311E+02  0.14008627327E+02  0.19487400447E+03  0.20632694681E+03  0.10566000000E+00 0.  1.
        994    1    1    2    0    0 -0.20012868421E+02  0.19362073761E+01  0.16437413590E+02  0.17315857578E+03  0.17120000000E+03 0.  0.
        998    1    1    2    0    0  0.86335402732E+02 -0.15944834703E+02  0.12886885782E+04  0.12917144774E+04  0.10000000000E+02 0.  1.
</event>
<event>
 5    1  0.1520352E-008  0.4019704E+03  0.7957747E-01  0.3360740E+00
         13   -1    0    0    0    0  0.00000000000E+00  0.00000000000E+00  0.14999999963E+04  0.15000000000E+04  0.10566000000E+00 0. -1.
        994   -1    0    0    0    0 -0.00000000000E+00 -0.00000000000E+00  0.11368683772E-12  0.17120000000E+03  0.17120000000E+03 0.  0.
         13    1    1    2    0    0  0.92182906786E+02 -0.47238432576E+02  0.17972703088E+03  0.20743908650E+03  0.10566000000E+00 0. -1.
        994    1    1    2    0    0 -0.67859117325E+02  0.11848025156E+02  0.47940319112E+02  0.19066449512E+03  0.17120000000E+03 0.  0.
        998    1    1    2    0    0 -0.24323789461E+02  0.35390407421E+02  0.12723326463E+04  0.12730964184E+04  0.10000000000E+02 0. -1.
</event>
<event>
 5    1  0.1520352E-008  0.3834456E+03  0.7957747E-01  0.3436291E+00
         13   -1    0    0    0    0  0.00000000000E+00  0.00000000000E+00  0.14999999963E+04  0.15000000000E+04  0.10566000000E+00 0.  1.
        994   -1    0    0    0    0 -0.00000000000E+00 -0.00000000000E+00  0.11368683772E-12  0.17120000000E+03  0.17120000000E+03 0.  0.
         13    1    1    2    0    0 -0.51492696260E+01  0.23364434486E+02  0.12020995961E+03  0.12256776627E+03  0.10566000000E+00 0.  1.
        994    1    1    2    0    0  0.14459851708E+02 -0.99289525036E+01  0.34214249515E+01  0.17213023429E+03  0.17120000000E+03 0.  0.
        998    1    1    2    0    0 -0.93105820817E+01 -0.13435481982E+02  0.13763686117E+04  0.13765019994E+04  0.10000000000E+02 0.  1.
</event>
<event>
 5    1  0.1520352E-008  0.3745551E+03  0.7957747E-01  0.3475215E+00
         13   -1    0    0    0    0  0.00000000000E+00  0.00000000000E+00  0.14999999963E+04  0.15000000000E+04  0.10566000000E+00 0.  1.
        994   -1    0    0    0    0 -0.00000000000E+00 -0.00000000000E+00  0.11368683772E-12  0.17120000000E+03  0.17120000000E+03 0.  0.
         13    1    1    2    0    0  0.17435944572E+02 -0.14640257785E+02  0.33825064220E+02  0.40773710214E+02  0.10566000000E+00 0.  1.
        994    1    1    2    0    0 -0.16006319354E+02  0.19636037943E+02  0.90952514615E+01  0.17330302895E+03  0.17120000000E+03 0.  0.
        998    1    1    2    0    0 -0.14296252182E+01 -0.49957801585E+01  0.14570796806E+04  0.14571232608E+04  0.10000000000E+02 0.  1.
</event>
<event>
 5    1  0.1520352E-008  0.3747882E+03  0.7957747E-01  0.3474170E+00
         13   -1    0    0    0    0  0.00000000000E+00  0.00000000000E+00  0.14999999963E+04  0.15000000000E+04  0.10566000000E+00 0. -1.
        994   -1    0    0    0    0 -0.00000000000E+00 -0.00000000000E+00  0.11368683772E-12  0.17120000000E+03  0.17120000000E+03 0.  0.
         13    1    1    2    0    0 -0.13161029413E+02 -0.37447641516E+01  0.10877328094E+02  0.17480371399E+02  0.10566000000E+00 0. -1.
        994    1    1    2    0    0  0.23009477832E+01  0.10017491034E+02  0.71469529743E+01  0.17165711003E+03  0.17120000000E+03 0.  0.
        998    1    1    2    0    0  0.10860081630E+02 -0.62727268825E+01  0.14819757152E+04  0.14820625186E+04  0.10000000000E+02 0. -1.
</event>
<event>
 5    1  0.1520352E-008  0.3809369E+03  0.7957747E-01  0.3447089E+00
         13   -1    0    0    0    0  0.00000000000E+00  0.00000000000E+00  0.14999999963E+04  0.15000000000E+04  0.10566000000E+00 0. -1.
        994   -1    0    0    0    0 -0.00000000000E+00 -0.00000000000E+00  0.11368683772E-12  0.17120000000E+03  0.17120000000E+03 0.  0.
         13    1    1    2    0    0 -0.12254361008E+02  0.27155860844E+01  0.20220224875E+02  0.23799420781E+02  0.10566000000E+00 0. -1.
        994    1    1    2    0    0  0.48673348854E+01 -0.22342529178E+01  0.37565681526E+01  0.17132493875E+03  0.17120000000E+03 0.  0.
        998    1    1    2    0    0  0.73870261223E+01 -0.48133316658E+00  0.14760232033E+04  0.14760756405E+04  0.10000000000E+02 0. -1.
</event>
<event>
 5    1  0.1520352E-008  0.3822960E+03  0.7957747E-01  0.3441222E+00
         13   -1    0    0    0    0  0.00000000000E+00  0.00000000000E+00  0.14999999963E+04  0.15000000000E+04  0.10566000000E+00 0. -1.
        994   -1    0    0    0    0 -0.00000000000E+00 -0.00000000000E+00  0.11368683772E-12  0.17120000000E+03  0.17120000000E+03 0.  0.
         13    1    1    2    0    0 -0.15945026734E+02 -0.14663185771E+02  0.75869799005E+02  0.78901777291E+02  0.10566000000E+00 0. -1.
        994    1    1    2    0    0  0.14500443300E+02  0.11722687818E+02  0.41329915431E+01  0.17226202682E+03  0.17120000000E+03 0.  0.
        998    1    1    2    0    0  0.14445834337E+01  0.29404979529E+01  0.14199972057E+04  0.14200361959E+04  0.10000000000E+02 0. -1.
</event>
<event>
 5    1  0.1520352E-008  0.3701861E+03  0.7957747E-01  0.3495036E+00
         13   -1    0    0    0    0  0.00000000000E+00  0.00000000000E+00  0.14999999963E+04  0.15000000000E+04  0.10566000000E+00 0.  1.
        994   -1    0    0    0    0 -0.00000000000E+00 -0.00000000000E+00  0.11368683772E-12  0.17120000000E+03  0.17120000000E+03 0.  0.
         13    1    1    2    0    0  0.41247434794E+02  0.46614597178E+01  0.82676308037E+02  0.92511962245E+02  0.10566000000E+00 0.  1.
        994    1    1    2    0    0 -0.49631929900E+02 -0.30076515336E+02  0.20900996954E+02  0.18197312141E+03  0.17120000000E+03 0.  0.
        998    1    1    2    0    0  0.83844951054E+01  0.25415055618E+02  0.13964226913E+04  0.13967149163E+04  0.10000000000E+02 0.  1.
</event>
<event>
 5    1  0.1520352E-008  0.3797870E+03  0.7957747E-01  0.3452087E+00
         13   -1    0    0    0    0  0.00000000000E+00  0.00000000000E+00  0.14999999963E+04  0.15000000000E+04  0.10566000000E+00 0.  1.
        994   -1    0    0    0    0 -0.00000000000E+00 -0.00000000000E+00  0.11368683772E-12  0.17120000000E+03  0.17120000000E+03 0.  0.
         13    1    1    2    0    0  0.31297299156E+02 -0.99111613586E+01  0.12018760287E+03  0.12459062204E+03  0.10566000000E+00 0.  1.
        994    1    1    2    0    0 -0.30431198528E+02 -0.42013728744E+01  0.74041213022E+01  0.17409184470E+03  0.17120000000E+03 0.  0.
        998    1    1    2    0    0 -0.86610062819E+00  0.14112534233E+02  0.13724082721E+04  0.13725175333E+04  0.10000000000E+02 0.  1.
</event>
<event>
 5    1  0.1520352E-008  0.3846344E+03  0.7957747E-01  0.3431224E+00
         13   -1    0    0    0    0  0.00000000000E+00  0.00000000000E+00  0.14999999963E+04  0.15000000000E+04  0.10566000000E+00 0. -1.
        994   -1    0    0    0    0 -0.00000000000E+00 -0.00000000000E+00  0.11368683772E-12  0.17120000000E+03  0.17120000000E+03 0.  0.
         13    1    1    2    0    0 -0.95702103153E+01 -0.50367785445E+01  0.30971918392E+02  0.32805928679E+02  0.10566000000E+00 0. -1.
        994    1    1    2    0    0  0.25800723075E+02 -0.17253836412E+02  0.49901735598E+01  0.17406238541E+03  0.17120000000E+03 0.  0.
        998    1    1    2    0    0 -0.16230512760E+02  0.22290614956E+02  0.14640379043E+04  0.14643316859E+04  0.10000000000E+02 0. -1.
</event>
<event>
 5    1  0.1520352E-008  0.3792255E+03  0.7957747E-01  0.3454538E+00
         13   -1    0    0    0    0  0.00000000000E+00  0.00000000000E+00  0.14999999963E+04  0.15000000000E+04  0.10566000000E+00 0. -1.
        994   -1    0    0    0    0 -0.00000000000E+00 -0.00000000000E+00  0.11368683772E-12  0.17120000000E+03  0.17120000000E+03 0.  0.
         13    1    1    2    0    0  0.89419440538E+02  0.30175583045E+02  0.55164211159E+03  0.55965653092E+03  0.10566000000E+00 0. -1.
        994    1    1    2    0    0 -0.10143766973E+03 -0.19280124079E+02  0.41127907526E+02  0.20411337242E+03  0.17120000000E+03 0.  0.
        998    1    1    2    0    0  0.12018229188E+02 -0.10895458966E+02  0.90722997716E+03  0.90743009665E+03  0.10000000000E+02 0. -1.
</event>
<event>
 5    1  0.1520352E-008  0.4004606E+03  0.7957747E-01  0.3366637E+00
         13   -1    0    0    0    0  0.00000000000E+00  0.00000000000E+00  0.14999999963E+04  0.15000000000E+04  0.10566000000E+00 0. -1.
        994   -1    0    0    0    0 -0.00000000000E+00 -0.00000000000E+00  0.11368683772E-12  0.17120000000E+03  0.17120000000E+03 0.  0.
         13    1    1    2    0    0  0.12750225074E+02 -0.30501046790E+02  0.92964304870E+01  0.34341183418E+02  0.10566000000E+00 0. -1.
        994    1    1    2    0    0  0.70264137777E+02  0.12679429815E+00  0.47688113099E+02  0.19110379710E+03  0.17120000000E+03 0.  0.
        998    1    1    2    0    0 -0.83014362851E+02  0.30374252492E+02  0.14430154527E+04  0.14457550195E+04  0.10000000000E+02 0. -1.
</event>
<event>
 5    1  0.1520352E-008  0.3832700E+03  0.7957747E-01  0.3437042E+00
         13   -1    0    0    0    0  0.00000000000E+00  0.00000000000E+00  0.14999999963E+04  0.15000000000E+04  0.10566000000E+00 0.  1.
        994   -1    0    0    0    0 -0.00000000000E+00 -0.00000000000E+00  0.11368683772E-12  0.17120000000E+03  0.17120000000E+03 0.  0.
         13    1    1    2    0    0  0.31038894928E+01  0.28943320064E+02  0.14645013952E+03  0.14931511790E+03  0.10566000000E+00 0.  1.
        994    1    1    2    0    0 -0.37774525201E+02 -0.34312600016E+02  0.11152455781E+02  0.17899186167E+03  0.17120000000E+03 0.  0.
        998    1    1    2    0    0  0.34670635708E+02  0.53692799520E+01  0.13423974010E+04  0.13428930204E+04  0.10000000000E+02 0.  1.
</event>
<event>
 5    1  0.1520352E-008  0.3858485E+03  0.7957747E-01  0.3426082E+00
         13   -1    0    0    0    0  0.00000000000E+00  0.00000000000E+00  0.14999999963E+04  0.15000000000E+04  0.10566000000E+00 0.  1.
        994   -1    0    0    0    0 -0.00000000000E+00 -0.00000000000E+00  0.11368683772E-12  0.17120000000E+03  0.17120000000E+03 0.  0.
         13    1    1    2    0    0  0.97346276395E+01  0.98106248155E+01  0.70307671403E+02  0.71653270384E+02  0.10566000000E+00 0.  1.
        994    1    1    2    0    0  0.65077573853E+00 -0.38972617407E+02  0.62081012909E+01  0.17569083339E+03  0.17120000000E+03 0.  0.
        998    1    1    2    0    0 -0.10385403378E+02  0.29161992592E+02  0.14234842236E+04  0.14238558962E+04  0.10000000000E+02 0.  1.
</event>
<event>
 5    1  0.1520352E-008  0.3844308E+03  0.7957747E-01  0.3432090E+00
         13   -1    0    0    0    0  0.00000000000E+00  0.00000000000E+00  0.14999999963E+04  0.15000000000E+04  0.10566000000E+00 0.  1.
        994   -1    0    0    0    0 -0.00000000000E+00 -0.00000000000E+00  0.11368683772E-12  0.17120000000E+03  0.17120000000E+03 0.  0.
         13    1    1    2    0    0  0.10527598862E+02 -0.31888747147E+01  0.31252199236E+02  0.33131712616E+02  0.10566000000E+00 0.  1.
        994    1    1    2    0    0 -0.65959566045E+01  0.24651371475E+01  0.20763792048E+01  0.17135733102E+03  0.17120000000E+03 0.  0.
        998    1    1    2    0    0 -0.39316422579E+01  0.72373756716E+00  0.14666714178E+04  0.14667109564E+04  0.10000000000E+02 0.  1.
</event>
<event>
 5    1  0.1754044E-008  0.3853515E+03  0.7957747E-01  0.3428183E+00
         13   -1    0    0    0    0  0.00000000000E+00  0.00000000000E+00  0.14999999963E+04  0.15000000000E+04  0.10566000000E+00 0. -1.
        994   -1    0    0    0    0 -0.00000000000E+00 -0.00000000000E+00  0.11368683772E-12  0.17120000000E+03  0.17120000000E+03 0.  0.
         13    1    1    2    0    0 -0.15383327187E+01  0.10220415380E+02  0.37541152006E+02  0.38938061278E+02  0.10566000000E+00 0. -1.
        994    1    1    2    0    0 -0.15790780888E+01 -0.28438076522E+01  0.14904625490E+01  0.17123738554E+03  0.17120000000E+03 0.  0.
        998    1    1    2    0    0  0.31174108074E+01 -0.73766077274E+01  0.14609683817E+04  0.14610245532E+04  0.10000000000E+02 0. -1.
</event>
<event>
 5    1  0.1520352E-008  0.3847496E+03  0.7957747E-01  0.3430735E+00
         13   -1    0    0    0    0  0.00000000000E+00  0.00000000000E+00  0.14999999963E+04  0.15000000000E+04  0.10566000000E+00 0. -1.
        994   -1    0    0    0    0 -0.00000000000E+00 -0.00000000000E+00  0.11368683772E-12  0.17120000000E+03  0.17120000000E+03 0.  0.
         13    1    1    2    0    0  0.10279092839E+02  0.12466980228E+02  0.85442852637E+02  0.86957331930E+02  0.10566000000E+00 0. -1.
        994    1    1    2    0    0  0.53248279408E+00  0.11027612088E+02  0.21558080202E+01  0.17156916761E+03  0.17120000000E+03 0.  0.
        998    1    1    2    0    0 -0.10811575633E+02 -0.23494592316E+02  0.14124013356E+04  0.14126735005E+04  0.10000000000E+02 0. -1.
</event>
<event>
 5    1  0.1520352E-008  0.3789019E+03  0.7957747E-01  0.3455954E+00
         13   -1    0    0    0    0  0.00000000000E+00  0.00000000000E+00  0.14999999963E+04  0.15000000000E+04  0.10566000000E+00 0. -1.
        994   -1    0    0    0    0 -0.00000000000E+00 -0.00000000000E+00  0.11368683772E-12  0.17120000000E+03  0.17120000000E+03 0.  0.
         13    1    1    2    0    0 -0.36782754019E+02  0.11991010418E+02  0.14934527208E+03  0.15427500375E+03  0.10566000000E+00 0. -1.
        994    1    1    2    0    0  0.26080299794E+02 -0.24814470419E+02  0.90487584675E+01  0.17517779542E+03  0.17120000000E+03 0.  0.
        998    1    1    2    0    0  0.10702454225E+02  0.12823460000E+02  0.13416059657E+04  0.13417472008E+04  0.10000000000E+02 0.  1.
</event>
<event>
 5    1  0.1520352E-008  0.3741644E+03  0.7957747E-01  0.3476968E+00
         13   -1    0    0    0    0  0.00000000000E+00  0.00000000000E+00  0.14999999963E+04  0.15000000000E+04  0.10566000000E+00 0.  1.
        994   -1    0    0    0    0 -0.00000000000E+00 -0.00000000000E+00  0.11368683772E-12  0.17120000000E+03  0.17120000000E+03 0.  0.
         13    1    1    2    0    0  0.44103354283E+02  0.18461316907E+02  0.17076345817E+03  0.17733047084E+03  0.10566000000E+00 0.  1.
        994    1    1    2    0    0 -0.16445839632E+02  0.22956566466E+01  0.80489473668E+01  0.17219164101E+03  0.17120000000E+03 0.  0.
        998    1    1    2    0    0 -0.27657514651E+02 -0.20756973553E+02  0.13211875907E+04  0.13216778881E+04  0.10000000000E+02 0.  1.
</event>
<event>
 5    1  0.1520352E-008  0.3843898E+03  0.7957747E-01  0.3432264E+00
         13   -1    0    0    0    0  0.00000000000E+00  0.00000000000E+00  0.14999999963E+04  0.15000000000E+04  0.10566000000E+00 0. -1.
        994   -1    0    0    0    0 -0.00000000000E+00 -0.00000000000E+00  0.11368683772E-12  0.17120000000E+03  0.17120000000E+03 0.  0.
         13    1    1    2    0    0 -0.12078944907E+02  0.15499394081E+01  0.37493582811E+02  0.39421861173E+02  0.10566000000E+00 0. -1.
        994    1    1    2    0    0  0.11587283723E+02  0.40815775698E+01  0.24308930415E+01  0.17165743113E+03  0.17120000000E+03 0.  0.
        998    1    1    2    0    0  0.49166118425E+00 -0.56315169778E+01  0.14600755204E+04  0.14601207077E+04  0.10000000000E+02 0. -1.
</event>
<event>
 5    1  0.1520352E-008  0.3761766E+03  0.7957747E-01  0.3467977E+00
         13   -1    0    0    0    0  0.00000000000E+00  0.00000000000E+00  0.14999999963E+04  0.15000000000E+04  0.10566000000E+00 0. -1.
        994   -1    0    0    0    0 -0.00000000000E+00 -0.00000000000E+00  0.11368683772E-12  0.17120000000E+03  0.17120000000E+03 0.  0.
         13    1    1    2    0    0 -0.15470878250E+02  0.60750123496E+01  0.20062086886E+02  0.26052875909E+02  0.10566000000E+00 0. -1.
        994    1    1    2    0    0  0.99498839847E+01 -0.10759188166E+02  0.68032239188E+01  0.17196070533E+03  0.17120000000E+03 0.  0.
        998    1    1    2    0    0  0.55209942653E+01  0.46841758160E+01  0.14731346855E+04  0.14731864188E+04  0.10000000000E+02 0. -1.
</event>
<event>
 5    1  0.1520352E-008  0.3849450E+03  0.7957747E-01  0.3429906E+00
         13   -1    0    0    0    0  0.00000000000E+00  0.00000000000E+00  0.14999999963E+04  0.15000000000E+04  0.10566000000E+00 0.  1.
        994   -1    0    0    0    0 -0.00000000000E+00 -0.00000000000E+00  0.11368683772E-12  0.17120000000E+03  0.17120000000E+03 0.  0.
         13    1    1    2    0    0 -0.74883425210E+00  0.13735342654E+02  0.55219936459E+02  0.56907582422E+02  0.10566000000E+00 0.  1.
        994    1    1    2    0    0 -0.59961129180E+01 -0.15130750195E+02  0.25292505521E+01  0.17199049416E+03  0.17120000000E+03 0.  0.
        998    1    1    2    0    0  0.67449471701E+01  0.13954075414E+01  0.14422508093E+04  0.14423019234E+04  0.10000000000E+02 0.  1.
</event>
<event>
 5    1  0.1520352E-008  0.3743831E+03  0.7957747E-01  0.3475987E+00
         13   -1    0    0    0    0  0.00000000000E+00  0.00000000000E+00  0.14999999963E+04  0.15000000000E+04  0.10566000000E+00 0.  1.
        994   -1    0    0    0    0 -0.00000000000E+00 -0.00000000000E+00  0.11368683772E-12  0.17120000000E+03  0.17120000000E+03 0.  0.
         13    1    1    2    0    0  0.10305730331E+02  0.15445960338E+01  0.44681757884E+01  0.11338854152E+02  0.10566000000E+00 0.  1.
        994    1    1    2    0    0 -0.12133927701E+02 -0.16965562340E+01  0.75073593551E+01  0.17180195269E+03  0.17120000000E+03 0.  0.
        998    1    1    2    0    0  0.18281973701E+01  0.15196020018E+00  0.14880244611E+04  0.14880591932E+04  0.10000000000E+02 0.  1.
</event>
<event>
 5    1  0.1520352E-008  0.3773326E+03  0.7957747E-01  0.3462856E+00
         13   -1    0    0    0    0  0.00000000000E+00  0.00000000000E+00  0.14999999963E+04  0.15000000000E+04  0.10566000000E+00 0. -1.
        994   -1    0    0    0    0 -0.00000000000E+00 -0.00000000000E+00  0.11368683772E-12  0.17120000000E+03  0.17120000000E+03 0.  0.
         13    1    1    2    0    0 -0.33211322247E+02  0.15435056332E+02  0.11490317110E+03  0.12059843607E+03  0.10566000000E+00 0. -1.
        994    1    1    2    0    0  0.27340940637E+02 -0.15897028338E+02  0.88665886741E+01  0.17432239942E+03  0.17120000000E+03 0.  0.
        998    1    1    2    0    0  0.58703816096E+01  0.46197200612E+00  0.13762302365E+04  0.13762791645E+04  0.10000000000E+02 0. -1.
</event>
<event>
 5    1  0.1520352E-008  0.3715447E+03  0.7957747E-01  0.3488822E+00
         13   -1    0    0    0    0  0.00000000000E+00  0.00000000000E+00  0.14999999963E+04  0.15000000000E+04  0.10566000000E+00 0.  1.
        994   -1    0    0    0    0 -0.00000000000E+00 -0.00000000000E+00  0.11368683772E-12  0.17120000000E+03  0.17120000000E+03 0.  0.
         13    1    1    2    0    0  0.20386663050E+02  0.20976657898E+03  0.12311539080E+04  0.12490626846E+04  0.10566000000E+00 0.  1.
        994    1    1    2    0    0  0.44443817927E+00 -0.19525864081E+03  0.14935425834E+03  0.29957014007E+03  0.17120000000E+03 0.  0.
        998    1    1    2    0    0 -0.20831101229E+02 -0.14507938169E+02  0.11949182991E+03  0.12256717531E+03  0.10000000000E+02 0. -1.
</event>
<event>
 5    1  0.1520352E-008  0.3851881E+03  0.7957747E-01  0.3428875E+00
         13   -1    0    0    0    0  0.00000000000E+00  0.00000000000E+00  0.14999999963E+04  0.15000000000E+04  0.10566000000E+00 0. -1.
        994   -1    0    0    0    0 -0.00000000000E+00 -0.00000000000E+00  0.11368683772E-12  0.17120000000E+03  0.17120000000E+03 0.  0.
         13    1    1    2    0    0  0.13296155589E+02 -0.10731526136E+02  0.99281280924E+02  0.10074094159E+03  0.10566000000E+00 0. -1.
        994    1    1    2    0    0 -0.41934441821E+01  0.40007629477E+01  0.16471914168E+01  0.17130599615E+03  0.17120000000E+03 0.  0.
        998    1    1    2    0    0 -0.91027114069E+01  0.67307631886E+01  0.13990715239E+04  0.13991530623E+04  0.10000000000E+02 0. -1.
</event>
<event>
 5    1  0.1520352E-008  0.3831005E+03  0.7957747E-01  0.3437768E+00
         13   -1    0    0    0    0  0.00000000000E+00  0.00000000000E+00  0.14999999963E+04  0.15000000000E+04  0.10566000000E+00 0.  1.
        994   -1    0    0    0    0 -0.00000000000E+00 -0.00000000000E+00  0.11368683772E-12  0.17120000000E+03  0.17120000000E+03 0.  0.
         13    1    1    2    0    0  0.62796475115E+01  0.16978652994E+02  0.64387924490E+02  0.66884412343E+02  0.10566000000E+00 0.  1.
        994    1    1    2    0    0 -0.63520319515E+00 -0.73185030020E+01  0.27547322115E+01  0.17137967359E+03  0.17120000000E+03 0.  0.
        998    1    1    2    0    0 -0.56444443163E+01 -0.96601499923E+01  0.14328573396E+04  0.14329359141E+04  0.10000000000E+02 0.  1.
</event>
<event>
 5    1  0.1520352E-008  0.3725324E+03  0.7957747E-01  0.3484333E+00
         13   -1    0    0    0    0  0.00000000000E+00  0.00000000000E+00  0.14999999963E+04  0.15000000000E+04  0.10566000000E+00 0. -1.
        994   -1    0    0    0    0 -0.00000000000E+00 -0.00000000000E+00  0.11368683772E-12  0.17120000000E+03  0.17120000000E+03 0.  0.
         13    1    1    2    0    0 -0.56866974658E+02 -0.15268966277E+03  0.94193863000E+03  0.95592697408E+03  0.10566000000E+00 0. -1.
        994    1    1    2    0    0  0.97422382106E+02  0.12217398918E+03  0.96917869772E+02  0.25123717410E+03  0.17120000000E+03 0.  0.
        998    1    1    2    0    0 -0.40555407448E+02  0.30515673592E+02  0.46114349651E+03  0.46403585182E+03  0.10000000000E+02 0.  1.
</event>
<event>
 5    1  0.1520352E-008  0.3785155E+03  0.7957747E-01  0.3457648E+00
         13   -1    0    0    0    0  0.00000000000E+00  0.00000000000E+00  0.14999999963E+04  0.15000000000E+04  0.10566000000E+00 0.  1.
        994   -1    0    0    0    0 -0.00000000000E+00 -0.00000000000E+00  0.11368683772E-12  0.17120000000E+03  0.17120000000E+03 0.  0.
         13    1    1    2    0    0  0.51449611947E+02 -0.11347139730E+03  0.30434962558E+03  0.32886399366E+03  0.10566000000E+00 0.  1.
        994    1    1    2    0    0 -0.72371976985E+02  0.14472034743E+03  0.11706708860E+03  0.26305099362E+03  0.17120000000E+03 0.  0.
        998    1    1    2    0    0  0.20922365039E+02 -0.31248950125E+02  0.10785832821E+04  0.10792850127E+04  0.10000000000E+02 0.  1.
</event>
<event>
 5    1  0.1520352E-008  0.3834562E+03  0.7957747E-01  0.3436246E+00
         13   -1    0    0    0    0  0.00000000000E+00  0.00000000000E+00  0.14999999963E+04  0.15000000000E+04  0.10566000000E+00 0.  1.
        994   -1    0    0    0    0 -0.00000000000E+00 -0.00000000000E+00  0.11368683772E-12  0.17120000000E+03  0.17120000000E+03 0.  0.
         13    1    1    2    0    0  0.17876872919E+02  0.19175822125E+02  0.13252702557E+03  0.13509521979E+03  0.10566000000E+00 0.  1.
        994    1    1    2    0    0 -0.16611060279E+02 -0.19595934854E+02  0.45828087681E+01  0.17317727946E+03  0.17120000000E+03 0.  0.
        998    1    1    2    0    0 -0.12658126401E+01  0.42011272892E+00  0.13628901619E+04  0.13629275007E+04  0.10000000000E+02 0.  0.
</event>
<event>
 5    1  0.1520352E-008  0.3794355E+03  0.7957747E-01  0.3453620E+00
         13   -1    0    0    0    0  0.00000000000E+00  0.00000000000E+00  0.14999999963E+04  0.15000000000E+04  0.10566000000E+00 0.  1.
        994   -1    0    0    0    0 -0.00000000000E+00 -0.00000000000E+00  0.11368683772E-12  0.17120000000E+03  0.17120000000E+03 0.  0.
         13    1    1    2    0    0  0.11383432887E+03 -0.96002470337E+01  0.65276882127E+03  0.66268964408E+03  0.10566000000E+00 0.  1.
        994    1    1    2    0    0 -0.12855926217E+03  0.50663131514E+02  0.71276530507E+02  0.23126612503E+03  0.17120000000E+03 0.  0.
        998    1    1    2    0    0  0.14724933297E+02 -0.41062884481E+02  0.77595464450E+03  0.77724423089E+03  0.10000000000E+02 0.  1.
</event>
<event>
 5    1  0.1520352E-008  0.3787887E+03  0.7957747E-01  0.3456450E+00
         13   -1    0    0    0    0  0.00000000000E+00  0.00000000000E+00  0.14999999963E+04  0.15000000000E+04  0.10566000000E+00 0. -1.
        994   -1    0    0    0    0 -0.00000000000E+00 -0.00000000000E+00  0.11368683772E-12  0.17120000000E+03  0.17120000000E+03 0.  0.
         13    1    1    2    0    0 -0.39113272276E+02 -0.13781100304E+02  0.16013779483E+03  0.16542034727E+03  0.10566000000E+00 0. -1.
        994    1    1    2    0    0  0.39719154061E+02  0.16967377697E+02  0.11032768169E+02  0.17690863483E+03  0.17120000000E+03 0.  0.
        998    1    1    2    0    0 -0.60588178539E+00 -0.31862773933E+01  0.13288294333E+04  0.13288710179E+04  0.10000000000E+02 0. -1.
</event>
<event>
 5    1  0.1520352E-008  0.2677297E+03  0.7957747E-01  0.4157252E+00
         13   -1    0    0    0    0  0.00000000000E+00  0.00000000000E+00  0.14999999963E+04  0.15000000000E+04  0.10566000000E+00 0.  1.
        994   -1    0    0    0    0 -0.00000000000E+00 -0.00000000000E+00  0.11368683772E-12  0.17120000000E+03  0.17120000000E+03 0.  0.
         13    1    1    2    0    0  0.14910594691E+03  0.34462682707E+02  0.63173106389E+03  0.65000339087E+03  0.10566000000E+00 0.  1.
        994    1    1    2    0    0 -0.20793235373E+02 -0.23509573043E+02  0.34446679532E+02  0.17742906299E+03  0.17120000000E+03 0.  0.
        998    1    1    2    0    0 -0.12831271154E+03 -0.10953109664E+02  0.83382225286E+03  0.84376754614E+03  0.10000000000E+02 0. -1.
</event>
<event>
 5    1  0.1520352E-008  0.3796412E+03  0.7957747E-01  0.3452722E+00
         13   -1    0    0    0    0  0.00000000000E+00  0.00000000000E+00  0.14999999963E+04  0.15000000000E+04  0.10566000000E+00 0.  1.
        994   -1    0    0    0    0 -0.00000000000E+00 -0.00000000000E+00  0.11368683772E-12  0.17120000000E+03  0.17120000000E+03 0.  0.
         13    1    1    2    0    0  0.17508675193E+02 -0.18154642557E+02  0.79112457247E+02  0.83035756209E+02  0.10566000000E+00 0.  1.
        994    1    1    2    0    0 -0.96278997755E+01 -0.15020755672E+02  0.53804879979E+01  0.17221123426E+03  0.17120000000E+03 0.  0.
        998    1    1    2    0    0 -0.78807754178E+01  0.33175398229E+02  0.14155070510E+04  0.14159530095E+04  0.10000000000E+02 0.  1.
</event>
<event>
 5    1  0.1520352E-008  0.3827902E+03  0.7957747E-01  0.3439098E+00
         13   -1    0    0    0    0  0.00000000000E+00  0.00000000000E+00  0.14999999963E+04  0.15000000000E+04  0.10566000000E+00 0. -1.
        994   -1    0    0    0    0 -0.00000000000E+00 -0.00000000000E+00  0.11368683772E-12  0.17120000000E+03  0.17120000000E+03 0.  0.
         13    1    1    2    0    0 -0.27188472396E+02  0.15130370685E+02  0.18293420448E+03  0.18556151401E+03  0.10566000000E+00 0. -1.
        994    1    1    2    0    0  0.14129293509E+02 -0.35331890571E+01  0.34341734870E+01  0.17185270992E+03  0.17120000000E+03 0.  0.
        998    1    1    2    0    0  0.13059178886E+02 -0.11597181628E+02  0.13136316183E+04  0.13137857761E+04  0.10000000000E+02 0. -1.
</event>
<event>
 5    1  0.1520352E-008  0.3750242E+03  0.7957747E-01  0.3473114E+00
         13   -1    0    0    0    0  0.00000000000E+00  0.00000000000E+00  0.14999999963E+04  0.15000000000E+04  0.10566000000E+00 0. -1.
        994   -1    0    0    0    0 -0.00000000000E+00 -0.00000000000E+00  0.11368683772E-12  0.17120000000E+03  0.17120000000E+03 0.  0.
         13    1    1    2    0    0  0.39621799531E+02 -0.44582544198E+02  0.34168499100E+03  0.34685174713E+03  0.10566000000E+00 0. -1.
        994    1    1    2    0    0 -0.35464250012E+01  0.25054726906E+01  0.67303837585E+01  0.17138725912E+03  0.17120000000E+03 0.  0.
        998    1    1    2    0    0 -0.36075374530E+02  0.42077071508E+02  0.11515846215E+04  0.11529609937E+04  0.10000000000E+02 0. -1.
</event>
<event>
 5    1  0.1520352E-008  0.3733268E+03  0.7957747E-01  0.3480740E+00
         13   -1    0    0    0    0  0.00000000000E+00  0.00000000000E+00  0.14999999963E+04  0.15000000000E+04  0.10566000000E+00 0.  1.
        994   -1    0    0    0    0 -0.00000000000E+00 -0.00000000000E+00  0.11368683772E-12  0.17120000000E+03  0.17120000000E+03 0.  0.
         13    1    1    2    0    0  0.41465361511E+02  0.35253341493E+01  0.10460559791E+03  0.11257951175E+03  0.10566000000E+00 0.  1.
        994    1    1    2    0    0 -0.42489592532E+02 -0.22465610552E+01  0.13754687914E+02  0.17694361800E+03  0.17120000000E+03 0.  0.
        998    1    1    2    0    0  0.10242310212E+01 -0.12787730941E+01  0.13816397105E+04  0.13816768703E+04  0.10000000000E+02 0.  1.
</event>
<event>
 5    1  0.1520352E-008  0.3821398E+03  0.7957747E-01  0.3441894E+00
         13   -1    0    0    0    0  0.00000000000E+00  0.00000000000E+00  0.14999999963E+04  0.15000000000E+04  0.10566000000E+00 0. -1.
        994   -1    0    0    0    0 -0.00000000000E+00 -0.00000000000E+00  0.11368683772E-12  0.17120000000E+03  0.17120000000E+03 0.  0.
         13    1    1    2    0    0 -0.16404119746E+02  0.38175866491E+01  0.46313919688E+02  0.49281430918E+02  0.10566000000E+00 0. -1.
        994    1    1    2    0    0  0.62385299279E+01  0.75559806964E-01  0.31860929019E+01  0.17134326994E+03  0.17120000000E+03 0.  0.
        998    1    1    2    0    0  0.10165589818E+02 -0.38931464560E+01  0.14504999837E+04  0.14505752991E+04  0.10000000000E+02 0. -1.
</event>
<event>
 5    1  0.1520352E-008  0.3744029E+03  0.7957747E-01  0.3475898E+00
         13   -1    0    0    0    0  0.00000000000E+00  0.00000000000E+00  0.14999999963E+04  0.15000000000E+04  0.10566000000E+00 0. -1.
        994   -1    0    0    0    0 -0.00000000000E+00 -0.00000000000E+00  0.11368683772E-12  0.17120000000E+03  0.17120000000E+03 0.  0.
         13    1    1    2    0    0 -0.98544689023E+01 -0.21940990433E+02  0.37977449703E+02  0.44953481161E+02  0.10566000000E+00 0. -1.
        994    1    1    2    0    0  0.72771004104E+01  0.20821240126E+02  0.86444112886E+01  0.17283126476E+03  0.17120000000E+03 0.  0.
        998    1    1    2    0    0  0.25773684919E+01  0.11197503075E+01  0.14533781353E+04  0.14534152541E+04  0.10000000000E+02 0. -1.
</event>
<event>
 5    1  0.1520352E-008  0.3848593E+03  0.7957747E-01  0.3430269E+00
         13   -1    0    0    0    0  0.00000000000E+00  0.00000000000E+00  0.14999999963E+04  0.15000000000E+04  0.10566000000E+00 0.  1.
        994   -1    0    0    0    0 -0.00000000000E+00 -0.00000000000E+00  0.11368683772E-12  0.17120000000E+03  0.17120000000E+03 0.  0.
         13    1    1    2    0    0  0.15631948601E+02 -0.96347341263E+01  0.95091862918E+02  0.96848642097E+02  0.10566000000E+00 0.  1.
        994    1    1    2    0    0 -0.11492756380E+02  0.14493303508E+02  0.28264991808E+01  0.17221953546E+03  0.17120000000E+03 0.  0.
        998    1    1    2    0    0 -0.41391922213E+01 -0.48585693820E+01  0.14020816342E+04  0.14021318224E+04  0.10000000000E+02 0.  1.
</event>
<event>
 5    1  0.1520352E-008  0.4043310E+03  0.7957747E-01  0.3351608E+00
         13   -1    0    0    0    0  0.00000000000E+00  0.00000000000E+00  0.14999999963E+04  0.15000000000E+04  0.10566000000E+00 0.  1.
        994   -1    0    0    0    0 -0.00000000000E+00 -0.00000000000E+00  0.11368683772E-12  0.17120000000E+03  0.17120000000E+03 0.  0.
         13    1    1    2    0    0 -0.61731977575E+02 -0.44109361687E+02  0.88904822462E+02  0.11687836183E+03  0.10566000000E+00 0.  1.
        994    1    1    2    0    0  0.38697765613E+02  0.17559976544E+02  0.37622460716E+02  0.18036285480E+03  0.17120000000E+03 0.  0.
        998    1    1    2    0    0  0.23034211962E+02  0.26549385143E+02  0.13734727131E+04  0.13739587834E+04  0.10000000000E+02 0.  1.
</event>
<event>
 5    1  0.1520352E-008  0.3752433E+03  0.7957747E-01  0.3472135E+00
         13   -1    0    0    0    0  0.00000000000E+00  0.00000000000E+00  0.14999999963E+04  0.15000000000E+04  0.10566000000E+00 0. -1.
        994   -1    0    0    0    0 -0.00000000000E+00 -0.00000000000E+00  0.11368683772E-12  0.17120000000E+03  0.17120000000E+03 0.  0.
         13    1    1    2    0    0 -0.46126648507E+02  0.14590251020E+02  0.15821128891E+03  0.16544293950E+03  0.10566000000E+00 0. -1.
        994    1    1    2    0    0  0.38099652422E+02 -0.44487079134E+02  0.18296391649E+02  0.18186500948E+03  0.17120000000E+03 0.  0.
        998    1    1    2    0    0  0.80269960848E+01  0.29896828114E+02  0.13234923157E+04  0.13238920510E+04  0.10000000000E+02 0. -1.
</event>
<event>
 5    1  0.2006658E-008  0.3857943E+03  0.7957747E-01  0.3426311E+00
         13   -1    0    0    0    0  0.00000000000E+00  0.00000000000E+00  0.14999999963E+04  0.15000000000E+04  0.10566000000E+00 0. -1.
        994   -1    0    0    0    0 -0.00000000000E+00 -0.00000000000E+00  0.11368683772E-12  0.17120000000E+03  0.17120000000E+03 0.  0.
         13    1    1    2    0    0 -0.82472561192E+01 -0.85372319242E+01  0.57521761668E+02  0.58733855585E+02  0.10566000000E+00 0. -1.
        994    1    1    2    0    0  0.33512077117E+01  0.76669231859E+01  0.14659899906E+01  0.17141062228E+03  0.17120000000E+03 0.  0.
        998    1    1    2    0    0  0.48960484075E+01  0.87030873827E+00  0.14410122446E+04  0.14410555221E+04  0.10000000000E+02 0. -1.
</event>
<event>
 5    1  0.1520352E-008  0.3849944E+03  0.7957747E-01  0.3429696E+00
         13   -1    0    0    0    0  0.00000000000E+00  0.00000000000E+00  0.14999999963E+04  0.15000000000E+04  0.10566000000E+00 0. -1.
        994   -1    0    0    0    0 -0.00000000000E+00 -0.00000000000E+00  0.11368683772E-12  0.17120000000E+03  0.17120000000E+03 0.  0.
         13    1    1    2    0    0  0.10197560986E+02 -0.19176840339E+02  0.13094022484E+03  0.13272940556E+03  0.10566000000E+00 0. -1.
        994    1    1    2    0    0 -0.11388771532E+02  0.21773148398E+02  0.36210545908E+01  0.17299227192E+03  0.17120000000E+03 0.  0.
        998    1    1    2    0    0  0.11912105459E+01 -0.25963080590E+01  0.13654387168E+04  0.13654783225E+04  0.10000000000E+02 0. -1.
</event>
<event>
 5    1  0.1520352E-008  0.3713856E+03  0.7957747E-01  0.3489547E+00
         13   -1    0    0    0    0  0.00000000000E+00  0.00000000000E+00  0.14999999963E+04  0.15000000000E+04  0.10566000000E+00 0. -1.
        994   -1    0    0    0    0 -0.00000000000E+00 -0.00000000000E+00  0.11368683772E-12  0.17120000000E+03  0.17120000000E+03 0.  0.
         13    1    1    2    0    0 -0.10042884115E+02  0.17792782234E+02  0.12701248854E+02  0.24057753583E+02  0.10566000000E+00 0. -1.
        994    1    1    2    0    0  0.93411324670E+01 -0.15384031160E+02  0.12812113652E+02  0.17261956849E+03  0.17120000000E+03 0.  0.
        998    1    1    2    0    0  0.70175164782E+00 -0.24087510739E+01  0.14744866338E+04  0.14745226779E+04  0.10000000000E+02 0. -1.
</event>
<event>
 5    1  0.1520352E-008  0.3790975E+03  0.7957747E-01  0.3455098E+00
         13   -1    0    0    0    0  0.00000000000E+00  0.00000000000E+00  0.14999999963E+04  0.15000000000E+04  0.10566000000E+00 0. -1.
        994   -1    0    0    0    0 -0.00000000000E+00 -0.00000000000E+00  0.11368683772E-12  0.17120000000E+03  0.17120000000E+03 0.  0.
         13    1    1    2    0    0  0.32817018596E+02 -0.54040149239E+02  0.35481346563E+03  0.36040241535E+03  0.10566000000E+00 0. -1.
        994    1    1    2    0    0 -0.11706354659E+02  0.60669005709E+02  0.17498359500E+02  0.18284802317E+03  0.17120000000E+03 0.  0.
        998    1    1    2    0    0 -0.21110663938E+02 -0.66288564705E+01  0.11276881712E+04  0.11279495615E+04  0.10000000000E+02 0. -1.
</event>
<event>
 5    1  0.1520352E-008  0.3812095E+03  0.7957747E-01  0.3445909E+00
         13   -1    0    0    0    0  0.00000000000E+00  0.00000000000E+00  0.14999999963E+04  0.15000000000E+04  0.10566000000E+00 0. -1.
        994   -1    0    0    0    0 -0.00000000000E+00 -0.00000000000E+00  0.11368683772E-12  0.17120000000E+03  0.17120000000E+03 0.  0.
         13    1    1    2    0    0  0.73923628884E+01 -0.81617069364E+01  0.15613053453E+02  0.19105996215E+02  0.10566000000E+00 0.  1.
        994    1    1    2    0    0 -0.66577349867E+01  0.84264244516E+01  0.39079243581E+01  0.17158100692E+03  0.17120000000E+03 0.  0.
        998    1    1    2    0    0 -0.73462790166E+00 -0.26471751523E+00  0.14804790185E+04  0.14805129969E+04  0.10000000000E+02 0. -1.
</event>
<event>
 5    1  0.1520352E-008  0.3845959E+03  0.7957747E-01  0.3431388E+00
         13   -1    0    0    0    0  0.00000000000E+00  0.00000000000E+00  0.14999999963E+04  0.15000000000E+04  0.10566000000E+00 0.  1.
        994   -1    0    0    0    0 -0.00000000000E+00 -0.00000000000E+00  0.11368683772E-12  0.17120000000E+03  0.17120000000E+03 0.  0.
         13    1    1    2    0    0  0.12537367517E+02 -0.18822825015E+02  0.13280924028E+03  0.13472115570E+03  0.10566000000E+00 0.  1.
        994    1    1    2    0    0 -0.92142392376E+01  0.17506636948E+02  0.31207742455E+01  0.17236752529E+03  0.17120000000E+03 0.  0.
        998    1    1    2    0    0 -0.33231282790E+01  0.13161880667E+01  0.13640699818E+04  0.13641113190E+04  0.10000000000E+02 0.  1.
</event>
<event>
 5    1  0.1520352E-008  0.3803907E+03  0.7957747E-01  0.3449459E+00
         13   -1    0    0    0    0  0.00000000000E+00  0.00000000000E+00  0.14999999963E+04  0.15000000000E+04  0.10566000000E+00 0. -1.
        994   -1    0    0    0    0 -0.00000000000E+00 -0.00000000000E+00  0.11368683772E-12  0.17120000000E+03  0.17120000000E+03 0.  0.
         13    1    1    2    0    0 -0.27570627886E+02  0.69625479451E+00  0.91984995794E+02  0.96030593604E+02  0.10566000000E+00 0. -1.
        994    1    1    2    0    0  0.24291262530E+02  0.11616949636E+02  0.63603861194E+01  0.17342120247E+03  0.17120000000E+03 0.  0.
        998    1    1    2    0    0  0.32793653556E+01 -0.12313204431E+02  0.14016546144E+04  0.14017482039E+04  0.10000000000E+02 0. -1.
</event>
<event>
 5    1  0.1520352E-008  0.3858127E+03  0.7957747E-01  0.3426233E+00
         13   -1    0    0    0    0  0.00000000000E+00  0.00000000000E+00  0.14999999963E+04  0.15000000000E+04  0.10566000000E+00 0.  1.
        994   -1    0    0    0    0 -0.00000000000E+00 -0.00000000000E+00  0.11368683772E-12  0.17120000000E+03  0.17120000000E+03 0.  0.
         13    1    1    2    0    0 -0.78100559592E+01  0.12716627419E+02  0.88311975557E+02  0.89564087545E+02  0.10566000000E+00 0.  1.
        994    1    1    2    0    0  0.83879849693E+01 -0.11187286606E+02  0.18687468332E+01  0.17178022554E+03  0.17120000000E+03 0.  0.
        998    1    1    2    0    0 -0.57792901013E+00 -0.15293408129E+01  0.14098192739E+04  0.14098556869E+04  0.10000000000E+02 0.  1.
</event>
<event>
 5    1  0.1520352E-008  0.3841116E+03  0.7957747E-01  0.3433449E+00
         13   -1    0    0    0    0  0.00000000000E+00  0.00000000000E+00  0.14999999963E+04  0.15000000000E+04  0.10566000000E+00 0. -1.
        994   -1    0    0    0    0 -0.00000000000E+00 -0.00000000000E+00  0.11368683772E-12  0.17120000000E+03  0.17120000000E+03 0.  0.
         13    1    1    2    0    0  0.14469671286E+02 -0.11562791196E+02  0.84776042150E+02  0.86775906875E+02  0.10566000000E+00 0. -1.
        994    1    1    2    0    0 -0.45108626989E+01  0.63695420642E+01  0.22727805288E+01  0.17139289507E+03  0.17120000000E+03 0.  0.
        998    1    1    2    0    0 -0.99588085873E+01  0.51932491315E+01  0.14129511736E+04  0.14130311981E+04  0.10000000000E+02 0. -1.
</event>
<event>
 5    1  0.1520352E-008  0.3854004E+03  0.7957747E-01  0.3427976E+00
         13   -1    0    0    0    0  0.00000000000E+00  0.00000000000E+00  0.14999999963E+04  0.15000000000E+04  0.10566000000E+00 0. -1.
        994   -1    0    0    0    0 -0.00000000000E+00 -0.00000000000E+00  0.11368683772E-12  0.17120000000E+03  0.17120000000E+03 0.  0.
         13    1    1    2    0    0 -0.38381641076E+01  0.11175361585E+02  0.52771326688E+02  0.54078131390E+02  0.10566000000E+00 0. -1.
        994    1    1    2    0    0 -0.41103891292E+01  0.31876147396E+01  0.15203269014E+01  0.17128574833E+03  0.17120000000E+03 0.  0.
        998    1    1    2    0    0  0.79485532368E+01 -0.14362976325E+02  0.14457083427E+04  0.14458361203E+04  0.10000000000E+02 0. -1.
</event>
<event>
 5    1  0.1520352E-008  0.3735328E+03  0.7957747E-01  0.3479811E+00
         13   -1    0    0    0    0  0.00000000000E+00  0.00000000000E+00  0.14999999963E+04  0.15000000000E+04  0.10566000000E+00 0. -1.
        994   -1    0    0    0    0 -0.00000000000E+00 -0.00000000000E+00  0.11368683772E-12  0.17120000000E+03  0.17120000000E+03 0.  0.
         13    1    1    2    0    0 -0.49432340829E+02  0.46490295914E+02  0.26959323823E+03  0.27800257049E+03  0.10566000000E+00 0. -1.
        994    1    1    2    0    0  0.43430017354E+02 -0.39420282892E+02  0.19278497117E+02  0.18199237776E+03  0.17120000000E+03 0.  0.
        998    1    1    2    0    0  0.60023234751E+01 -0.70700130228E+01  0.12111282609E+04  0.12112050518E+04  0.10000000000E+02 0. -1.
</event>
<event>
 5    1  0.1520352E-008  0.4152722E+03  0.7957747E-01  0.3310626E+00
         13   -1    0    0    0    0  0.00000000000E+00  0.00000000000E+00  0.14999999963E+04  0.15000000000E+04  0.10566000000E+00 0. -1.
        994   -1    0    0    0    0 -0.00000000000E+00 -0.00000000000E+00  0.11368683772E-12  0.17120000000E+03  0.17120000000E+03 0.  0.
         13    1    1    2    0    0  0.30189433282E+02  0.33759232191E+02  0.15605165322E+02  0.47902191900E+02  0.10566000000E+00 0. -1.
        994    1    1    2    0    0 -0.22127716257E+02  0.34254063030E+02  0.44219458623E+02  0.18146012560E+03  0.17120000000E+03 0.  0.
        998    1    1    2    0    0 -0.80617170255E+01 -0.68013295221E+02  0.14401753723E+04  0.14418376825E+04  0.10000000000E+02 0. -1.
</event>
<event>
 5    1  0.1520352E-008  0.3850783E+03  0.7957747E-01  0.3429340E+00
         13   -1    0    0    0    0  0.00000000000E+00  0.00000000000E+00  0.14999999963E+04  0.15000000000E+04  0.10566000000E+00 0. -1.
        994   -1    0    0    0    0 -0.00000000000E+00 -0.00000000000E+00  0.11368683772E-12  0.17120000000E+03  0.17120000000E+03 0.  0.
         13    1    1    2    0    0  0.10140730857E+02  0.14463423245E+02  0.92805520898E+02  0.94471693684E+02  0.10566000000E+00 0. -1.
        994    1    1    2    0    0 -0.13629196229E+02 -0.13346107875E+02  0.27885538348E+01  0.17228200608E+03  0.17120000000E+03 0.  0.
        998    1    1    2    0    0  0.34884653718E+01 -0.11173153705E+01  0.14044059215E+04  0.14044463002E+04  0.10000000000E+02 0. -1.
</event>
<event>
 5    1  0.1520352E-008  0.3684740E+03  0.7957747E-01  0.3502934E+00
         13   -1    0    0    0    0  0.00000000000E+00  0.00000000000E+00  0.14999999963E+04  0.15000000000E+04  0.10566000000E+00 0.  1.
        994   -1    0    0    0    0 -0.00000000000E+00 -0.00000000000E+00  0.11368683772E-12  0.17120000000E+03  0.17120000000E+03 0.  0.
         13    1    1    2    0    0  0.11715647395E+01 -0.73813359894E+02  0.22827659489E+03  0.23991665136E+03  0.10566000000E+00 0.  1.
        994    1    1    2    0    0  0.51122675791E+00  0.71602344952E+02  0.28182138859E+02  0.18769877492E+03  0.17120000000E+03 0.  0.
        998    1    1    2    0    0 -0.16827914974E+01  0.22110149420E+01  0.12435412625E+04  0.12435845737E+04  0.10000000000E+02 0.  1.
</event>
<event>
 5    1  0.1520352E-008  0.3843160E+03  0.7957747E-01  0.3432578E+00
         13   -1    0    0    0    0  0.00000000000E+00  0.00000000000E+00  0.14999999963E+04  0.15000000000E+04  0.10566000000E+00 0. -1.
        994   -1    0    0    0    0 -0.00000000000E+00 -0.00000000000E+00  0.11368683772E-12  0.17120000000E+03  0.17120000000E+03 0.  0.
         13    1    1    2    0    0  0.10696042554E+02  0.24474705021E+01  0.29779815847E+02  0.31737108156E+02  0.10566000000E+00 0. -1.
        994    1    1    2    0    0 -0.98820383763E+01 -0.11053152860E+01  0.22960912658E+01  0.17150390211E+03  0.17120000000E+03 0.  0.
        998    1    1    2    0    0 -0.81400417807E+00 -0.13421552161E+01  0.14679240892E+04  0.14679589897E+04  0.10000000000E+02 0. -1.
</event>
<event>
 5    1  0.1520352E-008  0.3806323E+03  0.7957747E-01  0.3448410E+00
         13   -1    0    0    0    0  0.00000000000E+00  0.00000000000E+00  0.14999999963E+04  0.15000000000E+04  0.10566000000E+00 0. -1.
        994   -1    0    0    0    0 -0.00000000000E+00 -0.00000000000E+00  0.11368683772E-12  0.17120000000E+03  0.17120000000E+03 0.  0.
         13    1    1    2    0    0  0.10384679668E+02  0.57760325656E+01  0.16717212843E+02  0.20510497148E+02  0.10566000000E+00 0. -1.
        994    1    1    2    0    0 -0.10953426961E+02 -0.65201502142E+01  0.43565600361E+01  0.17172917497E+03  0.17120000000E+03 0.  0.
        998    1    1    2    0    0  0.56874729365E+00  0.74411764865E+00  0.14789262234E+04  0.14789603279E+04  0.10000000000E+02 0. -1.
</event>
<event>
 5    1  0.1520352E-008  0.3685082E+03  0.7957747E-01  0.3502775E+00
         13   -1    0    0    0    0  0.00000000000E+00  0.00000000000E+00  0.14999999963E+04  0.15000000000E+04  0.10566000000E+00 0.  1.
        994   -1    0    0    0    0 -0.00000000000E+00 -0.00000000000E+00  0.11368683772E-12  0.17120000000E+03  0.17120000000E+03 0.  0.
         13    1    1    2    0    0 -0.13241412241E+02  0.30039818719E+02  0.53444897053E+02  0.62722355599E+02  0.10566000000E+00 0.  1.
        994    1    1    2    0    0 -0.10677475110E+02 -0.13749134586E+01  0.10453844423E+02  0.17185639856E+03  0.17120000000E+03 0.  0.
        998    1    1    2    0    0  0.23918887351E+02 -0.28664905261E+02  0.14361012548E+04  0.14366212458E+04  0.10000000000E+02 0.  1.
</event>
<event>
 5    1  0.1520352E-008  0.2319940E+03  0.7957747E-01  0.4545169E+00
         13   -1    0    0    0    0  0.00000000000E+00  0.00000000000E+00  0.14999999963E+04  0.15000000000E+04  0.10566000000E+00 0. -1.
        994   -1    0    0    0    0 -0.00000000000E+00 -0.00000000000E+00  0.11368683772E-12  0.17120000000E+03  0.17120000000E+03 0.  0.
         13    1    1    2    0    0 -0.45237847590E+01  0.16952655817E+03  0.15711346601E+03  0.23118038611E+03  0.10566000000E+00 0. -1.
        994    1    1    2    0    0 -0.88065484641E+02 -0.12863315925E+03  0.24377052674E+03  0.33620756825E+03  0.17120000000E+03 0.  0.
        998    1    1    2    0    0  0.92589269400E+02 -0.40893398924E+02  0.10991160035E+04  0.11038120456E+04  0.10000000000E+02 0. -1.
</event>
<event>
 5    1  0.1520352E-008  0.3837940E+03  0.7957747E-01  0.3434803E+00
         13   -1    0    0    0    0  0.00000000000E+00  0.00000000000E+00  0.14999999963E+04  0.15000000000E+04  0.10566000000E+00 0.  1.
        994   -1    0    0    0    0 -0.00000000000E+00 -0.00000000000E+00  0.11368683772E-12  0.17120000000E+03  0.17120000000E+03 0.  0.
         13    1    1    2    0    0 -0.74620899564E+01 -0.10045666768E+02  0.37787607455E+02  0.39805937353E+02  0.10566000000E+00 0.  1.
        994    1    1    2    0    0  0.70793047088E+01 -0.20824611836E+02  0.38289313328E+01  0.17264959232E+03  0.17120000000E+03 0.  0.
        998    1    1    2    0    0  0.38278524764E+00  0.30870278604E+02  0.14583834575E+04  0.14587444703E+04  0.10000000000E+02 0.  1.
</event>
<event>
 5    1  0.4853406E-008  0.3863265E+03  0.7957747E-01  0.3424066E+00
         13   -1    0    0    0    0  0.00000000000E+00  0.00000000000E+00  0.14999999963E+04  0.15000000000E+04  0.10566000000E+00 0.  1.
        994   -1    0    0    0    0 -0.00000000000E+00 -0.00000000000E+00  0.11368683772E-12  0.17120000000E+03  0.17120000000E+03 0.  0.
         13    1    1    2    0    0  0.44484226993E+01  0.10112583321E+02  0.66298924707E+02  0.67213178673E+02  0.10566000000E+00 0.  1.
        994    1    1    2    0    0  0.11332918446E+01 -0.35785936301E+01  0.10191015729E+01  0.17124418020E+03  0.17120000000E+03 0.  0.
        998    1    1    2    0    0 -0.55817145439E+01 -0.65339896906E+01  0.14326819700E+04  0.14327426411E+04  0.10000000000E+02 0.  1.
</event>
<event>
 5    1  0.1520352E-008  0.3793309E+03  0.7957747E-01  0.3454077E+00
         13   -1    0    0    0    0  0.00000000000E+00  0.00000000000E+00  0.14999999963E+04  0.15000000000E+04  0.10566000000E+00 0. -1.
        994   -1    0    0    0    0 -0.00000000000E+00 -0.00000000000E+00  0.11368683772E-12  0.17120000000E+03  0.17120000000E+03 0.  0.
         13    1    1    2    0    0 -0.28915508235E+02 -0.78253652380E+00  0.94552300032E+02  0.98878044000E+02  0.10566000000E+00 0. -1.
        994    1    1    2    0    0  0.12304177296E+02 -0.71815084554E+01  0.51515918087E+01  0.17186897841E+03  0.17120000000E+03 0.  0.
        998    1    1    2    0    0  0.16611330938E+02  0.79640449792E+01  0.14002961044E+04  0.14004529776E+04  0.10000000000E+02 0. -1.
</event>
<event>
 5    1  0.1520352E-008  0.4034609E+03  0.7957747E-01  0.3354962E+00
         13   -1    0    0    0    0  0.00000000000E+00  0.00000000000E+00  0.14999999963E+04  0.15000000000E+04  0.10566000000E+00 0.  1.
        994   -1    0    0    0    0 -0.00000000000E+00 -0.00000000000E+00  0.11368683772E-12  0.17120000000E+03  0.17120000000E+03 0.  0.
         13    1    1    2    0    0 -0.12487265692E+03  0.37232454667E+02  0.22796260889E+03  0.26257646190E+03  0.10566000000E+00 0.  1.
        994    1    1    2    0    0  0.11768375348E+03 -0.63030316239E+02  0.10486001978E+03  0.24109614337E+03  0.17120000000E+03 0.  0.
        998    1    1    2    0    0  0.71889034460E+01  0.25797861572E+02  0.11671773676E+04  0.11675273947E+04  0.10000000000E+02 0. -1.
</event>
<event>
 5    1  0.1520352E-008  0.3801652E+03  0.7957747E-01  0.3450439E+00
         13   -1    0    0    0    0  0.00000000000E+00  0.00000000000E+00  0.14999999963E+04  0.15000000000E+04  0.10566000000E+00 0. -1.
        994   -1    0    0    0    0 -0.00000000000E+00 -0.00000000000E+00  0.11368683772E-12  0.17120000000E+03  0.17120000000E+03 0.  0.
         13    1    1    2    0    0 -0.76912010919E+01  0.36054572008E+02  0.15218903691E+03  0.15659055162E+03  0.10566000000E+00 0. -1.
        994    1    1    2    0    0  0.14574870812E+02 -0.33458505123E+02  0.85125869528E+01  0.17525353794E+03  0.17120000000E+03 0.  0.
        998    1    1    2    0    0 -0.68836697201E+01 -0.25960668852E+01  0.13392983724E+04  0.13393559104E+04  0.10000000000E+02 0. -1.
</event>
<event>
 5    1  0.1520352E-008  0.3762427E+03  0.7957747E-01  0.3467683E+00
         13   -1    0    0    0    0  0.00000000000E+00  0.00000000000E+00  0.14999999963E+04  0.15000000000E+04  0.10566000000E+00 0. -1.
        994   -1    0    0    0    0 -0.00000000000E+00 -0.00000000000E+00  0.11368683772E-12  0.17120000000E+03  0.17120000000E+03 0.  0.
         13    1    1    2    0    0  0.24596285736E+02 -0.31408284024E+01  0.47033522245E+02  0.53169591439E+02  0.10566000000E+00 0. -1.
        994    1    1    2    0    0 -0.26296384546E+02 -0.19513659263E+00  0.83863380729E+01  0.17341080873E+03  0.17120000000E+03 0.  0.
        998    1    1    2    0    0  0.17000988098E+01  0.33359649951E+01  0.14445801360E+04  0.14446195998E+04  0.10000000000E+02 0. -1.
</event>
<event>
 5    1  0.1520352E-008  0.3815006E+03  0.7957747E-01  0.3444650E+00
         13   -1    0    0    0    0  0.00000000000E+00  0.00000000000E+00  0.14999999963E+04  0.15000000000E+04  0.10566000000E+00 0. -1.
        994   -1    0    0    0    0 -0.00000000000E+00 -0.00000000000E+00  0.11368683772E-12  0.17120000000E+03  0.17120000000E+03 0.  0.
         13    1    1    2    0    0 -0.30161483412E+02 -0.71403071430E+01  0.15851608324E+03  0.16151798314E+03  0.10566000000E+00 0. -1.
        994    1    1    2    0    0 -0.29517429751E+00  0.12314869661E+02  0.38824777802E+01  0.17168650726E+03  0.17120000000E+03 0.  0.
        998    1    1    2    0    0  0.30456657710E+02 -0.51745625179E+01  0.13376014353E+04  0.13379955096E+04  0.10000000000E+02 0. -1.
</event>
<event>
 5    1  0.1520352E-008  0.3799166E+03  0.7957747E-01  0.3451522E+00
         13   -1    0    0    0    0  0.00000000000E+00  0.00000000000E+00  0.14999999963E+04  0.15000000000E+04  0.10566000000E+00 0. -1.
        994   -1    0    0    0    0 -0.00000000000E+00 -0.00000000000E+00  0.11368683772E-12  0.17120000000E+03  0.17120000000E+03 0.  0.
         13    1    1    2    0    0  0.24734230149E+03  0.10021906883E+03  0.82549258426E+03  0.86755985021E+03  0.10566000000E+00 0. -1.
        994    1    1    2    0    0 -0.26627076511E+03 -0.12857842318E+03  0.39664988271E+03  0.52351991435E+03  0.17120000000E+03 0.  0.
        998    1    1    2    0    0  0.18928463622E+02  0.28359354350E+02  0.27785752931E+03  0.28012023545E+03  0.10000000000E+02 0.  1.
</event>
<event>
 5    1  0.1520352E-008  0.3838186E+03  0.7957747E-01  0.3434698E+00
         13   -1    0    0    0    0  0.00000000000E+00  0.00000000000E+00  0.14999999963E+04  0.15000000000E+04  0.10566000000E+00 0.  1.
        994   -1    0    0    0    0 -0.00000000000E+00 -0.00000000000E+00  0.11368683772E-12  0.17120000000E+03  0.17120000000E+03 0.  0.
         13    1    1    2    0    0  0.22570378721E+02  0.17555528421E+02  0.17182965456E+03  0.17419259434E+03  0.10566000000E+00 0.  1.
        994    1    1    2    0    0 -0.20943576612E+02 -0.13024524152E+02  0.42285047232E+01  0.17301905064E+03  0.17120000000E+03 0.  0.
        998    1    1    2    0    0 -0.16268021084E+01 -0.45310042692E+01  0.13239418370E+04  0.13239883550E+04  0.10000000000E+02 0.  1.
</event>
<event>
 5    1  0.1520352E-008  0.3809327E+03  0.7957747E-01  0.3447107E+00
         13   -1    0    0    0    0  0.00000000000E+00  0.00000000000E+00  0.14999999963E+04  0.15000000000E+04  0.10566000000E+00 0. -1.
        994   -1    0    0    0    0 -0.00000000000E+00 -0.00000000000E+00  0.11368683772E-12  0.17120000000E+03  0.17120000000E+03 0.  0.
         13    1    1    2    0    0  0.86115980909E+01 -0.51130282148E+01  0.12141592239E+02  0.15739507786E+02  0.10566000000E+00 0. -1.
        994    1    1    2    0    0 -0.65738509922E+01  0.91496029392E+00  0.38099058163E+01  0.17137096619E+03  0.17120000000E+03 0.  0.
        998    1    1    2    0    0 -0.20377470987E+01  0.41980679208E+01  0.14840484982E+04  0.14840895260E+04  0.10000000000E+02 0. -1.
</event>
<event>
 5    1  0.1520352E-008  0.3858722E+03  0.7957747E-01  0.3425982E+00
         13   -1    0    0    0    0  0.00000000000E+00  0.00000000000E+00  0.14999999963E+04  0.15000000000E+04  0.10566000000E+00 0. -1.
        994   -1    0    0    0    0 -0.00000000000E+00 -0.00000000000E+00  0.11368683772E-12  0.17120000000E+03  0.17120000000E+03 0.  0.
         13    1    1    2    0    0 -0.47016150026E+01 -0.91020309962E+01  0.43840442538E+02  0.45021636108E+02  0.10566000000E+00 0. -1.
        994    1    1    2    0    0  0.66869755721E+00  0.90392616900E+01  0.14672026047E+01  0.17144605009E+03  0.17120000000E+03 0.  0.
        998    1    1    2    0    0  0.40329174454E+01  0.62769306172E-01  0.14546923511E+04  0.14547323138E+04  0.10000000000E+02 0. -1.
</event>
<event>
 5    1  0.1520352E-008  0.3836528E+03  0.7957747E-01  0.3435406E+00
         13   -1    0    0    0    0  0.00000000000E+00  0.00000000000E+00  0.14999999963E+04  0.15000000000E+04  0.10566000000E+00 0. -1.
        994   -1    0    0    0    0 -0.00000000000E+00 -0.00000000000E+00  0.11368683772E-12  0.17120000000E+03  0.17120000000E+03 0.  0.
         13    1    1    2    0    0 -0.26130520359E+01 -0.16572644273E+02  0.59668299577E+02  0.61982237114E+02  0.10566000000E+00 0. -1.
        994    1    1    2    0    0 -0.53696112868E+01  0.15071533833E+02  0.31464534656E+01  0.17197477730E+03  0.17120000000E+03 0.  0.
        998    1    1    2    0    0  0.79826633228E+01  0.15011104399E+01  0.14371852432E+04  0.14372429856E+04  0.10000000000E+02 0. -1.
</event>
<event>
 5    1  0.1520352E-008  0.3723191E+03  0.7957747E-01  0.3485300E+00
         13   -1    0    0    0    0  0.00000000000E+00  0.00000000000E+00  0.14999999963E+04  0.15000000000E+04  0.10566000000E+00 0.  1.
        994   -1    0    0    0    0 -0.00000000000E+00 -0.00000000000E+00  0.11368683772E-12  0.17120000000E+03  0.17120000000E+03 0.  0.
         13    1    1    2    0    0  0.18929405133E+02 -0.21607289200E+02  0.46740768668E+02  0.54862627944E+02  0.10566000000E+00 0.  1.
        994    1    1    2    0    0 -0.22552720410E+02  0.18015470754E+02  0.10925263132E+02  0.17395971878E+03  0.17120000000E+03 0.  0.
        998    1    1    2    0    0  0.36233152769E+01  0.35918184456E+01  0.14423339645E+04  0.14423776533E+04  0.10000000000E+02 0.  1.
</event>
<event>
 5    1  0.1520352E-008  0.4006823E+03  0.7957747E-01  0.3365768E+00
         13   -1    0    0    0    0  0.00000000000E+00  0.00000000000E+00  0.14999999963E+04  0.15000000000E+04  0.10566000000E+00 0. -1.
        994   -1    0    0    0    0 -0.00000000000E+00 -0.00000000000E+00  0.11368683772E-12  0.17120000000E+03  0.17120000000E+03 0.  0.
         13    1    1    2    0    0 -0.71592491082E+02 -0.19114317026E+02  0.77047696768E+02  0.10689808528E+03  0.10566000000E+00 0. -1.
        994    1    1    2    0    0  0.90368427839E+02  0.52792780704E+02  0.72636614990E+02  0.21339880103E+03  0.17120000000E+03 0.  0.
        998    1    1    2    0    0 -0.18775936757E+02 -0.33678463678E+02  0.13503156845E+04  0.13509031137E+04  0.10000000000E+02 0. -1.
</event>
<event>
 5    1  0.1520352E-008  0.3697232E+03  0.7957747E-01  0.3497164E+00
         13   -1    0    0    0    0  0.00000000000E+00  0.00000000000E+00  0.14999999963E+04  0.15000000000E+04  0.10566000000E+00 0.  1.
        994   -1    0    0    0    0 -0.00000000000E+00 -0.00000000000E+00  0.11368683772E-12  0.17120000000E+03  0.17120000000E+03 0.  0.
         13    1    1    2    0    0 -0.20869494347E+02  0.15366345114E+02  0.32316177338E+02  0.41424712892E+02  0.10566000000E+00 0.  1.
        994    1    1    2    0    0  0.87089946582E+00 -0.19094956789E+02  0.10679367284E+02  0.17259450955E+03  0.17120000000E+03 0.  0.
        998    1    1    2    0    0  0.19998594881E+02  0.37286116753E+01  0.14570044517E+04  0.14571807776E+04  0.10000000000E+02 0.  1.
</event>
<event>
 5    1  0.1520352E-008  0.3843976E+03  0.7957747E-01  0.3432231E+00
         13   -1    0    0    0    0  0.00000000000E+00  0.00000000000E+00  0.14999999963E+04  0.15000000000E+04  0.10566000000E+00 0. -1.
        994   -1    0    0    0    0 -0.00000000000E+00 -0.00000000000E+00  0.11368683772E-12  0.17120000000E+03  0.17120000000E+03 0.  0.
         13    1    1    2    0    0  0.10640706404E+02 -0.22177621818E+02  0.14751790090E+03  0.14955471839E+03  0.10566000000E+00 0. -1.
        994    1    1    2    0    0 -0.71645053744E+01  0.20592870942E+02  0.34975644251E+01  0.17261827663E+03  0.17120000000E+03 0.  0.
        998    1    1    2    0    0 -0.34762010296E+01  0.15847508755E+01  0.13489845310E+04  0.13490270050E+04  0.10000000000E+02 0.  0.
</event>
<event>
 5    1  0.1761251E-008  0.3860741E+03  0.7957747E-01  0.3425130E+00
         13   -1    0    0    0    0  0.00000000000E+00  0.00000000000E+00  0.14999999963E+04  0.15000000000E+04  0.10566000000E+00 0. -1.
        994   -1    0    0    0    0 -0.00000000000E+00 -0.00000000000E+00  0.11368683772E-12  0.17120000000E+03  0.17120000000E+03 0.  0.
         13    1    1    2    0    0 -0.47869868807E+01  0.94459885285E+01  0.41582309133E+02  0.42909690508E+02  0.10566000000E+00 0. -1.
        994    1    1    2    0    0  0.14670357886E+02 -0.41853525110E+02  0.75706354860E+01  0.17701325229E+03  0.17120000000E+03 0.  0.
        998    1    1    2    0    0 -0.98833710055E+01  0.32407536581E+02  0.14508470517E+04  0.14512770572E+04  0.10000000000E+02 0. -1.
</event>
<event>
 5    1  0.1520352E-008  0.3861217E+03  0.7957747E-01  0.3424929E+00
         13   -1    0    0    0    0  0.00000000000E+00  0.00000000000E+00  0.14999999963E+04  0.15000000000E+04  0.10566000000E+00 0. -1.
        994   -1    0    0    0    0 -0.00000000000E+00 -0.00000000000E+00  0.11368683772E-12  0.17120000000E+03  0.17120000000E+03 0.  0.
         13    1    1    2    0    0  0.88018092077E+01  0.77215125211E+01  0.61259800130E+02  0.62368805320E+02  0.10566000000E+00 0. -1.
        994    1    1    2    0    0 -0.17567050614E+02 -0.31410149893E+01  0.21184716339E+01  0.17214062613E+03  0.17120000000E+03 0.  0.
        998    1    1    2    0    0  0.87652414061E+01 -0.45804975317E+01  0.14366217245E+04  0.14366905686E+04  0.10000000000E+02 0. -1.
</event>
<event>
 5    1  0.1520352E-008  0.3799308E+03  0.7957747E-01  0.3451460E+00
         13   -1    0    0    0    0  0.00000000000E+00  0.00000000000E+00  0.14999999963E+04  0.15000000000E+04  0.10566000000E+00 0. -1.
        994   -1    0    0    0    0 -0.00000000000E+00 -0.00000000000E+00  0.11368683772E-12  0.17120000000E+03  0.17120000000E+03 0.  0.
         13    1    1    2    0    0  0.42134584140E+01 -0.35431967330E+02  0.13853281337E+03  0.14305428719E+03  0.10566000000E+00 0. -1.
        994    1    1    2    0    0 -0.38487564422E+02  0.32732949932E+02  0.12751325788E+02  0.17895467285E+03  0.17120000000E+03 0.  0.
        998    1    1    2    0    0  0.34274106008E+02  0.26990173971E+01  0.13487158571E+04  0.13491910400E+04  0.10000000000E+02 0. -1.
</event>
<event>
 5    1  0.1520352E-008  0.3795484E+03  0.7957747E-01  0.3453127E+00
         13   -1    0    0    0    0  0.00000000000E+00  0.00000000000E+00  0.14999999963E+04  0.15000000000E+04  0.10566000000E+00 0.  1.
        994   -1    0    0    0    0 -0.00000000000E+00 -0.00000000000E+00  0.11368683772E-12  0.17120000000E+03  0.17120000000E+03 0.  0.
         13    1    1    2    0    0  0.11458058462E+02 -0.28175142020E+02  0.10130720181E+03  0.10577469467E+03  0.10566000000E+00 0.  1.
        994    1    1    2    0    0  0.62098261140E+01  0.29405007207E+02  0.73910972165E+01  0.17397495425E+03  0.17120000000E+03 0.  0.
        998    1    1    2    0    0 -0.17667884576E+02 -0.12298651866E+01  0.13913016973E+04  0.13914503511E+04  0.10000000000E+02 0.  1.
</event>
<event>
 5    1  0.1520352E-008  0.3995243E+03  0.7957747E-01  0.3370316E+00
         13   -1    0    0    0    0  0.00000000000E+00  0.00000000000E+00  0.14999999963E+04  0.15000000000E+04  0.10566000000E+00 0. -1.
        994   -1    0    0    0    0 -0.00000000000E+00 -0.00000000000E+00  0.11368683772E-12  0.17120000000E+03  0.17120000000E+03 0.  0.
         13    1    1    2    0    0  0.39302018969E+02  0.12173716094E+03  0.27236239251E+03  0.30090840644E+03  0.10566000000E+00 0. -1.
        994    1    1    2    0    0 -0.33849727676E+02 -0.89307778056E+02  0.64108251197E+02  0.20625467548E+03  0.17120000000E+03 0.  0.
        998    1    1    2    0    0 -0.54522912929E+01 -0.32429382888E+02  0.11635293526E+04  0.11640369181E+04  0.10000000000E+02 0. -1.
</event>
<event>
 5    1  0.1520352E-008  0.3916830E+03  0.7957747E-01  0.3401814E+00
         13   -1    0    0    0    0  0.00000000000E+00  0.00000000000E+00  0.14999999963E+04  0.15000000000E+04  0.10566000000E+00 0. -1.
        994   -1    0    0    0    0 -0.00000000000E+00 -0.00000000000E+00  0.11368683772E-12  0.17120000000E+03  0.17120000000E+03 0.  0.
         13    1    1    2    0    0 -0.91425059479E+02  0.51191298821E+01  0.18001411848E+03  0.20196494995E+03  0.10566000000E+00 0. -1.
        994    1    1    2    0    0  0.54498697546E+02  0.14990389215E+01  0.34242083808E+02  0.18290520893E+03  0.17120000000E+03 0.  0.
        998    1    1    2    0    0  0.36926361933E+02 -0.66181688036E+01  0.12857437940E+04  0.12863298411E+04  0.10000000000E+02 0. -1.
</event>
<event>
 5    1  0.1520352E-008  0.3811602E+03  0.7957747E-01  0.3446122E+00
         13   -1    0    0    0    0  0.00000000000E+00  0.00000000000E+00  0.14999999963E+04  0.15000000000E+04  0.10566000000E+00 0. -1.
        994   -1    0    0    0    0 -0.00000000000E+00 -0.00000000000E+00  0.11368683772E-12  0.17120000000E+03  0.17120000000E+03 0.  0.
         13    1    1    2    0    0 -0.11042361080E+02  0.31459338951E+02  0.18155236865E+03  0.18458845433E+03  0.10566000000E+00 0. -1.
        994    1    1    2    0    0 -0.22663368652E+01 -0.17133331980E+00  0.35658420077E+01  0.17125221420E+03  0.17120000000E+03 0.  0.
        998    1    1    2    0    0  0.13308697945E+02 -0.31288005631E+02  0.13148817856E+04  0.13153593315E+04  0.10000000000E+02 0. -1.
</event>
<event>
 5    1  0.1520352E-008  0.3754003E+03  0.7957747E-01  0.3471434E+00
         13   -1    0    0    0    0  0.00000000000E+00  0.00000000000E+00  0.14999999963E+04  0.15000000000E+04  0.10566000000E+00 0. -1.
        994   -1    0    0    0    0 -0.00000000000E+00 -0.00000000000E+00  0.11368683772E-12  0.17120000000E+03  0.17120000000E+03 0.  0.
         13    1    1    2    0    0 -0.20080316033E+02 -0.92777324508E-02  0.28455278213E+02  0.34827190531E+02  0.10566000000E+00 0. -1.
        994    1    1    2    0    0  0.13856206135E+02  0.14697465130E+02  0.78595709578E+01  0.17256657494E+03  0.17120000000E+03 0.  0.
        998    1    1    2    0    0  0.62241098979E+01 -0.14688187397E+02  0.14636851471E+04  0.14638062345E+04  0.10000000000E+02 0. -1.
</event>
<event>
 5    1  0.1520352E-008  0.3739637E+03  0.7957747E-01  0.3477870E+00
         13   -1    0    0    0    0  0.00000000000E+00  0.00000000000E+00  0.14999999963E+04  0.15000000000E+04  0.10566000000E+00 0. -1.
        994   -1    0    0    0    0 -0.00000000000E+00 -0.00000000000E+00  0.11368683772E-12  0.17120000000E+03  0.17120000000E+03 0.  0.
         13    1    1    2    0    0 -0.49485930202E+02 -0.77896494379E+01  0.11096814380E+03  0.12175169826E+03  0.10566000000E+00 0. -1.
        994    1    1    2    0    0 -0.16125778774E+02 -0.41402535386E+02  0.20082268916E+02  0.17800828127E+03  0.17120000000E+03 0.  0.
        998    1    1    2    0    0  0.65611708976E+02  0.49192184824E+02  0.13689495836E+04  0.13714400205E+04  0.10000000000E+02 0. -1.
</event>
<event>
 5    1  0.1520352E-008  0.3831355E+03  0.7957747E-01  0.3437618E+00
         13   -1    0    0    0    0  0.00000000000E+00  0.00000000000E+00  0.14999999963E+04  0.15000000000E+04  0.10566000000E+00 0. -1.
        994   -1    0    0    0    0 -0.00000000000E+00 -0.00000000000E+00  0.11368683772E-12  0.17120000000E+03  0.17120000000E+03 0.  0.
         13    1    1    2    0    0  0.22800702845E+02 -0.74462467381E+00  0.94020486101E+02  0.96748589069E+02  0.10566000000E+00 0. -1.
        994    1    1    2    0    0 -0.26290304126E+02 -0.86071222886E+01  0.50947654558E+01  0.17349541573E+03  0.17120000000E+03 0.  0.
        998    1    1    2    0    0  0.34896012809E+01  0.93517469624E+01  0.14008847447E+04  0.14009559952E+04  0.10000000000E+02 0. -1.
</event>
<event>
 5    1  0.1520352E-008  0.3790370E+03  0.7957747E-01  0.3455362E+00
         13   -1    0    0    0    0  0.00000000000E+00  0.00000000000E+00  0.14999999963E+04  0.15000000000E+04  0.10566000000E+00 0.  1.
        994   -1    0    0    0    0 -0.00000000000E+00 -0.00000000000E+00  0.11368683772E-12  0.17120000000E+03  0.17120000000E+03 0.  0.
         13    1    1    2    0    0  0.43756383353E+02  0.11539271410E+03  0.69403016517E+03  0.70491700283E+03  0.10566000000E+00 0.  1.
        994    1    1    2    0    0 -0.32722517281E+02 -0.13243600264E+03  0.69798187374E+02  0.22976354126E+03  0.17120000000E+03 0.  0.
        998    1    1    2    0    0 -0.11033866072E+02  0.17043288540E+02  0.73617164374E+03  0.73651945591E+03  0.10000000000E+02 0.  1.
</event>
<event>
 5    1  0.1520352E-008  0.3827974E+03  0.7957747E-01  0.3439068E+00
         13   -1    0    0    0    0  0.00000000000E+00  0.00000000000E+00  0.14999999963E+04  0.15000000000E+04  0.10566000000E+00 0.  1.
        994   -1    0    0    0    0 -0.00000000000E+00 -0.00000000000E+00  0.11368683772E-12  0.17120000000E+03  0.17120000000E+03 0.  0.
         13    1    1    2    0    0  0.23700662001E+02  0.11092772445E+03  0.29535564252E+03  0.31638844505E+03  0.10566000000E+00 0.  1.
        994    1    1    2    0    0 -0.40797473280E+02 -0.97759358981E+02  0.60214546924E+02  0.21013461818E+03  0.17120000000E+03 0.  0.
        998    1    1    2    0    0  0.17096811279E+02 -0.13168365470E+02  0.11444298068E+04  0.11446769368E+04  0.10000000000E+02 0.  1.
</event>
<event>
 5    1  0.1520352E-008  0.3833120E+03  0.7957747E-01  0.3436863E+00
         13   -1    0    0    0    0  0.00000000000E+00  0.00000000000E+00  0.14999999963E+04  0.15000000000E+04  0.10566000000E+00 0.  1.
        994   -1    0    0    0    0 -0.00000000000E+00 -0.00000000000E+00  0.11368683772E-12  0.17120000000E+03  0.17120000000E+03 0.  0.
         13    1    1    2    0    0 -0.16876968227E+01 -0.11205872538E+02  0.25718187040E+02  0.28104380594E+02  0.10566000000E+00 0.  1.
        994    1    1    2    0    0  0.16863448479E+01  0.12003902793E+01  0.24847115937E+01  0.17123054192E+03  0.17120000000E+03 0.  0.
        998    1    1    2    0    0  0.13519748707E-02  0.10005482258E+02  0.14717970976E+04  0.14718650775E+04  0.10000000000E+02 0.  1.
</event>
<event>
 5    1  0.1520352E-008  0.4116290E+03  0.7957747E-01  0.3324033E+00
         13   -1    0    0    0    0  0.00000000000E+00  0.00000000000E+00  0.14999999963E+04  0.15000000000E+04  0.10566000000E+00 0.  1.
        994   -1    0    0    0    0 -0.00000000000E+00 -0.00000000000E+00  0.11368683772E-12  0.17120000000E+03  0.17120000000E+03 0.  0.
         13    1    1    2    0    0 -0.18172127179E+02  0.49253000030E+02  0.25435577375E+02  0.58335786432E+02  0.10566000000E+00 0.  1.
        994    1    1    2    0    0  0.24328236172E+02 -0.55479347335E+02  0.50165650968E+02  0.18840343307E+03  0.17120000000E+03 0.  0.
        998    1    1    2    0    0 -0.61561089932E+01  0.62263473047E+01  0.14243987679E+04  0.14244607805E+04  0.10000000000E+02 0.  1.
</event>
<event>
 5    1  0.1520352E-008  0.3755050E+03  0.7957747E-01  0.3470967E+00
         13   -1    0    0    0    0  0.00000000000E+00  0.00000000000E+00  0.14999999963E+04  0.15000000000E+04  0.10566000000E+00 0.  1.
        994   -1    0    0    0    0 -0.00000000000E+00 -0.00000000000E+00  0.11368683772E-12  0.17120000000E+03  0.17120000000E+03 0.  0.
         13    1    1    2    0    0  0.60621366836E+02  0.25786118876E+02  0.29934625982E+03  0.30650949165E+03  0.10566000000E+00 0.  1.
        994    1    1    2    0    0 -0.47943990191E+02 -0.22354526517E+02  0.15975437761E+02  0.17989720860E+03  0.17120000000E+03 0.  0.
        998    1    1    2    0    0 -0.12677376645E+02 -0.34315923585E+01  0.11846782987E+04  0.11847932997E+04  0.10000000000E+02 0.  1.
</event>
<event>
 5    1  0.1520352E-008  0.3824596E+03  0.7957747E-01  0.3440518E+00
         13   -1    0    0    0    0  0.00000000000E+00  0.00000000000E+00  0.14999999963E+04  0.15000000000E+04  0.10566000000E+00 0. -1.
        994   -1    0    0    0    0 -0.00000000000E+00 -0.00000000000E+00  0.11368683772E-12  0.17120000000E+03  0.17120000000E+03 0.  0.
         13    1    1    2    0    0  0.10618447892E+01 -0.16866098051E+02  0.50480371749E+02  0.53234123208E+02  0.10566000000E+00 0. -1.
        994    1    1    2    0    0 -0.36471818154E+01  0.10513608103E+01  0.29444495021E+01  0.17126738475E+03  0.17120000000E+03 0.  0.
        998    1    1    2    0    0  0.25853370262E+01  0.15814737241E+02  0.14465751750E+04  0.14466984920E+04  0.10000000000E+02 0. -1.
</event>
<event>
 5    1  0.1520352E-008  0.3854843E+03  0.7957747E-01  0.3427621E+00
         13   -1    0    0    0    0  0.00000000000E+00  0.00000000000E+00  0.14999999963E+04  0.15000000000E+04  0.10566000000E+00 0. -1.
        994   -1    0    0    0    0 -0.00000000000E+00 -0.00000000000E+00  0.11368683772E-12  0.17120000000E+03  0.17120000000E+03 0.  0.
         13    1    1    2    0    0 -0.47921935813E+01  0.10162714041E+02  0.45813964192E+02  0.47171774982E+02  0.10566000000E+00 0. -1.
        994    1    1    2    0    0  0.22555640825E+01 -0.63380144025E+01  0.15385114748E+01  0.17133903529E+03  0.17120000000E+03 0.  0.
        998    1    1    2    0    0  0.25366294988E+01 -0.38246996380E+01  0.14526475206E+04  0.14526891897E+04  0.10000000000E+02 0. -1.
</event>
<event>
 5    1  0.1520352E-008  0.3831367E+03  0.7957747E-01  0.3437613E+00
         13   -1    0    0    0    0  0.00000000000E+00  0.00000000000E+00  0.14999999963E+04  0.15000000000E+04  0.10566000000E+00 0.  1.
        994   -1    0    0    0    0 -0.00000000000E+00 -0.00000000000E+00  0.11368683772E-12  0.17120000000E+03  0.17120000000E+03 0.  0.
         13    1    1    2    0    0 -0.21248308356E+02 -0.18333842453E+02  0.14444219078E+03  0.14714339274E+03  0.10566000000E+00 0.  1.
        994    1    1    2    0    0  0.19868554550E+02  0.14504111838E+02  0.45628011163E+01  0.17301846108E+03  0.17120000000E+03 0.  0.
        998    1    1    2    0    0  0.13797538062E+01  0.38297306149E+01  0.13509950044E+04  0.13510381462E+04  0.10000000000E+02 0.  1.
</event>
<event>
 5    1  0.1520352E-008  0.3828230E+03  0.7957747E-01  0.3438958E+00
         13   -1    0    0    0    0  0.00000000000E+00  0.00000000000E+00  0.14999999963E+04  0.15000000000E+04  0.10566000000E+00 0.  1.
        994   -1    0    0    0    0 -0.00000000000E+00 -0.00000000000E+00  0.11368683772E-12  0.17120000000E+03  0.17120000000E+03 0.  0.
         13    1    1    2    0    0  0.31849283828E+02 -0.24826950405E+02  0.24157494510E+03  0.24492696791E+03  0.10566000000E+00 0.  1.
        994    1    1    2    0    0 -0.45802055376E+02  0.16293705848E+02  0.10581992592E+02  0.17828272966E+03  0.17120000000E+03 0.  0.
        998    1    1    2    0    0  0.13952771548E+02  0.85332445562E+01  0.12478430586E+04  0.12479903024E+04  0.10000000000E+02 0.  1.
</event>
<event>
 5    1  0.1520352E-008  0.3789863E+03  0.7957747E-01  0.3455584E+00
         13   -1    0    0    0    0  0.00000000000E+00  0.00000000000E+00  0.14999999963E+04  0.15000000000E+04  0.10566000000E+00 0.  1.
        994   -1    0    0    0    0 -0.00000000000E+00 -0.00000000000E+00  0.11368683772E-12  0.17120000000E+03  0.17120000000E+03 0.  0.
         13    1    1    2    0    0  0.20333648507E+02 -0.10325897700E+01  0.41251267527E+02  0.46002192772E+02  0.10566000000E+00 0.  1.
        994    1    1    2    0    0 -0.24812334259E+02 -0.26507886092E+01  0.67370709785E+01  0.17314013612E+03  0.17120000000E+03 0.  0.
        998    1    1    2    0    0  0.44786857521E+01  0.36833783792E+01  0.14520116578E+04  0.14520576711E+04  0.10000000000E+02 0.  1.
</event>
<event>
 5    1  0.1520352E-008  0.3710854E+03  0.7957747E-01  0.3490917E+00
         13   -1    0    0    0    0  0.00000000000E+00  0.00000000000E+00  0.14999999963E+04  0.15000000000E+04  0.10566000000E+00 0.  1.
        994   -1    0    0    0    0 -0.00000000000E+00 -0.00000000000E+00  0.11368683772E-12  0.17120000000E+03  0.17120000000E+03 0.  0.
         13    1    1    2    0    0 -0.58988506969E+02 -0.45487967488E+02  0.34960414108E+03  0.35745190693E+03  0.10566000000E+00 0.  1.
        994    1    1    2    0    0  0.24386755996E+02  0.16436820528E+02  0.11687931367E+02  0.17410034657E+03  0.17120000000E+03 0.  0.
        998    1    1    2    0    0  0.34601750973E+02  0.29051146959E+02  0.11387079238E+04  0.11396477465E+04  0.10000000000E+02 0.  1.
</event>
<event>
 5    1  0.1520352E-008  0.3813129E+03  0.7957747E-01  0.3445462E+00
         13   -1    0    0    0    0  0.00000000000E+00  0.00000000000E+00  0.14999999963E+04  0.15000000000E+04  0.10566000000E+00 0. -1.
        994   -1    0    0    0    0 -0.00000000000E+00 -0.00000000000E+00  0.11368683772E-12  0.17120000000E+03  0.17120000000E+03 0.  0.
         13    1    1    2    0    0  0.72822300059E+01  0.14633888930E+02  0.37757983773E+02  0.41144356620E+02  0.10566000000E+00 0. -1.
        994    1    1    2    0    0  0.11141659802E+01 -0.80988739078E+01  0.36943451341E+01  0.17143488942E+03  0.17120000000E+03 0.  0.
        998    1    1    2    0    0 -0.83963959861E+01 -0.65350150224E+01  0.14585476674E+04  0.14586207540E+04  0.10000000000E+02 0. -1.
</event>
<event>
 5    1  0.1520352E-008  0.3823816E+03  0.7957747E-01  0.3440854E+00
         13   -1    0    0    0    0  0.00000000000E+00  0.00000000000E+00  0.14999999963E+04  0.15000000000E+04  0.10566000000E+00 0. -1.
        994   -1    0    0    0    0 -0.00000000000E+00 -0.00000000000E+00  0.11368683772E-12  0.17120000000E+03  0.17120000000E+03 0.  0.
         13    1    1    2    0    0  0.18848900888E+02 -0.17367118556E+02  0.10277231869E+03  0.10592005723E+03  0.10566000000E+00 0. -1.
        994    1    1    2    0    0 -0.21734445986E+02  0.18437160794E+02  0.56347135987E+01  0.17364764622E+03  0.17120000000E+03 0.  0.
        998    1    1    2    0    0  0.28855450971E+01 -0.10700422373E+01  0.13915929640E+04  0.13916322965E+04  0.10000000000E+02 0. -1.
</event>
<event>
 5    1  0.1520352E-008  0.3687914E+03  0.7957747E-01  0.3501464E+00
         13   -1    0    0    0    0  0.00000000000E+00  0.00000000000E+00  0.14999999963E+04  0.15000000000E+04  0.10566000000E+00 0. -1.
        994   -1    0    0    0    0 -0.00000000000E+00 -0.00000000000E+00  0.11368683772E-12  0.17120000000E+03  0.17120000000E+03 0.  0.
         13    1    1    2    0    0  0.18293595525E+02  0.20213345550E+01  0.12568763362E+02  0.22287359806E+02  0.10566000000E+00 0. -1.
        994    1    1    2    0    0 -0.19661907416E+02 -0.57734301334E+00  0.11246748926E+02  0.17269294511E+03  0.17120000000E+03 0.  0.
        998    1    1    2    0    0  0.13683118908E+01 -0.14439915417E+01  0.14761844840E+04  0.14762196951E+04  0.10000000000E+02 0. -1.
</event>
<event>
 5    1  0.1520352E-008  0.3810237E+03  0.7957747E-01  0.3446713E+00
         13   -1    0    0    0    0  0.00000000000E+00  0.00000000000E+00  0.14999999963E+04  0.15000000000E+04  0.10566000000E+00 0.  1.
        994   -1    0    0    0    0 -0.00000000000E+00 -0.00000000000E+00  0.11368683772E-12  0.17120000000E+03  0.17120000000E+03 0.  0.
         13    1    1    2    0    0  0.66375632192E+00 -0.16362535248E+02  0.36516286561E+02  0.40020288360E+02  0.10566000000E+00 0.  1.
        994    1    1    2    0    0  0.18386562274E+02  0.53434665604E+01  0.48396573414E+01  0.17233537243E+03  0.17120000000E+03 0.  0.
        998    1    1    2    0    0 -0.19050318596E+02  0.11019068688E+02  0.14586440524E+04  0.14588443392E+04  0.10000000000E+02 0.  1.
</event>
<event>
 5    1  0.1520352E-008  0.3821505E+03  0.7957747E-01  0.3441848E+00
         13   -1    0    0    0    0  0.00000000000E+00  0.00000000000E+00  0.14999999963E+04  0.15000000000E+04  0.10566000000E+00 0.  1.
        994   -1    0    0    0    0 -0.00000000000E+00 -0.00000000000E+00  0.11368683772E-12  0.17120000000E+03  0.17120000000E+03 0.  0.
         13    1    1    2    0    0 -0.94113865870E+01 -0.12480292088E+02  0.40364591506E+02  0.43285601527E+02  0.10566000000E+00 0.  1.
        994    1    1    2    0    0  0.68315035795E+01 -0.33926544173E+01  0.32446624128E+01  0.17140054661E+03  0.17120000000E+03 0.  0.
        998    1    1    2    0    0  0.25798830075E+01  0.15872946505E+02  0.14563907424E+04  0.14565138519E+04  0.10000000000E+02 0.  1.
</event>
<event>
 5    1  0.1520352E-008  0.3822575E+03  0.7957747E-01  0.3441387E+00
         13   -1    0    0    0    0  0.00000000000E+00  0.00000000000E+00  0.14999999963E+04  0.15000000000E+04  0.10566000000E+00 0. -1.
        994   -1    0    0    0    0 -0.00000000000E+00 -0.00000000000E+00  0.11368683772E-12  0.17120000000E+03  0.17120000000E+03 0.  0.
         13    1    1    2    0    0  0.20052192339E+02  0.10993371457E+02  0.93641729950E+02  0.96393616934E+02  0.10566000000E+00 0. -1.
        994    1    1    2    0    0  0.62806980042E+01 -0.12133094017E+02  0.36175070061E+01  0.17178237830E+03  0.17120000000E+03 0.  0.
        998    1    1    2    0    0 -0.26332890343E+02  0.11397225604E+01  0.14027407593E+04  0.14030240048E+04  0.10000000000E+02 0. -1.
</event>
<event>
 5    1  0.1520352E-008  0.3795598E+03  0.7957747E-01  0.3453077E+00
         13   -1    0    0    0    0  0.00000000000E+00  0.00000000000E+00  0.14999999963E+04  0.15000000000E+04  0.10566000000E+00 0.  1.
        994   -1    0    0    0    0 -0.00000000000E+00 -0.00000000000E+00  0.11368683772E-12  0.17120000000E+03  0.17120000000E+03 0.  0.
         13    1    1    2    0    0  0.80020271040E+01 -0.10694637462E+02  0.18999058474E+02  0.23224622605E+02  0.10566000000E+00 0.  1.
        994    1    1    2    0    0 -0.46941150045E+01 -0.80292816923E+00  0.44314344439E+01  0.17132354485E+03  0.17120000000E+03 0.  0.
        998    1    1    2    0    0 -0.33079120994E+01  0.11497565631E+02  0.14765695034E+04  0.14766518325E+04  0.10000000000E+02 0.  1.
</event>
<event>
 5    1  0.1520352E-008  0.3728314E+03  0.7957747E-01  0.3482979E+00
         13   -1    0    0    0    0  0.00000000000E+00  0.00000000000E+00  0.14999999963E+04  0.15000000000E+04  0.10566000000E+00 0.  1.
        994   -1    0    0    0    0 -0.00000000000E+00 -0.00000000000E+00  0.11368683772E-12  0.17120000000E+03  0.17120000000E+03 0.  0.
         13    1    1    2    0    0  0.29247100069E+02  0.21276097733E+02  0.77896716205E+02  0.85883495252E+02  0.10566000000E+00 0.  1.
        994    1    1    2    0    0 -0.28114274260E+02 -0.19028825418E+02  0.11753281448E+02  0.17492880906E+03  0.17120000000E+03 0.  0.
        998    1    1    2    0    0 -0.11328258096E+01 -0.22472723153E+01  0.14103499986E+04  0.14103876957E+04  0.10000000000E+02 0.  1.
</event>
<event>
 5    1  0.1520352E-008  0.3693568E+03  0.7957747E-01  0.3498852E+00
         13   -1    0    0    0    0  0.00000000000E+00  0.00000000000E+00  0.14999999963E+04  0.15000000000E+04  0.10566000000E+00 0.  1.
        994   -1    0    0    0    0 -0.00000000000E+00 -0.00000000000E+00  0.11368683772E-12  0.17120000000E+03  0.17120000000E+03 0.  0.
         13    1    1    2    0    0  0.37420930194E+02 -0.36089035007E+02  0.11481574375E+03  0.12603733828E+03  0.10566000000E+00 0.  1.
        994    1    1    2    0    0 -0.45797530267E+02  0.64172654895E+02  0.31464716348E+02  0.19108901536E+03  0.17120000000E+03 0.  0.
        998    1    1    2    0    0  0.83766000722E+01 -0.28083619888E+02  0.13537195362E+04  0.13540736464E+04  0.10000000000E+02 0.  1.
</event>
<event>
 5    1  0.1520352E-008  0.3839917E+03  0.7957747E-01  0.3433960E+00
         13   -1    0    0    0    0  0.00000000000E+00  0.00000000000E+00  0.14999999963E+04  0.15000000000E+04  0.10566000000E+00 0. -1.
        994   -1    0    0    0    0 -0.00000000000E+00 -0.00000000000E+00  0.11368683772E-12  0.17120000000E+03  0.17120000000E+03 0.  0.
         13    1    1    2    0    0  0.12097497600E+02 -0.11625554002E+02  0.76269941886E+02  0.78093649892E+02  0.10566000000E+00 0. -1.
        994    1    1    2    0    0  0.11174003190E+02 -0.76699033777E+01  0.27378593596E+01  0.17175745002E+03  0.17120000000E+03 0.  0.
        998    1    1    2    0    0 -0.23271500790E+02  0.19295457380E+02  0.14209921950E+04  0.14213489001E+04  0.10000000000E+02 0. -1.
</event>
<event>
 5    1  0.1520352E-008  0.3799697E+03  0.7957747E-01  0.3451291E+00
         13   -1    0    0    0    0  0.00000000000E+00  0.00000000000E+00  0.14999999963E+04  0.15000000000E+04  0.10566000000E+00 0.  1.
        994   -1    0    0    0    0 -0.00000000000E+00 -0.00000000000E+00  0.11368683772E-12  0.17120000000E+03  0.17120000000E+03 0.  0.
         13    1    1    2    0    0  0.21904181521E+02 -0.31186944567E+02  0.16167495314E+03  0.16610605141E+03  0.10566000000E+00 0.  1.
        994    1    1    2    0    0 -0.38522964284E+02  0.14359820086E+02  0.98200759046E+01  0.17634085488E+03  0.17120000000E+03 0.  0.
        998    1    1    2    0    0  0.16618782763E+02  0.16827124481E+02  0.13285049672E+04  0.13287530937E+04  0.10000000000E+02 0.  1.
</event>
<event>
 5    1  0.1520352E-008  0.3717954E+03  0.7957747E-01  0.3487680E+00
         13   -1    0    0    0    0  0.00000000000E+00  0.00000000000E+00  0.14999999963E+04  0.15000000000E+04  0.10566000000E+00 0. -1.
        994   -1    0    0    0    0 -0.00000000000E+00 -0.00000000000E+00  0.11368683772E-12  0.17120000000E+03  0.17120000000E+03 0.  0.
         13    1    1    2    0    0  0.25890609288E+02 -0.66365547244E+01  0.38852682796E+02  0.47158346370E+02  0.10566000000E+00 0. -1.
        994    1    1    2    0    0 -0.25544734514E+02 -0.12298988780E+01  0.10584440501E+02  0.17342294108E+03  0.17120000000E+03 0.  0.
        998    1    1    2    0    0 -0.34587477327E+00  0.78664536024E+01  0.14505628730E+04  0.14506187125E+04  0.10000000000E+02 0. -1.
</event>
<event>
 5    1  0.1520352E-008  0.3757522E+03  0.7957747E-01  0.3469865E+00
         13   -1    0    0    0    0  0.00000000000E+00  0.00000000000E+00  0.14999999963E+04  0.15000000000E+04  0.10566000000E+00 0.  1.
        994   -1    0    0    0    0 -0.00000000000E+00 -0.00000000000E+00  0.11368683772E-12  0.17120000000E+03  0.17120000000E+03 0.  0.
         13    1    1    2    0    0  0.82830467045E+01  0.71344515861E+01  0.64749235082E+01  0.12706103282E+02  0.10566000000E+00 0.  1.
        994    1    1    2    0    0 -0.85136774709E+01 -0.15952337646E+02  0.74023270983E+01  0.17231132936E+03  0.17120000000E+03 0.  0.
        998    1    1    2    0    0  0.23063076643E+00  0.88178860595E+01  0.14861227457E+04  0.14861825674E+04  0.10000000000E+02 0.  1.
</event>
<event>
 5    1  0.1520352E-008  0.3850918E+03  0.7957747E-01  0.3429283E+00
         13   -1    0    0    0    0  0.00000000000E+00  0.00000000000E+00  0.14999999963E+04  0.15000000000E+04  0.10566000000E+00 0. -1.
        994   -1    0    0    0    0 -0.00000000000E+00 -0.00000000000E+00  0.11368683772E-12  0.17120000000E+03  0.17120000000E+03 0.  0.
         13    1    1    2    0    0 -0.14743077308E+02 -0.12398023211E+02  0.11610988206E+03  0.11769700584E+03  0.10566000000E+00 0. -1.
        994    1    1    2    0    0  0.12509298027E+02  0.57509588912E+01  0.22080115054E+01  0.17176691003E+03  0.17120000000E+03 0.  0.
        998    1    1    2    0    0  0.22337792809E+01  0.66470643194E+01  0.13816821027E+04  0.13817360841E+04  0.10000000000E+02 0. -1.
</event>
<event>
 5    1  0.1520352E-008  0.3833063E+03  0.7957747E-01  0.3436887E+00
         13   -1    0    0    0    0  0.00000000000E+00  0.00000000000E+00  0.14999999963E+04  0.15000000000E+04  0.10566000000E+00 0. -1.
        994   -1    0    0    0    0 -0.00000000000E+00 -0.00000000000E+00  0.11368683772E-12  0.17120000000E+03  0.17120000000E+03 0.  0.
         13    1    1    2    0    0 -0.33890687344E+01 -0.27288972166E+02  0.15044273668E+03  0.15293528688E+03  0.10566000000E+00 0. -1.
        994    1    1    2    0    0 -0.26339677721E+01  0.18394473688E+02  0.36160199472E+01  0.17224346156E+03  0.17120000000E+03 0.  0.
        998    1    1    2    0    0  0.60230365065E+01  0.88944984789E+01  0.13459412397E+04  0.13460212516E+04  0.10000000000E+02 0. -1.
</event>
<event>
 5    1  0.1520352E-008  0.3840845E+03  0.7957747E-01  0.3433564E+00
         13   -1    0    0    0    0  0.00000000000E+00  0.00000000000E+00  0.14999999963E+04  0.15000000000E+04  0.10566000000E+00 0. -1.
        994   -1    0    0    0    0 -0.00000000000E+00 -0.00000000000E+00  0.11368683772E-12  0.17120000000E+03  0.17120000000E+03 0.  0.
         13    1    1    2    0    0 -0.11426365704E+02 -0.46712934585E+01  0.35297860319E+02  0.37394289978E+02  0.10566000000E+00 0. -1.
        994    1    1    2    0    0  0.13696627423E+02  0.11838577158E+01  0.27090069207E+01  0.17177245949E+03  0.17120000000E+03 0.  0.
        998    1    1    2    0    0 -0.22702617189E+01  0.34874357427E+01  0.14619931290E+04  0.14620332505E+04  0.10000000000E+02 0. -1.
</event>
<event>
 5    1  0.1520352E-008  0.3862797E+03  0.7957747E-01  0.3424263E+00
         13   -1    0    0    0    0  0.00000000000E+00  0.00000000000E+00  0.14999999963E+04  0.15000000000E+04  0.10566000000E+00 0.  1.
        994   -1    0    0    0    0 -0.00000000000E+00 -0.00000000000E+00  0.11368683772E-12  0.17120000000E+03  0.17120000000E+03 0.  0.
         13    1    1    2    0    0  0.10538700635E+02  0.72819706903E-01  0.56487402366E+02  0.57462225017E+02  0.10566000000E+00 0.  1.
        994    1    1    2    0    0 -0.76298552174E+01  0.37482244909E+01  0.12328350390E+01  0.17141535450E+03  0.17120000000E+03 0.  0.
        998    1    1    2    0    0 -0.29088454179E+01 -0.38210441978E+01  0.14422797589E+04  0.14423224205E+04  0.10000000000E+02 0.  1.
</event>
<event>
 5    1  0.1520352E-008  0.3832991E+03  0.7957747E-01  0.3436918E+00
         13   -1    0    0    0    0  0.00000000000E+00  0.00000000000E+00  0.14999999963E+04  0.15000000000E+04  0.10566000000E+00 0.  1.
        994   -1    0    0    0    0 -0.00000000000E+00 -0.00000000000E+00  0.11368683772E-12  0.17120000000E+03  0.17120000000E+03 0.  0.
         13    1    1    2    0    0 -0.71160977855E+01  0.12840175870E+02  0.44735038038E+02  0.47082308316E+02  0.10566000000E+00 0.  1.
        994    1    1    2    0    0 -0.17254695721E+01 -0.59565160670E+00  0.24879921809E+01  0.17122780776E+03  0.17120000000E+03 0.  0.
        998    1    1    2    0    0  0.88415673575E+01 -0.12244524263E+02  0.14527769661E+04  0.14528898839E+04  0.10000000000E+02 0.  1.
</event>
<event>
 5    1  0.1520352E-008  0.3831304E+03  0.7957747E-01  0.3437640E+00
         13   -1    0    0    0    0  0.00000000000E+00  0.00000000000E+00  0.14999999963E+04  0.15000000000E+04  0.10566000000E+00 0.  1.
        994   -1    0    0    0    0 -0.00000000000E+00 -0.00000000000E+00  0.11368683772E-12  0.17120000000E+03  0.17120000000E+03 0.  0.
         13    1    1    2    0    0  0.69063374043E+01  0.16910068278E+02  0.62581114449E+02  0.65192445538E+02  0.10566000000E+00 0.  1.
        994    1    1    2    0    0 -0.74726381399E+01 -0.15892728730E+02  0.35823513271E+01  0.17213568017E+03  0.17120000000E+03 0.  0.
        998    1    1    2    0    0  0.56630073556E+00 -0.10173395481E+01  0.14338365305E+04  0.14338718743E+04  0.10000000000E+02 0.  1.
</event>
<event>
 5    1  0.1520352E-008  0.3685210E+03  0.7957747E-01  0.3502716E+00
         13   -1    0    0    0    0  0.00000000000E+00  0.00000000000E+00  0.14999999963E+04  0.15000000000E+04  0.10566000000E+00 0. -1.
        994   -1    0    0    0    0 -0.00000000000E+00 -0.00000000000E+00  0.11368683772E-12  0.17120000000E+03  0.17120000000E+03 0.  0.
         13    1    1    2    0    0 -0.42311971520E+01 -0.28504383716E+02  0.35007946269E+02  0.45342809644E+02  0.10566000000E+00 0. -1.
        994    1    1    2    0    0  0.58405859911E+01  0.38731853549E+02  0.15513994483E+02  0.17630766560E+03  0.17120000000E+03 0.  0.
        998    1    1    2    0    0 -0.16093888391E+01 -0.10227469832E+02  0.14494780555E+04  0.14495495248E+04  0.10000000000E+02 0. -1.
</event>
<event>
 5    1  0.1520352E-008  0.3847096E+03  0.7957747E-01  0.3430905E+00
         13   -1    0    0    0    0  0.00000000000E+00  0.00000000000E+00  0.14999999963E+04  0.15000000000E+04  0.10566000000E+00 0. -1.
        994   -1    0    0    0    0 -0.00000000000E+00 -0.00000000000E+00  0.11368683772E-12  0.17120000000E+03  0.17120000000E+03 0.  0.
         13    1    1    2    0    0  0.13393520855E+02 -0.13218991947E+02  0.10447885701E+03  0.10616011905E+03  0.10566000000E+00 0. -1.
        994    1    1    2    0    0  0.30037355936E+01  0.11706073897E+02  0.22552981652E+01  0.17164084876E+03  0.17120000000E+03 0.  0.
        998    1    1    2    0    0 -0.16397256449E+02  0.15129180495E+01  0.13932658411E+04  0.13933990322E+04  0.10000000000E+02 0. -1.
</event>
<event>
 5    1  0.1520352E-008  0.3709716E+03  0.7957747E-01  0.3491438E+00
         13   -1    0    0    0    0  0.00000000000E+00  0.00000000000E+00  0.14999999963E+04  0.15000000000E+04  0.10566000000E+00 0. -1.
        994   -1    0    0    0    0 -0.00000000000E+00 -0.00000000000E+00  0.11368683772E-12  0.17120000000E+03  0.17120000000E+03 0.  0.
         13    1    1    2    0    0  0.11142891419E+02  0.55474428044E+01  0.46806738015E+01  0.13298797770E+02  0.10566000000E+00 0. -1.
        994    1    1    2    0    0 -0.12761308309E+02 -0.16792634169E+02  0.10296586635E+02  0.17280134041E+03  0.17120000000E+03 0.  0.
        998    1    1    2    0    0  0.16184168900E+01  0.11245191364E+02  0.14850227358E+04  0.14850998618E+04  0.10000000000E+02 0. -1.
</event>
<event>
 5    1  0.1520352E-008  0.3738090E+03  0.7957747E-01  0.3478567E+00
         13   -1    0    0    0    0  0.00000000000E+00  0.00000000000E+00  0.14999999963E+04  0.15000000000E+04  0.10566000000E+00 0.  1.
        994   -1    0    0    0    0 -0.00000000000E+00 -0.00000000000E+00  0.11368683772E-12  0.17120000000E+03  0.17120000000E+03 0.  0.
         13    1    1    2    0    0  0.18720107141E+02 -0.49086136331E+02  0.23485653194E+03  0.24066053468E+03  0.10566000000E+00 0.  1.
        994    1    1    2    0    0  0.99828341113E+01 -0.10911914462E+01  0.76358760255E+01  0.17166419044E+03  0.17120000000E+03 0.  0.
        998    1    1    2    0    0 -0.28702941252E+02  0.50177327777E+02  0.12575075883E+04  0.12588752749E+04  0.10000000000E+02 0.  1.
</event>
<event>
 5    1  0.1520352E-008  0.3855265E+03  0.7957747E-01  0.3427442E+00
         13   -1    0    0    0    0  0.00000000000E+00  0.00000000000E+00  0.14999999963E+04  0.15000000000E+04  0.10566000000E+00 0. -1.
        994   -1    0    0    0    0 -0.00000000000E+00 -0.00000000000E+00  0.11368683772E-12  0.17120000000E+03  0.17120000000E+03 0.  0.
         13    1    1    2    0    0 -0.87624518396E+01  0.14041046360E+02  0.89126912449E+02  0.90650699015E+02  0.10566000000E+00 0. -1.
        994    1    1    2    0    0  0.22395670861E+02 -0.16858526614E+02  0.39529509554E+01  0.17352475850E+03  0.17120000000E+03 0.  0.
        998    1    1    2    0    0 -0.13633219021E+02  0.28174802541E+01  0.14069201329E+04  0.14070245425E+04  0.10000000000E+02 0. -1.
</event>
<event>
 5    1  0.1520352E-008  0.3820166E+03  0.7957747E-01  0.3442424E+00
         13   -1    0    0    0    0  0.00000000000E+00  0.00000000000E+00  0.14999999963E+04  0.15000000000E+04  0.10566000000E+00 0. -1.
        994   -1    0    0    0    0 -0.00000000000E+00 -0.00000000000E+00  0.11368683772E-12  0.17120000000E+03  0.17120000000E+03 0.  0.
         13    1    1    2    0    0  0.43543181791E+01  0.13719702235E+02  0.31086129179E+02  0.34257100105E+02  0.10566000000E+00 0. -1.
        994    1    1    2    0    0 -0.64152965092E+01 -0.17814617799E+02  0.43100847647E+01  0.17229780459E+03  0.17120000000E+03 0.  0.
        998    1    1    2    0    0  0.20609783301E+01  0.40949155642E+01  0.14646037823E+04  0.14646450953E+04  0.10000000000E+02 0. -1.
</event>
<event>
 5    1  0.1520352E-008  0.3844937E+03  0.7957747E-01  0.3431822E+00
         13   -1    0    0    0    0  0.00000000000E+00  0.00000000000E+00  0.14999999963E+04  0.15000000000E+04  0.10566000000E+00 0.  1.
        994   -1    0    0    0    0 -0.00000000000E+00 -0.00000000000E+00  0.11368683772E-12  0.17120000000E+03  0.17120000000E+03 0.  0.
         13    1    1    2    0    0  0.88641931760E+01  0.86975930599E+01  0.39812139481E+02  0.41704192352E+02  0.10566000000E+00 0.  1.
        994    1    1    2    0    0 -0.81233874600E+01 -0.99527666213E+01  0.24255632015E+01  0.17169848673E+03  0.17120000000E+03 0.  0.
        998    1    1    2    0    0 -0.74080571608E+00  0.12551735614E+01  0.14577622936E+04  0.14577973209E+04  0.10000000000E+02 0.  1.
</event>
<event>
 5    1  0.1520352E-008  0.3835486E+03  0.7957747E-01  0.3435851E+00
         13   -1    0    0    0    0  0.00000000000E+00  0.00000000000E+00  0.14999999963E+04  0.15000000000E+04  0.10566000000E+00 0. -1.
        994   -1    0    0    0    0 -0.00000000000E+00 -0.00000000000E+00  0.11368683772E-12  0.17120000000E+03  0.17120000000E+03 0.  0.
         13    1    1    2    0    0 -0.62493502884E+01  0.16182739321E+02  0.63559875132E+02  0.65884780654E+02  0.10566000000E+00 0. -1.
        994    1    1    2    0    0  0.12286240487E+02 -0.68121060948E+01  0.30048257542E+01  0.17180170393E+03  0.17120000000E+03 0.  0.
        998    1    1    2    0    0 -0.60368901983E+01 -0.93706332258E+01  0.14334352954E+04  0.14335135154E+04  0.10000000000E+02 0. -1.
</event>
<event>
 5    1  0.1520352E-008  0.3800219E+03  0.7957747E-01  0.3451063E+00
         13   -1    0    0    0    0  0.00000000000E+00  0.00000000000E+00  0.14999999963E+04  0.15000000000E+04  0.10566000000E+00 0. -1.
        994   -1    0    0    0    0 -0.00000000000E+00 -0.00000000000E+00  0.11368683772E-12  0.17120000000E+03  0.17120000000E+03 0.  0.
         13    1    1    2    0    0 -0.10964087830E+02 -0.27190323882E+02  0.11368518058E+03  0.11740466933E+03  0.10566000000E+00 0. -1.
        994    1    1    2    0    0 -0.68182315881E+01  0.25022781370E+01  0.42984211718E+01  0.17140789393E+03  0.17120000000E+03 0.  0.
        998    1    1    2    0    0  0.17782319418E+02  0.24688045745E+02  0.13820163945E+04  0.13823874367E+04  0.10000000000E+02 0. -1.
</event>
<event>
 5    1  0.1520352E-008  0.3804416E+03  0.7957747E-01  0.3449238E+00
         13   -1    0    0    0    0  0.00000000000E+00  0.00000000000E+00  0.14999999963E+04  0.15000000000E+04  0.10566000000E+00 0.  1.
        994   -1    0    0    0    0 -0.00000000000E+00 -0.00000000000E+00  0.11368683772E-12  0.17120000000E+03  0.17120000000E+03 0.  0.
         13    1    1    2    0    0  0.12760800630E+01  0.21274604137E+02  0.60320254852E+01  0.22150251849E+02  0.10566000000E+00 0.  1.
        994    1    1    2    0    0  0.15264428856E+02 -0.34694101194E+02  0.21802210193E+02  0.17669595302E+03  0.17120000000E+03 0.  0.
        998    1    1    2    0    0 -0.16540508919E+02  0.13419497058E+02  0.14721657606E+04  0.14723537951E+04  0.10000000000E+02 0.  1.
</event>
<event>
 5    1  0.1520352E-008  0.3707709E+03  0.7957747E-01  0.3492356E+00
         13   -1    0    0    0    0  0.00000000000E+00  0.00000000000E+00  0.14999999963E+04  0.15000000000E+04  0.10566000000E+00 0.  1.
        994   -1    0    0    0    0 -0.00000000000E+00 -0.00000000000E+00  0.11368683772E-12  0.17120000000E+03  0.17120000000E+03 0.  0.
         13    1    1    2    0    0 -0.20391443116E+03 -0.11235454567E+01  0.73889488592E+03  0.76651681077E+03  0.10566000000E+00 0.  1.
        994    1    1    2    0    0  0.21832743183E+03 -0.27168577510E+01  0.19697844152E+03  0.34027076752E+03  0.17120000000E+03 0.  0.
        998    1    1    2    0    0 -0.14413000670E+02  0.38404032077E+01  0.56412666884E+03  0.56441242171E+03  0.10000000000E+02 0.  1.
</event>
<event>
 5    1  0.1520352E-008  0.3859359E+03  0.7957747E-01  0.3425713E+00
         13   -1    0    0    0    0  0.00000000000E+00  0.00000000000E+00  0.14999999963E+04  0.15000000000E+04  0.10566000000E+00 0. -1.
        994   -1    0    0    0    0 -0.00000000000E+00 -0.00000000000E+00  0.11368683772E-12  0.17120000000E+03  0.17120000000E+03 0.  0.
         13    1    1    2    0    0  0.67287732321E+01 -0.95512733531E+01  0.59294202960E+02  0.60434401466E+02  0.10566000000E+00 0. -1.
        994    1    1    2    0    0 -0.56986565781E+01  0.51510553594E+01  0.13596704392E+01  0.17137764370E+03  0.17120000000E+03 0.  0.
        998    1    1    2    0    0 -0.10301166540E+01  0.44002179937E+01  0.14393461229E+04  0.14393879548E+04  0.10000000000E+02 0. -1.
</event>
<event>
 5    1  0.1520352E-008  0.3801662E+03  0.7957747E-01  0.3450435E+00
         13   -1    0    0    0    0  0.00000000000E+00  0.00000000000E+00  0.14999999963E+04  0.15000000000E+04  0.10566000000E+00 0.  1.
        994   -1    0    0    0    0 -0.00000000000E+00 -0.00000000000E+00  0.11368683772E-12  0.17120000000E+03  0.17120000000E+03 0.  0.
         13    1    1    2    0    0  0.25706810604E+02  0.25633726935E+02  0.15279555554E+03  0.15704910386E+03  0.10566000000E+00 0.  1.
        994    1    1    2    0    0 -0.19526908850E+02 -0.22667810074E+02  0.70457644001E+01  0.17393738120E+03  0.17120000000E+03 0.  0.
        998    1    1    2    0    0 -0.61799017536E+01 -0.29659168612E+01  0.13401586763E+04  0.13402135149E+04  0.10000000000E+02 0.  1.
</event>
<event>
 5    1  0.1520352E-008  0.3828928E+03  0.7957747E-01  0.3438659E+00
         13   -1    0    0    0    0  0.00000000000E+00  0.00000000000E+00  0.14999999963E+04  0.15000000000E+04  0.10566000000E+00 0.  1.
        994   -1    0    0    0    0 -0.00000000000E+00 -0.00000000000E+00  0.11368683772E-12  0.17120000000E+03  0.17120000000E+03 0.  0.
         13    1    1    2    0    0  0.86847743709E+01  0.13017094140E+02  0.45715702673E+02  0.48319837340E+02  0.10566000000E+00 0.  1.
        994    1    1    2    0    0 -0.13050369479E+02  0.14739875131E+01  0.32513045202E+01  0.17173379331E+03  0.17120000000E+03 0.  0.
        998    1    1    2    0    0  0.43655951082E+01 -0.14491081653E+02  0.14510329891E+04  0.14511463694E+04  0.10000000000E+02 0.  1.
</event>
<event>
 5    1  0.1520352E-008  0.3827027E+03  0.7957747E-01  0.3439474E+00
         13   -1    0    0    0    0  0.00000000000E+00  0.00000000000E+00  0.14999999963E+04  0.15000000000E+04  0.10566000000E+00 0.  1.
        994   -1    0    0    0    0 -0.00000000000E+00 -0.00000000000E+00  0.11368683772E-12  0.17120000000E+03  0.17120000000E+03 0.  0.
         13    1    1    2    0    0  0.60943601861E+01 -0.11649600120E+02  0.29383647928E+02  0.32191059917E+02  0.10566000000E+00 0.  1.
        994    1    1    2    0    0 -0.10023026765E+02  0.13421607835E+02  0.37052847050E+01  0.17205746063E+03  0.17120000000E+03 0.  0.
        998    1    1    2    0    0  0.39286665793E+01 -0.17720077157E+01  0.14669110636E+04  0.14669514795E+04  0.10000000000E+02 0.  1.
</event>
<event>
 5    1  0.1520352E-008  0.3777516E+03  0.7957747E-01  0.3461007E+00
         13   -1    0    0    0    0  0.00000000000E+00  0.00000000000E+00  0.14999999963E+04  0.15000000000E+04  0.10566000000E+00 0. -1.
        994   -1    0    0    0    0 -0.00000000000E+00 -0.00000000000E+00  0.11368683772E-12  0.17120000000E+03  0.17120000000E+03 0.  0.
         13    1    1    2    0    0  0.14388182928E+01  0.26224735272E+02  0.16521468508E+02  0.31028648438E+02  0.10566000000E+00 0. -1.
        994    1    1    2    0    0  0.29384173304E+02 -0.18898508605E+02  0.19496925760E+02  0.17581283623E+03  0.17120000000E+03 0.  0.
        998    1    1    2    0    0 -0.30822991597E+02 -0.73262266676E+01  0.14639816020E+04  0.14643585153E+04  0.10000000000E+02 0. -1.
</event>
<event>
 5    1  0.1520352E-008  0.3753220E+03  0.7957747E-01  0.3471784E+00
         13   -1    0    0    0    0  0.00000000000E+00  0.00000000000E+00  0.14999999963E+04  0.15000000000E+04  0.10566000000E+00 0. -1.
        994   -1    0    0    0    0 -0.00000000000E+00 -0.00000000000E+00  0.11368683772E-12  0.17120000000E+03  0.17120000000E+03 0.  0.
         13    1    1    2    0    0 -0.11731933227E+02 -0.12194180255E+02  0.18817442057E+02  0.25306986761E+02  0.10566000000E+00 0. -1.
        994    1    1    2    0    0  0.19627552652E+02  0.85436078984E+01  0.80709471945E+01  0.17272178278E+03  0.17120000000E+03 0.  0.
        998    1    1    2    0    0 -0.78956194251E+01  0.36505723567E+01  0.14731116070E+04  0.14731712305E+04  0.10000000000E+02 0. -1.
</event>
<event>
 5    1  0.1520352E-008  0.3693878E+03  0.7957747E-01  0.3498709E+00
         13   -1    0    0    0    0  0.00000000000E+00  0.00000000000E+00  0.14999999963E+04  0.15000000000E+04  0.10566000000E+00 0. -1.
        994   -1    0    0    0    0 -0.00000000000E+00 -0.00000000000E+00  0.11368683772E-12  0.17120000000E+03  0.17120000000E+03 0.  0.
         13    1    1    2    0    0  0.33858260666E+02  0.42281592173E+01  0.55881985344E+02  0.65475694694E+02  0.10566000000E+00 0. -1.
        994    1    1    2    0    0 -0.30157166349E+02  0.16701671741E+01  0.12756851652E+02  0.17431127733E+03  0.17120000000E+03 0.  0.
        998    1    1    2    0    0 -0.37010943164E+01 -0.58983263915E+01  0.14313611593E+04  0.14314130280E+04  0.10000000000E+02 0. -1.
</event>
<event>
 5    1  0.1520352E-008  0.3849710E+03  0.7957747E-01  0.3429795E+00
         13   -1    0    0    0    0  0.00000000000E+00  0.00000000000E+00  0.14999999963E+04  0.15000000000E+04  0.10566000000E+00 0. -1.
        994   -1    0    0    0    0 -0.00000000000E+00 -0.00000000000E+00  0.11368683772E-12  0.17120000000E+03  0.17120000000E+03 0.  0.
         13    1    1    2    0    0 -0.10379227367E+02 -0.39825827807E+01  0.38106811268E+02  0.39695460135E+02  0.10566000000E+00 0. -1.
        994    1    1    2    0    0  0.79179592698E+00  0.85537114801E+01  0.18872950960E+01  0.17142577054E+03  0.17120000000E+03 0.  0.
        998    1    1    2    0    0  0.95874314399E+01 -0.45711286994E+01  0.14600058899E+04  0.14600787693E+04  0.10000000000E+02 0. -1.
</event>
<event>
 5    1  0.1520352E-008  0.3781724E+03  0.7957747E-01  0.3459155E+00
         13   -1    0    0    0    0  0.00000000000E+00  0.00000000000E+00  0.14999999963E+04  0.15000000000E+04  0.10566000000E+00 0.  1.
        994   -1    0    0    0    0 -0.00000000000E+00 -0.00000000000E+00  0.11368683772E-12  0.17120000000E+03  0.17120000000E+03 0.  0.
         13    1    1    2    0    0 -0.80513141181E+02  0.44799565823E+02  0.48564441670E+03  0.49430747277E+03  0.10566000000E+00 0.  1.
        994    1    1    2    0    0  0.69748851147E+02 -0.10572072103E+03  0.61059559688E+02  0.22153889708E+03  0.17120000000E+03 0.  0.
        998    1    1    2    0    0  0.10764290035E+02  0.60921155211E+02  0.95329601989E+03  0.95535363014E+03  0.10000000000E+02 0.  1.
</event>
<event>
 5    1  0.1520352E-008  0.3828692E+03  0.7957747E-01  0.3438760E+00
         13   -1    0    0    0    0  0.00000000000E+00  0.00000000000E+00  0.14999999963E+04  0.15000000000E+04  0.10566000000E+00 0.  1.
        994   -1    0    0    0    0 -0.00000000000E+00 -0.00000000000E+00  0.11368683772E-12  0.17120000000E+03  0.17120000000E+03 0.  0.
         13    1    1    2    0    0  0.11569539898E+02  0.21481403090E+02  0.10749125190E+03  0.11022561105E+03  0.10566000000E+00 0.  1.
        994    1    1    2    0    0 -0.15979415661E+02 -0.12237013922E+02  0.40343644172E+01  0.17242622286E+03  0.17120000000E+03 0.  0.
        998    1    1    2    0    0  0.44098757633E+01 -0.92443891682E+01  0.13884743800E+04  0.13885481661E+04  0.10000000000E+02 0.  1.
</event>
<event>
 5    1  0.1520352E-008  0.3712712E+03  0.7957747E-01  0.3490069E+00
         13   -1    0    0    0    0  0.00000000000E+00  0.00000000000E+00  0.14999999963E+04  0.15000000000E+04  0.10566000000E+00 0. -1.
        994   -1    0    0    0    0 -0.00000000000E+00 -0.00000000000E+00  0.11368683772E-12  0.17120000000E+03  0.17120000000E+03 0.  0.
         13    1    1    2    0    0 -0.44615994638E+02 -0.10506024970E+02  0.82574462289E+02  0.94443192050E+02  0.10566000000E+00 0. -1.
        994    1    1    2    0    0  0.37047595279E+02  0.32514464975E+02  0.20194039246E+02  0.17929571654E+03  0.17120000000E+03 0.  0.
        998    1    1    2    0    0  0.75683993591E+01 -0.22008440005E+02  0.13972314947E+04  0.13974610914E+04  0.10000000000E+02 0. -1.
</event>
<event>
 5    1  0.1520352E-008  0.4048538E+03  0.7957747E-01  0.3349600E+00
         13   -1    0    0    0    0  0.00000000000E+00  0.00000000000E+00  0.14999999963E+04  0.15000000000E+04  0.10566000000E+00 0. -1.
        994   -1    0    0    0    0 -0.00000000000E+00 -0.00000000000E+00  0.11368683772E-12  0.17120000000E+03  0.17120000000E+03 0.  0.
         13    1    1    2    0    0 -0.33996397908E+02  0.88862115907E+01  0.75669782621E+01  0.35944264511E+02  0.10566000000E+00 0. -1.
        994    1    1    2    0    0  0.32007410958E+02 -0.57948668810E+01  0.34948956256E+02  0.17773273301E+03  0.17120000000E+03 0.  0.
        998    1    1    2    0    0  0.19889869499E+01 -0.30913447097E+01  0.14574840618E+04  0.14575230025E+04  0.10000000000E+02 0.  0.
</event>
<event>
 5    1  0.1520352E-008  0.3840943E+03  0.7957747E-01  0.3433522E+00
         13   -1    0    0    0    0  0.00000000000E+00  0.00000000000E+00  0.14999999963E+04  0.15000000000E+04  0.10566000000E+00 0. -1.
        994   -1    0    0    0    0 -0.00000000000E+00 -0.00000000000E+00  0.11368683772E-12  0.17120000000E+03  0.17120000000E+03 0.  0.
         13    1    1    2    0    0 -0.13663488356E+02  0.38913821435E+01  0.50108619002E+02  0.52083765525E+02  0.10566000000E+00 0. -1.
        994    1    1    2    0    0 -0.99401324349E+00 -0.79745764437E+01  0.22935000756E+01  0.17140385665E+03  0.17120000000E+03 0.  0.
        998    1    1    2    0    0  0.14657501599E+02  0.40831943001E+01  0.14475978772E+04  0.14477123778E+04  0.10000000000E+02 0. -1.
</event>
<event>
 5    1  0.1520352E-008  0.3808949E+03  0.7957747E-01  0.3447271E+00
         13   -1    0    0    0    0  0.00000000000E+00  0.00000000000E+00  0.14999999963E+04  0.15000000000E+04  0.10566000000E+00 0. -1.
        994   -1    0    0    0    0 -0.00000000000E+00 -0.00000000000E+00  0.11368683772E-12  0.17120000000E+03  0.17120000000E+03 0.  0.
         13    1    1    2    0    0 -0.16549915063E+02 -0.16120909906E+02  0.82364349587E+02  0.85543443184E+02  0.10566000000E+00 0. -1.
        994    1    1    2    0    0 -0.17920268713E+02 -0.22213494175E+01  0.47696517581E+01  0.17221573680E+03  0.17120000000E+03 0.  0.
        998    1    1    2    0    0  0.34470183776E+02  0.18342259323E+02  0.14128659949E+04  0.14134408200E+04  0.10000000000E+02 0. -1.
</event>
<event>
 5    1  0.1520352E-008  0.3841275E+03  0.7957747E-01  0.3433381E+00
         13   -1    0    0    0    0  0.00000000000E+00  0.00000000000E+00  0.14999999963E+04  0.15000000000E+04  0.10566000000E+00 0.  1.
        994   -1    0    0    0    0 -0.00000000000E+00 -0.00000000000E+00  0.11368683772E-12  0.17120000000E+03  0.17120000000E+03 0.  0.
         13    1    1    2    0    0  0.30221293319E+01  0.17358127021E+02  0.83293629126E+02  0.85136817279E+02  0.10566000000E+00 0.  1.
        994    1    1    2    0    0  0.81270701938E+01  0.36374890429E+01  0.23254516691E+01  0.17144715898E+03  0.17120000000E+03 0.  0.
        998    1    1    2    0    0 -0.11149199526E+02 -0.20995616064E+02  0.14143809155E+04  0.14146160237E+04  0.10000000000E+02 0.  1.
</event>
<event>
 5    1  0.1520352E-008  0.3783417E+03  0.7957747E-01  0.3458411E+00
         13   -1    0    0    0    0  0.00000000000E+00  0.00000000000E+00  0.14999999963E+04  0.15000000000E+04  0.10566000000E+00 0.  1.
        994   -1    0    0    0    0 -0.00000000000E+00 -0.00000000000E+00  0.11368683772E-12  0.17120000000E+03  0.17120000000E+03 0.  0.
         13    1    1    2    0    0  0.93246854793E+01  0.35741837282E+02  0.14426158702E+03  0.14891556448E+03  0.10566000000E+00 0.  1.
        994    1    1    2    0    0  0.56143637455E+01 -0.12833290985E+02  0.56323964494E+01  0.17186441845E+03  0.17120000000E+03 0.  0.
        998    1    1    2    0    0 -0.14939049225E+02 -0.22908546298E+02  0.13501060128E+04  0.13504200171E+04  0.10000000000E+02 0.  1.
</event>
<event>
 5    1  0.1520352E-008  0.3793620E+03  0.7957747E-01  0.3453941E+00
         13   -1    0    0    0    0  0.00000000000E+00  0.00000000000E+00  0.14999999963E+04  0.15000000000E+04  0.10566000000E+00 0.  1.
        994   -1    0    0    0    0 -0.00000000000E+00 -0.00000000000E+00  0.11368683772E-12  0.17120000000E+03  0.17120000000E+03 0.  0.
         13    1    1    2    0    0 -0.49018967802E+02  0.53510756916E+02  0.39131985982E+03  0.39799183931E+03  0.10566000000E+00 0.  1.
        994    1    1    2    0    0  0.33340395109E+02 -0.84386287161E+02  0.32547882326E+02  0.19647247148E+03  0.17120000000E+03 0.  0.
        998    1    1    2    0    0  0.15678572693E+02  0.30875530244E+02  0.10761322541E+04  0.10767356892E+04  0.10000000000E+02 0.  1.
</event>
<event>
 5    1  0.1520352E-008  0.3830853E+03  0.7957747E-01  0.3437833E+00
         13   -1    0    0    0    0  0.00000000000E+00  0.00000000000E+00  0.14999999963E+04  0.15000000000E+04  0.10566000000E+00 0.  1.
        994   -1    0    0    0    0 -0.00000000000E+00 -0.00000000000E+00  0.11368683772E-12  0.17120000000E+03  0.17120000000E+03 0.  0.
         13    1    1    2    0    0  0.14300748674E+02 -0.25987530653E+01  0.38858834774E+02  0.41488373482E+02  0.10566000000E+00 0.  1.
        994    1    1    2    0    0 -0.16542531850E+02  0.61436381805E+01  0.36148915610E+01  0.17214501762E+03  0.17120000000E+03 0.  0.
        998    1    1    2    0    0  0.22417831762E+01 -0.35448851152E+01  0.14575262699E+04  0.14575666089E+04  0.10000000000E+02 0.  1.
</event>
<event>
 5    1  0.1520352E-008  0.3851744E+03  0.7957747E-01  0.3428933E+00
         13   -1    0    0    0    0  0.00000000000E+00  0.00000000000E+00  0.14999999963E+04  0.15000000000E+04  0.10566000000E+00 0.  1.
        994   -1    0    0    0    0 -0.00000000000E+00 -0.00000000000E+00  0.11368683772E-12  0.17120000000E+03  0.17120000000E+03 0.  0.
         13    1    1    2    0    0  0.99687192578E+01 -0.34909914129E+01  0.36026066250E+02  0.37542655716E+02  0.10566000000E+00 0.  1.
        994    1    1    2    0    0 -0.68531026015E+01  0.24562039224E+01  0.17177881551E+01  0.17136332382E+03  0.17120000000E+03 0.  0.
        998    1    1    2    0    0 -0.31156166563E+01  0.10347874906E+01  0.14622561419E+04  0.14622940205E+04  0.10000000000E+02 0.  1.
</event>
<event>
 5    1  0.1520352E-008  0.3786634E+03  0.7957747E-01  0.3456999E+00
         13   -1    0    0    0    0  0.00000000000E+00  0.00000000000E+00  0.14999999963E+04  0.15000000000E+04  0.10566000000E+00 0. -1.
        994   -1    0    0    0    0 -0.00000000000E+00 -0.00000000000E+00  0.11368683772E-12  0.17120000000E+03  0.17120000000E+03 0.  0.
         13    1    1    2    0    0  0.23562719109E+02 -0.13569751368E+02  0.76261614338E+02  0.80964096176E+02  0.10566000000E+00 0. -1.
        994    1    1    2    0    0 -0.72317866456E+01  0.14487160630E+02  0.56901805213E+01  0.17205811436E+03  0.17120000000E+03 0.  0.
        998    1    1    2    0    0 -0.16330932464E+02 -0.91740926106E+00  0.14180482014E+04  0.14181777895E+04  0.10000000000E+02 0. -1.
</event>
<event>
 5    1  0.1520352E-008  0.3848262E+03  0.7957747E-01  0.3430410E+00
         13   -1    0    0    0    0  0.00000000000E+00  0.00000000000E+00  0.14999999963E+04  0.15000000000E+04  0.10566000000E+00 0.  1.
        994   -1    0    0    0    0 -0.00000000000E+00 -0.00000000000E+00  0.11368683772E-12  0.17120000000E+03  0.17120000000E+03 0.  0.
         13    1    1    2    0    0  0.13209958440E+02 -0.17883736743E+01  0.54461097445E+02  0.56068918139E+02  0.10566000000E+00 0.  1.
        994    1    1    2    0    0 -0.11225218118E+00 -0.38267560941E+01  0.17646666018E+01  0.17125189258E+03  0.17120000000E+03 0.  0.
        998    1    1    2    0    0 -0.13097706258E+02  0.56151297684E+01  0.14437742322E+04  0.14438791893E+04  0.10000000000E+02 0.  1.
</event>
<event>
 5    1  0.1520352E-008  0.3772431E+03  0.7957747E-01  0.3463251E+00
         13   -1    0    0    0    0  0.00000000000E+00  0.00000000000E+00  0.14999999963E+04  0.15000000000E+04  0.10566000000E+00 0. -1.
        994   -1    0    0    0    0 -0.00000000000E+00 -0.00000000000E+00  0.11368683772E-12  0.17120000000E+03  0.17120000000E+03 0.  0.
         13    1    1    2    0    0 -0.96889043565E+01  0.12848321042E+02  0.21170338822E+02  0.26592266377E+02  0.10566000000E+00 0. -1.
        994    1    1    2    0    0 -0.25419643349E+01 -0.13449297456E+02  0.61636323857E+01  0.17185684609E+03  0.17120000000E+03 0.  0.
        998    1    1    2    0    0  0.12230868691E+02  0.60097641455E+00  0.14726660251E+04  0.14727508875E+04  0.10000000000E+02 0. -1.
</event>
<event>
 5    1  0.1520352E-008  0.3787478E+03  0.7957747E-01  0.3456629E+00
         13   -1    0    0    0    0  0.00000000000E+00  0.00000000000E+00  0.14999999963E+04  0.15000000000E+04  0.10566000000E+00 0. -1.
        994   -1    0    0    0    0 -0.00000000000E+00 -0.00000000000E+00  0.11368683772E-12  0.17120000000E+03  0.17120000000E+03 0.  0.
         13    1    1    2    0    0 -0.70045403262E+01 -0.27464857293E+02  0.80120221579E+02  0.84986134405E+02  0.10566000000E+00 0. -1.
        994    1    1    2    0    0 -0.13607017096E+01  0.25638444733E+02  0.69824748672E+01  0.17325523459E+03  0.17120000000E+03 0.  0.
        998    1    1    2    0    0  0.83652420358E+01  0.18264125597E+01  0.14128972998E+04  0.14129586310E+04  0.10000000000E+02 0. -1.
</event>
<event>
 5    1  0.1716909E-008  0.3854943E+03  0.7957747E-01  0.3427579E+00
         13   -1    0    0    0    0  0.00000000000E+00  0.00000000000E+00  0.14999999963E+04  0.15000000000E+04  0.10566000000E+00 0. -1.
        994   -1    0    0    0    0 -0.00000000000E+00 -0.00000000000E+00  0.11368683772E-12  0.17120000000E+03  0.17120000000E+03 0.  0.
         13    1    1    2    0    0  0.17520198772E+01  0.10312109727E+02  0.40562882433E+02  0.41889948388E+02  0.10566000000E+00 0. -1.
        994    1    1    2    0    0 -0.15814508652E+01 -0.25030664989E+01  0.14137131352E+01  0.17123143670E+03  0.17120000000E+03 0.  0.
        998    1    1    2    0    0 -0.17056901197E+00 -0.78090432280E+01  0.14580234007E+04  0.14580786149E+04  0.10000000000E+02 0. -1.
</event>
<event>
 5    1  0.1520352E-008  0.3966572E+03  0.7957747E-01  0.3381689E+00
         13   -1    0    0    0    0  0.00000000000E+00  0.00000000000E+00  0.14999999963E+04  0.15000000000E+04  0.10566000000E+00 0. -1.
        994   -1    0    0    0    0 -0.00000000000E+00 -0.00000000000E+00  0.11368683772E-12  0.17120000000E+03  0.17120000000E+03 0.  0.
         13    1    1    2    0    0  0.42726776810E+02 -0.15260171564E+02  0.38780176205E+02  0.59685538644E+02  0.10566000000E+00 0. -1.
        994    1    1    2    0    0  0.64341825540E+02 -0.55303528892E+02  0.54173134953E+02  0.19860140828E+03  0.17120000000E+03 0.  0.
        998    1    1    2    0    0 -0.10706860235E+03  0.70563700456E+02  0.14070466851E+04  0.14129130531E+04  0.10000000000E+02 0. -1.
</event>
<event>
 5    1  0.1520352E-008  0.3835535E+03  0.7957747E-01  0.3435830E+00
         13   -1    0    0    0    0  0.00000000000E+00  0.00000000000E+00  0.14999999963E+04  0.15000000000E+04  0.10566000000E+00 0. -1.
        994   -1    0    0    0    0 -0.00000000000E+00 -0.00000000000E+00  0.11368683772E-12  0.17120000000E+03  0.17120000000E+03 0.  0.
         13    1    1    2    0    0  0.19459916461E+01  0.10850930054E+02  0.25491536680E+02  0.27773353648E+02  0.10566000000E+00 0. -1.
        994    1    1    2    0    0 -0.40914755881E+00 -0.30716460319E+01  0.23817392694E+01  0.17124460603E+03  0.17120000000E+03 0.  0.
        998    1    1    2    0    0 -0.15368440873E+01 -0.77792840226E+01  0.14721267203E+04  0.14721820403E+04  0.10000000000E+02 0. -1.
</event>
<event>
 5    1  0.1520352E-008  0.3859072E+03  0.7957747E-01  0.3425834E+00
         13   -1    0    0    0    0  0.00000000000E+00  0.00000000000E+00  0.14999999963E+04  0.15000000000E+04  0.10566000000E+00 0. -1.
        994   -1    0    0    0    0 -0.00000000000E+00 -0.00000000000E+00  0.11368683772E-12  0.17120000000E+03  0.17120000000E+03 0.  0.
         13    1    1    2    0    0  0.68753626960E+01 -0.99454267855E+01  0.65396667949E+02  0.66505018375E+02  0.10566000000E+00 0. -1.
        994    1    1    2    0    0 -0.87659136678E+01 -0.33156591654E+01  0.14684560079E+01  0.17146262334E+03  0.17120000000E+03 0.  0.
        998    1    1    2    0    0  0.18905509718E+01  0.13261085951E+02  0.14331348723E+04  0.14332323583E+04  0.10000000000E+02 0. -1.
</event>
<event>
 5    1  0.1520352E-008  0.3769763E+03  0.7957747E-01  0.3464431E+00
         13   -1    0    0    0    0  0.00000000000E+00  0.00000000000E+00  0.14999999963E+04  0.15000000000E+04  0.10566000000E+00 0. -1.
        994   -1    0    0    0    0 -0.00000000000E+00 -0.00000000000E+00  0.11368683772E-12  0.17120000000E+03  0.17120000000E+03 0.  0.
         13    1    1    2    0    0 -0.76253943000E+01 -0.36392175069E+02  0.12024881387E+03  0.12586629988E+03  0.10566000000E+00 0. -1.
        994    1    1    2    0    0  0.28015891635E+01  0.21765720657E+02  0.72952240061E+01  0.17275490092E+03  0.17120000000E+03 0.  0.
        998    1    1    2    0    0  0.48238051364E+01  0.14626454413E+02  0.13724559584E+04  0.13725787992E+04  0.10000000000E+02 0. -1.
</event>
<event>
 5    1  0.1520352E-008  0.3832456E+03  0.7957747E-01  0.3437147E+00
         13   -1    0    0    0    0  0.00000000000E+00  0.00000000000E+00  0.14999999963E+04  0.15000000000E+04  0.10566000000E+00 0.  1.
        994   -1    0    0    0    0 -0.00000000000E+00 -0.00000000000E+00  0.11368683772E-12  0.17120000000E+03  0.17120000000E+03 0.  0.
         13    1    1    2    0    0  0.21430822026E+02 -0.42408057077E+01  0.11516758052E+03  0.11722136039E+03  0.10566000000E+00 0.  1.
        994    1    1    2    0    0  0.13772751262E+02 -0.15530672357E+01  0.31393025444E+01  0.17178881196E+03  0.17120000000E+03 0.  0.
        998    1    1    2    0    0 -0.35203573289E+02  0.57938729434E+01  0.13816931132E+04  0.13821898276E+04  0.10000000000E+02 0.  1.
</event>
<event>
 5    1  0.1520352E-008  0.3840199E+03  0.7957747E-01  0.3433840E+00
         13   -1    0    0    0    0  0.00000000000E+00  0.00000000000E+00  0.14999999963E+04  0.15000000000E+04  0.10566000000E+00 0. -1.
        994   -1    0    0    0    0 -0.00000000000E+00 -0.00000000000E+00  0.11368683772E-12  0.17120000000E+03  0.17120000000E+03 0.  0.
         13    1    1    2    0    0 -0.79670961264E+01 -0.63090601521E+01  0.23474889193E+02  0.25580470038E+02  0.10566000000E+00 0. -1.
        994    1    1    2    0    0  0.61252068450E+01  0.86736217233E+01  0.24895873331E+01  0.17154704287E+03  0.17120000000E+03 0.  0.
        998    1    1    2    0    0  0.18418892814E+01 -0.23645615712E+01  0.14740355198E+04  0.14740724871E+04  0.10000000000E+02 0. -1.
</event>
<event>
 5    1  0.1520352E-008  0.3854810E+03  0.7957747E-01  0.3427635E+00
         13   -1    0    0    0    0  0.00000000000E+00  0.00000000000E+00  0.14999999963E+04  0.15000000000E+04  0.10566000000E+00 0. -1.
        994   -1    0    0    0    0 -0.00000000000E+00 -0.00000000000E+00  0.11368683772E-12  0.17120000000E+03  0.17120000000E+03 0.  0.
         13    1    1    2    0    0  0.10801489388E+02  0.22069839758E+01  0.50851557119E+02  0.52033018140E+02  0.10566000000E+00 0. -1.
        994    1    1    2    0    0  0.14674231790E+02  0.10137948997E+02  0.24367642070E+01  0.17214380299E+03  0.17120000000E+03 0.  0.
        998    1    1    2    0    0 -0.25475721178E+02 -0.12344932973E+02  0.14467116750E+04  0.14470231789E+04  0.10000000000E+02 0. -1.
</event>
<event>
 5    1  0.1520352E-008  0.3747805E+03  0.7957747E-01  0.3474205E+00
         13   -1    0    0    0    0  0.00000000000E+00  0.00000000000E+00  0.14999999963E+04  0.15000000000E+04  0.10566000000E+00 0. -1.
        994   -1    0    0    0    0 -0.00000000000E+00 -0.00000000000E+00  0.11368683772E-12  0.17120000000E+03  0.17120000000E+03 0.  0.
         13    1    1    2    0    0  0.34144756852E+02  0.34501071957E+02  0.91830774050E+02  0.10387054738E+03  0.10566000000E+00 0. -1.
        994    1    1    2    0    0 -0.93334379486E+01  0.10829820210E+02  0.14216291985E+02  0.17238312280E+03  0.17120000000E+03 0.  0.
        998    1    1    2    0    0 -0.24811318904E+02 -0.45330892167E+02  0.13939529302E+04  0.13949463298E+04  0.10000000000E+02 0. -1.
</event>
<event>
 5    1  0.1520352E-008  0.3740312E+03  0.7957747E-01  0.3477567E+00
         13   -1    0    0    0    0  0.00000000000E+00  0.00000000000E+00  0.14999999963E+04  0.15000000000E+04  0.10566000000E+00 0. -1.
        994   -1    0    0    0    0 -0.00000000000E+00 -0.00000000000E+00  0.11368683772E-12  0.17120000000E+03  0.17120000000E+03 0.  0.
         13    1    1    2    0    0 -0.65211542460E+01 -0.26486878738E+02  0.47930545761E+02  0.55149148488E+02  0.10566000000E+00 0. -1.
        994    1    1    2    0    0  0.54561393262E+01  0.24926531961E+02  0.94007222486E+01  0.17334622878E+03  0.17120000000E+03 0.  0.
        998    1    1    2    0    0  0.10650149199E+01  0.15603467776E+01  0.14426687283E+04  0.14427046227E+04  0.10000000000E+02 0. -1.
</event>
<event>
 5    1  0.1520352E-008  0.3836178E+03  0.7957747E-01  0.3435555E+00
         13   -1    0    0    0    0  0.00000000000E+00  0.00000000000E+00  0.14999999963E+04  0.15000000000E+04  0.10566000000E+00 0. -1.
        994   -1    0    0    0    0 -0.00000000000E+00 -0.00000000000E+00  0.11368683772E-12  0.17120000000E+03  0.17120000000E+03 0.  0.
         13    1    1    2    0    0  0.20957207494E+02 -0.14004256771E+01  0.10633568534E+03  0.10839028959E+03  0.10566000000E+00 0. -1.
        994    1    1    2    0    0  0.34627638322E+01 -0.75586362661E+00  0.23594325892E+01  0.17125293862E+03  0.17120000000E+03 0.  0.
        998    1    1    2    0    0 -0.24419971326E+02  0.21562893037E+01  0.13913048784E+04  0.13915567718E+04  0.10000000000E+02 0. -1.
</event>
<event>
 5    1  0.1520352E-008  0.3826738E+03  0.7957747E-01  0.3439598E+00
         13   -1    0    0    0    0  0.00000000000E+00  0.00000000000E+00  0.14999999963E+04  0.15000000000E+04  0.10566000000E+00 0. -1.
        994   -1    0    0    0    0 -0.00000000000E+00 -0.00000000000E+00  0.11368683772E-12  0.17120000000E+03  0.17120000000E+03 0.  0.
         13    1    1    2    0    0 -0.11314871321E+02 -0.11262415769E+02  0.44811375898E+02  0.47570357323E+02  0.10566000000E+00 0. -1.
        994    1    1    2    0    0  0.11720425695E+02  0.30667948673E+01  0.32759901493E+01  0.17165938868E+03  0.17120000000E+03 0.  0.
        998    1    1    2    0    0 -0.40555437404E+00  0.81956209019E+01  0.14519126302E+04  0.14519702540E+04  0.10000000000E+02 0. -1.
</event>
<event>
 5    1  0.1520352E-008  0.3835658E+03  0.7957747E-01  0.3435778E+00
         13   -1    0    0    0    0  0.00000000000E+00  0.00000000000E+00  0.14999999963E+04  0.15000000000E+04  0.10566000000E+00 0. -1.
        994   -1    0    0    0    0 -0.00000000000E+00 -0.00000000000E+00  0.11368683772E-12  0.17120000000E+03  0.17120000000E+03 0.  0.
         13    1    1    2    0    0 -0.18492144804E+02 -0.18584174223E+02  0.13683583583E+03  0.13932475760E+03  0.10566000000E+00 0. -1.
        994    1    1    2    0    0  0.18475541959E+02  0.15834155239E+02  0.43025340746E+01  0.17297403829E+03  0.17120000000E+03 0.  0.
        998    1    1    2    0    0  0.16602845379E-01  0.27500189842E+01  0.13588616264E+04  0.13589012041E+04  0.10000000000E+02 0.  0.
</event>
<event>
 5    1  0.1520352E-008  0.3794566E+03  0.7957747E-01  0.3453528E+00
         13   -1    0    0    0    0  0.00000000000E+00  0.00000000000E+00  0.14999999963E+04  0.15000000000E+04  0.10566000000E+00 0.  1.
        994   -1    0    0    0    0 -0.00000000000E+00 -0.00000000000E+00  0.11368683772E-12  0.17120000000E+03  0.17120000000E+03 0.  0.
         13    1    1    2    0    0  0.19836305167E+03  0.26006171261E+02  0.11246522232E+04  0.11423076886E+04  0.10566000000E+00 0.  1.
        994    1    1    2    0    0 -0.18968993570E+03 -0.22113536418E+02  0.13819649583E+03  0.29133999323E+03  0.17120000000E+03 0.  0.
        998    1    1    2    0    0 -0.86731159668E+01 -0.38926348432E+01  0.23715127725E+03  0.23755231813E+03  0.10000000000E+02 0.  0.
</event>
<event>
 5    1  0.1520352E-008  0.3709051E+03  0.7957747E-01  0.3491741E+00
         13   -1    0    0    0    0  0.00000000000E+00  0.00000000000E+00  0.14999999963E+04  0.15000000000E+04  0.10566000000E+00 0.  1.
        994   -1    0    0    0    0 -0.00000000000E+00 -0.00000000000E+00  0.11368683772E-12  0.17120000000E+03  0.17120000000E+03 0.  0.
         13    1    1    2    0    0 -0.16118061989E+02 -0.30892512849E+01  0.68525996360E+01  0.17784956609E+02  0.10566000000E+00 0.  1.
        994    1    1    2    0    0  0.37723187053E+01 -0.12225107360E+02  0.11992462239E+02  0.17209573728E+03  0.17120000000E+03 0.  0.
        998    1    1    2    0    0  0.12345743283E+02  0.15314358645E+02  0.14811549344E+04  0.14813193061E+04  0.10000000000E+02 0.  1.
</event>
<event>
 5    1  0.1520352E-008  0.3823348E+03  0.7957747E-01  0.3441055E+00
         13   -1    0    0    0    0  0.00000000000E+00  0.00000000000E+00  0.14999999963E+04  0.15000000000E+04  0.10566000000E+00 0.  1.
        994   -1    0    0    0    0 -0.00000000000E+00 -0.00000000000E+00  0.11368683772E-12  0.17120000000E+03  0.17120000000E+03 0.  0.
         13    1    1    2    0    0 -0.33191707010E+01 -0.18040702340E+02  0.56307539694E+02  0.59220216359E+02  0.10566000000E+00 0.  1.
        994    1    1    2    0    0 -0.99122132148E+01  0.12397513644E+02  0.37953918771E+01  0.17197614752E+03  0.17120000000E+03 0.  0.
        998    1    1    2    0    0  0.13231383916E+02  0.56431886964E+01  0.14398970647E+04  0.14400036361E+04  0.10000000000E+02 0.  1.
</event>
<event>
 5    1  0.1520352E-008  0.3848871E+03  0.7957747E-01  0.3430151E+00
         13   -1    0    0    0    0  0.00000000000E+00  0.00000000000E+00  0.14999999963E+04  0.15000000000E+04  0.10566000000E+00 0.  1.
        994   -1    0    0    0    0 -0.00000000000E+00 -0.00000000000E+00  0.11368683772E-12  0.17120000000E+03  0.17120000000E+03 0.  0.
         13    1    1    2    0    0 -0.14241214245E+02  0.93428669181E+01  0.91440527883E+02  0.93013346618E+02  0.10566000000E+00 0.  1.
        994    1    1    2    0    0  0.56315197408E+01  0.34119523987E+01  0.18288608588E+01  0.17133633638E+03  0.17120000000E+03 0.  0.
        998    1    1    2    0    0  0.86096945043E+01 -0.12754819317E+02  0.14067306075E+04  0.14068503170E+04  0.10000000000E+02 0.  1.
</event>
<event>
 5    1  0.1520352E-008  0.3819629E+03  0.7957747E-01  0.3442656E+00
         13   -1    0    0    0    0  0.00000000000E+00  0.00000000000E+00  0.14999999963E+04  0.15000000000E+04  0.10566000000E+00 0. -1.
        994   -1    0    0    0    0 -0.00000000000E+00 -0.00000000000E+00  0.11368683772E-12  0.17120000000E+03  0.17120000000E+03 0.  0.
         13    1    1    2    0    0  0.16587241439E+02 -0.15374427865E+02  0.78945575597E+02  0.82121402089E+02  0.10566000000E+00 0. -1.
        994    1    1    2    0    0 -0.83875221608E+01  0.16690629961E+02  0.43053099192E+01  0.17226985618E+03  0.17120000000E+03 0.  0.
        998    1    1    2    0    0 -0.81997192786E+01 -0.13162020966E+01  0.14167491108E+04  0.14168087417E+04  0.10000000000E+02 0. -1.
</event>
<event>
 5    1  0.1520352E-008  0.3853157E+03  0.7957747E-01  0.3428334E+00
         13   -1    0    0    0    0  0.00000000000E+00  0.00000000000E+00  0.14999999963E+04  0.15000000000E+04  0.10566000000E+00 0. -1.
        994   -1    0    0    0    0 -0.00000000000E+00 -0.00000000000E+00  0.11368683772E-12  0.17120000000E+03  0.17120000000E+03 0.  0.
         13    1    1    2    0    0 -0.97323532640E+01  0.48944212127E+01  0.41434517125E+02  0.42842787403E+02  0.10566000000E+00 0. -1.
        994    1    1    2    0    0  0.43754377087E+01  0.38156284964E+01  0.15841953838E+01  0.17130573006E+03  0.17120000000E+03 0.  0.
        998    1    1    2    0    0  0.53569155552E+01 -0.87100497092E+01  0.14569812838E+04  0.14570514825E+04  0.10000000000E+02 0. -1.
</event>
<event>
 5    1  0.1520352E-008  0.3859775E+03  0.7957747E-01  0.3425537E+00
         13   -1    0    0    0    0  0.00000000000E+00  0.00000000000E+00  0.14999999963E+04  0.15000000000E+04  0.10566000000E+00 0.  1.
        994   -1    0    0    0    0 -0.00000000000E+00 -0.00000000000E+00  0.11368683772E-12  0.17120000000E+03  0.17120000000E+03 0.  0.
         13    1    1    2    0    0  0.10465967734E+01 -0.10490332100E+02  0.50153370857E+02  0.51249528825E+02  0.10566000000E+00 0.  1.
        994    1    1    2    0    0  0.34731963769E+01  0.41489319569E+01  0.12415832293E+01  0.17128998295E+03  0.17120000000E+03 0.  0.
        998    1    1    2    0    0 -0.45197931503E+01  0.63414001434E+01  0.14486050422E+04  0.14486604882E+04  0.10000000000E+02 0.  1.
</event>
<event>
 5    1  0.1520352E-008  0.3751646E+03  0.7957747E-01  0.3472487E+00
         13   -1    0    0    0    0  0.00000000000E+00  0.00000000000E+00  0.14999999963E+04  0.15000000000E+04  0.10566000000E+00 0.  1.
        994   -1    0    0    0    0 -0.00000000000E+00 -0.00000000000E+00  0.11368683772E-12  0.17120000000E+03  0.17120000000E+03 0.  0.
         13    1    1    2    0    0 -0.22667898085E+02  0.49433782000E+00  0.36097558490E+02  0.42627724153E+02  0.10566000000E+00 0.  1.
        994    1    1    2    0    0  0.17465911402E+02 -0.10251446024E+01  0.76348479639E+01  0.17226096449E+03  0.17120000000E+03 0.  0.
        998    1    1    2    0    0  0.52019866833E+01  0.53080678240E+00  0.14562675898E+04  0.14563113114E+04  0.10000000000E+02 0.  1.
</event>
<event>
 5    1  0.1520352E-008  0.3837654E+03  0.7957747E-01  0.3434925E+00
         13   -1    0    0    0    0  0.00000000000E+00  0.00000000000E+00  0.14999999963E+04  0.15000000000E+04  0.10566000000E+00 0. -1.
        994   -1    0    0    0    0 -0.00000000000E+00 -0.00000000000E+00  0.11368683772E-12  0.17120000000E+03  0.17120000000E+03 0.  0.
         13    1    1    2    0    0 -0.26307561670E+02  0.12533519652E+02  0.17451068344E+03  0.17692700957E+03  0.10566000000E+00 0. -1.
        994    1    1    2    0    0  0.23921037158E+02 -0.10164195655E+02  0.44780224533E+01  0.17321957042E+03  0.17120000000E+03 0.  0.
        998    1    1    2    0    0  0.23865245127E+01 -0.23693239966E+01  0.13210112904E+04  0.13210534200E+04  0.10000000000E+02 0. -1.
</event>
<event>
 5    1  0.1520352E-008  0.3849148E+03  0.7957747E-01  0.3430034E+00
         13   -1    0    0    0    0  0.00000000000E+00  0.00000000000E+00  0.14999999963E+04  0.15000000000E+04  0.10566000000E+00 0. -1.
        994   -1    0    0    0    0 -0.00000000000E+00 -0.00000000000E+00  0.11368683772E-12  0.17120000000E+03  0.17120000000E+03 0.  0.
         13    1    1    2    0    0  0.19014151537E+02  0.57043501153E+01  0.11767239580E+03  0.11933516442E+03  0.10566000000E+00 0. -1.
        994    1    1    2    0    0 -0.15410825896E+02  0.67054844021E+01  0.26021505318E+01  0.17204263502E+03  0.17120000000E+03 0.  0.
        998    1    1    2    0    0 -0.36033256412E+01 -0.12409834517E+02  0.13797254499E+04  0.13798222006E+04  0.10000000000E+02 0. -1.
</event>
<event>
 5    1  0.1520352E-008  0.3842198E+03  0.7957747E-01  0.3432988E+00
         13   -1    0    0    0    0  0.00000000000E+00  0.00000000000E+00  0.14999999963E+04  0.15000000000E+04  0.10566000000E+00 0.  1.
        994   -1    0    0    0    0 -0.00000000000E+00 -0.00000000000E+00  0.11368683772E-12  0.17120000000E+03  0.17120000000E+03 0.  0.
         13    1    1    2    0    0 -0.15261630365E+02  0.92037120138E+01  0.86764549435E+02  0.88576090898E+02  0.10566000000E+00 0.  1.
        994    1    1    2    0    0 -0.44376529605E+01 -0.26357897007E+00  0.20831491740E+01  0.17127037615E+03  0.17120000000E+03 0.  0.
        998    1    1    2    0    0  0.19699283325E+02 -0.89401330438E+01  0.14111522977E+04  0.14113535329E+04  0.10000000000E+02 0.  1.
</event>
<event>
 5    1  0.1520352E-008  0.3784506E+03  0.7957747E-01  0.3457933E+00
         13   -1    0    0    0    0  0.00000000000E+00  0.00000000000E+00  0.14999999963E+04  0.15000000000E+04  0.10566000000E+00 0. -1.
        994   -1    0    0    0    0 -0.00000000000E+00 -0.00000000000E+00  0.11368683772E-12  0.17120000000E+03  0.17120000000E+03 0.  0.
         13    1    1    2    0    0  0.68045073029E+02  0.10038147952E+03  0.70160678218E+03  0.71201029583E+03  0.10566000000E+00 0. -1.
        994    1    1    2    0    0 -0.73979336465E+02 -0.10173102557E+03  0.60066779445E+02  0.22077047307E+03  0.17120000000E+03 0.  0.
        998    1    1    2    0    0  0.59342634360E+01  0.13495460563E+01  0.73832643465E+03  0.73841923110E+03  0.10000000000E+02 0. -1.
</event>
<event>
 5    1  0.1520352E-008  0.3808009E+03  0.7957747E-01  0.3447679E+00
         13   -1    0    0    0    0  0.00000000000E+00  0.00000000000E+00  0.14999999963E+04  0.15000000000E+04  0.10566000000E+00 0.  1.
        994   -1    0    0    0    0 -0.00000000000E+00 -0.00000000000E+00  0.11368683772E-12  0.17120000000E+03  0.17120000000E+03 0.  0.
         13    1    1    2    0    0  0.20371826217E+02 -0.13715360514E+02  0.86194073864E+02  0.89624505303E+02  0.10566000000E+00 0.  1.
        994    1    1    2    0    0  0.11767443853E+02  0.17150240264E+02  0.51730814037E+01  0.17253638528E+03  0.17120000000E+03 0.  0.
        998    1    1    2    0    0 -0.32139270070E+02 -0.34348797506E+01  0.14086328410E+04  0.14090391094E+04  0.10000000000E+02 0.  1.
</event>
<event>
 5    1  0.1520352E-008  0.3684658E+03  0.7957747E-01  0.3502972E+00
         13   -1    0    0    0    0  0.00000000000E+00  0.00000000000E+00  0.14999999963E+04  0.15000000000E+04  0.10566000000E+00 0.  1.
        994   -1    0    0    0    0 -0.00000000000E+00 -0.00000000000E+00  0.11368683772E-12  0.17120000000E+03  0.17120000000E+03 0.  0.
         13    1    1    2    0    0  0.15254621450E+01 -0.13785051390E+02  0.48572240746E+01  0.14695525385E+02  0.10566000000E+00 0.  1.
        994    1    1    2    0    0 -0.94382817470E+00  0.16510115793E+02  0.11024398738E+02  0.17234979577E+03  0.17120000000E+03 0.  0.
        998    1    1    2    0    0 -0.58163397030E+00 -0.27250644025E+01  0.14841183735E+04  0.14841546788E+04  0.10000000000E+02 0.  1.
</event>
<event>
 5    1  0.1520352E-008  0.3795050E+03  0.7957747E-01  0.3453317E+00
         13   -1    0    0    0    0  0.00000000000E+00  0.00000000000E+00  0.14999999963E+04  0.15000000000E+04  0.10566000000E+00 0. -1.
        994   -1    0    0    0    0 -0.00000000000E+00 -0.00000000000E+00  0.11368683772E-12  0.17120000000E+03  0.17120000000E+03 0.  0.
         13    1    1    2    0    0 -0.56993499162E+01 -0.49421783876E+02  0.23959747312E+03  0.24470789852E+03  0.10566000000E+00 0. -1.
        994    1    1    2    0    0  0.37315440015E+01  0.48774362278E+02  0.12437481681E+02  0.17848527611E+03  0.17120000000E+03 0.  0.
        998    1    1    2    0    0  0.19678059147E+01  0.64742159822E+00  0.12479650415E+04  0.12480068254E+04  0.10000000000E+02 0. -1.
</event>
<event>
 5    1  0.1520352E-008  0.3803638E+03  0.7957747E-01  0.3449576E+00
         13   -1    0    0    0    0  0.00000000000E+00  0.00000000000E+00  0.14999999963E+04  0.15000000000E+04  0.10566000000E+00 0.  1.
        994   -1    0    0    0    0 -0.00000000000E+00 -0.00000000000E+00  0.11368683772E-12  0.17120000000E+03  0.17120000000E+03 0.  0.
         13    1    1    2    0    0 -0.45222920070E+01 -0.20680155635E+02  0.56390449798E+02  0.60232997224E+02  0.10566000000E+00 0.  1.
        994    1    1    2    0    0  0.45066620214E+01  0.80164740423E+01  0.42320353983E+01  0.17149904951E+03  0.17120000000E+03 0.  0.
        998    1    1    2    0    0  0.15629985633E-01  0.12663681593E+02  0.14393775111E+04  0.14394679533E+04  0.10000000000E+02 0.  1.
</event>
<event>
 5    1  0.1520352E-008  0.3063714E+03  0.7957747E-01  0.3851557E+00
         13   -1    0    0    0    0  0.00000000000E+00  0.00000000000E+00  0.14999999963E+04  0.15000000000E+04  0.10566000000E+00 0.  1.
        994   -1    0    0    0    0 -0.00000000000E+00 -0.00000000000E+00  0.11368683772E-12  0.17120000000E+03  0.17120000000E+03 0.  0.
         13    1    1    2    0    0  0.17911890621E+03 -0.11439216758E+03  0.67101133586E+03  0.70386459960E+03  0.10566000000E+00 0.  1.
        994    1    1    2    0    0 -0.13243254641E+03  0.14917601015E+03  0.18691488243E+03  0.32254995679E+03  0.17120000000E+03 0.  0.
        998    1    1    2    0    0 -0.46686359795E+02 -0.34783842570E+02  0.64207377799E+03  0.64478544360E+03  0.10000000000E+02 0. -1.
</event>
<event>
 5    1  0.1520352E-008  0.3858897E+03  0.7957747E-01  0.3425908E+00
         13   -1    0    0    0    0  0.00000000000E+00  0.00000000000E+00  0.14999999963E+04  0.15000000000E+04  0.10566000000E+00 0. -1.
        994   -1    0    0    0    0 -0.00000000000E+00 -0.00000000000E+00  0.11368683772E-12  0.17120000000E+03  0.17120000000E+03 0.  0.
         13    1    1    2    0    0  0.11114070731E+02 -0.23135809691E+01  0.49782888466E+02  0.51060967217E+02  0.10566000000E+00 0. -1.
        994    1    1    2    0    0 -0.20252947079E+02  0.13898563551E+02  0.31700558703E+01  0.17298219905E+03  0.17120000000E+03 0.  0.
        998    1    1    2    0    0  0.91388763473E+01 -0.11584982582E+02  0.14470470519E+04  0.14471568337E+04  0.10000000000E+02 0. -1.
</event>
<event>
 5    1  0.1520352E-008  0.3813080E+03  0.7957747E-01  0.3445483E+00
         13   -1    0    0    0    0  0.00000000000E+00  0.00000000000E+00  0.14999999963E+04  0.15000000000E+04  0.10566000000E+00 0. -1.
        994   -1    0    0    0    0 -0.00000000000E+00 -0.00000000000E+00  0.11368683772E-12  0.17120000000E+03  0.17120000000E+03 0.  0.
         13    1    1    2    0    0 -0.88666810484E+01 -0.11328749165E+02  0.28372423031E+02  0.31811383861E+02  0.10566000000E+00 0. -1.
        994    1    1    2    0    0  0.13210931105E+02  0.31800600630E+01  0.40891652312E+01  0.17178708553E+03  0.17120000000E+03 0.  0.
        998    1    1    2    0    0 -0.43442500561E+01  0.81486891018E+01  0.14675384080E+04  0.14676015306E+04  0.10000000000E+02 0. -1.
</event>
<event>
 5    1  0.1520352E-008  0.3828585E+03  0.7957747E-01  0.3438806E+00
         13   -1    0    0    0    0  0.00000000000E+00  0.00000000000E+00  0.14999999963E+04  0.15000000000E+04  0.10566000000E+00 0.  1.
        994   -1    0    0    0    0 -0.00000000000E+00 -0.00000000000E+00  0.11368683772E-12  0.17120000000E+03  0.17120000000E+03 0.  0.
         13    1    1    2    0    0  0.21190625696E+00  0.16540349852E+02  0.53814722549E+02  0.56299765581E+02  0.10566000000E+00 0.  1.
        994    1    1    2    0    0 -0.40651107684E+01  0.53805056151E+01  0.28476974951E+01  0.17135642488E+03  0.17120000000E+03 0.  0.
        998    1    1    2    0    0  0.38532045115E+01 -0.21920855467E+02  0.14433375762E+04  0.14435438095E+04  0.10000000000E+02 0.  1.
</event>
<event>
 5    1  0.1520352E-008  0.3837488E+03  0.7957747E-01  0.3434996E+00
         13   -1    0    0    0    0  0.00000000000E+00  0.00000000000E+00  0.14999999963E+04  0.15000000000E+04  0.10566000000E+00 0.  1.
        994   -1    0    0    0    0 -0.00000000000E+00 -0.00000000000E+00  0.11368683772E-12  0.17120000000E+03  0.17120000000E+03 0.  0.
         13    1    1    2    0    0 -0.73870706562E+01  0.85453829905E+01  0.27853142921E+02  0.30056631846E+02  0.10566000000E+00 0.  1.
        994    1    1    2    0    0  0.23360735881E+01 -0.54102502056E+01  0.23672776635E+01  0.17131775171E+03  0.17120000000E+03 0.  0.
        998    1    1    2    0    0  0.50509970681E+01 -0.31351327850E+01  0.14697795757E+04  0.14698256164E+04  0.10000000000E+02 0.  1.
</event>
<event>
 5    1  0.1520352E-008  0.3798689E+03  0.7957747E-01  0.3451730E+00
         13   -1    0    0    0    0  0.00000000000E+00  0.00000000000E+00  0.14999999963E+04  0.15000000000E+04  0.10566000000E+00 0.  1.
        994   -1    0    0    0    0 -0.00000000000E+00 -0.00000000000E+00  0.11368683772E-12  0.17120000000E+03  0.17120000000E+03 0.  0.
         13    1    1    2    0    0  0.15435633524E+02  0.53823144164E+01  0.31379811288E+02  0.35382648449E+02  0.10566000000E+00 0.  1.
        994    1    1    2    0    0  0.50937020091E+01 -0.92340645782E+01  0.45713800558E+01  0.17158540516E+03  0.17120000000E+03 0.  0.
        998    1    1    2    0    0 -0.20529335533E+02  0.38517501618E+01  0.14640488049E+04  0.14642319464E+04  0.10000000000E+02 0.  0.
</event>
<event>
 5    1  0.1520352E-008  0.3804369E+03  0.7957747E-01  0.3449258E+00
         13   -1    0    0    0    0  0.00000000000E+00  0.00000000000E+00  0.14999999963E+04  0.15000000000E+04  0.10566000000E+00 0.  1.
        994   -1    0    0    0    0 -0.00000000000E+00 -0.00000000000E+00  0.11368683772E-12  0.17120000000E+03  0.17120000000E+03 0.  0.
         13    1    1    2    0    0  0.20824510944E+01  0.23490070951E+02  0.74668629191E+02  0.78304121125E+02  0.10566000000E+00 0.  1.
        994    1    1    2    0    0 -0.25975292035E+01  0.33425295399E+00  0.39356582654E+01  0.17126525710E+03  0.17120000000E+03 0.  0.
        998    1    1    2    0    0  0.51507810913E+00 -0.23824323905E+02  0.14213957088E+04  0.14216306218E+04  0.10000000000E+02 0.  1.
</event>
<event>
 5    1  0.1520352E-008  0.3723269E+03  0.7957747E-01  0.3485265E+00
         13   -1    0    0    0    0  0.00000000000E+00  0.00000000000E+00  0.14999999963E+04  0.15000000000E+04  0.10566000000E+00 0. -1.
        994   -1    0    0    0    0 -0.00000000000E+00 -0.00000000000E+00  0.11368683772E-12  0.17120000000E+03  0.17120000000E+03 0.  0.
         13    1    1    2    0    0  0.12098377440E+02 -0.12708299653E+03  0.52173740489E+03  0.53712790802E+03  0.10566000000E+00 0. -1.
        994    1    1    2    0    0  0.73575027312E+01  0.14679550485E+03  0.86229884881E+02  0.24155348504E+03  0.17120000000E+03 0.  0.
        998    1    1    2    0    0 -0.19455880172E+02 -0.19712508314E+02  0.89203270651E+03  0.89251860694E+03  0.10000000000E+02 0. -1.
</event>
<event>
 5    1  0.1520352E-008  0.3853563E+03  0.7957747E-01  0.3428162E+00
         13   -1    0    0    0    0  0.00000000000E+00  0.00000000000E+00  0.14999999963E+04  0.15000000000E+04  0.10566000000E+00 0.  1.
        994   -1    0    0    0    0 -0.00000000000E+00 -0.00000000000E+00  0.11368683772E-12  0.17120000000E+03  0.17120000000E+03 0.  0.
         13    1    1    2    0    0  0.21426718954E+01 -0.98094976366E+01  0.32533213725E+02  0.34047590899E+02  0.10566000000E+00 0.  1.
        994    1    1    2    0    0 -0.30863641461E+01  0.19871867914E+02  0.27829171507E+01  0.17239954004E+03  0.17120000000E+03 0.  0.
        998    1    1    2    0    0  0.94369225069E+00 -0.10062370278E+02  0.14646838654E+04  0.14647528691E+04  0.10000000000E+02 0.  1.
</event>
<event>
 5    1  0.1520352E-008  0.4266911E+03  0.7957747E-01  0.3270061E+00
         13   -1    0    0    0    0  0.00000000000E+00  0.00000000000E+00  0.14999999963E+04  0.15000000000E+04  0.10566000000E+00 0. -1.
        994   -1    0    0    0    0 -0.00000000000E+00 -0.00000000000E+00  0.11368683772E-12  0.17120000000E+03  0.17120000000E+03 0.  0.
         13    1    1    2    0    0 -0.27225836032E+02  0.81242860588E+02  0.51032503642E+02  0.99729514870E+02  0.10566000000E+00 0. -1.
        994    1    1    2    0    0  0.95967572026E+02 -0.12326852356E+03  0.16394991857E+03  0.28389068245E+03  0.17120000000E+03 0.  0.
        998    1    1    2    0    0 -0.68741735994E+02  0.42025662972E+02  0.12850175741E+04  0.12875798027E+04  0.10000000000E+02 0. -1.
</event>
<event>
 5    1  0.1520352E-008  0.3770104E+03  0.7957747E-01  0.3464280E+00
         13   -1    0    0    0    0  0.00000000000E+00  0.00000000000E+00  0.14999999963E+04  0.15000000000E+04  0.10566000000E+00 0. -1.
        994   -1    0    0    0    0 -0.00000000000E+00 -0.00000000000E+00  0.11368683772E-12  0.17120000000E+03  0.17120000000E+03 0.  0.
         13    1    1    2    0    0  0.69074522043E+01 -0.34481374201E+02  0.11035654750E+03  0.11582424963E+03  0.10566000000E+00 0. -1.
        994    1    1    2    0    0  0.90237869784E+01  0.17866769018E+02  0.70038382800E+01  0.17250838796E+03  0.17120000000E+03 0.  0.
        998    1    1    2    0    0 -0.15931239183E+02  0.16614605183E+02  0.13826396105E+04  0.13828673624E+04  0.10000000000E+02 0. -1.
</event>
<event>
 5    1  0.1520352E-008  0.3835987E+03  0.7957747E-01  0.3435637E+00
         13   -1    0    0    0    0  0.00000000000E+00  0.00000000000E+00  0.14999999963E+04  0.15000000000E+04  0.10566000000E+00 0.  1.
        994   -1    0    0    0    0 -0.00000000000E+00 -0.00000000000E+00  0.11368683772E-12  0.17120000000E+03  0.17120000000E+03 0.  0.
         13    1    1    2    0    0  0.64324275597E+01  0.11873828830E+02  0.37434726825E+02  0.39796153984E+02  0.10566000000E+00 0.  1.
        994    1    1    2    0    0 -0.85696017602E+01 -0.13491719807E+02  0.31718800790E+01  0.17197373463E+03  0.17120000000E+03 0.  0.
        998    1    1    2    0    0  0.21371742005E+01  0.16178909765E+01  0.14593933894E+04  0.14594301114E+04  0.10000000000E+02 0.  1.
</event>
<event>
 5    1  0.1520352E-008  0.3810153E+03  0.7957747E-01  0.3446750E+00
         13   -1    0    0    0    0  0.00000000000E+00  0.00000000000E+00  0.14999999963E+04  0.15000000000E+04  0.10566000000E+00 0.  1.
        994   -1    0    0    0    0 -0.00000000000E+00 -0.00000000000E+00  0.11368683772E-12  0.17120000000E+03  0.17120000000E+03 0.  0.
         13    1    1    2    0    0 -0.16503483180E+02  0.16433590462E+01  0.38237600837E+02  0.41679621733E+02  0.10566000000E+00 0.  1.
        994    1    1    2    0    0 -0.21768696789E+00  0.88656462955E+01  0.38835963442E+01  0.17147352388E+03  0.17120000000E+03 0.  0.
        998    1    1    2    0    0  0.16721170148E+02 -0.10509005342E+02  0.14578787991E+04  0.14580468544E+04  0.10000000000E+02 0.  1.
</event>
<event>
 5    1  0.1520352E-008  0.3762185E+03  0.7957747E-01  0.3467791E+00
         13   -1    0    0    0    0  0.00000000000E+00  0.00000000000E+00  0.14999999963E+04  0.15000000000E+04  0.10566000000E+00 0.  1.
        994   -1    0    0    0    0 -0.00000000000E+00 -0.00000000000E+00  0.11368683772E-12  0.17120000000E+03  0.17120000000E+03 0.  0.
         13    1    1    2    0    0  0.29329283530E+01 -0.54089120125E+02  0.28020999356E+03  0.28539776916E+03  0.10566000000E+00 0.  1.
        994    1    1    2    0    0  0.79921658000E+01  0.11735612397E+02  0.67371163797E+01  0.17191983030E+03  0.17120000000E+03 0.  0.
        998    1    1    2    0    0 -0.10925094153E+02  0.42353507728E+02  0.12130528863E+04  0.12138824005E+04  0.10000000000E+02 0.  1.
</event>
<event>
 5    1  0.1520352E-008  0.3842296E+03  0.7957747E-01  0.3432946E+00
         13   -1    0    0    0    0  0.00000000000E+00  0.00000000000E+00  0.14999999963E+04  0.15000000000E+04  0.10566000000E+00 0. -1.
        994   -1    0    0    0    0 -0.00000000000E+00 -0.00000000000E+00  0.11368683772E-12  0.17120000000E+03  0.17120000000E+03 0.  0.
         13    1    1    2    0    0 -0.64193312221E+01  0.10695421272E+02  0.39228549010E+02  0.41164184323E+02  0.10566000000E+00 0. -1.
        994    1    1    2    0    0  0.39943128234E+01 -0.60726134915E+00  0.20669466526E+01  0.17126014005E+03  0.17120000000E+03 0.  0.
        998    1    1    2    0    0  0.24250183987E+01 -0.10088159923E+02  0.14587045006E+04  0.14587756756E+04  0.10000000000E+02 0. -1.
</event>
<event>
 5    1  0.1520352E-008  0.3770242E+03  0.7957747E-01  0.3464219E+00
         13   -1    0    0    0    0  0.00000000000E+00  0.00000000000E+00  0.14999999963E+04  0.15000000000E+04  0.10566000000E+00 0.  1.
        994   -1    0    0    0    0 -0.00000000000E+00 -0.00000000000E+00  0.11368683772E-12  0.17120000000E+03  0.17120000000E+03 0.  0.
         13    1    1    2    0    0  0.26525928044E+02 -0.17744093473E+02  0.85207846836E+02  0.90988274180E+02  0.10566000000E+00 0.  1.
        994    1    1    2    0    0 -0.23158184192E+02  0.15728150261E+02  0.82932491152E+01  0.17367180021E+03  0.17120000000E+03 0.  0.
        998    1    1    2    0    0 -0.33677438521E+01  0.20159432119E+01  0.14064989003E+04  0.14065399256E+04  0.10000000000E+02 0.  1.
</event>
<event>
 5    1  0.1520352E-008  0.3850589E+03  0.7957747E-01  0.3429422E+00
         13   -1    0    0    0    0  0.00000000000E+00  0.00000000000E+00  0.14999999963E+04  0.15000000000E+04  0.10566000000E+00 0.  1.
        994   -1    0    0    0    0 -0.00000000000E+00 -0.00000000000E+00  0.11368683772E-12  0.17120000000E+03  0.17120000000E+03 0.  0.
         13    1    1    2    0    0  0.87677507482E+01 -0.12167715330E+02  0.69378324709E+02  0.70980911891E+02  0.10566000000E+00 0.  1.
        994    1    1    2    0    0 -0.17875907624E+02  0.20467546115E+01  0.26660521316E+01  0.17216354176E+03  0.17120000000E+03 0.  0.
        998    1    1    2    0    0  0.91081568761E+01  0.10120960718E+02  0.14279556194E+04  0.14280555463E+04  0.10000000000E+02 0.  1.
</event>
<event>
 5    1  0.1520352E-008  0.3830862E+03  0.7957747E-01  0.3437830E+00
         13   -1    0    0    0    0  0.00000000000E+00  0.00000000000E+00  0.14999999963E+04  0.15000000000E+04  0.10566000000E+00 0. -1.
        994   -1    0    0    0    0 -0.00000000000E+00 -0.00000000000E+00  0.11368683772E-12  0.17120000000E+03  0.17120000000E+03 0.  0.
         13    1    1    2    0    0 -0.15259023603E+02 -0.31948458227E+01  0.44514893375E+02  0.47166001922E+02  0.10566000000E+00 0. -1.
        994    1    1    2    0    0  0.18684615374E+02  0.49829834280E+01  0.38217402915E+01  0.17233104965E+03  0.17120000000E+03 0.  0.
        998    1    1    2    0    0 -0.34255917710E+01 -0.17881376053E+01  0.14516633626E+04  0.14517029484E+04  0.10000000000E+02 0. -1.
</event>
<event>
 5    1  0.1520352E-008  0.3840216E+03  0.7957747E-01  0.3433832E+00
         13   -1    0    0    0    0  0.00000000000E+00  0.00000000000E+00  0.14999999963E+04  0.15000000000E+04  0.10566000000E+00 0.  1.
        994   -1    0    0    0    0 -0.00000000000E+00 -0.00000000000E+00  0.11368683772E-12  0.17120000000E+03  0.17120000000E+03 0.  0.
         13    1    1    2    0    0 -0.12815628202E+02 -0.31720990408E+01  0.39930979477E+02  0.42057066285E+02  0.10566000000E+00 0.  1.
        994    1    1    2    0    0  0.12887937892E+02  0.18822235709E+01  0.26765584325E+01  0.17171559531E+03  0.17120000000E+03 0.  0.
        998    1    1    2    0    0 -0.72309689649E-01  0.12898754699E+01  0.14573924584E+04  0.14574273384E+04  0.10000000000E+02 0.  1.
</event>
<event>
 5    1  0.1520352E-008  0.3722766E+03  0.7957747E-01  0.3485493E+00
         13   -1    0    0    0    0  0.00000000000E+00  0.00000000000E+00  0.14999999963E+04  0.15000000000E+04  0.10566000000E+00 0.  1.
        994   -1    0    0    0    0 -0.00000000000E+00 -0.00000000000E+00  0.11368683772E-12  0.17120000000E+03  0.17120000000E+03 0.  0.
         13    1    1    2    0    0  0.11553299278E+02 -0.70266785786E+01  0.75358402706E+01  0.15480729591E+02  0.10566000000E+00 0.  1.
        994    1    1    2    0    0 -0.13895440368E+02  0.74296330068E+01  0.89361713466E+01  0.17215567916E+03  0.17120000000E+03 0.  0.
        998    1    1    2    0    0  0.23421410894E+01 -0.40295442819E+00  0.14835279847E+04  0.14835635912E+04  0.10000000000E+02 0.  1.
</event>
<event>
 5    1  0.1520352E-008  0.3854074E+03  0.7957747E-01  0.3427946E+00
         13   -1    0    0    0    0  0.00000000000E+00  0.00000000000E+00  0.14999999963E+04  0.15000000000E+04  0.10566000000E+00 0.  1.
        994   -1    0    0    0    0 -0.00000000000E+00 -0.00000000000E+00  0.11368683772E-12  0.17120000000E+03  0.17120000000E+03 0.  0.
         13    1    1    2    0    0  0.91022335722E+01  0.77215317177E+01  0.51084927749E+02  0.52460973258E+02  0.10566000000E+00 0.  1.
        994    1    1    2    0    0  0.46165962217E+00 -0.77200179784E+01  0.16244814914E+01  0.17138229415E+03  0.17120000000E+03 0.  0.
        998    1    1    2    0    0 -0.95638931944E+01 -0.15137393467E-02  0.14472905870E+04  0.14473567326E+04  0.10000000000E+02 0.  1.
</event>
<event>
 5    1  0.1520352E-008  0.3842677E+03  0.7957747E-01  0.3432784E+00
         13   -1    0    0    0    0  0.00000000000E+00  0.00000000000E+00  0.14999999963E+04  0.15000000000E+04  0.10566000000E+00 0. -1.
        994   -1    0    0    0    0 -0.00000000000E+00 -0.00000000000E+00  0.11368683772E-12  0.17120000000E+03  0.17120000000E+03 0.  0.
         13    1    1    2    0    0  0.14813571456E+02 -0.67141484091E+01  0.69357190965E+02  0.71238702899E+02  0.10566000000E+00 0. -1.
        994    1    1    2    0    0 -0.18095166022E+01  0.16767607424E+01  0.20141888195E+01  0.17122962020E+03  0.17120000000E+03 0.  0.
        998    1    1    2    0    0 -0.13004054854E+02  0.50373876667E+01  0.14286286165E+04  0.14287316769E+04  0.10000000000E+02 0. -1.
</event>
<event>
 5    1  0.1520352E-008  0.3783332E+03  0.7957747E-01  0.3458448E+00
         13   -1    0    0    0    0  0.00000000000E+00  0.00000000000E+00  0.14999999963E+04  0.15000000000E+04  0.10566000000E+00 0. -1.
        994   -1    0    0    0    0 -0.00000000000E+00 -0.00000000000E+00  0.11368683772E-12  0.17120000000E+03  0.17120000000E+03 0.  0.
         13    1    1    2    0    0 -0.15816650302E+03 -0.20491917963E+03  0.12197534154E+04  0.12469189702E+04  0.10566000000E+00 0. -1.
        994    1    1    2    0    0  0.15254925461E+03  0.20112246644E+03  0.27636044802E+03  0.41158967288E+03  0.17120000000E+03 0.  0.
        998    1    1    2    0    0  0.56172484131E+01  0.37967131903E+01  0.38861328836E+01  0.12691356885E+02  0.10000000000E+02 0. -1.
</event>
<event>
 5    1  0.1520352E-008  0.3818586E+03  0.7957747E-01  0.3443105E+00
         13   -1    0    0    0    0  0.00000000000E+00  0.00000000000E+00  0.14999999963E+04  0.15000000000E+04  0.10566000000E+00 0. -1.
        994   -1    0    0    0    0 -0.00000000000E+00 -0.00000000000E+00  0.11368683772E-12  0.17120000000E+03  0.17120000000E+03 0.  0.
         13    1    1    2    0    0 -0.12466855159E+02  0.44812679625E+01  0.26726486241E+02  0.29829858715E+02  0.10566000000E+00 0. -1.
        994    1    1    2    0    0  0.40721294678E+01  0.17886143076E+01  0.32635776223E+01  0.17128885638E+03  0.17120000000E+03 0.  0.
        998    1    1    2    0    0  0.83947256908E+01 -0.62698822701E+01  0.14700099324E+04  0.14700812849E+04  0.10000000000E+02 0. -1.
</event>
<event>
 5    1  0.1520352E-008  0.3724550E+03  0.7957747E-01  0.3484684E+00
         13   -1    0    0    0    0  0.00000000000E+00  0.00000000000E+00  0.14999999963E+04  0.15000000000E+04  0.10566000000E+00 0.  1.
        994   -1    0    0    0    0 -0.00000000000E+00 -0.00000000000E+00  0.11368683772E-12  0.17120000000E+03  0.17120000000E+03 0.  0.
         13    1    1    2    0    0  0.14191500122E+02  0.13679745672E+02  0.20744952632E+02  0.28616399863E+02  0.10566000000E+00 0.  1.
        994    1    1    2    0    0 -0.78251177702E+01 -0.16464393940E+02  0.91316666290E+01  0.17240979111E+03  0.17120000000E+03 0.  0.
        998    1    1    2    0    0 -0.63663823520E+01  0.27846482679E+01  0.14701233770E+04  0.14701738090E+04  0.10000000000E+02 0.  1.
</event>
<event>
 5    1  0.1520352E-008  0.3793745E+03  0.7957747E-01  0.3453887E+00
         13   -1    0    0    0    0  0.00000000000E+00  0.00000000000E+00  0.14999999963E+04  0.15000000000E+04  0.10566000000E+00 0. -1.
        994   -1    0    0    0    0 -0.00000000000E+00 -0.00000000000E+00  0.11368683772E-12  0.17120000000E+03  0.17120000000E+03 0.  0.
         13    1    1    2    0    0 -0.38516242945E+02  0.97213500749E+02  0.45770085661E+03  0.46949339826E+03  0.10566000000E+00 0. -1.
        994    1    1    2    0    0  0.31269522005E+02 -0.93489791463E+01  0.19844541349E+02  0.17540932768E+03  0.17120000000E+03 0.  0.
        998    1    1    2    0    0  0.72467209401E+01 -0.87864521603E+02  0.10224545983E+04  0.10262972741E+04  0.10000000000E+02 0.  1.
</event>
<event>
 5    1  0.1520352E-008  0.3838403E+03  0.7957747E-01  0.3434606E+00
         13   -1    0    0    0    0  0.00000000000E+00  0.00000000000E+00  0.14999999963E+04  0.15000000000E+04  0.10566000000E+00 0.  1.
        994   -1    0    0    0    0 -0.00000000000E+00 -0.00000000000E+00  0.11368683772E-12  0.17120000000E+03  0.17120000000E+03 0.  0.
         13    1    1    2    0    0 -0.94534279414E+01 -0.20968235187E+02  0.10686304394E+03  0.10931036324E+03  0.10566000000E+00 0.  1.
        994    1    1    2    0    0  0.17594355496E+02  0.25258618923E+02  0.53412287739E+01  0.17402737687E+03  0.17120000000E+03 0.  0.
        998    1    1    2    0    0 -0.81409275547E+01 -0.42903837361E+01  0.13877957236E+04  0.13878622599E+04  0.10000000000E+02 0.  1.
</event>
<event>
 5    1  0.1520352E-008  0.3796199E+03  0.7957747E-01  0.3452815E+00
         13   -1    0    0    0    0  0.00000000000E+00  0.00000000000E+00  0.14999999963E+04  0.15000000000E+04  0.10566000000E+00 0.  1.
        994   -1    0    0    0    0 -0.00000000000E+00 -0.00000000000E+00  0.11368683772E-12  0.17120000000E+03  0.17120000000E+03 0.  0.
         13    1    1    2    0    0 -0.91128210672E+01  0.16853128999E+02  0.41496652626E+02  0.45706179102E+02  0.10566000000E+00 0.  1.
        994    1    1    2    0    0  0.46969297158E+00 -0.83453430487E+01  0.45590361749E+01  0.17146454494E+03  0.17120000000E+03 0.  0.
        998    1    1    2    0    0  0.86431280956E+01 -0.85077859505E+01  0.14539443075E+04  0.14540292760E+04  0.10000000000E+02 0.  1.
</event>
<event>
 5    1  0.1520352E-008  0.3684589E+03  0.7957747E-01  0.3503004E+00
         13   -1    0    0    0    0  0.00000000000E+00  0.00000000000E+00  0.14999999963E+04  0.15000000000E+04  0.10566000000E+00 0.  1.
        994   -1    0    0    0    0 -0.00000000000E+00 -0.00000000000E+00  0.11368683772E-12  0.17120000000E+03  0.17120000000E+03 0.  0.
         13    1    1    2    0    0  0.10464221483E+02 -0.36412639466E+02  0.71695602067E+02  0.81090386384E+02  0.10566000000E+00 0.  1.
        994    1    1    2    0    0  0.80875632074E+01  0.83655468782E+01  0.10547610184E+02  0.17191882717E+03  0.17120000000E+03 0.  0.
        998    1    1    2    0    0 -0.18551784690E+02  0.28047092588E+02  0.14177567840E+04  0.14181907865E+04  0.10000000000E+02 0.  1.
</event>
<event>
 5    1  0.1520352E-008  0.3792817E+03  0.7957747E-01  0.3454292E+00
         13   -1    0    0    0    0  0.00000000000E+00  0.00000000000E+00  0.14999999963E+04  0.15000000000E+04  0.10566000000E+00 0. -1.
        994   -1    0    0    0    0 -0.00000000000E+00 -0.00000000000E+00  0.11368683772E-12  0.17120000000E+03  0.17120000000E+03 0.  0.
         13    1    1    2    0    0 -0.10822733873E+02  0.29334022004E+02  0.10468340970E+03  0.10925311825E+03  0.10566000000E+00 0. -1.
        994    1    1    2    0    0  0.71732819265E+01 -0.22426703379E+02  0.63561346395E+01  0.17292846338E+03  0.17120000000E+03 0.  0.
        998    1    1    2    0    0  0.36494519469E+01 -0.69073186250E+01  0.13889604519E+04  0.13890184184E+04  0.10000000000E+02 0. -1.
</event>
<event>
 5    1  0.1520352E-008  0.3784658E+03  0.7957747E-01  0.3457866E+00
         13   -1    0    0    0    0  0.00000000000E+00  0.00000000000E+00  0.14999999963E+04  0.15000000000E+04  0.10566000000E+00 0. -1.
        994   -1    0    0    0    0 -0.00000000000E+00 -0.00000000000E+00  0.11368683772E-12  0.17120000000E+03  0.17120000000E+03 0.  0.
         13    1    1    2    0    0  0.82400459388E+01 -0.13253454650E+02  0.22541645542E+02  0.27416953970E+02  0.10566000000E+00 0. -1.
        994    1    1    2    0    0  0.14636696827E+01  0.17715165472E+02  0.59719472710E+01  0.17222390534E+03  0.17120000000E+03 0.  0.
        998    1    1    2    0    0 -0.97037156215E+01 -0.44617108215E+01  0.14714864035E+04  0.14715591407E+04  0.10000000000E+02 0. -1.
</event>
<event>
 5    1  0.1520352E-008  0.3803409E+03  0.7957747E-01  0.3449676E+00
         13   -1    0    0    0    0  0.00000000000E+00  0.00000000000E+00  0.14999999963E+04  0.15000000000E+04  0.10566000000E+00 0. -1.
        994   -1    0    0    0    0 -0.00000000000E+00 -0.00000000000E+00  0.11368683772E-12  0.17120000000E+03  0.17120000000E+03 0.  0.
         13    1    1    2    0    0 -0.12848633587E+02  0.91769588858E+01  0.30880727624E+02  0.34683345601E+02  0.10566000000E+00 0. -1.
        994    1    1    2    0    0  0.13113033975E+01  0.80613003807E+00  0.39690936302E+01  0.17125292134E+03  0.17120000000E+03 0.  0.
        998    1    1    2    0    0  0.11537330190E+02 -0.99830889239E+01  0.14651501750E+04  0.14652637331E+04  0.10000000000E+02 0. -1.
</event>
<event>
 5    1  0.1520352E-008  0.3809582E+03  0.7957747E-01  0.3446997E+00
         13   -1    0    0    0    0  0.00000000000E+00  0.00000000000E+00  0.14999999963E+04  0.15000000000E+04  0.10566000000E+00 0.  1.
        994   -1    0    0    0    0 -0.00000000000E+00 -0.00000000000E+00  0.11368683772E-12  0.17120000000E+03  0.17120000000E+03 0.  0.
         13    1    1    2    0    0 -0.51288642473E+02 -0.38267469858E+01  0.29618529194E+03  0.30061754300E+03  0.10566000000E+00 0.  1.
        994    1    1    2    0    0  0.49890742818E+02  0.55500901009E+01  0.12093440655E+02  0.17881717207E+03  0.17120000000E+03 0.  0.
        998    1    1    2    0    0  0.13978996557E+01 -0.17233431152E+01  0.11917212637E+04  0.11917652849E+04  0.10000000000E+02 0.  1.
</event>
<event>
 5    1  0.1520352E-008  0.3818840E+03  0.7957747E-01  0.3442996E+00
         13   -1    0    0    0    0  0.00000000000E+00  0.00000000000E+00  0.14999999963E+04  0.15000000000E+04  0.10566000000E+00 0.  1.
        994   -1    0    0    0    0 -0.00000000000E+00 -0.00000000000E+00  0.11368683772E-12  0.17120000000E+03  0.17120000000E+03 0.  0.
         13    1    1    2    0    0  0.67517271855E+01 -0.10892642059E+02  0.23820836986E+02  0.27049563947E+02  0.10566000000E+00 0.  1.
        994    1    1    2    0    0 -0.13944351236E+02  0.13336735492E+02  0.44229987515E+01  0.17234069851E+03  0.17120000000E+03 0.  0.
        998    1    1    2    0    0  0.71926240509E+01 -0.24440934335E+01  0.14717561605E+04  0.14718097375E+04  0.10000000000E+02 0.  1.
</event>
<event>
 5    1  0.1520352E-008  0.3856776E+03  0.7957747E-01  0.3426804E+00
         13   -1    0    0    0    0  0.00000000000E+00  0.00000000000E+00  0.14999999963E+04  0.15000000000E+04  0.10566000000E+00 0. -1.
        994   -1    0    0    0    0 -0.00000000000E+00 -0.00000000000E+00  0.11368683772E-12  0.17120000000E+03  0.17120000000E+03 0.  0.
         13    1    1    2    0    0  0.56858235703E+01 -0.10249675533E+02  0.55458050654E+02  0.56683251358E+02  0.10566000000E+00 0. -1.
        994    1    1    2    0    0 -0.70802261657E+01 -0.12873148944E+01  0.14640682516E+01  0.17135743427E+03  0.17120000000E+03 0.  0.
        998    1    1    2    0    0  0.13944025955E+01  0.11536990427E+02  0.14430778774E+04  0.14431593144E+04  0.10000000000E+02 0. -1.
</event>
<event>
 5    1  0.1520352E-008  0.3719405E+03  0.7957747E-01  0.3487020E+00
         13   -1    0    0    0    0  0.00000000000E+00  0.00000000000E+00  0.14999999963E+04  0.15000000000E+04  0.10566000000E+00 0.  1.
        994   -1    0    0    0    0 -0.00000000000E+00 -0.00000000000E+00  0.11368683772E-12  0.17120000000E+03  0.17120000000E+03 0.  0.
         13    1    1    2    0    0 -0.79251292328E+00 -0.40726276009E+02  0.11701703200E+03  0.12390421533E+03  0.10566000000E+00 0.  1.
        994    1    1    2    0    0 -0.26264190135E+01 -0.17772730486E+02  0.93676837146E+01  0.17239478392E+03  0.17120000000E+03 0.  0.
        998    1    1    2    0    0  0.34189319368E+01  0.58499006495E+02  0.13736152806E+04  0.13749010008E+04  0.10000000000E+02 0.  1.
</event>
<event>
 5    1  0.1520352E-008  0.3830150E+03  0.7957747E-01  0.3438135E+00
         13   -1    0    0    0    0  0.00000000000E+00  0.00000000000E+00  0.14999999963E+04  0.15000000000E+04  0.10566000000E+00 0.  1.
        994   -1    0    0    0    0 -0.00000000000E+00 -0.00000000000E+00  0.11368683772E-12  0.17120000000E+03  0.17120000000E+03 0.  0.
         13    1    1    2    0    0 -0.62066454965E+01  0.11448844345E+02  0.31171906541E+02  0.33783093502E+02  0.10566000000E+00 0.  1.
        994    1    1    2    0    0  0.50845340325E+01 -0.10629045356E+02  0.30785455461E+01  0.17163259170E+03  0.17120000000E+03 0.  0.
        998    1    1    2    0    0  0.11221114640E+01 -0.81979898893E+00  0.14657495442E+04  0.14657843148E+04  0.10000000000E+02 0.  1.
</event>
<event>
 5    1  0.1520352E-008  0.3850161E+03  0.7957747E-01  0.3429604E+00
         13   -1    0    0    0    0  0.00000000000E+00  0.00000000000E+00  0.14999999963E+04  0.15000000000E+04  0.10566000000E+00 0. -1.
        994   -1    0    0    0    0 -0.00000000000E+00 -0.00000000000E+00  0.11368683772E-12  0.17120000000E+03  0.17120000000E+03 0.  0.
         13    1    1    2    0    0  0.70051994266E+00  0.13701768365E+02  0.59765739652E+02  0.61320339078E+02  0.10566000000E+00 0. -1.
        994    1    1    2    0    0 -0.16040343301E+02 -0.37186535137E+01  0.25142383097E+01  0.17200837884E+03  0.17120000000E+03 0.  0.
        998    1    1    2    0    0  0.15339823359E+02 -0.99831148513E+01  0.14377200183E+04  0.14378712821E+04  0.10000000000E+02 0. -1.
</event>
<event>
 5    1  0.1520352E-008  0.3840826E+03  0.7957747E-01  0.3433572E+00
         13   -1    0    0    0    0  0.00000000000E+00  0.00000000000E+00  0.14999999963E+04  0.15000000000E+04  0.10566000000E+00 0. -1.
        994   -1    0    0    0    0 -0.00000000000E+00 -0.00000000000E+00  0.11368683772E-12  0.17120000000E+03  0.17120000000E+03 0.  0.
         13    1    1    2    0    0 -0.10782787817E+02  0.42870012277E+00  0.27202676880E+02  0.29265151467E+02  0.10566000000E+00 0. -1.
        994    1    1    2    0    0  0.90310632860E+01  0.11282719137E+02  0.27754989504E+01  0.17183132209E+03  0.17120000000E+03 0.  0.
        998    1    1    2    0    0  0.17517245313E+01 -0.11711419260E+02  0.14700218204E+04  0.14701035264E+04  0.10000000000E+02 0. -1.
</event>
<event>
 5    1  0.1520352E-008  0.3871340E+03  0.7957747E-01  0.3420672E+00
         13   -1    0    0    0    0  0.00000000000E+00  0.00000000000E+00  0.14999999963E+04  0.15000000000E+04  0.10566000000E+00 0. -1.
        994   -1    0    0    0    0 -0.00000000000E+00 -0.00000000000E+00  0.11368683772E-12  0.17120000000E+03  0.17120000000E+03 0.  0.
         13    1    1    2    0    0  0.26841679350E+02 -0.65042028427E+00  0.89659700515E+01  0.28307217805E+02  0.10566000000E+00 0. -1.
        994    1    1    2    0    0 -0.26624727619E+02  0.28027691287E+01  0.22973831175E+02  0.17479693520E+03  0.17120000000E+03 0.  0.
        998    1    1    2    0    0 -0.21695173107E+00 -0.21523488444E+01  0.14680601951E+04  0.14680958470E+04  0.10000000000E+02 0. -1.
</event>
<event>
 5    1  0.1520352E-008  0.3810878E+03  0.7957747E-01  0.3446436E+00
         13   -1    0    0    0    0  0.00000000000E+00  0.00000000000E+00  0.14999999963E+04  0.15000000000E+04  0.10566000000E+00 0. -1.
        994   -1    0    0    0    0 -0.00000000000E+00 -0.00000000000E+00  0.11368683772E-12  0.17120000000E+03  0.17120000000E+03 0.  0.
         13    1    1    2    0    0 -0.22784774373E+02 -0.16828747139E+02  0.10255197176E+03  0.10639206150E+03  0.10566000000E+00 0. -1.
        994    1    1    2    0    0  0.25595618270E+02  0.17742637341E+02  0.68225836781E+01  0.17414340212E+03  0.17120000000E+03 0.  0.
        998    1    1    2    0    0 -0.28108438967E+01 -0.91389020180E+00  0.13906254408E+04  0.13906645364E+04  0.10000000000E+02 0. -1.
</event>
<event>
 5    1  0.1520352E-008  0.3687102E+03  0.7957747E-01  0.3501840E+00
         13   -1    0    0    0    0  0.00000000000E+00  0.00000000000E+00  0.14999999963E+04  0.15000000000E+04  0.10566000000E+00 0.  1.
        994   -1    0    0    0    0 -0.00000000000E+00 -0.00000000000E+00  0.11368683772E-12  0.17120000000E+03  0.17120000000E+03 0.  0.
         13    1    1    2    0    0  0.36010001029E+02 -0.23932908561E+02  0.10371828442E+03  0.11236991579E+03  0.10566000000E+00 0.  1.
        994    1    1    2    0    0 -0.62351545515E+02 -0.10450847075E+03  0.63297627129E+02  0.21937585393E+03  0.17120000000E+03 0.  0.
        998    1    1    2    0    0  0.26341544486E+02  0.12844137932E+03  0.13329840847E+04  0.13394542303E+04  0.10000000000E+02 0.  1.
</event>
<event>
 5    1  0.1520352E-008  0.3818640E+03  0.7957747E-01  0.3443082E+00
         13   -1    0    0    0    0  0.00000000000E+00  0.00000000000E+00  0.14999999963E+04  0.15000000000E+04  0.10566000000E+00 0. -1.
        994   -1    0    0    0    0 -0.00000000000E+00 -0.00000000000E+00  0.11368683772E-12  0.17120000000E+03  0.17120000000E+03 0.  0.
         13    1    1    2    0    0 -0.34211746562E+02 -0.92034904091E+01  0.18808764358E+03  0.19139519500E+03  0.10566000000E+00 0. -1.
        994    1    1    2    0    0  0.23383109909E+02  0.10831169265E+02  0.54046786835E+01  0.17321297471E+03  0.17120000000E+03 0.  0.
        998    1    1    2    0    0  0.10828636653E+02 -0.16276788559E+01  0.13065076740E+04  0.13065918303E+04  0.10000000000E+02 0. -1.
</event>
<event>
 5    1  0.1520352E-008  0.3844698E+03  0.7957747E-01  0.3431924E+00
         13   -1    0    0    0    0  0.00000000000E+00  0.00000000000E+00  0.14999999963E+04  0.15000000000E+04  0.10566000000E+00 0.  1.
        994   -1    0    0    0    0 -0.00000000000E+00 -0.00000000000E+00  0.11368683772E-12  0.17120000000E+03  0.17120000000E+03 0.  0.
         13    1    1    2    0    0  0.17343606981E+01 -0.19880545502E+02  0.10643452862E+03  0.10828926144E+03  0.10566000000E+00 0.  1.
        994    1    1    2    0    0 -0.14245263342E+02  0.97551976951E+01  0.28762412620E+01  0.17209242916E+03  0.17120000000E+03 0.  0.
        998    1    1    2    0    0  0.12510902644E+02  0.10125347807E+02  0.13906892264E+04  0.13908183094E+04  0.10000000000E+02 0.  1.
</event>
<event>
 5    1  0.1520352E-008  0.3744545E+03  0.7957747E-01  0.3475666E+00
         13   -1    0    0    0    0  0.00000000000E+00  0.00000000000E+00  0.14999999963E+04  0.15000000000E+04  0.10566000000E+00 0. -1.
        994   -1    0    0    0    0 -0.00000000000E+00 -0.00000000000E+00  0.11368683772E-12  0.17120000000E+03  0.17120000000E+03 0.  0.
         13    1    1    2    0    0 -0.44229869403E+02 -0.25916767729E+02  0.22605016450E+03  0.23179009520E+03  0.10566000000E+00 0. -1.
        994    1    1    2    0    0  0.15821212190E+01 -0.27610481880E+01  0.69936248438E+01  0.17137233523E+03  0.17120000000E+03 0.  0.
        998    1    1    2    0    0  0.42647748184E+02  0.28677815917E+02  0.12669562069E+04  0.12680375696E+04  0.10000000000E+02 0. -1.
</event>
<event>
 5    1  0.1520352E-008  0.3810130E+03  0.7957747E-01  0.3446760E+00
         13   -1    0    0    0    0  0.00000000000E+00  0.00000000000E+00  0.14999999963E+04  0.15000000000E+04  0.10566000000E+00 0. -1.
        994   -1    0    0    0    0 -0.00000000000E+00 -0.00000000000E+00  0.11368683772E-12  0.17120000000E+03  0.17120000000E+03 0.  0.
         13    1    1    2    0    0 -0.11097998564E+02 -0.13114216463E+02  0.38325386331E+02  0.41999936274E+02  0.10566000000E+00 0. -1.
        994    1    1    2    0    0  0.11407596713E+02  0.15497533585E+02  0.48574230033E+01  0.17234657342E+03  0.17120000000E+03 0.  0.
        998    1    1    2    0    0 -0.30959814880E+00 -0.23833171214E+01  0.14568171869E+04  0.14568534903E+04  0.10000000000E+02 0. -1.
</event>
<event>
 5    1  0.1520352E-008  0.3802826E+03  0.7957747E-01  0.3449929E+00
         13   -1    0    0    0    0  0.00000000000E+00  0.00000000000E+00  0.14999999963E+04  0.15000000000E+04  0.10566000000E+00 0.  1.
        994   -1    0    0    0    0 -0.00000000000E+00 -0.00000000000E+00  0.11368683772E-12  0.17120000000E+03  0.17120000000E+03 0.  0.
         13    1    1    2    0    0  0.14681666391E+02  0.16158242001E+01  0.25826136277E+02  0.29751683900E+02  0.10566000000E+00 0.  1.
        994    1    1    2    0    0 -0.89770635669E+01  0.10974285891E+00  0.42597909697E+01  0.17148814983E+03  0.17120000000E+03 0.  0.
        998    1    1    2    0    0 -0.57046028242E+01 -0.17255670590E+01  0.14699140690E+04  0.14699601663E+04  0.10000000000E+02 0.  1.
</event>
<event>
 5    1  0.1520352E-008  0.3788229E+03  0.7957747E-01  0.3456300E+00
         13   -1    0    0    0    0  0.00000000000E+00  0.00000000000E+00  0.14999999963E+04  0.15000000000E+04  0.10566000000E+00 0.  1.
        994   -1    0    0    0    0 -0.00000000000E+00 -0.00000000000E+00  0.11368683772E-12  0.17120000000E+03  0.17120000000E+03 0.  0.
         13    1    1    2    0    0 -0.45842021762E+02  0.72712979147E+01  0.22334913621E+03  0.22812104362E+03  0.10566000000E+00 0.  1.
        994    1    1    2    0    0  0.28779315259E+02  0.29507177072E+00  0.75134033052E+01  0.17376486205E+03  0.17120000000E+03 0.  0.
        998    1    1    2    0    0  0.17062706503E+02 -0.75663696855E+01  0.12691374568E+04  0.12693140943E+04  0.10000000000E+02 0.  1.
</event>
<event>
 5    1  0.1520352E-008  0.4560792E+03  0.7957747E-01  0.3174776E+00
         13   -1    0    0    0    0  0.00000000000E+00  0.00000000000E+00  0.14999999963E+04  0.15000000000E+04  0.10566000000E+00 0. -1.
        994   -1    0    0    0    0 -0.00000000000E+00 -0.00000000000E+00  0.11368683772E-12  0.17120000000E+03  0.17120000000E+03 0.  0.
         13    1    1    2    0    0 -0.50120243991E+02 -0.61830300622E+01 -0.98298576650E+01  0.51448090190E+02  0.10566000000E+00 0. -1.
        994    1    1    2    0    0 -0.80699833693E+02 -0.18593536269E+03  0.36336073419E+03  0.44991653160E+03  0.17120000000E+03 0.  0.
        998    1    1    2    0    0  0.13082007768E+03  0.19211839275E+03  0.11464691198E+04  0.11698353782E+04  0.10000000000E+02 0. -1.
</event>
<event>
 5    1  0.1520352E-008  0.3784797E+03  0.7957747E-01  0.3457805E+00
         13   -1    0    0    0    0  0.00000000000E+00  0.00000000000E+00  0.14999999963E+04  0.15000000000E+04  0.10566000000E+00 0. -1.
        994   -1    0    0    0    0 -0.00000000000E+00 -0.00000000000E+00  0.11368683772E-12  0.17120000000E+03  0.17120000000E+03 0.  0.
         13    1    1    2    0    0 -0.64454253791E+02  0.29152490250E+02  0.39669560122E+03  0.40295363221E+03  0.10566000000E+00 0. -1.
        994    1    1    2    0    0  0.54847276773E+02 -0.38159152751E+02  0.20051306658E+02  0.18486708633E+03  0.17120000000E+03 0.  0.
        998    1    1    2    0    0  0.96069770176E+01  0.90066625008E+01  0.10832530884E+04  0.10833792815E+04  0.10000000000E+02 0. -1.
</event>
<event>
 5    1  0.1520352E-008  0.3770607E+03  0.7957747E-01  0.3464058E+00
         13   -1    0    0    0    0  0.00000000000E+00  0.00000000000E+00  0.14999999963E+04  0.15000000000E+04  0.10566000000E+00 0.  1.
        994   -1    0    0    0    0 -0.00000000000E+00 -0.00000000000E+00  0.11368683772E-12  0.17120000000E+03  0.17120000000E+03 0.  0.
         13    1    1    2    0    0  0.31796474960E+02 -0.32924109301E+02  0.16340958948E+03  0.16969890363E+03  0.10566000000E+00 0.  1.
        994    1    1    2    0    0 -0.32172891137E+02  0.35494804839E+02  0.13411092976E+02  0.17828144466E+03  0.17120000000E+03 0.  0.
        998    1    1    2    0    0  0.37641617666E+00 -0.25706955384E+01  0.13231793138E+04  0.13232196517E+04  0.10000000000E+02 0.  1.
</event>
<event>
 5    1  0.1520352E-008  0.3829805E+03  0.7957747E-01  0.3438282E+00
         13   -1    0    0    0    0  0.00000000000E+00  0.00000000000E+00  0.14999999963E+04  0.15000000000E+04  0.10566000000E+00 0. -1.
        994   -1    0    0    0    0 -0.00000000000E+00 -0.00000000000E+00  0.11368683772E-12  0.17120000000E+03  0.17120000000E+03 0.  0.
         13    1    1    2    0    0 -0.63069149208E+01  0.14700604750E+02  0.47310610908E+02  0.49941866449E+02  0.10566000000E+00 0. -1.
        994    1    1    2    0    0  0.44733429397E+01 -0.11798306608E+02  0.31633088725E+01  0.17169349830E+03  0.17120000000E+03 0.  0.
        998    1    1    2    0    0  0.18335719811E+01 -0.29022981416E+01  0.14495260765E+04  0.14495646353E+04  0.10000000000E+02 0. -1.
</event>
<event>
 5    1  0.2529992E-008  0.3859726E+03  0.7957747E-01  0.3425558E+00
         13   -1    0    0    0    0  0.00000000000E+00  0.00000000000E+00  0.14999999963E+04  0.15000000000E+04  0.10566000000E+00 0.  1.
        994   -1    0    0    0    0 -0.00000000000E+00 -0.00000000000E+00  0.11368683772E-12  0.17120000000E+03  0.17120000000E+03 0.  0.
         13    1    1    2    0    0 -0.62900370432E+01  0.98753572176E+01  0.61754708669E+02  0.62854931811E+02  0.10566000000E+00 0.  1.
        994    1    1    2    0    0  0.76198016211E+00 -0.51727414277E+01  0.12376353306E+01  0.17128429469E+03  0.17120000000E+03 0.  0.
        998    1    1    2    0    0  0.55280568811E+01 -0.47026157899E+01  0.14370076523E+04  0.14370607735E+04  0.10000000000E+02 0.  1.
</event>
<event>
 5    1  0.1520352E-008  0.3811101E+03  0.7957747E-01  0.3446339E+00
         13   -1    0    0    0    0  0.00000000000E+00  0.00000000000E+00  0.14999999963E+04  0.15000000000E+04  0.10566000000E+00 0. -1.
        994   -1    0    0    0    0 -0.00000000000E+00 -0.00000000000E+00  0.11368683772E-12  0.17120000000E+03  0.17120000000E+03 0.  0.
         13    1    1    2    0    0  0.99774779642E+01  0.75183269146E+01  0.20446690276E+02  0.23961502737E+02  0.10566000000E+00 0. -1.
        994    1    1    2    0    0 -0.45176293544E+01 -0.67348297186E+01  0.37929292794E+01  0.17143393252E+03  0.17120000000E+03 0.  0.
        998    1    1    2    0    0 -0.54598486098E+01 -0.78349719602E+00  0.14757603767E+04  0.14758045647E+04  0.10000000000E+02 0. -1.
</event>
<event>
 5    1  0.1520352E-008  0.3839483E+03  0.7957747E-01  0.3434145E+00
         13   -1    0    0    0    0  0.00000000000E+00  0.00000000000E+00  0.14999999963E+04  0.15000000000E+04  0.10566000000E+00 0.  1.
        994   -1    0    0    0    0 -0.00000000000E+00 -0.00000000000E+00  0.11368683772E-12  0.17120000000E+03  0.17120000000E+03 0.  0.
         13    1    1    2    0    0  0.92317460530E+01  0.82958441760E+01  0.34027604477E+02  0.36220645995E+02  0.10566000000E+00 0.  1.
        994    1    1    2    0    0 -0.44511583132E+01 -0.20028694203E+02  0.35435730259E+01  0.17246146906E+03  0.17120000000E+03 0.  0.
        998    1    1    2    0    0 -0.47805877398E+01  0.11732850027E+02  0.14624288188E+04  0.14625178849E+04  0.10000000000E+02 0.  1.
</event>
<event>
 5    1  0.1520352E-008  0.3710958E+03  0.7957747E-01  0.3490870E+00
         13   -1    0    0    0    0  0.00000000000E+00  0.00000000000E+00  0.14999999963E+04  0.15000000000E+04  0.10566000000E+00 0.  1.
        994   -1    0    0    0    0 -0.00000000000E+00 -0.00000000000E+00  0.11368683772E-12  0.17120000000E+03  0.17120000000E+03 0.  0.
         13    1    1    2    0    0 -0.10548979223E+02 -0.74502547377E+01  0.55964298985E+01  0.14075455586E+02  0.10566000000E+00 0.  1.
        994    1    1    2    0    0  0.48741488688E+01  0.11003079036E+02  0.91964473942E+01  0.17186866998E+03  0.17120000000E+03 0.  0.
        998    1    1    2    0    0  0.56748303538E+01 -0.35528242980E+01  0.14852071190E+04  0.14852558744E+04  0.10000000000E+02 0.  1.
</event>
<event>
 5    1  0.1520352E-008  0.3695119E+03  0.7957747E-01  0.3498137E+00
         13   -1    0    0    0    0  0.00000000000E+00  0.00000000000E+00  0.14999999963E+04  0.15000000000E+04  0.10566000000E+00 0.  1.
        994   -1    0    0    0    0 -0.00000000000E+00 -0.00000000000E+00  0.11368683772E-12  0.17120000000E+03  0.17120000000E+03 0.  0.
         13    1    1    2    0    0  0.72054492830E+00  0.44749881084E+02  0.86914498018E+02  0.97760995145E+02  0.10566000000E+00 0.  1.
        994    1    1    2    0    0 -0.12887687227E+02 -0.38797265705E+02  0.16536610531E+02  0.17678863028E+03  0.17120000000E+03 0.  0.
        998    1    1    2    0    0  0.12167142299E+02 -0.59526153793E+01  0.13965488877E+04  0.13966503746E+04  0.10000000000E+02 0.  1.
</event>
<event>
 5    1  0.1520352E-008  0.3862126E+03  0.7957747E-01  0.3424546E+00
         13   -1    0    0    0    0  0.00000000000E+00  0.00000000000E+00  0.14999999963E+04  0.15000000000E+04  0.10566000000E+00 0.  1.
        994   -1    0    0    0    0 -0.00000000000E+00 -0.00000000000E+00  0.11368683772E-12  0.17120000000E+03  0.17120000000E+03 0.  0.
         13    1    1    2    0    0 -0.82986720601E+01  0.72290023911E+01  0.62414165856E+02  0.63377170156E+02  0.10566000000E+00 0.  1.
        994    1    1    2    0    0  0.79464687843E+01  0.61349443095E+01  0.13595106207E+01  0.17149948156E+03  0.17120000000E+03 0.  0.
        998    1    1    2    0    0  0.35220327584E+00 -0.13363946701E+02  0.14362263198E+04  0.14363233483E+04  0.10000000000E+02 0.  1.
</event>
<event>
 5    1  0.1520352E-008  0.3771957E+03  0.7957747E-01  0.3463460E+00
         13   -1    0    0    0    0  0.00000000000E+00  0.00000000000E+00  0.14999999963E+04  0.15000000000E+04  0.10566000000E+00 0. -1.
        994   -1    0    0    0    0 -0.00000000000E+00 -0.00000000000E+00  0.11368683772E-12  0.17120000000E+03  0.17120000000E+03 0.  0.
         13    1    1    2    0    0 -0.17952938055E+02 -0.51138109005E+01  0.28679956393E+02  0.34220024977E+02  0.10566000000E+00 0. -1.
        994    1    1    2    0    0  0.18730720461E+02 -0.96870356198E+00  0.67433310496E+01  0.17235629025E+03  0.17120000000E+03 0.  0.
        998    1    1    2    0    0 -0.77778240647E+00  0.60825144625E+01  0.14645767088E+04  0.14646236848E+04  0.10000000000E+02 0. -1.
</event>
<event>
 5    1  0.1520352E-008  0.3795697E+03  0.7957747E-01  0.3453034E+00
         13   -1    0    0    0    0  0.00000000000E+00  0.00000000000E+00  0.14999999963E+04  0.15000000000E+04  0.10566000000E+00 0. -1.
        994   -1    0    0    0    0 -0.00000000000E+00 -0.00000000000E+00  0.11368683772E-12  0.17120000000E+03  0.17120000000E+03 0.  0.
         13    1    1    2    0    0 -0.37697701177E+02 -0.28662587747E+01  0.15000865704E+03  0.15469951669E+03  0.10566000000E+00 0. -1.
        994    1    1    2    0    0  0.35606760428E+02  0.73774670023E+00  0.86083739850E+01  0.17507692527E+03  0.17120000000E+03 0.  0.
        998    1    1    2    0    0  0.20909407500E+01  0.21285120745E+01  0.13413829653E+04  0.13414235580E+04  0.10000000000E+02 0. -1.
</event>
<event>
 5    1  0.1520352E-008  0.3854192E+03  0.7957747E-01  0.3427896E+00
         13   -1    0    0    0    0  0.00000000000E+00  0.00000000000E+00  0.14999999963E+04  0.15000000000E+04  0.10566000000E+00 0. -1.
        994   -1    0    0    0    0 -0.00000000000E+00 -0.00000000000E+00  0.11368683772E-12  0.17120000000E+03  0.17120000000E+03 0.  0.
         13    1    1    2    0    0  0.50434239392E+00 -0.15320816161E+02  0.81969901306E+02  0.83390992638E+02  0.10566000000E+00 0. -1.
        994    1    1    2    0    0 -0.28095961967E+02  0.11879458572E+02  0.44840662525E+01  0.17395416484E+03  0.17120000000E+03 0.  0.
        998    1    1    2    0    0  0.27591619573E+02  0.34413575892E+01  0.14135460287E+04  0.14138548425E+04  0.10000000000E+02 0. -1.
</event>
<event>
 5    1  0.1520352E-008  0.3795894E+03  0.7957747E-01  0.3452948E+00
         13   -1    0    0    0    0  0.00000000000E+00  0.00000000000E+00  0.14999999963E+04  0.15000000000E+04  0.10566000000E+00 0. -1.
        994   -1    0    0    0    0 -0.00000000000E+00 -0.00000000000E+00  0.11368683772E-12  0.17120000000E+03  0.17120000000E+03 0.  0.
         13    1    1    2    0    0  0.15095795040E+02  0.30614535073E+01  0.25634734639E+02  0.29906626515E+02  0.10566000000E+00 0. -1.
        994    1    1    2    0    0 -0.91131768268E+01 -0.34620456763E+01  0.46587453520E+01  0.17154060645E+03  0.17120000000E+03 0.  0.
        998    1    1    2    0    0 -0.59826182137E+01  0.40059216901E+00  0.14697065163E+04  0.14697527670E+04  0.10000000000E+02 0. -1.
</event>
<event>
 5    1  0.1520352E-008  0.3824018E+03  0.7957747E-01  0.3440767E+00
         13   -1    0    0    0    0  0.00000000000E+00  0.00000000000E+00  0.14999999963E+04  0.15000000000E+04  0.10566000000E+00 0. -1.
        994   -1    0    0    0    0 -0.00000000000E+00 -0.00000000000E+00  0.11368683772E-12  0.17120000000E+03  0.17120000000E+03 0.  0.
         13    1    1    2    0    0  0.13910115344E+02  0.14725378977E+02  0.80321617802E+02  0.82836595447E+02  0.10566000000E+00 0. -1.
        994    1    1    2    0    0  0.75275046706E+01  0.12385471061E+02  0.36225975936E+01  0.17185059335E+03  0.17120000000E+03 0.  0.
        998    1    1    2    0    0 -0.21437620014E+02 -0.27110850038E+02  0.14160557809E+04  0.14165128112E+04  0.10000000000E+02 0. -1.
</event>
<event>
 5    1  0.1520352E-008  0.3831189E+03  0.7957747E-01  0.3437689E+00
         13   -1    0    0    0    0  0.00000000000E+00  0.00000000000E+00  0.14999999963E+04  0.15000000000E+04  0.10566000000E+00 0.  1.
        994   -1    0    0    0    0 -0.00000000000E+00 -0.00000000000E+00  0.11368683772E-12  0.17120000000E+03  0.17120000000E+03 0.  0.
         13    1    1    2    0    0 -0.11179695242E+02  0.18240969495E+01  0.23069296516E+02  0.25700515971E+02  0.10566000000E+00 0.  1.
        994    1    1    2    0    0  0.25127079619E+02  0.23912241809E+02  0.65582161751E+01  0.17480164655E+03  0.17120000000E+03 0.  0.
        998    1    1    2    0    0 -0.13947384377E+02 -0.25736338758E+02  0.14703724836E+04  0.14706978375E+04  0.10000000000E+02 0.  1.
</event>
<event>
 5    1  0.1520352E-008  0.3715598E+03  0.7957747E-01  0.3488753E+00
         13   -1    0    0    0    0  0.00000000000E+00  0.00000000000E+00  0.14999999963E+04  0.15000000000E+04  0.10566000000E+00 0. -1.
        994   -1    0    0    0    0 -0.00000000000E+00 -0.00000000000E+00  0.11368683772E-12  0.17120000000E+03  0.17120000000E+03 0.  0.
         13    1    1    2    0    0  0.43339079422E+02  0.15877119836E+02  0.81341796811E+02  0.93524637459E+02  0.10566000000E+00 0. -1.
        994    1    1    2    0    0 -0.41169121874E+02 -0.29085870661E+02  0.20751713466E+02  0.17966902371E+03  0.17120000000E+03 0.  0.
        998    1    1    2    0    0 -0.21699575480E+01  0.13208750825E+02  0.13979064860E+04  0.13980063388E+04  0.10000000000E+02 0. -1.
</event>
<event>
 5    1  0.1520352E-008  0.3793147E+03  0.7957747E-01  0.3454148E+00
         13   -1    0    0    0    0  0.00000000000E+00  0.00000000000E+00  0.14999999963E+04  0.15000000000E+04  0.10566000000E+00 0.  1.
        994   -1    0    0    0    0 -0.00000000000E+00 -0.00000000000E+00  0.11368683772E-12  0.17120000000E+03  0.17120000000E+03 0.  0.
         13    1    1    2    0    0 -0.49407266954E+02  0.29167362632E+02  0.92258562525E+02  0.10864376003E+03  0.10566000000E+00 0.  1.
        994    1    1    2    0    0  0.14924400788E+02 -0.84075716785E+02  0.42804633306E+02  0.19604372095E+03  0.17120000000E+03 0.  0.
        998    1    1    2    0    0  0.34482866166E+02  0.54908354152E+02  0.13649368004E+04  0.13665125190E+04  0.10000000000E+02 0.  1.
</event>
<event>
 5    1  0.1520352E-008  0.3815532E+03  0.7957747E-01  0.3444423E+00
         13   -1    0    0    0    0  0.00000000000E+00  0.00000000000E+00  0.14999999963E+04  0.15000000000E+04  0.10566000000E+00 0.  1.
        994   -1    0    0    0    0 -0.00000000000E+00 -0.00000000000E+00  0.11368683772E-12  0.17120000000E+03  0.17120000000E+03 0.  0.
         13    1    1    2    0    0  0.13117278814E+02 -0.66010175529E+01  0.31465247854E+02  0.34723326782E+02  0.10566000000E+00 0.  1.
        994    1    1    2    0    0 -0.79849829171E+00  0.89568110470E+01  0.36201116263E+01  0.17147421751E+03  0.17120000000E+03 0.  0.
        998    1    1    2    0    0 -0.12318780522E+02 -0.23557934941E+01  0.14649146368E+04  0.14650024557E+04  0.10000000000E+02 0.  1.
</event>
<event>
 5    1  0.1520352E-008  0.3839876E+03  0.7957747E-01  0.3433977E+00
         13   -1    0    0    0    0  0.00000000000E+00  0.00000000000E+00  0.14999999963E+04  0.15000000000E+04  0.10566000000E+00 0.  1.
        994   -1    0    0    0    0 -0.00000000000E+00 -0.00000000000E+00  0.11368683772E-12  0.17120000000E+03  0.17120000000E+03 0.  0.
         13    1    1    2    0    0 -0.23392985397E+02 -0.18642677612E+03  0.10214613477E+04  0.10385978388E+04  0.10566000000E+00 0.  1.
        994    1    1    2    0    0  0.10004643601E+02  0.20668274366E+03  0.15923960068E+03  0.31222514288E+03  0.17120000000E+03 0.  0.
        998    1    1    2    0    0  0.13388341796E+02 -0.20255967548E+02  0.31929904789E+03  0.32037701837E+03  0.10000000000E+02 0. -1.
</event>
<event>
 5    1  0.1520352E-008  0.3847870E+03  0.7957747E-01  0.3430576E+00
         13   -1    0    0    0    0  0.00000000000E+00  0.00000000000E+00  0.14999999963E+04  0.15000000000E+04  0.10566000000E+00 0.  1.
        994   -1    0    0    0    0 -0.00000000000E+00 -0.00000000000E+00  0.11368683772E-12  0.17120000000E+03  0.17120000000E+03 0.  0.
         13    1    1    2    0    0 -0.10258489496E+02 -0.58477903585E+01  0.41406655610E+02  0.43057584136E+02  0.10566000000E+00 0.  1.
        994    1    1    2    0    0  0.45669930614E+01 -0.64319464290E+01  0.19407564240E+01  0.17139263081E+03  0.17120000000E+03 0.  0.
        998    1    1    2    0    0  0.56914964345E+01  0.12279736788E+02  0.14566525842E+04  0.14567497851E+04  0.10000000000E+02 0.  1.
</event>
<event>
 5    1  0.1520352E-008  0.3859979E+03  0.7957747E-01  0.3425451E+00
         13   -1    0    0    0    0  0.00000000000E+00  0.00000000000E+00  0.14999999963E+04  0.15000000000E+04  0.10566000000E+00 0.  1.
        994   -1    0    0    0    0 -0.00000000000E+00 -0.00000000000E+00  0.11368683772E-12  0.17120000000E+03  0.17120000000E+03 0.  0.
         13    1    1    2    0    0 -0.47349059071E+01  0.10049026865E+02  0.55739293158E+02  0.56835571966E+02  0.10566000000E+00 0.  1.
        994    1    1    2    0    0  0.34895813832E+02  0.84303696907E+01  0.53716700597E+01  0.17500595360E+03  0.17120000000E+03 0.  0.
        998    1    1    2    0    0 -0.30160907924E+02 -0.18479396555E+02  0.14388890331E+04  0.14393584744E+04  0.10000000000E+02 0.  1.
</event>
<event>
 5    1  0.1520352E-008  0.3849505E+03  0.7957747E-01  0.3429882E+00
         13   -1    0    0    0    0  0.00000000000E+00  0.00000000000E+00  0.14999999963E+04  0.15000000000E+04  0.10566000000E+00 0.  1.
        994   -1    0    0    0    0 -0.00000000000E+00 -0.00000000000E+00  0.11368683772E-12  0.17120000000E+03  0.17120000000E+03 0.  0.
         13    1    1    2    0    0  0.80101623042E+01  0.18226496796E+02  0.11483084130E+03  0.11654398810E+03  0.10566000000E+00 0.  1.
        994    1    1    2    0    0 -0.11708347578E+02 -0.14135624748E+02  0.27636175092E+01  0.17220330680E+03  0.17120000000E+03 0.  0.
        998    1    1    2    0    0  0.36981852736E+01 -0.40908720477E+01  0.13824055375E+04  0.13824527051E+04  0.10000000000E+02 0.  1.
</event>
<event>
 5    1  0.1520352E-008  0.3687325E+03  0.7957747E-01  0.3501736E+00
         13   -1    0    0    0    0  0.00000000000E+00  0.00000000000E+00  0.14999999963E+04  0.15000000000E+04  0.10566000000E+00 0. -1.
        994   -1    0    0    0    0 -0.00000000000E+00 -0.00000000000E+00  0.11368683772E-12  0.17120000000E+03  0.17120000000E+03 0.  0.
         13    1    1    2    0    0  0.49348061526E+01 -0.37419256114E+02  0.69576460076E+02  0.79154582941E+02  0.10566000000E+00 0. -1.
        994    1    1    2    0    0  0.15840946639E+02  0.78310810511E+01  0.11357723971E+02  0.17248391031E+03  0.17120000000E+03 0.  0.
        998    1    1    2    0    0 -0.20775752792E+02  0.29588175063E+02  0.14190658122E+04  0.14195615068E+04  0.10000000000E+02 0. -1.
</event>
<event>
 5    1  0.1520352E-008  0.3819359E+03  0.7957747E-01  0.3442772E+00
         13   -1    0    0    0    0  0.00000000000E+00  0.00000000000E+00  0.14999999963E+04  0.15000000000E+04  0.10566000000E+00 0.  1.
        994   -1    0    0    0    0 -0.00000000000E+00 -0.00000000000E+00  0.11368683772E-12  0.17120000000E+03  0.17120000000E+03 0.  0.
         13    1    1    2    0    0  0.14730668048E+02  0.74882012759E+00  0.31672760632E+02  0.34938921604E+02  0.10566000000E+00 0.  1.
        994    1    1    2    0    0 -0.23439948562E+02 -0.18627971676E+02  0.61424696853E+01  0.17390687868E+03  0.17120000000E+03 0.  0.
        998    1    1    2    0    0  0.87092805137E+01  0.17879151549E+02  0.14621847660E+04  0.14623541997E+04  0.10000000000E+02 0.  1.
</event>
<event>
 5    1  0.1520352E-008  0.3716387E+03  0.7957747E-01  0.3488393E+00
         13   -1    0    0    0    0  0.00000000000E+00  0.00000000000E+00  0.14999999963E+04  0.15000000000E+04  0.10566000000E+00 0. -1.
        994   -1    0    0    0    0 -0.00000000000E+00 -0.00000000000E+00  0.11368683772E-12  0.17120000000E+03  0.17120000000E+03 0.  0.
         13    1    1    2    0    0 -0.13697192632E+02 -0.16663287636E+02  0.23594628322E+02  0.31968670453E+02  0.10566000000E+00 0. -1.
        994    1    1    2    0    0  0.18879375365E+02  0.15412633037E+02  0.10459954443E+02  0.17324211589E+03  0.17120000000E+03 0.  0.
        998    1    1    2    0    0 -0.51821827331E+01  0.12506545994E+01  0.14659454135E+04  0.14659892137E+04  0.10000000000E+02 0. -1.
</event>
<event>
 5    1  0.1520352E-008  0.3808755E+03  0.7957747E-01  0.3447355E+00
         13   -1    0    0    0    0  0.00000000000E+00  0.00000000000E+00  0.14999999963E+04  0.15000000000E+04  0.10566000000E+00 0.  1.
        994   -1    0    0    0    0 -0.00000000000E+00 -0.00000000000E+00  0.11368683772E-12  0.17120000000E+03  0.17120000000E+03 0.  0.
         13    1    1    2    0    0  0.15171054150E+02  0.10736510890E+01  0.28448938003E+02  0.32259368379E+02  0.10566000000E+00 0.  1.
        994    1    1    2    0    0 -0.27483074797E+02  0.19290257809E+02  0.74589944509E+01  0.17462104697E+03  0.17120000000E+03 0.  0.
        998    1    1    2    0    0  0.12312020648E+02 -0.20363908898E+02  0.14640920638E+04  0.14643195847E+04  0.10000000000E+02 0.  1.
</event>
<event>
 5    1  0.1520352E-008  0.3779031E+03  0.7957747E-01  0.3460340E+00
         13   -1    0    0    0    0  0.00000000000E+00  0.00000000000E+00  0.14999999963E+04  0.15000000000E+04  0.10566000000E+00 0.  1.
        994   -1    0    0    0    0 -0.00000000000E+00 -0.00000000000E+00  0.11368683772E-12  0.17120000000E+03  0.17120000000E+03 0.  0.
         13    1    1    2    0    0  0.11600598935E+02 -0.43871108755E+01  0.11988759276E+02  0.17249989870E+02  0.10566000000E+00 0.  1.
        994    1    1    2    0    0 -0.23496855964E+02  0.13686285014E+02  0.76884898484E+01  0.17351648197E+03  0.17120000000E+03 0.  0.
        998    1    1    2    0    0  0.11896257029E+02 -0.92991741389E+01  0.14803227472E+04  0.14804335282E+04  0.10000000000E+02 0.  1.
</event>
<event>
 5    1  0.1520352E-008  0.3814405E+03  0.7957747E-01  0.3444910E+00
         13   -1    0    0    0    0  0.00000000000E+00  0.00000000000E+00  0.14999999963E+04  0.15000000000E+04  0.10566000000E+00 0. -1.
        994   -1    0    0    0    0 -0.00000000000E+00 -0.00000000000E+00  0.11368683772E-12  0.17120000000E+03  0.17120000000E+03 0.  0.
         13    1    1    2    0    0 -0.38701216649E+02 -0.19778948841E+02  0.20469316755E+03  0.20925652916E+03  0.10566000000E+00 0. -1.
        994    1    1    2    0    0  0.95484267920E+02 -0.29848184840E+02  0.37454788411E+02  0.20179311369E+03  0.17120000000E+03 0.  0.
        998    1    1    2    0    0 -0.56783051271E+02  0.49627133681E+02  0.12578520403E+04  0.12601503572E+04  0.10000000000E+02 0. -1.
</event>
<event>
 5    1  0.2101722E-008  0.3864147E+03  0.7957747E-01  0.3423694E+00
         13   -1    0    0    0    0  0.00000000000E+00  0.00000000000E+00  0.14999999963E+04  0.15000000000E+04  0.10566000000E+00 0.  1.
        994   -1    0    0    0    0 -0.00000000000E+00 -0.00000000000E+00  0.11368683772E-12  0.17120000000E+03  0.17120000000E+03 0.  0.
         13    1    1    2    0    0 -0.13699457202E+01 -0.10459030083E+02  0.60889524672E+02  0.61796548774E+02  0.10566000000E+00 0.  1.
        994    1    1    2    0    0  0.49924944722E+00  0.74027170912E+01  0.11095941754E+01  0.17136429228E+03  0.17120000000E+03 0.  0.
        998    1    1    2    0    0  0.87069627299E+00  0.30563129917E+01  0.14380008774E+04  0.14380391589E+04  0.10000000000E+02 0.  1.
</event>
<event>
 5    1  0.1520352E-008  0.3805637E+03  0.7957747E-01  0.3448708E+00
         13   -1    0    0    0    0  0.00000000000E+00  0.00000000000E+00  0.14999999963E+04  0.15000000000E+04  0.10566000000E+00 0. -1.
        994   -1    0    0    0    0 -0.00000000000E+00 -0.00000000000E+00  0.11368683772E-12  0.17120000000E+03  0.17120000000E+03 0.  0.
         13    1    1    2    0    0  0.25665066324E+02 -0.27056306943E+02  0.15315844536E+03  0.15763330842E+03  0.10566000000E+00 0. -1.
        994    1    1    2    0    0 -0.25517638823E+02  0.39785230591E+02  0.11339352183E+02  0.17796638832E+03  0.17120000000E+03 0.  0.
        998    1    1    2    0    0 -0.14742750088E+00 -0.12728923647E+02  0.13355021987E+04  0.13356003033E+04  0.10000000000E+02 0. -1.
</event>
<event>
 5    1  0.1520352E-008  0.3821755E+03  0.7957747E-01  0.3441740E+00
         13   -1    0    0    0    0  0.00000000000E+00  0.00000000000E+00  0.14999999963E+04  0.15000000000E+04  0.10566000000E+00 0.  1.
        994   -1    0    0    0    0 -0.00000000000E+00 -0.00000000000E+00  0.11368683772E-12  0.17120000000E+03  0.17120000000E+03 0.  0.
         13    1    1    2    0    0 -0.11821183783E+01  0.20013570196E+02  0.64995725849E+02  0.68017614913E+02  0.10566000000E+00 0.  1.
        994    1    1    2    0    0  0.53660104136E+01 -0.13059628853E+02  0.37009085462E+01  0.17182108339E+03  0.17120000000E+03 0.  0.
        998    1    1    2    0    0 -0.41838920353E+01 -0.69539413430E+01  0.14313033619E+04  0.14313613017E+04  0.10000000000E+02 0.  1.
</event>
<event>
 5    1  0.1520352E-008  0.3794312E+03  0.7957747E-01  0.3453639E+00
         13   -1    0    0    0    0  0.00000000000E+00  0.00000000000E+00  0.14999999963E+04  0.15000000000E+04  0.10566000000E+00 0. -1.
        994   -1    0    0    0    0 -0.00000000000E+00 -0.00000000000E+00  0.11368683772E-12  0.17120000000E+03  0.17120000000E+03 0.  0.
         13    1    1    2    0    0 -0.17881584973E+02 -0.23569250468E+02  0.10391306179E+03  0.10804256672E+03  0.10566000000E+00 0. -1.
        994    1    1    2    0    0 -0.45050719811E+01  0.10415593202E+02  0.48519981774E+01  0.17164428957E+03  0.17120000000E+03 0.  0.
        998    1    1    2    0    0  0.22386656954E+02  0.13153657266E+02  0.13912349363E+04  0.13915131437E+04  0.10000000000E+02 0. -1.
</event>
<event>
 5    1  0.1520352E-008  0.3782459E+03  0.7957747E-01  0.3458832E+00
         13   -1    0    0    0    0  0.00000000000E+00  0.00000000000E+00  0.14999999963E+04  0.15000000000E+04  0.10566000000E+00 0.  1.
        994   -1    0    0    0    0 -0.00000000000E+00 -0.00000000000E+00  0.11368683772E-12  0.17120000000E+03  0.17120000000E+03 0.  0.
         13    1    1    2    0    0 -0.18305920642E+02 -0.20315650296E+02  0.67060685362E+02  0.72422227685E+02  0.10566000000E+00 0.  1.
        994    1    1    2    0    0  0.23952542118E+02  0.28852027056E+02  0.97639195353E+01  0.17553044711E+03  0.17120000000E+03 0.  0.
        998    1    1    2    0    0 -0.56466214763E+01 -0.85363767599E+01  0.14231753914E+04  0.14232473252E+04  0.10000000000E+02 0.  1.
</event>
<event>
 5    1  0.1520352E-008  0.3816399E+03  0.7957747E-01  0.3444049E+00
         13   -1    0    0    0    0  0.00000000000E+00  0.00000000000E+00  0.14999999963E+04  0.15000000000E+04  0.10566000000E+00 0.  1.
        994   -1    0    0    0    0 -0.00000000000E+00 -0.00000000000E+00  0.11368683772E-12  0.17120000000E+03  0.17120000000E+03 0.  0.
         13    1    1    2    0    0 -0.11299219464E+02 -0.18253074679E+02  0.64683078222E+02  0.68152467806E+02  0.10566000000E+00 0.  1.
        994    1    1    2    0    0  0.52477936720E+01  0.27825216612E+02  0.59780226382E+01  0.17362879592E+03  0.17120000000E+03 0.  0.
        998    1    1    2    0    0  0.60514257916E+01 -0.95721419330E+01  0.14293388954E+04  0.14294187363E+04  0.10000000000E+02 0.  1.
</event>
<event>
 5    1  0.1520352E-008  0.3793970E+03  0.7957747E-01  0.3453788E+00
         13   -1    0    0    0    0  0.00000000000E+00  0.00000000000E+00  0.14999999963E+04  0.15000000000E+04  0.10566000000E+00 0.  1.
        994   -1    0    0    0    0 -0.00000000000E+00 -0.00000000000E+00  0.11368683772E-12  0.17120000000E+03  0.17120000000E+03 0.  0.
         13    1    1    2    0    0  0.30327252346E+02 -0.73225226131E-01  0.11029470213E+03  0.11438828646E+03  0.10566000000E+00 0.  1.
        994    1    1    2    0    0 -0.42131684199E+01 -0.22583489085E+02  0.62076151169E+01  0.17284599866E+03  0.17120000000E+03 0.  0.
        998    1    1    2    0    0 -0.26114083926E+02  0.22656714312E+02  0.13834976790E+04  0.13839657149E+04  0.10000000000E+02 0.  1.
</event>
<event>
 5    1  0.1520352E-008  0.3719976E+03  0.7957747E-01  0.3486760E+00
         13   -1    0    0    0    0  0.00000000000E+00  0.00000000000E+00  0.14999999963E+04  0.15000000000E+04  0.10566000000E+00 0. -1.
        994   -1    0    0    0    0 -0.00000000000E+00 -0.00000000000E+00  0.11368683772E-12  0.17120000000E+03  0.17120000000E+03 0.  0.
         13    1    1    2    0    0  0.11687049796E+01 -0.12929507475E+02  0.64731109541E+01  0.14506907470E+02  0.10566000000E+00 0. -1.
        994    1    1    2    0    0 -0.68527569164E+00  0.10450821982E+02  0.86054036271E+01  0.17173579200E+03  0.17120000000E+03 0.  0.
        998    1    1    2    0    0 -0.48342928794E+00  0.24786854934E+01  0.14849214817E+04  0.14849573005E+04  0.10000000000E+02 0. -1.
</event>
<event>
 5    1  0.1520352E-008  0.3850283E+03  0.7957747E-01  0.3429552E+00
         13   -1    0    0    0    0  0.00000000000E+00  0.00000000000E+00  0.14999999963E+04  0.15000000000E+04  0.10566000000E+00 0.  1.
        994   -1    0    0    0    0 -0.00000000000E+00 -0.00000000000E+00  0.11368683772E-12  0.17120000000E+03  0.17120000000E+03 0.  0.
         13    1    1    2    0    0  0.21954276190E+03  0.70899359019E+02  0.10559218124E+04  0.10808314524E+04  0.10566000000E+00 0.  1.
        994    1    1    2    0    0 -0.23599715387E+03 -0.98992427344E+02  0.25948949700E+03  0.40266412351E+03  0.17120000000E+03 0.  0.
        998    1    1    2    0    0  0.16454391978E+02  0.28093068325E+02  0.18458868684E+03  0.18770442406E+03  0.10000000000E+02 0.  1.
</event>
<event>
 5    1  0.1520352E-008  0.3820254E+03  0.7957747E-01  0.3442386E+00
         13   -1    0    0    0    0  0.00000000000E+00  0.00000000000E+00  0.14999999963E+04  0.15000000000E+04  0.10566000000E+00 0. -1.
        994   -1    0    0    0    0 -0.00000000000E+00 -0.00000000000E+00  0.11368683772E-12  0.17120000000E+03  0.17120000000E+03 0.  0.
         13    1    1    2    0    0  0.27737563049E+01 -0.17518536571E+02  0.49707171136E+02  0.52776954005E+02  0.10566000000E+00 0. -1.
        994    1    1    2    0    0 -0.36618303036E+00  0.10494303292E+02  0.34804310389E+01  0.17155703976E+03  0.17120000000E+03 0.  0.
        998    1    1    2    0    0 -0.24075732745E+01  0.70242332790E+01  0.14468123941E+04  0.14468660062E+04  0.10000000000E+02 0. -1.
</event>
<event>
 5    1  0.1520352E-008  0.3781919E+03  0.7957747E-01  0.3459069E+00
         13   -1    0    0    0    0  0.00000000000E+00  0.00000000000E+00  0.14999999963E+04  0.15000000000E+04  0.10566000000E+00 0. -1.
        994   -1    0    0    0    0 -0.00000000000E+00 -0.00000000000E+00  0.11368683772E-12  0.17120000000E+03  0.17120000000E+03 0.  0.
         13    1    1    2    0    0  0.16051133718E+02  0.35262656646E+02  0.15325688806E+03  0.15807839431E+03  0.10566000000E+00 0. -1.
        994    1    1    2    0    0  0.13525568592E+01 -0.17853914410E+02  0.61275608391E+01  0.17224278990E+03  0.17120000000E+03 0.  0.
        998    1    1    2    0    0 -0.17403690577E+02 -0.17408742236E+02  0.13406155474E+04  0.13408788158E+04  0.10000000000E+02 0. -1.
</event>
<event>
 5    1  0.1520352E-008  0.3833722E+03  0.7957747E-01  0.3436605E+00
         13   -1    0    0    0    0  0.00000000000E+00  0.00000000000E+00  0.14999999963E+04  0.15000000000E+04  0.10566000000E+00 0. -1.
        994   -1    0    0    0    0 -0.00000000000E+00 -0.00000000000E+00  0.11368683772E-12  0.17120000000E+03  0.17120000000E+03 0.  0.
         13    1    1    2    0    0 -0.22082939008E+02 -0.66743741798E+01  0.12926832494E+03  0.13131075532E+03  0.10566000000E+00 0. -1.
        994    1    1    2    0    0 -0.87915054006E+01 -0.11545809934E+01  0.27004514083E+01  0.17145073946E+03  0.17120000000E+03 0.  0.
        998    1    1    2    0    0  0.30874444409E+02  0.78289551732E+01  0.13680312199E+04  0.13684385052E+04  0.10000000000E+02 0. -1.
</event>
<event>
 5    1  0.1520352E-008  0.3801535E+03  0.7957747E-01  0.3450490E+00
         13   -1    0    0    0    0  0.00000000000E+00  0.00000000000E+00  0.14999999963E+04  0.15000000000E+04  0.10566000000E+00 0.  1.
        994   -1    0    0    0    0 -0.00000000000E+00 -0.00000000000E+00  0.11368683772E-12  0.17120000000E+03  0.17120000000E+03 0.  0.
         13    1    1    2    0    0 -0.58882477306E+01  0.34413308443E+02  0.16340126642E+03  0.16708959361E+03  0.10566000000E+00 0.  1.
        994    1    1    2    0    0 -0.50001602618E+00 -0.69464497852E+01  0.42177373014E+01  0.17139350189E+03  0.17120000000E+03 0.  0.
        998    1    1    2    0    0  0.63882637568E+01 -0.27466858657E+02  0.13323809926E+04  0.13327169045E+04  0.10000000000E+02 0.  1.
</event>
<event>
 5    1  0.1520352E-008  0.3849618E+03  0.7957747E-01  0.3429834E+00
         13   -1    0    0    0    0  0.00000000000E+00  0.00000000000E+00  0.14999999963E+04  0.15000000000E+04  0.10566000000E+00 0.  1.
        994   -1    0    0    0    0 -0.00000000000E+00 -0.00000000000E+00  0.11368683772E-12  0.17120000000E+03  0.17120000000E+03 0.  0.
         13    1    1    2    0    0 -0.11920759820E+02 -0.27242968623E+00  0.48068726332E+02  0.49525673623E+02  0.10566000000E+00 0.  1.
        994    1    1    2    0    0 -0.12049681416E+02 -0.24526123636E+01  0.21466074249E+01  0.17165447286E+03  0.17120000000E+03 0.  0.
        998    1    1    2    0    0  0.23970441236E+02  0.27250420498E+01  0.14497846625E+04  0.14500198535E+04  0.10000000000E+02 0.  1.
</event>
<event>
 5    1  0.1520352E-008  0.4224845E+03  0.7957747E-01  0.3284754E+00
         13   -1    0    0    0    0  0.00000000000E+00  0.00000000000E+00  0.14999999963E+04  0.15000000000E+04  0.10566000000E+00 0.  1.
        994   -1    0    0    0    0 -0.00000000000E+00 -0.00000000000E+00  0.11368683772E-12  0.17120000000E+03  0.17120000000E+03 0.  0.
         13    1    1    2    0    0 -0.86703905158E+02 -0.49708363475E+02  0.10410363165E+03  0.14431238982E+03  0.10566000000E+00 0.  1.
        994    1    1    2    0    0  0.78686069574E+02  0.36874428696E+02  0.75399534875E+02  0.20626621366E+03  0.17120000000E+03 0.  0.
        998    1    1    2    0    0  0.80178355834E+01  0.12833934779E+02  0.13204968297E+04  0.13206213965E+04  0.10000000000E+02 0.  1.
</event>
<event>
 5    1  0.1520352E-008  0.3824278E+03  0.7957747E-01  0.3440655E+00
         13   -1    0    0    0    0  0.00000000000E+00  0.00000000000E+00  0.14999999963E+04  0.15000000000E+04  0.10566000000E+00 0.  1.
        994   -1    0    0    0    0 -0.00000000000E+00 -0.00000000000E+00  0.11368683772E-12  0.17120000000E+03  0.17120000000E+03 0.  0.
         13    1    1    2    0    0  0.46308184065E+01  0.14702107948E+02  0.40866694072E+02  0.43677160000E+02  0.10566000000E+00 0.  1.
        994    1    1    2    0    0  0.82112568926E+00 -0.40821345655E+01  0.29701129580E+01  0.17127638378E+03  0.17120000000E+03 0.  0.
        998    1    1    2    0    0 -0.54519440958E+01 -0.10619973383E+02  0.14561631892E+04  0.14562464562E+04  0.10000000000E+02 0.  1.
</event>
<event>
 5    1  0.1520352E-008  0.3848731E+03  0.7957747E-01  0.3430210E+00
         13   -1    0    0    0    0  0.00000000000E+00  0.00000000000E+00  0.14999999963E+04  0.15000000000E+04  0.10566000000E+00 0. -1.
        994   -1    0    0    0    0 -0.00000000000E+00 -0.00000000000E+00  0.11368683772E-12  0.17120000000E+03  0.17120000000E+03 0.  0.
         13    1    1    2    0    0  0.12444018535E+02 -0.75111403583E+01  0.64020194544E+02  0.65649579590E+02  0.10566000000E+00 0. -1.
        994    1    1    2    0    0  0.55738438034E+01  0.20375847565E+02  0.31626513137E+01  0.17252734642E+03  0.17120000000E+03 0.  0.
        998    1    1    2    0    0 -0.18017862338E+02 -0.12864707207E+02  0.14328171504E+04  0.14330230740E+04  0.10000000000E+02 0. -1.
</event>
<event>
 5    1  0.1520352E-008  0.3829698E+03  0.7957747E-01  0.3438328E+00
         13   -1    0    0    0    0  0.00000000000E+00  0.00000000000E+00  0.14999999963E+04  0.15000000000E+04  0.10566000000E+00 0.  1.
        994   -1    0    0    0    0 -0.00000000000E+00 -0.00000000000E+00  0.11368683772E-12  0.17120000000E+03  0.17120000000E+03 0.  0.
         13    1    1    2    0    0 -0.67697552051E+01 -0.10872704006E+02  0.28247101124E+02  0.31015402043E+02  0.10566000000E+00 0.  1.
        994    1    1    2    0    0 -0.17551361768E+02  0.43234108898E+02  0.98827417095E+01  0.17771985555E+03  0.17120000000E+03 0.  0.
        998    1    1    2    0    0  0.24321116973E+02 -0.32361404893E+02  0.14618701534E+04  0.14624647424E+04  0.10000000000E+02 0.  1.
</event>
<event>
 5    1  0.1520352E-008  0.3763576E+03  0.7957747E-01  0.3467173E+00
         13   -1    0    0    0    0  0.00000000000E+00  0.00000000000E+00  0.14999999963E+04  0.15000000000E+04  0.10566000000E+00 0. -1.
        994   -1    0    0    0    0 -0.00000000000E+00 -0.00000000000E+00  0.11368683772E-12  0.17120000000E+03  0.17120000000E+03 0.  0.
         13    1    1    2    0    0  0.93913073566E+00 -0.22360590706E+02  0.40298124349E+02  0.46095856357E+02  0.10566000000E+00 0. -1.
        994    1    1    2    0    0  0.42514712828E+01  0.83340594812E+01  0.62794807601E+01  0.17157040372E+03  0.17120000000E+03 0.  0.
        998    1    1    2    0    0 -0.51906020185E+01  0.14026531225E+02  0.14534223912E+04  0.14535337399E+04  0.10000000000E+02 0. -1.
</event>
<event>
 5    1  0.1520352E-008  0.3837114E+03  0.7957747E-01  0.3435156E+00
         13   -1    0    0    0    0  0.00000000000E+00  0.00000000000E+00  0.14999999963E+04  0.15000000000E+04  0.10566000000E+00 0. -1.
        994   -1    0    0    0    0 -0.00000000000E+00 -0.00000000000E+00  0.11368683772E-12  0.17120000000E+03  0.17120000000E+03 0.  0.
         13    1    1    2    0    0  0.47547471721E+00  0.11630270109E+02  0.28667249474E+02  0.30940452736E+02  0.10566000000E+00 0. -1.
        994    1    1    2    0    0 -0.21651108425E+01 -0.12221592178E+02  0.27801884238E+01  0.17167185112E+03  0.17120000000E+03 0.  0.
        998    1    1    2    0    0  0.16896361253E+01  0.59132206904E+00  0.14685525584E+04  0.14685876961E+04  0.10000000000E+02 0. -1.
</event>
<event>
 5    1  0.1520352E-008  0.3833196E+03  0.7957747E-01  0.3436830E+00
         13   -1    0    0    0    0  0.00000000000E+00  0.00000000000E+00  0.14999999963E+04  0.15000000000E+04  0.10566000000E+00 0.  1.
        994   -1    0    0    0    0 -0.00000000000E+00 -0.00000000000E+00  0.11368683772E-12  0.17120000000E+03  0.17120000000E+03 0.  0.
         13    1    1    2    0    0 -0.46030682451E+01  0.19431200906E+02  0.83939645814E+02  0.86282298934E+02  0.10566000000E+00 0.  1.
        994    1    1    2    0    0  0.81142500822E+01 -0.32635498017E+01  0.27196816103E+01  0.17144482634E+03  0.17120000000E+03 0.  0.
        998    1    1    2    0    0 -0.35111818371E+01 -0.16167651104E+02  0.14133406689E+04  0.14134728747E+04  0.10000000000E+02 0.  1.
</event>
<event>
 5    1  0.1520352E-008  0.3741837E+03  0.7957747E-01  0.3476882E+00
         13   -1    0    0    0    0  0.00000000000E+00  0.00000000000E+00  0.14999999963E+04  0.15000000000E+04  0.10566000000E+00 0. -1.
        994   -1    0    0    0    0 -0.00000000000E+00 -0.00000000000E+00  0.11368683772E-12  0.17120000000E+03  0.17120000000E+03 0.  0.
         13    1    1    2    0    0 -0.95439811048E+00 -0.18471972015E+02  0.20534533938E+02  0.27636983807E+02  0.10566000000E+00 0. -1.
        994    1    1    2    0    0 -0.24482708533E+01  0.23684685020E+02  0.90334234191E+01  0.17308379784E+03  0.17120000000E+03 0.  0.
        998    1    1    2    0    0  0.34026689638E+01 -0.52127130057E+01  0.14704320389E+04  0.14704792184E+04  0.10000000000E+02 0. -1.
</event>
<event>
 5    1  0.1520352E-008  0.3756252E+03  0.7957747E-01  0.3470431E+00
         13   -1    0    0    0    0  0.00000000000E+00  0.00000000000E+00  0.14999999963E+04  0.15000000000E+04  0.10566000000E+00 0. -1.
        994   -1    0    0    0    0 -0.00000000000E+00 -0.00000000000E+00  0.11368683772E-12  0.17120000000E+03  0.17120000000E+03 0.  0.
         13    1    1    2    0    0 -0.53850274222E+02 -0.34389566637E+02  0.30517658420E+03  0.31179360647E+03  0.10566000000E+00 0. -1.
        994    1    1    2    0    0  0.46561677108E+02  0.64746673479E+01  0.13891236673E+02  0.17807952591E+03  0.17120000000E+03 0.  0.
        998    1    1    2    0    0  0.72885971137E+01  0.27914899289E+02  0.11809321754E+04  0.11813268676E+04  0.10000000000E+02 0. -1.
</event>
<event>
 5    1  0.1520352E-008  0.3831987E+03  0.7957747E-01  0.3437348E+00
         13   -1    0    0    0    0  0.00000000000E+00  0.00000000000E+00  0.14999999963E+04  0.15000000000E+04  0.10566000000E+00 0. -1.
        994   -1    0    0    0    0 -0.00000000000E+00 -0.00000000000E+00  0.11368683772E-12  0.17120000000E+03  0.17120000000E+03 0.  0.
         13    1    1    2    0    0  0.23387939540E+02  0.15371100451E+02  0.14021088952E+03  0.14297682032E+03  0.10566000000E+00 0. -1.
        994    1    1    2    0    0 -0.19365198199E+02 -0.24500097289E+02  0.57599115570E+01  0.17412030970E+03  0.17120000000E+03 0.  0.
        998    1    1    2    0    0 -0.40227413405E+01  0.91289968384E+01  0.13540291952E+04  0.13541028700E+04  0.10000000000E+02 0. -1.
</event>
<event>
 5    1  0.1520352E-008  0.3718005E+03  0.7957747E-01  0.3487657E+00
         13   -1    0    0    0    0  0.00000000000E+00  0.00000000000E+00  0.14999999963E+04  0.15000000000E+04  0.10566000000E+00 0.  1.
        994   -1    0    0    0    0 -0.00000000000E+00 -0.00000000000E+00  0.11368683772E-12  0.17120000000E+03  0.17120000000E+03 0.  0.
         13    1    1    2    0    0  0.11415626391E+02  0.74322182692E+00 -0.98691105592E-01  0.11440708394E+02  0.10566000000E+00 0.  1.
        994    1    1    2    0    0 -0.16662295783E+02  0.22018041904E+02  0.14581023371E+02  0.17402434460E+03  0.17120000000E+03 0.  0.
        998    1    1    2    0    0  0.52466693917E+01 -0.22761263731E+02  0.14855176640E+04  0.14857349470E+04  0.10000000000E+02 0.  1.
</event>
<event>
 5    1  0.1520352E-008  0.3889503E+03  0.7957747E-01  0.3413089E+00
         13   -1    0    0    0    0  0.00000000000E+00  0.00000000000E+00  0.14999999963E+04  0.15000000000E+04  0.10566000000E+00 0. -1.
        994   -1    0    0    0    0 -0.00000000000E+00 -0.00000000000E+00  0.11368683772E-12  0.17120000000E+03  0.17120000000E+03 0.  0.
         13    1    1    2    0    0  0.24817830652E+02  0.84064057621E+02  0.27065631360E+03  0.28449524030E+03  0.10566000000E+00 0. -1.
        994    1    1    2    0    0 -0.62025164915E+02  0.56062101916E+02  0.48029407918E+02  0.19648497240E+03  0.17120000000E+03 0.  0.
        998    1    1    2    0    0  0.37207334263E+02 -0.14012615954E+03  0.11813142748E+04  0.11902197873E+04  0.10000000000E+02 0. -1.
</event>
<event>
 5    1  0.1520352E-008  0.3749442E+03  0.7957747E-01  0.3473472E+00
         13   -1    0    0    0    0  0.00000000000E+00  0.00000000000E+00  0.14999999963E+04  0.15000000000E+04  0.10566000000E+00 0. -1.
        994   -1    0    0    0    0 -0.00000000000E+00 -0.00000000000E+00  0.11368683772E-12  0.17120000000E+03  0.17120000000E+03 0.  0.
         13    1    1    2    0    0 -0.13487002109E+02  0.20608357696E+02  0.46698097751E+02  0.52795143056E+02  0.10566000000E+00 0. -1.
        994    1    1    2    0    0 -0.60032168721E+01  0.12578931908E+02  0.73681300142E+01  0.17192439466E+03  0.17120000000E+03 0.  0.
        998    1    1    2    0    0  0.19490218981E+02 -0.33187289604E+02  0.14459337685E+04  0.14464804623E+04  0.10000000000E+02 0. -1.
</event>
<event>
 5    1  0.1520352E-008  0.3830765E+03  0.7957747E-01  0.3437871E+00
         13   -1    0    0    0    0  0.00000000000E+00  0.00000000000E+00  0.14999999963E+04  0.15000000000E+04  0.10566000000E+00 0. -1.
        994   -1    0    0    0    0 -0.00000000000E+00 -0.00000000000E+00  0.11368683772E-12  0.17120000000E+03  0.17120000000E+03 0.  0.
         13    1    1    2    0    0 -0.27527402725E+01 -0.23992092138E+02  0.12580115000E+03  0.12809815990E+03  0.10566000000E+00 0. -1.
        994    1    1    2    0    0 -0.94778616656E+01 -0.68877692659E-01  0.28855069262E+01  0.17148644482E+03  0.17120000000E+03 0.  0.
        998    1    1    2    0    0  0.12230601938E+02  0.24060969831E+02  0.13713133394E+04  0.13716153953E+04  0.10000000000E+02 0. -1.
</event>
<event>
 5    1  0.1520352E-008  0.3849890E+03  0.7957747E-01  0.3429719E+00
         13   -1    0    0    0    0  0.00000000000E+00  0.00000000000E+00  0.14999999963E+04  0.15000000000E+04  0.10566000000E+00 0.  1.
        994   -1    0    0    0    0 -0.00000000000E+00 -0.00000000000E+00  0.11368683772E-12  0.17120000000E+03  0.17120000000E+03 0.  0.
         13    1    1    2    0    0 -0.59154636545E+01 -0.13891576082E+02  0.68243600279E+02  0.69893982140E+02  0.10566000000E+00 0.  1.
        994    1    1    2    0    0  0.25804356735E+01  0.13268999377E+02  0.22367766018E+01  0.17174739638E+03  0.17120000000E+03 0.  0.
        998    1    1    2    0    0  0.33350279809E+01  0.62257670439E+00  0.14295196194E+04  0.14295586215E+04  0.10000000000E+02 0.  1.
</event>
<event>
 5    1  0.1520352E-008  0.4390733E+03  0.7957747E-01  0.3228406E+00
         13   -1    0    0    0    0  0.00000000000E+00  0.00000000000E+00  0.14999999963E+04  0.15000000000E+04  0.10566000000E+00 0. -1.
        994   -1    0    0    0    0 -0.00000000000E+00 -0.00000000000E+00  0.11368683772E-12  0.17120000000E+03  0.17120000000E+03 0.  0.
         13    1    1    2    0    0  0.21316170912E+02 -0.80449750015E+02  0.46287569869E+02  0.95231778878E+02  0.10566000000E+00 0. -1.
        994    1    1    2    0    0 -0.26461399053E+02  0.80992164366E+02  0.88513046763E+02  0.21072241403E+03  0.17120000000E+03 0.  0.
        998    1    1    2    0    0  0.51452281411E+01 -0.54241435090E+00  0.13651993796E+04  0.13652458071E+04  0.10000000000E+02 0. -1.
</event>
<event>
 5    1  0.1520352E-008  0.3692346E+03  0.7957747E-01  0.3499416E+00
         13   -1    0    0    0    0  0.00000000000E+00  0.00000000000E+00  0.14999999963E+04  0.15000000000E+04  0.10566000000E+00 0.  1.
        994   -1    0    0    0    0 -0.00000000000E+00 -0.00000000000E+00  0.11368683772E-12  0.17120000000E+03  0.17120000000E+03 0.  0.
         13    1    1    2    0    0 -0.53847982570E+02 -0.10518251784E+03  0.45300517846E+03  0.46816308074E+03  0.10566000000E+00 0.  1.
        994    1    1    2    0    0  0.50320322477E+02  0.10495343408E+03  0.59382035796E+02  0.21536718495E+03  0.17120000000E+03 0.  0.
        998    1    1    2    0    0  0.35276600931E+01  0.22908375658E+00  0.98761278202E+03  0.98766973431E+03  0.10000000000E+02 0.  0.
</event>
<event>
 5    1  0.1520352E-008  0.3845438E+03  0.7957747E-01  0.3431609E+00
         13   -1    0    0    0    0  0.00000000000E+00  0.00000000000E+00  0.14999999963E+04  0.15000000000E+04  0.10566000000E+00 0. -1.
        994   -1    0    0    0    0 -0.00000000000E+00 -0.00000000000E+00  0.11368683772E-12  0.17120000000E+03  0.17120000000E+03 0.  0.
         13    1    1    2    0    0  0.45923909565E+01  0.17867023633E+02  0.95631411934E+02  0.97394551699E+02  0.10566000000E+00 0. -1.
        994    1    1    2    0    0 -0.16595258492E+01 -0.53801547176E+01  0.19612276830E+01  0.17130378427E+03  0.17120000000E+03 0.  0.
        998    1    1    2    0    0 -0.29328651073E+01 -0.12486868915E+02  0.14024073567E+04  0.14025016640E+04  0.10000000000E+02 0. -1.
</event>
<event>
 5    1  0.1520352E-008  0.3850234E+03  0.7957747E-01  0.3429573E+00
         13   -1    0    0    0    0  0.00000000000E+00  0.00000000000E+00  0.14999999963E+04  0.15000000000E+04  0.10566000000E+00 0. -1.
        994   -1    0    0    0    0 -0.00000000000E+00 -0.00000000000E+00  0.11368683772E-12  0.17120000000E+03  0.17120000000E+03 0.  0.
         13    1    1    2    0    0  0.40957821702E+01  0.13271365660E+02  0.65334721604E+02  0.66794772170E+02  0.10566000000E+00 0. -1.
        994    1    1    2    0    0 -0.17817503590E+01  0.57524798473E+01  0.17377792831E+01  0.17131469737E+03  0.17120000000E+03 0.  0.
        998    1    1    2    0    0 -0.23140318113E+01 -0.19023845508E+02  0.14329274954E+04  0.14330905305E+04  0.10000000000E+02 0. -1.
</event>
<event>
 5    1  0.1520352E-008  0.3800596E+03  0.7957747E-01  0.3450899E+00
         13   -1    0    0    0    0  0.00000000000E+00  0.00000000000E+00  0.14999999963E+04  0.15000000000E+04  0.10566000000E+00 0. -1.
        994   -1    0    0    0    0 -0.00000000000E+00 -0.00000000000E+00  0.11368683772E-12  0.17120000000E+03  0.17120000000E+03 0.  0.
         13    1    1    2    0    0  0.41055518086E+02  0.11771058017E+01  0.23734903674E+03  0.24087656081E+03  0.10566000000E+00 0. -1.
        994    1    1    2    0    0 -0.60756603269E+01  0.88559909450E+01  0.44886496559E+01  0.17159525110E+03  0.17120000000E+03 0.  0.
        998    1    1    2    0    0 -0.34979857759E+02 -0.10033096747E+02  0.12581623099E+04  0.12587281881E+04  0.10000000000E+02 0. -1.
</event>
<event>
 5    1  0.1520352E-008  0.3834778E+03  0.7957747E-01  0.3436154E+00
         13   -1    0    0    0    0  0.00000000000E+00  0.00000000000E+00  0.14999999963E+04  0.15000000000E+04  0.10566000000E+00 0.  1.
        994   -1    0    0    0    0 -0.00000000000E+00 -0.00000000000E+00  0.11368683772E-12  0.17120000000E+03  0.17120000000E+03 0.  0.
         13    1    1    2    0    0  0.10531960452E+02 -0.21641817625E+02  0.13101372102E+03  0.13320621878E+03  0.10566000000E+00 0.  1.
        994    1    1    2    0    0 -0.96388392370E+00  0.39726477942E+01  0.24430197776E+01  0.17126622361E+03  0.17120000000E+03 0.  0.
        998    1    1    2    0    0 -0.95680765280E+01  0.17669169830E+02  0.13665432555E+04  0.13667275576E+04  0.10000000000E+02 0.  1.
</event>
<event>
 5    1  0.1520352E-008  0.3734056E+03  0.7957747E-01  0.3480384E+00
         13   -1    0    0    0    0  0.00000000000E+00  0.00000000000E+00  0.14999999963E+04  0.15000000000E+04  0.10566000000E+00 0. -1.
        994   -1    0    0    0    0 -0.00000000000E+00 -0.00000000000E+00  0.11368683772E-12  0.17120000000E+03  0.17120000000E+03 0.  0.
         13    1    1    2    0    0  0.58686358616E+01 -0.16320410635E+02  0.16477750357E+02  0.23923296409E+02  0.10566000000E+00 0. -1.
        994    1    1    2    0    0 -0.74677315576E+01  0.19098055370E+02  0.89381782814E+01  0.17265524540E+03  0.17120000000E+03 0.  0.
        998    1    1    2    0    0  0.15990956959E+01 -0.27776447346E+01  0.14745840676E+04  0.14746214582E+04  0.10000000000E+02 0. -1.
</event>
<event>
 5    1  0.1520352E-008  0.4462710E+03  0.7957747E-01  0.3205226E+00
         13   -1    0    0    0    0  0.00000000000E+00  0.00000000000E+00  0.14999999963E+04  0.15000000000E+04  0.10566000000E+00 0. -1.
        994   -1    0    0    0    0 -0.00000000000E+00 -0.00000000000E+00  0.11368683772E-12  0.17120000000E+03  0.17120000000E+03 0.  0.
         13    1    1    2    0    0 -0.12459860091E+02  0.10276025532E+03  0.79913587975E+02  0.13077121584E+03  0.10566000000E+00 0. -1.
        994    1    1    2    0    0 -0.70877683427E+01 -0.67793428383E+02  0.81977073961E+02  0.20168258737E+03  0.17120000000E+03 0.  0.
        998    1    1    2    0    0  0.19547628434E+02 -0.34966826933E+02  0.13381093343E+04  0.13387461968E+04  0.10000000000E+02 0. -1.
</event>
<event>
 5    1  0.1520352E-008  0.3805386E+03  0.7957747E-01  0.3448816E+00
         13   -1    0    0    0    0  0.00000000000E+00  0.00000000000E+00  0.14999999963E+04  0.15000000000E+04  0.10566000000E+00 0.  1.
        994   -1    0    0    0    0 -0.00000000000E+00 -0.00000000000E+00  0.11368683772E-12  0.17120000000E+03  0.17120000000E+03 0.  0.
         13    1    1    2    0    0 -0.16434080591E+03  0.14381109973E+03  0.10707018398E+04  0.10927451550E+04  0.10566000000E+00 0.  1.
        994    1    1    2    0    0  0.16143620405E+03 -0.14713438749E+03  0.18414931944E+03  0.33306243831E+03  0.17120000000E+03 0.  0.
        998    1    1    2    0    0  0.29046018641E+01  0.33232877621E+01  0.24514883702E+03  0.24539240666E+03  0.10000000000E+02 0.  0.
</event>
<event>
 5    1  0.1520352E-008  0.3847088E+03  0.7957747E-01  0.3430908E+00
         13   -1    0    0    0    0  0.00000000000E+00  0.00000000000E+00  0.14999999963E+04  0.15000000000E+04  0.10566000000E+00 0. -1.
        994   -1    0    0    0    0 -0.00000000000E+00 -0.00000000000E+00  0.11368683772E-12  0.17120000000E+03  0.17120000000E+03 0.  0.
         13    1    1    2    0    0 -0.94651597542E+01 -0.15881554410E+02  0.10519994060E+03  0.10681222630E+03  0.10566000000E+00 0. -1.
        994    1    1    2    0    0 -0.39853315917E+01  0.28862005362E+01  0.18544677318E+01  0.17128074052E+03  0.17120000000E+03 0.  0.
        998    1    1    2    0    0  0.13450491346E+02  0.12995353874E+02  0.13929455879E+04  0.13931070332E+04  0.10000000000E+02 0. -1.
</event>
<event>
 5    1  0.1520352E-008  0.3851296E+03  0.7957747E-01  0.3429123E+00
         13   -1    0    0    0    0  0.00000000000E+00  0.00000000000E+00  0.14999999963E+04  0.15000000000E+04  0.10566000000E+00 0.  1.
        994   -1    0    0    0    0 -0.00000000000E+00 -0.00000000000E+00  0.11368683772E-12  0.17120000000E+03  0.17120000000E+03 0.  0.
         13    1    1    2    0    0 -0.10037924132E+02 -0.48376007764E+01  0.40824685555E+02  0.42318180689E+02  0.10566000000E+00 0.  1.
        994    1    1    2    0    0 -0.37582282709E+00  0.43453518563E+01  0.16283697822E+01  0.17126329120E+03  0.17120000000E+03 0.  0.
        998    1    1    2    0    0  0.10413746959E+02  0.49224892004E+00  0.14575469409E+04  0.14576185281E+04  0.10000000000E+02 0.  1.
</event>
<event>
 5    1  0.1520352E-008  0.3928823E+03  0.7957747E-01  0.3396915E+00
         13   -1    0    0    0    0  0.00000000000E+00  0.00000000000E+00  0.14999999963E+04  0.15000000000E+04  0.10566000000E+00 0. -1.
        994   -1    0    0    0    0 -0.00000000000E+00 -0.00000000000E+00  0.11368683772E-12  0.17120000000E+03  0.17120000000E+03 0.  0.
         13    1    1    2    0    0 -0.93389318041E+02  0.29784667998E+02  0.16993098659E+03  0.19617655961E+03  0.10566000000E+00 0. -1.
        994    1    1    2    0    0  0.93189815228E+02 -0.48841703792E+02  0.67073596087E+02  0.21184466239E+03  0.17120000000E+03 0.  0.
        998    1    1    2    0    0  0.19950281313E+00  0.19057035794E+02  0.12629954136E+04  0.12631787780E+04  0.10000000000E+02 0. -1.
</event>
<event>
 5    1  0.1520352E-008  0.4085714E+03  0.7957747E-01  0.3335468E+00
         13   -1    0    0    0    0  0.00000000000E+00  0.00000000000E+00  0.14999999963E+04  0.15000000000E+04  0.10566000000E+00 0.  1.
        994   -1    0    0    0    0 -0.00000000000E+00 -0.00000000000E+00  0.11368683772E-12  0.17120000000E+03  0.17120000000E+03 0.  0.
         13    1    1    2    0    0  0.19261607098E+02 -0.84656155898E+02  0.98093548980E+02  0.13099629672E+03  0.10566000000E+00 0.  1.
        994    1    1    2    0    0 -0.26671950141E+02  0.81258789562E+02  0.63351814863E+02  0.20158689504E+03  0.17120000000E+03 0.  0.
        998    1    1    2    0    0  0.74103430433E+01  0.33973663354E+01  0.13385546324E+04  0.13386168082E+04  0.10000000000E+02 0.  1.
</event>
<event>
 5    1  0.1520352E-008  0.3820734E+03  0.7957747E-01  0.3442180E+00
         13   -1    0    0    0    0  0.00000000000E+00  0.00000000000E+00  0.14999999963E+04  0.15000000000E+04  0.10566000000E+00 0. -1.
        994   -1    0    0    0    0 -0.00000000000E+00 -0.00000000000E+00  0.11368683772E-12  0.17120000000E+03  0.17120000000E+03 0.  0.
         13    1    1    2    0    0  0.16542416187E+02 -0.37918525603E+02  0.21735680445E+03  0.22125880259E+03  0.10566000000E+00 0. -1.
        994    1    1    2    0    0 -0.14203606012E+02  0.50577878165E+02  0.12308093848E+02  0.17950151352E+03  0.17120000000E+03 0.  0.
        998    1    1    2    0    0 -0.23388101752E+01 -0.12659352562E+02  0.12703350980E+04  0.12704396839E+04  0.10000000000E+02 0. -1.
</event>
<event>
 5    1  0.1520352E-008  0.3769480E+03  0.7957747E-01  0.3464556E+00
         13   -1    0    0    0    0  0.00000000000E+00  0.00000000000E+00  0.14999999963E+04  0.15000000000E+04  0.10566000000E+00 0.  1.
        994   -1    0    0    0    0 -0.00000000000E+00 -0.00000000000E+00  0.11368683772E-12  0.17120000000E+03  0.17120000000E+03 0.  0.
         13    1    1    2    0    0  0.34731384806E+02  0.20746779637E+02  0.24325458936E+03  0.24659583201E+03  0.10566000000E+00 0.  1.
        994    1    1    2    0    0  0.38377258630E+02  0.22400029863E+02  0.12379177710E+02  0.17730555366E+03  0.17120000000E+03 0.  0.
        998    1    1    2    0    0 -0.73108643436E+02 -0.43146809501E+02  0.12443662292E+04  0.12472986143E+04  0.10000000000E+02 0.  1.
</event>
<event>
 5    1  0.1520352E-008  0.3828937E+03  0.7957747E-01  0.3438655E+00
         13   -1    0    0    0    0  0.00000000000E+00  0.00000000000E+00  0.14999999963E+04  0.15000000000E+04  0.10566000000E+00 0. -1.
        994   -1    0    0    0    0 -0.00000000000E+00 -0.00000000000E+00  0.11368683772E-12  0.17120000000E+03  0.17120000000E+03 0.  0.
         13    1    1    2    0    0 -0.90389767206E+01  0.17293554094E+02  0.65998543085E+02  0.68822881128E+02  0.10566000000E+00 0. -1.
        994    1    1    2    0    0  0.11776661063E+02 -0.21968612851E+02  0.47395503338E+01  0.17306996572E+03  0.17120000000E+03 0.  0.
        998    1    1    2    0    0 -0.27376843425E+01  0.46750587566E+01  0.14292619029E+04  0.14293071532E+04  0.10000000000E+02 0. -1.
</event>
<event>
 5    1  0.1520352E-008  0.3807977E+03  0.7957747E-01  0.3447693E+00
         13   -1    0    0    0    0  0.00000000000E+00  0.00000000000E+00  0.14999999963E+04  0.15000000000E+04  0.10566000000E+00 0.  1.
        994   -1    0    0    0    0 -0.00000000000E+00 -0.00000000000E+00  0.11368683772E-12  0.17120000000E+03  0.17120000000E+03 0.  0.
         13    1    1    2    0    0  0.18548033009E+02  0.29022475676E+01  0.44990164927E+02  0.48750165883E+02  0.10566000000E+00 0.  1.
        994    1    1    2    0    0 -0.17810363348E+02  0.61724074138E+00  0.47906284720E+01  0.17219169594E+03  0.17120000000E+03 0.  0.
        998    1    1    2    0    0 -0.73766966092E+00 -0.35194883090E+01  0.14502192029E+04  0.14502581382E+04  0.10000000000E+02 0.  1.
</event>
<event>
 5    1  0.1520352E-008  0.3854822E+03  0.7957747E-01  0.3427630E+00
         13   -1    0    0    0    0  0.00000000000E+00  0.00000000000E+00  0.14999999963E+04  0.15000000000E+04  0.10566000000E+00 0. -1.
        994   -1    0    0    0    0 -0.00000000000E+00 -0.00000000000E+00  0.11368683772E-12  0.17120000000E+03  0.17120000000E+03 0.  0.
         13    1    1    2    0    0  0.34469911773E+01 -0.13656694695E+02  0.68678218863E+02  0.70107745424E+02  0.10566000000E+00 0. -1.
        994    1    1    2    0    0 -0.55446406426E+01  0.14490250818E+02  0.21817069495E+01  0.17191541599E+03  0.17120000000E+03 0.  0.
        998    1    1    2    0    0  0.20976494653E+01 -0.83355612230E+00  0.14291400705E+04  0.14291768386E+04  0.10000000000E+02 0. -1.
</event>
<event>
 5    1  0.1520352E-008  0.3723833E+03  0.7957747E-01  0.3485009E+00
         13   -1    0    0    0    0  0.00000000000E+00  0.00000000000E+00  0.14999999963E+04  0.15000000000E+04  0.10566000000E+00 0.  1.
        994   -1    0    0    0    0 -0.00000000000E+00 -0.00000000000E+00  0.11368683772E-12  0.17120000000E+03  0.17120000000E+03 0.  0.
         13    1    1    2    0    0  0.14279393889E+02 -0.59216083591E+02  0.30605563427E+03  0.31205850105E+03  0.10566000000E+00 0.  1.
        994    1    1    2    0    0  0.18831208477E+01 -0.41710083411E+01  0.81004764075E+01  0.17145262078E+03  0.17120000000E+03 0.  0.
        998    1    1    2    0    0 -0.16162514736E+02  0.63387091932E+02  0.11858438856E+04  0.11876888782E+04  0.10000000000E+02 0.  1.
</event>
<event>
 5    1  0.1520352E-008  0.3833960E+03  0.7957747E-01  0.3436504E+00
         13   -1    0    0    0    0  0.00000000000E+00  0.00000000000E+00  0.14999999963E+04  0.15000000000E+04  0.10566000000E+00 0. -1.
        994   -1    0    0    0    0 -0.00000000000E+00 -0.00000000000E+00  0.11368683772E-12  0.17120000000E+03  0.17120000000E+03 0.  0.
         13    1    1    2    0    0 -0.68448710569E+00 -0.15136753277E+02  0.45269032667E+02  0.47737682233E+02  0.10566000000E+00 0. -1.
        994    1    1    2    0    0  0.15689474484E+02  0.15935785942E+02  0.40836390525E+01  0.17270270696E+03  0.17120000000E+03 0.  0.
        998    1    1    2    0    0 -0.15004987379E+02 -0.79903266538E+00  0.14506473246E+04  0.14507596108E+04  0.10000000000E+02 0. -1.
</event>
<event>
 5    1  0.1520352E-008  0.3820189E+03  0.7957747E-01  0.3442414E+00
         13   -1    0    0    0    0  0.00000000000E+00  0.00000000000E+00  0.14999999963E+04  0.15000000000E+04  0.10566000000E+00 0.  1.
        994   -1    0    0    0    0 -0.00000000000E+00 -0.00000000000E+00  0.11368683772E-12  0.17120000000E+03  0.17120000000E+03 0.  0.
         13    1    1    2    0    0  0.64331657318E+01 -0.88670042264E+02  0.21872385946E+03  0.23610146098E+03  0.10566000000E+00 0.  1.
        994    1    1    2    0    0  0.87729734656E+02  0.66738661479E+02  0.63270733552E+02  0.21322096755E+03  0.17120000000E+03 0.  0.
        998    1    1    2    0    0 -0.94162900387E+02  0.21931380785E+02  0.12180054033E+04  0.12218775715E+04  0.10000000000E+02 0.  1.
</event>
<event>
 5    1  0.1520352E-008  0.3765516E+03  0.7957747E-01  0.3466313E+00
         13   -1    0    0    0    0  0.00000000000E+00  0.00000000000E+00  0.14999999963E+04  0.15000000000E+04  0.10566000000E+00 0.  1.
        994   -1    0    0    0    0 -0.00000000000E+00 -0.00000000000E+00  0.11368683772E-12  0.17120000000E+03  0.17120000000E+03 0.  0.
         13    1    1    2    0    0  0.12916645129E+02  0.30700422932E+02  0.83629785816E+02  0.90018375509E+02  0.10566000000E+00 0.  1.
        994    1    1    2    0    0 -0.34920831257E+02 -0.33554288877E+02  0.13856442450E+02  0.17845670555E+03  0.17120000000E+03 0.  0.
        998    1    1    2    0    0  0.22004186129E+02  0.28538659451E+01  0.14025137680E+04  0.14027249189E+04  0.10000000000E+02 0.  1.
</event>
<event>
 5    1  0.1520352E-008  0.3839455E+03  0.7957747E-01  0.3434157E+00
         13   -1    0    0    0    0  0.00000000000E+00  0.00000000000E+00  0.14999999963E+04  0.15000000000E+04  0.10566000000E+00 0. -1.
        994   -1    0    0    0    0 -0.00000000000E+00 -0.00000000000E+00  0.11368683772E-12  0.17120000000E+03  0.17120000000E+03 0.  0.
         13    1    1    2    0    0  0.10341692880E+02 -0.27870668788E+02  0.17279872362E+03  0.17533720323E+03  0.10566000000E+00 0. -1.
        994    1    1    2    0    0  0.10010800249E+02  0.43989315766E+02  0.88999639769E+01  0.17726794798E+03  0.17120000000E+03 0.  0.
        998    1    1    2    0    0 -0.20352493129E+02 -0.16118646978E+02  0.13183013087E+04  0.13185948488E+04  0.10000000000E+02 0. -1.
</event>
<event>
 5    1  0.1520352E-008  0.3820833E+03  0.7957747E-01  0.3442137E+00
         13   -1    0    0    0    0  0.00000000000E+00  0.00000000000E+00  0.14999999963E+04  0.15000000000E+04  0.10566000000E+00 0.  1.
        994   -1    0    0    0    0 -0.00000000000E+00 -0.00000000000E+00  0.11368683772E-12  0.17120000000E+03  0.17120000000E+03 0.  0.
         13    1    1    2    0    0 -0.86162636395E+01 -0.17242439876E+02  0.60492411471E+02  0.63489249023E+02  0.10566000000E+00 0.  1.
        994    1    1    2    0    0  0.28088825868E+01  0.72665228863E+01  0.32867095942E+01  0.17140867725E+03  0.17120000000E+03 0.  0.
        998    1    1    2    0    0  0.58073810528E+01  0.99759169899E+01  0.14362208752E+04  0.14363020737E+04  0.10000000000E+02 0.  1.
</event>
<event>
 5    1  0.1520352E-008  0.3746160E+03  0.7957747E-01  0.3474942E+00
         13   -1    0    0    0    0  0.00000000000E+00  0.00000000000E+00  0.14999999963E+04  0.15000000000E+04  0.10566000000E+00 0.  1.
        994   -1    0    0    0    0 -0.00000000000E+00 -0.00000000000E+00  0.11368683772E-12  0.17120000000E+03  0.17120000000E+03 0.  0.
         13    1    1    2    0    0  0.17196108085E+00 -0.85737961826E+02  0.39352252241E+03  0.40275428549E+03  0.10566000000E+00 0.  1.
        994    1    1    2    0    0 -0.15200936976E+02  0.85014904421E+02  0.32702330146E+02  0.19451859771E+03  0.17120000000E+03 0.  0.
        998    1    1    2    0    0  0.15028975895E+02  0.72305740443E+00  0.10737751437E+04  0.10739271168E+04  0.10000000000E+02 0.  1.
</event>
<event>
 5    1  0.1520352E-008  0.3743352E+03  0.7957747E-01  0.3476202E+00
         13   -1    0    0    0    0  0.00000000000E+00  0.00000000000E+00  0.14999999963E+04  0.15000000000E+04  0.10566000000E+00 0.  1.
        994   -1    0    0    0    0 -0.00000000000E+00 -0.00000000000E+00  0.11368683772E-12  0.17120000000E+03  0.17120000000E+03 0.  0.
         13    1    1    2    0    0  0.26276481327E+02 -0.56806623648E+02  0.15025306627E+03  0.16276805906E+03  0.10566000000E+00 0.  1.
        994    1    1    2    0    0  0.18285505125E+02  0.39061505581E+02  0.19882448798E+02  0.17766517015E+03  0.17120000000E+03 0.  0.
        998    1    1    2    0    0 -0.44561986452E+02  0.17745118067E+02  0.13298644812E+04  0.13307667708E+04  0.10000000000E+02 0.  1.
</event>
<event>
 5    1  0.1520352E-008  0.3713480E+03  0.7957747E-01  0.3489719E+00
         13   -1    0    0    0    0  0.00000000000E+00  0.00000000000E+00  0.14999999963E+04  0.15000000000E+04  0.10566000000E+00 0. -1.
        994   -1    0    0    0    0 -0.00000000000E+00 -0.00000000000E+00  0.11368683772E-12  0.17120000000E+03  0.17120000000E+03 0.  0.
         13    1    1    2    0    0 -0.36322186749E+02 -0.30572592649E+02  0.88657159231E+02  0.10056882081E+03  0.10566000000E+00 0. -1.
        994    1    1    2    0    0  0.34472339586E+02  0.27138846629E+02  0.18445236951E+02  0.17769222256E+03  0.17120000000E+03 0.  0.
        998    1    1    2    0    0  0.18498471631E+01  0.34337460204E+01  0.13928976001E+04  0.13929389566E+04  0.10000000000E+02 0. -1.
</event>
<event>
 5    1  0.1520352E-008  0.3839717E+03  0.7957747E-01  0.3434045E+00
         13   -1    0    0    0    0  0.00000000000E+00  0.00000000000E+00  0.14999999963E+04  0.15000000000E+04  0.10566000000E+00 0. -1.
        994   -1    0    0    0    0 -0.00000000000E+00 -0.00000000000E+00  0.11368683772E-12  0.17120000000E+03  0.17120000000E+03 0.  0.
         13    1    1    2    0    0 -0.15046588996E+02  0.47273854179E+01  0.60691463168E+02  0.62707359049E+02  0.10566000000E+00 0. -1.
        994    1    1    2    0    0 -0.31822245145E+00 -0.38259274486E+01  0.21901433820E+01  0.17125704574E+03  0.17120000000E+03 0.  0.
        998    1    1    2    0    0  0.15364811447E+02 -0.90145796931E+00  0.14371183897E+04  0.14372355952E+04  0.10000000000E+02 0. -1.
</event>
<event>
 5    1  0.1520352E-008  0.3787901E+03  0.7957747E-01  0.3456443E+00
         13   -1    0    0    0    0  0.00000000000E+00  0.00000000000E+00  0.14999999963E+04  0.15000000000E+04  0.10566000000E+00 0. -1.
        994   -1    0    0    0    0 -0.00000000000E+00 -0.00000000000E+00  0.11368683772E-12  0.17120000000E+03  0.17120000000E+03 0.  0.
         13    1    1    2    0    0 -0.10534109941E+02  0.51798002301E+02  0.26882404855E+03  0.27397149625E+03  0.10566000000E+00 0. -1.
        994    1    1    2    0    0  0.33462454694E+02 -0.35794974592E+02  0.12846349985E+02  0.17853706839E+03  0.17120000000E+03 0.  0.
        998    1    1    2    0    0 -0.22928344752E+02 -0.16003027708E+02  0.12183295977E+04  0.12186914354E+04  0.10000000000E+02 0. -1.
</event>
<event>
 5    1  0.1520352E-008  0.3848355E+03  0.7957747E-01  0.3430370E+00
         13   -1    0    0    0    0  0.00000000000E+00  0.00000000000E+00  0.14999999963E+04  0.15000000000E+04  0.10566000000E+00 0. -1.
        994   -1    0    0    0    0 -0.00000000000E+00 -0.00000000000E+00  0.11368683772E-12  0.17120000000E+03  0.17120000000E+03 0.  0.
         13    1    1    2    0    0  0.48261167638E+01 -0.18277471100E+02  0.10721467975E+03  0.10886852654E+03  0.10566000000E+00 0. -1.
        994    1    1    2    0    0  0.53660260037E+01  0.10400107177E+02  0.21626063937E+01  0.17161315023E+03  0.17120000000E+03 0.  0.
        998    1    1    2    0    0 -0.10192142767E+02  0.78773639223E+01  0.13906227101E+04  0.13907183232E+04  0.10000000000E+02 0. -1.
</event>
<event>
 5    1  0.1520352E-008  0.3783413E+03  0.7957747E-01  0.3458413E+00
         13   -1    0    0    0    0  0.00000000000E+00  0.00000000000E+00  0.14999999963E+04  0.15000000000E+04  0.10566000000E+00 0.  1.
        994   -1    0    0    0    0 -0.00000000000E+00 -0.00000000000E+00  0.11368683772E-12  0.17120000000E+03  0.17120000000E+03 0.  0.
         13    1    1    2    0    0 -0.10859345978E+02 -0.46525928682E+00  0.97820384127E+01  0.14623313606E+02  0.10566000000E+00 0.  1.
        994    1    1    2    0    0  0.19437204718E+01 -0.41914270945E+00  0.49860927580E+01  0.17128413485E+03  0.17120000000E+03 0.  0.
        998    1    1    2    0    0  0.89156255058E+01  0.88440199627E+00  0.14852318651E+04  0.14852925515E+04  0.10000000000E+02 0.  1.
</event>
<event>
 5    1  0.1520352E-008  0.3748645E+03  0.7957747E-01  0.3473829E+00
         13   -1    0    0    0    0  0.00000000000E+00  0.00000000000E+00  0.14999999963E+04  0.15000000000E+04  0.10566000000E+00 0.  1.
        994   -1    0    0    0    0 -0.00000000000E+00 -0.00000000000E+00  0.11368683772E-12  0.17120000000E+03  0.17120000000E+03 0.  0.
         13    1    1    2    0    0 -0.29639253163E+02 -0.19595220037E+02  0.10216419827E+03  0.10816650382E+03  0.10566000000E+00 0.  1.
        994    1    1    2    0    0  0.55309006464E+01 -0.16855118393E+02  0.78191947611E+01  0.17229412551E+03  0.17120000000E+03 0.  0.
        998    1    1    2    0    0  0.24108352517E+02  0.36450338430E+02  0.13900166033E+04  0.13907393707E+04  0.10000000000E+02 0.  1.
</event>
<event>
 5    1  0.1520352E-008  0.3755295E+03  0.7957747E-01  0.3470858E+00
         13   -1    0    0    0    0  0.00000000000E+00  0.00000000000E+00  0.14999999963E+04  0.15000000000E+04  0.10566000000E+00 0.  1.
        994   -1    0    0    0    0 -0.00000000000E+00 -0.00000000000E+00  0.11368683772E-12  0.17120000000E+03  0.17120000000E+03 0.  0.
         13    1    1    2    0    0  0.36578765082E+02  0.35031719442E+02  0.25921331494E+03  0.26411509088E+03  0.10566000000E+00 0.  1.
        994    1    1    2    0    0  0.13425547401E+02 -0.36280596695E+01  0.70636047663E+01  0.17190911160E+03  0.17120000000E+03 0.  0.
        998    1    1    2    0    0 -0.50004312484E+02 -0.31403659773E+02  0.12337230766E+04  0.12351757975E+04  0.10000000000E+02 0.  1.
</event>
<event>
 5    1  0.1520352E-008  0.3830620E+03  0.7957747E-01  0.3437933E+00
         13   -1    0    0    0    0  0.00000000000E+00  0.00000000000E+00  0.14999999963E+04  0.15000000000E+04  0.10566000000E+00 0. -1.
        994   -1    0    0    0    0 -0.00000000000E+00 -0.00000000000E+00  0.11368683772E-12  0.17120000000E+03  0.17120000000E+03 0.  0.
         13    1    1    2    0    0  0.11197226305E+02 -0.38120431346E+01  0.24599821019E+02  0.27296005348E+02  0.10566000000E+00 0. -1.
        994    1    1    2    0    0 -0.25281715034E+02  0.38116440629E+01  0.47617269316E+01  0.17316410653E+03  0.17120000000E+03 0.  0.
        998    1    1    2    0    0  0.14084488729E+02  0.39907176657E-03  0.14706384483E+04  0.14707398881E+04  0.10000000000E+02 0. -1.
</event>
<event>
 5    1  0.2672250E-008  0.3860871E+03  0.7957747E-01  0.3425075E+00
         13   -1    0    0    0    0  0.00000000000E+00  0.00000000000E+00  0.14999999963E+04  0.15000000000E+04  0.10566000000E+00 0. -1.
        994   -1    0    0    0    0 -0.00000000000E+00 -0.00000000000E+00  0.11368683772E-12  0.17120000000E+03  0.17120000000E+03 0.  0.
         13    1    1    2    0    0 -0.35029500302E+01  0.93877206215E+01  0.48073509085E+02  0.49106755108E+02  0.10566000000E+00 0. -1.
        994    1    1    2    0    0 -0.25115216967E+01 -0.31884507039E+01  0.11453538083E+01  0.17125193662E+03  0.17120000000E+03 0.  0.
        998    1    1    2    0    0  0.60144717269E+01 -0.61992699176E+01  0.14507811334E+04  0.14508413083E+04  0.10000000000E+02 0. -1.
</event>
<event>
 5    1  0.1520352E-008  0.3853872E+03  0.7957747E-01  0.3428032E+00
         13   -1    0    0    0    0  0.00000000000E+00  0.00000000000E+00  0.14999999963E+04  0.15000000000E+04  0.10566000000E+00 0. -1.
        994   -1    0    0    0    0 -0.00000000000E+00 -0.00000000000E+00  0.11368683772E-12  0.17120000000E+03  0.17120000000E+03 0.  0.
         13    1    1    2    0    0 -0.38632499003E+01 -0.11862433079E+02  0.53378044723E+02  0.54816683964E+02  0.10566000000E+00 0. -1.
        994    1    1    2    0    0  0.75298017402E+01  0.93011016884E+01  0.19085179860E+01  0.17162835094E+03  0.17120000000E+03 0.  0.
        998    1    1    2    0    0 -0.36665518399E+01  0.25613313903E+01  0.14447134336E+04  0.14447549651E+04  0.10000000000E+02 0. -1.
</event>
<event>
 5    1  0.1520352E-008  0.3860974E+03  0.7957747E-01  0.3425031E+00
         13   -1    0    0    0    0  0.00000000000E+00  0.00000000000E+00  0.14999999963E+04  0.15000000000E+04  0.10566000000E+00 0.  1.
        994   -1    0    0    0    0 -0.00000000000E+00 -0.00000000000E+00  0.11368683772E-12  0.17120000000E+03  0.17120000000E+03 0.  0.
         13    1    1    2    0    0 -0.88288918276E+00 -0.11387571407E+02  0.67436518981E+02  0.68397014059E+02  0.10566000000E+00 0.  1.
        994    1    1    2    0    0 -0.22631000588E+01 -0.50326029829E+01  0.11860671738E+01  0.17129301057E+03  0.17120000000E+03 0.  0.
        998    1    1    2    0    0  0.31459892415E+01  0.16420174390E+02  0.14313774101E+04  0.14315099754E+04  0.10000000000E+02 0.  1.
</event>
<event>
 5    1  0.1520352E-008  0.3833903E+03  0.7957747E-01  0.3436528E+00
         13   -1    0    0    0    0  0.00000000000E+00  0.00000000000E+00  0.14999999963E+04  0.15000000000E+04  0.10566000000E+00 0. -1.
        994   -1    0    0    0    0 -0.00000000000E+00 -0.00000000000E+00  0.11368683772E-12  0.17120000000E+03  0.17120000000E+03 0.  0.
         13    1    1    2    0    0 -0.21450720397E+02  0.85877809015E+01  0.12122382897E+03  0.12340628533E+03  0.10566000000E+00 0. -1.
        994    1    1    2    0    0 -0.15964360819E+01 -0.38204074719E+01  0.24881286143E+01  0.17126813745E+03  0.17120000000E+03 0.  0.
        998    1    1    2    0    0  0.23047156479E+02 -0.47673734296E+01  0.13762880387E+04  0.13765255772E+04  0.10000000000E+02 0. -1.
</event>
<event>
 5    1  0.1520352E-008  0.3831794E+03  0.7957747E-01  0.3437430E+00
         13   -1    0    0    0    0  0.00000000000E+00  0.00000000000E+00  0.14999999963E+04  0.15000000000E+04  0.10566000000E+00 0. -1.
        994   -1    0    0    0    0 -0.00000000000E+00 -0.00000000000E+00  0.11368683772E-12  0.17120000000E+03  0.17120000000E+03 0.  0.
         13    1    1    2    0    0  0.40333699032E+01 -0.22093086288E+02  0.10937895922E+03  0.11166082759E+03  0.10566000000E+00 0. -1.
        994    1    1    2    0    0  0.21470808664E+01 -0.75642934600E+00  0.25538724149E+01  0.17123418002E+03  0.17120000000E+03 0.  0.
        998    1    1    2    0    0 -0.61804507697E+01  0.22849515634E+02  0.13880671646E+04  0.13883049924E+04  0.10000000000E+02 0. -1.
</event>
<event>
 5    1  0.1520352E-008  0.3835838E+03  0.7957747E-01  0.3435701E+00
         13   -1    0    0    0    0  0.00000000000E+00  0.00000000000E+00  0.14999999963E+04  0.15000000000E+04  0.10566000000E+00 0.  1.
        994   -1    0    0    0    0 -0.00000000000E+00 -0.00000000000E+00  0.11368683772E-12  0.17120000000E+03  0.17120000000E+03 0.  0.
         13    1    1    2    0    0  0.20402381103E+02 -0.13655452151E+02  0.13830834154E+03  0.14047041337E+03  0.10566000000E+00 0.  1.
        994    1    1    2    0    0 -0.67627276706E+01  0.14346850205E+00  0.24860561492E+01  0.17135161378E+03  0.17120000000E+03 0.  0.
        998    1    1    2    0    0 -0.13639653432E+02  0.13511983649E+02  0.13592055986E+04  0.13593779729E+04  0.10000000000E+02 0.  1.
</event>
<event>
 5    1  0.1520352E-008  0.3815681E+03  0.7957747E-01  0.3444359E+00
         13   -1    0    0    0    0  0.00000000000E+00  0.00000000000E+00  0.14999999963E+04  0.15000000000E+04  0.10566000000E+00 0. -1.
        994   -1    0    0    0    0 -0.00000000000E+00 -0.00000000000E+00  0.11368683772E-12  0.17120000000E+03  0.17120000000E+03 0.  0.
         13    1    1    2    0    0 -0.53893452025E+01 -0.23638532038E+02  0.91594495419E+02  0.94749079118E+02  0.10566000000E+00 0. -1.
        994    1    1    2    0    0 -0.75573432833E+01  0.70711270935E+01  0.36999766916E+01  0.17155245292E+03  0.17120000000E+03 0.  0.
        998    1    1    2    0    0  0.12946688486E+02  0.16567404944E+02  0.14047055242E+04  0.14048984680E+04  0.10000000000E+02 0. -1.
</event>
<event>
 5    1  0.1520352E-008  0.3774882E+03  0.7957747E-01  0.3462169E+00
         13   -1    0    0    0    0  0.00000000000E+00  0.00000000000E+00  0.14999999963E+04  0.15000000000E+04  0.10566000000E+00 0. -1.
        994   -1    0    0    0    0 -0.00000000000E+00 -0.00000000000E+00  0.11368683772E-12  0.17120000000E+03  0.17120000000E+03 0.  0.
         13    1    1    2    0    0  0.35593409849E+02  0.42266682837E+02  0.25365534596E+03  0.25960433163E+03  0.10566000000E+00 0. -1.
        994    1    1    2    0    0 -0.17061673657E+02 -0.45231479525E+02  0.13325132941E+02  0.17839278745E+03  0.17120000000E+03 0.  0.
        998    1    1    2    0    0 -0.18531736192E+02  0.29647966876E+01  0.12330195174E+04  0.12332028809E+04  0.10000000000E+02 0. -1.
</event>
<event>
 5    1  0.1520352E-008  0.3701701E+03  0.7957747E-01  0.3495110E+00
         13   -1    0    0    0    0  0.00000000000E+00  0.00000000000E+00  0.14999999963E+04  0.15000000000E+04  0.10566000000E+00 0. -1.
        994   -1    0    0    0    0 -0.00000000000E+00 -0.00000000000E+00  0.11368683772E-12  0.17120000000E+03  0.17120000000E+03 0.  0.
         13    1    1    2    0    0  0.29897091032E+02 -0.20696251188E+02  0.83010575659E+02  0.90625259727E+02  0.10566000000E+00 0. -1.
        994    1    1    2    0    0  0.99608438147E+01 -0.40568333310E+02  0.15234487118E+02  0.17688000926E+03  0.17120000000E+03 0.  0.
        998    1    1    2    0    0 -0.39857934846E+02  0.61264584497E+02  0.14017549335E+04  0.14036947310E+04  0.10000000000E+02 0. -1.
</event>
<event>
 5    1  0.1520352E-008  0.3765510E+03  0.7957747E-01  0.3466315E+00
         13   -1    0    0    0    0  0.00000000000E+00  0.00000000000E+00  0.14999999963E+04  0.15000000000E+04  0.10566000000E+00 0.  1.
        994   -1    0    0    0    0 -0.00000000000E+00 -0.00000000000E+00  0.11368683772E-12  0.17120000000E+03  0.17120000000E+03 0.  0.
         13    1    1    2    0    0  0.20037241819E+03  0.11798785287E+03  0.12620947968E+04  0.12833368718E+04  0.10566000000E+00 0.  1.
        994    1    1    2    0    0 -0.17853171497E+03 -0.11338740862E+03  0.18344831086E+03  0.32816611715E+03  0.17120000000E+03 0.  0.
        998    1    1    2    0    0 -0.21840703211E+02 -0.46004442514E+01  0.54456888648E+02  0.59697011024E+02  0.10000000000E+02 0.  1.
</event>
<event>
 5    1  0.1520352E-008  0.3853876E+03  0.7957747E-01  0.3428030E+00
         13   -1    0    0    0    0  0.00000000000E+00  0.00000000000E+00  0.14999999963E+04  0.15000000000E+04  0.10566000000E+00 0.  1.
        994   -1    0    0    0    0 -0.00000000000E+00 -0.00000000000E+00  0.11368683772E-12  0.17120000000E+03  0.17120000000E+03 0.  0.
         13    1    1    2    0    0  0.37091401936E+01  0.98561438271E+01  0.39059957889E+02  0.40454823772E+02  0.10566000000E+00 0.  1.
        994    1    1    2    0    0 -0.70046856615E+01 -0.26473848833E+01  0.16220161150E+01  0.17137136635E+03  0.17120000000E+03 0.  0.
        998    1    1    2    0    0  0.32955454679E+01 -0.72087589438E+01  0.14593180223E+04  0.14593738099E+04  0.10000000000E+02 0.  1.
</event>
<event>
 5    1  0.1520352E-008  0.3844377E+03  0.7957747E-01  0.3432060E+00
         13   -1    0    0    0    0  0.00000000000E+00  0.00000000000E+00  0.14999999963E+04  0.15000000000E+04  0.10566000000E+00 0.  1.
        994   -1    0    0    0    0 -0.00000000000E+00 -0.00000000000E+00  0.11368683772E-12  0.17120000000E+03  0.17120000000E+03 0.  0.
         13    1    1    2    0    0  0.17057526381E+02  0.63191995264E+00  0.73861687454E+02  0.75808433348E+02  0.10566000000E+00 0.  1.
        994    1    1    2    0    0 -0.15769278670E+02  0.65815581210E+00  0.27307028829E+01  0.17194766662E+03  0.17120000000E+03 0.  0.
        998    1    1    2    0    0 -0.12882477104E+01 -0.12900757647E+01  0.14234076059E+04  0.14234439000E+04  0.10000000000E+02 0.  1.
</event>
<event>
 5    1  0.1520352E-008  0.3840710E+03  0.7957747E-01  0.3433622E+00
         13   -1    0    0    0    0  0.00000000000E+00  0.00000000000E+00  0.14999999963E+04  0.15000000000E+04  0.10566000000E+00 0. -1.
        994   -1    0    0    0    0 -0.00000000000E+00 -0.00000000000E+00  0.11368683772E-12  0.17120000000E+03  0.17120000000E+03 0.  0.
         13    1    1    2    0    0 -0.76934454749E+01  0.12414106786E+02  0.51850012290E+02  0.53867746279E+02  0.10566000000E+00 0. -1.
        994    1    1    2    0    0 -0.61325082792E+01 -0.93651359177E+01  0.25055327000E+01  0.17158388946E+03  0.17120000000E+03 0.  0.
        998    1    1    2    0    0  0.13825953754E+02 -0.30489708686E+01  0.14456444513E+04  0.14457483643E+04  0.10000000000E+02 0. -1.
</event>
<event>
 5    1  0.1520352E-008  0.3808646E+03  0.7957747E-01  0.3447402E+00
         13   -1    0    0    0    0  0.00000000000E+00  0.00000000000E+00  0.14999999963E+04  0.15000000000E+04  0.10566000000E+00 0. -1.
        994   -1    0    0    0    0 -0.00000000000E+00 -0.00000000000E+00  0.11368683772E-12  0.17120000000E+03  0.17120000000E+03 0.  0.
         13    1    1    2    0    0  0.61177592648E+01 -0.86203565539E+01  0.13612138159E+02  0.17234819257E+02  0.10566000000E+00 0. -1.
        994    1    1    2    0    0 -0.50021649088E+01  0.27350646595E+01  0.38056711939E+01  0.17133716866E+03  0.17120000000E+03 0.  0.
        998    1    1    2    0    0 -0.11155943560E+01  0.58852918944E+01  0.14825821869E+04  0.14826280121E+04  0.10000000000E+02 0. -1.
</event>
<event>
 5    1  0.1520352E-008  0.3844019E+03  0.7957747E-01  0.3432213E+00
         13   -1    0    0    0    0  0.00000000000E+00  0.00000000000E+00  0.14999999963E+04  0.15000000000E+04  0.10566000000E+00 0.  1.
        994   -1    0    0    0    0 -0.00000000000E+00 -0.00000000000E+00  0.11368683772E-12  0.17120000000E+03  0.17120000000E+03 0.  0.
         13    1    1    2    0    0 -0.20197666912E+01 -0.22468450524E+02  0.11932065824E+03  0.12143451475E+03  0.10566000000E+00 0.  1.
        994    1    1    2    0    0  0.65438498239E+01  0.26175141373E+02  0.43296917661E+01  0.17336708519E+03  0.17120000000E+03 0.  0.
        998    1    1    2    0    0 -0.45240831327E+01 -0.37066908485E+01  0.13763496463E+04  0.13763984001E+04  0.10000000000E+02 0.  1.
</event>
<event>
 5    1  0.1520352E-008  0.3737810E+03  0.7957747E-01  0.3478693E+00
         13   -1    0    0    0    0  0.00000000000E+00  0.00000000000E+00  0.14999999963E+04  0.15000000000E+04  0.10566000000E+00 0.  1.
        994   -1    0    0    0    0 -0.00000000000E+00 -0.00000000000E+00  0.11368683772E-12  0.17120000000E+03  0.17120000000E+03 0.  0.
         13    1    1    2    0    0 -0.32209177342E+01  0.15330547288E+02  0.13196745099E+02  0.20483291640E+02  0.10566000000E+00 0.  1.
        994    1    1    2    0    0 -0.64411028371E+01 -0.25002178929E+02  0.95846320950E+01  0.17340098595E+03  0.17120000000E+03 0.  0.
        998    1    1    2    0    0  0.96620205713E+01  0.96716316410E+01  0.14772186191E+04  0.14773157224E+04  0.10000000000E+02 0.  1.
</event>
<event>
 5    1  0.1520352E-008  0.3790540E+03  0.7957747E-01  0.3455288E+00
         13   -1    0    0    0    0  0.00000000000E+00  0.00000000000E+00  0.14999999963E+04  0.15000000000E+04  0.10566000000E+00 0.  1.
        994   -1    0    0    0    0 -0.00000000000E+00 -0.00000000000E+00  0.11368683772E-12  0.17120000000E+03  0.17120000000E+03 0.  0.
         13    1    1    2    0    0 -0.17793885651E+02 -0.40737652816E+02  0.23625222638E+03  0.24039822037E+03  0.10566000000E+00 0.  1.
        994    1    1    2    0    0 -0.16308991717E+02  0.21355185329E+02  0.70364855489E+01  0.17343869026E+03  0.17120000000E+03 0.  0.
        998    1    1    2    0    0  0.34102877367E+02  0.19382467487E+02  0.12567112844E+04  0.12573630894E+04  0.10000000000E+02 0.  1.
</event>
<event>
 5    1  0.1520352E-008  0.3749329E+03  0.7957747E-01  0.3473523E+00
         13   -1    0    0    0    0  0.00000000000E+00  0.00000000000E+00  0.14999999963E+04  0.15000000000E+04  0.10566000000E+00 0. -1.
        994   -1    0    0    0    0 -0.00000000000E+00 -0.00000000000E+00  0.11368683772E-12  0.17120000000E+03  0.17120000000E+03 0.  0.
         13    1    1    2    0    0  0.25049255937E+02 -0.42794920420E+02  0.10774384490E+03  0.11860698847E+03  0.10566000000E+00 0. -1.
        994    1    1    2    0    0  0.42656433642E+02 -0.14916924555E+02  0.20871679743E+02  0.17828952012E+03  0.17120000000E+03 0.  0.
        998    1    1    2    0    0 -0.67705689578E+02  0.57711844975E+02  0.13713844716E+04  0.13743034914E+04  0.10000000000E+02 0. -1.
</event>
<event>
 5    1  0.1520352E-008  0.3801052E+03  0.7957747E-01  0.3450700E+00
         13   -1    0    0    0    0  0.00000000000E+00  0.00000000000E+00  0.14999999963E+04  0.15000000000E+04  0.10566000000E+00 0.  1.
        994   -1    0    0    0    0 -0.00000000000E+00 -0.00000000000E+00  0.11368683772E-12  0.17120000000E+03  0.17120000000E+03 0.  0.
         13    1    1    2    0    0  0.95200859165E+00 -0.15653596601E+02  0.28416778531E+02  0.32457139015E+02  0.10566000000E+00 0.  1.
        994    1    1    2    0    0  0.33808046264E+01  0.12068132283E+02  0.46050982639E+01  0.17171987825E+03  0.17120000000E+03 0.  0.
        998    1    1    2    0    0 -0.43328132180E+01  0.35854643181E+01  0.14669781195E+04  0.14670229827E+04  0.10000000000E+02 0.  1.
</event>
<event>
 5    1  0.1520352E-008  0.3843741E+03  0.7957747E-01  0.3432331E+00
         13   -1    0    0    0    0  0.00000000000E+00  0.00000000000E+00  0.14999999963E+04  0.15000000000E+04  0.10566000000E+00 0. -1.
        994   -1    0    0    0    0 -0.00000000000E+00 -0.00000000000E+00  0.11368683772E-12  0.17120000000E+03  0.17120000000E+03 0.  0.
         13    1    1    2    0    0  0.87989431466E+00  0.16384161811E+02  0.69125808918E+02  0.71046488969E+02  0.10566000000E+00 0. -1.
        994    1    1    2    0    0 -0.80872748885E+01 -0.10184376931E+02  0.24987307631E+01  0.17171141256E+03  0.17120000000E+03 0.  0.
        998    1    1    2    0    0  0.72073805738E+01 -0.61997848809E+01  0.14283754566E+04  0.14284420985E+04  0.10000000000E+02 0. -1.
</event>
<event>
 5    1  0.1520352E-008  0.3695429E+03  0.7957747E-01  0.3497994E+00
         13   -1    0    0    0    0  0.00000000000E+00  0.00000000000E+00  0.14999999963E+04  0.15000000000E+04  0.10566000000E+00 0.  1.
        994   -1    0    0    0    0 -0.00000000000E+00 -0.00000000000E+00  0.11368683772E-12  0.17120000000E+03  0.17120000000E+03 0.  0.
         13    1    1    2    0    0 -0.39171542045E+02 -0.23545430762E+02  0.99355483896E+02  0.10936324959E+03  0.10566000000E+00 0.  1.
        994    1    1    2    0    0  0.46586115817E+02  0.14489237276E+02  0.17796679395E+02  0.17890323077E+03  0.17120000000E+03 0.  0.
        998    1    1    2    0    0 -0.74145737726E+01  0.90561934859E+01  0.13828478330E+04  0.13829335196E+04  0.10000000000E+02 0.  1.
</event>
<event>
 5    1  0.1520352E-008  0.3857583E+03  0.7957747E-01  0.3426463E+00
         13   -1    0    0    0    0  0.00000000000E+00  0.00000000000E+00  0.14999999963E+04  0.15000000000E+04  0.10566000000E+00 0.  1.
        994   -1    0    0    0    0 -0.00000000000E+00 -0.00000000000E+00  0.11368683772E-12  0.17120000000E+03  0.17120000000E+03 0.  0.
         13    1    1    2    0    0  0.12162387598E+02  0.68477405085E+01  0.79725877761E+02  0.80938507343E+02  0.10566000000E+00 0.  1.
        994    1    1    2    0    0 -0.89671896290E+01  0.17688373734E+01  0.15282498212E+01  0.17145061920E+03  0.17120000000E+03 0.  0.
        998    1    1    2    0    0 -0.31951979694E+01 -0.86165778819E+01  0.14187458687E+04  0.14188108735E+04  0.10000000000E+02 0.  1.
</event>
<event>
 5    1  0.1520352E-008  0.3789302E+03  0.7957747E-01  0.3455830E+00
         13   -1    0    0    0    0  0.00000000000E+00  0.00000000000E+00  0.14999999963E+04  0.15000000000E+04  0.10566000000E+00 0. -1.
        994   -1    0    0    0    0 -0.00000000000E+00 -0.00000000000E+00  0.11368683772E-12  0.17120000000E+03  0.17120000000E+03 0.  0.
         13    1    1    2    0    0  0.22682255525E+02  0.61772881727E+00  0.53644904512E+02  0.58246487007E+02  0.10566000000E+00 0. -1.
        994    1    1    2    0    0 -0.13251154012E+02  0.76246065240E+01  0.54586322808E+01  0.17196791670E+03  0.17120000000E+03 0.  0.
        998    1    1    2    0    0 -0.94311015131E+01 -0.82423353413E+01  0.14408964595E+04  0.14409855963E+04  0.10000000000E+02 0. -1.
</event>
<event>
 5    1  0.1520352E-008  0.3822260E+03  0.7957747E-01  0.3441523E+00
         13   -1    0    0    0    0  0.00000000000E+00  0.00000000000E+00  0.14999999963E+04  0.15000000000E+04  0.10566000000E+00 0.  1.
        994   -1    0    0    0    0 -0.00000000000E+00 -0.00000000000E+00  0.11368683772E-12  0.17120000000E+03  0.17120000000E+03 0.  0.
         13    1    1    2    0    0  0.28287193189E+02  0.68784889470E+01  0.12585908959E+03  0.12918204405E+03  0.10566000000E+00 0.  1.
        994    1    1    2    0    0 -0.32462565632E+02 -0.76359125201E+01  0.67130274470E+01  0.17454692797E+03  0.17120000000E+03 0.  0.
        998    1    1    2    0    0  0.41753724426E+01  0.75742357318E+00  0.13674278792E+04  0.13674710280E+04  0.10000000000E+02 0.  1.
</event>
<event>
 5    1  0.1520352E-008  0.3819085E+03  0.7957747E-01  0.3442890E+00
         13   -1    0    0    0    0  0.00000000000E+00  0.00000000000E+00  0.14999999963E+04  0.15000000000E+04  0.10566000000E+00 0. -1.
        994   -1    0    0    0    0 -0.00000000000E+00 -0.00000000000E+00  0.11368683772E-12  0.17120000000E+03  0.17120000000E+03 0.  0.
         13    1    1    2    0    0 -0.10237287970E+02 -0.14336056663E+02  0.49730947369E+02  0.52758912762E+02  0.10566000000E+00 0. -1.
        994    1    1    2    0    0 -0.42181951487E+01  0.56947565212E+01  0.33396848673E+01  0.17137916127E+03  0.17120000000E+03 0.  0.
        998    1    1    2    0    0  0.14455483119E+02  0.86413001421E+01  0.14469293640E+04  0.14470619260E+04  0.10000000000E+02 0. -1.
</event>
<event>
 5    1  0.1520352E-008  0.3842844E+03  0.7957747E-01  0.3432713E+00
         13   -1    0    0    0    0  0.00000000000E+00  0.00000000000E+00  0.14999999963E+04  0.15000000000E+04  0.10566000000E+00 0. -1.
        994   -1    0    0    0    0 -0.00000000000E+00 -0.00000000000E+00  0.11368683772E-12  0.17120000000E+03  0.17120000000E+03 0.  0.
         13    1    1    2    0    0  0.21296946290E+02  0.99495802180E+00  0.10831540357E+03  0.11039378460E+03  0.10566000000E+00 0. -1.
        994    1    1    2    0    0 -0.20380162955E+02 -0.53070063234E+00  0.33570592466E+01  0.17244228754E+03  0.17120000000E+03 0.  0.
        998    1    1    2    0    0 -0.91678333559E+00 -0.46425738946E+00  0.13883275335E+04  0.13883639279E+04  0.10000000000E+02 0.  0.
</event>
<event>
 5    1  0.1520352E-008  0.3019792E+03  0.7957747E-01  0.3881990E+00
         13   -1    0    0    0    0  0.00000000000E+00  0.00000000000E+00  0.14999999963E+04  0.15000000000E+04  0.10566000000E+00 0.  1.
        994   -1    0    0    0    0 -0.00000000000E+00 -0.00000000000E+00  0.11368683772E-12  0.17120000000E+03  0.17120000000E+03 0.  0.
         13    1    1    2    0    0 -0.22443938569E+03  0.10480148607E+02  0.54798160091E+03  0.59225561834E+03  0.10566000000E+00 0.  1.
        994    1    1    2    0    0  0.22626945130E+03  0.62677202533E+01  0.25466140369E+03  0.38131223353E+03  0.17120000000E+03 0.  0.
        998    1    1    2    0    0 -0.18300656140E+01 -0.16747868861E+02  0.69735699168E+03  0.69763214813E+03  0.10000000000E+02 0.  1.
</event>
<event>
 5    1  0.1520352E-008  0.3848081E+03  0.7957747E-01  0.3430487E+00
         13   -1    0    0    0    0  0.00000000000E+00  0.00000000000E+00  0.14999999963E+04  0.15000000000E+04  0.10566000000E+00 0. -1.
        994   -1    0    0    0    0 -0.00000000000E+00 -0.00000000000E+00  0.11368683772E-12  0.17120000000E+03  0.17120000000E+03 0.  0.
         13    1    1    2    0    0 -0.34940860708E+01  0.11866235159E+02  0.45589510007E+02  0.47238022408E+02  0.10566000000E+00 0. -1.
        994    1    1    2    0    0 -0.64146696776E+01 -0.42459901337E+01  0.19202158804E+01  0.17138349876E+03  0.17120000000E+03 0.  0.
        998    1    1    2    0    0  0.99087557484E+01 -0.76202450255E+01  0.14524902704E+04  0.14525784788E+04  0.10000000000E+02 0. -1.
</event>
<event>
 5    1  0.1520352E-008  0.3920272E+03  0.7957747E-01  0.3400405E+00
         13   -1    0    0    0    0  0.00000000000E+00  0.00000000000E+00  0.14999999963E+04  0.15000000000E+04  0.10566000000E+00 0.  1.
        994   -1    0    0    0    0 -0.00000000000E+00 -0.00000000000E+00  0.11368683772E-12  0.17120000000E+03  0.17120000000E+03 0.  0.
         13    1    1    2    0    0 -0.11221326646E+03  0.13869708176E+02  0.24447445136E+03  0.26935470018E+03  0.10566000000E+00 0.  1.
        994    1    1    2    0    0  0.97545150051E+02  0.21334803585E+02  0.61990995751E+02  0.20765970648E+03  0.17120000000E+03 0.  0.
        998    1    1    2    0    0  0.14668116412E+02 -0.35204511762E+02  0.11935345492E+04  0.11941855933E+04  0.10000000000E+02 0.  1.
</event>
<event>
 5    1  0.1520352E-008  0.3721324E+03  0.7957747E-01  0.3486148E+00
         13   -1    0    0    0    0  0.00000000000E+00  0.00000000000E+00  0.14999999963E+04  0.15000000000E+04  0.10566000000E+00 0.  1.
        994   -1    0    0    0    0 -0.00000000000E+00 -0.00000000000E+00  0.11368683772E-12  0.17120000000E+03  0.17120000000E+03 0.  0.
         13    1    1    2    0    0 -0.99979860630E+01  0.65958414116E+02  0.29799483001E+03  0.30537092526E+03  0.10566000000E+00 0.  1.
        994    1    1    2    0    0  0.99065104795E+01 -0.23130483386E+02  0.10335042502E+02  0.17334766025E+03  0.17120000000E+03 0.  0.
        998    1    1    2    0    0  0.91475583547E-01 -0.42827930730E+02  0.11916701238E+04  0.11924814145E+04  0.10000000000E+02 0.  1.
</event>
<event>
 5    1  0.1520352E-008  0.3803966E+03  0.7957747E-01  0.3449433E+00
         13   -1    0    0    0    0  0.00000000000E+00  0.00000000000E+00  0.14999999963E+04  0.15000000000E+04  0.10566000000E+00 0.  1.
        994   -1    0    0    0    0 -0.00000000000E+00 -0.00000000000E+00  0.11368683772E-12  0.17120000000E+03  0.17120000000E+03 0.  0.
         13    1    1    2    0    0  0.25923301842E+02 -0.28120308866E+01  0.83938657230E+02  0.87895588272E+02  0.10566000000E+00 0.  1.
        994    1    1    2    0    0 -0.19234579380E+02 -0.17441153435E+01  0.51793686055E+01  0.17236379214E+03  0.17120000000E+03 0.  0.
        998    1    1    2    0    0 -0.66887224623E+01  0.45561462301E+01  0.14108819704E+04  0.14109406196E+04  0.10000000000E+02 0.  1.
</event>
<event>
 5    1  0.1520352E-008  0.3797233E+03  0.7957747E-01  0.3452364E+00
         13   -1    0    0    0    0  0.00000000000E+00  0.00000000000E+00  0.14999999963E+04  0.15000000000E+04  0.10566000000E+00 0. -1.
        994   -1    0    0    0    0 -0.00000000000E+00 -0.00000000000E+00  0.11368683772E-12  0.17120000000E+03  0.17120000000E+03 0.  0.
         13    1    1    2    0    0  0.27959825880E+02  0.86459883398E+01  0.92642442802E+02  0.97155228114E+02  0.10566000000E+00 0. -1.
        994    1    1    2    0    0 -0.31800901008E+02 -0.21926160981E+01  0.76802421168E+01  0.17431159167E+03  0.17120000000E+03 0.  0.
        998    1    1    2    0    0  0.38410751283E+01 -0.64533722417E+01  0.13996773114E+04  0.13997331802E+04  0.10000000000E+02 0. -1.
</event>
<event>
 5    1  0.1520352E-008  0.3841729E+03  0.7957747E-01  0.3433188E+00
         13   -1    0    0    0    0  0.00000000000E+00  0.00000000000E+00  0.14999999963E+04  0.15000000000E+04  0.10566000000E+00 0. -1.
        994   -1    0    0    0    0 -0.00000000000E+00 -0.00000000000E+00  0.11368683772E-12  0.17120000000E+03  0.17120000000E+03 0.  0.
         13    1    1    2    0    0  0.16665158147E+02 -0.16592774765E+02  0.11410182549E+03  0.11650015199E+03  0.10566000000E+00 0. -1.
        994    1    1    2    0    0 -0.14183320864E+02  0.39579154128E+02  0.78921388662E+01  0.17646359933E+03  0.17120000000E+03 0.  0.
        998    1    1    2    0    0 -0.24818372822E+01 -0.22986379364E+02  0.13780060319E+04  0.13782362487E+04  0.10000000000E+02 0. -1.
</event>
<event>
 5    1  0.1520352E-008  0.3835932E+03  0.7957747E-01  0.3435660E+00
         13   -1    0    0    0    0  0.00000000000E+00  0.00000000000E+00  0.14999999963E+04  0.15000000000E+04  0.10566000000E+00 0.  1.
        994   -1    0    0    0    0 -0.00000000000E+00 -0.00000000000E+00  0.11368683772E-12  0.17120000000E+03  0.17120000000E+03 0.  0.
         13    1    1    2    0    0 -0.11029430739E+02 -0.60170850515E+01  0.34159759963E+02  0.36397170490E+02  0.10566000000E+00 0.  1.
        994    1    1    2    0    0  0.73338059574E+00  0.13758871569E+01  0.23382115940E+01  0.17122306546E+03  0.17120000000E+03 0.  0.
        998    1    1    2    0    0  0.10296050143E+02  0.46411978946E+01  0.14635020247E+04  0.14635797640E+04  0.10000000000E+02 0.  1.
</event>
<event>
 5    1  0.1520352E-008  0.3793777E+03  0.7957747E-01  0.3453872E+00
         13   -1    0    0    0    0  0.00000000000E+00  0.00000000000E+00  0.14999999963E+04  0.15000000000E+04  0.10566000000E+00 0.  1.
        994   -1    0    0    0    0 -0.00000000000E+00 -0.00000000000E+00  0.11368683772E-12  0.17120000000E+03  0.17120000000E+03 0.  0.
         13    1    1    2    0    0  0.84978048083E+00 -0.22481851237E+02  0.57227643193E+02  0.61491219466E+02  0.10566000000E+00 0.  1.
        994    1    1    2    0    0  0.11427701196E+01  0.54558309734E+01  0.45516791427E+01  0.17135118849E+03  0.17120000000E+03 0.  0.
        998    1    1    2    0    0 -0.19925506005E+01  0.17026020264E+02  0.14382206739E+04  0.14383575920E+04  0.10000000000E+02 0.  1.
</event>
<event>
 5    1  0.1520352E-008  0.3823878E+03  0.7957747E-01  0.3440827E+00
         13   -1    0    0    0    0  0.00000000000E+00  0.00000000000E+00  0.14999999963E+04  0.15000000000E+04  0.10566000000E+00 0. -1.
        994   -1    0    0    0    0 -0.00000000000E+00 -0.00000000000E+00  0.11368683772E-12  0.17120000000E+03  0.17120000000E+03 0.  0.
         13    1    1    2    0    0 -0.25501166965E+02 -0.11223546187E+02  0.15510676092E+03  0.15758932690E+03  0.10566000000E+00 0. -1.
        994    1    1    2    0    0 -0.62842084639E+01  0.26874882949E+01  0.30875726914E+01  0.17136419397E+03  0.17120000000E+03 0.  0.
        998    1    1    2    0    0  0.31785375429E+02  0.85360578925E+01  0.13418056627E+04  0.13422464791E+04  0.10000000000E+02 0. -1.
</event>
<event>
 5    1  0.1520352E-008  0.3851357E+03  0.7957747E-01  0.3429097E+00
         13   -1    0    0    0    0  0.00000000000E+00  0.00000000000E+00  0.14999999963E+04  0.15000000000E+04  0.10566000000E+00 0.  1.
        994   -1    0    0    0    0 -0.00000000000E+00 -0.00000000000E+00  0.11368683772E-12  0.17120000000E+03  0.17120000000E+03 0.  0.
         13    1    1    2    0    0 -0.14342696930E+02  0.68464409077E+01  0.82798953647E+02  0.84310524832E+02  0.10566000000E+00 0.  1.
        994    1    1    2    0    0 -0.58596488900E+00 -0.19116666598E+02  0.27661188522E+01  0.17228720704E+03  0.17120000000E+03 0.  0.
        998    1    1    2    0    0  0.14928661819E+02  0.12270225691E+02  0.14144349238E+04  0.14146022681E+04  0.10000000000E+02 0.  1.
</event>
<event>
 5    1  0.1520352E-008  0.2574027E+03  0.7957747E-01  0.4256525E+00
         13   -1    0    0    0    0  0.00000000000E+00  0.00000000000E+00  0.14999999963E+04  0.15000000000E+04  0.10566000000E+00 0.  1.
        994   -1    0    0    0    0 -0.00000000000E+00 -0.00000000000E+00  0.11368683772E-12  0.17120000000E+03  0.17120000000E+03 0.  0.
         13    1    1    2    0    0 -0.72680616730E+01  0.16421786370E+03  0.46771091191E+03  0.49575582676E+03  0.10566000000E+00 0.  1.
        994    1    1    2    0    0 -0.12170726827E+03 -0.10825145717E+03  0.14546695452E+03  0.27749074216E+03  0.17120000000E+03 0.  0.
        998    1    1    2    0    0  0.12897532995E+03 -0.55966406534E+02  0.88682212985E+03  0.89795343108E+03  0.10000000000E+02 0.  1.
</event>
<event>
 5    1  0.1520352E-008  0.3835551E+03  0.7957747E-01  0.3435823E+00
         13   -1    0    0    0    0  0.00000000000E+00  0.00000000000E+00  0.14999999963E+04  0.15000000000E+04  0.10566000000E+00 0.  1.
        994   -1    0    0    0    0 -0.00000000000E+00 -0.00000000000E+00  0.11368683772E-12  0.17120000000E+03  0.17120000000E+03 0.  0.
         13    1    1    2    0    0  0.22841508673E+02 -0.19253842545E+01  0.12502745563E+03  0.12711143712E+03  0.10566000000E+00 0.  1.
        994    1    1    2    0    0  0.80054674991E+00 -0.51690957714E+01  0.24395987766E+01  0.17129726229E+03  0.17120000000E+03 0.  0.
        998    1    1    2    0    0 -0.23642055423E+02  0.70944800259E+01  0.13725329419E+04  0.13727913006E+04  0.10000000000E+02 0.  1.
</event>
<event>
 5    1  0.1520352E-008  0.3808605E+03  0.7957747E-01  0.3447420E+00
         13   -1    0    0    0    0  0.00000000000E+00  0.00000000000E+00  0.14999999963E+04  0.15000000000E+04  0.10566000000E+00 0.  1.
        994   -1    0    0    0    0 -0.00000000000E+00 -0.00000000000E+00  0.11368683772E-12  0.17120000000E+03  0.17120000000E+03 0.  0.
         13    1    1    2    0    0 -0.42113715309E+01 -0.15985466317E+02  0.35141021000E+02  0.38835207022E+02  0.10566000000E+00 0.  1.
        994    1    1    2    0    0  0.24302596773E+01  0.14223924837E+02  0.43938013602E+01  0.17186323542E+03  0.17120000000E+03 0.  0.
        998    1    1    2    0    0  0.17811118536E+01  0.17615414799E+01  0.14604651739E+04  0.14605015576E+04  0.10000000000E+02 0.  1.
</event>
<event>
 5    1  0.1520352E-008  0.3815466E+03  0.7957747E-01  0.3444452E+00
         13   -1    0    0    0    0  0.00000000000E+00  0.00000000000E+00  0.14999999963E+04  0.15000000000E+04  0.10566000000E+00 0. -1.
        994   -1    0    0    0    0 -0.00000000000E+00 -0.00000000000E+00  0.11368683772E-12  0.17120000000E+03  0.17120000000E+03 0.  0.
         13    1    1    2    0    0 -0.21301465726E+02 -0.19618557653E+02  0.10993229975E+03  0.11368272489E+03  0.10566000000E+00 0. -1.
        994    1    1    2    0    0  0.39060760489E+02  0.14135560777E+02  0.91148662239E+01  0.17640316855E+03  0.17120000000E+03 0.  0.
        998    1    1    2    0    0 -0.17759294763E+02  0.54829968753E+01  0.13809528303E+04  0.13811141066E+04  0.10000000000E+02 0. -1.
</event>
<event>
 5    1  0.1520352E-008  0.3835537E+03  0.7957747E-01  0.3435829E+00
         13   -1    0    0    0    0  0.00000000000E+00  0.00000000000E+00  0.14999999963E+04  0.15000000000E+04  0.10566000000E+00 0. -1.
        994   -1    0    0    0    0 -0.00000000000E+00 -0.00000000000E+00  0.11368683772E-12  0.17120000000E+03  0.17120000000E+03 0.  0.
         13    1    1    2    0    0 -0.15518409613E+02 -0.12494849412E+02  0.90110889749E+02  0.92287192579E+02  0.10566000000E+00 0. -1.
        994    1    1    2    0    0 -0.19227280804E+00  0.23939768195E+01  0.23689714059E+01  0.17123323310E+03  0.17120000000E+03 0.  0.
        998    1    1    2    0    0  0.15710682421E+02  0.10100872592E+02  0.14075201351E+04  0.14076795743E+04  0.10000000000E+02 0. -1.
</event>
<event>
 5    1  0.1520352E-008  0.3791562E+03  0.7957747E-01  0.3454841E+00
         13   -1    0    0    0    0  0.00000000000E+00  0.00000000000E+00  0.14999999963E+04  0.15000000000E+04  0.10566000000E+00 0. -1.
        994   -1    0    0    0    0 -0.00000000000E+00 -0.00000000000E+00  0.11368683772E-12  0.17120000000E+03  0.17120000000E+03 0.  0.
         13    1    1    2    0    0 -0.27693733443E+02 -0.34658331676E+01  0.79992353793E+02  0.84721559836E+02  0.10566000000E+00 0. -1.
        994    1    1    2    0    0  0.28117372204E+02 -0.83032489021E+00  0.72167993463E+01  0.17364561109E+03  0.17120000000E+03 0.  0.
        998    1    1    2    0    0 -0.42363876052E+00  0.42961580578E+01  0.14127908431E+04  0.14128328291E+04  0.10000000000E+02 0. -1.
</event>
<event>
 5    1  0.1520352E-008  0.3853283E+03  0.7957747E-01  0.3428281E+00
         13   -1    0    0    0    0  0.00000000000E+00  0.00000000000E+00  0.14999999963E+04  0.15000000000E+04  0.10566000000E+00 0.  1.
        994   -1    0    0    0    0 -0.00000000000E+00 -0.00000000000E+00  0.11368683772E-12  0.17120000000E+03  0.17120000000E+03 0.  0.
         13    1    1    2    0    0  0.24571582649E+01  0.12460600285E+02  0.56662657947E+02  0.58068684812E+02  0.10566000000E+00 0.  1.
        994    1    1    2    0    0  0.60469284244E+01 -0.54037617013E+01  0.16832888181E+01  0.17140023175E+03  0.17120000000E+03 0.  0.
        998    1    1    2    0    0 -0.85040866893E+01 -0.70568385833E+01  0.14416540495E+04  0.14417310834E+04  0.10000000000E+02 0.  1.
</event>
<event>
 5    1  0.1520352E-008  0.3836375E+03  0.7957747E-01  0.3435471E+00
         13   -1    0    0    0    0  0.00000000000E+00  0.00000000000E+00  0.14999999963E+04  0.15000000000E+04  0.10566000000E+00 0. -1.
        994   -1    0    0    0    0 -0.00000000000E+00 -0.00000000000E+00  0.11368683772E-12  0.17120000000E+03  0.17120000000E+03 0.  0.
         13    1    1    2    0    0  0.12534795459E+02 -0.67239292911E+01  0.43188710737E+02  0.45470960200E+02  0.10566000000E+00 0. -1.
        994    1    1    2    0    0 -0.10654872825E+02  0.52145176465E+00  0.26841047070E+01  0.17155303158E+03  0.17120000000E+03 0.  0.
        998    1    1    2    0    0 -0.18799226341E+01  0.62024775265E+01  0.14541271808E+04  0.14541760082E+04  0.10000000000E+02 0. -1.
</event>
<event>
 5    1  0.1520352E-008  0.4003295E+03  0.7957747E-01  0.3367151E+00
         13   -1    0    0    0    0  0.00000000000E+00  0.00000000000E+00  0.14999999963E+04  0.15000000000E+04  0.10566000000E+00 0. -1.
        994   -1    0    0    0    0 -0.00000000000E+00 -0.00000000000E+00  0.11368683772E-12  0.17120000000E+03  0.17120000000E+03 0.  0.
         13    1    1    2    0    0 -0.52012558522E+02 -0.13222275073E+02  0.43786786765E+02  0.69263472779E+02  0.10566000000E+00 0. -1.
        994    1    1    2    0    0  0.15838348387E+02  0.21562030371E+02  0.30786640142E+02  0.17599156697E+03  0.17120000000E+03 0.  0.
        998    1    1    2    0    0  0.36174210135E+02 -0.83397552982E+01  0.14254265694E+04  0.14259449603E+04  0.10000000000E+02 0. -1.
</event>
<event>
 5    1  0.1520352E-008  0.3702171E+03  0.7957747E-01  0.3494894E+00
         13   -1    0    0    0    0  0.00000000000E+00  0.00000000000E+00  0.14999999963E+04  0.15000000000E+04  0.10566000000E+00 0. -1.
        994   -1    0    0    0    0 -0.00000000000E+00 -0.00000000000E+00  0.11368683772E-12  0.17120000000E+03  0.17120000000E+03 0.  0.
         13    1    1    2    0    0 -0.62944761416E+02 -0.85671871010E+02  0.39036984087E+03  0.40458662397E+03  0.10566000000E+00 0. -1.
        994    1    1    2    0    0  0.57885475859E+02  0.80219469144E+02  0.46123583511E+02  0.20303378167E+03  0.17120000000E+03 0.  0.
        998    1    1    2    0    0  0.50592855570E+01  0.54524018660E+01  0.10635065719E+04  0.10635795944E+04  0.10000000000E+02 0.  0.
</event>
<event>
 5    1  0.1520352E-008  0.3829330E+03  0.7957747E-01  0.3438486E+00
         13   -1    0    0    0    0  0.00000000000E+00  0.00000000000E+00  0.14999999963E+04  0.15000000000E+04  0.10566000000E+00 0. -1.
        994   -1    0    0    0    0 -0.00000000000E+00 -0.00000000000E+00  0.11368683772E-12  0.17120000000E+03  0.17120000000E+03 0.  0.
         13    1    1    2    0    0  0.10521261090E+02  0.21586913847E+02  0.10651675191E+03  0.10919029896E+03  0.10566000000E+00 0. -1.
        994    1    1    2    0    0 -0.15100196489E+01 -0.17556246546E+02  0.36885494668E+01  0.17214397274E+03  0.17120000000E+03 0.  0.
        998    1    1    2    0    0 -0.90112414411E+01 -0.40306673010E+01  0.13897946949E+04  0.13898657283E+04  0.10000000000E+02 0. -1.
</event>
<event>
 5    1  0.1520352E-008  0.3798861E+03  0.7957747E-01  0.3451655E+00
         13   -1    0    0    0    0  0.00000000000E+00  0.00000000000E+00  0.14999999963E+04  0.15000000000E+04  0.10566000000E+00 0. -1.
        994   -1    0    0    0    0 -0.00000000000E+00 -0.00000000000E+00  0.11368683772E-12  0.17120000000E+03  0.17120000000E+03 0.  0.
         13    1    1    2    0    0 -0.67301236953E+02  0.73551647838E+02  0.54400635106E+03  0.55306620087E+03  0.10566000000E+00 0. -1.
        994    1    1    2    0    0  0.93257591599E+02 -0.80386972378E+02  0.56674491325E+02  0.21835860800E+03  0.17120000000E+03 0.  0.
        998    1    1    2    0    0 -0.25956354646E+02  0.68353245398E+01  0.89931915390E+03  0.89977519113E+03  0.10000000000E+02 0. -1.
</event>
<event>
 5    1  0.1520352E-008  0.3832014E+03  0.7957747E-01  0.3437336E+00
         13   -1    0    0    0    0  0.00000000000E+00  0.00000000000E+00  0.14999999963E+04  0.15000000000E+04  0.10566000000E+00 0.  1.
        994   -1    0    0    0    0 -0.00000000000E+00 -0.00000000000E+00  0.11368683772E-12  0.17120000000E+03  0.17120000000E+03 0.  0.
         13    1    1    2    0    0  0.54372788177E+01 -0.10213699218E+02  0.26728748187E+02  0.29125947132E+02  0.10566000000E+00 0.  1.
        994    1    1    2    0    0  0.68502090637E+01 -0.72508319801E+00  0.26827361818E+01  0.17135952901E+03  0.17120000000E+03 0.  0.
        998    1    1    2    0    0 -0.12287487881E+02  0.10938782416E+02  0.14705885119E+04  0.14707145239E+04  0.10000000000E+02 0.  1.
</event>
<event>
 5    1  0.1520352E-008  0.3787548E+03  0.7957747E-01  0.3456599E+00
         13   -1    0    0    0    0  0.00000000000E+00  0.00000000000E+00  0.14999999963E+04  0.15000000000E+04  0.10566000000E+00 0.  1.
        994   -1    0    0    0    0 -0.00000000000E+00 -0.00000000000E+00  0.11368683772E-12  0.17120000000E+03  0.17120000000E+03 0.  0.
         13    1    1    2    0    0  0.24612273485E+02 -0.18208342822E+02  0.85558703631E+02  0.90871396410E+02  0.10566000000E+00 0.  1.
        994    1    1    2    0    0 -0.32558611885E+02  0.33774323212E+02  0.12186201215E+02  0.17792895103E+03  0.17120000000E+03 0.  0.
        998    1    1    2    0    0  0.79463384006E+01 -0.15565980390E+02  0.14022550914E+04  0.14023996526E+04  0.10000000000E+02 0.  1.
</event>
<event>
 5    1  0.1520352E-008  0.3835699E+03  0.7957747E-01  0.3435760E+00
         13   -1    0    0    0    0  0.00000000000E+00  0.00000000000E+00  0.14999999963E+04  0.15000000000E+04  0.10566000000E+00 0. -1.
        994   -1    0    0    0    0 -0.00000000000E+00 -0.00000000000E+00  0.11368683772E-12  0.17120000000E+03  0.17120000000E+03 0.  0.
         13    1    1    2    0    0  0.11262592416E+02  0.62313579912E+01  0.35758685063E+02  0.38004875106E+02  0.10566000000E+00 0. -1.
        994    1    1    2    0    0  0.31227147832E+01 -0.83450683572E+01  0.26041983048E+01  0.17145148982E+03  0.17120000000E+03 0.  0.
        998    1    1    2    0    0 -0.14385307199E+02  0.21137103660E+01  0.14616371129E+04  0.14617436351E+04  0.10000000000E+02 0. -1.
</event>
<event>
 5    1  0.1520352E-008  0.3689679E+03  0.7957747E-01  0.3500648E+00
         13   -1    0    0    0    0  0.00000000000E+00  0.00000000000E+00  0.14999999963E+04  0.15000000000E+04  0.10566000000E+00 0.  1.
        994   -1    0    0    0    0 -0.00000000000E+00 -0.00000000000E+00  0.11368683772E-12  0.17120000000E+03  0.17120000000E+03 0.  0.
         13    1    1    2    0    0 -0.34819029247E+02  0.47297161514E+02  0.16415689915E+03  0.17434702461E+03  0.10566000000E+00 0.  1.
        994    1    1    2    0    0  0.81043622225E+00 -0.40996069106E+02  0.16273771249E+02  0.17679256240E+03  0.17120000000E+03 0.  0.
        998    1    1    2    0    0  0.34008593024E+02 -0.63010924082E+01  0.13195693259E+04  0.13200604130E+04  0.10000000000E+02 0.  1.
</event>
<event>
 5    1  0.1520352E-008  0.3808206E+03  0.7957747E-01  0.3447593E+00
         13   -1    0    0    0    0  0.00000000000E+00  0.00000000000E+00  0.14999999963E+04  0.15000000000E+04  0.10566000000E+00 0.  1.
        994   -1    0    0    0    0 -0.00000000000E+00 -0.00000000000E+00  0.11368683772E-12  0.17120000000E+03  0.17120000000E+03 0.  0.
         13    1    1    2    0    0 -0.39862158161E+02  0.57507374573E+02  0.39269897859E+03  0.39888417960E+03  0.10566000000E+00 0.  1.
        994    1    1    2    0    0  0.85199941178E+02 -0.53154062595E+02  0.38105074898E+02  0.20210349101E+03  0.17120000000E+03 0.  0.
        998    1    1    2    0    0 -0.45337783017E+02 -0.43533119779E+01  0.10691959428E+04  0.10702123294E+04  0.10000000000E+02 0.  1.
</event>
<event>
 5    1  0.1520352E-008  0.3789907E+03  0.7957747E-01  0.3455565E+00
         13   -1    0    0    0    0  0.00000000000E+00  0.00000000000E+00  0.14999999963E+04  0.15000000000E+04  0.10566000000E+00 0. -1.
        994   -1    0    0    0    0 -0.00000000000E+00 -0.00000000000E+00  0.11368683772E-12  0.17120000000E+03  0.17120000000E+03 0.  0.
         13    1    1    2    0    0 -0.60176816856E+00  0.10341015709E+02  0.93970933410E+01  0.13986252469E+02  0.10566000000E+00 0. -1.
        994    1    1    2    0    0  0.12355129015E+01 -0.11058571479E+02  0.50589312193E+01  0.17163581002E+03  0.17120000000E+03 0.  0.
        998    1    1    2    0    0 -0.63374473296E+00  0.71755577031E+00  0.14855439717E+04  0.14855779375E+04  0.10000000000E+02 0. -1.
</event>
<event>
 5    1  0.1520352E-008  0.3847965E+03  0.7957747E-01  0.3430536E+00
         13   -1    0    0    0    0  0.00000000000E+00  0.00000000000E+00  0.14999999963E+04  0.15000000000E+04  0.10566000000E+00 0.  1.
        994   -1    0    0    0    0 -0.00000000000E+00 -0.00000000000E+00  0.11368683772E-12  0.17120000000E+03  0.17120000000E+03 0.  0.
         13    1    1    2    0    0  0.18884301815E+02 -0.35141524991E-01  0.10065565182E+03  0.10241186209E+03  0.10566000000E+00 0.  1.
        994    1    1    2    0    0 -0.14928503338E+02 -0.52309218092E+00  0.24658430730E+01  0.17186813032E+03  0.17120000000E+03 0.  0.
        998    1    1    2    0    0 -0.39557984770E+01  0.55823370591E+00  0.13968785014E+04  0.13969200076E+04  0.10000000000E+02 0.  1.
</event>
<event>
 5    1  0.1520352E-008  0.3824076E+03  0.7957747E-01  0.3440742E+00
         13   -1    0    0    0    0  0.00000000000E+00  0.00000000000E+00  0.14999999963E+04  0.15000000000E+04  0.10566000000E+00 0. -1.
        994   -1    0    0    0    0 -0.00000000000E+00 -0.00000000000E+00  0.11368683772E-12  0.17120000000E+03  0.17120000000E+03 0.  0.
         13    1    1    2    0    0  0.13735736222E+02  0.11568176417E+01  0.32092046375E+02  0.34927342887E+02  0.10566000000E+00 0. -1.
        994    1    1    2    0    0 -0.41544142579E+01  0.30622715809E+01  0.30110744804E+01  0.17130424173E+03  0.17120000000E+03 0.  0.
        998    1    1    2    0    0 -0.95813219637E+01 -0.42190892225E+01  0.14648968754E+04  0.14649684154E+04  0.10000000000E+02 0. -1.
</event>
<event>
 5    1  0.1520352E-008  0.3825796E+03  0.7957747E-01  0.3440003E+00
         13   -1    0    0    0    0  0.00000000000E+00  0.00000000000E+00  0.14999999963E+04  0.15000000000E+04  0.10566000000E+00 0.  1.
        994   -1    0    0    0    0 -0.00000000000E+00 -0.00000000000E+00  0.11368683772E-12  0.17120000000E+03  0.17120000000E+03 0.  0.
         13    1    1    2    0    0 -0.29299355153E+02  0.10293516385E+02  0.11353424273E+03  0.11770490274E+03  0.10566000000E+00 0.  1.
        994    1    1    2    0    0  0.75547045363E+02 -0.37377035192E+02  0.26753646238E+02  0.19269041598E+03  0.17120000000E+03 0.  0.
        998    1    1    2    0    0 -0.46247690210E+02  0.27083518807E+02  0.13597121073E+04  0.13608046813E+04  0.10000000000E+02 0.  1.
</event>
<event>
 5    1  0.1520352E-008  0.3588089E+03  0.7957747E-01  0.3548959E+00
         13   -1    0    0    0    0  0.00000000000E+00  0.00000000000E+00  0.14999999963E+04  0.15000000000E+04  0.10566000000E+00 0. -1.
        994   -1    0    0    0    0 -0.00000000000E+00 -0.00000000000E+00  0.11368683772E-12  0.17120000000E+03  0.17120000000E+03 0.  0.
         13    1    1    2    0    0  0.47480580992E+02  0.28211236499E+03  0.28343715233E+03  0.40271382213E+03  0.10566000000E+00 0. -1.
        994    1    1    2    0    0 -0.16047537864E+02 -0.26315863517E+03  0.98876333804E+03  0.10375318643E+04  0.17120000000E+03 0.  0.
        998    1    1    2    0    0 -0.31433043128E+02 -0.18953729815E+02  0.22779950591E+03  0.23095431359E+03  0.10000000000E+02 0.  0.
</event>
<event>
 5    1  0.1520352E-008  0.3792639E+03  0.7957747E-01  0.3454370E+00
         13   -1    0    0    0    0  0.00000000000E+00  0.00000000000E+00  0.14999999963E+04  0.15000000000E+04  0.10566000000E+00 0. -1.
        994   -1    0    0    0    0 -0.00000000000E+00 -0.00000000000E+00  0.11368683772E-12  0.17120000000E+03  0.17120000000E+03 0.  0.
         13    1    1    2    0    0  0.14610076430E+02  0.44101301693E+01  0.23624262031E+02  0.28125086701E+02  0.10566000000E+00 0. -1.
        994    1    1    2    0    0 -0.14942607848E+02 -0.62438741214E+01  0.53845334556E+01  0.17204854168E+03  0.17120000000E+03 0.  0.
        998    1    1    2    0    0  0.33253141867E+00  0.18337439520E+01  0.14709912008E+04  0.14710263716E+04  0.10000000000E+02 0. -1.
</event>
<event>
 5    1  0.1520352E-008  0.3724035E+03  0.7957747E-01  0.3484917E+00
         13   -1    0    0    0    0  0.00000000000E+00  0.00000000000E+00  0.14999999963E+04  0.15000000000E+04  0.10566000000E+00 0. -1.
        994   -1    0    0    0    0 -0.00000000000E+00 -0.00000000000E+00  0.11368683772E-12  0.17120000000E+03  0.17120000000E+03 0.  0.
         13    1    1    2    0    0 -0.40638822564E+02  0.10103389698E+03  0.42829812508E+03  0.44192607679E+03  0.10566000000E+00 0. -1.
        994    1    1    2    0    0  0.39886355715E+02 -0.12259536920E+03  0.67358319290E+02  0.22464890184E+03  0.17120000000E+03 0.  0.
        998    1    1    2    0    0  0.75246684893E+00  0.21561472222E+02  0.10043435519E+04  0.10046250214E+04  0.10000000000E+02 0. -1.
</event>
<event>
 5    1  0.1520352E-008  0.3852661E+03  0.7957747E-01  0.3428544E+00
         13   -1    0    0    0    0  0.00000000000E+00  0.00000000000E+00  0.14999999963E+04  0.15000000000E+04  0.10566000000E+00 0. -1.
        994   -1    0    0    0    0 -0.00000000000E+00 -0.00000000000E+00  0.11368683772E-12  0.17120000000E+03  0.17120000000E+03 0.  0.
         13    1    1    2    0    0 -0.67109699061E+01  0.79593272389E+01  0.36393228291E+02  0.37853219634E+02  0.10566000000E+00 0. -1.
        994    1    1    2    0    0  0.25191060763E+01 -0.52061981201E+01  0.16080016650E+01  0.17130521318E+03  0.17120000000E+03 0.  0.
        998    1    1    2    0    0  0.41918638298E+01 -0.27531291188E+01  0.14619987663E+04  0.14620415672E+04  0.10000000000E+02 0. -1.
</event>
<event>
 5    1  0.1520352E-008  0.3696464E+03  0.7957747E-01  0.3497518E+00
         13   -1    0    0    0    0  0.00000000000E+00  0.00000000000E+00  0.14999999963E+04  0.15000000000E+04  0.10566000000E+00 0. -1.
        994   -1    0    0    0    0 -0.00000000000E+00 -0.00000000000E+00  0.11368683772E-12  0.17120000000E+03  0.17120000000E+03 0.  0.
         13    1    1    2    0    0  0.55113779481E+02  0.14770778348E+03  0.58933917546E+03  0.61006212216E+03  0.10566000000E+00 0. -1.
        994    1    1    2    0    0 -0.59059172412E+02 -0.15359887487E+03  0.11229666723E+03  0.26267961794E+03  0.17120000000E+03 0.  0.
        998    1    1    2    0    0  0.39453929311E+01  0.58910913926E+01  0.79836415359E+03  0.79845825991E+03  0.10000000000E+02 0. -1.
</event>
<event>
 5    1  0.1520352E-008  0.3846768E+03  0.7957747E-01  0.3431044E+00
         13   -1    0    0    0    0  0.00000000000E+00  0.00000000000E+00  0.14999999963E+04  0.15000000000E+04  0.10566000000E+00 0.  1.
        994   -1    0    0    0    0 -0.00000000000E+00 -0.00000000000E+00  0.11368683772E-12  0.17120000000E+03  0.17120000000E+03 0.  0.
         13    1    1    2    0    0  0.28430767434E+01 -0.12031858213E+02  0.41548226279E+02  0.43348759711E+02  0.10566000000E+00 0.  1.
        994    1    1    2    0    0 -0.41975359066E+01  0.11954283757E+02  0.23193465797E+01  0.17168384774E+03  0.17120000000E+03 0.  0.
        998    1    1    2    0    0  0.13544591632E+01  0.77574456451E-01  0.14561324234E+04  0.14561673925E+04  0.10000000000E+02 0.  1.
</event>
<event>
 5    1  0.1520352E-008  0.3856565E+03  0.7957747E-01  0.3426893E+00
         13   -1    0    0    0    0  0.00000000000E+00  0.00000000000E+00  0.14999999963E+04  0.15000000000E+04  0.10566000000E+00 0. -1.
        994   -1    0    0    0    0 -0.00000000000E+00 -0.00000000000E+00  0.11368683772E-12  0.17120000000E+03  0.17120000000E+03 0.  0.
         13    1    1    2    0    0 -0.14176560729E+02 -0.19522503610E+01  0.72450004910E+02  0.73849851260E+02  0.10566000000E+00 0. -1.
        994    1    1    2    0    0  0.20064212351E+02  0.11034706290E+02  0.30271566241E+01  0.17275109562E+03  0.17120000000E+03 0.  0.
        998    1    1    2    0    0 -0.58876516222E+01 -0.90824559291E+01  0.14245228347E+04  0.14245990531E+04  0.10000000000E+02 0. -1.
</event>
<event>
 5    1  0.1520352E-008  0.3736062E+03  0.7957747E-01  0.3479480E+00
         13   -1    0    0    0    0  0.00000000000E+00  0.00000000000E+00  0.14999999963E+04  0.15000000000E+04  0.10566000000E+00 0.  1.
        994   -1    0    0    0    0 -0.00000000000E+00 -0.00000000000E+00  0.11368683772E-12  0.17120000000E+03  0.17120000000E+03 0.  0.
         13    1    1    2    0    0 -0.17553546096E+02 -0.33390596361E+01  0.66361654104E+01  0.19061116315E+02  0.10566000000E+00 0.  1.
        994    1    1    2    0    0  0.15744617503E+02 -0.12018353515E+01  0.13741778586E+02  0.17247496591E+03  0.17120000000E+03 0.  0.
        998    1    1    2    0    0  0.18089285933E+01  0.45408949876E+01  0.14796220523E+04  0.14796639178E+04  0.10000000000E+02 0.  1.
</event>
<event>
 5    1  0.1520352E-008  0.3953822E+03  0.7957747E-01  0.3386799E+00
         13   -1    0    0    0    0  0.00000000000E+00  0.00000000000E+00  0.14999999963E+04  0.15000000000E+04  0.10566000000E+00 0.  1.
        994   -1    0    0    0    0 -0.00000000000E+00 -0.00000000000E+00  0.11368683772E-12  0.17120000000E+03  0.17120000000E+03 0.  0.
         13    1    1    2    0    0 -0.78409755092E+02  0.84044041642E+02  0.19331568667E+03  0.22490543903E+03  0.10566000000E+00 0.  1.
        994    1    1    2    0    0  0.86210107122E+02 -0.11706359214E+03  0.11180196806E+03  0.25088879456E+03  0.17120000000E+03 0.  0.
        998    1    1    2    0    0 -0.78003520299E+01  0.33019550502E+02  0.11948823415E+04  0.11954057664E+04  0.10000000000E+02 0.  1.
</event>
<event>
 5    1  0.1520352E-008  0.3837714E+03  0.7957747E-01  0.3434900E+00
         13   -1    0    0    0    0  0.00000000000E+00  0.00000000000E+00  0.14999999963E+04  0.15000000000E+04  0.10566000000E+00 0. -1.
        994   -1    0    0    0    0 -0.00000000000E+00 -0.00000000000E+00  0.11368683772E-12  0.17120000000E+03  0.17120000000E+03 0.  0.
         13    1    1    2    0    0  0.20571858777E+02 -0.73274499482E+01  0.11166645796E+03  0.11378181706E+03  0.10566000000E+00 0. -1.
        994    1    1    2    0    0 -0.52220489709E+01  0.38219470748E+01  0.23796474121E+01  0.17133878661E+03  0.17120000000E+03 0.  0.
        998    1    1    2    0    0 -0.15349809806E+02  0.35055028733E+01  0.13859538909E+04  0.13860793963E+04  0.10000000000E+02 0. -1.
</event>
<event>
 5    1  0.1520352E-008  0.3687705E+03  0.7957747E-01  0.3501561E+00
         13   -1    0    0    0    0  0.00000000000E+00  0.00000000000E+00  0.14999999963E+04  0.15000000000E+04  0.10566000000E+00 0. -1.
        994   -1    0    0    0    0 -0.00000000000E+00 -0.00000000000E+00  0.11368683772E-12  0.17120000000E+03  0.17120000000E+03 0.  0.
         13    1    1    2    0    0 -0.30334203792E+02  0.34206834053E+02  0.11927160686E+03  0.12773409405E+03  0.10566000000E+00 0. -1.
        994    1    1    2    0    0 -0.18074260103E+02 -0.15335623992E+01  0.11056496520E+02  0.17251294678E+03  0.17120000000E+03 0.  0.
        998    1    1    2    0    0  0.48408463895E+02 -0.32673271653E+02  0.13696718929E+04  0.13709529592E+04  0.10000000000E+02 0. -1.
</event>
<event>
 5    1  0.1520352E-008  0.3826527E+03  0.7957747E-01  0.3439689E+00
         13   -1    0    0    0    0  0.00000000000E+00  0.00000000000E+00  0.14999999963E+04  0.15000000000E+04  0.10566000000E+00 0. -1.
        994   -1    0    0    0    0 -0.00000000000E+00 -0.00000000000E+00  0.11368683772E-12  0.17120000000E+03  0.17120000000E+03 0.  0.
         13    1    1    2    0    0 -0.39081183114E+01  0.25354850632E+02  0.11606657019E+03  0.11886800125E+03  0.10566000000E+00 0. -1.
        994    1    1    2    0    0  0.70174837320E+01 -0.15549957241E+02  0.37650940849E+01  0.17208911117E+03  0.17120000000E+03 0.  0.
        998    1    1    2    0    0 -0.31093654206E+01 -0.98048933908E+01  0.13801683320E+04  0.13802428876E+04  0.10000000000E+02 0. -1.
</event>
<event>
 5    1  0.1520352E-008  0.3856185E+03  0.7957747E-01  0.3427053E+00
         13   -1    0    0    0    0  0.00000000000E+00  0.00000000000E+00  0.14999999963E+04  0.15000000000E+04  0.10566000000E+00 0.  1.
        994   -1    0    0    0    0 -0.00000000000E+00 -0.00000000000E+00  0.11368683772E-12  0.17120000000E+03  0.17120000000E+03 0.  0.
         13    1    1    2    0    0  0.84521795816E+01  0.53878845894E+01  0.40117445607E+02  0.41350807079E+02  0.10566000000E+00 0.  1.
        994    1    1    2    0    0  0.51841401923E+01 -0.38261047998E+01  0.14596446503E+01  0.17132742031E+03  0.17120000000E+03 0.  0.
        998    1    1    2    0    0 -0.13636319774E+02 -0.15617797896E+01  0.14584229060E+04  0.14585217726E+04  0.10000000000E+02 0.  1.
</event>
<event>
 5    1  0.1520352E-008  0.3833663E+03  0.7957747E-01  0.3436631E+00
         13   -1    0    0    0    0  0.00000000000E+00  0.00000000000E+00  0.14999999963E+04  0.15000000000E+04  0.10566000000E+00 0.  1.
        994   -1    0    0    0    0 -0.00000000000E+00 -0.00000000000E+00  0.11368683772E-12  0.17120000000E+03  0.17120000000E+03 0.  0.
         13    1    1    2    0    0  0.15063285292E+02 -0.91191232044E+01  0.64377294515E+02  0.66742102041E+02  0.10566000000E+00 0.  1.
        994    1    1    2    0    0 -0.85080125548E+00  0.11683417930E+02  0.28972518886E+01  0.17162476565E+03  0.17120000000E+03 0.  0.
        998    1    1    2    0    0 -0.14212484036E+02 -0.25642947261E+01  0.14327254499E+04  0.14328331323E+04  0.10000000000E+02 0.  1.
</event>
<event>
 5    1  0.1520352E-008  0.3892297E+03  0.7957747E-01  0.3411929E+00
         13   -1    0    0    0    0  0.00000000000E+00  0.00000000000E+00  0.14999999963E+04  0.15000000000E+04  0.10566000000E+00 0. -1.
        994   -1    0    0    0    0 -0.00000000000E+00 -0.00000000000E+00  0.11368683772E-12  0.17120000000E+03  0.17120000000E+03 0.  0.
         13    1    1    2    0    0 -0.88068311293E+02  0.42459725555E+02  0.18601123287E+03  0.21014053789E+03  0.10566000000E+00 0. -1.
        994    1    1    2    0    0  0.89257539321E+02 -0.47166529714E+02  0.60826991894E+02  0.20784838896E+03  0.17120000000E+03 0.  0.
        998    1    1    2    0    0 -0.11892280281E+01  0.47068041587E+01  0.12531617715E+04  0.12532110731E+04  0.10000000000E+02 0. -1.
</event>
<event>
 5    1  0.1520352E-008  0.3861788E+03  0.7957747E-01  0.3424688E+00
         13   -1    0    0    0    0  0.00000000000E+00  0.00000000000E+00  0.14999999963E+04  0.15000000000E+04  0.10566000000E+00 0.  1.
        994   -1    0    0    0    0 -0.00000000000E+00 -0.00000000000E+00  0.11368683772E-12  0.17120000000E+03  0.17120000000E+03 0.  0.
         13    1    1    2    0    0 -0.17851107849E+02  0.45792441596E+01  0.11075823738E+03  0.11228103064E+03  0.10566000000E+00 0.  1.
        994    1    1    2    0    0  0.48317850230E+02 -0.27221686239E+02  0.11187724877E+02  0.18030596230E+03  0.17120000000E+03 0.  0.
        998    1    1    2    0    0 -0.30466742381E+02  0.22642442079E+02  0.13780540340E+04  0.13786130071E+04  0.10000000000E+02 0.  1.
</event>
<event>
 5    1  0.1520352E-008  0.3839289E+03  0.7957747E-01  0.3434228E+00
         13   -1    0    0    0    0  0.00000000000E+00  0.00000000000E+00  0.14999999963E+04  0.15000000000E+04  0.10566000000E+00 0.  1.
        994   -1    0    0    0    0 -0.00000000000E+00 -0.00000000000E+00  0.11368683772E-12  0.17120000000E+03  0.17120000000E+03 0.  0.
         13    1    1    2    0    0  0.14520135867E+02  0.19622363924E+02  0.12953174215E+03  0.13181181624E+03  0.10566000000E+00 0.  1.
        994    1    1    2    0    0 -0.11579449156E+02 -0.19240596136E+02  0.38288309085E+01  0.17270895787E+03  0.17120000000E+03 0.  0.
        998    1    1    2    0    0 -0.29406867110E+01 -0.38176778817E+00  0.13666394232E+04  0.13666792259E+04  0.10000000000E+02 0.  1.
</event>
<event>
 5    1  0.1520352E-008  0.3845010E+03  0.7957747E-01  0.3431791E+00
         13   -1    0    0    0    0  0.00000000000E+00  0.00000000000E+00  0.14999999963E+04  0.15000000000E+04  0.10566000000E+00 0.  1.
        994   -1    0    0    0    0 -0.00000000000E+00 -0.00000000000E+00  0.11368683772E-12  0.17120000000E+03  0.17120000000E+03 0.  0.
         13    1    1    2    0    0 -0.14466594623E+02 -0.98405541412E+01  0.98629263295E+02  0.10016916496E+03  0.10566000000E+00 0.  1.
        994    1    1    2    0    0  0.78699505094E+01 -0.34005095485E+02  0.59014175176E+01  0.17482147857E+03  0.17120000000E+03 0.  0.
        998    1    1    2    0    0  0.65966441136E+01  0.43845649626E+02  0.13954693155E+04  0.13962093565E+04  0.10000000000E+02 0.  1.
</event>
<event>
 5    1  0.1520352E-008  0.3821964E+03  0.7957747E-01  0.3441650E+00
         13   -1    0    0    0    0  0.00000000000E+00  0.00000000000E+00  0.14999999963E+04  0.15000000000E+04  0.10566000000E+00 0.  1.
        994   -1    0    0    0    0 -0.00000000000E+00 -0.00000000000E+00  0.11368683772E-12  0.17120000000E+03  0.17120000000E+03 0.  0.
         13    1    1    2    0    0  0.10172832934E+02 -0.45264014733E+00  0.15860154802E+02  0.18847999559E+02  0.10566000000E+00 0.  1.
        994    1    1    2    0    0 -0.78405420263E+01  0.27574054298E+01  0.32578180585E+01  0.17143258372E+03  0.17120000000E+03 0.  0.
        998    1    1    2    0    0 -0.23322909077E+01 -0.23047652825E+01  0.14808820234E+04  0.14809194167E+04  0.10000000000E+02 0.  1.
</event>
<event>
 5    1  0.1520352E-008  0.3705925E+03  0.7957747E-01  0.3493172E+00
         13   -1    0    0    0    0  0.00000000000E+00  0.00000000000E+00  0.14999999963E+04  0.15000000000E+04  0.10566000000E+00 0. -1.
        994   -1    0    0    0    0 -0.00000000000E+00 -0.00000000000E+00  0.11368683772E-12  0.17120000000E+03  0.17120000000E+03 0.  0.
         13    1    1    2    0    0 -0.10653638609E+01 -0.22436797510E+02  0.17738532615E+02  0.28621872511E+02  0.10566000000E+00 0. -1.
        994    1    1    2    0    0  0.13854537945E+02  0.12401089173E+02  0.12464543102E+02  0.17265729081E+03  0.17120000000E+03 0.  0.
        998    1    1    2    0    0 -0.12789174085E+02  0.10035708337E+02  0.14697969206E+04  0.14699208367E+04  0.10000000000E+02 0. -1.
</event>
<event>
 5    1  0.1520352E-008  0.3827318E+03  0.7957747E-01  0.3439349E+00
         13   -1    0    0    0    0  0.00000000000E+00  0.00000000000E+00  0.14999999963E+04  0.15000000000E+04  0.10566000000E+00 0. -1.
        994   -1    0    0    0    0 -0.00000000000E+00 -0.00000000000E+00  0.11368683772E-12  0.17120000000E+03  0.17120000000E+03 0.  0.
         13    1    1    2    0    0  0.14627864455E+02 -0.20991814900E+02  0.12737593027E+03  0.12992024279E+03  0.10566000000E+00 0. -1.
        994    1    1    2    0    0  0.22475808662E+01  0.69791918524E+01  0.29385680656E+01  0.17138213419E+03  0.17120000000E+03 0.  0.
        998    1    1    2    0    0 -0.16875445321E+02  0.14012623047E+02  0.13696854979E+04  0.13698976230E+04  0.10000000000E+02 0. -1.
</event>
<event>
 5    1  0.1520352E-008  0.3764790E+03  0.7957747E-01  0.3466634E+00
         13   -1    0    0    0    0  0.00000000000E+00  0.00000000000E+00  0.14999999963E+04  0.15000000000E+04  0.10566000000E+00 0.  1.
        994   -1    0    0    0    0 -0.00000000000E+00 -0.00000000000E+00  0.11368683772E-12  0.17120000000E+03  0.17120000000E+03 0.  0.
         13    1    1    2    0    0 -0.17753590366E+02 -0.15636434731E+02  0.45348509085E+02  0.51148670582E+02  0.10566000000E+00 0.  1.
        994    1    1    2    0    0  0.62359985130E+01  0.12261933367E+02  0.65615149010E+01  0.17187709610E+03  0.17120000000E+03 0.  0.
        998    1    1    2    0    0  0.11517591853E+02  0.33745013645E+01  0.14480899723E+04  0.14481742333E+04  0.10000000000E+02 0.  1.
</event>
<event>
 5    1  0.1520352E-008  0.3765867E+03  0.7957747E-01  0.3466157E+00
         13   -1    0    0    0    0  0.00000000000E+00  0.00000000000E+00  0.14999999963E+04  0.15000000000E+04  0.10566000000E+00 0.  1.
        994   -1    0    0    0    0 -0.00000000000E+00 -0.00000000000E+00  0.11368683772E-12  0.17120000000E+03  0.17120000000E+03 0.  0.
         13    1    1    2    0    0  0.40673161785E+00  0.31823021153E+02  0.80311391551E+02  0.86387504205E+02  0.10566000000E+00 0.  1.
        994    1    1    2    0    0 -0.19910532235E+01 -0.31543317994E+02  0.92511370735E+01  0.17433866106E+03  0.17120000000E+03 0.  0.
        998    1    1    2    0    0  0.15843216057E+01 -0.27970315869E+00  0.14104374677E+04  0.14104738347E+04  0.10000000000E+02 0.  1.
</event>
<event>
 5    1  0.1520352E-008  0.3801235E+03  0.7957747E-01  0.3450621E+00
         13   -1    0    0    0    0  0.00000000000E+00  0.00000000000E+00  0.14999999963E+04  0.15000000000E+04  0.10566000000E+00 0.  1.
        994   -1    0    0    0    0 -0.00000000000E+00 -0.00000000000E+00  0.11368683772E-12  0.17120000000E+03  0.17120000000E+03 0.  0.
         13    1    1    2    0    0 -0.15676985490E+02 -0.40026382840E+02  0.18675931018E+03  0.19164271523E+03  0.10566000000E+00 0.  1.
        994    1    1    2    0    0  0.88876465246E+01  0.52517446338E+02  0.13609925725E+02  0.17981029589E+03  0.17120000000E+03 0.  0.
        998    1    1    2    0    0  0.67893389658E+01 -0.12491063498E+02  0.12996307604E+04  0.12997469889E+04  0.10000000000E+02 0.  1.
</event>
<event>
 5    1  0.1520352E-008  0.3725181E+03  0.7957747E-01  0.3484398E+00
         13   -1    0    0    0    0  0.00000000000E+00  0.00000000000E+00  0.14999999963E+04  0.15000000000E+04  0.10566000000E+00 0. -1.
        994   -1    0    0    0    0 -0.00000000000E+00 -0.00000000000E+00  0.11368683772E-12  0.17120000000E+03  0.17120000000E+03 0.  0.
         13    1    1    2    0    0  0.25291277804E+02  0.76769116929E+01  0.41795769098E+02  0.49451806687E+02  0.10566000000E+00 0. -1.
        994    1    1    2    0    0 -0.10758725409E+02  0.58728508244E+01  0.84739556188E+01  0.17184728241E+03  0.17120000000E+03 0.  0.
        998    1    1    2    0    0 -0.14532552395E+02 -0.13549762517E+02  0.14497302716E+04  0.14499009109E+04  0.10000000000E+02 0. -1.
</event>
<event>
 5    1  0.1520352E-008  0.3830852E+03  0.7957747E-01  0.3437834E+00
         13   -1    0    0    0    0  0.00000000000E+00  0.00000000000E+00  0.14999999963E+04  0.15000000000E+04  0.10566000000E+00 0. -1.
        994   -1    0    0    0    0 -0.00000000000E+00 -0.00000000000E+00  0.11368683772E-12  0.17120000000E+03  0.17120000000E+03 0.  0.
         13    1    1    2    0    0 -0.17769965987E+01  0.16883050375E+02  0.56266322328E+02  0.58771636860E+02  0.10566000000E+00 0. -1.
        994    1    1    2    0    0 -0.29646445715E+01 -0.68093613088E+01  0.27663613548E+01  0.17138334013E+03  0.17120000000E+03 0.  0.
        998    1    1    2    0    0  0.47416411703E+01 -0.10073689066E+02  0.14409673126E+04  0.14410450230E+04  0.10000000000E+02 0. -1.
</event>
<event>
 5    1  0.1520352E-008  0.3839261E+03  0.7957747E-01  0.3434240E+00
         13   -1    0    0    0    0  0.00000000000E+00  0.00000000000E+00  0.14999999963E+04  0.15000000000E+04  0.10566000000E+00 0. -1.
        994   -1    0    0    0    0 -0.00000000000E+00 -0.00000000000E+00  0.11368683772E-12  0.17120000000E+03  0.17120000000E+03 0.  0.
         13    1    1    2    0    0  0.12228233755E+01 -0.15649648505E+02  0.64866504911E+02  0.66738904836E+02  0.10566000000E+00 0. -1.
        994    1    1    2    0    0  0.10529515180E+02 -0.13283093407E+02  0.31129939454E+01  0.17206522598E+03  0.17120000000E+03 0.  0.
        998    1    1    2    0    0 -0.11752338555E+02  0.28932741912E+02  0.14320204974E+04  0.14323958692E+04  0.10000000000E+02 0. -1.
</event>
<event>
 5    1  0.1520352E-008  0.3746390E+03  0.7957747E-01  0.3474839E+00
         13   -1    0    0    0    0  0.00000000000E+00  0.00000000000E+00  0.14999999963E+04  0.15000000000E+04  0.10566000000E+00 0.  1.
        994   -1    0    0    0    0 -0.00000000000E+00 -0.00000000000E+00  0.11368683772E-12  0.17120000000E+03  0.17120000000E+03 0.  0.
         13    1    1    2    0    0 -0.17475706384E+02  0.41278317307E+02  0.14035491645E+03  0.14733911065E+03  0.10566000000E+00 0.  1.
        994    1    1    2    0    0  0.64818078475E+01 -0.31956427651E+02  0.10491297377E+02  0.17459305376E+03  0.17120000000E+03 0.  0.
        998    1    1    2    0    0  0.10993898537E+02 -0.93218896555E+01  0.13491537825E+04  0.13492678356E+04  0.10000000000E+02 0.  1.
</event>
<event>
 5    1  0.1520352E-008  0.3861287E+03  0.7957747E-01  0.3424899E+00
         13   -1    0    0    0    0  0.00000000000E+00  0.00000000000E+00  0.14999999963E+04  0.15000000000E+04  0.10566000000E+00 0.  1.
        994   -1    0    0    0    0 -0.00000000000E+00 -0.00000000000E+00  0.11368683772E-12  0.17120000000E+03  0.17120000000E+03 0.  0.
         13    1    1    2    0    0 -0.11223891847E+02  0.13611304294E+02 -0.38087049133E+00  0.17646517479E+02  0.10566000000E+00 0.  1.
        994    1    1    2    0    0 -0.21803610113E+02  0.37921360982E+02  0.26862060850E+02  0.17873006839E+03  0.17120000000E+03 0.  0.
        998    1    1    2    0    0  0.33027501960E+02 -0.51532665276E+02  0.14735188059E+04  0.14748234141E+04  0.10000000000E+02 0.  1.
</event>
<event>
 5    1  0.1520352E-008  0.3847146E+03  0.7957747E-01  0.3430884E+00
         13   -1    0    0    0    0  0.00000000000E+00  0.00000000000E+00  0.14999999963E+04  0.15000000000E+04  0.10566000000E+00 0.  1.
        994   -1    0    0    0    0 -0.00000000000E+00 -0.00000000000E+00  0.11368683772E-12  0.17120000000E+03  0.17120000000E+03 0.  0.
         13    1    1    2    0    0 -0.46486314824E+01  0.14808395967E+02  0.66519461030E+02  0.68306282475E+02  0.10566000000E+00 0.  1.
        994    1    1    2    0    0  0.38866521180E+01 -0.12826826053E+02  0.23634219999E+01  0.17174009228E+03  0.17120000000E+03 0.  0.
        998    1    1    2    0    0  0.76197936443E+00 -0.19815699137E+01  0.14311171132E+04  0.14311536252E+04  0.10000000000E+02 0.  1.
</event>
<event>
 5    1  0.1520352E-008  0.3738630E+03  0.7957747E-01  0.3478324E+00
         13   -1    0    0    0    0  0.00000000000E+00  0.00000000000E+00  0.14999999963E+04  0.15000000000E+04  0.10566000000E+00 0.  1.
        994   -1    0    0    0    0 -0.00000000000E+00 -0.00000000000E+00  0.11368683772E-12  0.17120000000E+03  0.17120000000E+03 0.  0.
         13    1    1    2    0    0  0.19050477803E+03  0.87086032460E+02  0.12310314763E+04  0.12487251716E+04  0.10566000000E+00 0.  1.
        994    1    1    2    0    0 -0.17847158587E+03 -0.88034174847E+02  0.14972826990E+03  0.30220873202E+03  0.17120000000E+03 0.  0.
        998    1    1    2    0    0 -0.12033192164E+02  0.94814238706E+00  0.11924025008E+03  0.12026609633E+03  0.10000000000E+02 0.  1.
</event>
<event>
 5    1  0.1520352E-008  0.3848006E+03  0.7957747E-01  0.3430518E+00
         13   -1    0    0    0    0  0.00000000000E+00  0.00000000000E+00  0.14999999963E+04  0.15000000000E+04  0.10566000000E+00 0.  1.
        994   -1    0    0    0    0 -0.00000000000E+00 -0.00000000000E+00  0.11368683772E-12  0.17120000000E+03  0.17120000000E+03 0.  0.
         13    1    1    2    0    0 -0.12988892709E+02 -0.21770149676E+01  0.45196549862E+02  0.47076427344E+02  0.10566000000E+00 0.  1.
        994    1    1    2    0    0  0.33971346947E+02 -0.25425347705E+02  0.76768011414E+01  0.17654708719E+03  0.17120000000E+03 0.  0.
        998    1    1    2    0    0 -0.20982454237E+02  0.27602362673E+02  0.14471266453E+04  0.14475764855E+04  0.10000000000E+02 0.  1.
</event>
<event>
 5    1  0.1520352E-008  0.3719037E+03  0.7957747E-01  0.3487188E+00
         13   -1    0    0    0    0  0.00000000000E+00  0.00000000000E+00  0.14999999963E+04  0.15000000000E+04  0.10566000000E+00 0. -1.
        994   -1    0    0    0    0 -0.00000000000E+00 -0.00000000000E+00  0.11368683772E-12  0.17120000000E+03  0.17120000000E+03 0.  0.
         13    1    1    2    0    0 -0.90371165050E+01  0.62901587519E+02  0.15972380196E+03  0.17190108569E+03  0.10566000000E+00 0. -1.
        994    1    1    2    0    0  0.94653734121E+01 -0.45815954659E+02  0.19691990295E+02  0.17856626075E+03  0.17120000000E+03 0.  0.
        998    1    1    2    0    0 -0.42825690711E+00 -0.17085632860E+02  0.13205842040E+04  0.13207326536E+04  0.10000000000E+02 0. -1.
</event>
<event>
 5    1  0.1520352E-008  0.2361666E+03  0.7957747E-01  0.4492697E+00
         13   -1    0    0    0    0  0.00000000000E+00  0.00000000000E+00  0.14999999963E+04  0.15000000000E+04  0.10566000000E+00 0. -1.
        994   -1    0    0    0    0 -0.00000000000E+00 -0.00000000000E+00  0.11368683772E-12  0.17120000000E+03  0.17120000000E+03 0.  0.
         13    1    1    2    0    0  0.14839921207E+03 -0.49250075961E+02  0.18869840236E+03  0.24506120530E+03  0.10566000000E+00 0. -1.
        994    1    1    2    0    0 -0.15776410160E+03  0.52673974320E+02  0.19088031162E+03  0.30562852074E+03  0.17120000000E+03 0.  0.
        998    1    1    2    0    0  0.93648895298E+01 -0.34238983585E+01  0.11204212823E+04  0.11205102740E+04  0.10000000000E+02 0. -1.
</event>
<event>
 5    1  0.1520352E-008  0.3822305E+03  0.7957747E-01  0.3441504E+00
         13   -1    0    0    0    0  0.00000000000E+00  0.00000000000E+00  0.14999999963E+04  0.15000000000E+04  0.10566000000E+00 0. -1.
        994   -1    0    0    0    0 -0.00000000000E+00 -0.00000000000E+00  0.11368683772E-12  0.17120000000E+03  0.17120000000E+03 0.  0.
         13    1    1    2    0    0 -0.32041603833E+02  0.65342446075E+00  0.14416075331E+03  0.14768014524E+03  0.10566000000E+00 0. -1.
        994    1    1    2    0    0  0.42257815823E+02 -0.26373817245E+01  0.89832913875E+01  0.17658657453E+03  0.17120000000E+03 0.  0.
        998    1    1    2    0    0 -0.10216211990E+02  0.19839572637E+01  0.13468559516E+04  0.13469332802E+04  0.10000000000E+02 0. -1.
</event>
<event>
 5    1  0.1520352E-008  0.3733642E+03  0.7957747E-01  0.3480571E+00
         13   -1    0    0    0    0  0.00000000000E+00  0.00000000000E+00  0.14999999963E+04  0.15000000000E+04  0.10566000000E+00 0.  1.
        994   -1    0    0    0    0 -0.00000000000E+00 -0.00000000000E+00  0.11368683772E-12  0.17120000000E+03  0.17120000000E+03 0.  0.
         13    1    1    2    0    0 -0.20771747849E+02  0.32157075073E+02  0.81320622777E+02  0.89881020459E+02  0.10566000000E+00 0.  1.
        994    1    1    2    0    0  0.84357327043E+01 -0.72089495083E+02  0.25747492178E+02  0.18772434643E+03  0.17120000000E+03 0.  0.
        998    1    1    2    0    0  0.12336015144E+02  0.39932420011E+02  0.13929318813E+04  0.13935946331E+04  0.10000000000E+02 0.  1.
</event>
<event>
 5    1  0.1520352E-008  0.3830923E+03  0.7957747E-01  0.3437803E+00
         13   -1    0    0    0    0  0.00000000000E+00  0.00000000000E+00  0.14999999963E+04  0.15000000000E+04  0.10566000000E+00 0.  1.
        994   -1    0    0    0    0 -0.00000000000E+00 -0.00000000000E+00  0.11368683772E-12  0.17120000000E+03  0.17120000000E+03 0.  0.
         13    1    1    2    0    0  0.16387792414E+02 -0.71478536381E+01  0.62886548998E+02  0.65378748541E+02  0.10566000000E+00 0.  1.
        994    1    1    2    0    0 -0.69658434864E+01 -0.29037275146E+00  0.27411092179E+01  0.17136382632E+03  0.17120000000E+03 0.  0.
        998    1    1    2    0    0 -0.94219489274E+01  0.74382263895E+01  0.14343723381E+04  0.14344574251E+04  0.10000000000E+02 0.  1.
</event>
<event>
 5    1  0.1520352E-008  0.3832519E+03  0.7957747E-01  0.3437120E+00
         13   -1    0    0    0    0  0.00000000000E+00  0.00000000000E+00  0.14999999963E+04  0.15000000000E+04  0.10566000000E+00 0. -1.
        994   -1    0    0    0    0 -0.00000000000E+00 -0.00000000000E+00  0.11368683772E-12  0.17120000000E+03  0.17120000000E+03 0.  0.
         13    1    1    2    0    0  0.30389229798E+01 -0.13188540493E+02  0.35980366017E+02  0.38441781384E+02  0.10566000000E+00 0. -1.
        994    1    1    2    0    0 -0.51568675793E+01  0.72669480908E+01  0.27631693772E+01  0.17145400819E+03  0.17120000000E+03 0.  0.
        998    1    1    2    0    0  0.21179445996E+01  0.59215924026E+01  0.14612564609E+04  0.14613042104E+04  0.10000000000E+02 0. -1.
</event>
<event>
 5    1  0.1520352E-008  0.3863852E+03  0.7957747E-01  0.3423818E+00
         13   -1    0    0    0    0  0.00000000000E+00  0.00000000000E+00  0.14999999963E+04  0.15000000000E+04  0.10566000000E+00 0. -1.
        994   -1    0    0    0    0 -0.00000000000E+00 -0.00000000000E+00  0.11368683772E-12  0.17120000000E+03  0.17120000000E+03 0.  0.
         13    1    1    2    0    0 -0.10097904572E+02  0.21672043170E+01  0.61924231849E+02  0.62779663152E+02  0.10566000000E+00 0. -1.
        994    1    1    2    0    0 -0.23007208737E+01 -0.14871314479E+01  0.96851862465E+00  0.17122465624E+03  0.17120000000E+03 0.  0.
        998    1    1    2    0    0  0.12398625445E+02 -0.68007286904E+00  0.14371072458E+04  0.14371956806E+04  0.10000000000E+02 0. -1.
</event>
<event>
 5    1  0.1520352E-008  0.3789024E+03  0.7957747E-01  0.3455952E+00
         13   -1    0    0    0    0  0.00000000000E+00  0.00000000000E+00  0.14999999963E+04  0.15000000000E+04  0.10566000000E+00 0. -1.
        994   -1    0    0    0    0 -0.00000000000E+00 -0.00000000000E+00  0.11368683772E-12  0.17120000000E+03  0.17120000000E+03 0.  0.
         13    1    1    2    0    0 -0.10405522895E+03  0.36973840193E+02  0.33788557001E+03  0.35547324106E+03  0.10566000000E+00 0. -1.
        994    1    1    2    0    0  0.86481996961E+02 -0.17449724000E+02  0.44384838177E+02  0.19764382744E+03  0.17120000000E+03 0.  0.
        998    1    1    2    0    0  0.17573231984E+02 -0.19524116193E+02  0.11177295881E+04  0.11180829315E+04  0.10000000000E+02 0. -1.
</event>
<event>
 5    1  0.1520352E-008  0.3841557E+03  0.7957747E-01  0.3433261E+00
         13   -1    0    0    0    0  0.00000000000E+00  0.00000000000E+00  0.14999999963E+04  0.15000000000E+04  0.10566000000E+00 0.  1.
        994   -1    0    0    0    0 -0.00000000000E+00 -0.00000000000E+00  0.11368683772E-12  0.17120000000E+03  0.17120000000E+03 0.  0.
         13    1    1    2    0    0  0.70152353340E+01 -0.89172981197E+01  0.31582045984E+02  0.33558434486E+02  0.10566000000E+00 0.  1.
        994    1    1    2    0    0  0.43686920766E+01  0.62256469904E+01  0.22406517481E+01  0.17138350175E+03  0.17120000000E+03 0.  0.
        998    1    1    2    0    0 -0.11383927411E+02  0.26916511294E+01  0.14661772985E+04  0.14662580638E+04  0.10000000000E+02 0.  1.
</event>
<event>
 5    1  0.1520352E-008  0.3825641E+03  0.7957747E-01  0.3440069E+00
         13   -1    0    0    0    0  0.00000000000E+00  0.00000000000E+00  0.14999999963E+04  0.15000000000E+04  0.10566000000E+00 0.  1.
        994   -1    0    0    0    0 -0.00000000000E+00 -0.00000000000E+00  0.11368683772E-12  0.17120000000E+03  0.17120000000E+03 0.  0.
         13    1    1    2    0    0 -0.83879899203E+01  0.12531207726E+02  0.39043958903E+02  0.41854885412E+02  0.10566000000E+00 0.  1.
        994    1    1    2    0    0  0.72878858877E+01 -0.70832894075E+01  0.31868104199E+01  0.17153099437E+03  0.17120000000E+03 0.  0.
        998    1    1    2    0    0  0.11001040327E+01 -0.54479183188E+01  0.14577692270E+04  0.14578141202E+04  0.10000000000E+02 0.  1.
</event>
<event>
 5    1  0.1520352E-008  0.3824577E+03  0.7957747E-01  0.3440527E+00
         13   -1    0    0    0    0  0.00000000000E+00  0.00000000000E+00  0.14999999963E+04  0.15000000000E+04  0.10566000000E+00 0. -1.
        994   -1    0    0    0    0 -0.00000000000E+00 -0.00000000000E+00  0.11368683772E-12  0.17120000000E+03  0.17120000000E+03 0.  0.
         13    1    1    2    0    0  0.34334199265E+01  0.21286321790E+02  0.84029667944E+02  0.86751899844E+02  0.10566000000E+00 0. -1.
        994    1    1    2    0    0 -0.13380954956E+01 -0.30459784441E+01  0.29343506431E+01  0.17125746377E+03  0.17120000000E+03 0.  0.
        998    1    1    2    0    0 -0.20953244309E+01 -0.18240343346E+02  0.14130359777E+04  0.14131906364E+04  0.10000000000E+02 0. -1.
</event>
<event>
 5    1  0.1520352E-008  0.3803282E+03  0.7957747E-01  0.3449731E+00
         13   -1    0    0    0    0  0.00000000000E+00  0.00000000000E+00  0.14999999963E+04  0.15000000000E+04  0.10566000000E+00 0.  1.
        994   -1    0    0    0    0 -0.00000000000E+00 -0.00000000000E+00  0.11368683772E-12  0.17120000000E+03  0.17120000000E+03 0.  0.
         13    1    1    2    0    0  0.46103986736E+01  0.36008679524E+02  0.18439930644E+03  0.18793880961E+03  0.10566000000E+00 0.  1.
        994    1    1    2    0    0 -0.18631521889E+02 -0.39100800208E+01  0.51787483373E+01  0.17233305477E+03  0.17120000000E+03 0.  0.
        998    1    1    2    0    0  0.14021123216E+02 -0.32098599504E+02  0.13104219415E+04  0.13109281356E+04  0.10000000000E+02 0.  1.
</event>
<event>
 5    1  0.1520352E-008  0.3812655E+03  0.7957747E-01  0.3445667E+00
         13   -1    0    0    0    0  0.00000000000E+00  0.00000000000E+00  0.14999999963E+04  0.15000000000E+04  0.10566000000E+00 0. -1.
        994   -1    0    0    0    0 -0.00000000000E+00 -0.00000000000E+00  0.11368683772E-12  0.17120000000E+03  0.17120000000E+03 0.  0.
         13    1    1    2    0    0 -0.17499006873E+02  0.73074851170E-01  0.47289674620E+02  0.50423655868E+02  0.10566000000E+00 0. -1.
        994    1    1    2    0    0 -0.15316550844E+02 -0.50562556163E+01  0.43622307759E+01  0.17201346316E+03  0.17120000000E+03 0.  0.
        998    1    1    2    0    0  0.32815557717E+02  0.49831807651E+01  0.14483480909E+04  0.14487628810E+04  0.10000000000E+02 0. -1.
</event>
<event>
 5    1  0.2855217E-008  0.3865869E+03  0.7957747E-01  0.3422970E+00
         13   -1    0    0    0    0  0.00000000000E+00  0.00000000000E+00  0.14999999963E+04  0.15000000000E+04  0.10566000000E+00 0. -1.
        994   -1    0    0    0    0 -0.00000000000E+00 -0.00000000000E+00  0.11368683772E-12  0.17120000000E+03  0.17120000000E+03 0.  0.
         13    1    1    2    0    0  0.62748739199E+01  0.80390412375E+01  0.60501746004E+02  0.61355298551E+02  0.10566000000E+00 0. -1.
        994    1    1    2    0    0 -0.83772320433E+01 -0.84885502654E+01  0.13098184304E+01  0.17161989723E+03  0.17120000000E+03 0.  0.
        998    1    1    2    0    0  0.21023581234E+01  0.44950902791E+00  0.14381884318E+04  0.14382248042E+04  0.10000000000E+02 0. -1.
</event>
<event>
 5    1  0.1520352E-008  0.3828664E+03  0.7957747E-01  0.3438772E+00
         13   -1    0    0    0    0  0.00000000000E+00  0.00000000000E+00  0.14999999963E+04  0.15000000000E+04  0.10566000000E+00 0.  1.
        994   -1    0    0    0    0 -0.00000000000E+00 -0.00000000000E+00  0.11368683772E-12  0.17120000000E+03  0.17120000000E+03 0.  0.
         13    1    1    2    0    0 -0.16825386615E+01 -0.14130086484E+02  0.39958213969E+02  0.42416509852E+02  0.10566000000E+00 0.  1.
        994    1    1    2    0    0 -0.80240869370E+01 -0.10305467224E+02  0.32582680076E+01  0.17172840457E+03  0.17120000000E+03 0.  0.
        998    1    1    2    0    0  0.97066255985E+01  0.24435553708E+02  0.14567835143E+04  0.14570550856E+04  0.10000000000E+02 0.  1.
</event>
<event>
 5    1  0.1520352E-008  0.3756263E+03  0.7957747E-01  0.3470427E+00
         13   -1    0    0    0    0  0.00000000000E+00  0.00000000000E+00  0.14999999963E+04  0.15000000000E+04  0.10566000000E+00 0.  1.
        994   -1    0    0    0    0 -0.00000000000E+00 -0.00000000000E+00  0.11368683772E-12  0.17120000000E+03  0.17120000000E+03 0.  0.
         13    1    1    2    0    0  0.99454056990E+01 -0.15466086836E+01  0.50305447967E+01  0.11252583611E+02  0.10566000000E+00 0.  1.
        994    1    1    2    0    0 -0.75263846125E+01 -0.76183702926E+00  0.65516300174E+01  0.17149224681E+03  0.17120000000E+03 0.  0.
        998    1    1    2    0    0 -0.24190210865E+01  0.23084457129E+01  0.14884178215E+04  0.14884551696E+04  0.10000000000E+02 0.  1.
</event>
<event>
 5    1  0.1520352E-008  0.3753475E+03  0.7957747E-01  0.3471670E+00
         13   -1    0    0    0    0  0.00000000000E+00  0.00000000000E+00  0.14999999963E+04  0.15000000000E+04  0.10566000000E+00 0. -1.
        994   -1    0    0    0    0 -0.00000000000E+00 -0.00000000000E+00  0.11368683772E-12  0.17120000000E+03  0.17120000000E+03 0.  0.
         13    1    1    2    0    0 -0.57654538935E+02  0.23372314518E+01  0.12179702785E+03  0.13477401704E+03  0.10566000000E+00 0. -1.
        994    1    1    2    0    0  0.23336427610E+02 -0.51907755153E+01  0.15833611053E+02  0.17358478114E+03  0.17120000000E+03 0.  0.
        998    1    1    2    0    0  0.34318111325E+02  0.28535440636E+01  0.13623693574E+04  0.13628412018E+04  0.10000000000E+02 0. -1.
</event>
<event>
 5    1  0.1520352E-008  0.3827866E+03  0.7957747E-01  0.3439114E+00
         13   -1    0    0    0    0  0.00000000000E+00  0.00000000000E+00  0.14999999963E+04  0.15000000000E+04  0.10566000000E+00 0.  1.
        994   -1    0    0    0    0 -0.00000000000E+00 -0.00000000000E+00  0.11368683772E-12  0.17120000000E+03  0.17120000000E+03 0.  0.
         13    1    1    2    0    0  0.51461322269E+01 -0.15474966406E+02  0.49574742249E+02  0.52188346355E+02  0.10566000000E+00 0.  1.
        994    1    1    2    0    0  0.14350927567E+01  0.31758149740E+01  0.27732647339E+01  0.17125792329E+03  0.17120000000E+03 0.  0.
        998    1    1    2    0    0 -0.65812249836E+01  0.12299151432E+02  0.14476519893E+04  0.14477537304E+04  0.10000000000E+02 0.  1.
</event>
<event>
 5    1  0.1520352E-008  0.3814652E+03  0.7957747E-01  0.3444803E+00
         13   -1    0    0    0    0  0.00000000000E+00  0.00000000000E+00  0.14999999963E+04  0.15000000000E+04  0.10566000000E+00 0.  1.
        994   -1    0    0    0    0 -0.00000000000E+00 -0.00000000000E+00  0.11368683772E-12  0.17120000000E+03  0.17120000000E+03 0.  0.
         13    1    1    2    0    0  0.30065658050E+02 -0.64581255586E+01  0.16637765657E+03  0.16919570606E+03  0.10566000000E+00 0.  1.
        994    1    1    2    0    0  0.25960831724E+01 -0.16793960421E+02  0.43566188376E+01  0.17209647551E+03  0.17120000000E+03 0.  0.
        998    1    1    2    0    0 -0.32661741222E+02  0.23252085979E+02  0.13292657209E+04  0.13299078184E+04  0.10000000000E+02 0.  1.
</event>
<event>
 5    1  0.1520352E-008  0.3834149E+03  0.7957747E-01  0.3436423E+00
         13   -1    0    0    0    0  0.00000000000E+00  0.00000000000E+00  0.14999999963E+04  0.15000000000E+04  0.10566000000E+00 0. -1.
        994   -1    0    0    0    0 -0.00000000000E+00 -0.00000000000E+00  0.11368683772E-12  0.17120000000E+03  0.17120000000E+03 0.  0.
         13    1    1    2    0    0  0.10103629443E+02 -0.80224930579E+01  0.34434722203E+02  0.36772339876E+02  0.10566000000E+00 0. -1.
        994    1    1    2    0    0 -0.13123036322E+01  0.32030653084E+01  0.24587777217E+01  0.17125264190E+03  0.17120000000E+03 0.  0.
        998    1    1    2    0    0 -0.87913258106E+01  0.48194277495E+01  0.14631064964E+04  0.14631750182E+04  0.10000000000E+02 0. -1.
</event>
<event>
 5    1  0.1520352E-008  0.3786572E+03  0.7957747E-01  0.3457026E+00
         13   -1    0    0    0    0  0.00000000000E+00  0.00000000000E+00  0.14999999963E+04  0.15000000000E+04  0.10566000000E+00 0.  1.
        994   -1    0    0    0    0 -0.00000000000E+00 -0.00000000000E+00  0.11368683772E-12  0.17120000000E+03  0.17120000000E+03 0.  0.
         13    1    1    2    0    0  0.48257990960E+02  0.19938065655E+02  0.86497836524E+02  0.10103587007E+03  0.10566000000E+00 0.  1.
        994    1    1    2    0    0 -0.21740219913E+02  0.63431840605E+01  0.17443049070E+02  0.17357008125E+03  0.17120000000E+03 0.  0.
        998    1    1    2    0    0 -0.26517771047E+02 -0.26281249715E+02  0.13960591107E+04  0.13965940487E+04  0.10000000000E+02 0.  1.
</event>
<event>
 5    1  0.1520352E-008  0.3728914E+03  0.7957747E-01  0.3482707E+00
         13   -1    0    0    0    0  0.00000000000E+00  0.00000000000E+00  0.14999999963E+04  0.15000000000E+04  0.10566000000E+00 0. -1.
        994   -1    0    0    0    0 -0.00000000000E+00 -0.00000000000E+00  0.11368683772E-12  0.17120000000E+03  0.17120000000E+03 0.  0.
         13    1    1    2    0    0  0.14896520652E+02  0.20851217866E+02  0.41920138677E+02  0.49132360057E+02  0.10566000000E+00 0. -1.
        994    1    1    2    0    0 -0.29216888664E+02  0.29595830941E+02  0.13709927707E+02  0.17671146513E+03  0.17120000000E+03 0.  0.
        998    1    1    2    0    0  0.14320368012E+02 -0.50447048807E+02  0.14443699299E+04  0.14453561748E+04  0.10000000000E+02 0. -1.
</event>
<event>
 5    1  0.1520352E-008  0.3790338E+03  0.7957747E-01  0.3455376E+00
         13   -1    0    0    0    0  0.00000000000E+00  0.00000000000E+00  0.14999999963E+04  0.15000000000E+04  0.10566000000E+00 0. -1.
        994   -1    0    0    0    0 -0.00000000000E+00 -0.00000000000E+00  0.11368683772E-12  0.17120000000E+03  0.17120000000E+03 0.  0.
         13    1    1    2    0    0 -0.98631881695E+01  0.66858845160E+01  0.13130878101E+02  0.17731741493E+02  0.10566000000E+00 0. -1.
        994    1    1    2    0    0  0.10674251964E+02 -0.11231252451E+02  0.54271973692E+01  0.17198539228E+03  0.17120000000E+03 0.  0.
        998    1    1    2    0    0 -0.81106379484E+00  0.45453679345E+01  0.14814419208E+04  0.14814828662E+04  0.10000000000E+02 0. -1.
</event>
<event>
 5    1  0.1520352E-008  0.3855949E+03  0.7957747E-01  0.3427153E+00
         13   -1    0    0    0    0  0.00000000000E+00  0.00000000000E+00  0.14999999963E+04  0.15000000000E+04  0.10566000000E+00 0. -1.
        994   -1    0    0    0    0 -0.00000000000E+00 -0.00000000000E+00  0.11368683772E-12  0.17120000000E+03  0.17120000000E+03 0.  0.
         13    1    1    2    0    0 -0.11218836680E+02  0.54324250273E+00  0.49503368732E+02  0.50761718733E+02  0.10566000000E+00 0. -1.
        994    1    1    2    0    0  0.60659687475E+00 -0.56091247817E+01  0.14395497187E+01  0.17129898582E+03  0.17120000000E+03 0.  0.
        998    1    1    2    0    0  0.10612239805E+02  0.50658822790E+01  0.14490570778E+04  0.14491392954E+04  0.10000000000E+02 0. -1.
</event>
<event>
 5    1  0.1520352E-008  0.3795788E+03  0.7957747E-01  0.3452995E+00
         13   -1    0    0    0    0  0.00000000000E+00  0.00000000000E+00  0.14999999963E+04  0.15000000000E+04  0.10566000000E+00 0. -1.
        994   -1    0    0    0    0 -0.00000000000E+00 -0.00000000000E+00  0.11368683772E-12  0.17120000000E+03  0.17120000000E+03 0.  0.
         13    1    1    2    0    0 -0.15630470149E+02 -0.60019666193E+01  0.30973419626E+02  0.35209360797E+02  0.10566000000E+00 0. -1.
        994    1    1    2    0    0  0.56598732789E+01  0.35491312968E+01  0.44953307234E+01  0.17138926016E+03  0.17120000000E+03 0.  0.
        998    1    1    2    0    0  0.99705968702E+01  0.24528353225E+01  0.14645312459E+04  0.14646013790E+04  0.10000000000E+02 0. -1.
</event>
<event>
 5    1  0.1520352E-008  0.3822321E+03  0.7957747E-01  0.3441497E+00
         13   -1    0    0    0    0  0.00000000000E+00  0.00000000000E+00  0.14999999963E+04  0.15000000000E+04  0.10566000000E+00 0. -1.
        994   -1    0    0    0    0 -0.00000000000E+00 -0.00000000000E+00  0.11368683772E-12  0.17120000000E+03  0.17120000000E+03 0.  0.
         13    1    1    2    0    0  0.11461196891E+02 -0.19799695430E+02  0.80365666220E+02  0.83558592881E+02  0.10566000000E+00 0. -1.
        994    1    1    2    0    0 -0.76833804834E+01  0.26936677537E+02  0.56187006881E+01  0.17356736078E+03  0.17120000000E+03 0.  0.
        998    1    1    2    0    0 -0.37778164078E+01 -0.71369821074E+01  0.14140156294E+04  0.14140740463E+04  0.10000000000E+02 0. -1.
</event>
<event>
 5    1  0.1520352E-008  0.3920816E+03  0.7957747E-01  0.3400182E+00
         13   -1    0    0    0    0  0.00000000000E+00  0.00000000000E+00  0.14999999963E+04  0.15000000000E+04  0.10566000000E+00 0. -1.
        994   -1    0    0    0    0 -0.00000000000E+00 -0.00000000000E+00  0.11368683772E-12  0.17120000000E+03  0.17120000000E+03 0.  0.
         13    1    1    2    0    0 -0.60468072726E+01  0.83040924505E+02  0.13003150075E+03  0.15440389040E+03  0.10566000000E+00 0. -1.
        994    1    1    2    0    0  0.69470290706E+02 -0.78207946686E+02  0.65952368008E+02  0.21119128548E+03  0.17120000000E+03 0.  0.
        998    1    1    2    0    0 -0.63423483433E+02 -0.48329778190E+01  0.13040161275E+04  0.13056048241E+04  0.10000000000E+02 0. -1.
</event>
<event>
 5    1  0.1520352E-008  0.3840623E+03  0.7957747E-01  0.3433659E+00
         13   -1    0    0    0    0  0.00000000000E+00  0.00000000000E+00  0.14999999963E+04  0.15000000000E+04  0.10566000000E+00 0.  1.
        994   -1    0    0    0    0 -0.00000000000E+00 -0.00000000000E+00  0.11368683772E-12  0.17120000000E+03  0.17120000000E+03 0.  0.
         13    1    1    2    0    0 -0.15192534109E+01  0.12455495246E+02  0.36607430989E+02  0.38698354750E+02  0.10566000000E+00 0.  1.
        994    1    1    2    0    0  0.16099330658E+01 -0.11060469171E+02  0.25086195439E+01  0.17158280518E+03  0.17120000000E+03 0.  0.
        998    1    1    2    0    0 -0.90679654881E-01 -0.13950260750E+01  0.14608839457E+04  0.14609188401E+04  0.10000000000E+02 0.  1.
</event>
<event>
 5    1  0.1520352E-008  0.3775965E+03  0.7957747E-01  0.3461691E+00
         13   -1    0    0    0    0  0.00000000000E+00  0.00000000000E+00  0.14999999963E+04  0.15000000000E+04  0.10566000000E+00 0.  1.
        994   -1    0    0    0    0 -0.00000000000E+00 -0.00000000000E+00  0.11368683772E-12  0.17120000000E+03  0.17120000000E+03 0.  0.
         13    1    1    2    0    0 -0.91901872695E+02 -0.23075737404E+03  0.95517291354E+03  0.98693982887E+03  0.10566000000E+00 0.  1.
        994    1    1    2    0    0  0.74569546912E+02  0.24574686337E+03  0.27532415331E+03  0.41360000916E+03  0.17120000000E+03 0.  0.
        998    1    1    2    0    0  0.17332325783E+02 -0.14989489328E+02  0.26950292943E+03  0.27066016197E+03  0.10000000000E+02 0.  1.
</event>
<event>
 5    1  0.1520352E-008  0.3744711E+03  0.7957747E-01  0.3475591E+00
         13   -1    0    0    0    0  0.00000000000E+00  0.00000000000E+00  0.14999999963E+04  0.15000000000E+04  0.10566000000E+00 0. -1.
        994   -1    0    0    0    0 -0.00000000000E+00 -0.00000000000E+00  0.11368683772E-12  0.17120000000E+03  0.17120000000E+03 0.  0.
         13    1    1    2    0    0 -0.64429995371E+02  0.67703989003E+02  0.37756235904E+03  0.38895809614E+03  0.10566000000E+00 0. -1.
        994    1    1    2    0    0  0.75817118807E+02 -0.88594993512E+02  0.54764160398E+02  0.21425653232E+03  0.17120000000E+03 0.  0.
        998    1    1    2    0    0 -0.11387123436E+02  0.20891004509E+02  0.10676734768E+04  0.10679853715E+04  0.10000000000E+02 0. -1.
</event>
<event>
 5    1  0.1520352E-008  0.3708087E+03  0.7957747E-01  0.3492182E+00
         13   -1    0    0    0    0  0.00000000000E+00  0.00000000000E+00  0.14999999963E+04  0.15000000000E+04  0.10566000000E+00 0. -1.
        994   -1    0    0    0    0 -0.00000000000E+00 -0.00000000000E+00  0.11368683772E-12  0.17120000000E+03  0.17120000000E+03 0.  0.
         13    1    1    2    0    0  0.26365181260E+02  0.34679003800E+02  0.99152894659E+02  0.10830080226E+03  0.10566000000E+00 0. -1.
        994    1    1    2    0    0 -0.25528902899E+02 -0.30951780880E+02  0.14417831046E+02  0.17642860164E+03  0.17120000000E+03 0.  0.
        998    1    1    2    0    0 -0.83627836128E+00 -0.37272229203E+01  0.13864292706E+04  0.13864705961E+04  0.10000000000E+02 0. -1.
</event>
<event>
 5    1  0.1520352E-008  0.3856823E+03  0.7957747E-01  0.3426784E+00
         13   -1    0    0    0    0  0.00000000000E+00  0.00000000000E+00  0.14999999963E+04  0.15000000000E+04  0.10566000000E+00 0.  1.
        994   -1    0    0    0    0 -0.00000000000E+00 -0.00000000000E+00  0.11368683772E-12  0.17120000000E+03  0.17120000000E+03 0.  0.
         13    1    1    2    0    0 -0.75941850772E+01 -0.96275255583E+01  0.54429521501E+02  0.55793770891E+02  0.10566000000E+00 0.  1.
        994    1    1    2    0    0 -0.90659732397E+00  0.26351903734E+02  0.35764755894E+01  0.17325552207E+03  0.17120000000E+03 0.  0.
        998    1    1    2    0    0  0.85007824011E+01 -0.16724378176E+02  0.14419939992E+04  0.14421507070E+04  0.10000000000E+02 0.  1.
</event>
<event>
 5    1  0.1520352E-008  0.3815552E+03  0.7957747E-01  0.3444415E+00
         13   -1    0    0    0    0  0.00000000000E+00  0.00000000000E+00  0.14999999963E+04  0.15000000000E+04  0.10566000000E+00 0. -1.
        994   -1    0    0    0    0 -0.00000000000E+00 -0.00000000000E+00  0.11368683772E-12  0.17120000000E+03  0.17120000000E+03 0.  0.
         13    1    1    2    0    0  0.31520686475E+02 -0.21432200650E+02  0.19992175819E+03  0.20352300475E+03  0.10566000000E+00 0. -1.
        994    1    1    2    0    0 -0.17190279498E+02  0.31589904668E+02  0.76638322386E+01  0.17510454623E+03  0.17120000000E+03 0.  0.
        998    1    1    2    0    0 -0.14330406977E+02 -0.10157704018E+02  0.12924144059E+04  0.12925724490E+04  0.10000000000E+02 0. -1.
</event>
<event>
 5    1  0.1520352E-008  0.3820206E+03  0.7957747E-01  0.3442407E+00
         13   -1    0    0    0    0  0.00000000000E+00  0.00000000000E+00  0.14999999963E+04  0.15000000000E+04  0.10566000000E+00 0.  1.
        994   -1    0    0    0    0 -0.00000000000E+00 -0.00000000000E+00  0.11368683772E-12  0.17120000000E+03  0.17120000000E+03 0.  0.
         13    1    1    2    0    0  0.91695975364E+01 -0.21538494373E+02  0.11907633013E+03  0.12135555949E+03  0.10566000000E+00 0.  1.
        994    1    1    2    0    0  0.36190764337E+02 -0.18710158521E+02  0.86481876421E+01  0.17619328195E+03  0.17120000000E+03 0.  0.
        998    1    1    2    0    0 -0.45360361873E+02  0.40248652894E+02  0.13722754785E+04  0.13736511586E+04  0.10000000000E+02 0.  1.
</event>
<event>
 5    1  0.1520352E-008  0.3761799E+03  0.7957747E-01  0.3467962E+00
         13   -1    0    0    0    0  0.00000000000E+00  0.00000000000E+00  0.14999999963E+04  0.15000000000E+04  0.10566000000E+00 0.  1.
        994   -1    0    0    0    0 -0.00000000000E+00 -0.00000000000E+00  0.11368683772E-12  0.17120000000E+03  0.17120000000E+03 0.  0.
         13    1    1    2    0    0  0.91158357258E+01  0.67753100547E+01  0.77748154337E+01  0.13764527103E+02  0.10566000000E+00 0.  1.
        994    1    1    2    0    0 -0.97311824586E+01 -0.85472574946E+01  0.66422151259E+01  0.17181766657E+03  0.17120000000E+03 0.  0.
        998    1    1    2    0    0  0.61534673279E+00  0.17719474399E+01  0.14855829657E+04  0.14856178063E+04  0.10000000000E+02 0.  1.
</event>
<event>
 5    1  0.1520352E-008  0.3816135E+03  0.7957747E-01  0.3444163E+00
         13   -1    0    0    0    0  0.00000000000E+00  0.00000000000E+00  0.14999999963E+04  0.15000000000E+04  0.10566000000E+00 0.  1.
        994   -1    0    0    0    0 -0.00000000000E+00 -0.00000000000E+00  0.11368683772E-12  0.17120000000E+03  0.17120000000E+03 0.  0.
         13    1    1    2    0    0  0.13288897622E+02 -0.11503219275E+02  0.49418850216E+02  0.52451432529E+02  0.10566000000E+00 0.  1.
        994    1    1    2    0    0  0.17650814787E+02  0.61818523447E+01  0.44847480722E+01  0.17227686881E+03  0.17120000000E+03 0.  0.
        998    1    1    2    0    0 -0.30939712409E+02  0.53213669306E+01  0.14460963980E+04  0.14464716987E+04  0.10000000000E+02 0.  1.
</event>
<event>
 5    1  0.1520352E-008  0.3829769E+03  0.7957747E-01  0.3438298E+00
         13   -1    0    0    0    0  0.00000000000E+00  0.00000000000E+00  0.14999999963E+04  0.15000000000E+04  0.10566000000E+00 0.  1.
        994   -1    0    0    0    0 -0.00000000000E+00 -0.00000000000E+00  0.11368683772E-12  0.17120000000E+03  0.17120000000E+03 0.  0.
         13    1    1    2    0    0  0.24222524616E+02 -0.10799626741E+01  0.12233338558E+03  0.12471313247E+03  0.10566000000E+00 0.  1.
        994    1    1    2    0    0 -0.82369979019E+00 -0.26126064022E+01  0.26627547396E+01  0.17124261869E+03  0.17120000000E+03 0.  0.
        998    1    1    2    0    0 -0.23398824826E+02  0.36925690763E+01  0.13750038560E+04  0.13752442488E+04  0.10000000000E+02 0.  1.
</event>
<event>
 5    1  0.1520352E-008  0.3800629E+03  0.7957747E-01  0.3450885E+00
         13   -1    0    0    0    0  0.00000000000E+00  0.00000000000E+00  0.14999999963E+04  0.15000000000E+04  0.10566000000E+00 0. -1.
        994   -1    0    0    0    0 -0.00000000000E+00 -0.00000000000E+00  0.11368683772E-12  0.17120000000E+03  0.17120000000E+03 0.  0.
         13    1    1    2    0    0 -0.14510254993E+02 -0.78144590629E+00  0.24071857813E+02  0.28118030875E+02  0.10566000000E+00 0. -1.
        994    1    1    2    0    0  0.10369288647E+02 -0.56708987996E+01  0.45683850456E+01  0.17166825968E+03  0.17120000000E+03 0.  0.
        998    1    1    2    0    0  0.41409663454E+01  0.64523447059E+01  0.14713597534E+04  0.14714137094E+04  0.10000000000E+02 0. -1.
</event>
<event>
 5    1  0.1520352E-008  0.4227037E+03  0.7957747E-01  0.3283982E+00
         13   -1    0    0    0    0  0.00000000000E+00  0.00000000000E+00  0.14999999963E+04  0.15000000000E+04  0.10566000000E+00 0. -1.
        994   -1    0    0    0    0 -0.00000000000E+00 -0.00000000000E+00  0.11368683772E-12  0.17120000000E+03  0.17120000000E+03 0.  0.
         13    1    1    2    0    0  0.50018409586E+02 -0.61912223537E+02  0.59450658911E+02  0.99344636141E+02  0.10566000000E+00 0. -1.
        994    1    1    2    0    0 -0.50607492309E+02  0.62263069725E+02  0.70525229094E+02  0.20179458880E+03  0.17120000000E+03 0.  0.
        998    1    1    2    0    0  0.58908272282E+00 -0.35084618800E+00  0.13700241083E+04  0.13700607751E+04  0.10000000000E+02 0.  0.
</event>
<event>
 5    1  0.1520352E-008  0.3853346E+03  0.7957747E-01  0.3428254E+00
         13   -1    0    0    0    0  0.00000000000E+00  0.00000000000E+00  0.14999999963E+04  0.15000000000E+04  0.10566000000E+00 0.  1.
        994   -1    0    0    0    0 -0.00000000000E+00 -0.00000000000E+00  0.11368683772E-12  0.17120000000E+03  0.17120000000E+03 0.  0.
         13    1    1    2    0    0  0.10787108846E+02  0.59554674438E+01  0.52440381372E+02  0.53868674312E+02  0.10566000000E+00 0.  1.
        994    1    1    2    0    0 -0.84760411795E+01  0.12222021721E+01  0.17050644039E+01  0.17142253147E+03  0.17120000000E+03 0.  0.
        998    1    1    2    0    0 -0.23110676664E+01 -0.71776696158E+01  0.14458545505E+04  0.14459087942E+04  0.10000000000E+02 0.  1.
</event>
<event>
 5    1  0.1520352E-008  0.3778728E+03  0.7957747E-01  0.3460473E+00
         13   -1    0    0    0    0  0.00000000000E+00  0.00000000000E+00  0.14999999963E+04  0.15000000000E+04  0.10566000000E+00 0.  1.
        994   -1    0    0    0    0 -0.00000000000E+00 -0.00000000000E+00  0.11368683772E-12  0.17120000000E+03  0.17120000000E+03 0.  0.
         13    1    1    2    0    0  0.25393322024E+02 -0.73557459094E+01  0.63376354704E+02  0.68669507796E+02  0.10566000000E+00 0.  1.
        994    1    1    2    0    0 -0.21353931849E+02  0.12523793248E+02  0.72767316373E+01  0.17313355142E+03  0.17120000000E+03 0.  0.
        998    1    1    2    0    0 -0.40393901752E+01 -0.51680473389E+01  0.14293469099E+04  0.14293969408E+04  0.10000000000E+02 0.  1.
</event>
<event>
 5    1  0.1520352E-008  0.3806820E+03  0.7957747E-01  0.3448194E+00
         13   -1    0    0    0    0  0.00000000000E+00  0.00000000000E+00  0.14999999963E+04  0.15000000000E+04  0.10566000000E+00 0. -1.
        994   -1    0    0    0    0 -0.00000000000E+00 -0.00000000000E+00  0.11368683772E-12  0.17120000000E+03  0.17120000000E+03 0.  0.
         13    1    1    2    0    0 -0.27482775043E+00 -0.11840626126E+02  0.17201518977E+02  0.20884907864E+02  0.10566000000E+00 0. -1.
        994    1    1    2    0    0  0.88766966413E+01  0.19123151600E+01  0.40643525085E+01  0.17148880912E+03  0.17120000000E+03 0.  0.
        998    1    1    2    0    0 -0.86018688909E+01  0.99283109655E+01  0.14787341248E+04  0.14788262830E+04  0.10000000000E+02 0. -1.
</event>
<event>
 5    1  0.1520352E-008  0.3722266E+03  0.7957747E-01  0.3485720E+00
         13   -1    0    0    0    0  0.00000000000E+00  0.00000000000E+00  0.14999999963E+04  0.15000000000E+04  0.10566000000E+00 0. -1.
        994   -1    0    0    0    0 -0.00000000000E+00 -0.00000000000E+00  0.11368683772E-12  0.17120000000E+03  0.17120000000E+03 0.  0.
         13    1    1    2    0    0 -0.19806675299E+02 -0.48858960940E+02  0.17611703431E+03  0.18383885168E+03  0.10566000000E+00 0. -1.
        994    1    1    2    0    0 -0.16283399920E+02  0.31785523514E+02  0.12499034453E+02  0.17533149883E+03  0.17120000000E+03 0.  0.
        998    1    1    2    0    0  0.36090075219E+02  0.17073437426E+02  0.13113839275E+04  0.13120296495E+04  0.10000000000E+02 0. -1.
</event>
<event>
 5    1  0.1520352E-008  0.3845221E+03  0.7957747E-01  0.3431701E+00
         13   -1    0    0    0    0  0.00000000000E+00  0.00000000000E+00  0.14999999963E+04  0.15000000000E+04  0.10566000000E+00 0. -1.
        994   -1    0    0    0    0 -0.00000000000E+00 -0.00000000000E+00  0.11368683772E-12  0.17120000000E+03  0.17120000000E+03 0.  0.
         13    1    1    2    0    0  0.15165613247E+02 -0.97351812199E+01  0.92324578264E+02  0.94067042550E+02  0.10566000000E+00 0. -1.
        994    1    1    2    0    0 -0.97073141868E+00  0.37455012568E+01  0.19168984390E+01  0.17125444695E+03  0.17120000000E+03 0.  0.
        998    1    1    2    0    0 -0.14194881828E+02  0.59896799631E+01  0.14057585196E+04  0.14058785105E+04  0.10000000000E+02 0. -1.
</event>
<event>
 5    1  0.1520352E-008  0.3754173E+03  0.7957747E-01  0.3471359E+00
         13   -1    0    0    0    0  0.00000000000E+00  0.00000000000E+00  0.14999999963E+04  0.15000000000E+04  0.10566000000E+00 0.  1.
        994   -1    0    0    0    0 -0.00000000000E+00 -0.00000000000E+00  0.11368683772E-12  0.17120000000E+03  0.17120000000E+03 0.  0.
         13    1    1    2    0    0  0.11271589446E+02  0.92494880853E+01  0.13493353311E+02  0.19866643050E+02  0.10566000000E+00 0.  1.
        994    1    1    2    0    0 -0.11015660000E+02 -0.80856793162E+01  0.70986741467E+01  0.17189111132E+03  0.17120000000E+03 0.  0.
        998    1    1    2    0    0 -0.25592944559E+00 -0.11638087691E+01  0.14794079688E+04  0.14794422456E+04  0.10000000000E+02 0.  1.
</event>
<event>
 5    1  0.1520352E-008  0.3693582E+03  0.7957747E-01  0.3498846E+00
         13   -1    0    0    0    0  0.00000000000E+00  0.00000000000E+00  0.14999999963E+04  0.15000000000E+04  0.10566000000E+00 0.  1.
        994   -1    0    0    0    0 -0.00000000000E+00 -0.00000000000E+00  0.11368683772E-12  0.17120000000E+03  0.17120000000E+03 0.  0.
         13    1    1    2    0    0 -0.26236080334E+02 -0.55070522890E+01  0.27124809711E+02  0.38136937502E+02  0.10566000000E+00 0.  1.
        994    1    1    2    0    0  0.95899618662E+02  0.18919051949E+02  0.43485366529E+02  0.20187888569E+03  0.17120000000E+03 0.  0.
        998    1    1    2    0    0 -0.69663538328E+02 -0.13411999660E+02  0.14293898200E+04  0.14311841768E+04  0.10000000000E+02 0.  1.
</event>
<event>
 5    1  0.1520352E-008  0.3789451E+03  0.7957747E-01  0.3455765E+00
         13   -1    0    0    0    0  0.00000000000E+00  0.00000000000E+00  0.14999999963E+04  0.15000000000E+04  0.10566000000E+00 0. -1.
        994   -1    0    0    0    0 -0.00000000000E+00 -0.00000000000E+00  0.11368683772E-12  0.17120000000E+03  0.17120000000E+03 0.  0.
         13    1    1    2    0    0 -0.20113194721E+02 -0.61223911633E+01  0.46827411955E+02  0.51330711566E+02  0.10566000000E+00 0. -1.
        994    1    1    2    0    0  0.61752494645E+01  0.39555168312E+00  0.47950854747E+01  0.17137888730E+03  0.17120000000E+03 0.  0.
        998    1    1    2    0    0  0.13937945257E+02  0.57268394802E+01  0.14483774988E+04  0.14484904011E+04  0.10000000000E+02 0. -1.
</event>
<event>
 5    1  0.1520352E-008  0.3762723E+03  0.7957747E-01  0.3467552E+00
         13   -1    0    0    0    0  0.00000000000E+00  0.00000000000E+00  0.14999999963E+04  0.15000000000E+04  0.10566000000E+00 0.  1.
        994   -1    0    0    0    0 -0.00000000000E+00 -0.00000000000E+00  0.11368683772E-12  0.17120000000E+03  0.17120000000E+03 0.  0.
         13    1    1    2    0    0 -0.53557709016E+02  0.12669347112E+02  0.25802460909E+03  0.26382882824E+03  0.10566000000E+00 0.  1.
        994    1    1    2    0    0  0.20931187069E+02 -0.31912988825E+02  0.10972707484E+02  0.17574525245E+03  0.17120000000E+03 0.  0.
        998    1    1    2    0    0  0.32626521947E+02  0.19243641713E+02  0.12310026797E+04  0.12316259193E+04  0.10000000000E+02 0.  1.
</event>
<event>
 5    1  0.1520352E-008  0.3726151E+03  0.7957747E-01  0.3483958E+00
         13   -1    0    0    0    0  0.00000000000E+00  0.00000000000E+00  0.14999999963E+04  0.15000000000E+04  0.10566000000E+00 0. -1.
        994   -1    0    0    0    0 -0.00000000000E+00 -0.00000000000E+00  0.11368683772E-12  0.17120000000E+03  0.17120000000E+03 0.  0.
         13    1    1    2    0    0 -0.65916948685E+02 -0.25359910935E+02  0.18322417526E+03  0.19636516689E+03  0.10566000000E+00 0. -1.
        994    1    1    2    0    0  0.59929445235E+02  0.12794962851E+02  0.25698722669E+02  0.18364398664E+03  0.17120000000E+03 0.  0.
        998    1    1    2    0    0  0.59875034502E+01  0.12564948084E+02  0.12910770984E+04  0.12911908465E+04  0.10000000000E+02 0. -1.
</event>
<event>
 5    1  0.1520352E-008  0.3805357E+03  0.7957747E-01  0.3448829E+00
         13   -1    0    0    0    0  0.00000000000E+00  0.00000000000E+00  0.14999999963E+04  0.15000000000E+04  0.10566000000E+00 0.  1.
        994   -1    0    0    0    0 -0.00000000000E+00 -0.00000000000E+00  0.11368683772E-12  0.17120000000E+03  0.17120000000E+03 0.  0.
         13    1    1    2    0    0 -0.65181898035E+00 -0.43712613019E+02  0.20435700618E+03  0.20898089516E+03  0.10566000000E+00 0.  1.
        994    1    1    2    0    0  0.13410450589E+01  0.49970779654E+02  0.12247160085E+02  0.17876887355E+03  0.17120000000E+03 0.  0.
        998    1    1    2    0    0 -0.68922607852E+00 -0.62581666349E+01  0.12833958300E+04  0.12834502313E+04  0.10000000000E+02 0.  1.
</event>
<event>
 5    1  0.1520352E-008  0.3795449E+03  0.7957747E-01  0.3453143E+00
         13   -1    0    0    0    0  0.00000000000E+00  0.00000000000E+00  0.14999999963E+04  0.15000000000E+04  0.10566000000E+00 0. -1.
        994   -1    0    0    0    0 -0.00000000000E+00 -0.00000000000E+00  0.11368683772E-12  0.17120000000E+03  0.17120000000E+03 0.  0.
         13    1    1    2    0    0 -0.88254688549E+01 -0.53734889876E+02  0.29090332844E+03  0.29595622135E+03  0.10566000000E+00 0. -1.
        994    1    1    2    0    0 -0.12672934904E+01  0.49284138085E+02  0.12543715609E+02  0.17859820016E+03  0.17120000000E+03 0.  0.
        998    1    1    2    0    0  0.10092762345E+02  0.44507517912E+01  0.11965529522E+04  0.11966455785E+04  0.10000000000E+02 0. -1.
</event>
<event>
 5    1  0.1520352E-008  0.3781704E+03  0.7957747E-01  0.3459164E+00
         13   -1    0    0    0    0  0.00000000000E+00  0.00000000000E+00  0.14999999963E+04  0.15000000000E+04  0.10566000000E+00 0.  1.
        994   -1    0    0    0    0 -0.00000000000E+00 -0.00000000000E+00  0.11368683772E-12  0.17120000000E+03  0.17120000000E+03 0.  0.
         13    1    1    2    0    0  0.31424116339E+02  0.13253807580E+02  0.10513684593E+03  0.11053011372E+03  0.10566000000E+00 0.  1.
        994    1    1    2    0    0 -0.32059608997E+02 -0.16421337517E+02  0.94357220647E+01  0.17520260188E+03  0.17120000000E+03 0.  0.
        998    1    1    2    0    0  0.63549265836E+00  0.31675299373E+01  0.13854274283E+04  0.13854672844E+04  0.10000000000E+02 0.  1.
</event>
<event>
 5    1  0.1520352E-008  0.3839404E+03  0.7957747E-01  0.3434179E+00
         13   -1    0    0    0    0  0.00000000000E+00  0.00000000000E+00  0.14999999963E+04  0.15000000000E+04  0.10566000000E+00 0.  1.
        994   -1    0    0    0    0 -0.00000000000E+00 -0.00000000000E+00  0.11368683772E-12  0.17120000000E+03  0.17120000000E+03 0.  0.
         13    1    1    2    0    0 -0.13651400325E+02  0.14101382276E+01  0.42893302539E+02  0.45035494750E+02  0.10566000000E+00 0.  1.
        994    1    1    2    0    0  0.10370679621E+02 -0.10715423346E+01  0.25159214191E+01  0.17153562038E+03  0.17120000000E+03 0.  0.
        998    1    1    2    0    0  0.32807207046E+01 -0.33859589299E+00  0.14545907723E+04  0.14546288849E+04  0.10000000000E+02 0.  1.
</event>
<event>
 5    1  0.1520352E-008  0.3858101E+03  0.7957747E-01  0.3426244E+00
         13   -1    0    0    0    0  0.00000000000E+00  0.00000000000E+00  0.14999999963E+04  0.15000000000E+04  0.10566000000E+00 0. -1.
        994   -1    0    0    0    0 -0.00000000000E+00 -0.00000000000E+00  0.11368683772E-12  0.17120000000E+03  0.17120000000E+03 0.  0.
         13    1    1    2    0    0 -0.91572837740E+01 -0.69856035061E+01  0.53447191761E+02  0.54674198427E+02  0.10566000000E+00 0. -1.
        994    1    1    2    0    0  0.80100998415E+01  0.69945108106E+01  0.15994715980E+01  0.17153741047E+03  0.17120000000E+03 0.  0.
        998    1    1    2    0    0  0.11471839325E+01 -0.89073045079E-02  0.14449533329E+04  0.14449883911E+04  0.10000000000E+02 0. -1.
</event>
<event>
 5    1  0.1520352E-008  0.3700237E+03  0.7957747E-01  0.3495782E+00
         13   -1    0    0    0    0  0.00000000000E+00  0.00000000000E+00  0.14999999963E+04  0.15000000000E+04  0.10566000000E+00 0. -1.
        994   -1    0    0    0    0 -0.00000000000E+00 -0.00000000000E+00  0.11368683772E-12  0.17120000000E+03  0.17120000000E+03 0.  0.
         13    1    1    2    0    0 -0.52502570886E+01 -0.56636690407E+02  0.16995582584E+03  0.17922129840E+03  0.10566000000E+00 0. -1.
        994    1    1    2    0    0  0.98074664915E+01  0.35319282772E+02  0.13916381575E+02  0.17563241105E+03  0.17120000000E+03 0.  0.
        998    1    1    2    0    0 -0.45572094029E+01  0.21317407636E+02  0.13161277889E+04  0.13163462906E+04  0.10000000000E+02 0. -1.
</event>
<event>
 5    1  0.1520352E-008  0.3863188E+03  0.7957747E-01  0.3424098E+00
         13   -1    0    0    0    0  0.00000000000E+00  0.00000000000E+00  0.14999999963E+04  0.15000000000E+04  0.10566000000E+00 0.  1.
        994   -1    0    0    0    0 -0.00000000000E+00 -0.00000000000E+00  0.11368683772E-12  0.17120000000E+03  0.17120000000E+03 0.  0.
         13    1    1    2    0    0  0.10188130077E+02 -0.53905361038E-02  0.55961540341E+02  0.56881483674E+02  0.10566000000E+00 0.  1.
        994    1    1    2    0    0 -0.26300156455E+01 -0.13029116237E+02  0.15555495409E+01  0.17172226002E+03  0.17120000000E+03 0.  0.
        998    1    1    2    0    0 -0.75581144320E+01  0.13034506774E+02  0.14424829064E+04  0.14425962563E+04  0.10000000000E+02 0.  1.
</event>
<event>
 5    1  0.1520352E-008  0.3858706E+03  0.7957747E-01  0.3425988E+00
         13   -1    0    0    0    0  0.00000000000E+00  0.00000000000E+00  0.14999999963E+04  0.15000000000E+04  0.10566000000E+00 0.  1.
        994   -1    0    0    0    0 -0.00000000000E+00 -0.00000000000E+00  0.11368683772E-12  0.17120000000E+03  0.17120000000E+03 0.  0.
         13    1    1    2    0    0 -0.99517652347E+01  0.75279715804E+01  0.71400366856E+02  0.72482629220E+02  0.10566000000E+00 0.  1.
        994    1    1    2    0    0 -0.10066352683E+02 -0.95739345394E+01  0.18316752228E+01  0.17177248532E+03  0.17120000000E+03 0.  0.
        998    1    1    2    0    0  0.20018117918E+02  0.20459629589E+01  0.14267679542E+04  0.14269448855E+04  0.10000000000E+02 0.  1.
</event>
<event>
 5    1  0.1520352E-008  0.3796761E+03  0.7957747E-01  0.3452570E+00
         13   -1    0    0    0    0  0.00000000000E+00  0.00000000000E+00  0.14999999963E+04  0.15000000000E+04  0.10566000000E+00 0.  1.
        994   -1    0    0    0    0 -0.00000000000E+00 -0.00000000000E+00  0.11368683772E-12  0.17120000000E+03  0.17120000000E+03 0.  0.
         13    1    1    2    0    0 -0.49114728545E+01  0.31390475405E+02  0.12849618463E+03  0.13236602714E+03  0.10566000000E+00 0.  1.
        994    1    1    2    0    0 -0.22258188494E+02 -0.54503436200E+01  0.60560640397E+01  0.17283300932E+03  0.17120000000E+03 0.  0.
        998    1    1    2    0    0  0.27169661349E+02 -0.25940131785E+02  0.13654477476E+04  0.13660009635E+04  0.10000000000E+02 0.  1.
</event>
<event>
 5    1  0.1520352E-008  0.3819725E+03  0.7957747E-01  0.3442615E+00
         13   -1    0    0    0    0  0.00000000000E+00  0.00000000000E+00  0.14999999963E+04  0.15000000000E+04  0.10566000000E+00 0. -1.
        994   -1    0    0    0    0 -0.00000000000E+00 -0.00000000000E+00  0.11368683772E-12  0.17120000000E+03  0.17120000000E+03 0.  0.
         13    1    1    2    0    0 -0.99017999004E+01  0.73582615164E+01 -0.37241487237E+01  0.12886818908E+02  0.10566000000E+00 0. -1.
        994    1    1    2    0    0  0.23474642543E+02  0.27004935881E+01  0.19455436812E+02  0.17391465013E+03  0.17120000000E+03 0.  0.
        998    1    1    2    0    0 -0.13572842642E+02 -0.10058755105E+02  0.14842687082E+04  0.14843985310E+04  0.10000000000E+02 0. -1.
</event>
<event>
 5    1  0.1520352E-008  0.3763833E+03  0.7957747E-01  0.3467059E+00
         13   -1    0    0    0    0  0.00000000000E+00  0.00000000000E+00  0.14999999963E+04  0.15000000000E+04  0.10566000000E+00 0.  1.
        994   -1    0    0    0    0 -0.00000000000E+00 -0.00000000000E+00  0.11368683772E-12  0.17120000000E+03  0.17120000000E+03 0.  0.
         13    1    1    2    0    0  0.12452577510E+01  0.28716549337E+02  0.63966895283E+02  0.70128209223E+02  0.10566000000E+00 0.  1.
        994    1    1    2    0    0 -0.83702842424E+01 -0.30587807411E+02  0.93802355751E+01  0.17436486011E+03  0.17120000000E+03 0.  0.
        998    1    1    2    0    0  0.71250264914E+01  0.18712580742E+01  0.14266528654E+04  0.14267069307E+04  0.10000000000E+02 0.  1.
</event>
<event>
 5    1  0.1520352E-008  0.3855363E+03  0.7957747E-01  0.3427401E+00
         13   -1    0    0    0    0  0.00000000000E+00  0.00000000000E+00  0.14999999963E+04  0.15000000000E+04  0.10566000000E+00 0.  1.
        994   -1    0    0    0    0 -0.00000000000E+00 -0.00000000000E+00  0.11368683772E-12  0.17120000000E+03  0.17120000000E+03 0.  0.
         13    1    1    2    0    0 -0.12256806912E+02  0.36471770125E+01  0.65213269112E+02  0.66455344768E+02  0.10566000000E+00 0.  1.
        994    1    1    2    0    0 -0.21707239599E+01  0.23482389945E+01  0.13976646203E+01  0.17123556796E+03  0.17120000000E+03 0.  0.
        998    1    1    2    0    0  0.14427530872E+02 -0.59954160070E+01  0.14333890625E+04  0.14335090873E+04  0.10000000000E+02 0.  1.
</event>
<event>
 5    1  0.1520352E-008  0.3758708E+03  0.7957747E-01  0.3469337E+00
         13   -1    0    0    0    0  0.00000000000E+00  0.00000000000E+00  0.14999999963E+04  0.15000000000E+04  0.10566000000E+00 0. -1.
        994   -1    0    0    0    0 -0.00000000000E+00 -0.00000000000E+00  0.11368683772E-12  0.17120000000E+03  0.17120000000E+03 0.  0.
         13    1    1    2    0    0 -0.16280978537E+02  0.43748128700E+02  0.16573532920E+03  0.17218356349E+03  0.10566000000E+00 0. -1.
        994    1    1    2    0    0  0.19496395220E+02 -0.29895946751E+02  0.10561900519E+02  0.17519951713E+03  0.17120000000E+03 0.  0.
        998    1    1    2    0    0 -0.32154166835E+01 -0.13852181949E+02  0.13237027666E+04  0.13238169194E+04  0.10000000000E+02 0. -1.
</event>
<event>
 5    1  0.1520352E-008  0.3865172E+03  0.7957747E-01  0.3423263E+00
         13   -1    0    0    0    0  0.00000000000E+00  0.00000000000E+00  0.14999999963E+04  0.15000000000E+04  0.10566000000E+00 0. -1.
        994   -1    0    0    0    0 -0.00000000000E+00 -0.00000000000E+00  0.11368683772E-12  0.17120000000E+03  0.17120000000E+03 0.  0.
         13    1    1    2    0    0 -0.99500861723E+01 -0.11258220037E+01  0.55283879139E+02  0.56183539820E+02  0.10566000000E+00 0. -1.
        994    1    1    2    0    0  0.13222601562E+02  0.45627839353E+01  0.15192987145E+01  0.17177719423E+03  0.17120000000E+03 0.  0.
        998    1    1    2    0    0 -0.32725153894E+01 -0.34369619316E+01  0.14431968184E+04  0.14432392659E+04  0.10000000000E+02 0. -1.
</event>
<event>
 5    1  0.1520352E-008  0.3836613E+03  0.7957747E-01  0.3435370E+00
         13   -1    0    0    0    0  0.00000000000E+00  0.00000000000E+00  0.14999999963E+04  0.15000000000E+04  0.10566000000E+00 0. -1.
        994   -1    0    0    0    0 -0.00000000000E+00 -0.00000000000E+00  0.11368683772E-12  0.17120000000E+03  0.17120000000E+03 0.  0.
         13    1    1    2    0    0 -0.55104584660E+01 -0.89333395631E+01  0.23706335178E+02  0.25926264673E+02  0.10566000000E+00 0. -1.
        994    1    1    2    0    0 -0.89924789402E+00  0.22685406526E+01  0.23159033974E+01  0.17123305269E+03  0.17120000000E+03 0.  0.
        998    1    1    2    0    0  0.64097063600E+01  0.66647989105E+01  0.14739777577E+04  0.14740406826E+04  0.10000000000E+02 0. -1.
</event>
<event>
 5    1  0.1520352E-008  0.3769714E+03  0.7957747E-01  0.3464453E+00
         13   -1    0    0    0    0  0.00000000000E+00  0.00000000000E+00  0.14999999963E+04  0.15000000000E+04  0.10566000000E+00 0. -1.
        994   -1    0    0    0    0 -0.00000000000E+00 -0.00000000000E+00  0.11368683772E-12  0.17120000000E+03  0.17120000000E+03 0.  0.
         13    1    1    2    0    0  0.65439919541E+02  0.40653121394E+02  0.37088762762E+03  0.37880430678E+03  0.10566000000E+00 0. -1.
        994    1    1    2    0    0 -0.37100603822E+02 -0.12345107664E+03  0.64012324952E+02  0.22365965410E+03  0.17120000000E+03 0.  0.
        998    1    1    2    0    0 -0.28339315719E+02  0.82797955244E+02  0.10651000437E+04  0.10687360391E+04  0.10000000000E+02 0. -1.
</event>
<event>
 5    1  0.1520352E-008  0.3821311E+03  0.7957747E-01  0.3441931E+00
         13   -1    0    0    0    0  0.00000000000E+00  0.00000000000E+00  0.14999999963E+04  0.15000000000E+04  0.10566000000E+00 0. -1.
        994   -1    0    0    0    0 -0.00000000000E+00 -0.00000000000E+00  0.11368683772E-12  0.17120000000E+03  0.17120000000E+03 0.  0.
         13    1    1    2    0    0 -0.39495950768E+02  0.84276908616E+02  0.21851757574E+03  0.23751309338E+03  0.10566000000E+00 0. -1.
        994    1    1    2    0    0  0.40104214591E+02 -0.70471087278E+02  0.41928169546E+02  0.19401529211E+03  0.17120000000E+03 0.  0.
        998    1    1    2    0    0 -0.60826382311E+00 -0.13805821338E+02  0.12395542510E+04  0.12396716145E+04  0.10000000000E+02 0.  0.
</event>
<event>
 5    1  0.1520352E-008  0.3830766E+03  0.7957747E-01  0.3437871E+00
         13   -1    0    0    0    0  0.00000000000E+00  0.00000000000E+00  0.14999999963E+04  0.15000000000E+04  0.10566000000E+00 0.  1.
        994   -1    0    0    0    0 -0.00000000000E+00 -0.00000000000E+00  0.11368683772E-12  0.17120000000E+03  0.17120000000E+03 0.  0.
         13    1    1    2    0    0  0.25996593623E+01 -0.11340439810E+02  0.25304282331E+02  0.27851062318E+02  0.10566000000E+00 0.  1.
        994    1    1    2    0    0  0.25649177775E+01  0.81488134206E+01  0.28296368676E+01  0.17143636956E+03  0.17120000000E+03 0.  0.
        998    1    1    2    0    0 -0.51645771398E+01  0.31916263895E+01  0.14718660771E+04  0.14719125681E+04  0.10000000000E+02 0.  1.
</event>
<event>
 5    1  0.1520352E-008  0.3765927E+03  0.7957747E-01  0.3466130E+00
         13   -1    0    0    0    0  0.00000000000E+00  0.00000000000E+00  0.14999999963E+04  0.15000000000E+04  0.10566000000E+00 0.  1.
        994   -1    0    0    0    0 -0.00000000000E+00 -0.00000000000E+00  0.11368683772E-12  0.17120000000E+03  0.17120000000E+03 0.  0.
         13    1    1    2    0    0 -0.21409845522E+02 -0.45715169035E+01  0.40560204933E+02  0.46091448668E+02  0.10566000000E+00 0.  1.
        994    1    1    2    0    0 -0.18967262949E+00 -0.94243888356E+01  0.61635869237E+01  0.17157005824E+03  0.17120000000E+03 0.  0.
        998    1    1    2    0    0  0.21599518151E+02  0.13995905739E+02  0.14532762044E+04  0.14535384931E+04  0.10000000000E+02 0.  1.
</event>
<event>
 5    1  0.1520352E-008  0.3748244E+03  0.7957747E-01  0.3474008E+00
         13   -1    0    0    0    0  0.00000000000E+00  0.00000000000E+00  0.14999999963E+04  0.15000000000E+04  0.10566000000E+00 0. -1.
        994   -1    0    0    0    0 -0.00000000000E+00 -0.00000000000E+00  0.11368683772E-12  0.17120000000E+03  0.17120000000E+03 0.  0.
         13    1    1    2    0    0  0.65418085507E+02 -0.67221387751E+02  0.38959963873E+03  0.40073199341E+03  0.10566000000E+00 0. -1.
        994    1    1    2    0    0 -0.56392546752E+02  0.10840923301E+03  0.59386184641E+02  0.21856083834E+03  0.17120000000E+03 0.  0.
        998    1    1    2    0    0 -0.90255387553E+01 -0.41187845261E+02  0.10510141729E+04  0.10519071682E+04  0.10000000000E+02 0. -1.
</event>
<event>
 5    1  0.1520352E-008  0.3836906E+03  0.7957747E-01  0.3435245E+00
         13   -1    0    0    0    0  0.00000000000E+00  0.00000000000E+00  0.14999999963E+04  0.15000000000E+04  0.10566000000E+00 0. -1.
        994   -1    0    0    0    0 -0.00000000000E+00 -0.00000000000E+00  0.11368683772E-12  0.17120000000E+03  0.17120000000E+03 0.  0.
         13    1    1    2    0    0  0.41934131130E+01 -0.27626389805E+02  0.14660193786E+03  0.14924121909E+03  0.10566000000E+00 0. -1.
        994    1    1    2    0    0 -0.70284644511E+01  0.35042725201E+02  0.65119055391E+01  0.17501210477E+03  0.17120000000E+03 0.  0.
        998    1    1    2    0    0  0.28350513381E+01 -0.74163353963E+01  0.13468861529E+04  0.13469466761E+04  0.10000000000E+02 0. -1.
</event>
<event>
 5    1  0.1520352E-008  0.3835769E+03  0.7957747E-01  0.3435730E+00
         13   -1    0    0    0    0  0.00000000000E+00  0.00000000000E+00  0.14999999963E+04  0.15000000000E+04  0.10566000000E+00 0.  1.
        994   -1    0    0    0    0 -0.00000000000E+00 -0.00000000000E+00  0.11368683772E-12  0.17120000000E+03  0.17120000000E+03 0.  0.
         13    1    1    2    0    0 -0.41065986513E+01  0.11757729400E+02  0.34935253440E+02  0.37088966689E+02  0.10566000000E+00 0.  1.
        994    1    1    2    0    0 -0.38081411389E+01  0.87612976973E+01  0.26399033864E+01  0.17148665069E+03  0.17120000000E+03 0.  0.
        998    1    1    2    0    0  0.79147397902E+01 -0.20519027097E+02  0.14624248395E+04  0.14626243826E+04  0.10000000000E+02 0.  1.
</event>
<event>
 5    1  0.1520352E-008  0.3828578E+03  0.7957747E-01  0.3438809E+00
         13   -1    0    0    0    0  0.00000000000E+00  0.00000000000E+00  0.14999999963E+04  0.15000000000E+04  0.10566000000E+00 0. -1.
        994   -1    0    0    0    0 -0.00000000000E+00 -0.00000000000E+00  0.11368683772E-12  0.17120000000E+03  0.17120000000E+03 0.  0.
         13    1    1    2    0    0  0.30584412472E+01  0.36376487395E+02  0.21388990023E+03  0.21698272624E+03  0.10566000000E+00 0. -1.
        994    1    1    2    0    0 -0.75987650835E+01 -0.36130856212E+02  0.72249696416E+01  0.17528496852E+03  0.17120000000E+03 0.  0.
        998    1    1    2    0    0  0.45403238363E+01 -0.24563118289E+00  0.12788851264E+04  0.12789323052E+04  0.10000000000E+02 0. -1.
</event>
<event>
 5    1  0.1520352E-008  0.3759296E+03  0.7957747E-01  0.3469076E+00
         13   -1    0    0    0    0  0.00000000000E+00  0.00000000000E+00  0.14999999963E+04  0.15000000000E+04  0.10566000000E+00 0. -1.
        994   -1    0    0    0    0 -0.00000000000E+00 -0.00000000000E+00  0.11368683772E-12  0.17120000000E+03  0.17120000000E+03 0.  0.
         13    1    1    2    0    0  0.87795432822E+02 -0.70225017774E+02  0.62669731685E+03  0.63670175849E+03  0.10566000000E+00 0. -1.
        994    1    1    2    0    0 -0.88776472485E+02  0.59039456123E+02  0.45748349461E+02  0.20680732802E+03  0.17120000000E+03 0.  0.
        998    1    1    2    0    0  0.98103966301E+00  0.11185561651E+02  0.82755432997E+03  0.82769091349E+03  0.10000000000E+02 0.  0.
</event>
<event>
 5    1  0.1520352E-008  0.3810260E+03  0.7957747E-01  0.3446703E+00
         13   -1    0    0    0    0  0.00000000000E+00  0.00000000000E+00  0.14999999963E+04  0.15000000000E+04  0.10566000000E+00 0.  1.
        994   -1    0    0    0    0 -0.00000000000E+00 -0.00000000000E+00  0.11368683772E-12  0.17120000000E+03  0.17120000000E+03 0.  0.
         13    1    1    2    0    0  0.19137230602E+02  0.36027503699E+01  0.54692792880E+02  0.58056232761E+02  0.10566000000E+00 0.  1.
        994    1    1    2    0    0  0.35439702413E+01  0.48183187092E+00  0.36587463825E+01  0.17127643829E+03  0.17120000000E+03 0.  0.
        998    1    1    2    0    0 -0.22681200843E+02 -0.40845822408E+01  0.14416484570E+04  0.14418673290E+04  0.10000000000E+02 0.  1.
</event>
<event>
 5    1  0.1520352E-008  0.3796673E+03  0.7957747E-01  0.3452609E+00
         13   -1    0    0    0    0  0.00000000000E+00  0.00000000000E+00  0.14999999963E+04  0.15000000000E+04  0.10566000000E+00 0. -1.
        994   -1    0    0    0    0 -0.00000000000E+00 -0.00000000000E+00  0.11368683772E-12  0.17120000000E+03  0.17120000000E+03 0.  0.
         13    1    1    2    0    0 -0.21029008120E+02  0.36746697766E+02  0.24274318382E+03  0.24640779906E+03  0.10566000000E+00 0. -1.
        994    1    1    2    0    0  0.14618669590E+02  0.20549774947E+01  0.50308565431E+01  0.17190892342E+03  0.17120000000E+03 0.  0.
        998    1    1    2    0    0  0.64103385300E+01 -0.38801675261E+02  0.12522259559E+04  0.12528832775E+04  0.10000000000E+02 0. -1.
</event>
<event>
 5    1  0.1520352E-008  0.3841513E+03  0.7957747E-01  0.3433280E+00
         13   -1    0    0    0    0  0.00000000000E+00  0.00000000000E+00  0.14999999963E+04  0.15000000000E+04  0.10566000000E+00 0.  1.
        994   -1    0    0    0    0 -0.00000000000E+00 -0.00000000000E+00  0.11368683772E-12  0.17120000000E+03  0.17120000000E+03 0.  0.
         13    1    1    2    0    0  0.12875895683E+01 -0.99502378956E+01  0.23785549039E+02  0.25815278968E+02  0.10566000000E+00 0.  1.
        994    1    1    2    0    0  0.37572121312E+01  0.90965357676E+01  0.23715930485E+01  0.17149906140E+03  0.17120000000E+03 0.  0.
        998    1    1    2    0    0 -0.50448016994E+01  0.85370212792E+00  0.14738428542E+04  0.14738856596E+04  0.10000000000E+02 0.  1.
</event>
<event>
 5    1  0.1520352E-008  0.3842232E+03  0.7957747E-01  0.3432973E+00
         13   -1    0    0    0    0  0.00000000000E+00  0.00000000000E+00  0.14999999963E+04  0.15000000000E+04  0.10566000000E+00 0.  1.
        994   -1    0    0    0    0 -0.00000000000E+00 -0.00000000000E+00  0.11368683772E-12  0.17120000000E+03  0.17120000000E+03 0.  0.
         13    1    1    2    0    0  0.13414638871E+02 -0.12823744166E+02  0.78518783942E+02  0.80682163743E+02  0.10566000000E+00 0.  1.
        994    1    1    2    0    0 -0.20686713854E+02  0.14274793921E+02  0.41017701356E+01  0.17308372075E+03  0.17120000000E+03 0.  0.
        998    1    1    2    0    0  0.72720749829E+01 -0.14510497553E+01  0.14173794422E+04  0.14174341155E+04  0.10000000000E+02 0.  1.
</event>
<event>
 5    1  0.1520352E-008  0.3832221E+03  0.7957747E-01  0.3437248E+00
         13   -1    0    0    0    0  0.00000000000E+00  0.00000000000E+00  0.14999999963E+04  0.15000000000E+04  0.10566000000E+00 0.  1.
        994   -1    0    0    0    0 -0.00000000000E+00 -0.00000000000E+00  0.11368683772E-12  0.17120000000E+03  0.17120000000E+03 0.  0.
         13    1    1    2    0    0  0.14178798304E+02  0.19691469591E+02  0.10639507625E+03  0.10912706223E+03  0.10566000000E+00 0.  1.
        994    1    1    2    0    0 -0.15755432402E+02 -0.23912914227E+02  0.52326776351E+01  0.17365736965E+03  0.17120000000E+03 0.  0.
        998    1    1    2    0    0  0.15766340973E+01  0.42214446359E+01  0.13883722424E+04  0.13884155681E+04  0.10000000000E+02 0.  1.
</event>
<event>
 5    1  0.1520352E-008  0.3768467E+03  0.7957747E-01  0.3465005E+00
         13   -1    0    0    0    0  0.00000000000E+00  0.00000000000E+00  0.14999999963E+04  0.15000000000E+04  0.10566000000E+00 0. -1.
        994   -1    0    0    0    0 -0.00000000000E+00 -0.00000000000E+00  0.11368683772E-12  0.17120000000E+03  0.17120000000E+03 0.  0.
         13    1    1    2    0    0 -0.58424901649E+01 -0.16326965247E+02  0.25263929010E+02  0.30642809247E+02  0.10566000000E+00 0. -1.
        994    1    1    2    0    0  0.11227276813E+02 -0.15181767898E+02  0.69388180918E+01  0.17237785536E+03  0.17120000000E+03 0.  0.
        998    1    1    2    0    0 -0.53847866478E+01  0.31508733144E+02  0.14677972492E+04  0.14681793354E+04  0.10000000000E+02 0. -1.
</event>
<event>
 5    1  0.1520352E-008  0.3759629E+03  0.7957747E-01  0.3468927E+00
         13   -1    0    0    0    0  0.00000000000E+00  0.00000000000E+00  0.14999999963E+04  0.15000000000E+04  0.10566000000E+00 0. -1.
        994   -1    0    0    0    0 -0.00000000000E+00 -0.00000000000E+00  0.11368683772E-12  0.17120000000E+03  0.17120000000E+03 0.  0.
         13    1    1    2    0    0 -0.14767010407E+02  0.23136666503E+02  0.57630273763E+02  0.63832825030E+02  0.10566000000E+00 0. -1.
        994    1    1    2    0    0 -0.10583182513E+02 -0.33273004077E+02  0.10326761180E+02  0.17502907915E+03  0.17120000000E+03 0.  0.
        998    1    1    2    0    0  0.25350192920E+02  0.10136337574E+02  0.14320429613E+04  0.14323380958E+04  0.10000000000E+02 0. -1.
</event>
<event>
 5    1  0.1520352E-008  0.3827875E+03  0.7957747E-01  0.3439110E+00
         13   -1    0    0    0    0  0.00000000000E+00  0.00000000000E+00  0.14999999963E+04  0.15000000000E+04  0.10566000000E+00 0. -1.
        994   -1    0    0    0    0 -0.00000000000E+00 -0.00000000000E+00  0.11368683772E-12  0.17120000000E+03  0.17120000000E+03 0.  0.
         13    1    1    2    0    0  0.15386472377E+02 -0.24236822770E+02  0.15793788482E+03  0.16052586625E+03  0.10566000000E+00 0. -1.
        994    1    1    2    0    0 -0.48609950046E+01  0.94043029508E+01  0.31039124405E+01  0.17155507704E+03  0.17120000000E+03 0.  0.
        998    1    1    2    0    0 -0.10525477372E+02  0.14832519819E+02  0.13389581990E+04  0.13391190567E+04  0.10000000000E+02 0. -1.
</event>
<event>
 5    1  0.1520352E-008  0.3825310E+03  0.7957747E-01  0.3440212E+00
         13   -1    0    0    0    0  0.00000000000E+00  0.00000000000E+00  0.14999999963E+04  0.15000000000E+04  0.10566000000E+00 0.  1.
        994   -1    0    0    0    0 -0.00000000000E+00 -0.00000000000E+00  0.11368683772E-12  0.17120000000E+03  0.17120000000E+03 0.  0.
         13    1    1    2    0    0  0.10055959750E+02 -0.22067480617E+02  0.11132065053E+03  0.11393153394E+03  0.10566000000E+00 0.  1.
        994    1    1    2    0    0  0.14302098621E+01  0.20472162867E+01  0.28816170950E+01  0.17124246060E+03  0.17120000000E+03 0.  0.
        998    1    1    2    0    0 -0.11486169612E+02  0.20020264330E+02  0.13857977287E+04  0.13860260055E+04  0.10000000000E+02 0.  1.
</event>
<event>
 5    1  0.2370932E-008  0.3861792E+03  0.7957747E-01  0.3424686E+00
         13   -1    0    0    0    0  0.00000000000E+00  0.00000000000E+00  0.14999999963E+04  0.15000000000E+04  0.10566000000E+00 0.  1.
        994   -1    0    0    0    0 -0.00000000000E+00 -0.00000000000E+00  0.11368683772E-12  0.17120000000E+03  0.17120000000E+03 0.  0.
         13    1    1    2    0    0 -0.10340919804E+02  0.20834641266E+01  0.53994298361E+02  0.55015187582E+02  0.10566000000E+00 0.  1.
        994    1    1    2    0    0  0.71224273967E+01 -0.64949457771E+00  0.12134087382E+01  0.17135362026E+03  0.17120000000E+03 0.  0.
        998    1    1    2    0    0  0.32184924070E+01 -0.14339695489E+01  0.14447922892E+04  0.14448311922E+04  0.10000000000E+02 0.  1.
</event>
<event>
 5    1  0.1520352E-008  0.3757995E+03  0.7957747E-01  0.3469655E+00
         13   -1    0    0    0    0  0.00000000000E+00  0.00000000000E+00  0.14999999963E+04  0.15000000000E+04  0.10566000000E+00 0. -1.
        994   -1    0    0    0    0 -0.00000000000E+00 -0.00000000000E+00  0.11368683772E-12  0.17120000000E+03  0.17120000000E+03 0.  0.
         13    1    1    2    0    0  0.83618235606E+01  0.18505397079E+02  0.30337623023E+02  0.36506880845E+02  0.10566000000E+00 0. -1.
        994    1    1    2    0    0 -0.62442186668E+01 -0.12144448934E+02  0.69011531669E+01  0.17188235460E+03  0.17120000000E+03 0.  0.
        998    1    1    2    0    0 -0.21176048938E+01 -0.63609481452E+01  0.14627612201E+04  0.14628107646E+04  0.10000000000E+02 0. -1.
</event>
<event>
 5    1  0.1520352E-008  0.3735835E+03  0.7957747E-01  0.3479582E+00
         13   -1    0    0    0    0  0.00000000000E+00  0.00000000000E+00  0.14999999963E+04  0.15000000000E+04  0.10566000000E+00 0. -1.
        994   -1    0    0    0    0 -0.00000000000E+00 -0.00000000000E+00  0.11368683772E-12  0.17120000000E+03  0.17120000000E+03 0.  0.
         13    1    1    2    0    0 -0.54696062531E+01 -0.32442813800E+02  0.69981956129E+02  0.77330059534E+02  0.10566000000E+00 0. -1.
        994    1    1    2    0    0  0.27210523099E+02  0.18100688349E+02  0.11064588945E+02  0.17464224178E+03  0.17120000000E+03 0.  0.
        998    1    1    2    0    0 -0.21740916846E+02  0.14342125451E+02  0.14189534512E+04  0.14192276987E+04  0.10000000000E+02 0. -1.
</event>
<event>
 5    1  0.1520352E-008  0.3859998E+03  0.7957747E-01  0.3425443E+00
         13   -1    0    0    0    0  0.00000000000E+00  0.00000000000E+00  0.14999999963E+04  0.15000000000E+04  0.10566000000E+00 0. -1.
        994   -1    0    0    0    0 -0.00000000000E+00 -0.00000000000E+00  0.11368683772E-12  0.17120000000E+03  0.17120000000E+03 0.  0.
         13    1    1    2    0    0  0.89846334909E+01  0.48749276271E+01  0.49299537131E+02  0.50348228208E+02  0.10566000000E+00 0. -1.
        994    1    1    2    0    0  0.40197058021E+01 -0.40510140968E+01  0.12413411147E+01  0.17129959042E+03  0.17120000000E+03 0.  0.
        998    1    1    2    0    0 -0.13004339293E+02 -0.82391353027E+00  0.14494591180E+04  0.14495521814E+04  0.10000000000E+02 0. -1.
</event>
<event>
 5    1  0.1520352E-008  0.3720017E+03  0.7957747E-01  0.3486742E+00
         13   -1    0    0    0    0  0.00000000000E+00  0.00000000000E+00  0.14999999963E+04  0.15000000000E+04  0.10566000000E+00 0. -1.
        994   -1    0    0    0    0 -0.00000000000E+00 -0.00000000000E+00  0.11368683772E-12  0.17120000000E+03  0.17120000000E+03 0.  0.
         13    1    1    2    0    0 -0.28516056971E+02 -0.88234677487E+02  0.51545702135E+03  0.52373130118E+03  0.10566000000E+00 0. -1.
        994    1    1    2    0    0  0.34988057201E+02  0.46770225881E+02  0.20034324303E+02  0.18199569315E+03  0.17120000000E+03 0.  0.
        998    1    1    2    0    0 -0.64720002303E+01  0.41464451606E+02  0.96450865063E+03  0.96547300566E+03  0.10000000000E+02 0. -1.
</event>
<event>
 5    1  0.1520352E-008  0.3705236E+03  0.7957747E-01  0.3493488E+00
         13   -1    0    0    0    0  0.00000000000E+00  0.00000000000E+00  0.14999999963E+04  0.15000000000E+04  0.10566000000E+00 0. -1.
        994   -1    0    0    0    0 -0.00000000000E+00 -0.00000000000E+00  0.11368683772E-12  0.17120000000E+03  0.17120000000E+03 0.  0.
         13    1    1    2    0    0  0.10354338383E+02  0.60383849496E+01  0.39198434045E+01  0.12611532520E+02  0.10566000000E+00 0. -1.
        994    1    1    2    0    0 -0.99815619724E+01  0.15015187927E+02  0.10118450290E+02  0.17244393432E+03  0.17120000000E+03 0.  0.
        998    1    1    2    0    0 -0.37277641020E+00 -0.21053572877E+02  0.14859617026E+04  0.14861445332E+04  0.10000000000E+02 0. -1.
</event>
<event>
 5    1  0.1520352E-008  0.3806687E+03  0.7957747E-01  0.3448252E+00
         13   -1    0    0    0    0  0.00000000000E+00  0.00000000000E+00  0.14999999963E+04  0.15000000000E+04  0.10566000000E+00 0.  1.
        994   -1    0    0    0    0 -0.00000000000E+00 -0.00000000000E+00  0.11368683772E-12  0.17120000000E+03  0.17120000000E+03 0.  0.
         13    1    1    2    0    0 -0.68179197408E+02  0.58875036064E+00  0.12923893902E+03  0.14612140195E+03  0.10566000000E+00 0.  1.
        994    1    1    2    0    0  0.54293921614E+02 -0.71394919571E+01  0.27669601865E+02  0.18186217071E+03  0.17120000000E+03 0.  0.
        998    1    1    2    0    0  0.13885275793E+02  0.65507415964E+01  0.13430914554E+04  0.13432164273E+04  0.10000000000E+02 0.  1.
</event>
<event>
 5    1  0.1520352E-008  0.3735964E+03  0.7957747E-01  0.3479524E+00
         13   -1    0    0    0    0  0.00000000000E+00  0.00000000000E+00  0.14999999963E+04  0.15000000000E+04  0.10566000000E+00 0. -1.
        994   -1    0    0    0    0 -0.00000000000E+00 -0.00000000000E+00  0.11368683772E-12  0.17120000000E+03  0.17120000000E+03 0.  0.
         13    1    1    2    0    0  0.66107390632E+00  0.14105661087E+02  0.10485913730E+02  0.17588980761E+02  0.10566000000E+00 0. -1.
        994    1    1    2    0    0 -0.13003684736E+02  0.47782287423E+01  0.80570610397E+01  0.17194849089E+03  0.17120000000E+03 0.  0.
        998    1    1    2    0    0  0.12342610830E+02 -0.18883889830E+02  0.14814570215E+04  0.14816625283E+04  0.10000000000E+02 0. -1.
</event>
<event>
 5    1  0.1520352E-008  0.3831022E+03  0.7957747E-01  0.3437761E+00
         13   -1    0    0    0    0  0.00000000000E+00  0.00000000000E+00  0.14999999963E+04  0.15000000000E+04  0.10566000000E+00 0.  1.
        994   -1    0    0    0    0 -0.00000000000E+00 -0.00000000000E+00  0.11368683772E-12  0.17120000000E+03  0.17120000000E+03 0.  0.
         13    1    1    2    0    0  0.21114265331E+02  0.10491084528E+02  0.12222529154E+03  0.12447854479E+03  0.10566000000E+00 0.  1.
        994    1    1    2    0    0  0.12501541521E+01  0.57903426482E+01  0.26914281825E+01  0.17132359656E+03  0.17120000000E+03 0.  0.
        998    1    1    2    0    0 -0.22364419483E+02 -0.16281427176E+02  0.13750832766E+04  0.13753978587E+04  0.10000000000E+02 0.  1.
</event>
<event>
 5    1  0.1520352E-008  0.3844618E+03  0.7957747E-01  0.3431958E+00
         13   -1    0    0    0    0  0.00000000000E+00  0.00000000000E+00  0.14999999963E+04  0.15000000000E+04  0.10566000000E+00 0. -1.
        994   -1    0    0    0    0 -0.00000000000E+00 -0.00000000000E+00  0.11368683772E-12  0.17120000000E+03  0.17120000000E+03 0.  0.
         13    1    1    2    0    0 -0.90040904489E+01 -0.77383150922E+01  0.37178285090E+02  0.39028082345E+02  0.10566000000E+00 0. -1.
        994    1    1    2    0    0  0.46018271648E+01  0.32069691290E+01  0.20012316918E+01  0.17130355044E+03  0.17120000000E+03 0.  0.
        998    1    1    2    0    0  0.44022632841E+01  0.45313459633E+01  0.14608204795E+04  0.14608683672E+04  0.10000000000E+02 0. -1.
</event>
<event>
 5    1  0.1520352E-008  0.3807509E+03  0.7957747E-01  0.3447896E+00
         13   -1    0    0    0    0  0.00000000000E+00  0.00000000000E+00  0.14999999963E+04  0.15000000000E+04  0.10566000000E+00 0. -1.
        994   -1    0    0    0    0 -0.00000000000E+00 -0.00000000000E+00  0.11368683772E-12  0.17120000000E+03  0.17120000000E+03 0.  0.
         13    1    1    2    0    0 -0.92640593004E+01 -0.15487182602E+02  0.43135028184E+02  0.46758073529E+02  0.10566000000E+00 0. -1.
        994    1    1    2    0    0  0.11778364006E+01  0.45629404010E+01  0.38286509688E+01  0.17130763641E+03  0.17120000000E+03 0.  0.
        998    1    1    2    0    0  0.80862228998E+01  0.10924242201E+02  0.14530363171E+04  0.14531342901E+04  0.10000000000E+02 0. -1.
</event>
<event>
 5    1  0.1520352E-008  0.3838345E+03  0.7957747E-01  0.3434630E+00
         13   -1    0    0    0    0  0.00000000000E+00  0.00000000000E+00  0.14999999963E+04  0.15000000000E+04  0.10566000000E+00 0.  1.
        994   -1    0    0    0    0 -0.00000000000E+00 -0.00000000000E+00  0.11368683772E-12  0.17120000000E+03  0.17120000000E+03 0.  0.
         13    1    1    2    0    0 -0.31134267061E+01 -0.17554003141E+02  0.69412673129E+02  0.71665659888E+02  0.10566000000E+00 0.  1.
        994    1    1    2    0    0  0.13053363118E+01  0.16600919370E+02  0.31258215145E+01  0.17203634845E+03  0.17120000000E+03 0.  0.
        998    1    1    2    0    0  0.18080903943E+01  0.95308377058E+00  0.14274615016E+04  0.14274979917E+04  0.10000000000E+02 0.  0.
</event>
<event>
 5    1  0.1520352E-008  0.3769501E+03  0.7957747E-01  0.3464547E+00
         13   -1    0    0    0    0  0.00000000000E+00  0.00000000000E+00  0.14999999963E+04  0.15000000000E+04  0.10566000000E+00 0. -1.
        994   -1    0    0    0    0 -0.00000000000E+00 -0.00000000000E+00  0.11368683772E-12  0.17120000000E+03  0.17120000000E+03 0.  0.
         13    1    1    2    0    0 -0.21089636197E+02 -0.16681157227E+02  0.62370021469E+02  0.67919544341E+02  0.10566000000E+00 0. -1.
        994    1    1    2    0    0  0.10234563928E+02  0.86059685059E+01  0.62847857604E+01  0.17183639756E+03  0.17120000000E+03 0.  0.
        998    1    1    2    0    0  0.10855072269E+02  0.80751887214E+01  0.14313451890E+04  0.14314440581E+04  0.10000000000E+02 0. -1.
</event>
<event>
 5    1  0.1520352E-008  0.3870185E+03  0.7957747E-01  0.3421156E+00
         13   -1    0    0    0    0  0.00000000000E+00  0.00000000000E+00  0.14999999963E+04  0.15000000000E+04  0.10566000000E+00 0. -1.
        994   -1    0    0    0    0 -0.00000000000E+00 -0.00000000000E+00  0.11368683772E-12  0.17120000000E+03  0.17120000000E+03 0.  0.
         13    1    1    2    0    0 -0.38275140934E+02 -0.16821674579E+02  0.35760517166E+02  0.55016187628E+02  0.10566000000E+00 0. -1.
        994    1    1    2    0    0  0.22311296007E+02  0.19532159777E+02  0.23514369864E+02  0.17533301111E+03  0.17120000000E+03 0.  0.
        998    1    1    2    0    0  0.15963844927E+02 -0.27104851987E+01  0.14407251092E+04  0.14408508013E+04  0.10000000000E+02 0. -1.
</event>
<event>
 5    1  0.1520352E-008  0.3826968E+03  0.7957747E-01  0.3439499E+00
         13   -1    0    0    0    0  0.00000000000E+00  0.00000000000E+00  0.14999999963E+04  0.15000000000E+04  0.10566000000E+00 0.  1.
        994   -1    0    0    0    0 -0.00000000000E+00 -0.00000000000E+00  0.11368683772E-12  0.17120000000E+03  0.17120000000E+03 0.  0.
         13    1    1    2    0    0 -0.73876064286E+01 -0.18901124204E+02  0.75525583313E+02  0.78204565875E+02  0.10566000000E+00 0.  1.
        994    1    1    2    0    0  0.23917866390E+01  0.69046992343E+01  0.29548973168E+01  0.17138134943E+03  0.17120000000E+03 0.  0.
        998    1    1    2    0    0  0.49958197897E+01  0.11996424970E+02  0.14215195156E+04  0.14216140847E+04  0.10000000000E+02 0.  1.
</event>
<event>
 5    1  0.1520352E-008  0.3856108E+03  0.7957747E-01  0.3427086E+00
         13   -1    0    0    0    0  0.00000000000E+00  0.00000000000E+00  0.14999999963E+04  0.15000000000E+04  0.10566000000E+00 0. -1.
        994   -1    0    0    0    0 -0.00000000000E+00 -0.00000000000E+00  0.11368683772E-12  0.17120000000E+03  0.17120000000E+03 0.  0.
         13    1    1    2    0    0 -0.18584774577E+01  0.12012190328E+02  0.58014487913E+02  0.59274266143E+02  0.10566000000E+00 0. -1.
        994    1    1    2    0    0 -0.26662162360E+01 -0.32787780480E+01  0.13858165354E+01  0.17125775773E+03  0.17120000000E+03 0.  0.
        998    1    1    2    0    0  0.45246936937E+01 -0.87334122799E+01  0.14405996918E+04  0.14406679761E+04  0.10000000000E+02 0. -1.
</event>
<event>
 5    1  0.1520352E-008  0.3741391E+03  0.7957747E-01  0.3477082E+00
         13   -1    0    0    0    0  0.00000000000E+00  0.00000000000E+00  0.14999999963E+04  0.15000000000E+04  0.10566000000E+00 0.  1.
        994   -1    0    0    0    0 -0.00000000000E+00 -0.00000000000E+00  0.11368683772E-12  0.17120000000E+03  0.17120000000E+03 0.  0.
         13    1    1    2    0    0 -0.30775238081E+02 -0.57366771877E+02  0.23056279601E+03  0.23957728579E+03  0.10566000000E+00 0.  1.
        994    1    1    2    0    0  0.28120219055E+02  0.73379874854E+02  0.28475015757E+02  0.19051409207E+03  0.17120000000E+03 0.  0.
        998    1    1    2    0    0  0.26550190256E+01 -0.16013102977E+02  0.12409621845E+04  0.12411086221E+04  0.10000000000E+02 0.  1.
</event>
<event>
 5    1  0.1520352E-008  0.3366586E+03  0.7957747E-01  0.3664718E+00
         13   -1    0    0    0    0  0.00000000000E+00  0.00000000000E+00  0.14999999963E+04  0.15000000000E+04  0.10566000000E+00 0.  1.
        994   -1    0    0    0    0 -0.00000000000E+00 -0.00000000000E+00  0.11368683772E-12  0.17120000000E+03  0.17120000000E+03 0.  0.
         13    1    1    2    0    0 -0.23022170935E+03  0.23688479418E+02  0.83928375044E+03  0.87060921454E+03  0.10566000000E+00 0.  1.
        994    1    1    2    0    0  0.22814152452E+03 -0.19677692370E+02  0.22262780452E+03  0.36236493502E+03  0.17120000000E+03 0.  0.
        998    1    1    2    0    0  0.20801848302E+01 -0.40107870480E+01  0.43808844131E+03  0.43822585044E+03  0.10000000000E+02 0.  0.
</event>
<event>
 5    1  0.1520352E-008  0.3750425E+03  0.7957747E-01  0.3473033E+00
         13   -1    0    0    0    0  0.00000000000E+00  0.00000000000E+00  0.14999999963E+04  0.15000000000E+04  0.10566000000E+00 0. -1.
        994   -1    0    0    0    0 -0.00000000000E+00 -0.00000000000E+00  0.11368683772E-12  0.17120000000E+03  0.17120000000E+03 0.  0.
         13    1    1    2    0    0 -0.49163128361E+02  0.70944584035E+00  0.22044596033E+03  0.22586267752E+03  0.10566000000E+00 0. -1.
        994    1    1    2    0    0 -0.26032975500E+01 -0.28000460904E+02  0.93492978301E+01  0.17374594193E+03  0.17120000000E+03 0.  0.
        998    1    1    2    0    0  0.51766425911E+02  0.27291015063E+02  0.12702047381E+04  0.12715913805E+04  0.10000000000E+02 0. -1.
</event>
<event>
 5    1  0.1520352E-008  0.3872279E+03  0.7957747E-01  0.3420278E+00
         13   -1    0    0    0    0  0.00000000000E+00  0.00000000000E+00  0.14999999963E+04  0.15000000000E+04  0.10566000000E+00 0. -1.
        994   -1    0    0    0    0 -0.00000000000E+00 -0.00000000000E+00  0.11368683772E-12  0.17120000000E+03  0.17120000000E+03 0.  0.
         13    1    1    2    0    0 -0.78934998488E+02  0.86237187437E+02  0.27607900596E+03  0.29981196637E+03  0.10566000000E+00 0. -1.
        994    1    1    2    0    0  0.48593378551E+02 -0.10325317877E+03  0.70635553422E+02  0.21753472544E+03  0.17120000000E+03 0.  0.
        998    1    1    2    0    0  0.30341619937E+02  0.17015991332E+02  0.11532854369E+04  0.11538533082E+04  0.10000000000E+02 0. -1.
</event>
<event>
 5    1  0.1520352E-008  0.3803185E+03  0.7957747E-01  0.3449773E+00
         13   -1    0    0    0    0  0.00000000000E+00  0.00000000000E+00  0.14999999963E+04  0.15000000000E+04  0.10566000000E+00 0.  1.
        994   -1    0    0    0    0 -0.00000000000E+00 -0.00000000000E+00  0.11368683772E-12  0.17120000000E+03  0.17120000000E+03 0.  0.
         13    1    1    2    0    0  0.23734429763E+02  0.13124408500E+01  0.81713482811E+02  0.85100823111E+02  0.10566000000E+00 0.  1.
        994    1    1    2    0    0  0.18114356983E+02 -0.47215427710E+01  0.51435128006E+01  0.17229718111E+03  0.17120000000E+03 0.  0.
        998    1    1    2    0    0 -0.41848786746E+02  0.34091019211E+01  0.14131430007E+04  0.14138019958E+04  0.10000000000E+02 0.  1.
</event>
<event>
 5    1  0.1520352E-008  0.3712071E+03  0.7957747E-01  0.3490362E+00
         13   -1    0    0    0    0  0.00000000000E+00  0.00000000000E+00  0.14999999963E+04  0.15000000000E+04  0.10566000000E+00 0. -1.
        994   -1    0    0    0    0 -0.00000000000E+00 -0.00000000000E+00  0.11368683772E-12  0.17120000000E+03  0.17120000000E+03 0.  0.
         13    1    1    2    0    0  0.12109358167E+03 -0.58735131543E+02  0.75792650269E+03  0.76978312909E+03  0.10566000000E+00 0. -1.
        994    1    1    2    0    0 -0.83060626506E+02  0.81666283318E+02  0.56916963127E+02  0.21474969196E+03  0.17120000000E+03 0.  0.
        998    1    1    2    0    0 -0.38032955160E+02 -0.22931151775E+02  0.68515653047E+03  0.68666717895E+03  0.10000000000E+02 0. -1.
</event>
<event>
 5    1  0.1520352E-008  0.3772135E+03  0.7957747E-01  0.3463382E+00
         13   -1    0    0    0    0  0.00000000000E+00  0.00000000000E+00  0.14999999963E+04  0.15000000000E+04  0.10566000000E+00 0. -1.
        994   -1    0    0    0    0 -0.00000000000E+00 -0.00000000000E+00  0.11368683772E-12  0.17120000000E+03  0.17120000000E+03 0.  0.
         13    1    1    2    0    0 -0.19566516211E+02  0.64688461233E+02  0.32157808286E+03  0.32860298251E+03  0.10566000000E+00 0. -1.
        994    1    1    2    0    0  0.23660142080E+02 -0.63843891309E+02  0.21351143643E+02  0.18547548656E+03  0.17120000000E+03 0.  0.
        998    1    1    2    0    0 -0.40936258691E+01 -0.84456992369E+00  0.11570707698E+04  0.11571215309E+04  0.10000000000E+02 0. -1.
</event>
<event>
 5    1  0.1520352E-008  0.3807314E+03  0.7957747E-01  0.3447980E+00
         13   -1    0    0    0    0  0.00000000000E+00  0.00000000000E+00  0.14999999963E+04  0.15000000000E+04  0.10566000000E+00 0.  1.
        994   -1    0    0    0    0 -0.00000000000E+00 -0.00000000000E+00  0.11368683772E-12  0.17120000000E+03  0.17120000000E+03 0.  0.
         13    1    1    2    0    0 -0.15493230969E+02  0.23866779724E+02  0.11102613550E+03  0.11461447251E+03  0.10566000000E+00 0.  1.
        994    1    1    2    0    0  0.76661990215E+01 -0.63749649201E+01  0.40960102733E+01  0.17153899873E+03  0.17120000000E+03 0.  0.
        998    1    1    2    0    0  0.78270319473E+01 -0.17491814804E+02  0.13848778505E+04  0.13850465288E+04  0.10000000000E+02 0.  1.
</event>
<event>
 5    1  0.1520352E-008  0.3829699E+03  0.7957747E-01  0.3438328E+00
         13   -1    0    0    0    0  0.00000000000E+00  0.00000000000E+00  0.14999999963E+04  0.15000000000E+04  0.10566000000E+00 0. -1.
        994   -1    0    0    0    0 -0.00000000000E+00 -0.00000000000E+00  0.11368683772E-12  0.17120000000E+03  0.17120000000E+03 0.  0.
         13    1    1    2    0    0 -0.62391806799E+01 -0.21520540671E+02  0.95835418889E+02  0.98420016887E+02  0.10566000000E+00 0. -1.
        994    1    1    2    0    0  0.10226902477E+02  0.88622256421E+01  0.32478604520E+01  0.17176471458E+03  0.17120000000E+03 0.  0.
        998    1    1    2    0    0 -0.39877217974E+01  0.12658315029E+02  0.14009167169E+04  0.14010152685E+04  0.10000000000E+02 0. -1.
</event>
<event>
 5    1  0.1520352E-008  0.3817081E+03  0.7957747E-01  0.3443754E+00
         13   -1    0    0    0    0  0.00000000000E+00  0.00000000000E+00  0.14999999963E+04  0.15000000000E+04  0.10566000000E+00 0. -1.
        994   -1    0    0    0    0 -0.00000000000E+00 -0.00000000000E+00  0.11368683772E-12  0.17120000000E+03  0.17120000000E+03 0.  0.
         13    1    1    2    0    0 -0.10200060390E+02  0.21829106791E+02  0.80858344031E+02  0.84371998309E+02  0.10566000000E+00 0. -1.
        994    1    1    2    0    0  0.30255785426E+02 -0.20096967310E+02  0.76713510915E+01  0.17517873808E+03  0.17120000000E+03 0.  0.
        998    1    1    2    0    0 -0.20055725037E+02 -0.17321394817E+01  0.14114703012E+04  0.14116492636E+04  0.10000000000E+02 0. -1.
</event>
<event>
 5    1  0.1520352E-008  0.3846450E+03  0.7957747E-01  0.3431179E+00
         13   -1    0    0    0    0  0.00000000000E+00  0.00000000000E+00  0.14999999963E+04  0.15000000000E+04  0.10566000000E+00 0.  1.
        994   -1    0    0    0    0 -0.00000000000E+00 -0.00000000000E+00  0.11368683772E-12  0.17120000000E+03  0.17120000000E+03 0.  0.
         13    1    1    2    0    0  0.10914903693E+02 -0.78079644322E+01  0.51086911980E+02  0.52820291280E+02  0.10566000000E+00 0.  1.
        994    1    1    2    0    0 -0.66510379885E+01 -0.30613659425E+01  0.19830051767E+01  0.17136796835E+03  0.17120000000E+03 0.  0.
        998    1    1    2    0    0 -0.42638657049E+01  0.10869330375E+02  0.14469300791E+04  0.14470117404E+04  0.10000000000E+02 0.  1.
</event>
<event>
 5    1  0.1520352E-008  0.3858526E+03  0.7957747E-01  0.3426064E+00
         13   -1    0    0    0    0  0.00000000000E+00  0.00000000000E+00  0.14999999963E+04  0.15000000000E+04  0.10566000000E+00 0.  1.
        994   -1    0    0    0    0 -0.00000000000E+00 -0.00000000000E+00  0.11368683772E-12  0.17120000000E+03  0.17120000000E+03 0.  0.
         13    1    1    2    0    0 -0.24433885135E+02 -0.82531260138E+01  0.84860426984E+01  0.27150560150E+02  0.10566000000E+00 0.  1.
        994    1    1    2    0    0  0.24414110091E+02  0.53205235111E+01  0.21895267562E+02  0.17439380575E+03  0.17120000000E+03 0.  0.
        998    1    1    2    0    0  0.19775043215E-01  0.29326025027E+01  0.14696186860E+04  0.14696556341E+04  0.10000000000E+02 0.  1.
</event>
<event>
 5    1  0.1520352E-008  0.3838580E+03  0.7957747E-01  0.3434530E+00
         13   -1    0    0    0    0  0.00000000000E+00  0.00000000000E+00  0.14999999963E+04  0.15000000000E+04  0.10566000000E+00 0.  1.
        994   -1    0    0    0    0 -0.00000000000E+00 -0.00000000000E+00  0.11368683772E-12  0.17120000000E+03  0.17120000000E+03 0.  0.
         13    1    1    2    0    0  0.18103557879E+02 -0.45320671693E+01  0.79343117022E+02  0.81508403392E+02  0.10566000000E+00 0.  1.
        994    1    1    2    0    0 -0.12936552575E+02 -0.71177110860E+01  0.29181532421E+01  0.17186032649E+03  0.17120000000E+03 0.  0.
        998    1    1    2    0    0 -0.51670053038E+01  0.11649778255E+02  0.14177387260E+04  0.14178312701E+04  0.10000000000E+02 0.  1.
</event>
<event>
 5    1  0.2127219E-008  0.3864178E+03  0.7957747E-01  0.3423681E+00
         13   -1    0    0    0    0  0.00000000000E+00  0.00000000000E+00  0.14999999963E+04  0.15000000000E+04  0.10566000000E+00 0.  1.
        994   -1    0    0    0    0 -0.00000000000E+00 -0.00000000000E+00  0.11368683772E-12  0.17120000000E+03  0.17120000000E+03 0.  0.
         13    1    1    2    0    0 -0.10921747657E+02  0.26447114771E+01  0.67142587028E+02  0.68076554169E+02  0.10566000000E+00 0.  1.
        994    1    1    2    0    0  0.10327507114E+02 -0.58601851634E+01  0.13895550197E+01  0.17161692818E+03  0.17120000000E+03 0.  0.
        998    1    1    2    0    0  0.59424054291E+00  0.32154736864E+01  0.14314678542E+04  0.14315065177E+04  0.10000000000E+02 0.  0.
</event>
<event>
 5    1  0.1520352E-008  0.3850345E+03  0.7957747E-01  0.3429526E+00
         13   -1    0    0    0    0  0.00000000000E+00  0.00000000000E+00  0.14999999963E+04  0.15000000000E+04  0.10566000000E+00 0.  1.
        994   -1    0    0    0    0 -0.00000000000E+00 -0.00000000000E+00  0.11368683772E-12  0.17120000000E+03  0.17120000000E+03 0.  0.
         13    1    1    2    0    0  0.35184270656E+01  0.15233575770E+02  0.76847211101E+02  0.78421592548E+02  0.10566000000E+00 0.  1.
        994    1    1    2    0    0  0.14629675026E+01 -0.88589127577E+01  0.18781650826E+01  0.17144558353E+03  0.17120000000E+03 0.  0.
        998    1    1    2    0    0 -0.49813945682E+01 -0.63746630122E+01  0.14212746201E+04  0.14213328239E+04  0.10000000000E+02 0.  0.
</event>
<event>
 5    1  0.1520352E-008  0.3844834E+03  0.7957747E-01  0.3431866E+00
         13   -1    0    0    0    0  0.00000000000E+00  0.00000000000E+00  0.14999999963E+04  0.15000000000E+04  0.10566000000E+00 0.  1.
        994   -1    0    0    0    0 -0.00000000000E+00 -0.00000000000E+00  0.11368683772E-12  0.17120000000E+03  0.17120000000E+03 0.  0.
         13    1    1    2    0    0  0.11499239787E+02 -0.11719086189E+02  0.76898751390E+02  0.78632045796E+02  0.10566000000E+00 0.  1.
        994    1    1    2    0    0 -0.52189478108E+00 -0.20948139926E+01  0.19021714534E+01  0.17122417725E+03  0.17120000000E+03 0.  0.
        998    1    1    2    0    0 -0.10977345006E+02  0.13813900182E+02  0.14211990734E+04  0.14213437770E+04  0.10000000000E+02 0.  1.
</event>
<event>
 5    1  0.1520352E-008  0.3843946E+03  0.7957747E-01  0.3432244E+00
         13   -1    0    0    0    0  0.00000000000E+00  0.00000000000E+00  0.14999999963E+04  0.15000000000E+04  0.10566000000E+00 0. -1.
        994   -1    0    0    0    0 -0.00000000000E+00 -0.00000000000E+00  0.11368683772E-12  0.17120000000E+03  0.17120000000E+03 0.  0.
         13    1    1    2    0    0  0.17485975793E+01 -0.12037502383E+02  0.38927515569E+02  0.40783841034E+02  0.10566000000E+00 0. -1.
        994    1    1    2    0    0  0.21203994635E+01  0.28842307045E+01  0.19732189217E+01  0.17124879116E+03  0.17120000000E+03 0.  0.
        998    1    1    2    0    0 -0.38689970428E+01  0.91532716781E+01  0.14590992618E+04  0.14591673678E+04  0.10000000000E+02 0. -1.
</event>
<event>
 5    1  0.1520352E-008  0.3812362E+03  0.7957747E-01  0.3445793E+00
         13   -1    0    0    0    0  0.00000000000E+00  0.00000000000E+00  0.14999999963E+04  0.15000000000E+04  0.10566000000E+00 0. -1.
        994   -1    0    0    0    0 -0.00000000000E+00 -0.00000000000E+00  0.11368683772E-12  0.17120000000E+03  0.17120000000E+03 0.  0.
         13    1    1    2    0    0  0.51130521627E+00  0.41757372078E+02  0.23556535717E+03  0.23923835022E+03  0.10566000000E+00 0. -1.
        994    1    1    2    0    0 -0.59772681460E+00 -0.29517530894E+02  0.64178126225E+01  0.17384553554E+03  0.17120000000E+03 0.  0.
        998    1    1    2    0    0  0.86421598331E-01 -0.12239841184E+02  0.12580168265E+04  0.12581161142E+04  0.10000000000E+02 0. -1.
</event>
<event>
 5    1  0.1520352E-008  0.3735076E+03  0.7957747E-01  0.3479924E+00
         13   -1    0    0    0    0  0.00000000000E+00  0.00000000000E+00  0.14999999963E+04  0.15000000000E+04  0.10566000000E+00 0.  1.
        994   -1    0    0    0    0 -0.00000000000E+00 -0.00000000000E+00  0.11368683772E-12  0.17120000000E+03  0.17120000000E+03 0.  0.
         13    1    1    2    0    0 -0.86404584650E+01 -0.10499888212E+02  0.90529164230E+01  0.16336206253E+02  0.10566000000E+00 0.  1.
        994    1    1    2    0    0  0.61410565881E+01  0.80551999183E+01  0.77976826102E+01  0.17167656414E+03  0.17120000000E+03 0.  0.
        998    1    1    2    0    0  0.24994018769E+01  0.24446882940E+01  0.14831493972E+04  0.14831872296E+04  0.10000000000E+02 0.  1.
</event>
<event>
 5    1  0.1520352E-008  0.3823823E+03  0.7957747E-01  0.3440851E+00
         13   -1    0    0    0    0  0.00000000000E+00  0.00000000000E+00  0.14999999963E+04  0.15000000000E+04  0.10566000000E+00 0.  1.
        994   -1    0    0    0    0 -0.00000000000E+00 -0.00000000000E+00  0.11368683772E-12  0.17120000000E+03  0.17120000000E+03 0.  0.
         13    1    1    2    0    0  0.98898192776E+01  0.16100958914E+01  0.15851088880E+02  0.18752842900E+02  0.10566000000E+00 0.  1.
        994    1    1    2    0    0 -0.89625722764E+01  0.78968646122E+00  0.32039432723E+01  0.17146619655E+03  0.17120000000E+03 0.  0.
        998    1    1    2    0    0 -0.92724700126E+00 -0.23997823527E+01  0.14809449641E+04  0.14809809606E+04  0.10000000000E+02 0.  1.
</event>
<event>
 5    1  0.1520352E-008  0.3760228E+03  0.7957747E-01  0.3468661E+00
         13   -1    0    0    0    0  0.00000000000E+00  0.00000000000E+00  0.14999999963E+04  0.15000000000E+04  0.10566000000E+00 0.  1.
        994   -1    0    0    0    0 -0.00000000000E+00 -0.00000000000E+00  0.11368683772E-12  0.17120000000E+03  0.17120000000E+03 0.  0.
         13    1    1    2    0    0 -0.46504072681E+02  0.12474660317E+02  0.74322102180E+02  0.88555248080E+02  0.10566000000E+00 0.  1.
        994    1    1    2    0    0  0.41334402373E+02 -0.14433327897E+02  0.21037060006E+02  0.17795744342E+03  0.17120000000E+03 0.  0.
        998    1    1    2    0    0  0.51696703085E+01  0.19586675802E+01  0.14046408341E+04  0.14046873085E+04  0.10000000000E+02 0.  1.
</event>
<event>
 5    1  0.1520352E-008  0.3834606E+03  0.7957747E-01  0.3436227E+00
         13   -1    0    0    0    0  0.00000000000E+00  0.00000000000E+00  0.14999999963E+04  0.15000000000E+04  0.10566000000E+00 0. -1.
        994   -1    0    0    0    0 -0.00000000000E+00 -0.00000000000E+00  0.11368683772E-12  0.17120000000E+03  0.17120000000E+03 0.  0.
         13    1    1    2    0    0  0.18760135076E+02  0.18897835402E+02  0.14955230386E+03  0.15190448843E+03  0.10566000000E+00 0. -1.
        994    1    1    2    0    0  0.21946241351E+02 -0.47630728476E+02  0.11540182767E+02  0.17942391040E+03  0.17120000000E+03 0.  0.
        998    1    1    2    0    0 -0.40706376427E+02  0.28732893074E+02  0.13389075097E+04  0.13398716012E+04  0.10000000000E+02 0. -1.
</event>
<event>
 5    1  0.1520352E-008  0.3811834E+03  0.7957747E-01  0.3446022E+00
         13   -1    0    0    0    0  0.00000000000E+00  0.00000000000E+00  0.14999999963E+04  0.15000000000E+04  0.10566000000E+00 0.  1.
        994   -1    0    0    0    0 -0.00000000000E+00 -0.00000000000E+00  0.11368683772E-12  0.17120000000E+03  0.17120000000E+03 0.  0.
         13    1    1    2    0    0  0.10969500591E+02  0.12822596019E+02  0.40180629200E+02  0.43580305630E+02  0.10566000000E+00 0.  1.
        994    1    1    2    0    0 -0.91227501281E+01  0.42157547290E+01  0.38733260256E+01  0.17153844995E+03  0.17120000000E+03 0.  0.
        998    1    1    2    0    0 -0.18467504627E+01 -0.17038350748E+02  0.14559460411E+04  0.14560812444E+04  0.10000000000E+02 0.  1.
</event>
<event>
 5    1  0.1520352E-008  0.3838620E+03  0.7957747E-01  0.3434513E+00
         13   -1    0    0    0    0  0.00000000000E+00  0.00000000000E+00  0.14999999963E+04  0.15000000000E+04  0.10566000000E+00 0.  1.
        994   -1    0    0    0    0 -0.00000000000E+00 -0.00000000000E+00  0.11368683772E-12  0.17120000000E+03  0.17120000000E+03 0.  0.
         13    1    1    2    0    0  0.13611498035E+01 -0.20367993710E+02  0.97425785056E+02  0.99541461986E+02  0.10566000000E+00 0.  1.
        994    1    1    2    0    0 -0.21633116647E+01  0.80626439065E+01  0.24262571104E+01  0.17142057306E+03  0.17120000000E+03 0.  0.
        998    1    1    2    0    0  0.80216186119E+00  0.12305349803E+02  0.14001479541E+04  0.14002379650E+04  0.10000000000E+02 0.  1.
</event>
<event>
 5    1  0.1520352E-008  0.3822781E+03  0.7957747E-01  0.3441299E+00
         13   -1    0    0    0    0  0.00000000000E+00  0.00000000000E+00  0.14999999963E+04  0.15000000000E+04  0.10566000000E+00 0.  1.
        994   -1    0    0    0    0 -0.00000000000E+00 -0.00000000000E+00  0.11368683772E-12  0.17120000000E+03  0.17120000000E+03 0.  0.
         13    1    1    2    0    0 -0.16548590651E+02  0.42992160647E+01  0.28408605207E+00  0.17100613446E+02  0.10566000000E+00 0.  1.
        994    1    1    2    0    0  0.19043684346E+02 -0.11658558672E+02  0.19408140786E+02  0.17373744511E+03  0.17120000000E+03 0.  0.
        998    1    1    2    0    0 -0.24950936948E+01  0.73593426069E+01  0.14803077694E+04  0.14803619414E+04  0.10000000000E+02 0.  1.
</event>
<event>
 5    1  0.1520352E-008  0.4035122E+03  0.7957747E-01  0.3354764E+00
         13   -1    0    0    0    0  0.00000000000E+00  0.00000000000E+00  0.14999999963E+04  0.15000000000E+04  0.10566000000E+00 0. -1.
        994   -1    0    0    0    0 -0.00000000000E+00 -0.00000000000E+00  0.11368683772E-12  0.17120000000E+03  0.17120000000E+03 0.  0.
         13    1    1    2    0    0 -0.11136570662E+03 -0.69229745907E+02  0.48329695071E+03  0.50077043849E+03  0.10566000000E+00 0. -1.
        994    1    1    2    0    0 -0.23646643588E+02  0.24315806242E+02  0.34476567262E+02  0.17790024136E+03  0.17120000000E+03 0.  0.
        998    1    1    2    0    0  0.13501235020E+03  0.44913939665E+02  0.98222647830E+03  0.99252932015E+03  0.10000000000E+02 0. -1.
</event>
<event>
 5    1  0.1520352E-008  0.3840452E+03  0.7957747E-01  0.3433732E+00
         13   -1    0    0    0    0  0.00000000000E+00  0.00000000000E+00  0.14999999963E+04  0.15000000000E+04  0.10566000000E+00 0.  1.
        994   -1    0    0    0    0 -0.00000000000E+00 -0.00000000000E+00  0.11368683772E-12  0.17120000000E+03  0.17120000000E+03 0.  0.
         13    1    1    2    0    0  0.16244573581E+02 -0.27661550983E+01  0.68342771918E+02  0.70301375679E+02  0.10566000000E+00 0.  1.
        994    1    1    2    0    0  0.95481764987E+00  0.39261110257E+01  0.21587918490E+01  0.17126128111E+03  0.17120000000E+03 0.  0.
        998    1    1    2    0    0 -0.17199391231E+02 -0.11599559274E+01  0.14294984325E+04  0.14296373432E+04  0.10000000000E+02 0.  1.
</event>
<event>
 5    1  0.1520352E-008  0.3853599E+03  0.7957747E-01  0.3428147E+00
         13   -1    0    0    0    0  0.00000000000E+00  0.00000000000E+00  0.14999999963E+04  0.15000000000E+04  0.10566000000E+00 0. -1.
        994   -1    0    0    0    0 -0.00000000000E+00 -0.00000000000E+00  0.11368683772E-12  0.17120000000E+03  0.17120000000E+03 0.  0.
         13    1    1    2    0    0 -0.12192793843E+02  0.32024618819E+01  0.74448598057E+02  0.75508442578E+02  0.10566000000E+00 0. -1.
        994    1    1    2    0    0 -0.29930594406E+02  0.10225307949E+02  0.47445719665E+01  0.17416184533E+03  0.17120000000E+03 0.  0.
        998    1    1    2    0    0  0.42123388249E+02 -0.13427769831E+02  0.14208068263E+04  0.14215297121E+04  0.10000000000E+02 0. -1.
</event>
<event>
 5    1  0.1520352E-008  0.3805776E+03  0.7957747E-01  0.3448647E+00
         13   -1    0    0    0    0  0.00000000000E+00  0.00000000000E+00  0.14999999963E+04  0.15000000000E+04  0.10566000000E+00 0.  1.
        994   -1    0    0    0    0 -0.00000000000E+00 -0.00000000000E+00  0.11368683772E-12  0.17120000000E+03  0.17120000000E+03 0.  0.
         13    1    1    2    0    0  0.39520172544E+01  0.13767679567E+02  0.25577763770E+02  0.29315535208E+02  0.10566000000E+00 0.  1.
        994    1    1    2    0    0  0.20002010341E+01 -0.51367522874E+01  0.39432518241E+01  0.17133410712E+03  0.17120000000E+03 0.  0.
        998    1    1    2    0    0 -0.59522182885E+01 -0.86309272796E+01  0.14704789807E+04  0.14705503577E+04  0.10000000000E+02 0.  1.
</event>
<event>
 5    1  0.1520352E-008  0.3839268E+03  0.7957747E-01  0.3434236E+00
         13   -1    0    0    0    0  0.00000000000E+00  0.00000000000E+00  0.14999999963E+04  0.15000000000E+04  0.10566000000E+00 0. -1.
        994   -1    0    0    0    0 -0.00000000000E+00 -0.00000000000E+00  0.11368683772E-12  0.17120000000E+03  0.17120000000E+03 0.  0.
         13    1    1    2    0    0 -0.12970536369E+02  0.28153743659E+01  0.42352968745E+02  0.44384076785E+02  0.10566000000E+00 0. -1.
        994    1    1    2    0    0 -0.89386757039E+00  0.82161864279E+01  0.23893367771E+01  0.17141602506E+03  0.17120000000E+03 0.  0.
        998    1    1    2    0    0  0.13864403939E+02 -0.11031560794E+02  0.14552576908E+04  0.14553998982E+04  0.10000000000E+02 0. -1.
</event>
<event>
 5    1  0.1520352E-008  0.3854716E+03  0.7957747E-01  0.3427675E+00
         13   -1    0    0    0    0  0.00000000000E+00  0.00000000000E+00  0.14999999963E+04  0.15000000000E+04  0.10566000000E+00 0. -1.
        994   -1    0    0    0    0 -0.00000000000E+00 -0.00000000000E+00  0.11368683772E-12  0.17120000000E+03  0.17120000000E+03 0.  0.
         13    1    1    2    0    0 -0.10448542915E+02  0.80131116763E+01  0.70155142891E+02  0.71380230077E+02  0.10566000000E+00 0. -1.
        994    1    1    2    0    0 -0.65949711862E+01  0.36885542505E+01  0.15837032679E+01  0.17137399801E+03  0.17120000000E+03 0.  0.
        998    1    1    2    0    0  0.17043514101E+02 -0.11701665927E+02  0.14282611501E+04  0.14284457719E+04  0.10000000000E+02 0. -1.
</event>
<event>
 5    1  0.1520352E-008  0.3839126E+03  0.7957747E-01  0.3434297E+00
         13   -1    0    0    0    0  0.00000000000E+00  0.00000000000E+00  0.14999999963E+04  0.15000000000E+04  0.10566000000E+00 0.  1.
        994   -1    0    0    0    0 -0.00000000000E+00 -0.00000000000E+00  0.11368683772E-12  0.17120000000E+03  0.17120000000E+03 0.  0.
         13    1    1    2    0    0  0.25679405130E+02  0.11436167562E+02  0.14294117212E+03  0.14567912557E+03  0.10566000000E+00 0.  1.
        994    1    1    2    0    0 -0.47077870352E+02 -0.10195511926E+02  0.98664822317E+01  0.17812091907E+03  0.17120000000E+03 0.  0.
        998    1    1    2    0    0  0.21398465222E+02 -0.12406556363E+01  0.13471923419E+04  0.13473999554E+04  0.10000000000E+02 0.  1.
</event>
<event>
 5    1  0.1520352E-008  0.3743145E+03  0.7957747E-01  0.3476294E+00
         13   -1    0    0    0    0  0.00000000000E+00  0.00000000000E+00  0.14999999963E+04  0.15000000000E+04  0.10566000000E+00 0.  1.
        994   -1    0    0    0    0 -0.00000000000E+00 -0.00000000000E+00  0.11368683772E-12  0.17120000000E+03  0.17120000000E+03 0.  0.
         13    1    1    2    0    0  0.12125143199E+02 -0.55326974536E+01  0.94378480592E+01  0.16331380184E+02  0.10566000000E+00 0.  1.
        994    1    1    2    0    0 -0.85785346242E+01  0.76578600304E+01  0.74818083352E+01  0.17174880358E+03  0.17120000000E+03 0.  0.
        998    1    1    2    0    0 -0.35466085743E+01 -0.21251625769E+01  0.14830803399E+04  0.14831198162E+04  0.10000000000E+02 0.  1.
</event>
<event>
 5    1  0.1520352E-008  0.3740938E+03  0.7957747E-01  0.3477285E+00
         13   -1    0    0    0    0  0.00000000000E+00  0.00000000000E+00  0.14999999963E+04  0.15000000000E+04  0.10566000000E+00 0.  1.
        994   -1    0    0    0    0 -0.00000000000E+00 -0.00000000000E+00  0.11368683772E-12  0.17120000000E+03  0.17120000000E+03 0.  0.
         13    1    1    2    0    0 -0.72136558305E-01 -0.28610458851E+02  0.25355275181E+02  0.38229108058E+02  0.10566000000E+00 0.  1.
        994    1    1    2    0    0  0.18081012546E+01  0.28219358850E+02  0.15961322955E+02  0.17425213133E+03  0.17120000000E+03 0.  0.
        998    1    1    2    0    0 -0.17359646963E+01  0.39110000095E+00  0.14586833981E+04  0.14587187606E+04  0.10000000000E+02 0.  0.
</event>
<event>
 5    1  0.1520352E-008  0.3842196E+03  0.7957747E-01  0.3432989E+00
         13   -1    0    0    0    0  0.00000000000E+00  0.00000000000E+00  0.14999999963E+04  0.15000000000E+04  0.10566000000E+00 0. -1.
        994   -1    0    0    0    0 -0.00000000000E+00 -0.00000000000E+00  0.11368683772E-12  0.17120000000E+03  0.17120000000E+03 0.  0.
         13    1    1    2    0    0 -0.15287670542E+02 -0.48969360495E+01  0.60687390800E+02  0.62774703658E+02  0.10566000000E+00 0. -1.
        994    1    1    2    0    0  0.18106576428E+02  0.48262743585E+01  0.31766624161E+01  0.17225176986E+03  0.17120000000E+03 0.  0.
        998    1    1    2    0    0 -0.28189058858E+01  0.70661690998E-01  0.14361359431E+04  0.14361735265E+04  0.10000000000E+02 0. -1.
</event>
<event>
 5    1  0.1520352E-008  0.3751833E+03  0.7957747E-01  0.3472403E+00
         13   -1    0    0    0    0  0.00000000000E+00  0.00000000000E+00  0.14999999963E+04  0.15000000000E+04  0.10566000000E+00 0. -1.
        994   -1    0    0    0    0 -0.00000000000E+00 -0.00000000000E+00  0.11368683772E-12  0.17120000000E+03  0.17120000000E+03 0.  0.
         13    1    1    2    0    0 -0.86301807571E+01  0.41042141779E+02  0.18082711539E+03  0.18562702995E+03  0.10566000000E+00 0. -1.
        994    1    1    2    0    0 -0.10403134958E+03 -0.45433562197E+01  0.44360580080E+02  0.20523270901E+03  0.17120000000E+03 0.  0.
        998    1    1    2    0    0  0.11266153034E+03 -0.36498785559E+02  0.12748123008E+04  0.12803402610E+04  0.10000000000E+02 0. -1.
</event>
<event>
 5    1  0.1520352E-008  0.3806795E+03  0.7957747E-01  0.3448205E+00
         13   -1    0    0    0    0  0.00000000000E+00  0.00000000000E+00  0.14999999963E+04  0.15000000000E+04  0.10566000000E+00 0.  1.
        994   -1    0    0    0    0 -0.00000000000E+00 -0.00000000000E+00  0.11368683772E-12  0.17120000000E+03  0.17120000000E+03 0.  0.
         13    1    1    2    0    0  0.25344613707E+02 -0.93599911197E+01  0.91985679581E+02  0.95871451902E+02  0.10566000000E+00 0.  1.
        994    1    1    2    0    0 -0.22225516542E+02  0.58562216170E+01  0.55544983758E+01  0.17282523360E+03  0.17120000000E+03 0.  0.
        998    1    1    2    0    0 -0.31190971646E+01  0.35037695027E+01  0.14024598183E+04  0.14025033145E+04  0.10000000000E+02 0.  1.
</event>
<event>
 5    1  0.1520352E-008  0.3831062E+03  0.7957747E-01  0.3437744E+00
         13   -1    0    0    0    0  0.00000000000E+00  0.00000000000E+00  0.14999999963E+04  0.15000000000E+04  0.10566000000E+00 0.  1.
        994   -1    0    0    0    0 -0.00000000000E+00 -0.00000000000E+00  0.11368683772E-12  0.17120000000E+03  0.17120000000E+03 0.  0.
         13    1    1    2    0    0 -0.13429803467E+02  0.69482865393E+01  0.42676940824E+02  0.45276602667E+02  0.10566000000E+00 0.  1.
        994    1    1    2    0    0  0.12763633257E+02 -0.87791382387E+01  0.33677970181E+01  0.17193244504E+03  0.17120000000E+03 0.  0.
        998    1    1    2    0    0  0.66617020980E+00  0.18308516994E+01  0.14539552584E+04  0.14539909523E+04  0.10000000000E+02 0.  1.
</event>
<event>
 5    1  0.1520352E-008  0.2105857E+03  0.7957747E-01  0.4854996E+00
         13   -1    0    0    0    0  0.00000000000E+00  0.00000000000E+00  0.14999999963E+04  0.15000000000E+04  0.10566000000E+00 0. -1.
        994   -1    0    0    0    0 -0.00000000000E+00 -0.00000000000E+00  0.11368683772E-12  0.17120000000E+03  0.17120000000E+03 0.  0.
         13    1    1    2    0    0 -0.64782508479E+02 -0.97251109858E+02  0.71184919875E+02  0.13682783253E+03  0.10566000000E+00 0. -1.
        994    1    1    2    0    0  0.42311926035E+02  0.81250935535E+02  0.12653085253E+03  0.23175743840E+03  0.17120000000E+03 0.  0.
        998    1    1    2    0    0  0.22470582444E+02  0.16000174323E+02  0.13022842239E+04  0.13026147291E+04  0.10000000000E+02 0. -1.
</event>
<event>
 5    1  0.1520352E-008  0.3754239E+03  0.7957747E-01  0.3471329E+00
         13   -1    0    0    0    0  0.00000000000E+00  0.00000000000E+00  0.14999999963E+04  0.15000000000E+04  0.10566000000E+00 0.  1.
        994   -1    0    0    0    0 -0.00000000000E+00 -0.00000000000E+00  0.11368683772E-12  0.17120000000E+03  0.17120000000E+03 0.  0.
         13    1    1    2    0    0  0.84821298287E+01  0.38071354970E+02  0.52773042631E+02  0.65623012643E+02  0.10566000000E+00 0.  1.
        994    1    1    2    0    0  0.15077402131E+02 -0.83688556095E+01  0.14896402439E+02  0.17270989724E+03  0.17120000000E+03 0.  0.
        998    1    1    2    0    0 -0.23559531959E+02 -0.29702499360E+02  0.14323305512E+04  0.14328670901E+04  0.10000000000E+02 0.  1.
</event>
<event>
 5    1  0.1520352E-008  0.3765417E+03  0.7957747E-01  0.3466356E+00
         13   -1    0    0    0    0  0.00000000000E+00  0.00000000000E+00  0.14999999963E+04  0.15000000000E+04  0.10566000000E+00 0. -1.
        994   -1    0    0    0    0 -0.00000000000E+00 -0.00000000000E+00  0.11368683772E-12  0.17120000000E+03  0.17120000000E+03 0.  0.
         13    1    1    2    0    0 -0.34456295890E+02 -0.54352406243E+02  0.32055538097E+03  0.32695134779E+03  0.10566000000E+00 0. -1.
        994    1    1    2    0    0  0.54134256301E+01  0.53643986220E+02  0.15783469072E+02  0.18018196450E+03  0.17120000000E+03 0.  0.
        998    1    1    2    0    0  0.29042870260E+02  0.70842002284E+00  0.11636611462E+04  0.11640666877E+04  0.10000000000E+02 0. -1.
</event>
<event>
 5    1  0.1520352E-008  0.3790032E+03  0.7957747E-01  0.3455510E+00
         13   -1    0    0    0    0  0.00000000000E+00  0.00000000000E+00  0.14999999963E+04  0.15000000000E+04  0.10566000000E+00 0. -1.
        994   -1    0    0    0    0 -0.00000000000E+00 -0.00000000000E+00  0.11368683772E-12  0.17120000000E+03  0.17120000000E+03 0.  0.
         13    1    1    2    0    0 -0.44853818775E+02 -0.62884872712E+01  0.56098529561E+02  0.72100390525E+02  0.10566000000E+00 0. -1.
        994    1    1    2    0    0  0.51384886897E+02  0.61165465135E+01  0.25512454651E+02  0.18066030025E+03  0.17120000000E+03 0.  0.
        998    1    1    2    0    0 -0.65310681223E+01  0.17194075771E+00  0.14183890121E+04  0.14184393092E+04  0.10000000000E+02 0. -1.
</event>
<event>
 5    1  0.1520352E-008  0.3816303E+03  0.7957747E-01  0.3444090E+00
         13   -1    0    0    0    0  0.00000000000E+00  0.00000000000E+00  0.14999999963E+04  0.15000000000E+04  0.10566000000E+00 0.  1.
        994   -1    0    0    0    0 -0.00000000000E+00 -0.00000000000E+00  0.11368683772E-12  0.17120000000E+03  0.17120000000E+03 0.  0.
         13    1    1    2    0    0 -0.10025542082E+02 -0.25047410287E+02  0.10585692215E+03  0.10924094190E+03  0.10566000000E+00 0.  1.
        994    1    1    2    0    0  0.11746837800E+02  0.18059772515E+02  0.48572298081E+01  0.17261858609E+03  0.17120000000E+03 0.  0.
        998    1    1    2    0    0 -0.17212957176E+01  0.69876377725E+01  0.13892858443E+04  0.13893404720E+04  0.10000000000E+02 0.  1.
</event>
<event>
 5    1  0.1520352E-008  0.3721157E+03  0.7957747E-01  0.3486224E+00
         13   -1    0    0    0    0  0.00000000000E+00  0.00000000000E+00  0.14999999963E+04  0.15000000000E+04  0.10566000000E+00 0.  1.
        994   -1    0    0    0    0 -0.00000000000E+00 -0.00000000000E+00  0.11368683772E-12  0.17120000000E+03  0.17120000000E+03 0.  0.
         13    1    1    2    0    0  0.26537589750E+02 -0.23931896854E+01  0.24005873745E+02  0.35864525159E+02  0.10566000000E+00 0.  1.
        994    1    1    2    0    0 -0.26300774546E+02  0.42334823373E+01  0.14565379753E+02  0.17387134152E+03  0.17120000000E+03 0.  0.
        998    1    1    2    0    0 -0.23681520379E+00 -0.18402926519E+01  0.14614287428E+04  0.14614641333E+04  0.10000000000E+02 0.  1.
</event>
<event>
 5    1  0.1520352E-008  0.3748462E+03  0.7957747E-01  0.3473911E+00
         13   -1    0    0    0    0  0.00000000000E+00  0.00000000000E+00  0.14999999963E+04  0.15000000000E+04  0.10566000000E+00 0.  1.
        994   -1    0    0    0    0 -0.00000000000E+00 -0.00000000000E+00  0.11368683772E-12  0.17120000000E+03  0.17120000000E+03 0.  0.
         13    1    1    2    0    0 -0.36823534084E+02 -0.31517246410E+02  0.15103348748E+03  0.15862041164E+03  0.10566000000E+00 0.  1.
        994    1    1    2    0    0  0.42956575552E+02  0.32364180560E+02  0.16660105132E+02  0.18022127141E+03  0.17120000000E+03 0.  0.
        998    1    1    2    0    0 -0.61330414680E+01 -0.84693414920E+00  0.13323064037E+04  0.13323583169E+04  0.10000000000E+02 0.  1.
</event>
<event>
 5    1  0.1520352E-008  0.3832862E+03  0.7957747E-01  0.3436973E+00
         13   -1    0    0    0    0  0.00000000000E+00  0.00000000000E+00  0.14999999963E+04  0.15000000000E+04  0.10566000000E+00 0. -1.
        994   -1    0    0    0    0 -0.00000000000E+00 -0.00000000000E+00  0.11368683772E-12  0.17120000000E+03  0.17120000000E+03 0.  0.
         13    1    1    2    0    0  0.78961201863E+01  0.64410004703E+01  0.20465733493E+02  0.22862471706E+02  0.10566000000E+00 0. -1.
        994    1    1    2    0    0 -0.15245510264E+01  0.17960781028E+01  0.25017809610E+01  0.17123448560E+03  0.17120000000E+03 0.  0.
        998    1    1    2    0    0 -0.63715691599E+01 -0.82370785731E+01  0.14770324818E+04  0.14771030427E+04  0.10000000000E+02 0. -1.
</event>
<event>
 5    1  0.1520352E-008  0.3828063E+03  0.7957747E-01  0.3439030E+00
         13   -1    0    0    0    0  0.00000000000E+00  0.00000000000E+00  0.14999999963E+04  0.15000000000E+04  0.10566000000E+00 0.  1.
        994   -1    0    0    0    0 -0.00000000000E+00 -0.00000000000E+00  0.11368683772E-12  0.17120000000E+03  0.17120000000E+03 0.  0.
         13    1    1    2    0    0  0.76888972936E+01 -0.11372148183E+02  0.33253500451E+02  0.35975705027E+02  0.10566000000E+00 0.  1.
        994    1    1    2    0    0 -0.58910084353E+01  0.11401497601E+02  0.32689259379E+01  0.17171145566E+03  0.17120000000E+03 0.  0.
        998    1    1    2    0    0 -0.17978888582E+01 -0.29349417919E-01  0.14634775699E+04  0.14635128393E+04  0.10000000000E+02 0.  1.
</event>
<event>
 5    1  0.1520352E-008  0.4302096E+03  0.7957747E-01  0.3257987E+00
         13   -1    0    0    0    0  0.00000000000E+00  0.00000000000E+00  0.14999999963E+04  0.15000000000E+04  0.10566000000E+00 0. -1.
        994   -1    0    0    0    0 -0.00000000000E+00 -0.00000000000E+00  0.11368683772E-12  0.17120000000E+03  0.17120000000E+03 0.  0.
         13    1    1    2    0    0  0.91316024838E+02 -0.62270941486E+01  0.67500234472E+02  0.11372636419E+03  0.10566000000E+00 0. -1.
        994    1    1    2    0    0 -0.10370476067E+03  0.36804275236E+02  0.10404113018E+03  0.22856777732E+03  0.17120000000E+03 0.  0.
        998    1    1    2    0    0  0.12388735832E+02 -0.30577181087E+02  0.13284586316E+04  0.13289058585E+04  0.10000000000E+02 0. -1.
</event>
<event>
 5    1  0.1520352E-008  0.3820468E+03  0.7957747E-01  0.3442294E+00
         13   -1    0    0    0    0  0.00000000000E+00  0.00000000000E+00  0.14999999963E+04  0.15000000000E+04  0.10566000000E+00 0. -1.
        994   -1    0    0    0    0 -0.00000000000E+00 -0.00000000000E+00  0.11368683772E-12  0.17120000000E+03  0.17120000000E+03 0.  0.
         13    1    1    2    0    0  0.35455509646E+02  0.77356858273E+01  0.18474357755E+03  0.18827409436E+03  0.10566000000E+00 0. -1.
        994    1    1    2    0    0 -0.38267468026E+02 -0.33981138646E+01  0.80198189368E+01  0.17564083746E+03  0.17120000000E+03 0.  0.
        998    1    1    2    0    0  0.28119583800E+01 -0.43375719627E+01  0.13072365998E+04  0.13072850682E+04  0.10000000000E+02 0. -1.
</event>
<event>
 5    1  0.1520352E-008  0.3732632E+03  0.7957747E-01  0.3481027E+00
         13   -1    0    0    0    0  0.00000000000E+00  0.00000000000E+00  0.14999999963E+04  0.15000000000E+04  0.10566000000E+00 0. -1.
        994   -1    0    0    0    0 -0.00000000000E+00 -0.00000000000E+00  0.11368683772E-12  0.17120000000E+03  0.17120000000E+03 0.  0.
         13    1    1    2    0    0 -0.11302980283E+02  0.56721947067E+02  0.18791051941E+03  0.19661004835E+03  0.10566000000E+00 0. -1.
        994    1    1    2    0    0  0.11244735956E+02 -0.60498355122E+02  0.20632960272E+02  0.18308919714E+03  0.17120000000E+03 0.  0.
        998    1    1    2    0    0  0.58244326503E-01  0.37764080545E+01  0.12914565166E+04  0.12915007545E+04  0.10000000000E+02 0. -1.
</event>
<event>
 5    1  0.1520352E-008  0.3852359E+03  0.7957747E-01  0.3428672E+00
         13   -1    0    0    0    0  0.00000000000E+00  0.00000000000E+00  0.14999999963E+04  0.15000000000E+04  0.10566000000E+00 0. -1.
        994   -1    0    0    0    0 -0.00000000000E+00 -0.00000000000E+00  0.11368683772E-12  0.17120000000E+03  0.17120000000E+03 0.  0.
         13    1    1    2    0    0 -0.85494925722E+01 -0.62938330081E+01  0.37347080726E+02  0.38826817536E+02  0.10566000000E+00 0. -1.
        994    1    1    2    0    0  0.94157926394E+01 -0.19566355225E+01  0.18170383225E+01  0.17147952415E+03  0.17120000000E+03 0.  0.
        998    1    1    2    0    0 -0.86630006727E+00  0.82504685306E+01  0.14608358772E+04  0.14608936583E+04  0.10000000000E+02 0. -1.
</event>
<event>
 5    1  0.1520352E-008  0.3687547E+03  0.7957747E-01  0.3501634E+00
         13   -1    0    0    0    0  0.00000000000E+00  0.00000000000E+00  0.14999999963E+04  0.15000000000E+04  0.10566000000E+00 0. -1.
        994   -1    0    0    0    0 -0.00000000000E+00 -0.00000000000E+00  0.11368683772E-12  0.17120000000E+03  0.17120000000E+03 0.  0.
         13    1    1    2    0    0 -0.37041009934E+02  0.10020074097E+03  0.45121097125E+03  0.46368478156E+03  0.10566000000E+00 0. -1.
        994    1    1    2    0    0  0.28026463757E+02 -0.86785662003E+02  0.39387097808E+02  0.19793437618E+03  0.17120000000E+03 0.  0.
        998    1    1    2    0    0  0.90145461770E+01 -0.13415078967E+02  0.10094019272E+04  0.10095808423E+04  0.10000000000E+02 0. -1.
</event>
<event>
 5    1  0.1520352E-008  0.3724141E+03  0.7957747E-01  0.3484869E+00
         13   -1    0    0    0    0  0.00000000000E+00  0.00000000000E+00  0.14999999963E+04  0.15000000000E+04  0.10566000000E+00 0.  1.
        994   -1    0    0    0    0 -0.00000000000E+00 -0.00000000000E+00  0.11368683772E-12  0.17120000000E+03  0.17120000000E+03 0.  0.
         13    1    1    2    0    0  0.47293727832E+02 -0.21547694067E+02  0.11967793964E+03  0.13047536247E+03  0.10566000000E+00 0.  1.
        994    1    1    2    0    0 -0.81095917418E+01 -0.15430933114E+02  0.13293155172E+02  0.17259787701E+03  0.17120000000E+03 0.  0.
        998    1    1    2    0    0 -0.39184136090E+02  0.36978627181E+02  0.13670289015E+04  0.13681267605E+04  0.10000000000E+02 0.  1.
</event>
<event>
 5    1  0.1520352E-008  0.3798165E+03  0.7957747E-01  0.3451958E+00
         13   -1    0    0    0    0  0.00000000000E+00  0.00000000000E+00  0.14999999963E+04  0.15000000000E+04  0.10566000000E+00 0. -1.
        994   -1    0    0    0    0 -0.00000000000E+00 -0.00000000000E+00  0.11368683772E-12  0.17120000000E+03  0.17120000000E+03 0.  0.
         13    1    1    2    0    0  0.11889514274E+02  0.14227784984E+02  0.36417119994E+02  0.40865733909E+02  0.10566000000E+00 0. -1.
        994    1    1    2    0    0 -0.40920050644E+02 -0.94892462457E+01  0.10150642543E+02  0.17657001977E+03  0.17120000000E+03 0.  0.
        998    1    1    2    0    0  0.29030536371E+02 -0.47385387385E+01  0.14534322337E+04  0.14537642463E+04  0.10000000000E+02 0. -1.
</event>
<event>
 5    1  0.1520352E-008  0.3807126E+03  0.7957747E-01  0.3448062E+00
         13   -1    0    0    0    0  0.00000000000E+00  0.00000000000E+00  0.14999999963E+04  0.15000000000E+04  0.10566000000E+00 0.  1.
        994   -1    0    0    0    0 -0.00000000000E+00 -0.00000000000E+00  0.11368683772E-12  0.17120000000E+03  0.17120000000E+03 0.  0.
         13    1    1    2    0    0 -0.21617417332E+02 -0.21942110203E+01  0.59820659004E+02  0.63644714642E+02  0.10566000000E+00 0.  1.
        994    1    1    2    0    0  0.19519822649E+02 -0.30757200332E+00  0.50459560321E+01  0.17238335114E+03  0.17120000000E+03 0.  0.
        998    1    1    2    0    0  0.20975946827E+01  0.25017830236E+01  0.14351333812E+04  0.14351719342E+04  0.10000000000E+02 0.  1.
</event>
<event>
 5    1  0.1520352E-008  0.3783799E+03  0.7957747E-01  0.3458243E+00
         13   -1    0    0    0    0  0.00000000000E+00  0.00000000000E+00  0.14999999963E+04  0.15000000000E+04  0.10566000000E+00 0.  1.
        994   -1    0    0    0    0 -0.00000000000E+00 -0.00000000000E+00  0.11368683772E-12  0.17120000000E+03  0.17120000000E+03 0.  0.
         13    1    1    2    0    0 -0.12114623531E+02  0.51051144966E+02  0.28543069758E+03  0.29021315923E+03  0.10566000000E+00 0.  1.
        994    1    1    2    0    0  0.49821911199E+01 -0.25523857938E+02  0.72294885450E+01  0.17331472833E+03  0.17120000000E+03 0.  0.
        998    1    1    2    0    0  0.71324324114E+01 -0.25527287028E+02  0.12073398101E+04  0.12076721124E+04  0.10000000000E+02 0.  1.
</event>
<event>
 5    1  0.1520352E-008  0.3858430E+03  0.7957747E-01  0.3426105E+00
         13   -1    0    0    0    0  0.00000000000E+00  0.00000000000E+00  0.14999999963E+04  0.15000000000E+04  0.10566000000E+00 0. -1.
        994   -1    0    0    0    0 -0.00000000000E+00 -0.00000000000E+00  0.11368683772E-12  0.17120000000E+03  0.17120000000E+03 0.  0.
         13    1    1    2    0    0 -0.56240946009E+01 -0.10567914313E+02  0.64268895051E+02  0.65374408511E+02  0.10566000000E+00 0. -1.
        994    1    1    2    0    0 -0.68670566959E+01  0.13562610447E+01  0.13728683476E+01  0.17134853568E+03  0.17120000000E+03 0.  0.
        998    1    1    2    0    0  0.12491151297E+02  0.92116532683E+01  0.14343582329E+04  0.14344770558E+04  0.10000000000E+02 0. -1.
</event>
<event>
 5    1  0.1520352E-008  0.3860733E+03  0.7957747E-01  0.3425133E+00
         13   -1    0    0    0    0  0.00000000000E+00  0.00000000000E+00  0.14999999963E+04  0.15000000000E+04  0.10566000000E+00 0.  1.
        994   -1    0    0    0    0 -0.00000000000E+00 -0.00000000000E+00  0.11368683772E-12  0.17120000000E+03  0.17120000000E+03 0.  0.
         13    1    1    2    0    0 -0.11514998820E+02 -0.47019842056E+00  0.59058882578E+02  0.60172909683E+02  0.10566000000E+00 0.  1.
        994    1    1    2    0    0  0.12467901062E+02  0.12597383178E+02  0.21283814664E+01  0.17212818662E+03  0.17120000000E+03 0.  0.
        998    1    1    2    0    0 -0.95290224172E+00 -0.12127184757E+02  0.14388127322E+04  0.14388989037E+04  0.10000000000E+02 0.  1.
</event>
<event>
 5    1  0.1520352E-008  0.3849111E+03  0.7957747E-01  0.3430049E+00
         13   -1    0    0    0    0  0.00000000000E+00  0.00000000000E+00  0.14999999963E+04  0.15000000000E+04  0.10566000000E+00 0. -1.
        994   -1    0    0    0    0 -0.00000000000E+00 -0.00000000000E+00  0.11368683772E-12  0.17120000000E+03  0.17120000000E+03 0.  0.
         13    1    1    2    0    0  0.66551839327E+01 -0.97188085494E+01  0.42728824838E+02  0.44322797169E+02  0.10566000000E+00 0. -1.
        994    1    1    2    0    0  0.34391440172E+01  0.38645855538E+01  0.17623055730E+01  0.17128721042E+03  0.17120000000E+03 0.  0.
        998    1    1    2    0    0 -0.10094327950E+02  0.58542229956E+01  0.14555088659E+04  0.14555899924E+04  0.10000000000E+02 0. -1.
</event>
<event>
 5    1  0.1520352E-008  0.3718640E+03  0.7957747E-01  0.3487368E+00
         13   -1    0    0    0    0  0.00000000000E+00  0.00000000000E+00  0.14999999963E+04  0.15000000000E+04  0.10566000000E+00 0.  1.
        994   -1    0    0    0    0 -0.00000000000E+00 -0.00000000000E+00  0.11368683772E-12  0.17120000000E+03  0.17120000000E+03 0.  0.
         13    1    1    2    0    0  0.30060379336E+02 -0.53226550251E+02  0.18691124102E+03  0.19665328688E+03  0.10566000000E+00 0.  1.
        994    1    1    2    0    0 -0.32136899813E+02  0.61457022455E+02  0.25007796272E+02  0.18639896945E+03  0.17120000000E+03 0.  0.
        998    1    1    2    0    0  0.20765204769E+01 -0.82304722041E+01  0.12880809590E+04  0.12881477437E+04  0.10000000000E+02 0.  1.
</event>
<event>
 5    1  0.1520352E-008  0.3745097E+03  0.7957747E-01  0.3475418E+00
         13   -1    0    0    0    0  0.00000000000E+00  0.00000000000E+00  0.14999999963E+04  0.15000000000E+04  0.10566000000E+00 0.  1.
        994   -1    0    0    0    0 -0.00000000000E+00 -0.00000000000E+00  0.11368683772E-12  0.17120000000E+03  0.17120000000E+03 0.  0.
         13    1    1    2    0    0 -0.44336922844E+02 -0.10960774105E+03  0.42649312715E+03  0.44257882721E+03  0.10566000000E+00 0.  1.
        994    1    1    2    0    0  0.92903185512E+02  0.14607370268E+03  0.11697874376E+03  0.27011478113E+03  0.17120000000E+03 0.  0.
        998    1    1    2    0    0 -0.48566262668E+02 -0.36465961636E+02  0.95652812537E+03  0.95850639166E+03  0.10000000000E+02 0.  1.
</event>
<event>
 5    1  0.1520352E-008  0.3744250E+03  0.7957747E-01  0.3475798E+00
         13   -1    0    0    0    0  0.00000000000E+00  0.00000000000E+00  0.14999999963E+04  0.15000000000E+04  0.10566000000E+00 0. -1.
        994   -1    0    0    0    0 -0.00000000000E+00 -0.00000000000E+00  0.11368683772E-12  0.17120000000E+03  0.17120000000E+03 0.  0.
         13    1    1    2    0    0  0.47084832484E+02  0.81359086820E+02  0.25682364887E+03  0.27348616097E+03  0.10566000000E+00 0. -1.
        994    1    1    2    0    0 -0.46823434141E+02 -0.91788067258E+02  0.52030395017E+02  0.20648022976E+03  0.17120000000E+03 0.  0.
        998    1    1    2    0    0 -0.26139834394E+00  0.10428980438E+02  0.11911459524E+04  0.11912336093E+04  0.10000000000E+02 0. -1.
</event>
<event>
 5    1  0.1520352E-008  0.3845733E+03  0.7957747E-01  0.3431484E+00
         13   -1    0    0    0    0  0.00000000000E+00  0.00000000000E+00  0.14999999963E+04  0.15000000000E+04  0.10566000000E+00 0.  1.
        994   -1    0    0    0    0 -0.00000000000E+00 -0.00000000000E+00  0.11368683772E-12  0.17120000000E+03  0.17120000000E+03 0.  0.
         13    1    1    2    0    0  0.11326902642E+01 -0.45202041176E+02  0.45139101291E+02  0.63890978574E+02  0.10566000000E+00 0.  1.
        994    1    1    2    0    0  0.88659680477E+01  0.50672508521E+02  0.28680272732E+02  0.18104780185E+03  0.17120000000E+03 0.  0.
        998    1    1    2    0    0 -0.99986583119E+01 -0.54704673452E+01  0.14261806223E+04  0.14262612196E+04  0.10000000000E+02 0.  1.
</event>
<event>
 5    1  0.1520352E-008  0.3829983E+03  0.7957747E-01  0.3438206E+00
         13   -1    0    0    0    0  0.00000000000E+00  0.00000000000E+00  0.14999999963E+04  0.15000000000E+04  0.10566000000E+00 0. -1.
        994   -1    0    0    0    0 -0.00000000000E+00 -0.00000000000E+00  0.11368683772E-12  0.17120000000E+03  0.17120000000E+03 0.  0.
         13    1    1    2    0    0  0.16997366971E+02  0.88470801866E+01  0.70718241966E+02  0.73268425823E+02  0.10566000000E+00 0. -1.
        994    1    1    2    0    0 -0.97121833586E+01  0.12503807212E+01  0.29446838089E+01  0.17150510523E+03  0.17120000000E+03 0.  0.
        998    1    1    2    0    0 -0.72851836122E+01 -0.10097460908E+02  0.14263370705E+04  0.14264264689E+04  0.10000000000E+02 0. -1.
</event>
<event>
 5    1  0.1520352E-008  0.3853866E+03  0.7957747E-01  0.3428034E+00
         13   -1    0    0    0    0  0.00000000000E+00  0.00000000000E+00  0.14999999963E+04  0.15000000000E+04  0.10566000000E+00 0. -1.
        994   -1    0    0    0    0 -0.00000000000E+00 -0.00000000000E+00  0.11368683772E-12  0.17120000000E+03  0.17120000000E+03 0.  0.
         13    1    1    2    0    0 -0.11567904047E+03  0.16806777490E+02  0.31248571624E+03  0.33363369463E+03  0.10566000000E+00 0. -1.
        994    1    1    2    0    0  0.89772761664E+02 -0.18656786400E+02  0.51109026877E+02  0.20082031034E+03  0.17120000000E+03 0.  0.
        998    1    1    2    0    0  0.25906278804E+02  0.18500089103E+01  0.11364052532E+04  0.11367459950E+04  0.10000000000E+02 0. -1.
</event>
<event>
 5    1  0.1520352E-008  0.3820336E+03  0.7957747E-01  0.3442351E+00
         13   -1    0    0    0    0  0.00000000000E+00  0.00000000000E+00  0.14999999963E+04  0.15000000000E+04  0.10566000000E+00 0. -1.
        994   -1    0    0    0    0 -0.00000000000E+00 -0.00000000000E+00  0.11368683772E-12  0.17120000000E+03  0.17120000000E+03 0.  0.
         13    1    1    2    0    0 -0.12681378277E+02 -0.13217375746E+02  0.52054049377E+02  0.55182892251E+02  0.10566000000E+00 0. -1.
        994    1    1    2    0    0  0.92099869631E+01  0.12934372543E+02  0.39477409963E+01  0.17198007592E+03  0.17120000000E+03 0.  0.
        998    1    1    2    0    0  0.34713913138E+01  0.28300320281E+00  0.14439982059E+04  0.14440370318E+04  0.10000000000E+02 0. -1.
</event>
<event>
 5    1  0.1520352E-008  0.3719000E+03  0.7957747E-01  0.3487204E+00
         13   -1    0    0    0    0  0.00000000000E+00  0.00000000000E+00  0.14999999963E+04  0.15000000000E+04  0.10566000000E+00 0. -1.
        994   -1    0    0    0    0 -0.00000000000E+00 -0.00000000000E+00  0.11368683772E-12  0.17120000000E+03  0.17120000000E+03 0.  0.
         13    1    1    2    0    0  0.35412097397E+02  0.13177644132E+02  0.53978556177E+02  0.65889017582E+02  0.10566000000E+00 0. -1.
        994    1    1    2    0    0 -0.26566187713E+02 -0.25984769606E+02  0.16822863905E+02  0.17599266840E+03  0.17120000000E+03 0.  0.
        998    1    1    2    0    0 -0.88459096831E+01  0.12807125474E+02  0.14291985762E+04  0.14293183140E+04  0.10000000000E+02 0. -1.
</event>
<event>
 5    1  0.1520352E-008  0.3742741E+03  0.7957747E-01  0.3476476E+00
         13   -1    0    0    0    0  0.00000000000E+00  0.00000000000E+00  0.14999999963E+04  0.15000000000E+04  0.10566000000E+00 0.  1.
        994   -1    0    0    0    0 -0.00000000000E+00 -0.00000000000E+00  0.11368683772E-12  0.17120000000E+03  0.17120000000E+03 0.  0.
         13    1    1    2    0    0 -0.27237282494E+01  0.10178130194E+02  0.47978299570E+01  0.11577709884E+02  0.10566000000E+00 0.  1.
        994    1    1    2    0    0  0.42108031442E+02  0.23872517989E+02  0.15078083763E+02  0.17854907459E+03  0.17120000000E+03 0.  0.
        998    1    1    2    0    0 -0.39384303192E+02 -0.34050648183E+02  0.14801240826E+04  0.14810732155E+04  0.10000000000E+02 0.  1.
</event>
<event>
 5    1  0.1520352E-008  0.3790850E+03  0.7957747E-01  0.3455152E+00
         13   -1    0    0    0    0  0.00000000000E+00  0.00000000000E+00  0.14999999963E+04  0.15000000000E+04  0.10566000000E+00 0. -1.
        994   -1    0    0    0    0 -0.00000000000E+00 -0.00000000000E+00  0.11368683772E-12  0.17120000000E+03  0.17120000000E+03 0.  0.
         13    1    1    2    0    0  0.22533050998E+02 -0.19755693228E+02  0.97289388339E+02  0.10180010830E+03  0.10566000000E+00 0. -1.
        994    1    1    2    0    0 -0.19586639906E+02  0.16536579422E+01  0.58923424712E+01  0.17242543533E+03  0.17120000000E+03 0.  0.
        998    1    1    2    0    0 -0.29464110918E+01  0.18102035286E+02  0.13968182655E+04  0.13969744564E+04  0.10000000000E+02 0. -1.
</event>
<event>
 5    1  0.1520352E-008  0.3709144E+03  0.7957747E-01  0.3491699E+00
         13   -1    0    0    0    0  0.00000000000E+00  0.00000000000E+00  0.14999999963E+04  0.15000000000E+04  0.10566000000E+00 0. -1.
        994   -1    0    0    0    0 -0.00000000000E+00 -0.00000000000E+00  0.11368683772E-12  0.17120000000E+03  0.17120000000E+03 0.  0.
         13    1    1    2    0    0 -0.77380154882E+02 -0.14588136491E+02  0.37266894855E+03  0.38089717572E+03  0.10566000000E+00 0. -1.
        994    1    1    2    0    0  0.34595876388E+02  0.17481269885E+02  0.13988324136E+02  0.17608970064E+03  0.17120000000E+03 0.  0.
        998    1    1    2    0    0  0.42784278494E+02 -0.28931333949E+01  0.11133427236E+04  0.11142131236E+04  0.10000000000E+02 0. -1.
</event>
<event>
 5    1  0.1520352E-008  0.3752510E+03  0.7957747E-01  0.3472101E+00
         13   -1    0    0    0    0  0.00000000000E+00  0.00000000000E+00  0.14999999963E+04  0.15000000000E+04  0.10566000000E+00 0. -1.
        994   -1    0    0    0    0 -0.00000000000E+00 -0.00000000000E+00  0.11368683772E-12  0.17120000000E+03  0.17120000000E+03 0.  0.
         13    1    1    2    0    0  0.67537507499E+02 -0.13494003976E+02  0.31473444313E+03  0.32218191122E+03  0.10566000000E+00 0. -1.
        994    1    1    2    0    0 -0.53150498798E+02  0.25172327795E+02  0.18388520439E+02  0.18195109039E+03  0.17120000000E+03 0.  0.
        998    1    1    2    0    0 -0.14387008701E+02 -0.11678323818E+02  0.11668770327E+04  0.11670669984E+04  0.10000000000E+02 0. -1.
</event>
<event>
 5    1  0.1520352E-008  0.3744944E+03  0.7957747E-01  0.3475487E+00
         13   -1    0    0    0    0  0.00000000000E+00  0.00000000000E+00  0.14999999963E+04  0.15000000000E+04  0.10566000000E+00 0.  1.
        994   -1    0    0    0    0 -0.00000000000E+00 -0.00000000000E+00  0.11368683772E-12  0.17120000000E+03  0.17120000000E+03 0.  0.
         13    1    1    2    0    0 -0.35271039876E+01  0.11750647324E+02  0.76361852748E+01  0.14451320516E+02  0.10566000000E+00 0.  1.
        994    1    1    2    0    0  0.15214874457E+01 -0.12130492164E+02  0.74476789509E+01  0.17179747287E+03  0.17120000000E+03 0.  0.
        998    1    1    2    0    0  0.20056165419E+01  0.37984483974E+00  0.14849161321E+04  0.14849512066E+04  0.10000000000E+02 0.  1.
</event>
<event>
 5    1  0.1520352E-008  0.3813135E+03  0.7957747E-01  0.3445459E+00
         13   -1    0    0    0    0  0.00000000000E+00  0.00000000000E+00  0.14999999963E+04  0.15000000000E+04  0.10566000000E+00 0. -1.
        994   -1    0    0    0    0 -0.00000000000E+00 -0.00000000000E+00  0.11368683772E-12  0.17120000000E+03  0.17120000000E+03 0.  0.
         13    1    1    2    0    0 -0.13366701583E+01  0.11603170006E+02  0.19274080022E+02  0.22537115300E+02  0.10566000000E+00 0. -1.
        994    1    1    2    0    0  0.19266680045E+02  0.14257417351E+02  0.53860214903E+01  0.17295354329E+03  0.17120000000E+03 0.  0.
        998    1    1    2    0    0 -0.17930009887E+02 -0.25860587357E+02  0.14753398948E+04  0.14757093414E+04  0.10000000000E+02 0. -1.
</event>
<event>
 5    1  0.1520352E-008  0.3765441E+03  0.7957747E-01  0.3466346E+00
         13   -1    0    0    0    0  0.00000000000E+00  0.00000000000E+00  0.14999999963E+04  0.15000000000E+04  0.10566000000E+00 0. -1.
        994   -1    0    0    0    0 -0.00000000000E+00 -0.00000000000E+00  0.11368683772E-12  0.17120000000E+03  0.17120000000E+03 0.  0.
         13    1    1    2    0    0 -0.81130156665E+02  0.80297039522E+02  0.60489448060E+03  0.61557051643E+03  0.10566000000E+00 0. -1.
        994    1    1    2    0    0  0.19586975798E+02 -0.30322354442E+02  0.19118826883E+02  0.17600586451E+03  0.17120000000E+03 0.  0.
        998    1    1    2    0    0  0.61543180868E+02 -0.49974685081E+02  0.87598668880E+03  0.87962361906E+03  0.10000000000E+02 0.  1.
</event>
<event>
 5    1  0.1520352E-008  0.3823289E+03  0.7957747E-01  0.3441080E+00
         13   -1    0    0    0    0  0.00000000000E+00  0.00000000000E+00  0.14999999963E+04  0.15000000000E+04  0.10566000000E+00 0.  1.
        994   -1    0    0    0    0 -0.00000000000E+00 -0.00000000000E+00  0.11368683772E-12  0.17120000000E+03  0.17120000000E+03 0.  0.
         13    1    1    2    0    0  0.34268615226E+02 -0.11422422685E+02  0.16341040892E+03  0.16735525876E+03  0.10566000000E+00 0.  1.
        994    1    1    2    0    0 -0.65478524343E+02 -0.67208722147E+00  0.17319441185E+02  0.18411217204E+03  0.17120000000E+03 0.  0.
        998    1    1    2    0    0  0.31209909117E+02  0.12094509907E+02  0.13192701462E+04  0.13197325692E+04  0.10000000000E+02 0.  1.
</event>
<event>
 5    1  0.1520352E-008  0.3856037E+03  0.7957747E-01  0.3427116E+00
         13   -1    0    0    0    0  0.00000000000E+00  0.00000000000E+00  0.14999999963E+04  0.15000000000E+04  0.10566000000E+00 0. -1.
        994   -1    0    0    0    0 -0.00000000000E+00 -0.00000000000E+00  0.11368683772E-12  0.17120000000E+03  0.17120000000E+03 0.  0.
         13    1    1    2    0    0  0.68651455262E+01  0.10087117201E+02  0.53252335959E+02  0.54632431812E+02  0.10566000000E+00 0. -1.
        994    1    1    2    0    0 -0.59924108920E+01 -0.16495049889E+02  0.23422934465E+01  0.17211310815E+03  0.17120000000E+03 0.  0.
        998    1    1    2    0    0 -0.87273463428E+00  0.64079326878E+01  0.14444053669E+04  0.14444544600E+04  0.10000000000E+02 0. -1.
</event>
<event>
 5    1  0.1520352E-008  0.3845167E+03  0.7957747E-01  0.3431725E+00
         13   -1    0    0    0    0  0.00000000000E+00  0.00000000000E+00  0.14999999963E+04  0.15000000000E+04  0.10566000000E+00 0.  1.
        994   -1    0    0    0    0 -0.00000000000E+00 -0.00000000000E+00  0.11368683772E-12  0.17120000000E+03  0.17120000000E+03 0.  0.
         13    1    1    2    0    0 -0.12718044964E+02 -0.10938440212E+02  0.77167754904E+02  0.78970068399E+02  0.10566000000E+00 0.  1.
        994    1    1    2    0    0  0.11540466926E+02 -0.32156497220E+01  0.23431607000E+01  0.17163465030E+03  0.17120000000E+03 0.  0.
        998    1    1    2    0    0  0.11775780375E+01  0.14154089934E+02  0.14204890807E+04  0.14205952813E+04  0.10000000000E+02 0.  1.
</event>
<event>
 5    1  0.1520352E-008  0.3805466E+03  0.7957747E-01  0.3448782E+00
         13   -1    0    0    0    0  0.00000000000E+00  0.00000000000E+00  0.14999999963E+04  0.15000000000E+04  0.10566000000E+00 0.  1.
        994   -1    0    0    0    0 -0.00000000000E+00 -0.00000000000E+00  0.11368683772E-12  0.17120000000E+03  0.17120000000E+03 0.  0.
         13    1    1    2    0    0 -0.19176916904E+02  0.25350645077E+02  0.11995600263E+03  0.12409618479E+03  0.10566000000E+00 0.  1.
        994    1    1    2    0    0  0.16941245127E+02 -0.28000932531E+02  0.74397109533E+01  0.17445872666E+03  0.17120000000E+03 0.  0.
        998    1    1    2    0    0  0.22356717766E+01  0.26502874535E+01  0.13726042827E+04  0.13726450886E+04  0.10000000000E+02 0.  1.
</event>
<event>
 5    1  0.1520352E-008  0.3834829E+03  0.7957747E-01  0.3436132E+00
         13   -1    0    0    0    0  0.00000000000E+00  0.00000000000E+00  0.14999999963E+04  0.15000000000E+04  0.10566000000E+00 0.  1.
        994   -1    0    0    0    0 -0.00000000000E+00 -0.00000000000E+00  0.11368683772E-12  0.17120000000E+03  0.17120000000E+03 0.  0.
         13    1    1    2    0    0  0.83781148477E+02  0.16442561708E+03  0.94382960799E+03  0.96170130730E+03  0.10566000000E+00 0.  1.
        994    1    1    2    0    0 -0.10815446942E+03 -0.18023891460E+03  0.16549839688E+03  0.31762023702E+03  0.17120000000E+03 0.  0.
        998    1    1    2    0    0  0.24373320946E+02  0.15813297524E+02  0.39067199141E+03  0.39187845568E+03  0.10000000000E+02 0.  1.
</event>
<event>
 5    1  0.1520352E-008  0.3833062E+03  0.7957747E-01  0.3436888E+00
         13   -1    0    0    0    0  0.00000000000E+00  0.00000000000E+00  0.14999999963E+04  0.15000000000E+04  0.10566000000E+00 0. -1.
        994   -1    0    0    0    0 -0.00000000000E+00 -0.00000000000E+00  0.11368683772E-12  0.17120000000E+03  0.17120000000E+03 0.  0.
         13    1    1    2    0    0  0.63516071261E+01  0.12208659978E+02  0.37209387722E+02  0.39672962962E+02  0.10566000000E+00 0. -1.
        994    1    1    2    0    0 -0.77504695013E+01 -0.88396027073E+01  0.29305715294E+01  0.17162819291E+03  0.17120000000E+03 0.  0.
        998    1    1    2    0    0  0.13988623751E+01 -0.33690572712E+01  0.14598600370E+04  0.14598988441E+04  0.10000000000E+02 0. -1.
</event>
<event>
 5    1  0.1520352E-008  0.3833220E+03  0.7957747E-01  0.3436820E+00
         13   -1    0    0    0    0  0.00000000000E+00  0.00000000000E+00  0.14999999963E+04  0.15000000000E+04  0.10566000000E+00 0. -1.
        994   -1    0    0    0    0 -0.00000000000E+00 -0.00000000000E+00  0.11368683772E-12  0.17120000000E+03  0.17120000000E+03 0.  0.
         13    1    1    2    0    0  0.12986229942E+02 -0.54342349816E+01  0.39651324064E+02  0.42076261027E+02  0.10566000000E+00 0. -1.
        994    1    1    2    0    0 -0.53262764301E+01  0.86929825303E+01  0.28093008996E+01  0.17152629343E+03  0.17120000000E+03 0.  0.
        998    1    1    2    0    0 -0.76599535124E+01 -0.32587475487E+01  0.14575393713E+04  0.14575974455E+04  0.10000000000E+02 0. -1.
</event>
<event>
 5    1  0.1520352E-008  0.3742207E+03  0.7957747E-01  0.3476715E+00
         13   -1    0    0    0    0  0.00000000000E+00  0.00000000000E+00  0.14999999963E+04  0.15000000000E+04  0.10566000000E+00 0. -1.
        994   -1    0    0    0    0 -0.00000000000E+00 -0.00000000000E+00  0.11368683772E-12  0.17120000000E+03  0.17120000000E+03 0.  0.
         13    1    1    2    0    0 -0.44313541846E+02  0.10239023102E+02  0.13386515774E+03  0.14138040602E+03  0.10566000000E+00 0. -1.
        994    1    1    2    0    0  0.45055446391E+02  0.70081788053E+01  0.14198615590E+02  0.17773617669E+03  0.17120000000E+03 0.  0.
        998    1    1    2    0    0 -0.74190454464E+00 -0.17247201907E+02  0.13519362229E+04  0.13520834173E+04  0.10000000000E+02 0. -1.
</event>
<event>
 5    1  0.1520352E-008  0.3831635E+03  0.7957747E-01  0.3437499E+00
         13   -1    0    0    0    0  0.00000000000E+00  0.00000000000E+00  0.14999999963E+04  0.15000000000E+04  0.10566000000E+00 0. -1.
        994   -1    0    0    0    0 -0.00000000000E+00 -0.00000000000E+00  0.11368683772E-12  0.17120000000E+03  0.17120000000E+03 0.  0.
         13    1    1    2    0    0 -0.14238768019E+02  0.90019287013E+01  0.56613682425E+02  0.59066889514E+02  0.10566000000E+00 0. -1.
        994    1    1    2    0    0  0.50039629147E+01 -0.18202999083E+01  0.26385086520E+01  0.17130310816E+03  0.17120000000E+03 0.  0.
        998    1    1    2    0    0  0.92348051044E+01 -0.71816287930E+01  0.14407478052E+04  0.14408300023E+04  0.10000000000E+02 0. -1.
</event>
<event>
 5    1  0.1520352E-008  0.3820151E+03  0.7957747E-01  0.3442431E+00
         13   -1    0    0    0    0  0.00000000000E+00  0.00000000000E+00  0.14999999963E+04  0.15000000000E+04  0.10566000000E+00 0.  1.
        994   -1    0    0    0    0 -0.00000000000E+00 -0.00000000000E+00  0.11368683772E-12  0.17120000000E+03  0.17120000000E+03 0.  0.
         13    1    1    2    0    0 -0.18278084498E+02 -0.23479241614E+02  0.13237016532E+03  0.13567326557E+03  0.10566000000E+00 0.  1.
        994    1    1    2    0    0  0.17911894867E+02  0.20476601708E+02  0.55810949658E+01  0.17343793073E+03  0.17120000000E+03 0.  0.
        998    1    1    2    0    0  0.36618963111E+00  0.30026399058E+01  0.13620487360E+04  0.13620888037E+04  0.10000000000E+02 0.  1.
</event>
<event>
 5    1  0.1520352E-008  0.3853966E+03  0.7957747E-01  0.3427992E+00
         13   -1    0    0    0    0  0.00000000000E+00  0.00000000000E+00  0.14999999963E+04  0.15000000000E+04  0.10566000000E+00 0. -1.
        994   -1    0    0    0    0 -0.00000000000E+00 -0.00000000000E+00  0.11368683772E-12  0.17120000000E+03  0.17120000000E+03 0.  0.
         13    1    1    2    0    0  0.15315580494E+02  0.51647139547E+01  0.92072031023E+02  0.93480005011E+02  0.10566000000E+00 0. -1.
        994    1    1    2    0    0 -0.62295513749E+01 -0.12188367465E+02  0.20489958141E+01  0.17175855727E+03  0.17120000000E+03 0.  0.
        998    1    1    2    0    0 -0.90860291193E+01  0.70236535099E+01  0.14058789694E+04  0.14059614377E+04  0.10000000000E+02 0. -1.
</event>
<event>
 5    1  0.1520352E-008  0.3860634E+03  0.7957747E-01  0.3425175E+00
         13   -1    0    0    0    0  0.00000000000E+00  0.00000000000E+00  0.14999999963E+04  0.15000000000E+04  0.10566000000E+00 0.  1.
        994   -1    0    0    0    0 -0.00000000000E+00 -0.00000000000E+00  0.11368683772E-12  0.17120000000E+03  0.17120000000E+03 0.  0.
         13    1    1    2    0    0  0.46901607084E+00 -0.10439345485E+02  0.50842527469E+02  0.51905430098E+02  0.10566000000E+00 0.  1.
        994    1    1    2    0    0 -0.49540413995E+01  0.47781989778E+01  0.12583672629E+01  0.17134292282E+03  0.17120000000E+03 0.  0.
        998    1    1    2    0    0  0.44850253287E+01  0.56611465072E+01  0.14478991015E+04  0.14479516471E+04  0.10000000000E+02 0.  1.
</event>
<event>
 5    1  0.1520352E-008  0.3819704E+03  0.7957747E-01  0.3442624E+00
         13   -1    0    0    0    0  0.00000000000E+00  0.00000000000E+00  0.14999999963E+04  0.15000000000E+04  0.10566000000E+00 0. -1.
        994   -1    0    0    0    0 -0.00000000000E+00 -0.00000000000E+00  0.11368683772E-12  0.17120000000E+03  0.17120000000E+03 0.  0.
         13    1    1    2    0    0 -0.13694728121E+02  0.10310836186E+02  0.44614716023E+02  0.47794800669E+02  0.10566000000E+00 0. -1.
        994    1    1    2    0    0  0.10567429394E+02 -0.14695583214E+02  0.42307132645E+01  0.17220618358E+03  0.17120000000E+03 0.  0.
        998    1    1    2    0    0  0.31272987271E+01  0.43847470282E+01  0.14511545670E+04  0.14511990157E+04  0.10000000000E+02 0. -1.
</event>
<event>
 5    1  0.1520352E-008  0.3834368E+03  0.7957747E-01  0.3436329E+00
         13   -1    0    0    0    0  0.00000000000E+00  0.00000000000E+00  0.14999999963E+04  0.15000000000E+04  0.10566000000E+00 0. -1.
        994   -1    0    0    0    0 -0.00000000000E+00 -0.00000000000E+00  0.11368683772E-12  0.17120000000E+03  0.17120000000E+03 0.  0.
         13    1    1    2    0    0  0.45665534647E+01 -0.12677367978E+02  0.42050640187E+02  0.44156953853E+02  0.10566000000E+00 0. -1.
        994    1    1    2    0    0  0.19461004297E+02 -0.14238682841E+02  0.43325639714E+01  0.17294415829E+03  0.17120000000E+03 0.  0.
        998    1    1    2    0    0 -0.24027557762E+02  0.26916050818E+02  0.14536167921E+04  0.14540988879E+04  0.10000000000E+02 0. -1.
</event>
<event>
 5    1  0.2159999E-008  0.3860852E+03  0.7957747E-01  0.3425083E+00
         13   -1    0    0    0    0  0.00000000000E+00  0.00000000000E+00  0.14999999963E+04  0.15000000000E+04  0.10566000000E+00 0. -1.
        994   -1    0    0    0    0 -0.00000000000E+00 -0.00000000000E+00  0.11368683772E-12  0.17120000000E+03  0.17120000000E+03 0.  0.
         13    1    1    2    0    0  0.10960431225E+02  0.37340148208E+01  0.64000562096E+02  0.65039657379E+02  0.10566000000E+00 0. -1.
        994    1    1    2    0    0 -0.45410505101E+01  0.98987916047E+00  0.11630986453E+01  0.17126702484E+03  0.17120000000E+03 0.  0.
        998    1    1    2    0    0 -0.64193807146E+01 -0.47238939813E+01  0.14348363355E+04  0.14348933178E+04  0.10000000000E+02 0. -1.
</event>
<event>
 5    1  0.1520352E-008  0.3813844E+03  0.7957747E-01  0.3445153E+00
         13   -1    0    0    0    0  0.00000000000E+00  0.00000000000E+00  0.14999999963E+04  0.15000000000E+04  0.10566000000E+00 0.  1.
        994   -1    0    0    0    0 -0.00000000000E+00 -0.00000000000E+00  0.11368683772E-12  0.17120000000E+03  0.17120000000E+03 0.  0.
         13    1    1    2    0    0  0.34657829791E+00  0.12936653288E+02  0.22599760189E+02  0.26042992137E+02  0.10566000000E+00 0.  1.
        994    1    1    2    0    0  0.35393434374E+01 -0.15141853854E+02  0.42409989967E+01  0.17195705500E+03  0.17120000000E+03 0.  0.
        998    1    1    2    0    0 -0.38859217353E+01  0.22052005661E+01  0.14731592371E+04  0.14731999529E+04  0.10000000000E+02 0.  1.
</event>
<event>
 5    1  0.1520352E-008  0.3692639E+03  0.7957747E-01  0.3499281E+00
         13   -1    0    0    0    0  0.00000000000E+00  0.00000000000E+00  0.14999999963E+04  0.15000000000E+04  0.10566000000E+00 0.  1.
        994   -1    0    0    0    0 -0.00000000000E+00 -0.00000000000E+00  0.11368683772E-12  0.17120000000E+03  0.17120000000E+03 0.  0.
         13    1    1    2    0    0  0.31340116312E+02  0.40002438737E+01  0.45442906742E+02  0.55346849763E+02  0.10566000000E+00 0.  1.
        994    1    1    2    0    0 -0.98535163758E+00 -0.12892510780E+02  0.11133279275E+02  0.17204818412E+03  0.17120000000E+03 0.  0.
        998    1    1    2    0    0 -0.30354764675E+02  0.88922669059E+01  0.14434238103E+04  0.14438049661E+04  0.10000000000E+02 0.  1.
</event>
<event>
 5    1  0.1520352E-008  0.3860587E+03  0.7957747E-01  0.3425195E+00
         13   -1    0    0    0    0  0.00000000000E+00  0.00000000000E+00  0.14999999963E+04  0.15000000000E+04  0.10566000000E+00 0.  1.
        994   -1    0    0    0    0 -0.00000000000E+00 -0.00000000000E+00  0.11368683772E-12  0.17120000000E+03  0.17120000000E+03 0.  0.
         13    1    1    2    0    0 -0.38967997511E+01  0.11095880576E+02  0.62149655602E+02  0.63252624211E+02  0.10566000000E+00 0.  1.
        994    1    1    2    0    0  0.69227794164E+01 -0.86447900419E+01  0.15075312243E+01  0.17156447744E+03  0.17120000000E+03 0.  0.
        998    1    1    2    0    0 -0.30259796653E+01 -0.24510905340E+01  0.14363428095E+04  0.14363828983E+04  0.10000000000E+02 0.  1.
</event>
<event>
 5    1  0.1520352E-008  0.3852497E+03  0.7957747E-01  0.3428614E+00
         13   -1    0    0    0    0  0.00000000000E+00  0.00000000000E+00  0.14999999963E+04  0.15000000000E+04  0.10566000000E+00 0. -1.
        994   -1    0    0    0    0 -0.00000000000E+00 -0.00000000000E+00  0.11368683772E-12  0.17120000000E+03  0.17120000000E+03 0.  0.
         13    1    1    2    0    0  0.70826705460E+01  0.11109730833E+02  0.59750611324E+02  0.61186085501E+02  0.10566000000E+00 0. -1.
        994    1    1    2    0    0 -0.72182593176E+01  0.51528525068E+00  0.16782985312E+01  0.17136109673E+03  0.17120000000E+03 0.  0.
        998    1    1    2    0    0  0.13558877157E+00 -0.11625016084E+02  0.14385710864E+04  0.14386528178E+04  0.10000000000E+02 0. -1.
</event>
<event>
 5    1  0.1520352E-008  0.3684605E+03  0.7957747E-01  0.3502996E+00
         13   -1    0    0    0    0  0.00000000000E+00  0.00000000000E+00  0.14999999963E+04  0.15000000000E+04  0.10566000000E+00 0. -1.
        994   -1    0    0    0    0 -0.00000000000E+00 -0.00000000000E+00  0.11368683772E-12  0.17120000000E+03  0.17120000000E+03 0.  0.
         13    1    1    2    0    0  0.22926432173E+02 -0.98993263386E+02  0.42859892230E+03  0.44047966451E+03  0.10566000000E+00 0. -1.
        994    1    1    2    0    0 -0.50441769011E+02  0.72809883973E+02  0.37867753077E+02  0.19644097838E+03  0.17120000000E+03 0.  0.
        998    1    1    2    0    0  0.27515336838E+02  0.26183379413E+02  0.10335333209E+04  0.10342793571E+04  0.10000000000E+02 0.  1.
</event>
<event>
 5    1  0.1520352E-008  0.3851941E+03  0.7957747E-01  0.3428849E+00
         13   -1    0    0    0    0  0.00000000000E+00  0.00000000000E+00  0.14999999963E+04  0.15000000000E+04  0.10566000000E+00 0.  1.
        994   -1    0    0    0    0 -0.00000000000E+00 -0.00000000000E+00  0.11368683772E-12  0.17120000000E+03  0.17120000000E+03 0.  0.
         13    1    1    2    0    0  0.15539523162E+02  0.92131967448E+01  0.10634097665E+03  0.10786461075E+03  0.10566000000E+00 0.  1.
        994    1    1    2    0    0 -0.11248505219E+02 -0.41583694069E+01  0.20066076749E+01  0.17163125409E+03  0.17120000000E+03 0.  0.
        998    1    1    2    0    0 -0.42910179423E+01 -0.50548273380E+01  0.13916524120E+04  0.13917041352E+04  0.10000000000E+02 0.  1.
</event>
<event>
 5    1  0.1520352E-008  0.3840483E+03  0.7957747E-01  0.3433719E+00
         13   -1    0    0    0    0  0.00000000000E+00  0.00000000000E+00  0.14999999963E+04  0.15000000000E+04  0.10566000000E+00 0. -1.
        994   -1    0    0    0    0 -0.00000000000E+00 -0.00000000000E+00  0.11368683772E-12  0.17120000000E+03  0.17120000000E+03 0.  0.
         13    1    1    2    0    0 -0.18440101486E+01 -0.21379364470E+02  0.11441563111E+03  0.11641058975E+03  0.10566000000E+00 0. -1.
        994    1    1    2    0    0 -0.83339905706E-01  0.70100819002E+01  0.22655258055E+01  0.17135845705E+03  0.17120000000E+03 0.  0.
        998    1    1    2    0    0  0.19273500543E+01  0.14369282570E+02  0.13833188394E+04  0.13834309532E+04  0.10000000000E+02 0. -1.
</event>
<event>
 5    1  0.1520352E-008  0.3770256E+03  0.7957747E-01  0.3464213E+00
         13   -1    0    0    0    0  0.00000000000E+00  0.00000000000E+00  0.14999999963E+04  0.15000000000E+04  0.10566000000E+00 0.  1.
        994   -1    0    0    0    0 -0.00000000000E+00 -0.00000000000E+00  0.11368683772E-12  0.17120000000E+03  0.17120000000E+03 0.  0.
         13    1    1    2    0    0 -0.65345340832E+01  0.10145067113E+02  0.10307100051E+02  0.15870412658E+02  0.10566000000E+00 0.  1.
        994    1    1    2    0    0  0.51383513095E+01 -0.10665861873E+02  0.61155606667E+01  0.17171780148E+03  0.17120000000E+03 0.  0.
        998    1    1    2    0    0  0.13961827738E+01  0.52079476016E+00  0.14835773356E+04  0.14836117859E+04  0.10000000000E+02 0.  1.
</event>
<event>
 5    1  0.1520352E-008  0.3837130E+03  0.7957747E-01  0.3435149E+00
         13   -1    0    0    0    0  0.00000000000E+00  0.00000000000E+00  0.14999999963E+04  0.15000000000E+04  0.10566000000E+00 0.  1.
        994   -1    0    0    0    0 -0.00000000000E+00 -0.00000000000E+00  0.11368683772E-12  0.17120000000E+03  0.17120000000E+03 0.  0.
         13    1    1    2    0    0 -0.24316397191E+02  0.10770099275E+02  0.12783254108E+03  0.13056972058E+03  0.10566000000E+00 0.  1.
        994    1    1    2    0    0  0.30083633772E+02 -0.38706353167E+02  0.10247634954E+02  0.17837505660E+03  0.17120000000E+03 0.  0.
        998    1    1    2    0    0 -0.57672365813E+01  0.27936253892E+02  0.13619198202E+04  0.13622552228E+04  0.10000000000E+02 0.  1.
</event>
<event>
 5    1  0.1520352E-008  0.3836172E+03  0.7957747E-01  0.3435558E+00
         13   -1    0    0    0    0  0.00000000000E+00  0.00000000000E+00  0.14999999963E+04  0.15000000000E+04  0.10566000000E+00 0.  1.
        994   -1    0    0    0    0 -0.00000000000E+00 -0.00000000000E+00  0.11368683772E-12  0.17120000000E+03  0.17120000000E+03 0.  0.
         13    1    1    2    0    0  0.16214330678E+02  0.21804372311E+01  0.55433524533E+02  0.57797453508E+02  0.10566000000E+00 0.  1.
        994    1    1    2    0    0 -0.17064516408E+02  0.39804305270E+00  0.32812794670E+01  0.17208010621E+03  0.17120000000E+03 0.  0.
        998    1    1    2    0    0  0.85018573084E+00 -0.25784802838E+01  0.14412851923E+04  0.14413224403E+04  0.10000000000E+02 0.  1.
</event>
<event>
 5    1  0.1520352E-008  0.3776520E+03  0.7957747E-01  0.3461447E+00
         13   -1    0    0    0    0  0.00000000000E+00  0.00000000000E+00  0.14999999963E+04  0.15000000000E+04  0.10566000000E+00 0. -1.
        994   -1    0    0    0    0 -0.00000000000E+00 -0.00000000000E+00  0.11368683772E-12  0.17120000000E+03  0.17120000000E+03 0.  0.
         13    1    1    2    0    0 -0.53213964388E+02 -0.17149441300E+03  0.10019857968E+04  0.10179477432E+04  0.10566000000E+00 0. -1.
        994    1    1    2    0    0  0.45210293198E+02  0.16590508278E+03  0.11245483388E+03  0.26743970679E+03  0.17120000000E+03 0.  0.
        998    1    1    2    0    0  0.80036711896E+01  0.55893302194E+01  0.38555936556E+03  0.38581255000E+03  0.10000000000E+02 0. -1.
</event>
<event>
 5    1  0.1520352E-008  0.3822880E+03  0.7957747E-01  0.3441256E+00
         13   -1    0    0    0    0  0.00000000000E+00  0.00000000000E+00  0.14999999963E+04  0.15000000000E+04  0.10566000000E+00 0.  1.
        994   -1    0    0    0    0 -0.00000000000E+00 -0.00000000000E+00  0.11368683772E-12  0.17120000000E+03  0.17120000000E+03 0.  0.
         13    1    1    2    0    0 -0.18886380022E+02  0.31122773996E+01  0.56189728389E+02  0.59360579187E+02  0.10566000000E+00 0.  1.
        994    1    1    2    0    0  0.28746087310E+02 -0.22294127075E+01  0.57456447854E+01  0.17370595917E+03  0.17120000000E+03 0.  0.
        998    1    1    2    0    0 -0.98597072886E+01 -0.88286469211E+00  0.14380646231E+04  0.14381334616E+04  0.10000000000E+02 0.  1.
</event>
<event>
 5    1  0.1520352E-008  0.3798080E+03  0.7957747E-01  0.3451995E+00
         13   -1    0    0    0    0  0.00000000000E+00  0.00000000000E+00  0.14999999963E+04  0.15000000000E+04  0.10566000000E+00 0.  1.
        994   -1    0    0    0    0 -0.00000000000E+00 -0.00000000000E+00  0.11368683772E-12  0.17120000000E+03  0.17120000000E+03 0.  0.
         13    1    1    2    0    0 -0.45172014729E+01 -0.15369722237E+02  0.28394392699E+02  0.32601935089E+02  0.10566000000E+00 0.  1.
        994    1    1    2    0    0  0.35489718809E+01  0.13358744578E+02  0.48694074852E+01  0.17182608180E+03  0.17120000000E+03 0.  0.
        998    1    1    2    0    0  0.96822959203E+00  0.20109776585E+01  0.14667361961E+04  0.14667719831E+04  0.10000000000E+02 0.  1.
</event>
<event>
 5    1  0.1520352E-008  0.2837603E+03  0.7957747E-01  0.4019241E+00
         13   -1    0    0    0    0  0.00000000000E+00  0.00000000000E+00  0.14999999963E+04  0.15000000000E+04  0.10566000000E+00 0.  1.
        994   -1    0    0    0    0 -0.00000000000E+00 -0.00000000000E+00  0.11368683772E-12  0.17120000000E+03  0.17120000000E+03 0.  0.
         13    1    1    2    0    0 -0.54806245336E+02 -0.11222807869E+03  0.72777848673E+03  0.73841749917E+03  0.10566000000E+00 0.  1.
        994    1    1    2    0    0  0.15842781920E+00  0.20278996039E+02  0.20715898339E+02  0.17363712513E+03  0.17120000000E+03 0.  0.
        998    1    1    2    0    0  0.54647817516E+02  0.91949082653E+02  0.75150561121E+03  0.75914537569E+03  0.10000000000E+02 0.  1.
</event>
<event>
 5    1  0.1520352E-008  0.3830016E+03  0.7957747E-01  0.3438192E+00
         13   -1    0    0    0    0  0.00000000000E+00  0.00000000000E+00  0.14999999963E+04  0.15000000000E+04  0.10566000000E+00 0.  1.
        994   -1    0    0    0    0 -0.00000000000E+00 -0.00000000000E+00  0.11368683772E-12  0.17120000000E+03  0.17120000000E+03 0.  0.
         13    1    1    2    0    0 -0.93497898441E+01 -0.10787178156E+02  0.36700861917E+02  0.39379515134E+02  0.10566000000E+00 0.  1.
        994    1    1    2    0    0  0.92711913212E-01  0.24154802889E+02  0.45592883668E+01  0.17295574639E+03  0.17120000000E+03 0.  0.
        998    1    1    2    0    0  0.92570779309E+01 -0.13367624733E+02  0.14587398460E+04  0.14588647385E+04  0.10000000000E+02 0.  1.
</event>
<event>
 5    1  0.1520352E-008  0.3736936E+03  0.7957747E-01  0.3479086E+00
         13   -1    0    0    0    0  0.00000000000E+00  0.00000000000E+00  0.14999999963E+04  0.15000000000E+04  0.10566000000E+00 0.  1.
        994   -1    0    0    0    0 -0.00000000000E+00 -0.00000000000E+00  0.11368683772E-12  0.17120000000E+03  0.17120000000E+03 0.  0.
         13    1    1    2    0    0 -0.37248924336E+02 -0.35745822960E+02  0.23199174143E+03  0.23766662677E+03  0.10566000000E+00 0.  1.
        994    1    1    2    0    0 -0.81922975361E+01 -0.61815314791E+01  0.77108042765E+01  0.17168058007E+03  0.17120000000E+03 0.  0.
        998    1    1    2    0    0  0.45441221872E+02  0.41927354439E+02  0.12602974506E+04  0.12618527932E+04  0.10000000000E+02 0.  1.
</event>
<event>
 5    1  0.1520352E-008  0.3858765E+03  0.7957747E-01  0.3425963E+00
         13   -1    0    0    0    0  0.00000000000E+00  0.00000000000E+00  0.14999999963E+04  0.15000000000E+04  0.10566000000E+00 0.  1.
        994   -1    0    0    0    0 -0.00000000000E+00 -0.00000000000E+00  0.11368683772E-12  0.17120000000E+03  0.17120000000E+03 0.  0.
         13    1    1    2    0    0  0.94614400111E+01 -0.11041554233E+02  0.79578720697E+02  0.80896345521E+02  0.10566000000E+00 0.  1.
        994    1    1    2    0    0 -0.88063294777E+01  0.24148441239E+02  0.33652310025E+01  0.17315156203E+03  0.17120000000E+03 0.  0.
        998    1    1    2    0    0 -0.65511053335E+00 -0.13106887006E+02  0.14170560446E+04  0.14171520925E+04  0.10000000000E+02 0.  1.
</event>
<event>
 5    1  0.1520352E-008  0.3831313E+03  0.7957747E-01  0.3437636E+00
         13   -1    0    0    0    0  0.00000000000E+00  0.00000000000E+00  0.14999999963E+04  0.15000000000E+04  0.10566000000E+00 0. -1.
        994   -1    0    0    0    0 -0.00000000000E+00 -0.00000000000E+00  0.11368683772E-12  0.17120000000E+03  0.17120000000E+03 0.  0.
         13    1    1    2    0    0  0.16750366576E+00 -0.17132763176E+02  0.59838881209E+02  0.62243573965E+02  0.10566000000E+00 0. -1.
        994    1    1    2    0    0  0.27306205182E+01  0.28041295176E-01  0.25854393125E+01  0.17124129634E+03  0.17120000000E+03 0.  0.
        998    1    1    2    0    0 -0.28981241840E+01  0.17104721881E+02  0.14375756758E+04  0.14377151297E+04  0.10000000000E+02 0. -1.
</event>
<event>
 5    1  0.1520352E-008  0.3828943E+03  0.7957747E-01  0.3438652E+00
         13   -1    0    0    0    0  0.00000000000E+00  0.00000000000E+00  0.14999999963E+04  0.15000000000E+04  0.10566000000E+00 0.  1.
        994   -1    0    0    0    0 -0.00000000000E+00 -0.00000000000E+00  0.11368683772E-12  0.17120000000E+03  0.17120000000E+03 0.  0.
         13    1    1    2    0    0 -0.13830396701E+02 -0.84842243659E+00  0.34496485070E+02  0.37175507256E+02  0.10566000000E+00 0.  1.
        994    1    1    2    0    0  0.12996166887E+02 -0.31573805339E+01  0.32717056002E+01  0.17175276843E+03  0.17120000000E+03 0.  0.
        998    1    1    2    0    0  0.83422981415E+00  0.40058029705E+01  0.14622318056E+04  0.14622717243E+04  0.10000000000E+02 0.  1.
</event>
<event>
 5    1  0.1520352E-008  0.3835351E+03  0.7957747E-01  0.3435909E+00
         13   -1    0    0    0    0  0.00000000000E+00  0.00000000000E+00  0.14999999963E+04  0.15000000000E+04  0.10566000000E+00 0.  1.
        994   -1    0    0    0    0 -0.00000000000E+00 -0.00000000000E+00  0.11368683772E-12  0.17120000000E+03  0.17120000000E+03 0.  0.
         13    1    1    2    0    0  0.81994520081E+01  0.17868911853E+02  0.90614827242E+02  0.92723174580E+02  0.10566000000E+00 0.  1.
        994    1    1    2    0    0  0.28655360927E+02 -0.95369877844E+01  0.53788703482E+01  0.17392658248E+03  0.17120000000E+03 0.  0.
        998    1    1    2    0    0 -0.36854812936E+02 -0.83319240682E+01  0.14040062987E+04  0.14045502429E+04  0.10000000000E+02 0.  1.
</event>
<event>
 5    1  0.1933011E-008  0.3862845E+03  0.7957747E-01  0.3424243E+00
         13   -1    0    0    0    0  0.00000000000E+00  0.00000000000E+00  0.14999999963E+04  0.15000000000E+04  0.10566000000E+00 0. -1.
        994   -1    0    0    0    0 -0.00000000000E+00 -0.00000000000E+00  0.11368683772E-12  0.17120000000E+03  0.17120000000E+03 0.  0.
         13    1    1    2    0    0  0.78005919182E+01 -0.70902106087E+01  0.57252727354E+02  0.58215172200E+02  0.10566000000E+00 0. -1.
        994    1    1    2    0    0 -0.38529450437E+01  0.49654820600E+01  0.11231025305E+01  0.17131900816E+03  0.17120000000E+03 0.  0.
        998    1    1    2    0    0 -0.39476468745E+01  0.21247285487E+01  0.14416241664E+04  0.14416658196E+04  0.10000000000E+02 0. -1.
</event>
<event>
 5    1  0.1520352E-008  0.3768096E+03  0.7957747E-01  0.3465169E+00
         13   -1    0    0    0    0  0.00000000000E+00  0.00000000000E+00  0.14999999963E+04  0.15000000000E+04  0.10566000000E+00 0.  1.
        994   -1    0    0    0    0 -0.00000000000E+00 -0.00000000000E+00  0.11368683772E-12  0.17120000000E+03  0.17120000000E+03 0.  0.
         13    1    1    2    0    0  0.11130871214E+02  0.70558311166E+00  0.81411765546E+01  0.13808839967E+02  0.10566000000E+00 0.  1.
        994    1    1    2    0    0 -0.60222913840E+01 -0.45640272759E+02  0.12946377663E+02  0.17775362496E+03  0.17120000000E+03 0.  0.
        998    1    1    2    0    0 -0.51085798298E+01  0.44934689647E+02  0.14789124421E+04  0.14796375351E+04  0.10000000000E+02 0.  1.
</event>
<event>
 5    1  0.1520352E-008  0.3699753E+03  0.7957747E-01  0.3496005E+00
         13   -1    0    0    0    0  0.00000000000E+00  0.00000000000E+00  0.14999999963E+04  0.15000000000E+04  0.10566000000E+00 0.  1.
        994   -1    0    0    0    0 -0.00000000000E+00 -0.00000000000E+00  0.11368683772E-12  0.17120000000E+03  0.17120000000E+03 0.  0.
         13    1    1    2    0    0 -0.11551445208E+02  0.20799966754E+02  0.23382723439E+02  0.33359217959E+02  0.10566000000E+00 0.  1.
        994    1    1    2    0    0  0.30527468295E+02  0.46764564855E+02  0.21909082487E+02  0.18140644625E+03  0.17120000000E+03 0.  0.
        998    1    1    2    0    0 -0.18976023087E+02 -0.67564531609E+02  0.14547081904E+04  0.14564343358E+04  0.10000000000E+02 0.  1.
</event>
<event>
 5    1  0.1520352E-008  0.3852488E+03  0.7957747E-01  0.3428618E+00
         13   -1    0    0    0    0  0.00000000000E+00  0.00000000000E+00  0.14999999963E+04  0.15000000000E+04  0.10566000000E+00 0.  1.
        994   -1    0    0    0    0 -0.00000000000E+00 -0.00000000000E+00  0.11368683772E-12  0.17120000000E+03  0.17120000000E+03 0.  0.
         13    1    1    2    0    0  0.15057045485E+02  0.25354675055E+01  0.80742611482E+02  0.82173740861E+02  0.10566000000E+00 0.  1.
        994    1    1    2    0    0 -0.46044977056E+01 -0.10122744687E-01  0.15763384076E+01  0.17126916344E+03  0.17120000000E+03 0.  0.
        998    1    1    2    0    0 -0.10452547780E+02 -0.25253447609E+01  0.14176810464E+04  0.14177570957E+04  0.10000000000E+02 0.  1.
</event>
<event>
 5    1  0.1520352E-008  0.3855662E+03  0.7957747E-01  0.3427275E+00
         13   -1    0    0    0    0  0.00000000000E+00  0.00000000000E+00  0.14999999963E+04  0.15000000000E+04  0.10566000000E+00 0. -1.
        994   -1    0    0    0    0 -0.00000000000E+00 -0.00000000000E+00  0.11368683772E-12  0.17120000000E+03  0.17120000000E+03 0.  0.
         13    1    1    2    0    0  0.75214251710E+01  0.75230287197E+01  0.43493117950E+02  0.44775331051E+02  0.10566000000E+00 0. -1.
        994    1    1    2    0    0  0.78669153991E+01 -0.10327113184E+02  0.19027398469E+01  0.17170206185E+03  0.17120000000E+03 0.  0.
        998    1    1    2    0    0 -0.15388340570E+02  0.28040844647E+01  0.14546041385E+04  0.14547226071E+04  0.10000000000E+02 0. -1.
</event>
<event>
 5    1  0.1520352E-008  0.3761300E+03  0.7957747E-01  0.3468184E+00
         13   -1    0    0    0    0  0.00000000000E+00  0.00000000000E+00  0.14999999963E+04  0.15000000000E+04  0.10566000000E+00 0. -1.
        994   -1    0    0    0    0 -0.00000000000E+00 -0.00000000000E+00  0.11368683772E-12  0.17120000000E+03  0.17120000000E+03 0.  0.
         13    1    1    2    0    0 -0.20886734279E+02 -0.37154943670E+02  0.15002945408E+03  0.15596664311E+03  0.10566000000E+00 0. -1.
        994    1    1    2    0    0 -0.79881092028E+01  0.29178431432E+02  0.92049177282E+01  0.17409583930E+03  0.17120000000E+03 0.  0.
        998    1    1    2    0    0  0.28874843482E+02  0.79765122376E+01  0.13407656245E+04  0.13411375176E+04  0.10000000000E+02 0. -1.
</event>
<event>
 5    1  0.1520352E-008  0.3862115E+03  0.7957747E-01  0.3424550E+00
         13   -1    0    0    0    0  0.00000000000E+00  0.00000000000E+00  0.14999999963E+04  0.15000000000E+04  0.10566000000E+00 0.  1.
        994   -1    0    0    0    0 -0.00000000000E+00 -0.00000000000E+00  0.11368683772E-12  0.17120000000E+03  0.17120000000E+03 0.  0.
         13    1    1    2    0    0  0.11077634445E+02 -0.58129730294E+01  0.74338627926E+02  0.75383999670E+02  0.10566000000E+00 0.  1.
        994    1    1    2    0    0 -0.12769340529E+02  0.29463848331E+01  0.15925903735E+01  0.17170822224E+03  0.17120000000E+03 0.  0.
        998    1    1    2    0    0  0.16917060838E+01  0.28665881963E+01  0.14240687780E+04  0.14241077781E+04  0.10000000000E+02 0.  1.
</event>
<event>
 5    1  0.1520352E-008  0.3761298E+03  0.7957747E-01  0.3468185E+00
         13   -1    0    0    0    0  0.00000000000E+00  0.00000000000E+00  0.14999999963E+04  0.15000000000E+04  0.10566000000E+00 0. -1.
        994   -1    0    0    0    0 -0.00000000000E+00 -0.00000000000E+00  0.11368683772E-12  0.17120000000E+03  0.17120000000E+03 0.  0.
         13    1    1    2    0    0  0.38780171794E+02  0.13412854502E+02  0.15014762290E+03  0.15565386669E+03  0.10566000000E+00 0. -1.
        994    1    1    2    0    0 -0.32229455669E+01 -0.88291289664E+01  0.63988999384E+01  0.17157717452E+03  0.17120000000E+03 0.  0.
        998    1    1    2    0    0 -0.35557226227E+02 -0.45837255353E+01  0.13434534734E+04  0.13439689588E+04  0.10000000000E+02 0. -1.
</event>
<event>
 5    1  0.2221392E-008  0.3860771E+03  0.7957747E-01  0.3425117E+00
         13   -1    0    0    0    0  0.00000000000E+00  0.00000000000E+00  0.14999999963E+04  0.15000000000E+04  0.10566000000E+00 0. -1.
        994   -1    0    0    0    0 -0.00000000000E+00 -0.00000000000E+00  0.11368683772E-12  0.17120000000E+03  0.17120000000E+03 0.  0.
         13    1    1    2    0    0  0.96776968159E+01  0.47035702326E+01  0.56230011597E+02  0.57250386522E+02  0.10566000000E+00 0. -1.
        994    1    1    2    0    0 -0.18530839729E+01  0.30559227352E+01  0.11381975521E+01  0.17124108175E+03  0.17120000000E+03 0.  0.
        998    1    1    2    0    0 -0.78246128430E+01 -0.77594929678E+01  0.14426317871E+04  0.14427085317E+04  0.10000000000E+02 0. -1.
</event>
<event>
 5    1  0.1520352E-008  0.3843842E+03  0.7957747E-01  0.3432288E+00
         13   -1    0    0    0    0  0.00000000000E+00  0.00000000000E+00  0.14999999963E+04  0.15000000000E+04  0.10566000000E+00 0. -1.
        994   -1    0    0    0    0 -0.00000000000E+00 -0.00000000000E+00  0.11368683772E-12  0.17120000000E+03  0.17120000000E+03 0.  0.
         13    1    1    2    0    0 -0.10273781124E+02  0.14547922393E+02  0.98067091892E+02  0.99671251124E+02  0.10566000000E+00 0. -1.
        994    1    1    2    0    0  0.57197212294E+00  0.16437554535E+02  0.28280883392E+01  0.17201150669E+03  0.17120000000E+03 0.  0.
        998    1    1    2    0    0  0.97018090015E+01 -0.30985476927E+02  0.13991048160E+04  0.13995172422E+04  0.10000000000E+02 0. -1.
</event>
<event>
 5    1  0.1520352E-008  0.3918391E+03  0.7957747E-01  0.3401175E+00
         13   -1    0    0    0    0  0.00000000000E+00  0.00000000000E+00  0.14999999963E+04  0.15000000000E+04  0.10566000000E+00 0.  1.
        994   -1    0    0    0    0 -0.00000000000E+00 -0.00000000000E+00  0.11368683772E-12  0.17120000000E+03  0.17120000000E+03 0.  0.
         13    1    1    2    0    0  0.87831807836E+01  0.39642431002E+02  0.25610741489E+02  0.48006122985E+02  0.10566000000E+00 0.  1.
        994    1    1    2    0    0  0.99140814381E+01 -0.53720430988E+02  0.34384508721E+02  0.18296422644E+03  0.17120000000E+03 0.  0.
        998    1    1    2    0    0 -0.18697262222E+02  0.14077999985E+02  0.14400047461E+04  0.14402296506E+04  0.10000000000E+02 0.  1.
</event>
<event>
 5    1  0.1520352E-008  0.3858807E+03  0.7957747E-01  0.3425946E+00
         13   -1    0    0    0    0  0.00000000000E+00  0.00000000000E+00  0.14999999963E+04  0.15000000000E+04  0.10566000000E+00 0. -1.
        994   -1    0    0    0    0 -0.00000000000E+00 -0.00000000000E+00  0.11368683772E-12  0.17120000000E+03  0.17120000000E+03 0.  0.
         13    1    1    2    0    0  0.12260051286E+02 -0.64387108253E+01  0.70981541709E+02  0.72319819427E+02  0.10566000000E+00 0. -1.
        994    1    1    2    0    0 -0.32008408341E+02 -0.20809259811E+01  0.45747567298E+01  0.17423902220E+03  0.17120000000E+03 0.  0.
        998    1    1    2    0    0  0.19748357055E+02  0.85196368065E+01  0.14244436978E+04  0.14246411584E+04  0.10000000000E+02 0. -1.
</event>
<event>
 5    1  0.1520352E-008  0.3835646E+03  0.7957747E-01  0.3435783E+00
         13   -1    0    0    0    0  0.00000000000E+00  0.00000000000E+00  0.14999999963E+04  0.15000000000E+04  0.10566000000E+00 0. -1.
        994   -1    0    0    0    0 -0.00000000000E+00 -0.00000000000E+00  0.11368683772E-12  0.17120000000E+03  0.17120000000E+03 0.  0.
         13    1    1    2    0    0 -0.80873600555E+01 -0.25734810677E+02  0.15080586544E+03  0.15319956295E+03  0.10566000000E+00 0. -1.
        994    1    1    2    0    0  0.16348349111E+02  0.15211255299E+02  0.39937717068E+01  0.17269638392E+03  0.17120000000E+03 0.  0.
        998    1    1    2    0    0 -0.82609890558E+01  0.10523555377E+02  0.13452003591E+04  0.13453040531E+04  0.10000000000E+02 0. -1.
</event>
<event>
 5    1  0.1520352E-008  0.3833517E+03  0.7957747E-01  0.3436693E+00
         13   -1    0    0    0    0  0.00000000000E+00  0.00000000000E+00  0.14999999963E+04  0.15000000000E+04  0.10566000000E+00 0.  1.
        994   -1    0    0    0    0 -0.00000000000E+00 -0.00000000000E+00  0.11368683772E-12  0.17120000000E+03  0.17120000000E+03 0.  0.
         13    1    1    2    0    0 -0.69389223557E+01 -0.11819437422E+02  0.38388860866E+02  0.40762280935E+02  0.10566000000E+00 0.  1.
        994    1    1    2    0    0  0.47689633944E+01  0.20140027800E+01  0.25393179319E+01  0.17129707340E+03  0.17120000000E+03 0.  0.
        998    1    1    2    0    0  0.21699589613E+01  0.98054346423E+01  0.14590718175E+04  0.14591406457E+04  0.10000000000E+02 0.  1.
</event>
<event>
 5    1  0.1520352E-008  0.3723085E+03  0.7957747E-01  0.3485348E+00
         13   -1    0    0    0    0  0.00000000000E+00  0.00000000000E+00  0.14999999963E+04  0.15000000000E+04  0.10566000000E+00 0. -1.
        994   -1    0    0    0    0 -0.00000000000E+00 -0.00000000000E+00  0.11368683772E-12  0.17120000000E+03  0.17120000000E+03 0.  0.
         13    1    1    2    0    0 -0.71318753802E+02  0.34590764933E+02  0.35110491111E+03  0.35994104438E+03  0.10566000000E+00 0. -1.
        994    1    1    2    0    0  0.12137698489E+02  0.25764010854E+02  0.15028715377E+02  0.17420221085E+03  0.17120000000E+03 0.  0.
        998    1    1    2    0    0  0.59181055313E+02 -0.60354775787E+02  0.11338663698E+04  0.11370567448E+04  0.10000000000E+02 0. -1.
</event>
<event>
 5    1  0.1520352E-008  0.3800544E+03  0.7957747E-01  0.3450922E+00
         13   -1    0    0    0    0  0.00000000000E+00  0.00000000000E+00  0.14999999963E+04  0.15000000000E+04  0.10566000000E+00 0. -1.
        994   -1    0    0    0    0 -0.00000000000E+00 -0.00000000000E+00  0.11368683772E-12  0.17120000000E+03  0.17120000000E+03 0.  0.
         13    1    1    2    0    0 -0.92022141362E+01  0.23947137003E+02  0.93467656598E+02  0.96924507271E+02  0.10566000000E+00 0. -1.
        994    1    1    2    0    0  0.66208789732E+00  0.19214476631E+02  0.53420974860E+01  0.17235896402E+03  0.17120000000E+03 0.  0.
        998    1    1    2    0    0  0.85401262389E+01 -0.43161613633E+02  0.14011902422E+04  0.14019165287E+04  0.10000000000E+02 0. -1.
</event>
<event>
 5    1  0.1520352E-008  0.3835613E+03  0.7957747E-01  0.3435797E+00
         13   -1    0    0    0    0  0.00000000000E+00  0.00000000000E+00  0.14999999963E+04  0.15000000000E+04  0.10566000000E+00 0.  1.
        994   -1    0    0    0    0 -0.00000000000E+00 -0.00000000000E+00  0.11368683772E-12  0.17120000000E+03  0.17120000000E+03 0.  0.
         13    1    1    2    0    0 -0.16776865863E+02  0.25380472933E+02  0.18058297057E+03  0.18312796635E+03  0.10566000000E+00 0.  1.
        994    1    1    2    0    0  0.80663206279E+01 -0.27798088354E+02  0.51191738985E+01  0.17370505228E+03  0.17120000000E+03 0.  0.
        998    1    1    2    0    0  0.87105452352E+01  0.24176154211E+01  0.13142978518E+04  0.13143669814E+04  0.10000000000E+02 0.  1.
</event>
<event>
 5    1  0.1520352E-008  0.3767763E+03  0.7957747E-01  0.3465316E+00
         13   -1    0    0    0    0  0.00000000000E+00  0.00000000000E+00  0.14999999963E+04  0.15000000000E+04  0.10566000000E+00 0.  1.
        994   -1    0    0    0    0 -0.00000000000E+00 -0.00000000000E+00  0.11368683772E-12  0.17120000000E+03  0.17120000000E+03 0.  0.
         13    1    1    2    0    0  0.10440771877E+02  0.13621418457E-01  0.68354387709E+01  0.12479755213E+02  0.10566000000E+00 0.  1.
        994    1    1    2    0    0 -0.59831474177E+01 -0.14001619122E+01  0.58969625296E+01  0.17141170518E+03  0.17120000000E+03 0.  0.
        998    1    1    2    0    0 -0.44576244597E+01  0.13865404937E+01  0.14872675950E+04  0.14873085396E+04  0.10000000000E+02 0.  1.
</event>
<event>
 5    1  0.1520352E-008  0.3811097E+03  0.7957747E-01  0.3446341E+00
         13   -1    0    0    0    0  0.00000000000E+00  0.00000000000E+00  0.14999999963E+04  0.15000000000E+04  0.10566000000E+00 0.  1.
        994   -1    0    0    0    0 -0.00000000000E+00 -0.00000000000E+00  0.11368683772E-12  0.17120000000E+03  0.17120000000E+03 0.  0.
         13    1    1    2    0    0 -0.30796376272E+02  0.35723668128E+01  0.16260097695E+03  0.16553026148E+03  0.10566000000E+00 0.  1.
        994    1    1    2    0    0 -0.81316303696E+01  0.67632120507E+01  0.39466920569E+01  0.17157179497E+03  0.17120000000E+03 0.  0.
        998    1    1    2    0    0  0.38928006641E+02 -0.10335578863E+02  0.13334523273E+04  0.13340979436E+04  0.10000000000E+02 0.  1.
</event>
<event>
 5    1  0.1520352E-008  0.3754112E+03  0.7957747E-01  0.3471386E+00
         13   -1    0    0    0    0  0.00000000000E+00  0.00000000000E+00  0.14999999963E+04  0.15000000000E+04  0.10566000000E+00 0. -1.
        994   -1    0    0    0    0 -0.00000000000E+00 -0.00000000000E+00  0.11368683772E-12  0.17120000000E+03  0.17120000000E+03 0.  0.
         13    1    1    2    0    0 -0.10872559982E+02 -0.28968371917E+02  0.75293347567E+02  0.81403184728E+02  0.10566000000E+00 0. -1.
        994    1    1    2    0    0 -0.40779471740E+01  0.82602338208E+01  0.67558178065E+01  0.17158071625E+03  0.17120000000E+03 0.  0.
        998    1    1    2    0    0  0.14950507156E+02  0.20708138096E+02  0.14179508309E+04  0.14182160990E+04  0.10000000000E+02 0. -1.
</event>
<event>
 5    1  0.1520352E-008  0.3796826E+03  0.7957747E-01  0.3452542E+00
         13   -1    0    0    0    0  0.00000000000E+00  0.00000000000E+00  0.14999999963E+04  0.15000000000E+04  0.10566000000E+00 0.  1.
        994   -1    0    0    0    0 -0.00000000000E+00 -0.00000000000E+00  0.11368683772E-12  0.17120000000E+03  0.17120000000E+03 0.  0.
         13    1    1    2    0    0 -0.53261785282E+01  0.37467626080E+02  0.14890359563E+03  0.15363750563E+03  0.10566000000E+00 0.  1.
        994    1    1    2    0    0  0.89864592013E+01 -0.38472098655E+02  0.95345107138E+01  0.17595796577E+03  0.17120000000E+03 0.  0.
        998    1    1    2    0    0 -0.36602806731E+01  0.10044725743E+01  0.13415618899E+04  0.13416045286E+04  0.10000000000E+02 0.  1.
</event>
<event>
 5    1  0.1520352E-008  0.3758625E+03  0.7957747E-01  0.3469374E+00
         13   -1    0    0    0    0  0.00000000000E+00  0.00000000000E+00  0.14999999963E+04  0.15000000000E+04  0.10566000000E+00 0. -1.
        994   -1    0    0    0    0 -0.00000000000E+00 -0.00000000000E+00  0.11368683772E-12  0.17120000000E+03  0.17120000000E+03 0.  0.
         13    1    1    2    0    0  0.56391565779E+01 -0.32242323676E+02  0.83925057368E+02  0.90082151069E+02  0.10566000000E+00 0. -1.
        994    1    1    2    0    0  0.66302607172E+01  0.20974420104E+02  0.78782554638E+01  0.17278713368E+03  0.17120000000E+03 0.  0.
        998    1    1    2    0    0 -0.12269417295E+02  0.11267903572E+02  0.14081966834E+04  0.14083307153E+04  0.10000000000E+02 0. -1.
</event>
<event>
 5    1  0.1520352E-008  0.3833511E+03  0.7957747E-01  0.3436696E+00
         13   -1    0    0    0    0  0.00000000000E+00  0.00000000000E+00  0.14999999963E+04  0.15000000000E+04  0.10566000000E+00 0.  1.
        994   -1    0    0    0    0 -0.00000000000E+00 -0.00000000000E+00  0.11368683772E-12  0.17120000000E+03  0.17120000000E+03 0.  0.
         13    1    1    2    0    0  0.11824464460E+02  0.94243825019E+01  0.48265854796E+02  0.50579055433E+02  0.10566000000E+00 0.  1.
        994    1    1    2    0    0 -0.69775231034E+00  0.19303407916E+01  0.24649322797E+01  0.17123004691E+03  0.17120000000E+03 0.  0.
        998    1    1    2    0    0 -0.11126712150E+02 -0.11354723293E+02  0.14492692092E+04  0.14493908977E+04  0.10000000000E+02 0.  1.
</event>
<event>
 5    1  0.1520352E-008  0.3748496E+03  0.7957747E-01  0.3473896E+00
         13   -1    0    0    0    0  0.00000000000E+00  0.00000000000E+00  0.14999999963E+04  0.15000000000E+04  0.10566000000E+00 0. -1.
        994   -1    0    0    0    0 -0.00000000000E+00 -0.00000000000E+00  0.11368683772E-12  0.17120000000E+03  0.17120000000E+03 0.  0.
         13    1    1    2    0    0 -0.13384462943E+02  0.13719502148E+03  0.47138945843E+03  0.49113099113E+03  0.10566000000E+00 0. -1.
        994    1    1    2    0    0  0.69927497147E+01 -0.13355413218E+03  0.80196935210E+02  0.23157416347E+03  0.17120000000E+03 0.  0.
        998    1    1    2    0    0  0.63917132285E+01 -0.36408893040E+01  0.94841360264E+03  0.94849484540E+03  0.10000000000E+02 0.  0.
</event>
<event>
 5    1  0.1520352E-008  0.3786417E+03  0.7957747E-01  0.3457094E+00
         13   -1    0    0    0    0  0.00000000000E+00  0.00000000000E+00  0.14999999963E+04  0.15000000000E+04  0.10566000000E+00 0. -1.
        994   -1    0    0    0    0 -0.00000000000E+00 -0.00000000000E+00  0.11368683772E-12  0.17120000000E+03  0.17120000000E+03 0.  0.
         13    1    1    2    0    0  0.21956291661E+02 -0.18824934011E+00  0.50854598915E+02  0.55392378322E+02  0.10566000000E+00 0. -1.
        994    1    1    2    0    0  0.43089876187E+00 -0.31437506564E+02  0.81469090544E+01  0.17425359285E+03  0.17120000000E+03 0.  0.
        998    1    1    2    0    0 -0.22387190423E+02  0.31625755904E+02  0.14409984883E+04  0.14415540288E+04  0.10000000000E+02 0. -1.
</event>
<event>
 5    1  0.1520352E-008  0.3773467E+03  0.7957747E-01  0.3462793E+00
         13   -1    0    0    0    0  0.00000000000E+00  0.00000000000E+00  0.14999999963E+04  0.15000000000E+04  0.10566000000E+00 0. -1.
        994   -1    0    0    0    0 -0.00000000000E+00 -0.00000000000E+00  0.11368683772E-12  0.17120000000E+03  0.17120000000E+03 0.  0.
         13    1    1    2    0    0  0.15739630431E+03  0.20523353564E+02  0.87279796510E+03  0.88711391811E+03  0.10566000000E+00 0. -1.
        994    1    1    2    0    0 -0.15786957777E+03 -0.78673327152E+01  0.94989518010E+02  0.25162898688E+03  0.17120000000E+03 0.  0.
        998    1    1    2    0    0  0.47327345471E+00 -0.12656020849E+02  0.53221251317E+03  0.53245709501E+03  0.10000000000E+02 0. -1.
</event>
<event>
 5    1  0.1520352E-008  0.3763691E+03  0.7957747E-01  0.3467122E+00
         13   -1    0    0    0    0  0.00000000000E+00  0.00000000000E+00  0.14999999963E+04  0.15000000000E+04  0.10566000000E+00 0.  1.
        994   -1    0    0    0    0 -0.00000000000E+00 -0.00000000000E+00  0.11368683772E-12  0.17120000000E+03  0.17120000000E+03 0.  0.
         13    1    1    2    0    0 -0.48248282283E-02 -0.30302707274E+02  0.68773236609E+02  0.75153332123E+02  0.10566000000E+00 0.  1.
        994    1    1    2    0    0 -0.71568922010E+01  0.40901604243E+02  0.11833524065E+02  0.17656056929E+03  0.17120000000E+03 0.  0.
        998    1    1    2    0    0  0.71617170292E+01 -0.10598896969E+02  0.14193932356E+04  0.14194860986E+04  0.10000000000E+02 0.  1.
</event>
<event>
 5    1  0.1520352E-008  0.3839464E+03  0.7957747E-01  0.3434153E+00
         13   -1    0    0    0    0  0.00000000000E+00  0.00000000000E+00  0.14999999963E+04  0.15000000000E+04  0.10566000000E+00 0. -1.
        994   -1    0    0    0    0 -0.00000000000E+00 -0.00000000000E+00  0.11368683772E-12  0.17120000000E+03  0.17120000000E+03 0.  0.
         13    1    1    2    0    0 -0.15799694668E+02 -0.10519797104E+02  0.87135133561E+02  0.89178692228E+02  0.10566000000E+00 0. -1.
        994    1    1    2    0    0  0.14680814455E+02 -0.12364388790E+02  0.33707880515E+01  0.17230556182E+03  0.17120000000E+03 0.  0.
        998    1    1    2    0    0  0.11188802135E+01  0.22884185894E+02  0.14094940747E+04  0.14097157459E+04  0.10000000000E+02 0. -1.
</event>
<event>
 5    1  0.1520352E-008  0.3841820E+03  0.7957747E-01  0.3433149E+00
         13   -1    0    0    0    0  0.00000000000E+00  0.00000000000E+00  0.14999999963E+04  0.15000000000E+04  0.10566000000E+00 0.  1.
        994   -1    0    0    0    0 -0.00000000000E+00 -0.00000000000E+00  0.11368683772E-12  0.17120000000E+03  0.17120000000E+03 0.  0.
         13    1    1    2    0    0  0.14040911792E+02  0.21365837171E+01  0.49851542300E+02  0.51835312555E+02  0.10566000000E+00 0.  1.
        994    1    1    2    0    0 -0.69431928488E+01  0.24913240546E+01  0.22162685906E+01  0.17137317897E+03  0.17120000000E+03 0.  0.
        998    1    1    2    0    0 -0.70977189436E+01 -0.46279077717E+01  0.14479321854E+04  0.14479915085E+04  0.10000000000E+02 0.  1.
</event>
<event>
 5    1  0.1520352E-008  0.3700952E+03  0.7957747E-01  0.3495453E+00
         13   -1    0    0    0    0  0.00000000000E+00  0.00000000000E+00  0.14999999963E+04  0.15000000000E+04  0.10566000000E+00 0. -1.
        994   -1    0    0    0    0 -0.00000000000E+00 -0.00000000000E+00  0.11368683772E-12  0.17120000000E+03  0.17120000000E+03 0.  0.
         13    1    1    2    0    0 -0.35591048393E+02  0.11859093640E+02  0.73011521663E+02  0.82085652140E+02  0.10566000000E+00 0. -1.
        994    1    1    2    0    0  0.23005263452E+02 -0.66948606142E+01  0.11206089136E+02  0.17323128972E+03  0.17120000000E+03 0.  0.
        998    1    1    2    0    0  0.12585784941E+02 -0.51642330259E+01  0.14157823855E+04  0.14158830581E+04  0.10000000000E+02 0. -1.
</event>
<event>
 5    1  0.1520352E-008  0.3732709E+03  0.7957747E-01  0.3480992E+00
         13   -1    0    0    0    0  0.00000000000E+00  0.00000000000E+00  0.14999999963E+04  0.15000000000E+04  0.10566000000E+00 0. -1.
        994   -1    0    0    0    0 -0.00000000000E+00 -0.00000000000E+00  0.11368683772E-12  0.17120000000E+03  0.17120000000E+03 0.  0.
         13    1    1    2    0    0  0.48843002549E+00 -0.16679037469E+02  0.14778219695E+02  0.22289813731E+02  0.10566000000E+00 0. -1.
        994    1    1    2    0    0  0.57174993818E+01  0.20717906768E+02  0.91502876804E+01  0.17278625300E+03  0.17120000000E+03 0.  0.
        998    1    1    2    0    0 -0.62059294073E+01 -0.40388692985E+01  0.14760714889E+04  0.14761239333E+04  0.10000000000E+02 0. -1.
</event>
<event>
 5    1  0.1520352E-008  0.3851123E+03  0.7957747E-01  0.3429196E+00
         13   -1    0    0    0    0  0.00000000000E+00  0.00000000000E+00  0.14999999963E+04  0.15000000000E+04  0.10566000000E+00 0.  1.
        994   -1    0    0    0    0 -0.00000000000E+00 -0.00000000000E+00  0.11368683772E-12  0.17120000000E+03  0.17120000000E+03 0.  0.
         13    1    1    2    0    0 -0.85215090084E+01 -0.83269933492E+01  0.45498162811E+02  0.47032424105E+02  0.10566000000E+00 0.  1.
        994    1    1    2    0    0  0.64818378422E+01  0.22178391716E+01  0.17286869590E+01  0.17134573642E+03  0.17120000000E+03 0.  0.
        998    1    1    2    0    0  0.20396711662E+01  0.61091541776E+01  0.14527731465E+04  0.14528218395E+04  0.10000000000E+02 0.  1.
</event>
<event>
 5    1  0.1520352E-008  0.3753890E+03  0.7957747E-01  0.3471485E+00
         13   -1    0    0    0    0  0.00000000000E+00  0.00000000000E+00  0.14999999963E+04  0.15000000000E+04  0.10566000000E+00 0.  1.
        994   -1    0    0    0    0 -0.00000000000E+00 -0.00000000000E+00  0.11368683772E-12  0.17120000000E+03  0.17120000000E+03 0.  0.
         13    1    1    2    0    0 -0.58985162122E+02 -0.68303749983E+02  0.31865504822E+03  0.33118831883E+03  0.10566000000E+00 0.  1.
        994    1    1    2    0    0  0.40866643171E+02  0.14741375048E+02  0.20573023258E+02  0.17782035864E+03  0.17120000000E+03 0.  0.
        998    1    1    2    0    0  0.18118518951E+02  0.53562374935E+02  0.11607719248E+04  0.11621913225E+04  0.10000000000E+02 0.  1.
</event>
<event>
 5    1  0.1520352E-008  0.3852034E+03  0.7957747E-01  0.3428810E+00
         13   -1    0    0    0    0  0.00000000000E+00  0.00000000000E+00  0.14999999963E+04  0.15000000000E+04  0.10566000000E+00 0.  1.
        994   -1    0    0    0    0 -0.00000000000E+00 -0.00000000000E+00  0.11368683772E-12  0.17120000000E+03  0.17120000000E+03 0.  0.
         13    1    1    2    0    0 -0.60896511462E+01 -0.81589157775E+01  0.33834128319E+02  0.35332862336E+02  0.10566000000E+00 0.  1.
        994    1    1    2    0    0  0.11594001486E+01  0.74182874954E+01  0.17145032628E+01  0.17137314469E+03  0.17120000000E+03 0.  0.
        998    1    1    2    0    0  0.49302509976E+01  0.74062828208E+00  0.14644513647E+04  0.14644939930E+04  0.10000000000E+02 0.  1.
</event>
<event>
 5    1  0.1520352E-008  0.3768549E+03  0.7957747E-01  0.3464968E+00
         13   -1    0    0    0    0  0.00000000000E+00  0.00000000000E+00  0.14999999963E+04  0.15000000000E+04  0.10566000000E+00 0. -1.
        994   -1    0    0    0    0 -0.00000000000E+00 -0.00000000000E+00  0.11368683772E-12  0.17120000000E+03  0.17120000000E+03 0.  0.
         13    1    1    2    0    0 -0.26954893785E+02  0.18938039077E+02  0.10345496424E+03  0.10857327670E+03  0.10566000000E+00 0. -1.
        994    1    1    2    0    0 -0.20377995249E+01  0.36261857083E+01  0.57877078784E+01  0.17134829854E+03  0.17120000000E+03 0.  0.
        998    1    1    2    0    0  0.28992693310E+02 -0.22564224785E+02  0.13907573242E+04  0.13912784248E+04  0.10000000000E+02 0. -1.
</event>
<event>
 5    1  0.1520352E-008  0.2738683E+03  0.7957747E-01  0.4102260E+00
         13   -1    0    0    0    0  0.00000000000E+00  0.00000000000E+00  0.14999999963E+04  0.15000000000E+04  0.10566000000E+00 0.  1.
        994   -1    0    0    0    0 -0.00000000000E+00 -0.00000000000E+00  0.11368683772E-12  0.17120000000E+03  0.17120000000E+03 0.  0.
         13    1    1    2    0    0 -0.19416349969E+03  0.81905597265E+02  0.34374044309E+03  0.40319411560E+03  0.10566000000E+00 0.  1.
        994    1    1    2    0    0  0.18766134591E+03 -0.85273706053E+02  0.26567169916E+03  0.37733178693E+03  0.17120000000E+03 0.  0.
        998    1    1    2    0    0  0.65021537756E+01  0.33681087881E+01  0.89058785402E+03  0.89067409746E+03  0.10000000000E+02 0.  0.
</event>
<event>
 5    1  0.1520352E-008  0.3860555E+03  0.7957747E-01  0.3425208E+00
         13   -1    0    0    0    0  0.00000000000E+00  0.00000000000E+00  0.14999999963E+04  0.15000000000E+04  0.10566000000E+00 0.  1.
        994   -1    0    0    0    0 -0.00000000000E+00 -0.00000000000E+00  0.11368683772E-12  0.17120000000E+03  0.17120000000E+03 0.  0.
         13    1    1    2    0    0  0.91906841896E+01 -0.85561007765E+01  0.71271539384E+02  0.72369323795E+02  0.10566000000E+00 0.  1.
        994    1    1    2    0    0 -0.13485045448E+02  0.68139288322E-01  0.17032541179E+01  0.17173873229E+03  0.17120000000E+03 0.  0.
        998    1    1    2    0    0  0.42943612582E+01  0.84879614882E+01  0.14270252028E+04  0.14270919439E+04  0.10000000000E+02 0.  1.
</event>
<event>
 5    1  0.1520352E-008  0.3704495E+03  0.7957747E-01  0.3493828E+00
         13   -1    0    0    0    0  0.00000000000E+00  0.00000000000E+00  0.14999999963E+04  0.15000000000E+04  0.10566000000E+00 0. -1.
        994   -1    0    0    0    0 -0.00000000000E+00 -0.00000000000E+00  0.11368683772E-12  0.17120000000E+03  0.17120000000E+03 0.  0.
         13    1    1    2    0    0 -0.22798993290E+02 -0.48944529658E+01  0.25780283970E+02  0.34761817710E+02  0.10566000000E+00 0. -1.
        994    1    1    2    0    0  0.23868343427E+02  0.76778369571E+01  0.11207606016E+02  0.17338886190E+03  0.17120000000E+03 0.  0.
        998    1    1    2    0    0 -0.10693501373E+01 -0.27833839913E+01  0.14630121063E+04  0.14630493204E+04  0.10000000000E+02 0. -1.
</event>
<event>
 5    1  0.1520352E-008  0.3769783E+03  0.7957747E-01  0.3464422E+00
         13   -1    0    0    0    0  0.00000000000E+00  0.00000000000E+00  0.14999999963E+04  0.15000000000E+04  0.10566000000E+00 0. -1.
        994   -1    0    0    0    0 -0.00000000000E+00 -0.00000000000E+00  0.11368683772E-12  0.17120000000E+03  0.17120000000E+03 0.  0.
         13    1    1    2    0    0 -0.17424821194E+02 -0.13871660734E+01  0.24280552088E+02  0.29918305385E+02  0.10566000000E+00 0. -1.
        994    1    1    2    0    0  0.16309323381E+02  0.82669692680E+01  0.67960799411E+01  0.17230775813E+03  0.17120000000E+03 0.  0.
        998    1    1    2    0    0  0.11154978130E+01 -0.68798031946E+01  0.14689233642E+04  0.14689739365E+04  0.10000000000E+02 0. -1.
</event>
<event>
 5    1  0.1520352E-008  0.3846494E+03  0.7957747E-01  0.3431160E+00
         13   -1    0    0    0    0  0.00000000000E+00  0.00000000000E+00  0.14999999963E+04  0.15000000000E+04  0.10566000000E+00 0. -1.
        994   -1    0    0    0    0 -0.00000000000E+00 -0.00000000000E+00  0.11368683772E-12  0.17120000000E+03  0.17120000000E+03 0.  0.
         13    1    1    2    0    0  0.76706919838E+01 -0.93529874481E+01  0.43068134843E+02  0.44734698977E+02  0.10566000000E+00 0. -1.
        994    1    1    2    0    0  0.69653671033E+01 -0.10184165680E+01  0.19674565644E+01  0.17135595816E+03  0.17120000000E+03 0.  0.
        998    1    1    2    0    0 -0.14636059087E+02  0.10371404016E+02  0.14549644049E+04  0.14551093429E+04  0.10000000000E+02 0. -1.
</event>
<event>
 5    1  0.1520352E-008  0.3857602E+03  0.7957747E-01  0.3426455E+00
         13   -1    0    0    0    0  0.00000000000E+00  0.00000000000E+00  0.14999999963E+04  0.15000000000E+04  0.10566000000E+00 0. -1.
        994   -1    0    0    0    0 -0.00000000000E+00 -0.00000000000E+00  0.11368683772E-12  0.17120000000E+03  0.17120000000E+03 0.  0.
         13    1    1    2    0    0 -0.10285087503E+02 -0.48354819952E+01  0.55748968282E+02  0.56895725144E+02  0.10566000000E+00 0. -1.
        994    1    1    2    0    0 -0.26276478833E+01 -0.10824766796E+01  0.12796793010E+01  0.17122836759E+03  0.17120000000E+03 0.  0.
        998    1    1    2    0    0  0.12912735387E+02  0.59179586748E+01  0.14429713487E+04  0.14430759073E+04  0.10000000000E+02 0. -1.
</event>
<event>
 5    1  0.1520352E-008  0.3835837E+03  0.7957747E-01  0.3435701E+00
         13   -1    0    0    0    0  0.00000000000E+00  0.00000000000E+00  0.14999999963E+04  0.15000000000E+04  0.10566000000E+00 0.  1.
        994   -1    0    0    0    0 -0.00000000000E+00 -0.00000000000E+00  0.11368683772E-12  0.17120000000E+03  0.17120000000E+03 0.  0.
         13    1    1    2    0    0 -0.11315496612E+02  0.35339401727E+01  0.27767178653E+02  0.30191995149E+02  0.10566000000E+00 0.  1.
        994    1    1    2    0    0  0.21685496917E+02 -0.89401811609E+01  0.41547748664E+01  0.17284932678E+03  0.17120000000E+03 0.  0.
        998    1    1    2    0    0 -0.10370000305E+02  0.54062409883E+01  0.14680780428E+04  0.14681586781E+04  0.10000000000E+02 0.  1.
</event>
<event>
 5    1  0.1520352E-008  0.3847139E+03  0.7957747E-01  0.3430886E+00
         13   -1    0    0    0    0  0.00000000000E+00  0.00000000000E+00  0.14999999963E+04  0.15000000000E+04  0.10566000000E+00 0.  1.
        994   -1    0    0    0    0 -0.00000000000E+00 -0.00000000000E+00  0.11368683772E-12  0.17120000000E+03  0.17120000000E+03 0.  0.
         13    1    1    2    0    0 -0.14381616184E+02 -0.75821816174E+01  0.82287766398E+02  0.83878531371E+02  0.10566000000E+00 0.  1.
        994    1    1    2    0    0 -0.27669947443E+01 -0.28599739445E+01  0.18243779106E+01  0.17125596067E+03  0.17120000000E+03 0.  0.
        998    1    1    2    0    0  0.17148610929E+02  0.10442155562E+02  0.14158878520E+04  0.14160655080E+04  0.10000000000E+02 0.  1.
</event>
<event>
 5    1  0.1520352E-008  0.3851332E+03  0.7957747E-01  0.3429107E+00
         13   -1    0    0    0    0  0.00000000000E+00  0.00000000000E+00  0.14999999963E+04  0.15000000000E+04  0.10566000000E+00 0.  1.
        994   -1    0    0    0    0 -0.00000000000E+00 -0.00000000000E+00  0.11368683772E-12  0.17120000000E+03  0.17120000000E+03 0.  0.
         13    1    1    2    0    0  0.27062152920E+01  0.10263356044E+02  0.36182529419E+02  0.37707382270E+02  0.10566000000E+00 0.  1.
        994    1    1    2    0    0 -0.33080662123E+01 -0.49537497066E+01  0.16806524590E+01  0.17131184294E+03  0.17120000000E+03 0.  0.
        998    1    1    2    0    0  0.60185092026E+00 -0.53096063371E+01  0.14621368144E+04  0.14621807748E+04  0.10000000000E+02 0.  1.
</event>
<event>
 5    1  0.1520352E-008  0.3808569E+03  0.7957747E-01  0.3447436E+00
         13   -1    0    0    0    0  0.00000000000E+00  0.00000000000E+00  0.14999999963E+04  0.15000000000E+04  0.10566000000E+00 0.  1.
        994   -1    0    0    0    0 -0.00000000000E+00 -0.00000000000E+00  0.11368683772E-12  0.17120000000E+03  0.17120000000E+03 0.  0.
         13    1    1    2    0    0  0.15747253651E+02 -0.69330855424E+00  0.32066870014E+02  0.35731666500E+02  0.10566000000E+00 0.  1.
        994    1    1    2    0    0 -0.11252687860E+02  0.32325382300E+01  0.41582895631E+01  0.17165023641E+03  0.17120000000E+03 0.  0.
        998    1    1    2    0    0 -0.44945657912E+01 -0.25392296758E+01  0.14637748367E+04  0.14638180971E+04  0.10000000000E+02 0.  1.
</event>
<event>
 5    1  0.1520352E-008  0.3770385E+03  0.7957747E-01  0.3464156E+00
         13   -1    0    0    0    0  0.00000000000E+00  0.00000000000E+00  0.14999999963E+04  0.15000000000E+04  0.10566000000E+00 0.  1.
        994   -1    0    0    0    0 -0.00000000000E+00 -0.00000000000E+00  0.11368683772E-12  0.17120000000E+03  0.17120000000E+03 0.  0.
         13    1    1    2    0    0  0.13658713857E+02  0.37519914888E+01  0.15329708130E+02  0.20872206873E+02  0.10566000000E+00 0.  1.
        994    1    1    2    0    0 -0.95836617369E+01 -0.46647475106E+01  0.60192589569E+01  0.17163705288E+03  0.17120000000E+03 0.  0.
        998    1    1    2    0    0 -0.40750521204E+01  0.91275602177E+00  0.14786510292E+04  0.14786907403E+04  0.10000000000E+02 0.  1.
</event>
<event>
 5    1  0.1520352E-008  0.3826107E+03  0.7957747E-01  0.3439869E+00
         13   -1    0    0    0    0  0.00000000000E+00  0.00000000000E+00  0.14999999963E+04  0.15000000000E+04  0.10566000000E+00 0. -1.
        994   -1    0    0    0    0 -0.00000000000E+00 -0.00000000000E+00  0.11368683772E-12  0.17120000000E+03  0.17120000000E+03 0.  0.
         13    1    1    2    0    0 -0.18982059304E+01 -0.13920397323E+02  0.34893015563E+02  0.37615347220E+02  0.10566000000E+00 0. -1.
        994    1    1    2    0    0 -0.14076301742E+02  0.47319555101E+01  0.35522994580E+01  0.17187958723E+03  0.17120000000E+03 0.  0.
        998    1    1    2    0    0  0.15974507672E+02  0.91884418128E+01  0.14615546813E+04  0.14617050656E+04  0.10000000000E+02 0. -1.
</event>
<event>
 5    1  0.1520352E-008  0.3799906E+03  0.7957747E-01  0.3451200E+00
         13   -1    0    0    0    0  0.00000000000E+00  0.00000000000E+00  0.14999999963E+04  0.15000000000E+04  0.10566000000E+00 0.  1.
        994   -1    0    0    0    0 -0.00000000000E+00 -0.00000000000E+00  0.11368683772E-12  0.17120000000E+03  0.17120000000E+03 0.  0.
         13    1    1    2    0    0 -0.20431760945E+01 -0.10169278132E+02  0.11347987859E+02  0.15374549709E+02  0.10566000000E+00 0.  1.
        994    1    1    2    0    0 -0.75685705507E+01  0.27193650633E+01  0.43541513200E+01  0.17144409246E+03  0.17120000000E+03 0.  0.
        998    1    1    2    0    0  0.96117466451E+01  0.74499130684E+01  0.14842978571E+04  0.14843813578E+04  0.10000000000E+02 0.  1.
</event>
<event>
 5    1  0.1520352E-008  0.3708816E+03  0.7957747E-01  0.3491849E+00
         13   -1    0    0    0    0  0.00000000000E+00  0.00000000000E+00  0.14999999963E+04  0.15000000000E+04  0.10566000000E+00 0. -1.
        994   -1    0    0    0    0 -0.00000000000E+00 -0.00000000000E+00  0.11368683772E-12  0.17120000000E+03  0.17120000000E+03 0.  0.
         13    1    1    2    0    0 -0.57469100821E+02  0.23226087979E+01  0.17254365671E+03  0.18187747715E+03  0.10566000000E+00 0. -1.
        994    1    1    2    0    0  0.47591732527E+02 -0.18959312979E+02  0.17910747241E+02  0.17959583353E+03  0.17120000000E+03 0.  0.
        998    1    1    2    0    0  0.98773682940E+01  0.16636704181E+02  0.13095455923E+04  0.13097266893E+04  0.10000000000E+02 0. -1.
</event>
<event>
 5    1  0.1520352E-008  0.3836471E+03  0.7957747E-01  0.3435430E+00
         13   -1    0    0    0    0  0.00000000000E+00  0.00000000000E+00  0.14999999963E+04  0.15000000000E+04  0.10566000000E+00 0. -1.
        994   -1    0    0    0    0 -0.00000000000E+00 -0.00000000000E+00  0.11368683772E-12  0.17120000000E+03  0.17120000000E+03 0.  0.
         13    1    1    2    0    0  0.11783337993E+02  0.13520964676E+02  0.71538452243E+02  0.73752456592E+02  0.10566000000E+00 0. -1.
        994    1    1    2    0    0 -0.34477574560E+01 -0.48483861609E+01  0.24202282432E+01  0.17132043481E+03  0.17120000000E+03 0.  0.
        998    1    1    2    0    0 -0.83355805368E+01 -0.86725785156E+01  0.14260413158E+04  0.14261271086E+04  0.10000000000E+02 0. -1.
</event>
<event>
 5    1  0.1520352E-008  0.3826349E+03  0.7957747E-01  0.3439765E+00
         13   -1    0    0    0    0  0.00000000000E+00  0.00000000000E+00  0.14999999963E+04  0.15000000000E+04  0.10566000000E+00 0.  1.
        994   -1    0    0    0    0 -0.00000000000E+00 -0.00000000000E+00  0.11368683772E-12  0.17120000000E+03  0.17120000000E+03 0.  0.
         13    1    1    2    0    0 -0.10681252079E+02 -0.22951131278E+02  0.13128589822E+03  0.13370430737E+03  0.10566000000E+00 0.  1.
        994    1    1    2    0    0 -0.15135827218E+02  0.16873172635E+01  0.35779865036E+01  0.17191329877E+03  0.17120000000E+03 0.  0.
        998    1    1    2    0    0  0.25817079297E+02  0.21263814014E+02  0.13651361116E+04  0.13655823939E+04  0.10000000000E+02 0.  1.
</event>
<event>
 5    1  0.1520352E-008  0.3812176E+03  0.7957747E-01  0.3445874E+00
         13   -1    0    0    0    0  0.00000000000E+00  0.00000000000E+00  0.14999999963E+04  0.15000000000E+04  0.10566000000E+00 0. -1.
        994   -1    0    0    0    0 -0.00000000000E+00 -0.00000000000E+00  0.11368683772E-12  0.17120000000E+03  0.17120000000E+03 0.  0.
         13    1    1    2    0    0 -0.13478932764E+02 -0.34039429324E+01 -0.21118028366E+01  0.14061981767E+02  0.10566000000E+00 0. -1.
        994    1    1    2    0    0  0.11405307518E+02  0.33479719353E+01  0.17512269792E+02  0.17250336098E+03  0.17120000000E+03 0.  0.
        998    1    1    2    0    0  0.20736252465E+01  0.55970997072E-01  0.14845995293E+04  0.14846346573E+04  0.10000000000E+02 0. -1.
</event>
<event>
 5    1  0.1520352E-008  0.3767911E+03  0.7957747E-01  0.3465251E+00
         13   -1    0    0    0    0  0.00000000000E+00  0.00000000000E+00  0.14999999963E+04  0.15000000000E+04  0.10566000000E+00 0. -1.
        994   -1    0    0    0    0 -0.00000000000E+00 -0.00000000000E+00  0.11368683772E-12  0.17120000000E+03  0.17120000000E+03 0.  0.
         13    1    1    2    0    0 -0.37264226711E+01 -0.36949934216E+02  0.12573413005E+03  0.13110402926E+03  0.10566000000E+00 0. -1.
        994    1    1    2    0    0  0.10446428671E+01  0.90449177133E+01  0.60419731259E+01  0.17154838167E+03  0.17120000000E+03 0.  0.
        998    1    1    2    0    0  0.26817798040E+01  0.27905016502E+02  0.13682238931E+04  0.13685475891E+04  0.10000000000E+02 0. -1.
</event>
<event>
 5    1  0.1520352E-008  0.3741927E+03  0.7957747E-01  0.3476841E+00
         13   -1    0    0    0    0  0.00000000000E+00  0.00000000000E+00  0.14999999963E+04  0.15000000000E+04  0.10566000000E+00 0. -1.
        994   -1    0    0    0    0 -0.00000000000E+00 -0.00000000000E+00  0.11368683772E-12  0.17120000000E+03  0.17120000000E+03 0.  0.
         13    1    1    2    0    0 -0.52596211123E+02  0.63277267684E+02  0.39101180126E+03  0.39957554219E+03  0.10566000000E+00 0. -1.
        994    1    1    2    0    0  0.45462616660E+02 -0.53282884000E+02  0.24004254380E+02  0.18652495669E+03  0.17120000000E+03 0.  0.
        998    1    1    2    0    0  0.71335944631E+01 -0.99943836832E+01  0.10849839406E+04  0.10850995011E+04  0.10000000000E+02 0. -1.
</event>
<event>
 5    1  0.1520352E-008  0.3819736E+03  0.7957747E-01  0.3442610E+00
         13   -1    0    0    0    0  0.00000000000E+00  0.00000000000E+00  0.14999999963E+04  0.15000000000E+04  0.10566000000E+00 0.  1.
        994   -1    0    0    0    0 -0.00000000000E+00 -0.00000000000E+00  0.11368683772E-12  0.17120000000E+03  0.17120000000E+03 0.  0.
         13    1    1    2    0    0 -0.20347819774E+02  0.80919442073E+00  0.65478774578E+02  0.68572367973E+02  0.10566000000E+00 0.  1.
        994    1    1    2    0    0  0.11389217527E+02 -0.23432817411E+01  0.35893534282E+01  0.17163195712E+03  0.17120000000E+03 0.  0.
        998    1    1    2    0    0  0.89586022466E+01  0.15340873203E+01  0.14309318683E+04  0.14309956749E+04  0.10000000000E+02 0.  1.
</event>
<event>
 5    1  0.1520352E-008  0.3849532E+03  0.7957747E-01  0.3429871E+00
         13   -1    0    0    0    0  0.00000000000E+00  0.00000000000E+00  0.14999999963E+04  0.15000000000E+04  0.10566000000E+00 0.  1.
        994   -1    0    0    0    0 -0.00000000000E+00 -0.00000000000E+00  0.11368683772E-12  0.17120000000E+03  0.17120000000E+03 0.  0.
         13    1    1    2    0    0 -0.11802227699E+02 -0.12613277750E+01  0.46745866493E+02  0.48229355425E+02  0.10566000000E+00 0.  1.
        994    1    1    2    0    0 -0.99267757353E+01  0.30127231004E+01  0.20074141367E+01  0.17152576217E+03  0.17120000000E+03 0.  0.
        998    1    1    2    0    0  0.21729003435E+02 -0.17513953254E+01  0.14512467156E+04  0.14514448824E+04  0.10000000000E+02 0.  1.
</event>
<event>
 5    1  0.1520352E-008  0.3760834E+03  0.7957747E-01  0.3468392E+00
         13   -1    0    0    0    0  0.00000000000E+00  0.00000000000E+00  0.14999999963E+04  0.15000000000E+04  0.10566000000E+00 0.  1.
        994   -1    0    0    0    0 -0.00000000000E+00 -0.00000000000E+00  0.11368683772E-12  0.17120000000E+03  0.17120000000E+03 0.  0.
         13    1    1    2    0    0  0.32840168180E+02 -0.87959327746E+01  0.91740211977E+02  0.97837225722E+02  0.10566000000E+00 0.  1.
        994    1    1    2    0    0 -0.22366085383E+02  0.18825203711E+01  0.78315266838E+01  0.17284258291E+03  0.17120000000E+03 0.  0.
        998    1    1    2    0    0 -0.10474082797E+02  0.69134124035E+01  0.14004282576E+04  0.14005201914E+04  0.10000000000E+02 0.  1.
</event>
<event>
 5    1  0.1520352E-008  0.3817827E+03  0.7957747E-01  0.3443433E+00
         13   -1    0    0    0    0  0.00000000000E+00  0.00000000000E+00  0.14999999963E+04  0.15000000000E+04  0.10566000000E+00 0.  1.
        994   -1    0    0    0    0 -0.00000000000E+00 -0.00000000000E+00  0.11368683772E-12  0.17120000000E+03  0.17120000000E+03 0.  0.
         13    1    1    2    0    0 -0.25385686023E+02  0.57835501330E+01  0.11489668408E+03  0.11780976905E+03  0.10566000000E+00 0.  1.
        994    1    1    2    0    0  0.20117689572E+01  0.10787594492E+02  0.36362259841E+01  0.17158986435E+03  0.17120000000E+03 0.  0.
        998    1    1    2    0    0  0.23373917066E+02 -0.16571144625E+02  0.13814670862E+04  0.13818003666E+04  0.10000000000E+02 0.  1.
</event>
<event>
 5    1  0.1520352E-008  0.3704261E+03  0.7957747E-01  0.3493935E+00
         13   -1    0    0    0    0  0.00000000000E+00  0.00000000000E+00  0.14999999963E+04  0.15000000000E+04  0.10566000000E+00 0. -1.
        994   -1    0    0    0    0 -0.00000000000E+00 -0.00000000000E+00  0.11368683772E-12  0.17120000000E+03  0.17120000000E+03 0.  0.
         13    1    1    2    0    0 -0.17174872680E+02 -0.31256873034E+02  0.68161640109E+02  0.76928464887E+02  0.10566000000E+00 0. -1.
        994    1    1    2    0    0  0.18120937451E+02  0.10087301031E+02  0.10532942979E+02  0.17277298662E+03  0.17120000000E+03 0.  0.
        998    1    1    2    0    0 -0.94606477138E+00  0.21169572003E+02  0.14213054132E+04  0.14214985485E+04  0.10000000000E+02 0. -1.
</event>
<event>
 5    1  0.1520352E-008  0.3839607E+03  0.7957747E-01  0.3434092E+00
         13   -1    0    0    0    0  0.00000000000E+00  0.00000000000E+00  0.14999999963E+04  0.15000000000E+04  0.10566000000E+00 0.  1.
        994   -1    0    0    0    0 -0.00000000000E+00 -0.00000000000E+00  0.11368683772E-12  0.17120000000E+03  0.17120000000E+03 0.  0.
         13    1    1    2    0    0  0.35164256854E+01  0.15462328068E+02  0.56814637072E+02  0.58986125390E+02  0.10566000000E+00 0.  1.
        994    1    1    2    0    0 -0.69178786390E+01 -0.13517699558E+02  0.29082513253E+01  0.17189672240E+03  0.17120000000E+03 0.  0.
        998    1    1    2    0    0  0.34014529536E+01 -0.19446285094E+01  0.14402771079E+04  0.14403171522E+04  0.10000000000E+02 0.  1.
</event>
<event>
 5    1  0.1520352E-008  0.3855921E+03  0.7957747E-01  0.3427165E+00
         13   -1    0    0    0    0  0.00000000000E+00  0.00000000000E+00  0.14999999963E+04  0.15000000000E+04  0.10566000000E+00 0.  1.
        994   -1    0    0    0    0 -0.00000000000E+00 -0.00000000000E+00  0.11368683772E-12  0.17120000000E+03  0.17120000000E+03 0.  0.
         13    1    1    2    0    0  0.73229955467E+01  0.90577627479E+01  0.54050459002E+02  0.55291343012E+02  0.10566000000E+00 0.  1.
        994    1    1    2    0    0 -0.32718667710E+01  0.40070247104E+01  0.14243145894E+01  0.17128406240E+03  0.17120000000E+03 0.  0.
        998    1    1    2    0    0 -0.40511287757E+01 -0.13064787458E+02  0.14445252227E+04  0.14446245946E+04  0.10000000000E+02 0.  1.
</event>
<event>
 5    1  0.1520352E-008  0.3840711E+03  0.7957747E-01  0.3433621E+00
         13   -1    0    0    0    0  0.00000000000E+00  0.00000000000E+00  0.14999999963E+04  0.15000000000E+04  0.10566000000E+00 0. -1.
        994   -1    0    0    0    0 -0.00000000000E+00 -0.00000000000E+00  0.11368683772E-12  0.17120000000E+03  0.17120000000E+03 0.  0.
         13    1    1    2    0    0  0.47332872547E+01 -0.19215990740E+02  0.93901535180E+02  0.95964408931E+02  0.10566000000E+00 0. -1.
        994    1    1    2    0    0 -0.17139645909E+02  0.78484636619E+01  0.32651087560E+01  0.17226568660E+03  0.17120000000E+03 0.  0.
        998    1    1    2    0    0  0.12406358654E+02  0.11367527078E+02  0.14028333523E+04  0.14029699045E+04  0.10000000000E+02 0. -1.
</event>
<event>
 5    1  0.1520352E-008  0.3785195E+03  0.7957747E-01  0.3457630E+00
         13   -1    0    0    0    0  0.00000000000E+00  0.00000000000E+00  0.14999999963E+04  0.15000000000E+04  0.10566000000E+00 0. -1.
        994   -1    0    0    0    0 -0.00000000000E+00 -0.00000000000E+00  0.11368683772E-12  0.17120000000E+03  0.17120000000E+03 0.  0.
         13    1    1    2    0    0 -0.43215144830E+01  0.23138283952E+02  0.54914884985E+02  0.59747062092E+02  0.10566000000E+00 0. -1.
        994    1    1    2    0    0  0.51540402560E+01 -0.14422139648E+02  0.56707454147E+01  0.17197720662E+03  0.17120000000E+03 0.  0.
        998    1    1    2    0    0 -0.83252577305E+00 -0.87161443036E+01  0.14394143659E+04  0.14394757313E+04  0.10000000000E+02 0. -1.
</event>
<event>
 5    1  0.1520352E-008  0.3840064E+03  0.7957747E-01  0.3433897E+00
         13   -1    0    0    0    0  0.00000000000E+00  0.00000000000E+00  0.14999999963E+04  0.15000000000E+04  0.10566000000E+00 0.  1.
        994   -1    0    0    0    0 -0.00000000000E+00 -0.00000000000E+00  0.11368683772E-12  0.17120000000E+03  0.17120000000E+03 0.  0.
         13    1    1    2    0    0  0.24673237703E+02 -0.15702387411E+01  0.13839920172E+03  0.14059012949E+03  0.10566000000E+00 0.  1.
        994    1    1    2    0    0 -0.20092001580E+02 -0.80548775629E+01  0.36716996833E+01  0.17260211748E+03  0.17120000000E+03 0.  0.
        998    1    1    2    0    0 -0.45812361229E+01  0.96251163040E+01  0.13579290949E+04  0.13580077530E+04  0.10000000000E+02 0.  1.
</event>
<event>
 5    1  0.1520352E-008  0.3690697E+03  0.7957747E-01  0.3500178E+00
         13   -1    0    0    0    0  0.00000000000E+00  0.00000000000E+00  0.14999999963E+04  0.15000000000E+04  0.10566000000E+00 0.  1.
        994   -1    0    0    0    0 -0.00000000000E+00 -0.00000000000E+00  0.11368683772E-12  0.17120000000E+03  0.17120000000E+03 0.  0.
         13    1    1    2    0    0 -0.89623161117E+00 -0.40391529247E+02  0.79131712478E+02  0.88848848894E+02  0.10566000000E+00 0.  1.
        994    1    1    2    0    0  0.27178819250E+01  0.29674689655E+02  0.12842545285E+02  0.17424794133E+03  0.17120000000E+03 0.  0.
        998    1    1    2    0    0 -0.18216503138E+01  0.10716839592E+02  0.14080257385E+04  0.14081032098E+04  0.10000000000E+02 0.  1.
</event>
<event>
 5    1  0.1520352E-008  0.3819206E+03  0.7957747E-01  0.3442838E+00
         13   -1    0    0    0    0  0.00000000000E+00  0.00000000000E+00  0.14999999963E+04  0.15000000000E+04  0.10566000000E+00 0.  1.
        994   -1    0    0    0    0 -0.00000000000E+00 -0.00000000000E+00  0.11368683772E-12  0.17120000000E+03  0.17120000000E+03 0.  0.
         13    1    1    2    0    0  0.74344132782E+01  0.19804291112E+02  0.82113207237E+02  0.84794282909E+02  0.10566000000E+00 0.  1.
        994    1    1    2    0    0  0.25874704608E+02  0.83270381861E+01  0.56249214756E+01  0.17343563545E+03  0.17120000000E+03 0.  0.
        998    1    1    2    0    0 -0.33309117886E+02 -0.28131329298E+02  0.14122618676E+04  0.14129700816E+04  0.10000000000E+02 0.  1.
</event>
<event>
 5    1  0.1520352E-008  0.3854793E+03  0.7957747E-01  0.3427642E+00
         13   -1    0    0    0    0  0.00000000000E+00  0.00000000000E+00  0.14999999963E+04  0.15000000000E+04  0.10566000000E+00 0.  1.
        994   -1    0    0    0    0 -0.00000000000E+00 -0.00000000000E+00  0.11368683772E-12  0.17120000000E+03  0.17120000000E+03 0.  0.
         13    1    1    2    0    0  0.42787542644E+01 -0.10787476881E+02  0.51072240846E+02  0.52374252687E+02  0.10566000000E+00 0.  1.
        994    1    1    2    0    0 -0.61174310340E+01 -0.28602513686E+01  0.15421389515E+01  0.17134007760E+03  0.17120000000E+03 0.  0.
        998    1    1    2    0    0  0.18386767696E+01  0.13647728250E+02  0.14473856165E+04  0.14474856697E+04  0.10000000000E+02 0.  1.
</event>
<event>
 5    1  0.1520352E-008  0.3846088E+03  0.7957747E-01  0.3431333E+00
         13   -1    0    0    0    0  0.00000000000E+00  0.00000000000E+00  0.14999999963E+04  0.15000000000E+04  0.10566000000E+00 0.  1.
        994   -1    0    0    0    0 -0.00000000000E+00 -0.00000000000E+00  0.11368683772E-12  0.17120000000E+03  0.17120000000E+03 0.  0.
         13    1    1    2    0    0  0.12792167769E+02 -0.10848683291E+02  0.82390806808E+02  0.84080852135E+02  0.10566000000E+00 0.  1.
        994    1    1    2    0    0 -0.25318856433E+01 -0.16657513223E+01  0.18547105308E+01  0.17123686847E+03  0.17120000000E+03 0.  0.
        998    1    1    2    0    0 -0.10260282126E+02  0.12514434613E+02  0.14157544789E+04  0.14158822794E+04  0.10000000000E+02 0.  1.
</event>
