<event>
 5    1  0.1503263E-008  0.3834915E+03  0.7957747E-01  0.3436095E+00
         13   -1    0    0    0    0  0.00000000000E+00  0.00000000000E+00  0.14999999963E+04  0.15000000000E+04  0.10566000000E+00 0. -1.
        994   -1    0    0    0    0 -0.00000000000E+00 -0.00000000000E+00  0.11368683772E-12  0.17120000000E+03  0.17120000000E+03 0.  0.
         13    1    1    2    0    0 -0.72680514146E+00  0.13450988209E+02  0.37081867645E+02  0.39452926401E+02  0.10566000000E+00 0. -1.
        994    1    1    2    0    0 -0.23157883497E+01 -0.11367598736E+02  0.28258361971E+01  0.17161588075E+03  0.17120000000E+03 0.  0.
        998    1    1    2    0    0  0.30425934911E+01 -0.20833894732E+01  0.14600922924E+04  0.14601311928E+04  0.10000000000E+02 0. -1.
</event>
<event>
 5    1  0.1503263E-008  0.3830132E+03  0.7957747E-01  0.3438143E+00
         13   -1    0    0    0    0  0.00000000000E+00  0.00000000000E+00  0.14999999963E+04  0.15000000000E+04  0.10566000000E+00 0. -1.
        994   -1    0    0    0    0 -0.00000000000E+00 -0.00000000000E+00  0.11368683772E-12  0.17120000000E+03  0.17120000000E+03 0.  0.
         13    1    1    2    0    0 -0.34027225701E+01 -0.13560526501E+02  0.35590072531E+02  0.38237819324E+02  0.10566000000E+00 0. -1.
        994    1    1    2    0    0  0.32280109927E+01  0.15333595498E+02  0.34329415838E+01  0.17194988890E+03  0.17120000000E+03 0.  0.
        998    1    1    2    0    0  0.17471157738E+00 -0.17730689964E+01  0.14609769822E+04  0.14610122918E+04  0.10000000000E+02 0. -1.
</event>
<event>
 5    1  0.1503263E-008  0.3795886E+03  0.7957747E-01  0.3452952E+00
         13   -1    0    0    0    0  0.00000000000E+00  0.00000000000E+00  0.14999999963E+04  0.15000000000E+04  0.10566000000E+00 0.  1.
        994   -1    0    0    0    0 -0.00000000000E+00 -0.00000000000E+00  0.11368683772E-12  0.17120000000E+03  0.17120000000E+03 0.  0.
         13    1    1    2    0    0  0.24938849199E+01  0.17294135828E+02  0.33191967739E+02  0.37510325011E+02  0.10566000000E+00 0.  1.
        994    1    1    2    0    0 -0.27919157179E+01 -0.14038324867E+02  0.50270390944E+01  0.17187082498E+03  0.17120000000E+03 0.  0.
        998    1    1    2    0    0  0.29803079801E+00 -0.32558109612E+01  0.14617809894E+04  0.14618188500E+04  0.10000000000E+02 0.  1.
</event>
<event>
 5    1  0.1503263E-008  0.3796381E+03  0.7957747E-01  0.3452736E+00
         13   -1    0    0    0    0  0.00000000000E+00  0.00000000000E+00  0.14999999963E+04  0.15000000000E+04  0.10566000000E+00 0. -1.
        994   -1    0    0    0    0 -0.00000000000E+00 -0.00000000000E+00  0.11368683772E-12  0.17120000000E+03  0.17120000000E+03 0.  0.
         13    1    1    2    0    0 -0.18521611197E+02 -0.47875720974E+01  0.39770747304E+02  0.44132691206E+02  0.10566000000E+00 0. -1.
        994    1    1    2    0    0  0.19048960340E+02  0.55406445096E+01  0.56342640627E+01  0.17243765993E+03  0.17120000000E+03 0.  0.
        998    1    1    2    0    0 -0.52734914352E+00 -0.75307241213E+00  0.14545949849E+04  0.14546296489E+04  0.10000000000E+02 0. -1.
</event>
<event>
 5    1  0.1503263E-008  0.3712909E+03  0.7957747E-01  0.3489979E+00
         13   -1    0    0    0    0  0.00000000000E+00  0.00000000000E+00  0.14999999963E+04  0.15000000000E+04  0.10566000000E+00 0. -1.
        994   -1    0    0    0    0 -0.00000000000E+00 -0.00000000000E+00  0.11368683772E-12  0.17120000000E+03  0.17120000000E+03 0.  0.
         13    1    1    2    0    0  0.10397689137E+03  0.75349717156E+02  0.57876471274E+03  0.59283840774E+03  0.10566000000E+00 0. -1.
        994    1    1    2    0    0 -0.10435826210E+03 -0.69697271191E+02  0.64926639334E+02  0.22197582070E+03  0.17120000000E+03 0.  0.
        998    1    1    2    0    0  0.38137073249E+00 -0.56524459643E+01  0.85630864421E+03  0.85638577156E+03  0.10000000000E+02 0. -1.
</event>
<event>
 5    1  0.1503263E-008  0.3751398E+03  0.7957747E-01  0.3472598E+00
         13   -1    0    0    0    0  0.00000000000E+00  0.00000000000E+00  0.14999999963E+04  0.15000000000E+04  0.10566000000E+00 0. -1.
        994   -1    0    0    0    0 -0.00000000000E+00 -0.00000000000E+00  0.11368683772E-12  0.17120000000E+03  0.17120000000E+03 0.  0.
         13    1    1    2    0    0 -0.50062578676E+02 -0.15880693377E+02  0.19653348325E+03  0.20343028144E+03  0.10566000000E+00 0. -1.
        994    1    1    2    0    0  0.40175385351E+02  0.22675523756E+01  0.12128227279E+02  0.17628311683E+03  0.17120000000E+03 0.  0.
        998    1    1    2    0    0  0.98871933254E+01  0.13613141001E+02  0.12913382858E+04  0.12914866017E+04  0.10000000000E+02 0. -1.
</event>
<event>
 5    1  0.1503263E-008  0.4098622E+03  0.7957747E-01  0.3330620E+00
         13   -1    0    0    0    0  0.00000000000E+00  0.00000000000E+00  0.14999999963E+04  0.15000000000E+04  0.10566000000E+00 0.  1.
        994   -1    0    0    0    0 -0.00000000000E+00 -0.00000000000E+00  0.11368683772E-12  0.17120000000E+03  0.17120000000E+03 0.  0.
         13    1    1    2    0    0 -0.16052453685E+02  0.68703715927E+01 -0.10340331735E+02  0.20293272273E+02  0.10566000000E+00 0.  1.
        994    1    1    2    0    0  0.17618318379E+02 -0.86831377383E+01  0.35388762737E+02  0.17591931830E+03  0.17120000000E+03 0.  0.
        998    1    1    2    0    0 -0.15658646942E+01  0.18127661456E+01  0.14749515653E+04  0.14749874094E+04  0.10000000000E+02 0.  1.
</event>
<event>
 5    1  0.1503263E-008  0.4057424E+03  0.7957747E-01  0.3346199E+00
         13   -1    0    0    0    0  0.00000000000E+00  0.00000000000E+00  0.14999999963E+04  0.15000000000E+04  0.10566000000E+00 0. -1.
        994   -1    0    0    0    0 -0.00000000000E+00 -0.00000000000E+00  0.11368683772E-12  0.17120000000E+03  0.17120000000E+03 0.  0.
         13    1    1    2    0    0 -0.43335267646E+02 -0.15865460329E+03  0.30765945293E+03  0.34886040003E+03  0.10566000000E+00 0. -1.
        994    1    1    2    0    0  0.44280934368E+02  0.16210068026E+03  0.15645612622E+03  0.28640075266E+03  0.17120000000E+03 0.  0.
        998    1    1    2    0    0 -0.94566672173E+00 -0.34460769752E+01  0.10358844171E+04  0.10359388473E+04  0.10000000000E+02 0.  0.
</event>
<event>
 5    1  0.1503263E-008  0.3833256E+03  0.7957747E-01  0.3436805E+00
         13   -1    0    0    0    0  0.00000000000E+00  0.00000000000E+00  0.14999999963E+04  0.15000000000E+04  0.10566000000E+00 0. -1.
        994   -1    0    0    0    0 -0.00000000000E+00 -0.00000000000E+00  0.11368683772E-12  0.17120000000E+03  0.17120000000E+03 0.  0.
         13    1    1    2    0    0  0.69591584789E+01  0.25294329164E+02  0.13834823109E+03  0.14081362571E+03  0.10566000000E+00 0. -1.
        994    1    1    2    0    0 -0.19985680554E+02 -0.11973120827E+02  0.42605703492E+01  0.17283048200E+03  0.17120000000E+03 0.  0.
        998    1    1    2    0    0  0.13026522075E+02 -0.13321208337E+02  0.13573911948E+04  0.13575558923E+04  0.10000000000E+02 0. -1.
</event>
<event>
 5    1  0.1503263E-008  0.3719217E+03  0.7957747E-01  0.3487105E+00
         13   -1    0    0    0    0  0.00000000000E+00  0.00000000000E+00  0.14999999963E+04  0.15000000000E+04  0.10566000000E+00 0. -1.
        994   -1    0    0    0    0 -0.00000000000E+00 -0.00000000000E+00  0.11368683772E-12  0.17120000000E+03  0.17120000000E+03 0.  0.
         13    1    1    2    0    0  0.24847849734E+01  0.16719277982E+02  0.64753438527E+01  0.18101095399E+02  0.10566000000E+00 0. -1.
        994    1    1    2    0    0 -0.37382456261E+01 -0.17767640481E+02  0.13119713807E+02  0.17265928999E+03  0.17120000000E+03 0.  0.
        998    1    1    2    0    0  0.12534606527E+01  0.10483624992E+01  0.14804049386E+04  0.14804396146E+04  0.10000000000E+02 0. -1.
</event>
<event>
 5    1  0.1503263E-008  0.3763118E+03  0.7957747E-01  0.3467377E+00
         13   -1    0    0    0    0  0.00000000000E+00  0.00000000000E+00  0.14999999963E+04  0.15000000000E+04  0.10566000000E+00 0. -1.
        994   -1    0    0    0    0 -0.00000000000E+00 -0.00000000000E+00  0.11368683772E-12  0.17120000000E+03  0.17120000000E+03 0.  0.
         13    1    1    2    0    0 -0.71394328499E+02  0.50454178836E+02  0.35010385559E+03  0.36085384184E+03  0.10566000000E+00 0. -1.
        994    1    1    2    0    0  0.10809152232E+02  0.51984472655E+01  0.14830476398E+02  0.17225923678E+03  0.17120000000E+03 0.  0.
        998    1    1    2    0    0  0.60585176267E+02 -0.55652626102E+02  0.11350656643E+04  0.11380869214E+04  0.10000000000E+02 0. -1.
</event>
<event>
 5    1  0.1503263E-008  0.3921678E+03  0.7957747E-01  0.3399830E+00
         13   -1    0    0    0    0  0.00000000000E+00  0.00000000000E+00  0.14999999963E+04  0.15000000000E+04  0.10566000000E+00 0. -1.
        994   -1    0    0    0    0 -0.00000000000E+00 -0.00000000000E+00  0.11368683772E-12  0.17120000000E+03  0.17120000000E+03 0.  0.
         13    1    1    2    0    0  0.43859484991E+02 -0.49907415824E+02  0.85332227681E+02  0.10814806897E+03  0.10566000000E+00 0. -1.
        994    1    1    2    0    0 -0.56333279408E+01  0.69308028262E+02  0.41765628617E+02  0.18944430553E+03  0.17120000000E+03 0.  0.
        998    1    1    2    0    0 -0.38226157050E+02 -0.19400612438E+02  0.13729021400E+04  0.13736076255E+04  0.10000000000E+02 0. -1.
</event>
<event>
 5    1  0.1503263E-008  0.3804278E+03  0.7957747E-01  0.3449298E+00
         13   -1    0    0    0    0  0.00000000000E+00  0.00000000000E+00  0.14999999963E+04  0.15000000000E+04  0.10566000000E+00 0.  1.
        994   -1    0    0    0    0 -0.00000000000E+00 -0.00000000000E+00  0.11368683772E-12  0.17120000000E+03  0.17120000000E+03 0.  0.
         13    1    1    2    0    0  0.25693284312E+02 -0.31494290728E+02  0.21551235481E+03  0.21931169929E+03  0.10566000000E+00 0.  1.
        994    1    1    2    0    0 -0.15656494933E+02  0.12879603244E+02  0.52905858828E+01  0.17247736174E+03  0.17120000000E+03 0.  0.
        998    1    1    2    0    0 -0.10036789380E+02  0.18614687484E+02  0.12791970556E+04  0.12794109390E+04  0.10000000000E+02 0.  1.
</event>
<event>
 5    1  0.1503263E-008  0.3850472E+03  0.7957747E-01  0.3429472E+00
         13   -1    0    0    0    0  0.00000000000E+00  0.00000000000E+00  0.14999999963E+04  0.15000000000E+04  0.10566000000E+00 0. -1.
        994   -1    0    0    0    0 -0.00000000000E+00 -0.00000000000E+00  0.11368683772E-12  0.17120000000E+03  0.17120000000E+03 0.  0.
         13    1    1    2    0    0  0.92017678990E+01 -0.75031803213E+01  0.46177104300E+02  0.47679202730E+02  0.10566000000E+00 0. -1.
        994    1    1    2    0    0  0.58661142243E+00 -0.20077886973E+01  0.16211082011E+01  0.17122045240E+03  0.17120000000E+03 0.  0.
        998    1    1    2    0    0 -0.97883793214E+01  0.95109690186E+01  0.14522017838E+04  0.14523003449E+04  0.10000000000E+02 0. -1.
</event>
<event>
 5    1  0.1503263E-008  0.3842532E+03  0.7957747E-01  0.3432846E+00
         13   -1    0    0    0    0  0.00000000000E+00  0.00000000000E+00  0.14999999963E+04  0.15000000000E+04  0.10566000000E+00 0.  1.
        994   -1    0    0    0    0 -0.00000000000E+00 -0.00000000000E+00  0.11368683772E-12  0.17120000000E+03  0.17120000000E+03 0.  0.
         13    1    1    2    0    0 -0.22937403124E+01 -0.11700051536E+02  0.36732954430E+02  0.38619600668E+02  0.10566000000E+00 0.  1.
        994    1    1    2    0    0 -0.23584887318E+01 -0.20506843631E+01  0.20335620058E+01  0.17124060018E+03  0.17120000000E+03 0.  0.
        998    1    1    2    0    0  0.46522290442E+01  0.13750735899E+02  0.14612334798E+04  0.14613397992E+04  0.10000000000E+02 0.  1.
</event>
<event>
 5    1  0.1503263E-008  0.3978721E+03  0.7957747E-01  0.3376850E+00
         13   -1    0    0    0    0  0.00000000000E+00  0.00000000000E+00  0.14999999963E+04  0.15000000000E+04  0.10566000000E+00 0. -1.
        994   -1    0    0    0    0 -0.00000000000E+00 -0.00000000000E+00  0.11368683772E-12  0.17120000000E+03  0.17120000000E+03 0.  0.
         13    1    1    2    0    0 -0.22867183126E+02  0.72849497317E+02  0.91654603827E+02  0.11929180563E+03  0.10566000000E+00 0. -1.
        994    1    1    2    0    0  0.96668549576E+01 -0.90610144746E+02  0.59526358961E+02  0.20287058394E+03  0.17120000000E+03 0.  0.
        998    1    1    2    0    0  0.13200328169E+02  0.17760647429E+02  0.13488190335E+04  0.13490376104E+04  0.10000000000E+02 0. -1.
</event>
<event>
 5    1  0.1503263E-008  0.3702365E+03  0.7957747E-01  0.3494805E+00
         13   -1    0    0    0    0  0.00000000000E+00  0.00000000000E+00  0.14999999963E+04  0.15000000000E+04  0.10566000000E+00 0.  1.
        994   -1    0    0    0    0 -0.00000000000E+00 -0.00000000000E+00  0.11368683772E-12  0.17120000000E+03  0.17120000000E+03 0.  0.
         13    1    1    2    0    0  0.40303154722E+02 -0.62180302290E+01  0.71213964684E+02  0.82063683262E+02  0.10566000000E+00 0.  1.
        994    1    1    2    0    0 -0.24089690912E+02  0.17006336240E+02  0.14112313677E+02  0.17429321868E+03  0.17120000000E+03 0.  0.
        998    1    1    2    0    0 -0.16213463810E+02 -0.10788306011E+02  0.14146737179E+04  0.14148430981E+04  0.10000000000E+02 0.  1.
</event>
<event>
 5    1  0.1503263E-008  0.3846315E+03  0.7957747E-01  0.3431237E+00
         13   -1    0    0    0    0  0.00000000000E+00  0.00000000000E+00  0.14999999963E+04  0.15000000000E+04  0.10566000000E+00 0. -1.
        994   -1    0    0    0    0 -0.00000000000E+00 -0.00000000000E+00  0.11368683772E-12  0.17120000000E+03  0.17120000000E+03 0.  0.
         13    1    1    2    0    0 -0.54745740955E+01 -0.18176512036E+02  0.98947973813E+02  0.10075251479E+03  0.10566000000E+00 0. -1.
        994    1    1    2    0    0  0.41824154694E+01  0.11714029753E+02  0.23227725760E+01  0.17166696352E+03  0.17120000000E+03 0.  0.
        998    1    1    2    0    0  0.12921586261E+01  0.64624822822E+01  0.13987292499E+04  0.13987805217E+04  0.10000000000E+02 0. -1.
</event>
<event>
 5    1  0.1503263E-008  0.3849487E+03  0.7957747E-01  0.3429890E+00
         13   -1    0    0    0    0  0.00000000000E+00  0.00000000000E+00  0.14999999963E+04  0.15000000000E+04  0.10566000000E+00 0.  1.
        994   -1    0    0    0    0 -0.00000000000E+00 -0.00000000000E+00  0.11368683772E-12  0.17120000000E+03  0.17120000000E+03 0.  0.
         13    1    1    2    0    0  0.55149278680E+01  0.18731750149E+02  0.10479940731E+03  0.10660309484E+03  0.10566000000E+00 0.  1.
        994    1    1    2    0    0 -0.12906085071E+02 -0.21677479123E+02  0.37519285805E+01  0.17308956381E+03  0.17120000000E+03 0.  0.
        998    1    1    2    0    0  0.73911572035E+01  0.29457289733E+01  0.13914486604E+04  0.13915073413E+04  0.10000000000E+02 0.  1.
</event>
<event>
 5    1  0.1503263E-008  0.3849444E+03  0.7957747E-01  0.3429908E+00
         13   -1    0    0    0    0  0.00000000000E+00  0.00000000000E+00  0.14999999963E+04  0.15000000000E+04  0.10566000000E+00 0.  1.
        994   -1    0    0    0    0 -0.00000000000E+00 -0.00000000000E+00  0.11368683772E-12  0.17120000000E+03  0.17120000000E+03 0.  0.
         13    1    1    2    0    0 -0.56316274764E+01 -0.15725727038E+02  0.92219967366E+02  0.93720580791E+02  0.10566000000E+00 0.  1.
        994    1    1    2    0    0 -0.51114570638E+01  0.59361345672E+00  0.17448363971E+01  0.17128620442E+03  0.17120000000E+03 0.  0.
        998    1    1    2    0    0  0.10743084540E+02  0.15132113581E+02  0.14060351925E+04  0.14061932148E+04  0.10000000000E+02 0.  1.
</event>
<event>
 5    1  0.1503263E-008  0.3849965E+03  0.7957747E-01  0.3429687E+00
         13   -1    0    0    0    0  0.00000000000E+00  0.00000000000E+00  0.14999999963E+04  0.15000000000E+04  0.10566000000E+00 0. -1.
        994   -1    0    0    0    0 -0.00000000000E+00 -0.00000000000E+00  0.11368683772E-12  0.17120000000E+03  0.17120000000E+03 0.  0.
         13    1    1    2    0    0 -0.10476630800E+02 -0.92786899754E+01  0.59389590216E+02  0.61016296762E+02  0.10566000000E+00 0. -1.
        994    1    1    2    0    0  0.37446457049E+01  0.12389880420E+02  0.21830468810E+01  0.17170246708E+03  0.17120000000E+03 0.  0.
        998    1    1    2    0    0  0.67319850948E+01 -0.31111904450E+01  0.14384273592E+04  0.14384812362E+04  0.10000000000E+02 0. -1.
</event>
<event>
 5    1  0.1503263E-008  0.3767233E+03  0.7957747E-01  0.3465551E+00
         13   -1    0    0    0    0  0.00000000000E+00  0.00000000000E+00  0.14999999963E+04  0.15000000000E+04  0.10566000000E+00 0. -1.
        994   -1    0    0    0    0 -0.00000000000E+00 -0.00000000000E+00  0.11368683772E-12  0.17120000000E+03  0.17120000000E+03 0.  0.
         13    1    1    2    0    0  0.57973743915E+02  0.62079820902E+02  0.24313380576E+03  0.25754401141E+03  0.10566000000E+00 0. -1.
        994    1    1    2    0    0 -0.18447133777E+02 -0.53682240238E+02  0.26167265637E+02  0.18225324538E+03  0.17120000000E+03 0.  0.
        998    1    1    2    0    0 -0.39526610138E+02 -0.83975806640E+01  0.12306989249E+04  0.12314027432E+04  0.10000000000E+02 0. -1.
</event>
<event>
 5    1  0.1503263E-008  0.3847679E+03  0.7957747E-01  0.3430657E+00
         13   -1    0    0    0    0  0.00000000000E+00  0.00000000000E+00  0.14999999963E+04  0.15000000000E+04  0.10566000000E+00 0.  1.
        994   -1    0    0    0    0 -0.00000000000E+00 -0.00000000000E+00  0.11368683772E-12  0.17120000000E+03  0.17120000000E+03 0.  0.
         13    1    1    2    0    0  0.31076702359E+01 -0.22593684901E+02  0.11555098619E+03  0.11778019267E+03  0.10566000000E+00 0.  1.
        994    1    1    2    0    0 -0.81324295976E+01  0.45876987416E+02  0.89228015474E+01  0.17765103651E+03  0.17120000000E+03 0.  0.
        998    1    1    2    0    0  0.50247593618E+01 -0.23283302516E+02  0.13755262085E+04  0.13757687708E+04  0.10000000000E+02 0.  1.
</event>
<event>
 5    1  0.1503263E-008  0.3858075E+03  0.7957747E-01  0.3426255E+00
         13   -1    0    0    0    0  0.00000000000E+00  0.00000000000E+00  0.14999999963E+04  0.15000000000E+04  0.10566000000E+00 0. -1.
        994   -1    0    0    0    0 -0.00000000000E+00 -0.00000000000E+00  0.11368683772E-12  0.17120000000E+03  0.17120000000E+03 0.  0.
         13    1    1    2    0    0 -0.10683334786E+02 -0.60536539318E+01  0.62463136401E+02  0.63658738137E+02  0.10566000000E+00 0. -1.
        994    1    1    2    0    0 -0.15713058417E+01  0.17297042880E+02  0.22198481355E+01  0.17209306906E+03  0.17120000000E+03 0.  0.
        998    1    1    2    0    0  0.12254640627E+02 -0.11243388948E+02  0.14353170117E+04  0.14354481928E+04  0.10000000000E+02 0.  1.
</event>
<event>
 5    1  0.2223352E-008  0.3861694E+03  0.7957747E-01  0.3424728E+00
         13   -1    0    0    0    0  0.00000000000E+00  0.00000000000E+00  0.14999999963E+04  0.15000000000E+04  0.10566000000E+00 0.  1.
        994   -1    0    0    0    0 -0.00000000000E+00 -0.00000000000E+00  0.11368683772E-12  0.17120000000E+03  0.17120000000E+03 0.  0.
         13    1    1    2    0    0  0.49560925913E+01 -0.10857405404E+02  0.70752039331E+02  0.71751713146E+02  0.10566000000E+00 0.  1.
        994    1    1    2    0    0  0.24238402131E+01  0.60676082382E+01  0.11905555620E+01  0.17132877252E+03  0.17120000000E+03 0.  0.
        998    1    1    2    0    0 -0.73799328045E+01  0.47897971653E+01  0.14280574014E+04  0.14281195143E+04  0.10000000000E+02 0.  1.
</event>
<event>
 5    1  0.1503263E-008  0.3702507E+03  0.7957747E-01  0.3494740E+00
         13   -1    0    0    0    0  0.00000000000E+00  0.00000000000E+00  0.14999999963E+04  0.15000000000E+04  0.10566000000E+00 0. -1.
        994   -1    0    0    0    0 -0.00000000000E+00 -0.00000000000E+00  0.11368683772E-12  0.17120000000E+03  0.17120000000E+03 0.  0.
         13    1    1    2    0    0 -0.11768415214E+03 -0.56437863009E+02  0.56206515738E+03  0.57701996876E+03  0.10566000000E+00 0. -1.
        994    1    1    2    0    0  0.10025582122E+03  0.46777888684E+02  0.55218526026E+02  0.21118221084E+03  0.17120000000E+03 0.  0.
        998    1    1    2    0    0  0.17428330920E+02  0.96599743244E+01  0.88271631287E+03  0.88299782040E+03  0.10000000000E+02 0. -1.
</event>
<event>
 5    1  0.1503263E-008  0.3779014E+03  0.7957747E-01  0.3460347E+00
         13   -1    0    0    0    0  0.00000000000E+00  0.00000000000E+00  0.14999999963E+04  0.15000000000E+04  0.10566000000E+00 0.  1.
        994   -1    0    0    0    0 -0.00000000000E+00 -0.00000000000E+00  0.11368683772E-12  0.17120000000E+03  0.17120000000E+03 0.  0.
         13    1    1    2    0    0  0.34424098223E+02 -0.21641562973E+03  0.10103017786E+04  0.10337941954E+04  0.10566000000E+00 0.  1.
        994    1    1    2    0    0 -0.43767555686E+02  0.21406216017E+03  0.18768179133E+03  0.33507029433E+03  0.17120000000E+03 0.  0.
        998    1    1    2    0    0  0.93434574621E+01  0.23534695578E+01  0.30201642631E+03  0.30233551028E+03  0.10000000000E+02 0.  0.
</event>
<event>
 5    1  0.1503263E-008  0.3934890E+03  0.7957747E-01  0.3394448E+00
         13   -1    0    0    0    0  0.00000000000E+00  0.00000000000E+00  0.14999999963E+04  0.15000000000E+04  0.10566000000E+00 0. -1.
        994   -1    0    0    0    0 -0.00000000000E+00 -0.00000000000E+00  0.11368683772E-12  0.17120000000E+03  0.17120000000E+03 0.  0.
         13    1    1    2    0    0 -0.10199842859E+03  0.10805587314E+03  0.50310206763E+03  0.52458693538E+03  0.10566000000E+00 0. -1.
        994    1    1    2    0    0  0.11529644706E+02 -0.95391139799E+02  0.60093564732E+02  0.20531214962E+03  0.17120000000E+03 0.  0.
        998    1    1    2    0    0  0.90468783883E+02 -0.12664733337E+02  0.93680436392E+03  0.94130091500E+03  0.10000000000E+02 0. -1.
</event>
<event>
 5    1  0.1503263E-008  0.3845481E+03  0.7957747E-01  0.3431591E+00
         13   -1    0    0    0    0  0.00000000000E+00  0.00000000000E+00  0.14999999963E+04  0.15000000000E+04  0.10566000000E+00 0. -1.
        994   -1    0    0    0    0 -0.00000000000E+00 -0.00000000000E+00  0.11368683772E-12  0.17120000000E+03  0.17120000000E+03 0.  0.
         13    1    1    2    0    0  0.59476736271E+00 -0.11779056593E+02  0.38058812924E+02  0.39844501849E+02  0.10566000000E+00 0. -1.
        994    1    1    2    0    0  0.39881830484E+01  0.30625808751E+01  0.19379363781E+01  0.17128479385E+03  0.17120000000E+03 0.  0.
        998    1    1    2    0    0 -0.45829504112E+01  0.87164757182E+01  0.14600032470E+04  0.14600707043E+04  0.10000000000E+02 0. -1.
</event>
<event>
 5    1  0.1503263E-008  0.3819094E+03  0.7957747E-01  0.3442886E+00
         13   -1    0    0    0    0  0.00000000000E+00  0.00000000000E+00  0.14999999963E+04  0.15000000000E+04  0.10566000000E+00 0. -1.
        994   -1    0    0    0    0 -0.00000000000E+00 -0.00000000000E+00  0.11368683772E-12  0.17120000000E+03  0.17120000000E+03 0.  0.
         13    1    1    2    0    0 -0.26259915707E+02 -0.11793739722E+02  0.13398751977E+03  0.13704503671E+03  0.10566000000E+00 0. -1.
        994    1    1    2    0    0  0.15536344477E+02 -0.42967063102E+01  0.40360381036E+01  0.17200456182E+03  0.17120000000E+03 0.  0.
        998    1    1    2    0    0  0.10723571230E+02  0.16090446032E+02  0.13619764384E+04  0.13621504015E+04  0.10000000000E+02 0. -1.
</event>
<event>
 5    1  0.1503263E-008  0.3724037E+03  0.7957747E-01  0.3484916E+00
         13   -1    0    0    0    0  0.00000000000E+00  0.00000000000E+00  0.14999999963E+04  0.15000000000E+04  0.10566000000E+00 0. -1.
        994   -1    0    0    0    0 -0.00000000000E+00 -0.00000000000E+00  0.11368683772E-12  0.17120000000E+03  0.17120000000E+03 0.  0.
         13    1    1    2    0    0 -0.62984165935E+02 -0.17269472858E+02  0.24074466916E+03  0.24944587939E+03  0.10566000000E+00 0. -1.
        994    1    1    2    0    0  0.62315355535E+02 -0.22913269074E+02  0.23289591944E+02  0.18509475014E+03  0.17120000000E+03 0.  0.
        998    1    1    2    0    0  0.66881040008E+00  0.40182741933E+02  0.12359657352E+04  0.12366593705E+04  0.10000000000E+02 0. -1.
</event>
<event>
 5    1  0.1503263E-008  0.3813291E+03  0.7957747E-01  0.3445391E+00
         13   -1    0    0    0    0  0.00000000000E+00  0.00000000000E+00  0.14999999963E+04  0.15000000000E+04  0.10566000000E+00 0. -1.
        994   -1    0    0    0    0 -0.00000000000E+00 -0.00000000000E+00  0.11368683772E-12  0.17120000000E+03  0.17120000000E+03 0.  0.
         13    1    1    2    0    0 -0.11894013927E+02 -0.59872826677E+01  0.24761123611E+02  0.28114756403E+02  0.10566000000E+00 0. -1.
        994    1    1    2    0    0  0.53593546069E+01 -0.59525648636E+01  0.36772638579E+01  0.17142671315E+03  0.17120000000E+03 0.  0.
        998    1    1    2    0    0  0.65346593203E+01  0.11939847531E+02  0.14715616088E+04  0.14716585305E+04  0.10000000000E+02 0. -1.
</event>
<event>
 5    1  0.1503263E-008  0.3693547E+03  0.7957747E-01  0.3498862E+00
         13   -1    0    0    0    0  0.00000000000E+00  0.00000000000E+00  0.14999999963E+04  0.15000000000E+04  0.10566000000E+00 0.  1.
        994   -1    0    0    0    0 -0.00000000000E+00 -0.00000000000E+00  0.11368683772E-12  0.17120000000E+03  0.17120000000E+03 0.  0.
         13    1    1    2    0    0  0.43196769907E+02 -0.80335563797E+02  0.49633120787E+03  0.50464288642E+03  0.10566000000E+00 0.  1.
        994    1    1    2    0    0  0.12848244325E+01  0.30633529818E+02  0.13884077246E+02  0.17447713754E+03  0.17120000000E+03 0.  0.
        998    1    1    2    0    0 -0.44481594339E+02  0.49702033979E+02  0.98978471116E+03  0.99207997604E+03  0.10000000000E+02 0.  1.
</event>
<event>
 5    1  0.1503263E-008  0.3707355E+03  0.7957747E-01  0.3492517E+00
         13   -1    0    0    0    0  0.00000000000E+00  0.00000000000E+00  0.14999999963E+04  0.15000000000E+04  0.10566000000E+00 0. -1.
        994   -1    0    0    0    0 -0.00000000000E+00 -0.00000000000E+00  0.11368683772E-12  0.17120000000E+03  0.17120000000E+03 0.  0.
         13    1    1    2    0    0 -0.26515496363E+02 -0.35086514473E+02  0.11130173550E+03  0.11967548844E+03  0.10566000000E+00 0. -1.
        994    1    1    2    0    0 -0.13255630415E+02  0.28328968129E+02  0.12266418863E+02  0.17446531806E+03  0.17120000000E+03 0.  0.
        998    1    1    2    0    0  0.39771126778E+02  0.67575463443E+01  0.13764318419E+04  0.13770591935E+04  0.10000000000E+02 0. -1.
</event>
<event>
 5    1  0.1503263E-008  0.3808399E+03  0.7957747E-01  0.3447509E+00
         13   -1    0    0    0    0  0.00000000000E+00  0.00000000000E+00  0.14999999963E+04  0.15000000000E+04  0.10566000000E+00 0. -1.
        994   -1    0    0    0    0 -0.00000000000E+00 -0.00000000000E+00  0.11368683772E-12  0.17120000000E+03  0.17120000000E+03 0.  0.
         13    1    1    2    0    0  0.83063239257E+01  0.37163695296E+02  0.17432452002E+03  0.17843537964E+03  0.10566000000E+00 0. -1.
        994    1    1    2    0    0 -0.41566969417E+02 -0.30670490997E+02  0.12657309300E+02  0.17927113388E+03  0.17120000000E+03 0.  0.
        998    1    1    2    0    0  0.33260645491E+02 -0.64932042988E+01  0.13130181670E+04  0.13134934865E+04  0.10000000000E+02 0. -1.
</event>
<event>
 5    1  0.1503263E-008  0.3687794E+03  0.7957747E-01  0.3501519E+00
         13   -1    0    0    0    0  0.00000000000E+00  0.00000000000E+00  0.14999999963E+04  0.15000000000E+04  0.10566000000E+00 0.  1.
        994   -1    0    0    0    0 -0.00000000000E+00 -0.00000000000E+00  0.11368683772E-12  0.17120000000E+03  0.17120000000E+03 0.  0.
         13    1    1    2    0    0 -0.16566746377E+03  0.43978884894E+02  0.81642328049E+03  0.83422229349E+03  0.10566000000E+00 0.  1.
        994    1    1    2    0    0  0.15191199742E+03 -0.14199059323E+02  0.96332984338E+02  0.24873349617E+03  0.17120000000E+03 0.  0.
        998    1    1    2    0    0  0.13755466341E+02 -0.29779825571E+02  0.58724373146E+03  0.58824421034E+03  0.10000000000E+02 0.  1.
</event>
<event>
 5    1  0.1503263E-008  0.3835500E+03  0.7957747E-01  0.3435845E+00
         13   -1    0    0    0    0  0.00000000000E+00  0.00000000000E+00  0.14999999963E+04  0.15000000000E+04  0.10566000000E+00 0. -1.
        994   -1    0    0    0    0 -0.00000000000E+00 -0.00000000000E+00  0.11368683772E-12  0.17120000000E+03  0.17120000000E+03 0.  0.
         13    1    1    2    0    0 -0.17188846039E+00  0.14811920831E+02  0.46904537833E+02  0.49188101993E+02  0.10566000000E+00 0. -1.
        994    1    1    2    0    0  0.89190242911E+01 -0.56513228499E+01  0.27201997085E+01  0.17154686220E+03  0.17120000000E+03 0.  0.
        998    1    1    2    0    0 -0.87471358308E+01 -0.91605979808E+01  0.14503752587E+04  0.14504650358E+04  0.10000000000E+02 0. -1.
</event>
<event>
 5    1  0.1503263E-008  0.3790417E+03  0.7957747E-01  0.3455342E+00
         13   -1    0    0    0    0  0.00000000000E+00  0.00000000000E+00  0.14999999963E+04  0.15000000000E+04  0.10566000000E+00 0. -1.
        994   -1    0    0    0    0 -0.00000000000E+00 -0.00000000000E+00  0.11368683772E-12  0.17120000000E+03  0.17120000000E+03 0.  0.
         13    1    1    2    0    0 -0.48989219537E+01  0.13140617740E+02  0.19195134469E+02  0.23772665442E+02  0.10566000000E+00 0. -1.
        994    1    1    2    0    0 -0.65059772733E+01 -0.16035919104E+02  0.56226062757E+01  0.17216425919E+03  0.17120000000E+03 0.  0.
        998    1    1    2    0    0  0.11404899227E+02  0.28953013642E+01  0.14751822555E+04  0.14752630754E+04  0.10000000000E+02 0. -1.
</event>
<event>
 5    1  0.1503263E-008  0.3844521E+03  0.7957747E-01  0.3431999E+00
         13   -1    0    0    0    0  0.00000000000E+00  0.00000000000E+00  0.14999999963E+04  0.15000000000E+04  0.10566000000E+00 0. -1.
        994   -1    0    0    0    0 -0.00000000000E+00 -0.00000000000E+00  0.11368683772E-12  0.17120000000E+03  0.17120000000E+03 0.  0.
         13    1    1    2    0    0  0.92292894563E+01 -0.10618252296E+02  0.52160210983E+02  0.54024307858E+02  0.10566000000E+00 0. -1.
        994    1    1    2    0    0 -0.12158611456E+02 -0.15204048650E+00  0.23896878578E+01  0.17164791160E+03  0.17120000000E+03 0.  0.
        998    1    1    2    0    0  0.29293220000E+01  0.10770292782E+02  0.14454500974E+04  0.14455277805E+04  0.10000000000E+02 0. -1.
</event>
<event>
 5    1  0.1503263E-008  0.3752805E+03  0.7957747E-01  0.3471969E+00
         13   -1    0    0    0    0  0.00000000000E+00  0.00000000000E+00  0.14999999963E+04  0.15000000000E+04  0.10566000000E+00 0. -1.
        994   -1    0    0    0    0 -0.00000000000E+00 -0.00000000000E+00  0.11368683772E-12  0.17120000000E+03  0.17120000000E+03 0.  0.
         13    1    1    2    0    0  0.20943114768E+02  0.19241618841E+01  0.31082503796E+02  0.37529317359E+02  0.10566000000E+00 0. -1.
        994    1    1    2    0    0 -0.15261421869E+02 -0.16465024137E+01  0.73353058806E+01  0.17204321748E+03  0.17120000000E+03 0.  0.
        998    1    1    2    0    0 -0.56816928995E+01 -0.27765947039E+00  0.14615821866E+04  0.14616274652E+04  0.10000000000E+02 0. -1.
</event>
<event>
 5    1  0.1503263E-008  0.3794887E+03  0.7957747E-01  0.3453388E+00
         13   -1    0    0    0    0  0.00000000000E+00  0.00000000000E+00  0.14999999963E+04  0.15000000000E+04  0.10566000000E+00 0.  1.
        994   -1    0    0    0    0 -0.00000000000E+00 -0.00000000000E+00  0.11368683772E-12  0.17120000000E+03  0.17120000000E+03 0.  0.
         13    1    1    2    0    0  0.13769191560E+02  0.18342427891E+02  0.57464448391E+02  0.61872524516E+02  0.10566000000E+00 0.  1.
        994    1    1    2    0    0 -0.10544023834E+02 -0.14986660324E+02  0.55166204966E+01  0.17226621702E+03  0.17120000000E+03 0.  0.
        998    1    1    2    0    0 -0.32251677260E+01 -0.33557675672E+01  0.14370189274E+04  0.14370612585E+04  0.10000000000E+02 0.  1.
</event>
<event>
 5    1  0.1503263E-008  0.3848093E+03  0.7957747E-01  0.3430481E+00
         13   -1    0    0    0    0  0.00000000000E+00  0.00000000000E+00  0.14999999963E+04  0.15000000000E+04  0.10566000000E+00 0. -1.
        994   -1    0    0    0    0 -0.00000000000E+00 -0.00000000000E+00  0.11368683772E-12  0.17120000000E+03  0.17120000000E+03 0.  0.
         13    1    1    2    0    0 -0.60821949375E+01  0.16447415695E+02  0.96503977182E+02  0.98084348162E+02  0.10566000000E+00 0. -1.
        994    1    1    2    0    0 -0.14404999300E+01 -0.13540056263E+01  0.17377072048E+01  0.17122023244E+03  0.17120000000E+03 0.  0.
        998    1    1    2    0    0  0.75226948675E+01 -0.15093410069E+02  0.14017583119E+04  0.14018954194E+04  0.10000000000E+02 0. -1.
</event>
<event>
 5    1  0.1503263E-008  0.3712697E+03  0.7957747E-01  0.3490076E+00
         13   -1    0    0    0    0  0.00000000000E+00  0.00000000000E+00  0.14999999963E+04  0.15000000000E+04  0.10566000000E+00 0.  1.
        994   -1    0    0    0    0 -0.00000000000E+00 -0.00000000000E+00  0.11368683772E-12  0.17120000000E+03  0.17120000000E+03 0.  0.
         13    1    1    2    0    0 -0.77099254431E+01  0.23346242435E+02  0.30883925522E+02  0.39475536802E+02  0.10566000000E+00 0.  1.
        994    1    1    2    0    0  0.61915737773E+01 -0.25158804944E+02  0.10921379504E+02  0.17349356640E+03  0.17120000000E+03 0.  0.
        998    1    1    2    0    0  0.15183516657E+01  0.18125625086E+01  0.14581946913E+04  0.14582308968E+04  0.10000000000E+02 0.  1.
</event>
<event>
 5    1  0.1503263E-008  0.3849965E+03  0.7957747E-01  0.3429687E+00
         13   -1    0    0    0    0  0.00000000000E+00  0.00000000000E+00  0.14999999963E+04  0.15000000000E+04  0.10566000000E+00 0. -1.
        994   -1    0    0    0    0 -0.00000000000E+00 -0.00000000000E+00  0.11368683772E-12  0.17120000000E+03  0.17120000000E+03 0.  0.
         13    1    1    2    0    0  0.12503862727E+02 -0.41358916521E+01  0.50368942388E+02  0.52062402021E+02  0.10566000000E+00 0. -1.
        994    1    1    2    0    0 -0.27562440256E+02 -0.22332863317E+02  0.57814842499E+01  0.17493230250E+03  0.17120000000E+03 0.  0.
        998    1    1    2    0    0  0.15058577529E+02  0.26468754969E+02  0.14438495696E+04  0.14442052955E+04  0.10000000000E+02 0. -1.
</event>
<event>
 5    1  0.1503263E-008  0.2863631E+03  0.7957747E-01  0.3998456E+00
         13   -1    0    0    0    0  0.00000000000E+00  0.00000000000E+00  0.14999999963E+04  0.15000000000E+04  0.10566000000E+00 0. -1.
        994   -1    0    0    0    0 -0.00000000000E+00 -0.00000000000E+00  0.11368683772E-12  0.17120000000E+03  0.17120000000E+03 0.  0.
         13    1    1    2    0    0 -0.85978835559E+02  0.12109241610E+03  0.68130507058E+03  0.69730362379E+03  0.10566000000E+00 0. -1.
        994    1    1    2    0    0  0.12874908747E+03 -0.25187162623E+02  0.83677756480E+02  0.23134849819E+03  0.17120000000E+03 0.  0.
        998    1    1    2    0    0 -0.42770251911E+02 -0.95905253473E+02  0.73501716922E+03  0.74254787801E+03  0.10000000000E+02 0. -1.
</event>
<event>
 5    1  0.1503263E-008  0.3858817E+03  0.7957747E-01  0.3425941E+00
         13   -1    0    0    0    0  0.00000000000E+00  0.00000000000E+00  0.14999999963E+04  0.15000000000E+04  0.10566000000E+00 0.  1.
        994   -1    0    0    0    0 -0.00000000000E+00 -0.00000000000E+00  0.11368683772E-12  0.17120000000E+03  0.17120000000E+03 0.  0.
         13    1    1    2    0    0  0.92880670303E+01  0.82352291060E+01  0.71513903819E+02  0.72583309314E+02  0.10566000000E+00 0.  1.
        994    1    1    2    0    0 -0.60687648449E+01  0.11680206862E+02  0.17613626175E+01  0.17171429625E+03  0.17120000000E+03 0.  0.
        998    1    1    2    0    0 -0.32193021854E+01 -0.19915435968E+02  0.14267247298E+04  0.14269023944E+04  0.10000000000E+02 0.  1.
</event>
<event>
 5    1  0.1503263E-008  0.3763408E+03  0.7957747E-01  0.3467248E+00
         13   -1    0    0    0    0  0.00000000000E+00  0.00000000000E+00  0.14999999963E+04  0.15000000000E+04  0.10566000000E+00 0.  1.
        994   -1    0    0    0    0 -0.00000000000E+00 -0.00000000000E+00  0.11368683772E-12  0.17120000000E+03  0.17120000000E+03 0.  0.
         13    1    1    2    0    0 -0.12047783136E+02  0.54868441269E+02  0.28910228235E+03  0.29450948329E+03  0.10566000000E+00 0.  1.
        994    1    1    2    0    0  0.86954230138E+01 -0.17821453409E+02  0.73235314326E+01  0.17250011216E+03  0.17120000000E+03 0.  0.
        998    1    1    2    0    0  0.33523601222E+01 -0.37046987860E+02  0.12035741825E+04  0.12041904045E+04  0.10000000000E+02 0.  1.
</event>
<event>
 5    1  0.1516670E-008  0.3861143E+03  0.7957747E-01  0.3424960E+00
         13   -1    0    0    0    0  0.00000000000E+00  0.00000000000E+00  0.14999999963E+04  0.15000000000E+04  0.10566000000E+00 0. -1.
        994   -1    0    0    0    0 -0.00000000000E+00 -0.00000000000E+00  0.11368683772E-12  0.17120000000E+03  0.17120000000E+03 0.  0.
         13    1    1    2    0    0 -0.30755581063E+01  0.12283794797E+02  0.73211850600E+02  0.74298969741E+02  0.10566000000E+00 0. -1.
        994    1    1    2    0    0  0.44247215608E+00 -0.12207184316E+02  0.15670116925E+01  0.17164238013E+03  0.17120000000E+03 0.  0.
        998    1    1    2    0    0  0.26330859502E+01 -0.76610480444E-01  0.14252211340E+04  0.14252586501E+04  0.10000000000E+02 0.  0.
</event>
<event>
 5    1  0.1503263E-008  0.3761842E+03  0.7957747E-01  0.3467943E+00
         13   -1    0    0    0    0  0.00000000000E+00  0.00000000000E+00  0.14999999963E+04  0.15000000000E+04  0.10566000000E+00 0.  1.
        994   -1    0    0    0    0 -0.00000000000E+00 -0.00000000000E+00  0.11368683772E-12  0.17120000000E+03  0.17120000000E+03 0.  0.
         13    1    1    2    0    0 -0.47372981671E+02 -0.67546279242E+02  0.36762915341E+03  0.37677301500E+03  0.10566000000E+00 0.  1.
        994    1    1    2    0    0  0.59142907848E+02  0.76753483837E+02  0.38552986639E+02  0.20046135191E+03  0.17120000000E+03 0.  0.
        998    1    1    2    0    0 -0.11769926177E+02 -0.92072045949E+01  0.10938178562E+04  0.10939656331E+04  0.10000000000E+02 0.  1.
</event>
<event>
 5    1  0.1503263E-008  0.3697488E+03  0.7957747E-01  0.3497046E+00
         13   -1    0    0    0    0  0.00000000000E+00  0.00000000000E+00  0.14999999963E+04  0.15000000000E+04  0.10566000000E+00 0. -1.
        994   -1    0    0    0    0 -0.00000000000E+00 -0.00000000000E+00  0.11368683772E-12  0.17120000000E+03  0.17120000000E+03 0.  0.
         13    1    1    2    0    0  0.44809444919E+02 -0.35582900074E+01  0.10461950083E+03  0.11386746199E+03  0.10566000000E+00 0. -1.
        994    1    1    2    0    0 -0.27362574243E+02 -0.37511141070E+01  0.12044649983E+02  0.17383122539E+03  0.17120000000E+03 0.  0.
        998    1    1    2    0    0 -0.17446870676E+02  0.73094041144E+01  0.13833358455E+04  0.13835013126E+04  0.10000000000E+02 0. -1.
</event>
<event>
 5    1  0.1503263E-008  0.3844440E+03  0.7957747E-01  0.3432034E+00
         13   -1    0    0    0    0  0.00000000000E+00  0.00000000000E+00  0.14999999963E+04  0.15000000000E+04  0.10566000000E+00 0. -1.
        994   -1    0    0    0    0 -0.00000000000E+00 -0.00000000000E+00  0.11368683772E-12  0.17120000000E+03  0.17120000000E+03 0.  0.
         13    1    1    2    0    0 -0.50175356148E+01 -0.13078851371E+02  0.55172950714E+02  0.56923612599E+02  0.10566000000E+00 0. -1.
        994    1    1    2    0    0  0.39232413158E+01 -0.61409214526E+01  0.20813999756E+01  0.17136766021E+03  0.17120000000E+03 0.  0.
        998    1    1    2    0    0  0.10942942990E+01  0.19219772824E+02  0.14427456456E+04  0.14429087272E+04  0.10000000000E+02 0. -1.
</event>
<event>
 5    1  0.1503263E-008  0.3724612E+03  0.7957747E-01  0.3484656E+00
         13   -1    0    0    0    0  0.00000000000E+00  0.00000000000E+00  0.14999999963E+04  0.15000000000E+04  0.10566000000E+00 0. -1.
        994   -1    0    0    0    0 -0.00000000000E+00 -0.00000000000E+00  0.11368683772E-12  0.17120000000E+03  0.17120000000E+03 0.  0.
         13    1    1    2    0    0 -0.10018761411E+01 -0.28817182675E+02  0.28697370684E+02  0.40681494827E+02  0.10566000000E+00 0. -1.
        994    1    1    2    0    0 -0.15240521647E+01  0.24512875319E+02  0.14376166772E+02  0.17354918024E+03  0.17120000000E+03 0.  0.
        998    1    1    2    0    0  0.25259283058E+01  0.43043073559E+01  0.14569264588E+04  0.14569693249E+04  0.10000000000E+02 0. -1.
</event>
<event>
 5    1  0.1503263E-008  0.3844140E+03  0.7957747E-01  0.3432161E+00
         13   -1    0    0    0    0  0.00000000000E+00  0.00000000000E+00  0.14999999963E+04  0.15000000000E+04  0.10566000000E+00 0. -1.
        994   -1    0    0    0    0 -0.00000000000E+00 -0.00000000000E+00  0.11368683772E-12  0.17120000000E+03  0.17120000000E+03 0.  0.
         13    1    1    2    0    0 -0.20934121826E+02 -0.10210486656E+02  0.12864088970E+03  0.13073247937E+03  0.10566000000E+00 0. -1.
        994    1    1    2    0    0  0.28943565625E+02 -0.54466249999E+00  0.46874771035E+01  0.17369352058E+03  0.17120000000E+03 0.  0.
        998    1    1    2    0    0 -0.80094437998E+01  0.10755149156E+02  0.13666716295E+04  0.13667740001E+04  0.10000000000E+02 0. -1.
</event>
<event>
 5    1  0.1503263E-008  0.3806567E+03  0.7957747E-01  0.3448304E+00
         13   -1    0    0    0    0  0.00000000000E+00  0.00000000000E+00  0.14999999963E+04  0.15000000000E+04  0.10566000000E+00 0.  1.
        994   -1    0    0    0    0 -0.00000000000E+00 -0.00000000000E+00  0.11368683772E-12  0.17120000000E+03  0.17120000000E+03 0.  0.
         13    1    1    2    0    0 -0.88057284762E+01 -0.10676412374E+02  0.23861456233E+02  0.27584540830E+02  0.10566000000E+00 0.  1.
        994    1    1    2    0    0  0.11744040482E+02 -0.11357908202E+01  0.42665060095E+01  0.17165912612E+03  0.17120000000E+03 0.  0.
        998    1    1    2    0    0 -0.29383120060E+01  0.11812203195E+02  0.14718720340E+04  0.14719563330E+04  0.10000000000E+02 0.  1.
</event>
<event>
 5    1  0.1503263E-008  0.3803609E+03  0.7957747E-01  0.3449588E+00
         13   -1    0    0    0    0  0.00000000000E+00  0.00000000000E+00  0.14999999963E+04  0.15000000000E+04  0.10566000000E+00 0. -1.
        994   -1    0    0    0    0 -0.00000000000E+00 -0.00000000000E+00  0.11368683772E-12  0.17120000000E+03  0.17120000000E+03 0.  0.
         13    1    1    2    0    0 -0.15519516141E+02 -0.31426914095E+02  0.13765884739E+03  0.14205096177E+03  0.10566000000E+00 0. -1.
        994    1    1    2    0    0  0.18869613198E+02  0.34525099269E+02  0.91372176563E+01  0.17590046483E+03  0.17120000000E+03 0.  0.
        998    1    1    2    0    0 -0.33500970576E+01 -0.30981851737E+01  0.13532039312E+04  0.13532485734E+04  0.10000000000E+02 0. -1.
</event>
<event>
 5    1  0.1503263E-008  0.3766762E+03  0.7957747E-01  0.3465760E+00
         13   -1    0    0    0    0  0.00000000000E+00  0.00000000000E+00  0.14999999963E+04  0.15000000000E+04  0.10566000000E+00 0. -1.
        994   -1    0    0    0    0 -0.00000000000E+00 -0.00000000000E+00  0.11368683772E-12  0.17120000000E+03  0.17120000000E+03 0.  0.
         13    1    1    2    0    0 -0.13262042454E+02 -0.62086126903E+01  0.15445343703E+02  0.21283760188E+02  0.10566000000E+00 0. -1.
        994    1    1    2    0    0  0.19104509674E+02  0.11353880399E+02  0.74916740569E+01  0.17279889488E+03  0.17120000000E+03 0.  0.
        998    1    1    2    0    0 -0.58424672198E+01 -0.51452677091E+01  0.14770629785E+04  0.14771173449E+04  0.10000000000E+02 0. -1.
</event>
<event>
 5    1  0.1503263E-008  0.3778556E+03  0.7957747E-01  0.3460549E+00
         13   -1    0    0    0    0  0.00000000000E+00  0.00000000000E+00  0.14999999963E+04  0.15000000000E+04  0.10566000000E+00 0. -1.
        994   -1    0    0    0    0 -0.00000000000E+00 -0.00000000000E+00  0.11368683772E-12  0.17120000000E+03  0.17120000000E+03 0.  0.
         13    1    1    2    0    0  0.29420062415E+02  0.58485306634E+01  0.87777010947E+02  0.92760768638E+02  0.10566000000E+00 0. -1.
        994    1    1    2    0    0 -0.48775350520E+01 -0.25029569638E+02  0.74119831373E+01  0.17324735842E+03  0.17120000000E+03 0.  0.
        998    1    1    2    0    0 -0.24542527363E+02  0.19181038974E+02  0.14048110022E+04  0.14051918729E+04  0.10000000000E+02 0. -1.
</event>
<event>
 5    1  0.1503263E-008  0.3015351E+03  0.7957747E-01  0.3885120E+00
         13   -1    0    0    0    0  0.00000000000E+00  0.00000000000E+00  0.14999999963E+04  0.15000000000E+04  0.10566000000E+00 0. -1.
        994   -1    0    0    0    0 -0.00000000000E+00 -0.00000000000E+00  0.11368683772E-12  0.17120000000E+03  0.17120000000E+03 0.  0.
         13    1    1    2    0    0  0.11180291817E+03 -0.17330726254E+03  0.58650754670E+03  0.62171248441E+03  0.10566000000E+00 0. -1.
        994    1    1    2    0    0 -0.93021093100E+02  0.19803578031E+03  0.21775095182E+03  0.35298160159E+03  0.17120000000E+03 0.  0.
        998    1    1    2    0    0 -0.18781825073E+02 -0.24728517771E+02  0.69574149775E+03  0.69650591400E+03  0.10000000000E+02 0. -1.
</event>
<event>
 5    1  0.1503263E-008  0.3905650E+03  0.7957747E-01  0.3406408E+00
         13   -1    0    0    0    0  0.00000000000E+00  0.00000000000E+00  0.14999999963E+04  0.15000000000E+04  0.10566000000E+00 0. -1.
        994   -1    0    0    0    0 -0.00000000000E+00 -0.00000000000E+00  0.11368683772E-12  0.17120000000E+03  0.17120000000E+03 0.  0.
         13    1    1    2    0    0  0.15977018305E+02  0.47222463061E+02  0.52656409168E+02  0.72511617842E+02  0.10566000000E+00 0. -1.
        994    1    1    2    0    0 -0.24068567936E+02  0.10464879879E+02  0.24857219968E+02  0.17497465833E+03  0.17120000000E+03 0.  0.
        998    1    1    2    0    0  0.80915496316E+01 -0.57687342940E+02  0.14224863671E+04  0.14237137238E+04  0.10000000000E+02 0. -1.
</event>
<event>
 5    1  0.1503263E-008  0.3806264E+03  0.7957747E-01  0.3448436E+00
         13   -1    0    0    0    0  0.00000000000E+00  0.00000000000E+00  0.14999999963E+04  0.15000000000E+04  0.10566000000E+00 0. -1.
        994   -1    0    0    0    0 -0.00000000000E+00 -0.00000000000E+00  0.11368683772E-12  0.17120000000E+03  0.17120000000E+03 0.  0.
         13    1    1    2    0    0 -0.38373695467E+02 -0.69363238660E+01  0.39000514095E+02  0.55151648718E+02  0.10566000000E+00 0. -1.
        994    1    1    2    0    0  0.35669953146E+02 -0.33651139347E+02  0.25457276752E+02  0.17989512966E+03  0.17120000000E+03 0.  0.
        998    1    1    2    0    0  0.27037423206E+01  0.40587463213E+02  0.14355422054E+04  0.14361532216E+04  0.10000000000E+02 0. -1.
</event>
<event>
 5    1  0.1503263E-008  0.3847417E+03  0.7957747E-01  0.3430769E+00
         13   -1    0    0    0    0  0.00000000000E+00  0.00000000000E+00  0.14999999963E+04  0.15000000000E+04  0.10566000000E+00 0.  1.
        994   -1    0    0    0    0 -0.00000000000E+00 -0.00000000000E+00  0.11368683772E-12  0.17120000000E+03  0.17120000000E+03 0.  0.
         13    1    1    2    0    0 -0.95943967955E+01  0.79432436884E+01  0.45716814620E+02  0.47383392377E+02  0.10566000000E+00 0.  1.
        994    1    1    2    0    0  0.19586859825E+01  0.14485649187E+01  0.17779919438E+01  0.17122656350E+03  0.17120000000E+03 0.  0.
        998    1    1    2    0    0  0.76357108130E+01 -0.93918086071E+01  0.14525051897E+04  0.14525900441E+04  0.10000000000E+02 0.  1.
</event>
<event>
 5    1  0.1503263E-008  0.3838184E+03  0.7957747E-01  0.3434699E+00
         13   -1    0    0    0    0  0.00000000000E+00  0.00000000000E+00  0.14999999963E+04  0.15000000000E+04  0.10566000000E+00 0. -1.
        994   -1    0    0    0    0 -0.00000000000E+00 -0.00000000000E+00  0.11368683772E-12  0.17120000000E+03  0.17120000000E+03 0.  0.
         13    1    1    2    0    0  0.69976958223E+01 -0.14546267500E+02  0.62413327140E+02  0.64467016479E+02  0.10566000000E+00 0. -1.
        994    1    1    2    0    0 -0.18970730406E+01 -0.32943667180E+01  0.22656418615E+01  0.17125718925E+03  0.17120000000E+03 0.  0.
        998    1    1    2    0    0 -0.51006227817E+01  0.17840634218E+02  0.14353210273E+04  0.14354757943E+04  0.10000000000E+02 0. -1.
</event>
<event>
 5    1  0.1503263E-008  0.3776609E+03  0.7957747E-01  0.3461407E+00
         13   -1    0    0    0    0  0.00000000000E+00  0.00000000000E+00  0.14999999963E+04  0.15000000000E+04  0.10566000000E+00 0.  1.
        994   -1    0    0    0    0 -0.00000000000E+00 -0.00000000000E+00  0.11368683772E-12  0.17120000000E+03  0.17120000000E+03 0.  0.
         13    1    1    2    0    0  0.24011999549E+01 -0.51429092116E+02  0.20263943294E+03  0.20907766075E+03  0.10566000000E+00 0.  1.
        994    1    1    2    0    0 -0.31016014312E+01  0.60406502035E+02  0.17744966197E+02  0.18243598670E+03  0.17120000000E+03 0.  0.
        998    1    1    2    0    0  0.70040147634E+00 -0.89774099184E+01  0.12796155971E+04  0.12796863525E+04  0.10000000000E+02 0.  1.
</event>
<event>
 5    1  0.1503263E-008  0.3773379E+03  0.7957747E-01  0.3462833E+00
         13   -1    0    0    0    0  0.00000000000E+00  0.00000000000E+00  0.14999999963E+04  0.15000000000E+04  0.10566000000E+00 0. -1.
        994   -1    0    0    0    0 -0.00000000000E+00 -0.00000000000E+00  0.11368683772E-12  0.17120000000E+03  0.17120000000E+03 0.  0.
         13    1    1    2    0    0  0.29525338039E+02  0.62946612645E+01  0.79770989514E+02  0.85292381130E+02  0.10566000000E+00 0. -1.
        994    1    1    2    0    0 -0.21241750320E+02 -0.99945205075E+01  0.73439189106E+01  0.17295801670E+03  0.17120000000E+03 0.  0.
        998    1    1    2    0    0 -0.82835877189E+01  0.36998592430E+01  0.14128850879E+04  0.14129496022E+04  0.10000000000E+02 0. -1.
</event>
<event>
 5    1  0.1503263E-008  0.3799750E+03  0.7957747E-01  0.3451267E+00
         13   -1    0    0    0    0  0.00000000000E+00  0.00000000000E+00  0.14999999963E+04  0.15000000000E+04  0.10566000000E+00 0. -1.
        994   -1    0    0    0    0 -0.00000000000E+00 -0.00000000000E+00  0.11368683772E-12  0.17120000000E+03  0.17120000000E+03 0.  0.
         13    1    1    2    0    0 -0.79462618427E+01  0.18934420414E+02  0.48220318604E+02  0.52410548977E+02  0.10566000000E+00 0. -1.
        994    1    1    2    0    0  0.75084857673E+01 -0.17937903935E+02  0.54110071696E+01  0.17238580207E+03  0.17120000000E+03 0.  0.
        998    1    1    2    0    0  0.43777607548E+00 -0.99651647940E+00  0.14463686705E+04  0.14464036490E+04  0.10000000000E+02 0.  0.
</event>
<event>
 5    1  0.1503263E-008  0.3701886E+03  0.7957747E-01  0.3495024E+00
         13   -1    0    0    0    0  0.00000000000E+00  0.00000000000E+00  0.14999999963E+04  0.15000000000E+04  0.10566000000E+00 0.  1.
        994   -1    0    0    0    0 -0.00000000000E+00 -0.00000000000E+00  0.11368683772E-12  0.17120000000E+03  0.17120000000E+03 0.  0.
         13    1    1    2    0    0 -0.33057198931E+01 -0.20282258186E+02  0.15251304694E+02  0.25591233656E+02  0.10566000000E+00 0.  1.
        994    1    1    2    0    0 -0.19640843426E+00 -0.12230448445E+02  0.11562169682E+02  0.17202542316E+03  0.17120000000E+03 0.  0.
        998    1    1    2    0    0  0.35021283274E+01  0.32512706631E+02  0.14731865219E+04  0.14735833432E+04  0.10000000000E+02 0.  1.
</event>
<event>
 5    1  0.1503263E-008  0.3796033E+03  0.7957747E-01  0.3452888E+00
         13   -1    0    0    0    0  0.00000000000E+00  0.00000000000E+00  0.14999999963E+04  0.15000000000E+04  0.10566000000E+00 0. -1.
        994   -1    0    0    0    0 -0.00000000000E+00 -0.00000000000E+00  0.11368683772E-12  0.17120000000E+03  0.17120000000E+03 0.  0.
         13    1    1    2    0    0 -0.11900156975E+02  0.39191322209E+00  0.14251579031E+02  0.18571106615E+02  0.10566000000E+00 0. -1.
        994    1    1    2    0    0  0.14721808120E+02 -0.94710022451E+01  0.53598998618E+01  0.17217607280E+03  0.17120000000E+03 0.  0.
        998    1    1    2    0    0 -0.28216511443E+01  0.90790890230E+01  0.14803885174E+04  0.14804528206E+04  0.10000000000E+02 0. -1.
</event>
<event>
 5    1  0.1503263E-008  0.3847743E+03  0.7957747E-01  0.3430630E+00
         13   -1    0    0    0    0  0.00000000000E+00  0.00000000000E+00  0.14999999963E+04  0.15000000000E+04  0.10566000000E+00 0.  1.
        994   -1    0    0    0    0 -0.00000000000E+00 -0.00000000000E+00  0.11368683772E-12  0.17120000000E+03  0.17120000000E+03 0.  0.
         13    1    1    2    0    0  0.38953074882E+01 -0.10511809946E+02  0.36306312429E+02  0.37997776974E+02  0.10566000000E+00 0.  1.
        994    1    1    2    0    0  0.32017191185E-02  0.49208994857E+01  0.18219502100E+01  0.17128039807E+03  0.17120000000E+03 0.  0.
        998    1    1    2    0    0 -0.38985092073E+01  0.55909104602E+01  0.14618717336E+04  0.14619218250E+04  0.10000000000E+02 0.  1.
</event>
<event>
 5    1  0.1503263E-008  0.3838171E+03  0.7957747E-01  0.3434705E+00
         13   -1    0    0    0    0  0.00000000000E+00  0.00000000000E+00  0.14999999963E+04  0.15000000000E+04  0.10566000000E+00 0. -1.
        994   -1    0    0    0    0 -0.00000000000E+00 -0.00000000000E+00  0.11368683772E-12  0.17120000000E+03  0.17120000000E+03 0.  0.
         13    1    1    2    0    0  0.85663009677E+01  0.16971014316E+02  0.86963396026E+02  0.89017078427E+02  0.10566000000E+00 0. -1.
        994    1    1    2    0    0  0.83267130425E+01 -0.54183936076E+01  0.25444600310E+01  0.17150687280E+03  0.17120000000E+03 0.  0.
        998    1    1    2    0    0 -0.16893014010E+02 -0.11552620709E+02  0.14104921402E+04  0.14106760488E+04  0.10000000000E+02 0. -1.
</event>
<event>
 5    1  0.1503263E-008  0.3688727E+03  0.7957747E-01  0.3501088E+00
         13   -1    0    0    0    0  0.00000000000E+00  0.00000000000E+00  0.14999999963E+04  0.15000000000E+04  0.10566000000E+00 0. -1.
        994   -1    0    0    0    0 -0.00000000000E+00 -0.00000000000E+00  0.11368683772E-12  0.17120000000E+03  0.17120000000E+03 0.  0.
         13    1    1    2    0    0  0.28245732098E+02 -0.13428767381E+01  0.35672490917E+02  0.45521011323E+02  0.10566000000E+00 0. -1.
        994    1    1    2    0    0 -0.51495997111E+01  0.21598561479E+02  0.12062613112E+02  0.17305479730E+03  0.17120000000E+03 0.  0.
        998    1    1    2    0    0 -0.23096132387E+02 -0.20255684741E+02  0.14522648923E+04  0.14526241914E+04  0.10000000000E+02 0. -1.
</event>
<event>
 5    1  0.1503263E-008  0.3735382E+03  0.7957747E-01  0.3479787E+00
         13   -1    0    0    0    0  0.00000000000E+00  0.00000000000E+00  0.14999999963E+04  0.15000000000E+04  0.10566000000E+00 0.  1.
        994   -1    0    0    0    0 -0.00000000000E+00 -0.00000000000E+00  0.11368683772E-12  0.17120000000E+03  0.17120000000E+03 0.  0.
         13    1    1    2    0    0 -0.29531132516E+02 -0.20734635402E+02  0.53643012453E+02  0.64649801562E+02  0.10566000000E+00 0.  1.
        994    1    1    2    0    0 -0.23943907438E+02 -0.25402618567E+02  0.17147995413E+02  0.17556223250E+03  0.17120000000E+03 0.  0.
        998    1    1    2    0    0  0.53475039953E+02  0.46137253969E+02  0.14292089884E+04  0.14309879659E+04  0.10000000000E+02 0.  1.
</event>
<event>
 5    1  0.1503263E-008  0.3841021E+03  0.7957747E-01  0.3433489E+00
         13   -1    0    0    0    0  0.00000000000E+00  0.00000000000E+00  0.14999999963E+04  0.15000000000E+04  0.10566000000E+00 0. -1.
        994   -1    0    0    0    0 -0.00000000000E+00 -0.00000000000E+00  0.11368683772E-12  0.17120000000E+03  0.17120000000E+03 0.  0.
         13    1    1    2    0    0 -0.67931347436E+01  0.98531486808E+01  0.33480346438E+02  0.35555252498E+02  0.10566000000E+00 0. -1.
        994    1    1    2    0    0  0.75667716010E+00 -0.13538933039E+02  0.26832852429E+01  0.17175714043E+03  0.17120000000E+03 0.  0.
        998    1    1    2    0    0  0.60364575835E+01  0.36857843583E+01  0.14638363646E+04  0.14638876071E+04  0.10000000000E+02 0. -1.
</event>
<event>
 5    1  0.1503263E-008  0.3848470E+03  0.7957747E-01  0.3430321E+00
         13   -1    0    0    0    0  0.00000000000E+00  0.00000000000E+00  0.14999999963E+04  0.15000000000E+04  0.10566000000E+00 0. -1.
        994   -1    0    0    0    0 -0.00000000000E+00 -0.00000000000E+00  0.11368683772E-12  0.17120000000E+03  0.17120000000E+03 0.  0.
         13    1    1    2    0    0  0.79068920373E+01 -0.99630088007E+01  0.46930548398E+02  0.48623739295E+02  0.10566000000E+00 0. -1.
        994    1    1    2    0    0 -0.77298347800E+01  0.64707366148E+01  0.20405302065E+01  0.17150867191E+03  0.17120000000E+03 0.  0.
        998    1    1    2    0    0 -0.17705725731E+00  0.34922721858E+01  0.14510289177E+04  0.14510675888E+04  0.10000000000E+02 0. -1.
</event>
<event>
 5    1  0.1503263E-008  0.3859365E+03  0.7957747E-01  0.3425710E+00
         13   -1    0    0    0    0  0.00000000000E+00  0.00000000000E+00  0.14999999963E+04  0.15000000000E+04  0.10566000000E+00 0.  1.
        994   -1    0    0    0    0 -0.00000000000E+00 -0.00000000000E+00  0.11368683772E-12  0.17120000000E+03  0.17120000000E+03 0.  0.
         13    1    1    2    0    0  0.12358386674E+02 -0.11629148995E+01  0.73185796729E+02  0.74231085801E+02  0.10566000000E+00 0.  1.
        994    1    1    2    0    0  0.28233885744E+01 -0.33634391384E+01  0.12291004263E+01  0.17126072210E+03  0.17120000000E+03 0.  0.
        998    1    1    2    0    0 -0.15181775248E+02  0.45263540379E+01  0.14255850991E+04  0.14257081921E+04  0.10000000000E+02 0.  1.
</event>
<event>
 5    1  0.1503263E-008  0.2962194E+03  0.7957747E-01  0.3923384E+00
         13   -1    0    0    0    0  0.00000000000E+00  0.00000000000E+00  0.14999999963E+04  0.15000000000E+04  0.10566000000E+00 0.  1.
        994   -1    0    0    0    0 -0.00000000000E+00 -0.00000000000E+00  0.11368683772E-12  0.17120000000E+03  0.17120000000E+03 0.  0.
         13    1    1    2    0    0 -0.13749170035E+03 -0.36853973452E+02  0.73586012038E+03  0.74950137489E+03  0.10566000000E+00 0.  1.
        994    1    1    2    0    0  0.81507777612E+02  0.10181570026E+03  0.76122110771E+02  0.22828484483E+03  0.17120000000E+03 0.  0.
        998    1    1    2    0    0  0.55983922742E+02 -0.64961726811E+02  0.68801776513E+03  0.69341378028E+03  0.10000000000E+02 0.  1.
</event>
<event>
 5    1  0.1915118E-008  0.3860978E+03  0.7957747E-01  0.3425030E+00
         13   -1    0    0    0    0  0.00000000000E+00  0.00000000000E+00  0.14999999963E+04  0.15000000000E+04  0.10566000000E+00 0.  1.
        994   -1    0    0    0    0 -0.00000000000E+00 -0.00000000000E+00  0.11368683772E-12  0.17120000000E+03  0.17120000000E+03 0.  0.
         13    1    1    2    0    0  0.14357950904E+01 -0.10307093401E+02  0.54341150729E+02  0.55328740348E+02  0.10566000000E+00 0.  1.
        994    1    1    2    0    0  0.82292301678E+00 -0.30863001951E+01  0.11195055072E+01  0.17123345393E+03  0.17120000000E+03 0.  0.
        998    1    1    2    0    0 -0.22587181072E+01  0.13393393596E+02  0.14445393400E+04  0.14446378057E+04  0.10000000000E+02 0.  1.
</event>
<event>
 5    1  0.1503263E-008  0.3814074E+03  0.7957747E-01  0.3445053E+00
         13   -1    0    0    0    0  0.00000000000E+00  0.00000000000E+00  0.14999999963E+04  0.15000000000E+04  0.10566000000E+00 0.  1.
        994   -1    0    0    0    0 -0.00000000000E+00 -0.00000000000E+00  0.11368683772E-12  0.17120000000E+03  0.17120000000E+03 0.  0.
         13    1    1    2    0    0 -0.24888859014E+02 -0.82406935472E+01  0.10491238349E+03  0.10813872437E+03  0.10566000000E+00 0.  1.
        994    1    1    2    0    0  0.60465499197E+01  0.19764569084E+01  0.35590371499E+01  0.17135511050E+03  0.17120000000E+03 0.  0.
        998    1    1    2    0    0  0.18842309094E+02  0.62642366387E+01  0.13915285756E+04  0.13917061651E+04  0.10000000000E+02 0.  1.
</event>
<event>
 5    1  0.1989208E-008  0.3860422E+03  0.7957747E-01  0.3425264E+00
         13   -1    0    0    0    0  0.00000000000E+00  0.00000000000E+00  0.14999999963E+04  0.15000000000E+04  0.10566000000E+00 0.  1.
        994   -1    0    0    0    0 -0.00000000000E+00 -0.00000000000E+00  0.11368683772E-12  0.17120000000E+03  0.17120000000E+03 0.  0.
         13    1    1    2    0    0 -0.10009554030E+02  0.55577839525E+01  0.60293772919E+02  0.61371250200E+02  0.10566000000E+00 0.  1.
        994    1    1    2    0    0  0.27370639295E+01 -0.76587706442E+01  0.13303979630E+01  0.17139824458E+03  0.17120000000E+03 0.  0.
        998    1    1    2    0    0  0.72724901002E+01  0.21009866916E+01  0.14383758254E+04  0.14384305052E+04  0.10000000000E+02 0.  1.
</event>
<event>
 5    1  0.1503263E-008  0.3757617E+03  0.7957747E-01  0.3469823E+00
         13   -1    0    0    0    0  0.00000000000E+00  0.00000000000E+00  0.14999999963E+04  0.15000000000E+04  0.10566000000E+00 0. -1.
        994   -1    0    0    0    0 -0.00000000000E+00 -0.00000000000E+00  0.11368683772E-12  0.17120000000E+03  0.17120000000E+03 0.  0.
         13    1    1    2    0    0  0.71736930366E+02 -0.10708020524E+03  0.74071248877E+03  0.75184264292E+03  0.10566000000E+00 0. -1.
        994    1    1    2    0    0 -0.43806741259E+02  0.11746421507E+03  0.61589236061E+02  0.22095145711E+03  0.17120000000E+03 0.  0.
        998    1    1    2    0    0 -0.27930189107E+02 -0.10384009828E+02  0.69769827145E+03  0.69840589997E+03  0.10000000000E+02 0.  0.
</event>
<event>
 5    1  0.1503263E-008  0.3788804E+03  0.7957747E-01  0.3456048E+00
         13   -1    0    0    0    0  0.00000000000E+00  0.00000000000E+00  0.14999999963E+04  0.15000000000E+04  0.10566000000E+00 0.  1.
        994   -1    0    0    0    0 -0.00000000000E+00 -0.00000000000E+00  0.11368683772E-12  0.17120000000E+03  0.17120000000E+03 0.  0.
         13    1    1    2    0    0  0.19934591456E+02  0.13478988892E+02  0.51481686263E+02  0.56828217133E+02  0.10566000000E+00 0.  1.
        994    1    1    2    0    0 -0.62514580246E+02 -0.94199753595E+01  0.18229034442E+02  0.18340814152E+03  0.17120000000E+03 0.  0.
        998    1    1    2    0    0  0.42579988791E+02 -0.40590135321E+01  0.14302892756E+04  0.14309636413E+04  0.10000000000E+02 0.  1.
</event>
<event>
 5    1  0.1503263E-008  0.3905237E+03  0.7957747E-01  0.3406578E+00
         13   -1    0    0    0    0  0.00000000000E+00  0.00000000000E+00  0.14999999963E+04  0.15000000000E+04  0.10566000000E+00 0.  1.
        994   -1    0    0    0    0 -0.00000000000E+00 -0.00000000000E+00  0.11368683772E-12  0.17120000000E+03  0.17120000000E+03 0.  0.
         13    1    1    2    0    0 -0.41203213509E+01  0.33401714592E+02  0.16965059615E+02  0.37689202665E+02  0.10566000000E+00 0.  1.
        994    1    1    2    0    0  0.37883840723E+01 -0.14437353196E+02  0.23073032978E+02  0.17339144694E+03  0.17120000000E+03 0.  0.
        998    1    1    2    0    0  0.33193727856E+00 -0.18964361396E+02  0.14599619037E+04  0.14601193504E+04  0.10000000000E+02 0.  1.
</event>
<event>
 5    1  0.1503263E-008  0.3798643E+03  0.7957747E-01  0.3451749E+00
         13   -1    0    0    0    0  0.00000000000E+00  0.00000000000E+00  0.14999999963E+04  0.15000000000E+04  0.10566000000E+00 0.  1.
        994   -1    0    0    0    0 -0.00000000000E+00 -0.00000000000E+00  0.11368683772E-12  0.17120000000E+03  0.17120000000E+03 0.  0.
         13    1    1    2    0    0  0.32953120068E+02 -0.18274510625E+02  0.16963815669E+03  0.17377278621E+03  0.10566000000E+00 0.  1.
        994    1    1    2    0    0 -0.17464072168E+02  0.99830583434E+01  0.55561398476E+01  0.17246728954E+03  0.17120000000E+03 0.  0.
        998    1    1    2    0    0 -0.15489047900E+02  0.82914522817E+01  0.13248056997E+04  0.13249599242E+04  0.10000000000E+02 0.  1.
</event>
<event>
 5    1  0.1503263E-008  0.3771748E+03  0.7957747E-01  0.3463553E+00
         13   -1    0    0    0    0  0.00000000000E+00  0.00000000000E+00  0.14999999963E+04  0.15000000000E+04  0.10566000000E+00 0.  1.
        994   -1    0    0    0    0 -0.00000000000E+00 -0.00000000000E+00  0.11368683772E-12  0.17120000000E+03  0.17120000000E+03 0.  0.
         13    1    1    2    0    0  0.51698889190E+01 -0.11505870324E+02 -0.16351148042E+01  0.12719967288E+02  0.10566000000E+00 0.  1.
        994    1    1    2    0    0 -0.17037663243E+02  0.26455923065E+02  0.18343354903E+02  0.17503175856E+03  0.17120000000E+03 0.  0.
        998    1    1    2    0    0  0.11867774324E+02 -0.14950052740E+02  0.14832917562E+04  0.14834482742E+04  0.10000000000E+02 0.  1.
</event>
<event>
 5    1  0.1503263E-008  0.3690531E+03  0.7957747E-01  0.3500254E+00
         13   -1    0    0    0    0  0.00000000000E+00  0.00000000000E+00  0.14999999963E+04  0.15000000000E+04  0.10566000000E+00 0.  1.
        994   -1    0    0    0    0 -0.00000000000E+00 -0.00000000000E+00  0.11368683772E-12  0.17120000000E+03  0.17120000000E+03 0.  0.
         13    1    1    2    0    0  0.92394679310E+02  0.14526194230E+02  0.34598507311E+03  0.35840405837E+03  0.10566000000E+00 0.  1.
        994    1    1    2    0    0 -0.83888928124E+02  0.63535899837E+01  0.35524834785E+02  0.19403395129E+03  0.17120000000E+03 0.  0.
        998    1    1    2    0    0 -0.85057511863E+01 -0.20879784214E+02  0.11184900884E+04  0.11187619903E+04  0.10000000000E+02 0.  1.
</event>
<event>
 5    1  0.1503263E-008  0.3758692E+03  0.7957747E-01  0.3469345E+00
         13   -1    0    0    0    0  0.00000000000E+00  0.00000000000E+00  0.14999999963E+04  0.15000000000E+04  0.10566000000E+00 0. -1.
        994   -1    0    0    0    0 -0.00000000000E+00 -0.00000000000E+00  0.11368683772E-12  0.17120000000E+03  0.17120000000E+03 0.  0.
         13    1    1    2    0    0  0.83199839879E+02  0.10570295040E+02  0.41502563169E+03  0.42341496267E+03  0.10566000000E+00 0. -1.
        994    1    1    2    0    0 -0.80817076904E+02 -0.77874251686E+01  0.28913204846E+02  0.19167017850E+03  0.17120000000E+03 0.  0.
        998    1    1    2    0    0 -0.23827629749E+01 -0.27828698713E+01  0.10560611597E+04  0.10561148588E+04  0.10000000000E+02 0. -1.
</event>
<event>
 5    1  0.1503263E-008  0.3839027E+03  0.7957747E-01  0.3434339E+00
         13   -1    0    0    0    0  0.00000000000E+00  0.00000000000E+00  0.14999999963E+04  0.15000000000E+04  0.10566000000E+00 0.  1.
        994   -1    0    0    0    0 -0.00000000000E+00 -0.00000000000E+00  0.11368683772E-12  0.17120000000E+03  0.17120000000E+03 0.  0.
         13    1    1    2    0    0 -0.29348841314E+01  0.16040331759E+02  0.56703451740E+02  0.59001681257E+02  0.10566000000E+00 0.  1.
        994    1    1    2    0    0  0.57700947143E+01 -0.23017020180E+02  0.40364726799E+01  0.17288380584E+03  0.17120000000E+03 0.  0.
        998    1    1    2    0    0 -0.28352105829E+01  0.69766884202E+01  0.14392600719E+04  0.14393145129E+04  0.10000000000E+02 0.  1.
</event>
<event>
 5    1  0.1503263E-008  0.3856657E+03  0.7957747E-01  0.3426854E+00
         13   -1    0    0    0    0  0.00000000000E+00  0.00000000000E+00  0.14999999963E+04  0.15000000000E+04  0.10566000000E+00 0.  1.
        994   -1    0    0    0    0 -0.00000000000E+00 -0.00000000000E+00  0.11368683772E-12  0.17120000000E+03  0.17120000000E+03 0.  0.
         13    1    1    2    0    0 -0.11172532400E+02  0.17692206822E+02  0.12518963602E+03  0.12692634003E+03  0.10566000000E+00 0.  1.
        994    1    1    2    0    0  0.19956742943E+02 -0.41292151120E+02  0.82328134923E+01  0.17742754169E+03  0.17120000000E+03 0.  0.
        998    1    1    2    0    0 -0.87842105437E+01  0.23599944298E+02  0.13665775468E+04  0.13668461183E+04  0.10000000000E+02 0.  1.
</event>
<event>
 5    1  0.1503263E-008  0.3827279E+03  0.7957747E-01  0.3439366E+00
         13   -1    0    0    0    0  0.00000000000E+00  0.00000000000E+00  0.14999999963E+04  0.15000000000E+04  0.10566000000E+00 0.  1.
        994   -1    0    0    0    0 -0.00000000000E+00 -0.00000000000E+00  0.11368683772E-12  0.17120000000E+03  0.17120000000E+03 0.  0.
         13    1    1    2    0    0  0.10888319049E+02  0.15740677301E+02  0.62918140177E+02  0.65764944621E+02  0.10566000000E+00 0.  1.
        994    1    1    2    0    0 -0.11926573089E+02 -0.16627484542E+02  0.41508514937E+01  0.17246850714E+03  0.17120000000E+03 0.  0.
        998    1    1    2    0    0  0.10382540399E+01  0.88680724034E+00  0.14329310046E+04  0.14329665482E+04  0.10000000000E+02 0.  0.
</event>
<event>
 5    1  0.1503263E-008  0.3845097E+03  0.7957747E-01  0.3431754E+00
         13   -1    0    0    0    0  0.00000000000E+00  0.00000000000E+00  0.14999999963E+04  0.15000000000E+04  0.10566000000E+00 0.  1.
        994   -1    0    0    0    0 -0.00000000000E+00 -0.00000000000E+00  0.11368683772E-12  0.17120000000E+03  0.17120000000E+03 0.  0.
         13    1    1    2    0    0  0.66783843799E+00  0.12705636504E+02  0.42184574266E+02  0.44061646329E+02  0.10566000000E+00 0.  1.
        994    1    1    2    0    0 -0.39766893788E+01 -0.11757599428E+02  0.23813475755E+01  0.17166585572E+03  0.17120000000E+03 0.  0.
        998    1    1    2    0    0  0.33088509408E+01 -0.94803707620E+00  0.14554340744E+04  0.14554724980E+04  0.10000000000E+02 0.  1.
</event>
<event>
 5    1  0.1503263E-008  0.3848658E+03  0.7957747E-01  0.3430242E+00
         13   -1    0    0    0    0  0.00000000000E+00  0.00000000000E+00  0.14999999963E+04  0.15000000000E+04  0.10566000000E+00 0.  1.
        994   -1    0    0    0    0 -0.00000000000E+00 -0.00000000000E+00  0.11368683772E-12  0.17120000000E+03  0.17120000000E+03 0.  0.
         13    1    1    2    0    0  0.82587131799E+00  0.13223325335E+02  0.50604998669E+02  0.52310758460E+02  0.10566000000E+00 0.  1.
        994    1    1    2    0    0  0.44285744664E+01 -0.12764246848E+02  0.22975750050E+01  0.17174765536E+03  0.17120000000E+03 0.  0.
        998    1    1    2    0    0 -0.52544457844E+01 -0.45907848667E+00  0.14470974226E+04  0.14471415862E+04  0.10000000000E+02 0.  1.
</event>
<event>
 5    1  0.1503263E-008  0.3849870E+03  0.7957747E-01  0.3429727E+00
         13   -1    0    0    0    0  0.00000000000E+00  0.00000000000E+00  0.14999999963E+04  0.15000000000E+04  0.10566000000E+00 0. -1.
        994   -1    0    0    0    0 -0.00000000000E+00 -0.00000000000E+00  0.11368683772E-12  0.17120000000E+03  0.17120000000E+03 0.  0.
         13    1    1    2    0    0 -0.13485359276E+02 -0.68071386620E+01  0.68397301056E+02  0.70045656591E+02  0.10566000000E+00 0. -1.
        994    1    1    2    0    0  0.86378698008E+01  0.11666369725E+02  0.23299207441E+01  0.17183010652E+03  0.17120000000E+03 0.  0.
        998    1    1    2    0    0  0.48474894751E+01 -0.48592310627E+01  0.14292727745E+04  0.14293242369E+04  0.10000000000E+02 0. -1.
</event>
<event>
 5    1  0.1503263E-008  0.3835102E+03  0.7957747E-01  0.3436015E+00
         13   -1    0    0    0    0  0.00000000000E+00  0.00000000000E+00  0.14999999963E+04  0.15000000000E+04  0.10566000000E+00 0.  1.
        994   -1    0    0    0    0 -0.00000000000E+00 -0.00000000000E+00  0.11368683772E-12  0.17120000000E+03  0.17120000000E+03 0.  0.
         13    1    1    2    0    0 -0.17696075579E+02 -0.12166776221E+02  0.11840239836E+03  0.12033420393E+03  0.10566000000E+00 0.  1.
        994    1    1    2    0    0  0.46566075678E+01 -0.29234677169E+02  0.52729949304E+01  0.17382058226E+03  0.17120000000E+03 0.  0.
        998    1    1    2    0    0  0.13039468011E+02  0.41401453389E+02  0.13763246030E+04  0.13770452138E+04  0.10000000000E+02 0.  1.
</event>
<event>
 5    1  0.1503263E-008  0.3829949E+03  0.7957747E-01  0.3438221E+00
         13   -1    0    0    0    0  0.00000000000E+00  0.00000000000E+00  0.14999999963E+04  0.15000000000E+04  0.10566000000E+00 0.  1.
        994   -1    0    0    0    0 -0.00000000000E+00 -0.00000000000E+00  0.11368683772E-12  0.17120000000E+03  0.17120000000E+03 0.  0.
         13    1    1    2    0    0  0.11033431113E+02  0.14286826167E+02  0.58640955814E+02  0.61356522610E+02  0.10566000000E+00 0.  1.
        994    1    1    2    0    0 -0.15872696762E+02 -0.13771065408E+02  0.40919752943E+01  0.17253338519E+03  0.17120000000E+03 0.  0.
        998    1    1    2    0    0  0.48392656499E+01 -0.51576075931E+00  0.14372670652E+04  0.14373100922E+04  0.10000000000E+02 0.  1.
</event>
<event>
 5    1  0.1503263E-008  0.3773167E+03  0.7957747E-01  0.3462926E+00
         13   -1    0    0    0    0  0.00000000000E+00  0.00000000000E+00  0.14999999963E+04  0.15000000000E+04  0.10566000000E+00 0.  1.
        994   -1    0    0    0    0 -0.00000000000E+00 -0.00000000000E+00  0.11368683772E-12  0.17120000000E+03  0.17120000000E+03 0.  0.
         13    1    1    2    0    0 -0.45837922732E+02  0.52308187251E+02  0.37553955469E+03  0.38192568638E+03  0.10566000000E+00 0.  1.
        994    1    1    2    0    0  0.28780862367E+02 -0.50019821045E+02  0.16810094205E+02  0.18144514268E+03  0.17120000000E+03 0.  0.
        998    1    1    2    0    0  0.17057060365E+02 -0.22883662061E+01  0.11076503474E+04  0.11078291709E+04  0.10000000000E+02 0.  1.
</event>
<event>
 5    1  0.1503263E-008  0.3776912E+03  0.7957747E-01  0.3461274E+00
         13   -1    0    0    0    0  0.00000000000E+00  0.00000000000E+00  0.14999999963E+04  0.15000000000E+04  0.10566000000E+00 0. -1.
        994   -1    0    0    0    0 -0.00000000000E+00 -0.00000000000E+00  0.11368683772E-12  0.17120000000E+03  0.17120000000E+03 0.  0.
         13    1    1    2    0    0 -0.83223628029E+01  0.88385652209E+01  0.11466343669E+02  0.16699405947E+02  0.10566000000E+00 0. -1.
        994    1    1    2    0    0  0.82039975439E+01 -0.81026734269E+01  0.57511968406E+01  0.17168423095E+03  0.17120000000E+03 0.  0.
        998    1    1    2    0    0  0.11836525905E+00 -0.73589179401E+00  0.14827824558E+04  0.14828163631E+04  0.10000000000E+02 0. -1.
</event>
<event>
 5    1  0.1503263E-008  0.3734781E+03  0.7957747E-01  0.3480057E+00
         13   -1    0    0    0    0  0.00000000000E+00  0.00000000000E+00  0.14999999963E+04  0.15000000000E+04  0.10566000000E+00 0. -1.
        994   -1    0    0    0    0 -0.00000000000E+00 -0.00000000000E+00  0.11368683772E-12  0.17120000000E+03  0.17120000000E+03 0.  0.
         13    1    1    2    0    0 -0.16774648643E+02  0.41453085335E+01  0.15995993519E+02  0.23546876494E+02  0.10566000000E+00 0. -1.
        994    1    1    2    0    0  0.32228792155E+02 -0.26525241497E+01  0.11043660724E+02  0.17457701272E+03  0.17120000000E+03 0.  0.
        998    1    1    2    0    0 -0.15454143512E+02 -0.14927843838E+01  0.14729603420E+04  0.14730761108E+04  0.10000000000E+02 0. -1.
</event>
<event>
 5    1  0.1503263E-008  0.3812486E+03  0.7957747E-01  0.3445740E+00
         13   -1    0    0    0    0  0.00000000000E+00  0.00000000000E+00  0.14999999963E+04  0.15000000000E+04  0.10566000000E+00 0.  1.
        994   -1    0    0    0    0 -0.00000000000E+00 -0.00000000000E+00  0.11368683772E-12  0.17120000000E+03  0.17120000000E+03 0.  0.
         13    1    1    2    0    0 -0.18021595310E+02 -0.29970224825E+02  0.17646248146E+03  0.17989444349E+03  0.10566000000E+00 0.  1.
        994    1    1    2    0    0  0.29875412285E+01  0.19308641400E+02  0.47761488300E+01  0.17237749457E+03  0.17120000000E+03 0.  0.
        998    1    1    2    0    0  0.15034054082E+02  0.10661583425E+02  0.13187613660E+04  0.13189280619E+04  0.10000000000E+02 0.  1.
</event>
<event>
 5    1  0.1503263E-008  0.3830143E+03  0.7957747E-01  0.3438138E+00
         13   -1    0    0    0    0  0.00000000000E+00  0.00000000000E+00  0.14999999963E+04  0.15000000000E+04  0.10566000000E+00 0.  1.
        994   -1    0    0    0    0 -0.00000000000E+00 -0.00000000000E+00  0.11368683772E-12  0.17120000000E+03  0.17120000000E+03 0.  0.
         13    1    1    2    0    0  0.16145365539E+02 -0.25010812268E+02  0.17321249911E+03  0.17575208270E+03  0.10566000000E+00 0.  1.
        994    1    1    2    0    0 -0.70987418448E+01  0.12395425752E+02  0.32948625939E+01  0.17182646721E+03  0.17120000000E+03 0.  0.
        998    1    1    2    0    0 -0.90466236947E+01  0.12615386516E+02  0.13234926346E+04  0.13236214501E+04  0.10000000000E+02 0.  1.
</event>
<event>
 5    1  0.1503263E-008  0.3747195E+03  0.7957747E-01  0.3474478E+00
         13   -1    0    0    0    0  0.00000000000E+00  0.00000000000E+00  0.14999999963E+04  0.15000000000E+04  0.10566000000E+00 0. -1.
        994   -1    0    0    0    0 -0.00000000000E+00 -0.00000000000E+00  0.11368683772E-12  0.17120000000E+03  0.17120000000E+03 0.  0.
         13    1    1    2    0    0  0.18521370257E+02 -0.26831961467E+02  0.71408511592E+02  0.78499566905E+02  0.10566000000E+00 0. -1.
        994    1    1    2    0    0 -0.22514431047E+02  0.27693629650E+02  0.11169279345E+02  0.17523706665E+03  0.17120000000E+03 0.  0.
        998    1    1    2    0    0  0.39930607908E+01 -0.86166818300E+00  0.14174222053E+04  0.14174633664E+04  0.10000000000E+02 0. -1.
</event>
<event>
 5    1  0.1503263E-008  0.3729985E+03  0.7957747E-01  0.3482223E+00
         13   -1    0    0    0    0  0.00000000000E+00  0.00000000000E+00  0.14999999963E+04  0.15000000000E+04  0.10566000000E+00 0.  1.
        994   -1    0    0    0    0 -0.00000000000E+00 -0.00000000000E+00  0.11368683772E-12  0.17120000000E+03  0.17120000000E+03 0.  0.
         13    1    1    2    0    0  0.93151724034E+02 -0.36574858088E+02  0.46321536752E+03  0.47390236527E+03  0.10566000000E+00 0.  1.
        994    1    1    2    0    0 -0.94948163214E+02  0.18900902300E+02  0.40498935148E+02  0.20080339029E+03  0.17120000000E+03 0.  0.
        998    1    1    2    0    0  0.17964391802E+01  0.17673955788E+02  0.99628569361E+03  0.99649424444E+03  0.10000000000E+02 0. -1.
</event>
<event>
 5    1  0.1503263E-008  0.3831044E+03  0.7957747E-01  0.3437752E+00
         13   -1    0    0    0    0  0.00000000000E+00  0.00000000000E+00  0.14999999963E+04  0.15000000000E+04  0.10566000000E+00 0. -1.
        994   -1    0    0    0    0 -0.00000000000E+00 -0.00000000000E+00  0.11368683772E-12  0.17120000000E+03  0.17120000000E+03 0.  0.
         13    1    1    2    0    0  0.23059281854E+02  0.68111657369E+00  0.92966307073E+02  0.95785906136E+02  0.10566000000E+00 0. -1.
        994    1    1    2    0    0 -0.31612282154E+02  0.16724084272E+02  0.68180390601E+01  0.17502844636E+03  0.17120000000E+03 0.  0.
        998    1    1    2    0    0  0.85530003009E+01 -0.17405200845E+02  0.14002156501E+04  0.14003856475E+04  0.10000000000E+02 0. -1.
</event>
<event>
 5    1  0.1503263E-008  0.3880692E+03  0.7957747E-01  0.3416759E+00
         13   -1    0    0    0    0  0.00000000000E+00  0.00000000000E+00  0.14999999963E+04  0.15000000000E+04  0.10566000000E+00 0.  1.
        994   -1    0    0    0    0 -0.00000000000E+00 -0.00000000000E+00  0.11368683772E-12  0.17120000000E+03  0.17120000000E+03 0.  0.
         13    1    1    2    0    0 -0.35844442874E+02 -0.14683900036E+02  0.27973813619E+02  0.47780607129E+02  0.10566000000E+00 0.  1.
        994    1    1    2    0    0  0.26402604103E+02  0.10397602468E+02  0.23844691966E+02  0.17516625524E+03  0.17120000000E+03 0.  0.
        998    1    1    2    0    0  0.94418387705E+01  0.42862975677E+01  0.14481814907E+04  0.14482531376E+04  0.10000000000E+02 0.  1.
</event>
<event>
 5    1  0.1503263E-008  0.3819508E+03  0.7957747E-01  0.3442708E+00
         13   -1    0    0    0    0  0.00000000000E+00  0.00000000000E+00  0.14999999963E+04  0.15000000000E+04  0.10566000000E+00 0.  1.
        994   -1    0    0    0    0 -0.00000000000E+00 -0.00000000000E+00  0.11368683772E-12  0.17120000000E+03  0.17120000000E+03 0.  0.
         13    1    1    2    0    0  0.61234742834E+01 -0.15879945197E+02  0.44055368686E+02  0.47228765291E+02  0.10566000000E+00 0.  1.
        994    1    1    2    0    0 -0.25595722875E+01  0.16018803804E+02  0.40261734708E+01  0.17201396327E+03  0.17120000000E+03 0.  0.
        998    1    1    2    0    0 -0.35639019959E+01 -0.13885860756E+00  0.14519184541E+04  0.14519572714E+04  0.10000000000E+02 0.  1.
</event>
<event>
 5    1  0.1503263E-008  0.3684664E+03  0.7957747E-01  0.3502969E+00
         13   -1    0    0    0    0  0.00000000000E+00  0.00000000000E+00  0.14999999963E+04  0.15000000000E+04  0.10566000000E+00 0.  1.
        994   -1    0    0    0    0 -0.00000000000E+00 -0.00000000000E+00  0.11368683772E-12  0.17120000000E+03  0.17120000000E+03 0.  0.
         13    1    1    2    0    0  0.42665295832E+01 -0.27641198137E+02  0.33920395948E+02  0.43964116441E+02  0.10566000000E+00 0.  1.
        994    1    1    2    0    0 -0.10075617850E+02  0.27847018242E+02  0.13127358296E+02  0.17423760224E+03  0.17120000000E+03 0.  0.
        998    1    1    2    0    0  0.58090882663E+01 -0.20582010442E+00  0.14529522420E+04  0.14529982813E+04  0.10000000000E+02 0.  1.
</event>
<event>
 5    1  0.1503263E-008  0.3837330E+03  0.7957747E-01  0.3435064E+00
         13   -1    0    0    0    0  0.00000000000E+00  0.00000000000E+00  0.14999999963E+04  0.15000000000E+04  0.10566000000E+00 0. -1.
        994   -1    0    0    0    0 -0.00000000000E+00 -0.00000000000E+00  0.11368683772E-12  0.17120000000E+03  0.17120000000E+03 0.  0.
         13    1    1    2    0    0 -0.35577216130E+02 -0.15399985191E+02  0.19997959588E+03  0.20370259641E+03  0.10566000000E+00 0. -1.
        994    1    1    2    0    0  0.76380348255E+02  0.23893568750E+02  0.23705742172E+02  0.19046328370E+03  0.17120000000E+03 0.  0.
        998    1    1    2    0    0 -0.40803132125E+02 -0.84935835591E+01  0.12763146582E+04  0.12770341199E+04  0.10000000000E+02 0. -1.
</event>
<event>
 5    1  0.1503263E-008  0.3852840E+03  0.7957747E-01  0.3428469E+00
         13   -1    0    0    0    0  0.00000000000E+00  0.00000000000E+00  0.14999999963E+04  0.15000000000E+04  0.10566000000E+00 0. -1.
        994   -1    0    0    0    0 -0.00000000000E+00 -0.00000000000E+00  0.11368683772E-12  0.17120000000E+03  0.17120000000E+03 0.  0.
         13    1    1    2    0    0 -0.77203199119E+01  0.95192327047E+01  0.49648139751E+02  0.51138714059E+02  0.10566000000E+00 0. -1.
        994    1    1    2    0    0  0.45293511974E+01 -0.10843449099E+02  0.19430533309E+01  0.17161384229E+03  0.17120000000E+03 0.  0.
        998    1    1    2    0    0  0.31909687145E+01  0.13242163938E+01  0.14484088032E+04  0.14484474436E+04  0.10000000000E+02 0. -1.
</event>
<event>
 5    1  0.1503263E-008  0.3852094E+03  0.7957747E-01  0.3428784E+00
         13   -1    0    0    0    0  0.00000000000E+00  0.00000000000E+00  0.14999999963E+04  0.15000000000E+04  0.10566000000E+00 0.  1.
        994   -1    0    0    0    0 -0.00000000000E+00 -0.00000000000E+00  0.11368683772E-12  0.17120000000E+03  0.17120000000E+03 0.  0.
         13    1    1    2    0    0 -0.25294310995E+01  0.13207589436E+02  0.61208542955E+02  0.62668455662E+02  0.10566000000E+00 0.  1.
        994    1    1    2    0    0  0.63105631353E+00 -0.40587278392E+01  0.15816413495E+01  0.17125657095E+03  0.17120000000E+03 0.  0.
        998    1    1    2    0    0  0.18983747860E+01 -0.91488615969E+01  0.14372098120E+04  0.14372749734E+04  0.10000000000E+02 0.  1.
</event>
<event>
 5    1  0.1503263E-008  0.3837376E+03  0.7957747E-01  0.3435044E+00
         13   -1    0    0    0    0  0.00000000000E+00  0.00000000000E+00  0.14999999963E+04  0.15000000000E+04  0.10566000000E+00 0.  1.
        994   -1    0    0    0    0 -0.00000000000E+00 -0.00000000000E+00  0.11368683772E-12  0.17120000000E+03  0.17120000000E+03 0.  0.
         13    1    1    2    0    0 -0.35684215994E+01  0.16177706087E+02  0.61225742475E+02  0.63427553260E+02  0.10566000000E+00 0.  1.
        994    1    1    2    0    0  0.44678932118E+01 -0.69617023709E+01  0.24841978774E+01  0.17141773131E+03  0.17120000000E+03 0.  0.
        998    1    1    2    0    0 -0.89947161240E+00 -0.92160037160E+01  0.14362900559E+04  0.14363547154E+04  0.10000000000E+02 0.  1.
</event>
<event>
 5    1  0.1503263E-008  0.3822433E+03  0.7957747E-01  0.3441448E+00
         13   -1    0    0    0    0  0.00000000000E+00  0.00000000000E+00  0.14999999963E+04  0.15000000000E+04  0.10566000000E+00 0.  1.
        994   -1    0    0    0    0 -0.00000000000E+00 -0.00000000000E+00  0.11368683772E-12  0.17120000000E+03  0.17120000000E+03 0.  0.
         13    1    1    2    0    0  0.21741495053E+02  0.78029483999E+01  0.89621372605E+02  0.92550419786E+02  0.10566000000E+00 0.  1.
        994    1    1    2    0    0 -0.13928612129E+02  0.64980777654E+01  0.37892886926E+01  0.17193030553E+03  0.17120000000E+03 0.  0.
        998    1    1    2    0    0 -0.78128829237E+01 -0.14301026165E+02  0.14065893350E+04  0.14067192747E+04  0.10000000000E+02 0.  1.
</event>
<event>
 5    1  0.1503263E-008  0.3736683E+03  0.7957747E-01  0.3479200E+00
         13   -1    0    0    0    0  0.00000000000E+00  0.00000000000E+00  0.14999999963E+04  0.15000000000E+04  0.10566000000E+00 0. -1.
        994   -1    0    0    0    0 -0.00000000000E+00 -0.00000000000E+00  0.11368683772E-12  0.17120000000E+03  0.17120000000E+03 0.  0.
         13    1    1    2    0    0  0.21381053324E+02 -0.20301800540E+02  0.58265017956E+02  0.65300352433E+02  0.10566000000E+00 0. -1.
        994    1    1    2    0    0 -0.11162721820E+02  0.59639973610E-01  0.77897641009E+01  0.17174029911E+03  0.17120000000E+03 0.  0.
        998    1    1    2    0    0 -0.10218331505E+02  0.20242160566E+02  0.14339452142E+04  0.14341593485E+04  0.10000000000E+02 0. -1.
</event>
<event>
 5    1  0.1503263E-008  0.3803847E+03  0.7957747E-01  0.3449485E+00
         13   -1    0    0    0    0  0.00000000000E+00  0.00000000000E+00  0.14999999963E+04  0.15000000000E+04  0.10566000000E+00 0. -1.
        994   -1    0    0    0    0 -0.00000000000E+00 -0.00000000000E+00  0.11368683772E-12  0.17120000000E+03  0.17120000000E+03 0.  0.
         13    1    1    2    0    0  0.15846625737E+03  0.48796279867E+02  0.91075597762E+03  0.92572625197E+03  0.10566000000E+00 0. -1.
        994    1    1    2    0    0 -0.16625102225E+03 -0.54680406101E+02  0.11406934906E+03  0.27009369783E+03  0.17120000000E+03 0.  0.
        998    1    1    2    0    0  0.77847648774E+01  0.58841262346E+01  0.47517466959E+03  0.47538005020E+03  0.10000000000E+02 0. -1.
</event>
<event>
 5    1  0.1503263E-008  0.3856526E+03  0.7957747E-01  0.3426909E+00
         13   -1    0    0    0    0  0.00000000000E+00  0.00000000000E+00  0.14999999963E+04  0.15000000000E+04  0.10566000000E+00 0.  1.
        994   -1    0    0    0    0 -0.00000000000E+00 -0.00000000000E+00  0.11368683772E-12  0.17120000000E+03  0.17120000000E+03 0.  0.
         13    1    1    2    0    0  0.76094322589E+01  0.92167004447E+01  0.63493612827E+02  0.64608831132E+02  0.10566000000E+00 0.  1.
        994    1    1    2    0    0  0.15875010939E+01  0.14129321160E+02  0.19701944993E+01  0.17180069715E+03  0.17120000000E+03 0.  0.
        998    1    1    2    0    0 -0.91969333528E+01 -0.23346021604E+02  0.14345361890E+04  0.14347904717E+04  0.10000000000E+02 0.  1.
</event>
<event>
 5    1  0.1503263E-008  0.3841829E+03  0.7957747E-01  0.3433145E+00
         13   -1    0    0    0    0  0.00000000000E+00  0.00000000000E+00  0.14999999963E+04  0.15000000000E+04  0.10566000000E+00 0. -1.
        994   -1    0    0    0    0 -0.00000000000E+00 -0.00000000000E+00  0.11368683772E-12  0.17120000000E+03  0.17120000000E+03 0.  0.
         13    1    1    2    0    0 -0.14127241923E+02 -0.85621713519E+01  0.67918997244E+02  0.69899149446E+02  0.10566000000E+00 0. -1.
        994    1    1    2    0    0  0.49067574890E+01  0.64437191454E+01  0.22526942660E+01  0.17140627881E+03  0.17120000000E+03 0.  0.
        998    1    1    2    0    0  0.92204844343E+01  0.21184522065E+01  0.14298283048E+04  0.14298945717E+04  0.10000000000E+02 0. -1.
</event>
<event>
 5    1  0.1503263E-008  0.3829899E+03  0.7957747E-01  0.3438242E+00
         13   -1    0    0    0    0  0.00000000000E+00  0.00000000000E+00  0.14999999963E+04  0.15000000000E+04  0.10566000000E+00 0.  1.
        994   -1    0    0    0    0 -0.00000000000E+00 -0.00000000000E+00  0.11368683772E-12  0.17120000000E+03  0.17120000000E+03 0.  0.
         13    1    1    2    0    0  0.13978627665E+02  0.13511264793E+02  0.68794674384E+02  0.71488983034E+02  0.10566000000E+00 0.  1.
        994    1    1    2    0    0 -0.10778767036E+02 -0.15735812136E+02  0.38365896628E+01  0.17230193563E+03  0.17120000000E+03 0.  0.
        998    1    1    2    0    0 -0.31998606284E+01  0.22245473430E+01  0.14273687322E+04  0.14274090813E+04  0.10000000000E+02 0.  1.
</event>
<event>
 5    1  0.1503263E-008  0.3845221E+03  0.7957747E-01  0.3431701E+00
         13   -1    0    0    0    0  0.00000000000E+00  0.00000000000E+00  0.14999999963E+04  0.15000000000E+04  0.10566000000E+00 0.  1.
        994   -1    0    0    0    0 -0.00000000000E+00 -0.00000000000E+00  0.11368683772E-12  0.17120000000E+03  0.17120000000E+03 0.  0.
         13    1    1    2    0    0 -0.11899273390E+02  0.26499419502E+01  0.39589044513E+02  0.41423646737E+02  0.10566000000E+00 0.  1.
        994    1    1    2    0    0  0.73114367763E+01 -0.16970702273E+01  0.20531672082E+01  0.17137675645E+03  0.17120000000E+03 0.  0.
        998    1    1    2    0    0  0.45878366133E+01 -0.95287172290E+00  0.14583577846E+04  0.14583995968E+04  0.10000000000E+02 0.  1.
</event>
<event>
 5    1  0.1503263E-008  0.3736345E+03  0.7957747E-01  0.3479353E+00
         13   -1    0    0    0    0  0.00000000000E+00  0.00000000000E+00  0.14999999963E+04  0.15000000000E+04  0.10566000000E+00 0. -1.
        994   -1    0    0    0    0 -0.00000000000E+00 -0.00000000000E+00  0.11368683772E-12  0.17120000000E+03  0.17120000000E+03 0.  0.
         13    1    1    2    0    0  0.21212771363E+02 -0.17549183586E+02  0.47020499284E+02  0.54487558492E+02  0.10566000000E+00 0. -1.
        994    1    1    2    0    0 -0.16864980741E+02  0.23881322798E+02  0.10306068063E+02  0.17398390786E+03  0.17120000000E+03 0.  0.
        998    1    1    2    0    0 -0.43477906216E+01 -0.63321392117E+01  0.14426734289E+04  0.14427285337E+04  0.10000000000E+02 0. -1.
</event>
<event>
 5    1  0.1503263E-008  0.3715963E+03  0.7957747E-01  0.3488587E+00
         13   -1    0    0    0    0  0.00000000000E+00  0.00000000000E+00  0.14999999963E+04  0.15000000000E+04  0.10566000000E+00 0.  1.
        994   -1    0    0    0    0 -0.00000000000E+00 -0.00000000000E+00  0.11368683772E-12  0.17120000000E+03  0.17120000000E+03 0.  0.
         13    1    1    2    0    0 -0.32764721459E+02  0.50151929901E+02  0.17525665855E+03  0.18521244714E+03  0.10566000000E+00 0.  1.
        994    1    1    2    0    0  0.39246705780E+02 -0.59606205392E+02  0.26160107249E+02  0.18731522855E+03  0.17120000000E+03 0.  0.
        998    1    1    2    0    0 -0.64819843204E+01  0.94542754907E+01  0.12985832305E+04  0.12986723243E+04  0.10000000000E+02 0.  1.
</event>
<event>
 5    1  0.1503263E-008  0.3782191E+03  0.7957747E-01  0.3458950E+00
         13   -1    0    0    0    0  0.00000000000E+00  0.00000000000E+00  0.14999999963E+04  0.15000000000E+04  0.10566000000E+00 0. -1.
        994   -1    0    0    0    0 -0.00000000000E+00 -0.00000000000E+00  0.11368683772E-12  0.17120000000E+03  0.17120000000E+03 0.  0.
         13    1    1    2    0    0  0.20956779718E+02 -0.21152353127E+01  0.40977792214E+02  0.46074412154E+02  0.10566000000E+00 0. -1.
        994    1    1    2    0    0 -0.22864816496E+02 -0.50023317336E+01  0.68791690127E+01  0.17292942526E+03  0.17120000000E+03 0.  0.
        998    1    1    2    0    0  0.19080367777E+01  0.71175670463E+01  0.14521430351E+04  0.14521961626E+04  0.10000000000E+02 0. -1.
</event>
<event>
 5    1  0.1503263E-008  0.3852097E+03  0.7957747E-01  0.3428784E+00
         13   -1    0    0    0    0  0.00000000000E+00  0.00000000000E+00  0.14999999963E+04  0.15000000000E+04  0.10566000000E+00 0.  1.
        994   -1    0    0    0    0 -0.00000000000E+00 -0.00000000000E+00  0.11368683772E-12  0.17120000000E+03  0.17120000000E+03 0.  0.
         13    1    1    2    0    0  0.12109028252E+02 -0.13891393570E+02  0.10512688815E+03  0.10672990751E+03  0.10566000000E+00 0.  1.
        994    1    1    2    0    0 -0.11522346895E+02  0.14964970593E+02  0.26992741864E+01  0.17225980641E+03  0.17120000000E+03 0.  0.
        998    1    1    2    0    0 -0.58668135675E+00 -0.10735770228E+01  0.13921738339E+04  0.13922102861E+04  0.10000000000E+02 0.  1.
</event>
<event>
 5    1  0.1503263E-008  0.3782696E+03  0.7957747E-01  0.3458728E+00
         13   -1    0    0    0    0  0.00000000000E+00  0.00000000000E+00  0.14999999963E+04  0.15000000000E+04  0.10566000000E+00 0.  1.
        994   -1    0    0    0    0 -0.00000000000E+00 -0.00000000000E+00  0.11368683772E-12  0.17120000000E+03  0.17120000000E+03 0.  0.
         13    1    1    2    0    0 -0.66927185870E+01 -0.89818809074E+01  0.10204958907E+02  0.15153185046E+02  0.10566000000E+00 0.  1.
        994    1    1    2    0    0  0.70980060256E+01  0.91228063326E+01  0.54585338671E+01  0.17167656473E+03  0.17120000000E+03 0.  0.
        998    1    1    2    0    0 -0.40528743863E+00 -0.14092542525E+00  0.14843365035E+04  0.14843702502E+04  0.10000000000E+02 0.  1.
</event>
<event>
 5    1  0.1503263E-008  0.3839251E+03  0.7957747E-01  0.3434244E+00
         13   -1    0    0    0    0  0.00000000000E+00  0.00000000000E+00  0.14999999963E+04  0.15000000000E+04  0.10566000000E+00 0.  1.
        994   -1    0    0    0    0 -0.00000000000E+00 -0.00000000000E+00  0.11368683772E-12  0.17120000000E+03  0.17120000000E+03 0.  0.
         13    1    1    2    0    0 -0.13930461315E+02 -0.27723421686E+01  0.49238273863E+02  0.51246096541E+02  0.10566000000E+00 0.  1.
        994    1    1    2    0    0 -0.43260274598E+01  0.13956722806E+01  0.22329218853E+01  0.17127489120E+03  0.17120000000E+03 0.  0.
        998    1    1    2    0    0  0.18256488775E+02  0.13766698880E+01  0.14485288005E+04  0.14486790123E+04  0.10000000000E+02 0.  1.
</event>
<event>
 5    1  0.1503263E-008  0.3810530E+03  0.7957747E-01  0.3446586E+00
         13   -1    0    0    0    0  0.00000000000E+00  0.00000000000E+00  0.14999999963E+04  0.15000000000E+04  0.10566000000E+00 0. -1.
        994   -1    0    0    0    0 -0.00000000000E+00 -0.00000000000E+00  0.11368683772E-12  0.17120000000E+03  0.17120000000E+03 0.  0.
         13    1    1    2    0    0 -0.13885892766E+02 -0.26748023256E+02  0.14765968058E+03  0.15070390572E+03  0.10566000000E+00 0. -1.
        994    1    1    2    0    0  0.41026402065E+01 -0.93677032297E+01  0.39510283151E+01  0.17155068098E+03  0.17120000000E+03 0.  0.
        998    1    1    2    0    0  0.97832525597E+01  0.36115726486E+02  0.13483892874E+04  0.13489454133E+04  0.10000000000E+02 0. -1.
</event>
<event>
 5    1  0.1503263E-008  0.3831848E+03  0.7957747E-01  0.3437407E+00
         13   -1    0    0    0    0  0.00000000000E+00  0.00000000000E+00  0.14999999963E+04  0.15000000000E+04  0.10566000000E+00 0. -1.
        994   -1    0    0    0    0 -0.00000000000E+00 -0.00000000000E+00  0.11368683772E-12  0.17120000000E+03  0.17120000000E+03 0.  0.
         13    1    1    2    0    0 -0.14949643141E+02 -0.10459961790E+02  0.63479798281E+02  0.66049970359E+02  0.10566000000E+00 0. -1.
        994    1    1    2    0    0  0.14494617202E+02  0.78648088400E+01  0.34341713750E+01  0.17202669176E+03  0.17120000000E+03 0.  0.
        998    1    1    2    0    0  0.45502593831E+00  0.25951529497E+01  0.14330860266E+04  0.14331233379E+04  0.10000000000E+02 0. -1.
</event>
<event>
 5    1  0.1503263E-008  0.3807704E+03  0.7957747E-01  0.3447811E+00
         13   -1    0    0    0    0  0.00000000000E+00  0.00000000000E+00  0.14999999963E+04  0.15000000000E+04  0.10566000000E+00 0. -1.
        994   -1    0    0    0    0 -0.00000000000E+00 -0.00000000000E+00  0.11368683772E-12  0.17120000000E+03  0.17120000000E+03 0.  0.
         13    1    1    2    0    0 -0.26958647480E+02 -0.18588708354E+02  0.13463981132E+03  0.13856478163E+03  0.10566000000E+00 0. -1.
        994    1    1    2    0    0  0.21441107909E+02  0.18089290505E+02  0.63731678613E+01  0.17360011753E+03  0.17120000000E+03 0.  0.
        998    1    1    2    0    0  0.55175395712E+01  0.49941784856E+00  0.13589870171E+04  0.13590351008E+04  0.10000000000E+02 0. -1.
</event>
<event>
 5    1  0.1503263E-008  0.3859576E+03  0.7957747E-01  0.3425621E+00
         13   -1    0    0    0    0  0.00000000000E+00  0.00000000000E+00  0.14999999963E+04  0.15000000000E+04  0.10566000000E+00 0.  1.
        994   -1    0    0    0    0 -0.00000000000E+00 -0.00000000000E+00  0.11368683772E-12  0.17120000000E+03  0.17120000000E+03 0.  0.
         13    1    1    2    0    0 -0.67640690129E+01  0.84187946200E+01  0.46204329166E+02  0.47449762172E+02  0.10566000000E+00 0.  1.
        994    1    1    2    0    0  0.18314490137E+02 -0.15146166534E+02  0.30094034004E+01  0.17286793635E+03  0.17120000000E+03 0.  0.
        998    1    1    2    0    0 -0.11550421124E+02  0.67273719142E+01  0.14507862637E+04  0.14508823015E+04  0.10000000000E+02 0.  1.
</event>
<event>
 5    1  0.1503263E-008  0.3857458E+03  0.7957747E-01  0.3426515E+00
         13   -1    0    0    0    0  0.00000000000E+00  0.00000000000E+00  0.14999999963E+04  0.15000000000E+04  0.10566000000E+00 0.  1.
        994   -1    0    0    0    0 -0.00000000000E+00 -0.00000000000E+00  0.11368683772E-12  0.17120000000E+03  0.17120000000E+03 0.  0.
         13    1    1    2    0    0  0.78751156183E+01  0.11319464085E+02  0.72857763596E+02  0.74151281806E+02  0.10566000000E+00 0.  1.
        994    1    1    2    0    0 -0.62449418285E+01 -0.13652149781E+02  0.20000543066E+01  0.17186861467E+03  0.17120000000E+03 0.  0.
        998    1    1    2    0    0 -0.16301737898E+01  0.23326856955E+01  0.14251421784E+04  0.14251801035E+04  0.10000000000E+02 0.  1.
</event>
<event>
 5    1  0.1503263E-008  0.3942516E+03  0.7957747E-01  0.3391358E+00
         13   -1    0    0    0    0  0.00000000000E+00  0.00000000000E+00  0.14999999963E+04  0.15000000000E+04  0.10566000000E+00 0.  1.
        994   -1    0    0    0    0 -0.00000000000E+00 -0.00000000000E+00  0.11368683772E-12  0.17120000000E+03  0.17120000000E+03 0.  0.
         13    1    1    2    0    0 -0.22672205237E+01  0.24700550457E+02  0.19517049744E+01  0.24881274046E+02  0.10566000000E+00 0.  1.
        994    1    1    2    0    0 -0.55997772385E+01 -0.28425327013E+02  0.27603929873E+02  0.17581460026E+03  0.17120000000E+03 0.  0.
        998    1    1    2    0    0  0.78669977621E+01  0.37247765555E+01  0.14704443614E+04  0.14705041257E+04  0.10000000000E+02 0.  1.
</event>
<event>
 5    1  0.1503263E-008  0.3802442E+03  0.7957747E-01  0.3450096E+00
         13   -1    0    0    0    0  0.00000000000E+00  0.00000000000E+00  0.14999999963E+04  0.15000000000E+04  0.10566000000E+00 0. -1.
        994   -1    0    0    0    0 -0.00000000000E+00 -0.00000000000E+00  0.11368683772E-12  0.17120000000E+03  0.17120000000E+03 0.  0.
         13    1    1    2    0    0  0.27306877340E+00  0.16840817337E+02  0.32232705133E+02  0.36368202312E+02  0.10566000000E+00 0. -1.
        994    1    1    2    0    0 -0.18757812272E+02 -0.25995530327E+02  0.74500460044E+01  0.17433463885E+03  0.17120000000E+03 0.  0.
        998    1    1    2    0    0  0.18484743498E+02  0.91547129900E+01  0.14603172451E+04  0.14604971588E+04  0.10000000000E+02 0. -1.
</event>
<event>
 5    1  0.1503263E-008  0.3842363E+03  0.7957747E-01  0.3432917E+00
         13   -1    0    0    0    0  0.00000000000E+00  0.00000000000E+00  0.14999999963E+04  0.15000000000E+04  0.10566000000E+00 0. -1.
        994   -1    0    0    0    0 -0.00000000000E+00 -0.00000000000E+00  0.11368683772E-12  0.17120000000E+03  0.17120000000E+03 0.  0.
         13    1    1    2    0    0 -0.34073628013E+01 -0.17373548783E+02  0.85866841114E+02  0.87673119515E+02  0.10566000000E+00 0. -1.
        994    1    1    2    0    0 -0.84071074015E+01 -0.19324865626E+01  0.22551245636E+01  0.17143202602E+03  0.17120000000E+03 0.  0.
        998    1    1    2    0    0  0.11814470203E+02  0.19306035346E+02  0.14118780306E+04  0.14120948545E+04  0.10000000000E+02 0. -1.
</event>
<event>
 5    1  0.1503263E-008  0.3805644E+03  0.7957747E-01  0.3448705E+00
         13   -1    0    0    0    0  0.00000000000E+00  0.00000000000E+00  0.14999999963E+04  0.15000000000E+04  0.10566000000E+00 0. -1.
        994   -1    0    0    0    0 -0.00000000000E+00 -0.00000000000E+00  0.11368683772E-12  0.17120000000E+03  0.17120000000E+03 0.  0.
         13    1    1    2    0    0 -0.17104854027E+02  0.31466135185E+01  0.39050598253E+02  0.42748539108E+02  0.10566000000E+00 0. -1.
        994    1    1    2    0    0  0.14312010845E+01 -0.64936649867E+01  0.39960849678E+01  0.17137568298E+03  0.17120000000E+03 0.  0.
        998    1    1    2    0    0  0.15673652942E+02  0.33470514682E+01  0.14569533131E+04  0.14570757779E+04  0.10000000000E+02 0. -1.
</event>
<event>
 5    1  0.1503263E-008  0.3852519E+03  0.7957747E-01  0.3428604E+00
         13   -1    0    0    0    0  0.00000000000E+00  0.00000000000E+00  0.14999999963E+04  0.15000000000E+04  0.10566000000E+00 0.  1.
        994   -1    0    0    0    0 -0.00000000000E+00 -0.00000000000E+00  0.11368683772E-12  0.17120000000E+03  0.17120000000E+03 0.  0.
         13    1    1    2    0    0  0.12496504981E+02  0.80748434364E+01  0.70884253992E+02  0.72428960791E+02  0.10566000000E+00 0.  1.
        994    1    1    2    0    0 -0.20773186882E+02  0.30254864234E+01  0.29545043846E+01  0.17250753015E+03  0.17120000000E+03 0.  0.
        998    1    1    2    0    0  0.82766819004E+01 -0.11100329860E+02  0.14261612379E+04  0.14262635091E+04  0.10000000000E+02 0.  1.
</event>
<event>
 5    1  0.1503263E-008  0.3848363E+03  0.7957747E-01  0.3430367E+00
         13   -1    0    0    0    0  0.00000000000E+00  0.00000000000E+00  0.14999999963E+04  0.15000000000E+04  0.10566000000E+00 0.  1.
        994   -1    0    0    0    0 -0.00000000000E+00 -0.00000000000E+00  0.11368683772E-12  0.17120000000E+03  0.17120000000E+03 0.  0.
         13    1    1    2    0    0 -0.13640279715E+02 -0.94858239909E+01  0.76223859367E+02  0.78013626940E+02  0.10566000000E+00 0.  1.
        994    1    1    2    0    0  0.11944706887E+02  0.16566123434E+02  0.30851102489E+01  0.17244149841E+03  0.17120000000E+03 0.  0.
        998    1    1    2    0    0  0.16955728281E+01 -0.70802994426E+01  0.14206910267E+04  0.14207448747E+04  0.10000000000E+02 0.  1.
</event>
<event>
 5    1  0.1503263E-008  0.3800754E+03  0.7957747E-01  0.3450830E+00
         13   -1    0    0    0    0  0.00000000000E+00  0.00000000000E+00  0.14999999963E+04  0.15000000000E+04  0.10566000000E+00 0. -1.
        994   -1    0    0    0    0 -0.00000000000E+00 -0.00000000000E+00  0.11368683772E-12  0.17120000000E+03  0.17120000000E+03 0.  0.
         13    1    1    2    0    0  0.27126475880E+02  0.80556892817E+01  0.94073292077E+02  0.98237137936E+02  0.10566000000E+00 0. -1.
        994    1    1    2    0    0 -0.21575838434E+02 -0.49361275466E+01  0.57340361117E+01  0.17272000848E+03  0.17120000000E+03 0.  0.
        998    1    1    2    0    0 -0.55506374463E+01 -0.31195617351E+01  0.14001926681E+04  0.14002428536E+04  0.10000000000E+02 0. -1.
</event>
<event>
 5    1  0.1503263E-008  0.3809887E+03  0.7957747E-01  0.3446865E+00
         13   -1    0    0    0    0  0.00000000000E+00  0.00000000000E+00  0.14999999963E+04  0.15000000000E+04  0.10566000000E+00 0. -1.
        994   -1    0    0    0    0 -0.00000000000E+00 -0.00000000000E+00  0.11368683772E-12  0.17120000000E+03  0.17120000000E+03 0.  0.
         13    1    1    2    0    0  0.17401309727E+02 -0.13017898053E+02  0.61472823373E+02  0.65201153574E+02  0.10566000000E+00 0. -1.
        994    1    1    2    0    0 -0.24863560848E+02  0.37739500350E+01  0.57450377825E+01  0.17313256429E+03  0.17120000000E+03 0.  0.
        998    1    1    2    0    0  0.74622511210E+01  0.92439480180E+01  0.14327821351E+04  0.14328662821E+04  0.10000000000E+02 0. -1.
</event>
<event>
 5    1  0.1503263E-008  0.3755152E+03  0.7957747E-01  0.3470922E+00
         13   -1    0    0    0    0  0.00000000000E+00  0.00000000000E+00  0.14999999963E+04  0.15000000000E+04  0.10566000000E+00 0.  1.
        994   -1    0    0    0    0 -0.00000000000E+00 -0.00000000000E+00  0.11368683772E-12  0.17120000000E+03  0.17120000000E+03 0.  0.
         13    1    1    2    0    0 -0.89577893850E+00  0.20881591626E+02  0.95468259890E+01  0.22978170929E+02  0.10566000000E+00 0.  1.
        994    1    1    2    0    0 -0.12928353757E+01 -0.19811307104E+02  0.15291618011E+02  0.17302437081E+03  0.17120000000E+03 0.  0.
        998    1    1    2    0    0  0.21886143143E+01 -0.10702845222E+01  0.14751615523E+04  0.14751974583E+04  0.10000000000E+02 0.  1.
</event>
<event>
 5    1  0.1503263E-008  0.3844172E+03  0.7957747E-01  0.3432148E+00
         13   -1    0    0    0    0  0.00000000000E+00  0.00000000000E+00  0.14999999963E+04  0.15000000000E+04  0.10566000000E+00 0.  1.
        994   -1    0    0    0    0 -0.00000000000E+00 -0.00000000000E+00  0.11368683772E-12  0.17120000000E+03  0.17120000000E+03 0.  0.
         13    1    1    2    0    0 -0.10276346342E+02  0.16157205074E+02  0.95390520473E+02  0.97293479382E+02  0.10566000000E+00 0.  1.
        994    1    1    2    0    0 -0.76141304237E+01 -0.19480209578E+02  0.33624286745E+01  0.17250565056E+03  0.17120000000E+03 0.  0.
        998    1    1    2    0    0  0.17890476766E+02  0.33230045033E+01  0.14012470471E+04  0.14014008701E+04  0.10000000000E+02 0.  1.
</event>
<event>
 5    1  0.1503263E-008  0.3804961E+03  0.7957747E-01  0.3449001E+00
         13   -1    0    0    0    0  0.00000000000E+00  0.00000000000E+00  0.14999999963E+04  0.15000000000E+04  0.10566000000E+00 0.  1.
        994   -1    0    0    0    0 -0.00000000000E+00 -0.00000000000E+00  0.11368683772E-12  0.17120000000E+03  0.17120000000E+03 0.  0.
         13    1    1    2    0    0  0.21190611501E+01 -0.12406901635E+02  0.18043755228E+02  0.22000224888E+02  0.10566000000E+00 0.  1.
        994    1    1    2    0    0  0.10964994236E+01  0.24334488392E+02  0.58657765854E+01  0.17302374684E+03  0.17120000000E+03 0.  0.
        998    1    1    2    0    0 -0.32155605737E+01 -0.11927586757E+02  0.14760904645E+04  0.14761760283E+04  0.10000000000E+02 0.  1.
</event>
<event>
 5    1  0.1503263E-008  0.3857082E+03  0.7957747E-01  0.3426674E+00
         13   -1    0    0    0    0  0.00000000000E+00  0.00000000000E+00  0.14999999963E+04  0.15000000000E+04  0.10566000000E+00 0. -1.
        994   -1    0    0    0    0 -0.00000000000E+00 -0.00000000000E+00  0.11368683772E-12  0.17120000000E+03  0.17120000000E+03 0.  0.
         13    1    1    2    0    0  0.11631452378E+01  0.14074538563E+02  0.81318965967E+02  0.82536240117E+02  0.10566000000E+00 0. -1.
        994    1    1    2    0    0  0.53781596660E+00 -0.49934752625E+01  0.13617252822E+01  0.17127906567E+03  0.17120000000E+03 0.  0.
        998    1    1    2    0    0 -0.17009612044E+01 -0.90810633006E+01  0.14173193050E+04  0.14173846942E+04  0.10000000000E+02 0. -1.
</event>
<event>
 5    1  0.1503263E-008  0.3851274E+03  0.7957747E-01  0.3429132E+00
         13   -1    0    0    0    0  0.00000000000E+00  0.00000000000E+00  0.14999999963E+04  0.15000000000E+04  0.10566000000E+00 0.  1.
        994   -1    0    0    0    0 -0.00000000000E+00 -0.00000000000E+00  0.11368683772E-12  0.17120000000E+03  0.17120000000E+03 0.  0.
         13    1    1    2    0    0 -0.13326861725E+02  0.10827931455E+02  0.95172170787E+02  0.96708854814E+02  0.10566000000E+00 0.  1.
        994    1    1    2    0    0  0.55819127142E+01 -0.86451752644E+01  0.19150866080E+01  0.17151969089E+03  0.17120000000E+03 0.  0.
        998    1    1    2    0    0  0.77449490106E+01 -0.21827561903E+01  0.14029127389E+04  0.14029714543E+04  0.10000000000E+02 0.  1.
</event>
<event>
 5    1  0.1503263E-008  0.3822953E+03  0.7957747E-01  0.3441225E+00
         13   -1    0    0    0    0  0.00000000000E+00  0.00000000000E+00  0.14999999963E+04  0.15000000000E+04  0.10566000000E+00 0.  1.
        994   -1    0    0    0    0 -0.00000000000E+00 -0.00000000000E+00  0.11368683772E-12  0.17120000000E+03  0.17120000000E+03 0.  0.
         13    1    1    2    0    0 -0.18811443105E+02  0.25762569688E+02  0.17239798037E+03  0.17532442839E+03  0.10566000000E+00 0.  1.
        994    1    1    2    0    0  0.15265203575E+02 -0.98133596256E+01  0.40723591033E+01  0.17220729536E+03  0.17120000000E+03 0.  0.
        998    1    1    2    0    0  0.35462395307E+01 -0.15949210062E+02  0.13235296568E+04  0.13236682763E+04  0.10000000000E+02 0.  1.
</event>
<event>
 5    1  0.1503263E-008  0.3813222E+03  0.7957747E-01  0.3445421E+00
         13   -1    0    0    0    0  0.00000000000E+00  0.00000000000E+00  0.14999999963E+04  0.15000000000E+04  0.10566000000E+00 0.  1.
        994   -1    0    0    0    0 -0.00000000000E+00 -0.00000000000E+00  0.11368683772E-12  0.17120000000E+03  0.17120000000E+03 0.  0.
         13    1    1    2    0    0  0.10528598188E+01  0.31117990679E+02  0.13913922247E+03  0.14258040626E+03  0.10566000000E+00 0.  1.
        994    1    1    2    0    0 -0.11328380845E+01 -0.17927875513E+02  0.45419513562E+01  0.17219977167E+03  0.17120000000E+03 0.  0.
        998    1    1    2    0    0  0.79978265644E-01 -0.13190115166E+02  0.13563188225E+04  0.13564198221E+04  0.10000000000E+02 0.  1.
</event>
<event>
 5    1  0.1503263E-008  0.3799120E+03  0.7957747E-01  0.3451542E+00
         13   -1    0    0    0    0  0.00000000000E+00  0.00000000000E+00  0.14999999963E+04  0.15000000000E+04  0.10566000000E+00 0. -1.
        994   -1    0    0    0    0 -0.00000000000E+00 -0.00000000000E+00  0.11368683772E-12  0.17120000000E+03  0.17120000000E+03 0.  0.
         13    1    1    2    0    0  0.28127371742E+02  0.16232852440E+02  0.12081530482E+03  0.12510397109E+03  0.10566000000E+00 0. -1.
        994    1    1    2    0    0  0.18837081985E+01 -0.58650894211E+02  0.15779362188E+02  0.18166426181E+03  0.17120000000E+03 0.  0.
        998    1    1    2    0    0 -0.30011079941E+02  0.42418041771E+02  0.13634053293E+04  0.13644317671E+04  0.10000000000E+02 0. -1.
</event>
<event>
 5    1  0.1503263E-008  0.3771498E+03  0.7957747E-01  0.3463664E+00
         13   -1    0    0    0    0  0.00000000000E+00  0.00000000000E+00  0.14999999963E+04  0.15000000000E+04  0.10566000000E+00 0.  1.
        994   -1    0    0    0    0 -0.00000000000E+00 -0.00000000000E+00  0.11368683772E-12  0.17120000000E+03  0.17120000000E+03 0.  0.
         13    1    1    2    0    0  0.19655191391E+02 -0.18930315986E+02  0.62676648260E+02  0.68359760189E+02  0.10566000000E+00 0.  1.
        994    1    1    2    0    0 -0.24829368460E+02  0.11461298805E+02  0.81068171933E+01  0.17355984384E+03  0.17120000000E+03 0.  0.
        998    1    1    2    0    0  0.51741770687E+01  0.74690171803E+01  0.14292165308E+04  0.14292803960E+04  0.10000000000E+02 0.  1.
</event>
<event>
 5    1  0.1503263E-008  0.3730591E+03  0.7957747E-01  0.3481949E+00
         13   -1    0    0    0    0  0.00000000000E+00  0.00000000000E+00  0.14999999963E+04  0.15000000000E+04  0.10566000000E+00 0.  1.
        994   -1    0    0    0    0 -0.00000000000E+00 -0.00000000000E+00  0.11368683772E-12  0.17120000000E+03  0.17120000000E+03 0.  0.
         13    1    1    2    0    0 -0.78883459894E+02  0.43862744683E+02  0.32627008785E+03  0.33852433001E+03  0.10566000000E+00 0.  1.
        994    1    1    2    0    0  0.13416382287E+03 -0.11834345295E+02  0.72541665561E+02  0.22959032283E+03  0.17120000000E+03 0.  0.
        998    1    1    2    0    0 -0.55280362974E+02 -0.32028399389E+02  0.11011882429E+04  0.11030853472E+04  0.10000000000E+02 0.  1.
</event>
<event>
 5    1  0.1503263E-008  0.3828703E+03  0.7957747E-01  0.3438755E+00
         13   -1    0    0    0    0  0.00000000000E+00  0.00000000000E+00  0.14999999963E+04  0.15000000000E+04  0.10566000000E+00 0.  1.
        994   -1    0    0    0    0 -0.00000000000E+00 -0.00000000000E+00  0.11368683772E-12  0.17120000000E+03  0.17120000000E+03 0.  0.
         13    1    1    2    0    0 -0.22559433549E+02 -0.88290690669E+01  0.10630410837E+03  0.10902960664E+03  0.10566000000E+00 0.  1.
        994    1    1    2    0    0  0.15611349747E+02  0.87594449709E+01  0.37530704287E+01  0.17217423633E+03  0.17120000000E+03 0.  0.
        998    1    1    2    0    0  0.69480838024E+01  0.69624095987E-01  0.13899428175E+04  0.13899961570E+04  0.10000000000E+02 0.  1.
</event>
<event>
 5    1  0.1503263E-008  0.3785867E+03  0.7957747E-01  0.3457335E+00
         13   -1    0    0    0    0  0.00000000000E+00  0.00000000000E+00  0.14999999963E+04  0.15000000000E+04  0.10566000000E+00 0.  1.
        994   -1    0    0    0    0 -0.00000000000E+00 -0.00000000000E+00  0.11368683772E-12  0.17120000000E+03  0.17120000000E+03 0.  0.
         13    1    1    2    0    0 -0.11583240715E+02  0.88224280342E+00  0.11455020219E+02  0.16314976864E+02  0.10566000000E+00 0.  1.
        994    1    1    2    0    0  0.19202557680E+02 -0.10352776635E+02  0.64483033929E+01  0.17270477359E+03  0.17120000000E+03 0.  0.
        998    1    1    2    0    0 -0.76193169651E+01  0.94705338312E+01  0.14820966727E+04  0.14821802495E+04  0.10000000000E+02 0.  1.
</event>
<event>
 5    1  0.1503263E-008  0.3822242E+03  0.7957747E-01  0.3441531E+00
         13   -1    0    0    0    0  0.00000000000E+00  0.00000000000E+00  0.14999999963E+04  0.15000000000E+04  0.10566000000E+00 0.  1.
        994   -1    0    0    0    0 -0.00000000000E+00 -0.00000000000E+00  0.11368683772E-12  0.17120000000E+03  0.17120000000E+03 0.  0.
         13    1    1    2    0    0  0.17258820323E+02  0.10706831230E+02  0.71240911592E+02  0.74079563730E+02  0.10566000000E+00 0.  1.
        994    1    1    2    0    0 -0.21488185912E+01 -0.58367938245E+00  0.30310247081E+01  0.17124130697E+03  0.17120000000E+03 0.  0.
        998    1    1    2    0    0 -0.15110001731E+02 -0.10123151847E+02  0.14257280600E+04  0.14258791293E+04  0.10000000000E+02 0.  1.
</event>
<event>
 5    1  0.1503263E-008  0.3852148E+03  0.7957747E-01  0.3428762E+00
         13   -1    0    0    0    0  0.00000000000E+00  0.00000000000E+00  0.14999999963E+04  0.15000000000E+04  0.10566000000E+00 0.  1.
        994   -1    0    0    0    0 -0.00000000000E+00 -0.00000000000E+00  0.11368683772E-12  0.17120000000E+03  0.17120000000E+03 0.  0.
         13    1    1    2    0    0  0.12218373372E+02  0.15040253416E+01  0.50965934704E+02  0.52431749964E+02  0.10566000000E+00 0.  1.
        994    1    1    2    0    0 -0.42547756156E+01 -0.17288368139E+00  0.15831409209E+01  0.17126026784E+03  0.17120000000E+03 0.  0.
        998    1    1    2    0    0 -0.79635977561E+01 -0.13311416602E+01  0.14474509207E+04  0.14475079822E+04  0.10000000000E+02 0.  1.
</event>
<event>
 5    1  0.1503263E-008  0.3845695E+03  0.7957747E-01  0.3431500E+00
         13   -1    0    0    0    0  0.00000000000E+00  0.00000000000E+00  0.14999999963E+04  0.15000000000E+04  0.10566000000E+00 0. -1.
        994   -1    0    0    0    0 -0.00000000000E+00 -0.00000000000E+00  0.11368683772E-12  0.17120000000E+03  0.17120000000E+03 0.  0.
         13    1    1    2    0    0 -0.12706660595E+02  0.20877845534E+01  0.44998830634E+02  0.46805170551E+02  0.10566000000E+00 0. -1.
        994    1    1    2    0    0  0.56152742415E+01 -0.10880576801E+02  0.23378816615E+01  0.17165320838E+03  0.17120000000E+03 0.  0.
        998    1    1    2    0    0  0.70913863532E+01  0.87927922473E+01  0.14526632840E+04  0.14527416211E+04  0.10000000000E+02 0. -1.
</event>
<event>
 5    1  0.1503263E-008  0.3719619E+03  0.7957747E-01  0.3486923E+00
         13   -1    0    0    0    0  0.00000000000E+00  0.00000000000E+00  0.14999999963E+04  0.15000000000E+04  0.10566000000E+00 0. -1.
        994   -1    0    0    0    0 -0.00000000000E+00 -0.00000000000E+00  0.11368683772E-12  0.17120000000E+03  0.17120000000E+03 0.  0.
         13    1    1    2    0    0  0.56571818879E+02 -0.87907131620E+02  0.61488996852E+03  0.62371284982E+03  0.10566000000E+00 0. -1.
        994    1    1    2    0    0 -0.40953675002E+02  0.54101773393E+02  0.24229633949E+02  0.18574369583E+03  0.17120000000E+03 0.  0.
        998    1    1    2    0    0 -0.15618143877E+02  0.33805358227E+02  0.86088039381E+03  0.86174345434E+03  0.10000000000E+02 0. -1.
</event>
<event>
 5    1  0.1503263E-008  0.3809838E+03  0.7957747E-01  0.3446886E+00
         13   -1    0    0    0    0  0.00000000000E+00  0.00000000000E+00  0.14999999963E+04  0.15000000000E+04  0.10566000000E+00 0. -1.
        994   -1    0    0    0    0 -0.00000000000E+00 -0.00000000000E+00  0.11368683772E-12  0.17120000000E+03  0.17120000000E+03 0.  0.
         13    1    1    2    0    0 -0.31053505423E+02  0.15947544446E+02  0.20270297824E+03  0.20568702663E+03  0.10566000000E+00 0. -1.
        994    1    1    2    0    0  0.85033908755E+01  0.22841757768E+02  0.56193026589E+01  0.17301754280E+03  0.17120000000E+03 0.  0.
        998    1    1    2    0    0  0.22550114547E+02 -0.38789302214E+02  0.12916777154E+04  0.12924954306E+04  0.10000000000E+02 0. -1.
</event>
<event>
 5    1  0.1503263E-008  0.3820297E+03  0.7957747E-01  0.3442368E+00
         13   -1    0    0    0    0  0.00000000000E+00  0.00000000000E+00  0.14999999963E+04  0.15000000000E+04  0.10566000000E+00 0. -1.
        994   -1    0    0    0    0 -0.00000000000E+00 -0.00000000000E+00  0.11368683772E-12  0.17120000000E+03  0.17120000000E+03 0.  0.
         13    1    1    2    0    0  0.68772530482E+01 -0.16810905922E+02  0.52244917550E+02  0.55312256700E+02  0.10566000000E+00 0. -1.
        994    1    1    2    0    0 -0.63031392068E+00  0.11181544191E+02  0.35286377916E+01  0.17160220136E+03  0.17120000000E+03 0.  0.
        998    1    1    2    0    0 -0.62469391275E+01  0.56293617313E+01  0.14442264409E+04  0.14442855419E+04  0.10000000000E+02 0. -1.
</event>
<event>
 5    1  0.1503263E-008  0.3808971E+03  0.7957747E-01  0.3447262E+00
         13   -1    0    0    0    0  0.00000000000E+00  0.00000000000E+00  0.14999999963E+04  0.15000000000E+04  0.10566000000E+00 0. -1.
        994   -1    0    0    0    0 -0.00000000000E+00 -0.00000000000E+00  0.11368683772E-12  0.17120000000E+03  0.17120000000E+03 0.  0.
         13    1    1    2    0    0  0.35308993046E+02  0.56633691658E+02  0.35537927902E+03  0.36159168014E+03  0.10566000000E+00 0. -1.
        994    1    1    2    0    0 -0.41831022414E+02 -0.81319999609E+02  0.32076245244E+02  0.19672595732E+03  0.17120000000E+03 0.  0.
        998    1    1    2    0    0  0.65220293685E+01  0.24686307952E+02  0.11125444720E+04  0.11128823625E+04  0.10000000000E+02 0.  0.
</event>
<event>
 5    1  0.1503263E-008  0.3695740E+03  0.7957747E-01  0.3497851E+00
         13   -1    0    0    0    0  0.00000000000E+00  0.00000000000E+00  0.14999999963E+04  0.15000000000E+04  0.10566000000E+00 0. -1.
        994   -1    0    0    0    0 -0.00000000000E+00 -0.00000000000E+00  0.11368683772E-12  0.17120000000E+03  0.17120000000E+03 0.  0.
         13    1    1    2    0    0  0.23544095844E+02  0.18199854596E+02  0.38966805855E+02  0.49030421975E+02  0.10566000000E+00 0. -1.
        994    1    1    2    0    0 -0.45171058762E+02 -0.32213593785E+02  0.20227427762E+02  0.18109867202E+03  0.17120000000E+03 0.  0.
        998    1    1    2    0    0  0.21626962918E+02  0.14013739189E+02  0.14408057627E+04  0.14410709060E+04  0.10000000000E+02 0. -1.
</event>
<event>
 5    1  0.1503263E-008  0.3699848E+03  0.7957747E-01  0.3495961E+00
         13   -1    0    0    0    0  0.00000000000E+00  0.00000000000E+00  0.14999999963E+04  0.15000000000E+04  0.10566000000E+00 0.  1.
        994   -1    0    0    0    0 -0.00000000000E+00 -0.00000000000E+00  0.11368683772E-12  0.17120000000E+03  0.17120000000E+03 0.  0.
         13    1    1    2    0    0  0.17088024881E+02 -0.71948236097E+02  0.23617968369E+03  0.24748616815E+03  0.10566000000E+00 0.  1.
        994    1    1    2    0    0 -0.17688813913E+02  0.48967746303E+02  0.20467774359E+02  0.18010858975E+03  0.17120000000E+03 0.  0.
        998    1    1    2    0    0  0.60078903199E+00  0.22980489794E+02  0.12433525382E+04  0.12436052421E+04  0.10000000000E+02 0.  1.
</event>
<event>
 5    1  0.1503263E-008  0.3775128E+03  0.7957747E-01  0.3462060E+00
         13   -1    0    0    0    0  0.00000000000E+00  0.00000000000E+00  0.14999999963E+04  0.15000000000E+04  0.10566000000E+00 0. -1.
        994   -1    0    0    0    0 -0.00000000000E+00 -0.00000000000E+00  0.11368683772E-12  0.17120000000E+03  0.17120000000E+03 0.  0.
         13    1    1    2    0    0  0.11032713898E+02  0.32862158978E+02  0.10089131777E+03  0.10668041729E+03  0.10566000000E+00 0. -1.
        994    1    1    2    0    0  0.37002872968E+02 -0.54918726920E+02  0.20320702281E+02  0.18468256581E+03  0.17120000000E+03 0.  0.
        998    1    1    2    0    0 -0.48035586865E+02  0.22056567942E+02  0.13787879762E+04  0.13798370169E+04  0.10000000000E+02 0. -1.
</event>
<event>
 5    1  0.1503263E-008  0.3739865E+03  0.7957747E-01  0.3477768E+00
         13   -1    0    0    0    0  0.00000000000E+00  0.00000000000E+00  0.14999999963E+04  0.15000000000E+04  0.10566000000E+00 0. -1.
        994   -1    0    0    0    0 -0.00000000000E+00 -0.00000000000E+00  0.11368683772E-12  0.17120000000E+03  0.17120000000E+03 0.  0.
         13    1    1    2    0    0 -0.10392260362E+02 -0.85967737760E+01  0.93178315969E+01  0.16393192016E+02  0.10566000000E+00 0. -1.
        994    1    1    2    0    0  0.95324158808E+01  0.90870832617E+01  0.77919107022E+01  0.17188250611E+03  0.17120000000E+03 0.  0.
        998    1    1    2    0    0  0.85984448093E+00 -0.49030948567E+00  0.14828902540E+04  0.14829243019E+04  0.10000000000E+02 0. -1.
</event>
<event>
 5    1  0.1503263E-008  0.3699915E+03  0.7957747E-01  0.3495930E+00
         13   -1    0    0    0    0  0.00000000000E+00  0.00000000000E+00  0.14999999963E+04  0.15000000000E+04  0.10566000000E+00 0. -1.
        994   -1    0    0    0    0 -0.00000000000E+00 -0.00000000000E+00  0.11368683772E-12  0.17120000000E+03  0.17120000000E+03 0.  0.
         13    1    1    2    0    0  0.12514256686E+02 -0.71464836985E+02  0.32702818692E+03  0.33497951542E+03  0.10566000000E+00 0. -1.
        994    1    1    2    0    0  0.23916141663E+02  0.25850600100E+02  0.13574076219E+02  0.17531095489E+03  0.17120000000E+03 0.  0.
        998    1    1    2    0    0 -0.36430398350E+02  0.45614236885E+02  0.11593977331E+04  0.11609095297E+04  0.10000000000E+02 0. -1.
</event>
<event>
 5    1  0.2042447E-008  0.3862167E+03  0.7957747E-01  0.3424528E+00
         13   -1    0    0    0    0  0.00000000000E+00  0.00000000000E+00  0.14999999963E+04  0.15000000000E+04  0.10566000000E+00 0. -1.
        994   -1    0    0    0    0 -0.00000000000E+00 -0.00000000000E+00  0.11368683772E-12  0.17120000000E+03  0.17120000000E+03 0.  0.
         13    1    1    2    0    0  0.57965028469E+01 -0.87178458436E+01  0.54151823963E+02  0.55154614349E+02  0.10566000000E+00 0. -1.
        994    1    1    2    0    0 -0.67049395459E+01  0.41285965149E+01  0.12303724744E+01  0.17138540002E+03  0.17120000000E+03 0.  0.
        998    1    1    2    0    0  0.90843669891E+00  0.45892493287E+01  0.14446177998E+04  0.14446599856E+04  0.10000000000E+02 0.  0.
</event>
<event>
 5    1  0.1503263E-008  0.3783566E+03  0.7957747E-01  0.3458345E+00
         13   -1    0    0    0    0  0.00000000000E+00  0.00000000000E+00  0.14999999963E+04  0.15000000000E+04  0.10566000000E+00 0.  1.
        994   -1    0    0    0    0 -0.00000000000E+00 -0.00000000000E+00  0.11368683772E-12  0.17120000000E+03  0.17120000000E+03 0.  0.
         13    1    1    2    0    0 -0.17145265742E+02 -0.78119801791E+01  0.36154278925E+02  0.40769231294E+02  0.10566000000E+00 0.  1.
        994    1    1    2    0    0 -0.64395446364E+01 -0.87045472797E+01  0.53591562261E+01  0.17162574817E+03  0.17120000000E+03 0.  0.
        998    1    1    2    0    0  0.23584810378E+02  0.16516527459E+02  0.14584865611E+04  0.14588050205E+04  0.10000000000E+02 0.  1.
</event>
<event>
 5    1  0.1503263E-008  0.3712042E+03  0.7957747E-01  0.3490375E+00
         13   -1    0    0    0    0  0.00000000000E+00  0.00000000000E+00  0.14999999963E+04  0.15000000000E+04  0.10566000000E+00 0. -1.
        994   -1    0    0    0    0 -0.00000000000E+00 -0.00000000000E+00  0.11368683772E-12  0.17120000000E+03  0.17120000000E+03 0.  0.
         13    1    1    2    0    0 -0.34616681507E+02  0.27501911511E+02  0.13058375750E+03  0.13786514665E+03  0.10566000000E+00 0. -1.
        994    1    1    2    0    0 -0.15279905121E+01  0.16985439585E+02  0.96430640362E+01  0.17231734851E+03  0.17120000000E+03 0.  0.
        998    1    1    2    0    0  0.36144672019E+02 -0.44487351095E+02  0.13597731747E+04  0.13610175048E+04  0.10000000000E+02 0. -1.
</event>
<event>
 5    1  0.1787303E-008  0.3858966E+03  0.7957747E-01  0.3425878E+00
         13   -1    0    0    0    0  0.00000000000E+00  0.00000000000E+00  0.14999999963E+04  0.15000000000E+04  0.10566000000E+00 0. -1.
        994   -1    0    0    0    0 -0.00000000000E+00 -0.00000000000E+00  0.11368683772E-12  0.17120000000E+03  0.17120000000E+03 0.  0.
         13    1    1    2    0    0  0.98008767946E+01  0.92003320609E+01  0.72848048517E+02  0.74078017203E+02  0.10566000000E+00 0. -1.
        994    1    1    2    0    0 -0.82870628873E+01 -0.14571848667E+02  0.21076511206E+01  0.17203167260E+03  0.17120000000E+03 0.  0.
        998    1    1    2    0    0 -0.15138139073E+01  0.53715166063E+01  0.14250442966E+04  0.14250903102E+04  0.10000000000E+02 0.  0.
</event>
<event>
 5    1  0.1503263E-008  0.3718887E+03  0.7957747E-01  0.3487256E+00
         13   -1    0    0    0    0  0.00000000000E+00  0.00000000000E+00  0.14999999963E+04  0.15000000000E+04  0.10566000000E+00 0.  1.
        994   -1    0    0    0    0 -0.00000000000E+00 -0.00000000000E+00  0.11368683772E-12  0.17120000000E+03  0.17120000000E+03 0.  0.
         13    1    1    2    0    0 -0.30423470175E+02  0.35797745941E+02  0.14645922513E+03  0.15380956388E+03  0.10566000000E+00 0.  1.
        994    1    1    2    0    0  0.22504611166E+02  0.13945828405E+02  0.10696890602E+02  0.17356499394E+03  0.17120000000E+03 0.  0.
        998    1    1    2    0    0  0.79188590089E+01 -0.49743574346E+02  0.13428438805E+04  0.13438254422E+04  0.10000000000E+02 0.  1.
</event>
<event>
 5    1  0.1503263E-008  0.3850609E+03  0.7957747E-01  0.3429414E+00
         13   -1    0    0    0    0  0.00000000000E+00  0.00000000000E+00  0.14999999963E+04  0.15000000000E+04  0.10566000000E+00 0. -1.
        994   -1    0    0    0    0 -0.00000000000E+00 -0.00000000000E+00  0.11368683772E-12  0.17120000000E+03  0.17120000000E+03 0.  0.
         13    1    1    2    0    0  0.66092478831E+01  0.12457915739E+02  0.61786389776E+02  0.63375475917E+02  0.10566000000E+00 0. -1.
        994    1    1    2    0    0 -0.46293651498E+01 -0.92934970013E+01  0.19544280543E+01  0.17152568291E+03  0.17120000000E+03 0.  0.
        998    1    1    2    0    0 -0.19798827333E+01 -0.31644187374E+01  0.14362591784E+04  0.14362988412E+04  0.10000000000E+02 0. -1.
</event>
<event>
 5    1  0.1503263E-008  0.3815067E+03  0.7957747E-01  0.3444624E+00
         13   -1    0    0    0    0  0.00000000000E+00  0.00000000000E+00  0.14999999963E+04  0.15000000000E+04  0.10566000000E+00 0.  1.
        994   -1    0    0    0    0 -0.00000000000E+00 -0.00000000000E+00  0.11368683772E-12  0.17120000000E+03  0.17120000000E+03 0.  0.
         13    1    1    2    0    0  0.26207035157E+02  0.12611403649E+01  0.10650189329E+03  0.10968620517E+03  0.10566000000E+00 0.  1.
        994    1    1    2    0    0 -0.63541008823E+01 -0.10938342443E+02  0.39069595969E+01  0.17171117106E+03  0.17120000000E+03 0.  0.
        998    1    1    2    0    0 -0.19852934274E+02  0.96772020778E+01  0.13895911434E+04  0.13898026238E+04  0.10000000000E+02 0.  1.
</event>
<event>
 5    1  0.1503263E-008  0.3813397E+03  0.7957747E-01  0.3445346E+00
         13   -1    0    0    0    0  0.00000000000E+00  0.00000000000E+00  0.14999999963E+04  0.15000000000E+04  0.10566000000E+00 0. -1.
        994   -1    0    0    0    0 -0.00000000000E+00 -0.00000000000E+00  0.11368683772E-12  0.17120000000E+03  0.17120000000E+03 0.  0.
         13    1    1    2    0    0 -0.32015825258E+02 -0.27488595174E+02  0.24104750916E+03  0.24471319697E+03  0.10566000000E+00 0. -1.
        994    1    1    2    0    0  0.28987453776E+02  0.14215324152E+02  0.69352656249E+01  0.17435563033E+03  0.17120000000E+03 0.  0.
        998    1    1    2    0    0  0.30283714820E+01  0.13273271022E+02  0.12520172215E+04  0.12521311727E+04  0.10000000000E+02 0. -1.
</event>
<event>
 5    1  0.1503263E-008  0.3798773E+03  0.7957747E-01  0.3451693E+00
         13   -1    0    0    0    0  0.00000000000E+00  0.00000000000E+00  0.14999999963E+04  0.15000000000E+04  0.10566000000E+00 0. -1.
        994   -1    0    0    0    0 -0.00000000000E+00 -0.00000000000E+00  0.11368683772E-12  0.17120000000E+03  0.17120000000E+03 0.  0.
         13    1    1    2    0    0 -0.10004083524E+02 -0.18512438519E+01  0.10456070883E+02  0.14589358221E+02  0.10566000000E+00 0. -1.
        994    1    1    2    0    0  0.78490863461E+01  0.38177804274E+01  0.44499186320E+01  0.17148010199E+03  0.17120000000E+03 0.  0.
        998    1    1    2    0    0  0.21549971775E+01 -0.19665365755E+01  0.14850940068E+04  0.14851305398E+04  0.10000000000E+02 0. -1.
</event>
<event>
 5    1  0.1503263E-008  0.3863491E+03  0.7957747E-01  0.3423970E+00
         13   -1    0    0    0    0  0.00000000000E+00  0.00000000000E+00  0.14999999963E+04  0.15000000000E+04  0.10566000000E+00 0.  1.
        994   -1    0    0    0    0 -0.00000000000E+00 -0.00000000000E+00  0.11368683772E-12  0.17120000000E+03  0.17120000000E+03 0.  0.
         13    1    1    2    0    0 -0.36850403511E+02  0.49714285411E+02  0.90731918890E+02  0.10982602006E+03  0.10566000000E+00 0.  1.
        994    1    1    2    0    0  0.27546793626E+02 -0.28847482998E+02  0.25785179674E+02  0.17766631252E+03  0.17120000000E+03 0.  0.
        998    1    1    2    0    0  0.93036098851E+01 -0.20866802412E+02  0.13834828977E+04  0.13837076674E+04  0.10000000000E+02 0.  1.
</event>
<event>
 5    1  0.1503263E-008  0.2727809E+03  0.7957747E-01  0.4111798E+00
         13   -1    0    0    0    0  0.00000000000E+00  0.00000000000E+00  0.14999999963E+04  0.15000000000E+04  0.10566000000E+00 0. -1.
        994   -1    0    0    0    0 -0.00000000000E+00 -0.00000000000E+00  0.11368683772E-12  0.17120000000E+03  0.17120000000E+03 0.  0.
         13    1    1    2    0    0 -0.13009316735E+03  0.13593135825E+03  0.42599593344E+03  0.46569744773E+03  0.10566000000E+00 0. -1.
        994    1    1    2    0    0  0.12282436821E+03 -0.13868157361E+03  0.17639366067E+03  0.30780280669E+03  0.17120000000E+03 0.  0.
        998    1    1    2    0    0  0.72687991417E+01  0.27502153607E+01  0.89761040217E+03  0.89769974558E+03  0.10000000000E+02 0. -1.
</event>
<event>
 5    1  0.1503263E-008  0.3851185E+03  0.7957747E-01  0.3429170E+00
         13   -1    0    0    0    0  0.00000000000E+00  0.00000000000E+00  0.14999999963E+04  0.15000000000E+04  0.10566000000E+00 0.  1.
        994   -1    0    0    0    0 -0.00000000000E+00 -0.00000000000E+00  0.11368683772E-12  0.17120000000E+03  0.17120000000E+03 0.  0.
         13    1    1    2    0    0 -0.29661928608E+01  0.15552184488E+02  0.78722497436E+02  0.80298888591E+02  0.10566000000E+00 0.  1.
        994    1    1    2    0    0  0.84547680274E+01 -0.11054554348E+02  0.22082984234E+01  0.17177893601E+03  0.17120000000E+03 0.  0.
        998    1    1    2    0    0 -0.54885751667E+01 -0.44976301395E+01  0.14190692004E+04  0.14191221754E+04  0.10000000000E+02 0.  1.
</event>
<event>
 5    1  0.1503263E-008  0.3737373E+03  0.7957747E-01  0.3478889E+00
         13   -1    0    0    0    0  0.00000000000E+00  0.00000000000E+00  0.14999999963E+04  0.15000000000E+04  0.10566000000E+00 0. -1.
        994   -1    0    0    0    0 -0.00000000000E+00 -0.00000000000E+00  0.11368683772E-12  0.17120000000E+03  0.17120000000E+03 0.  0.
         13    1    1    2    0    0 -0.25867541760E+02 -0.34161223422E+02  0.10591903168E+03  0.11425835347E+03  0.10566000000E+00 0. -1.
        994    1    1    2    0    0  0.33258584967E+02  0.51813749256E+02  0.20381828572E+02  0.18307281891E+03  0.17120000000E+03 0.  0.
        998    1    1    2    0    0 -0.73910432071E+01 -0.17652525834E+02  0.13736991360E+04  0.13738688276E+04  0.10000000000E+02 0. -1.
</event>
<event>
 5    1  0.1503263E-008  0.3841108E+03  0.7957747E-01  0.3433452E+00
         13   -1    0    0    0    0  0.00000000000E+00  0.00000000000E+00  0.14999999963E+04  0.15000000000E+04  0.10566000000E+00 0. -1.
        994   -1    0    0    0    0 -0.00000000000E+00 -0.00000000000E+00  0.11368683772E-12  0.17120000000E+03  0.17120000000E+03 0.  0.
         13    1    1    2    0    0 -0.65516389767E+01  0.98272389137E+01  0.34974140606E+02  0.36914770392E+02  0.10566000000E+00 0. -1.
        994    1    1    2    0    0  0.16602504901E+01  0.66198210474E+01  0.22258797302E+01  0.17135043917E+03  0.17120000000E+03 0.  0.
        998    1    1    2    0    0  0.48913884865E+01 -0.16447059961E+02  0.14627999759E+04  0.14629347904E+04  0.10000000000E+02 0. -1.
</event>
<event>
 5    1  0.1503263E-008  0.3721305E+03  0.7957747E-01  0.3486156E+00
         13   -1    0    0    0    0  0.00000000000E+00  0.00000000000E+00  0.14999999963E+04  0.15000000000E+04  0.10566000000E+00 0.  1.
        994   -1    0    0    0    0 -0.00000000000E+00 -0.00000000000E+00  0.11368683772E-12  0.17120000000E+03  0.17120000000E+03 0.  0.
         13    1    1    2    0    0 -0.58272311456E+02 -0.34529838864E+02  0.18877541555E+03  0.20055956904E+03  0.10566000000E+00 0.  1.
        994    1    1    2    0    0  0.94516739295E+02  0.63981863068E+02  0.54291946302E+02  0.21280072425E+03  0.17120000000E+03 0.  0.
        998    1    1    2    0    0 -0.36244427839E+02 -0.29452024205E+02  0.12569326344E+04  0.12578397067E+04  0.10000000000E+02 0.  1.
</event>
<event>
 5    1  0.1503263E-008  0.3844691E+03  0.7957747E-01  0.3431927E+00
         13   -1    0    0    0    0  0.00000000000E+00  0.00000000000E+00  0.14999999963E+04  0.15000000000E+04  0.10566000000E+00 0. -1.
        994   -1    0    0    0    0 -0.00000000000E+00 -0.00000000000E+00  0.11368683772E-12  0.17120000000E+03  0.17120000000E+03 0.  0.
         13    1    1    2    0    0 -0.12926297225E+02  0.13556875591E+02  0.10325210489E+03  0.10493753553E+03  0.10566000000E+00 0. -1.
        994    1    1    2    0    0 -0.26573191874E+01  0.11989116515E+01  0.19219689170E+01  0.17123560582E+03  0.17120000000E+03 0.  0.
        998    1    1    2    0    0  0.15583616412E+02 -0.14755787242E+02  0.13948259225E+04  0.13950268587E+04  0.10000000000E+02 0. -1.
</event>
<event>
 5    1  0.1503263E-008  0.3718263E+03  0.7957747E-01  0.3487539E+00
         13   -1    0    0    0    0  0.00000000000E+00  0.00000000000E+00  0.14999999963E+04  0.15000000000E+04  0.10566000000E+00 0.  1.
        994   -1    0    0    0    0 -0.00000000000E+00 -0.00000000000E+00  0.11368683772E-12  0.17120000000E+03  0.17120000000E+03 0.  0.
         13    1    1    2    0    0 -0.91928343738E+02  0.64502051983E+02  0.59512608390E+03  0.60562893094E+03  0.10566000000E+00 0.  1.
        994    1    1    2    0    0  0.61065739125E+02 -0.68047719678E+02  0.37612548039E+02  0.19769587861E+03  0.17120000000E+03 0.  0.
        998    1    1    2    0    0  0.30862604613E+02  0.35456676946E+01  0.86726136434E+03  0.86787519045E+03  0.10000000000E+02 0.  1.
</event>
<event>
 5    1  0.1503263E-008  0.3843830E+03  0.7957747E-01  0.3432293E+00
         13   -1    0    0    0    0  0.00000000000E+00  0.00000000000E+00  0.14999999963E+04  0.15000000000E+04  0.10566000000E+00 0. -1.
        994   -1    0    0    0    0 -0.00000000000E+00 -0.00000000000E+00  0.11368683772E-12  0.17120000000E+03  0.17120000000E+03 0.  0.
         13    1    1    2    0    0 -0.15319666069E+02 -0.55435127543E+01  0.65492003772E+02  0.67488046528E+02  0.10566000000E+00 0. -1.
        994    1    1    2    0    0  0.15502425812E+02  0.92196147214E+01  0.30095169787E+01  0.17217381826E+03  0.17120000000E+03 0.  0.
        998    1    1    2    0    0 -0.18275974282E+00 -0.36761019671E+01  0.14314984755E+04  0.14315381352E+04  0.10000000000E+02 0. -1.
</event>
<event>
 5    1  0.1503263E-008  0.3765473E+03  0.7957747E-01  0.3466332E+00
         13   -1    0    0    0    0  0.00000000000E+00  0.00000000000E+00  0.14999999963E+04  0.15000000000E+04  0.10566000000E+00 0. -1.
        994   -1    0    0    0    0 -0.00000000000E+00 -0.00000000000E+00  0.11368683772E-12  0.17120000000E+03  0.17120000000E+03 0.  0.
         13    1    1    2    0    0 -0.72928291270E+01 -0.16351252161E+02  0.24491162942E+02  0.30337716298E+02  0.10566000000E+00 0. -1.
        994    1    1    2    0    0  0.81877475420E+01  0.14568593451E+02  0.68312709117E+01  0.17214932294E+03  0.17120000000E+03 0.  0.
        998    1    1    2    0    0 -0.89491841500E+00  0.17826587098E+01  0.14686775624E+04  0.14687129608E+04  0.10000000000E+02 0. -1.
</event>
<event>
 5    1  0.1503263E-008  0.3764624E+03  0.7957747E-01  0.3466708E+00
         13   -1    0    0    0    0  0.00000000000E+00  0.00000000000E+00  0.14999999963E+04  0.15000000000E+04  0.10566000000E+00 0. -1.
        994   -1    0    0    0    0 -0.00000000000E+00 -0.00000000000E+00  0.11368683772E-12  0.17120000000E+03  0.17120000000E+03 0.  0.
         13    1    1    2    0    0 -0.62573132521E+02 -0.56830168644E+02  0.24807683634E+03  0.26208241619E+03  0.10566000000E+00 0. -1.
        994    1    1    2    0    0  0.52719683643E+02  0.12712157675E+02  0.24993667876E+02  0.18131488474E+03  0.17120000000E+03 0.  0.
        998    1    1    2    0    0  0.98534488782E+01  0.44118010969E+02  0.12269294921E+04  0.12278026991E+04  0.10000000000E+02 0. -1.
</event>
<event>
 5    1  0.2253019E-008  0.3858689E+03  0.7957747E-01  0.3425995E+00
         13   -1    0    0    0    0  0.00000000000E+00  0.00000000000E+00  0.14999999963E+04  0.15000000000E+04  0.10566000000E+00 0. -1.
        994   -1    0    0    0    0 -0.00000000000E+00 -0.00000000000E+00  0.11368683772E-12  0.17120000000E+03  0.17120000000E+03 0.  0.
         13    1    1    2    0    0  0.73954351185E+01  0.87472883831E+01  0.55759464503E+02  0.56923954188E+02  0.10566000000E+00 0. -1.
        994    1    1    2    0    0 -0.18241970898E+01 -0.67003514172E+01  0.13575018882E+01  0.17134615612E+03  0.17120000000E+03 0.  0.
        998    1    1    2    0    0 -0.55712380287E+01 -0.20469369658E+01  0.14428830299E+04  0.14429298897E+04  0.10000000000E+02 0. -1.
</event>
<event>
 5    1  0.1503263E-008  0.3837042E+03  0.7957747E-01  0.3435186E+00
         13   -1    0    0    0    0  0.00000000000E+00  0.00000000000E+00  0.14999999963E+04  0.15000000000E+04  0.10566000000E+00 0. -1.
        994   -1    0    0    0    0 -0.00000000000E+00 -0.00000000000E+00  0.11368683772E-12  0.17120000000E+03  0.17120000000E+03 0.  0.
         13    1    1    2    0    0 -0.11735562263E+02 -0.12031247771E+02  0.62666994877E+02  0.64881721274E+02  0.10566000000E+00 0. -1.
        994    1    1    2    0    0  0.10320251239E+02  0.59133321045E+00  0.26278069756E+01  0.17153192889E+03  0.17120000000E+03 0.  0.
        998    1    1    2    0    0  0.14153110242E+01  0.11439914560E+02  0.14347051944E+04  0.14347863498E+04  0.10000000000E+02 0. -1.
</event>
<event>
 5    1  0.1503263E-008  0.3796727E+03  0.7957747E-01  0.3452585E+00
         13   -1    0    0    0    0  0.00000000000E+00  0.00000000000E+00  0.14999999963E+04  0.15000000000E+04  0.10566000000E+00 0.  1.
        994   -1    0    0    0    0 -0.00000000000E+00 -0.00000000000E+00  0.11368683772E-12  0.17120000000E+03  0.17120000000E+03 0.  0.
         13    1    1    2    0    0 -0.15228459873E+02 -0.60142894291E+02  0.10578765185E+03  0.12263813506E+03  0.10566000000E+00 0.  1.
        994    1    1    2    0    0  0.10228277357E+02  0.62682423093E+02  0.30894906355E+02  0.18519621773E+03  0.17120000000E+03 0.  0.
        998    1    1    2    0    0  0.50001825158E+01 -0.25395288023E+01  0.13633174381E+04  0.13633656472E+04  0.10000000000E+02 0.  1.
</event>
<event>
 5    1  0.1503263E-008  0.3806093E+03  0.7957747E-01  0.3448510E+00
         13   -1    0    0    0    0  0.00000000000E+00  0.00000000000E+00  0.14999999963E+04  0.15000000000E+04  0.10566000000E+00 0. -1.
        994   -1    0    0    0    0 -0.00000000000E+00 -0.00000000000E+00  0.11368683772E-12  0.17120000000E+03  0.17120000000E+03 0.  0.
         13    1    1    2    0    0  0.43182500833E+02 -0.19964338102E+02  0.25457157591E+03  0.25897876670E+03  0.10566000000E+00 0. -1.
        994    1    1    2    0    0 -0.47554892479E+02  0.35750694819E+01  0.11450804673E+02  0.17808652349E+03  0.17120000000E+03 0.  0.
        998    1    1    2    0    0  0.43723916461E+01  0.16389268621E+02  0.12339776157E+04  0.12341347098E+04  0.10000000000E+02 0. -1.
</event>
<event>
 5    1  0.1503263E-008  0.3852116E+03  0.7957747E-01  0.3428775E+00
         13   -1    0    0    0    0  0.00000000000E+00  0.00000000000E+00  0.14999999963E+04  0.15000000000E+04  0.10566000000E+00 0. -1.
        994   -1    0    0    0    0 -0.00000000000E+00 -0.00000000000E+00  0.11368683772E-12  0.17120000000E+03  0.17120000000E+03 0.  0.
         13    1    1    2    0    0 -0.28549994144E+01  0.15664526063E+02  0.88744718473E+02  0.90161880079E+02  0.10566000000E+00 0. -1.
        994    1    1    2    0    0 -0.69717832762E+00 -0.23168650340E+01  0.15443486460E+01  0.17122406062E+03  0.17120000000E+03 0.  0.
        998    1    1    2    0    0  0.35521777420E+01 -0.13347661029E+02  0.14097109292E+04  0.14098140593E+04  0.10000000000E+02 0. -1.
</event>
<event>
 5    1  0.1503263E-008  0.3813806E+03  0.7957747E-01  0.3445169E+00
         13   -1    0    0    0    0  0.00000000000E+00  0.00000000000E+00  0.14999999963E+04  0.15000000000E+04  0.10566000000E+00 0. -1.
        994   -1    0    0    0    0 -0.00000000000E+00 -0.00000000000E+00  0.11368683772E-12  0.17120000000E+03  0.17120000000E+03 0.  0.
         13    1    1    2    0    0 -0.11243390685E+02  0.17405025606E+01  0.17181295515E+02  0.20607068275E+02  0.10566000000E+00 0. -1.
        994    1    1    2    0    0  0.13036865193E+02 -0.34606896022E+00  0.40040149903E+01  0.17174269054E+03  0.17120000000E+03 0.  0.
        998    1    1    2    0    0 -0.17934745079E+01 -0.13944336004E+01  0.14788146858E+04  0.14788502412E+04  0.10000000000E+02 0. -1.
</event>
<event>
 5    1  0.1503263E-008  0.3838743E+03  0.7957747E-01  0.3434461E+00
         13   -1    0    0    0    0  0.00000000000E+00  0.00000000000E+00  0.14999999963E+04  0.15000000000E+04  0.10566000000E+00 0. -1.
        994   -1    0    0    0    0 -0.00000000000E+00 -0.00000000000E+00  0.11368683772E-12  0.17120000000E+03  0.17120000000E+03 0.  0.
         13    1    1    2    0    0  0.11300685686E+01  0.19184934480E+02  0.80161093285E+02  0.82432704715E+02  0.10566000000E+00 0. -1.
        994    1    1    2    0    0 -0.39228462114E+01 -0.19479604970E+02  0.34944222111E+01  0.17238472879E+03  0.17120000000E+03 0.  0.
        998    1    1    2    0    0  0.27927776429E+01  0.29467049089E+00  0.14163444808E+04  0.14163825665E+04  0.10000000000E+02 0. -1.
</event>
<event>
 5    1  0.1503263E-008  0.3844235E+03  0.7957747E-01  0.3432121E+00
         13   -1    0    0    0    0  0.00000000000E+00  0.00000000000E+00  0.14999999963E+04  0.15000000000E+04  0.10566000000E+00 0.  1.
        994   -1    0    0    0    0 -0.00000000000E+00 -0.00000000000E+00  0.11368683772E-12  0.17120000000E+03  0.17120000000E+03 0.  0.
         13    1    1    2    0    0 -0.16120616062E+02  0.10385155942E+02  0.86087760901E+02  0.88197729376E+02  0.10566000000E+00 0.  1.
        994    1    1    2    0    0  0.23328401175E+02 -0.15799056765E+02  0.45364892926E+01  0.17356222006E+03  0.17120000000E+03 0.  0.
        998    1    1    2    0    0 -0.72077851136E+01  0.54139008231E+01  0.14093757461E+04  0.14094400506E+04  0.10000000000E+02 0.  1.
</event>
<event>
 5    1  0.1503263E-008  0.3832162E+03  0.7957747E-01  0.3437273E+00
         13   -1    0    0    0    0  0.00000000000E+00  0.00000000000E+00  0.14999999963E+04  0.15000000000E+04  0.10566000000E+00 0. -1.
        994   -1    0    0    0    0 -0.00000000000E+00 -0.00000000000E+00  0.11368683772E-12  0.17120000000E+03  0.17120000000E+03 0.  0.
         13    1    1    2    0    0  0.88986160392E+00  0.12381924012E+02  0.27782253993E+02  0.30429733763E+02  0.10566000000E+00 0. -1.
        994    1    1    2    0    0  0.40342653666E+00 -0.27909413260E+02  0.50997201077E+01  0.17353542937E+03  0.17120000000E+03 0.  0.
        998    1    1    2    0    0 -0.12932881406E+01  0.15527489248E+02  0.14671180222E+04  0.14672348369E+04  0.10000000000E+02 0. -1.
</event>
<event>
 5    1  0.1503263E-008  0.3692384E+03  0.7957747E-01  0.3499398E+00
         13   -1    0    0    0    0  0.00000000000E+00  0.00000000000E+00  0.14999999963E+04  0.15000000000E+04  0.10566000000E+00 0. -1.
        994   -1    0    0    0    0 -0.00000000000E+00 -0.00000000000E+00  0.11368683772E-12  0.17120000000E+03  0.17120000000E+03 0.  0.
         13    1    1    2    0    0  0.82752586160E+01  0.26594506518E+02  0.32899696812E+02  0.43106251246E+02  0.10566000000E+00 0. -1.
        994    1    1    2    0    0 -0.87646854983E+01 -0.13206057590E+02  0.11413074567E+02  0.17231052765E+03  0.17120000000E+03 0.  0.
        998    1    1    2    0    0  0.48942688235E+00 -0.13388448928E+02  0.14556872249E+04  0.14557832211E+04  0.10000000000E+02 0. -1.
</event>
<event>
 5    1  0.1503263E-008  0.3808640E+03  0.7957747E-01  0.3447405E+00
         13   -1    0    0    0    0  0.00000000000E+00  0.00000000000E+00  0.14999999963E+04  0.15000000000E+04  0.10566000000E+00 0.  1.
        994   -1    0    0    0    0 -0.00000000000E+00 -0.00000000000E+00  0.11368683772E-12  0.17120000000E+03  0.17120000000E+03 0.  0.
         13    1    1    2    0    0 -0.20860160250E+02 -0.69862621858E+02  0.43850077070E+03  0.44452094359E+03  0.10566000000E+00 0.  1.
        994    1    1    2    0    0  0.13993914697E+02  0.84308552342E+02  0.28440158135E+02  0.19344778169E+03  0.17120000000E+03 0.  0.
        998    1    1    2    0    0  0.68662455534E+01 -0.14445930484E+02  0.10330590674E+04  0.10332312747E+04  0.10000000000E+02 0.  1.
</event>
<event>
 5    1  0.1503263E-008  0.3832587E+03  0.7957747E-01  0.3437091E+00
         13   -1    0    0    0    0  0.00000000000E+00  0.00000000000E+00  0.14999999963E+04  0.15000000000E+04  0.10566000000E+00 0.  1.
        994   -1    0    0    0    0 -0.00000000000E+00 -0.00000000000E+00  0.11368683772E-12  0.17120000000E+03  0.17120000000E+03 0.  0.
         13    1    1    2    0    0  0.32497271030E+02 -0.54240622827E+01  0.18007184057E+03  0.18306111549E+03  0.10566000000E+00 0.  1.
        994    1    1    2    0    0 -0.36960206423E+02  0.42362870681E+02  0.13021577830E+02  0.18066452657E+03  0.17120000000E+03 0.  0.
        998    1    1    2    0    0  0.44629353931E+01 -0.36938808399E+02  0.13069065779E+04  0.13074743579E+04  0.10000000000E+02 0.  1.
</event>
<event>
 5    1  0.1503263E-008  0.3799028E+03  0.7957747E-01  0.3451582E+00
         13   -1    0    0    0    0  0.00000000000E+00  0.00000000000E+00  0.14999999963E+04  0.15000000000E+04  0.10566000000E+00 0. -1.
        994   -1    0    0    0    0 -0.00000000000E+00 -0.00000000000E+00  0.11368683772E-12  0.17120000000E+03  0.17120000000E+03 0.  0.
         13    1    1    2    0    0  0.43199091867E+02  0.35286861903E+02  0.31200438017E+03  0.31695120850E+03  0.10566000000E+00 0. -1.
        994    1    1    2    0    0 -0.27554591429E+02 -0.46889461750E+02  0.14137526112E+02  0.18018653328E+03  0.17120000000E+03 0.  0.
        998    1    1    2    0    0 -0.15644500438E+02  0.11602599846E+02  0.11738580900E+04  0.11740622582E+04  0.10000000000E+02 0. -1.
</event>
<event>
 5    1  0.1503263E-008  0.3786936E+03  0.7957747E-01  0.3456867E+00
         13   -1    0    0    0    0  0.00000000000E+00  0.00000000000E+00  0.14999999963E+04  0.15000000000E+04  0.10566000000E+00 0. -1.
        994   -1    0    0    0    0 -0.00000000000E+00 -0.00000000000E+00  0.11368683772E-12  0.17120000000E+03  0.17120000000E+03 0.  0.
         13    1    1    2    0    0  0.12875362921E+02  0.28434843502E+02  0.12135874462E+03  0.12530870423E+03  0.10566000000E+00 0. -1.
        994    1    1    2    0    0  0.46725611724E+02 -0.48235495514E+01  0.12238318457E+02  0.17794877313E+03  0.17120000000E+03 0.  0.
        998    1    1    2    0    0 -0.59600974646E+02 -0.23611293951E+02  0.13664029332E+04  0.13679425226E+04  0.10000000000E+02 0. -1.
</event>
<event>
 5    1  0.1503263E-008  0.3690233E+03  0.7957747E-01  0.3500392E+00
         13   -1    0    0    0    0  0.00000000000E+00  0.00000000000E+00  0.14999999963E+04  0.15000000000E+04  0.10566000000E+00 0. -1.
        994   -1    0    0    0    0 -0.00000000000E+00 -0.00000000000E+00  0.11368683772E-12  0.17120000000E+03  0.17120000000E+03 0.  0.
         13    1    1    2    0    0  0.67259600216E+02 -0.69645514150E+02  0.32866340679E+03  0.34262807472E+03  0.10566000000E+00 0. -1.
        994    1    1    2    0    0 -0.67070460613E+02  0.91531951823E+02  0.55883072809E+02  0.21285887982E+03  0.17120000000E+03 0.  0.
        998    1    1    2    0    0 -0.18913960270E+00 -0.21886437673E+02  0.11154535167E+04  0.11157130455E+04  0.10000000000E+02 0. -1.
</event>
<event>
 5    1  0.1503263E-008  0.3785080E+03  0.7957747E-01  0.3457681E+00
         13   -1    0    0    0    0  0.00000000000E+00  0.00000000000E+00  0.14999999963E+04  0.15000000000E+04  0.10566000000E+00 0.  1.
        994   -1    0    0    0    0 -0.00000000000E+00 -0.00000000000E+00  0.11368683772E-12  0.17120000000E+03  0.17120000000E+03 0.  0.
         13    1    1    2    0    0 -0.11494773967E+02  0.34885877215E+01  0.12507289349E+02  0.17341958474E+02  0.10566000000E+00 0.  1.
        994    1    1    2    0    0  0.11818700001E+02 -0.25327743617E+01  0.53791753019E+01  0.17171043108E+03  0.17120000000E+03 0.  0.
        998    1    1    2    0    0 -0.32392603470E+00 -0.95581335978E+00  0.14821135316E+04  0.14821476104E+04  0.10000000000E+02 0.  1.
</event>
<event>
 5    1  0.1503263E-008  0.3846854E+03  0.7957747E-01  0.3431008E+00
         13   -1    0    0    0    0  0.00000000000E+00  0.00000000000E+00  0.14999999963E+04  0.15000000000E+04  0.10566000000E+00 0.  1.
        994   -1    0    0    0    0 -0.00000000000E+00 -0.00000000000E+00  0.11368683772E-12  0.17120000000E+03  0.17120000000E+03 0.  0.
         13    1    1    2    0    0 -0.48172237318E+01  0.90066104537E+01  0.28282188839E+02  0.30070218587E+02  0.10566000000E+00 0.  1.
        994    1    1    2    0    0  0.98462352007E+01 -0.79364873980E+01  0.23130992222E+01  0.17168205092E+03  0.17120000000E+03 0.  0.
        998    1    1    2    0    0 -0.50290114689E+01 -0.10701230556E+01  0.14694047082E+04  0.14694477305E+04  0.10000000000E+02 0.  1.
</event>
<event>
 5    1  0.1503263E-008  0.3851795E+03  0.7957747E-01  0.3428911E+00
         13   -1    0    0    0    0  0.00000000000E+00  0.00000000000E+00  0.14999999963E+04  0.15000000000E+04  0.10566000000E+00 0. -1.
        994   -1    0    0    0    0 -0.00000000000E+00 -0.00000000000E+00  0.11368683772E-12  0.17120000000E+03  0.17120000000E+03 0.  0.
         13    1    1    2    0    0 -0.16266388762E+02 -0.91072853951E+01  0.11100274403E+03  0.11255735604E+03  0.10566000000E+00 0. -1.
        994    1    1    2    0    0  0.16346534162E+02 -0.53646387858E+00  0.24207076895E+01  0.17199650229E+03  0.17120000000E+03 0.  0.
        998    1    1    2    0    0 -0.80145399474E-01  0.96437492737E+01  0.13865765446E+04  0.13866461417E+04  0.10000000000E+02 0. -1.
</event>
<event>
 5    1  0.1635798E-008  0.3860613E+03  0.7957747E-01  0.3425183E+00
         13   -1    0    0    0    0  0.00000000000E+00  0.00000000000E+00  0.14999999963E+04  0.15000000000E+04  0.10566000000E+00 0.  1.
        994   -1    0    0    0    0 -0.00000000000E+00 -0.00000000000E+00  0.11368683772E-12  0.17120000000E+03  0.17120000000E+03 0.  0.
         13    1    1    2    0    0  0.10163592180E+02  0.31422859337E+00  0.44781155055E+02  0.45921240812E+02  0.10566000000E+00 0.  1.
        994    1    1    2    0    0 -0.16105043926E+02  0.40724766522E+01  0.20090495657E+01  0.17201579516E+03  0.17120000000E+03 0.  0.
        998    1    1    2    0    0  0.59414517454E+01 -0.43867052456E+01  0.14532097917E+04  0.14532629640E+04  0.10000000000E+02 0.  1.
</event>
<event>
 5    1  0.1503263E-008  0.3799314E+03  0.7957747E-01  0.3451457E+00
         13   -1    0    0    0    0  0.00000000000E+00  0.00000000000E+00  0.14999999963E+04  0.15000000000E+04  0.10566000000E+00 0.  1.
        994   -1    0    0    0    0 -0.00000000000E+00 -0.00000000000E+00  0.11368683772E-12  0.17120000000E+03  0.17120000000E+03 0.  0.
         13    1    1    2    0    0 -0.44078144942E+02  0.10239126985E+02  0.25150694845E+03  0.25554545361E+03  0.10566000000E+00 0.  1.
        994    1    1    2    0    0  0.16583826764E+02 -0.34633611747E+02  0.91138525526E+01  0.17569010411E+03  0.17120000000E+03 0.  0.
        998    1    1    2    0    0  0.27494318178E+02  0.24394484762E+02  0.12393791953E+04  0.12399644423E+04  0.10000000000E+02 0.  1.
</event>
<event>
 5    1  0.1503263E-008  0.3746322E+03  0.7957747E-01  0.3474869E+00
         13   -1    0    0    0    0  0.00000000000E+00  0.00000000000E+00  0.14999999963E+04  0.15000000000E+04  0.10566000000E+00 0. -1.
        994   -1    0    0    0    0 -0.00000000000E+00 -0.00000000000E+00  0.11368683772E-12  0.17120000000E+03  0.17120000000E+03 0.  0.
         13    1    1    2    0    0  0.17143532080E+01  0.14088048327E+02  0.11710696954E+02  0.18400100536E+02  0.10566000000E+00 0. -1.
        994    1    1    2    0    0  0.70442922577E+01 -0.71627203671E+01  0.72113049641E+01  0.17164605890E+03  0.17120000000E+03 0.  0.
        998    1    1    2    0    0 -0.87586454657E+01 -0.69253279594E+01  0.14810779944E+04  0.14811538406E+04  0.10000000000E+02 0. -1.
</event>
<event>
 5    1  0.1503263E-008  0.3775542E+03  0.7957747E-01  0.3461878E+00
         13   -1    0    0    0    0  0.00000000000E+00  0.00000000000E+00  0.14999999963E+04  0.15000000000E+04  0.10566000000E+00 0. -1.
        994   -1    0    0    0    0 -0.00000000000E+00 -0.00000000000E+00  0.11368683772E-12  0.17120000000E+03  0.17120000000E+03 0.  0.
         13    1    1    2    0    0 -0.31391476301E+02 -0.34494552266E+02  0.27450562030E+03  0.27843966252E+03  0.10566000000E+00 0. -1.
        994    1    1    2    0    0 -0.10051672102E+02 -0.54958749199E+01  0.58153053597E+01  0.17168138667E+03  0.17120000000E+03 0.  0.
        998    1    1    2    0    0  0.41443148404E+02  0.39990427186E+02  0.12196790706E+04  0.12210789508E+04  0.10000000000E+02 0. -1.
</event>
<event>
 5    1  0.1503263E-008  0.3845617E+03  0.7957747E-01  0.3431533E+00
         13   -1    0    0    0    0  0.00000000000E+00  0.00000000000E+00  0.14999999963E+04  0.15000000000E+04  0.10566000000E+00 0. -1.
        994   -1    0    0    0    0 -0.00000000000E+00 -0.00000000000E+00  0.11368683772E-12  0.17120000000E+03  0.17120000000E+03 0.  0.
         13    1    1    2    0    0 -0.12489099485E+02 -0.10701225363E+02  0.69498749864E+02  0.71418353572E+02  0.10566000000E+00 0. -1.
        994    1    1    2    0    0  0.16532995157E+02  0.95235753223E+01  0.30477147281E+01  0.17228687408E+03  0.17120000000E+03 0.  0.
        998    1    1    2    0    0 -0.40438956724E+01  0.11776500410E+01  0.14274535317E+04  0.14274947723E+04  0.10000000000E+02 0. -1.
</event>
<event>
 5    1  0.1503263E-008  0.3809100E+03  0.7957747E-01  0.3447206E+00
         13   -1    0    0    0    0  0.00000000000E+00  0.00000000000E+00  0.14999999963E+04  0.15000000000E+04  0.10566000000E+00 0.  1.
        994   -1    0    0    0    0 -0.00000000000E+00 -0.00000000000E+00  0.11368683772E-12  0.17120000000E+03  0.17120000000E+03 0.  0.
         13    1    1    2    0    0  0.12123894421E+02  0.30136701428E+01  0.19881018396E+02  0.23480568139E+02  0.10566000000E+00 0.  1.
        994    1    1    2    0    0 -0.71814673106E+01  0.39016794327E+01  0.38971595469E+01  0.17143927329E+03  0.17120000000E+03 0.  0.
        998    1    1    2    0    0 -0.49424271103E+01 -0.69153495756E+01  0.14762218183E+04  0.14762801586E+04  0.10000000000E+02 0.  1.
</event>
<event>
 5    1  0.1503263E-008  0.3829979E+03  0.7957747E-01  0.3438208E+00
         13   -1    0    0    0    0  0.00000000000E+00  0.00000000000E+00  0.14999999963E+04  0.15000000000E+04  0.10566000000E+00 0.  1.
        994   -1    0    0    0    0 -0.00000000000E+00 -0.00000000000E+00  0.11368683772E-12  0.17120000000E+03  0.17120000000E+03 0.  0.
         13    1    1    2    0    0  0.31754167098E+02  0.24118640316E+02  0.22426566631E+03  0.22778309022E+03  0.10566000000E+00 0.  1.
        994    1    1    2    0    0 -0.54385033759E+02 -0.20740516644E+02  0.13923839624E+02  0.18135935112E+03  0.17120000000E+03 0.  0.
        998    1    1    2    0    0  0.22630866660E+02 -0.33781236717E+01  0.12618104903E+04  0.12620575587E+04  0.10000000000E+02 0.  1.
</event>
<event>
 5    1  0.1503263E-008  0.3823859E+03  0.7957747E-01  0.3440835E+00
         13   -1    0    0    0    0  0.00000000000E+00  0.00000000000E+00  0.14999999963E+04  0.15000000000E+04  0.10566000000E+00 0. -1.
        994   -1    0    0    0    0 -0.00000000000E+00 -0.00000000000E+00  0.11368683772E-12  0.17120000000E+03  0.17120000000E+03 0.  0.
         13    1    1    2    0    0  0.27752851283E+02  0.35189045856E+01  0.13527616196E+03  0.13813853410E+03  0.10566000000E+00 0. -1.
        994    1    1    2    0    0 -0.14493604264E+02  0.42962954958E+01  0.36918907988E+01  0.17190576714E+03  0.17120000000E+03 0.  0.
        998    1    1    2    0    0 -0.13259247019E+02 -0.78152000814E+01  0.13610319435E+04  0.13611556988E+04  0.10000000000E+02 0. -1.
</event>
<event>
 5    1  0.1503263E-008  0.3810602E+03  0.7957747E-01  0.3446555E+00
         13   -1    0    0    0    0  0.00000000000E+00  0.00000000000E+00  0.14999999963E+04  0.15000000000E+04  0.10566000000E+00 0.  1.
        994   -1    0    0    0    0 -0.00000000000E+00 -0.00000000000E+00  0.11368683772E-12  0.17120000000E+03  0.17120000000E+03 0.  0.
         13    1    1    2    0    0 -0.71710945906E+01 -0.27136476929E+02  0.11568055346E+03  0.11903703033E+03  0.10566000000E+00 0.  1.
        994    1    1    2    0    0  0.32410031824E+02 -0.14740746626E+01  0.71132609429E+01  0.17439214873E+03  0.17120000000E+03 0.  0.
        998    1    1    2    0    0 -0.25238937234E+02  0.28610551592E+02  0.13772061819E+04  0.13777708209E+04  0.10000000000E+02 0.  1.
</event>
<event>
 5    1  0.1503263E-008  0.3802945E+03  0.7957747E-01  0.3449877E+00
         13   -1    0    0    0    0  0.00000000000E+00  0.00000000000E+00  0.14999999963E+04  0.15000000000E+04  0.10566000000E+00 0.  1.
        994   -1    0    0    0    0 -0.00000000000E+00 -0.00000000000E+00  0.11368683772E-12  0.17120000000E+03  0.17120000000E+03 0.  0.
         13    1    1    2    0    0 -0.95485323849E+01 -0.11667967749E+02  0.26796232326E+02  0.30746791263E+02  0.10566000000E+00 0.  1.
        994    1    1    2    0    0  0.70268571727E+01  0.97969798889E+01  0.44701601496E+01  0.17168220603E+03  0.17120000000E+03 0.  0.
        998    1    1    2    0    0  0.25216752122E+01  0.18709878603E+01  0.14687336038E+04  0.14687710027E+04  0.10000000000E+02 0.  0.
</event>
<event>
 5    1  0.1503263E-008  0.3833408E+03  0.7957747E-01  0.3436740E+00
         13   -1    0    0    0    0  0.00000000000E+00  0.00000000000E+00  0.14999999963E+04  0.15000000000E+04  0.10566000000E+00 0. -1.
        994   -1    0    0    0    0 -0.00000000000E+00 -0.00000000000E+00  0.11368683772E-12  0.17120000000E+03  0.17120000000E+03 0.  0.
         13    1    1    2    0    0  0.38026856562E+01  0.18274148010E+02  0.69460010189E+02  0.71924328868E+02  0.10566000000E+00 0. -1.
        994    1    1    2    0    0 -0.51188605085E+01 -0.13401467317E+02  0.31369087222E+01  0.17182864213E+03  0.17120000000E+03 0.  0.
        998    1    1    2    0    0  0.13161748523E+01 -0.48726806925E+01  0.14274030774E+04  0.14274470290E+04  0.10000000000E+02 0. -1.
</event>
<event>
 5    1  0.1903908E-008  0.3857473E+03  0.7957747E-01  0.3426509E+00
         13   -1    0    0    0    0  0.00000000000E+00  0.00000000000E+00  0.14999999963E+04  0.15000000000E+04  0.10566000000E+00 0. -1.
        994   -1    0    0    0    0 -0.00000000000E+00 -0.00000000000E+00  0.11368683772E-12  0.17120000000E+03  0.17120000000E+03 0.  0.
         13    1    1    2    0    0 -0.35540238247E+01 -0.10863597644E+02  0.52479897023E+02  0.53710330428E+02  0.10566000000E+00 0. -1.
        994    1    1    2    0    0 -0.10874295315E+01  0.77893130200E+01  0.14625215719E+01  0.17138679899E+03  0.17120000000E+03 0.  0.
        998    1    1    2    0    0  0.46414533562E+01  0.30742846237E+01  0.14460575777E+04  0.14461028706E+04  0.10000000000E+02 0. -1.
</event>
<event>
 5    1  0.1503263E-008  0.3732189E+03  0.7957747E-01  0.3481227E+00
         13   -1    0    0    0    0  0.00000000000E+00  0.00000000000E+00  0.14999999963E+04  0.15000000000E+04  0.10566000000E+00 0.  1.
        994   -1    0    0    0    0 -0.00000000000E+00 -0.00000000000E+00  0.11368683772E-12  0.17120000000E+03  0.17120000000E+03 0.  0.
         13    1    1    2    0    0 -0.18787500928E+02  0.49798184905E+02  0.18093517001E+03  0.18860110371E+03  0.10566000000E+00 0.  1.
        994    1    1    2    0    0 -0.26734527934E+02 -0.48257904577E+02  0.18076903481E+02  0.18077548168E+03  0.17120000000E+03 0.  0.
        998    1    1    2    0    0  0.45522028862E+02 -0.15402803277E+01  0.13009879228E+04  0.13018234146E+04  0.10000000000E+02 0.  1.
</event>
<event>
 5    1  0.1503263E-008  0.3745381E+03  0.7957747E-01  0.3475291E+00
         13   -1    0    0    0    0  0.00000000000E+00  0.00000000000E+00  0.14999999963E+04  0.15000000000E+04  0.10566000000E+00 0.  1.
        994   -1    0    0    0    0 -0.00000000000E+00 -0.00000000000E+00  0.11368683772E-12  0.17120000000E+03  0.17120000000E+03 0.  0.
         13    1    1    2    0    0  0.10549679062E+03  0.10136216501E+03  0.78006288648E+03  0.79366364371E+03  0.10566000000E+00 0.  1.
        994    1    1    2    0    0 -0.12418676774E+03 -0.74951380937E+02  0.82304835380E+02  0.23900541566E+03  0.17120000000E+03 0.  0.
        998    1    1    2    0    0  0.18689977124E+02 -0.26410784071E+02  0.63763227442E+03  0.63853094063E+03  0.10000000000E+02 0. -1.
</event>
<event>
 5    1  0.1503263E-008  0.3838547E+03  0.7957747E-01  0.3434544E+00
         13   -1    0    0    0    0  0.00000000000E+00  0.00000000000E+00  0.14999999963E+04  0.15000000000E+04  0.10566000000E+00 0.  1.
        994   -1    0    0    0    0 -0.00000000000E+00 -0.00000000000E+00  0.11368683772E-12  0.17120000000E+03  0.17120000000E+03 0.  0.
         13    1    1    2    0    0 -0.14533708004E+02  0.27364890449E+02  0.18041696588E+02  0.35854983997E+02  0.10566000000E+00 0.  1.
        994    1    1    2    0    0  0.11137875260E+02 -0.29931585695E+02  0.22218727167E+02  0.17556498490E+03  0.17120000000E+03 0.  0.
        998    1    1    2    0    0  0.33958327437E+01  0.25666952466E+01  0.14597395725E+04  0.14597800311E+04  0.10000000000E+02 0.  1.
</event>
<event>
 5    1  0.1503263E-008  0.3813713E+03  0.7957747E-01  0.3445209E+00
         13   -1    0    0    0    0  0.00000000000E+00  0.00000000000E+00  0.14999999963E+04  0.15000000000E+04  0.10566000000E+00 0. -1.
        994   -1    0    0    0    0 -0.00000000000E+00 -0.00000000000E+00  0.11368683772E-12  0.17120000000E+03  0.17120000000E+03 0.  0.
         13    1    1    2    0    0 -0.46324430337E+02  0.46852087250E+01  0.26642608692E+03  0.27046399942E+03  0.10566000000E+00 0. -1.
        994    1    1    2    0    0  0.49827975728E+02  0.28997479731E+02  0.14583292148E+02  0.18123408456E+03  0.17120000000E+03 0.  0.
        998    1    1    2    0    0 -0.35035453915E+01 -0.33682688456E+02  0.12189906172E+04  0.12195019160E+04  0.10000000000E+02 0. -1.
</event>
<event>
 5    1  0.1503263E-008  0.3786210E+03  0.7957747E-01  0.3457185E+00
         13   -1    0    0    0    0  0.00000000000E+00  0.00000000000E+00  0.14999999963E+04  0.15000000000E+04  0.10566000000E+00 0. -1.
        994   -1    0    0    0    0 -0.00000000000E+00 -0.00000000000E+00  0.11368683772E-12  0.17120000000E+03  0.17120000000E+03 0.  0.
         13    1    1    2    0    0  0.73512047747E+02 -0.22271683161E+02  0.45322121489E+03  0.45968416312E+03  0.10566000000E+00 0. -1.
        994    1    1    2    0    0 -0.65095927350E+02  0.31878490642E+02  0.22681583382E+02  0.18729018166E+03  0.17120000000E+03 0.  0.
        998    1    1    2    0    0 -0.84161203962E+01 -0.96068074815E+01  0.10240971980E+04  0.10242256552E+04  0.10000000000E+02 0.  0.
</event>
<event>
 5    1  0.1503263E-008  0.3859247E+03  0.7957747E-01  0.3425760E+00
         13   -1    0    0    0    0  0.00000000000E+00  0.00000000000E+00  0.14999999963E+04  0.15000000000E+04  0.10566000000E+00 0.  1.
        994   -1    0    0    0    0 -0.00000000000E+00 -0.00000000000E+00  0.11368683772E-12  0.17120000000E+03  0.17120000000E+03 0.  0.
         13    1    1    2    0    0  0.98399318028E+01 -0.10304350198E+02  0.81054077619E+02  0.82296892733E+02  0.10566000000E+00 0.  1.
        994    1    1    2    0    0 -0.51196941789E+01  0.21237700617E+02  0.27381158468E+01  0.17260993156E+03  0.17120000000E+03 0.  0.
        998    1    1    2    0    0 -0.47202376239E+01 -0.10933350418E+02  0.14162078028E+04  0.14162931757E+04  0.10000000000E+02 0.  1.
</event>
<event>
 5    1  0.1503263E-008  0.3838648E+03  0.7957747E-01  0.3434501E+00
         13   -1    0    0    0    0  0.00000000000E+00  0.00000000000E+00  0.14999999963E+04  0.15000000000E+04  0.10566000000E+00 0.  1.
        994   -1    0    0    0    0 -0.00000000000E+00 -0.00000000000E+00  0.11368683772E-12  0.17120000000E+03  0.17120000000E+03 0.  0.
         13    1    1    2    0    0  0.65036075110E+01  0.90496323821E+01  0.27350493188E+02  0.29533936388E+02  0.10566000000E+00 0.  1.
        994    1    1    2    0    0 -0.11371742037E+02 -0.47030452621E+01  0.26947995152E+01  0.17166285881E+03  0.17120000000E+03 0.  0.
        998    1    1    2    0    0  0.48681345259E+01 -0.43465871200E+01  0.14699547036E+04  0.14700032048E+04  0.10000000000E+02 0.  1.
</event>
<event>
 5    1  0.1503263E-008  0.3850016E+03  0.7957747E-01  0.3429665E+00
         13   -1    0    0    0    0  0.00000000000E+00  0.00000000000E+00  0.14999999963E+04  0.15000000000E+04  0.10566000000E+00 0.  1.
        994   -1    0    0    0    0 -0.00000000000E+00 -0.00000000000E+00  0.11368683772E-12  0.17120000000E+03  0.17120000000E+03 0.  0.
         13    1    1    2    0    0 -0.10625074719E+02  0.30633547961E+01  0.40412875758E+02  0.41898544682E+02  0.10566000000E+00 0.  1.
        994    1    1    2    0    0 -0.79976076895E+01  0.47512033947E+00  0.18404453757E+01  0.17139724241E+03  0.17120000000E+03 0.  0.
        998    1    1    2    0    0  0.18622682408E+02 -0.35384751356E+01  0.14577466751E+04  0.14579042129E+04  0.10000000000E+02 0.  1.
</event>
<event>
 5    1  0.1503263E-008  0.3697037E+03  0.7957747E-01  0.3497254E+00
         13   -1    0    0    0    0  0.00000000000E+00  0.00000000000E+00  0.14999999963E+04  0.15000000000E+04  0.10566000000E+00 0. -1.
        994   -1    0    0    0    0 -0.00000000000E+00 -0.00000000000E+00  0.11368683772E-12  0.17120000000E+03  0.17120000000E+03 0.  0.
         13    1    1    2    0    0 -0.84494804658E+02 -0.77590338825E+02  0.41510534092E+03  0.43066470475E+03  0.10566000000E+00 0. -1.
        994    1    1    2    0    0  0.86887832934E+02  0.80063996321E+02  0.61259275807E+02  0.21684528561E+03  0.17120000000E+03 0.  0.
        998    1    1    2    0    0 -0.23930282758E+01 -0.24736574966E+01  0.10236353795E+04  0.10236900096E+04  0.10000000000E+02 0. -1.
</event>
<event>
 5    1  0.1503263E-008  0.3745222E+03  0.7957747E-01  0.3475362E+00
         13   -1    0    0    0    0  0.00000000000E+00  0.00000000000E+00  0.14999999963E+04  0.15000000000E+04  0.10566000000E+00 0.  1.
        994   -1    0    0    0    0 -0.00000000000E+00 -0.00000000000E+00  0.11368683772E-12  0.17120000000E+03  0.17120000000E+03 0.  0.
         13    1    1    2    0    0  0.78112647884E+00  0.20973274533E+02  0.28981566603E+02  0.35783107328E+02  0.10566000000E+00 0.  1.
        994    1    1    2    0    0  0.30336148898E+01 -0.14093402585E+02  0.76321862921E+01  0.17197533859E+03  0.17120000000E+03 0.  0.
        998    1    1    2    0    0 -0.38147413687E+01 -0.68798719479E+01  0.14633862434E+04  0.14634415541E+04  0.10000000000E+02 0.  1.
</event>
<event>
 5    1  0.1503263E-008  0.3784001E+03  0.7957747E-01  0.3458155E+00
         13   -1    0    0    0    0  0.00000000000E+00  0.00000000000E+00  0.14999999963E+04  0.15000000000E+04  0.10566000000E+00 0. -1.
        994   -1    0    0    0    0 -0.00000000000E+00 -0.00000000000E+00  0.11368683772E-12  0.17120000000E+03  0.17120000000E+03 0.  0.
         13    1    1    2    0    0  0.78735973643E+01  0.21291075048E+02  0.49326485580E+02  0.54299325556E+02  0.10566000000E+00 0. -1.
        994    1    1    2    0    0 -0.11687044357E+02 -0.17040967719E+02  0.63792126914E+01  0.17256047039E+03  0.17120000000E+03 0.  0.
        998    1    1    2    0    0  0.38134469923E+01 -0.42501073294E+01  0.14442942980E+04  0.14443402041E+04  0.10000000000E+02 0. -1.
</event>
<event>
 5    1  0.1503263E-008  0.3776555E+03  0.7957747E-01  0.3461431E+00
         13   -1    0    0    0    0  0.00000000000E+00  0.00000000000E+00  0.14999999963E+04  0.15000000000E+04  0.10566000000E+00 0. -1.
        994   -1    0    0    0    0 -0.00000000000E+00 -0.00000000000E+00  0.11368683772E-12  0.17120000000E+03  0.17120000000E+03 0.  0.
         13    1    1    2    0    0  0.16809678708E+02 -0.78488377567E-01  0.25813845091E+02  0.30804824640E+02  0.10566000000E+00 0. -1.
        994    1    1    2    0    0  0.10535698377E+02 -0.32119115026E+02  0.91805534095E+01  0.17474656234E+03  0.17120000000E+03 0.  0.
        998    1    1    2    0    0 -0.27345377085E+02  0.32197603404E+02  0.14650055978E+04  0.14656486130E+04  0.10000000000E+02 0. -1.
</event>
<event>
 5    1  0.1503263E-008  0.3857679E+03  0.7957747E-01  0.3426422E+00
         13   -1    0    0    0    0  0.00000000000E+00  0.00000000000E+00  0.14999999963E+04  0.15000000000E+04  0.10566000000E+00 0.  1.
        994   -1    0    0    0    0 -0.00000000000E+00 -0.00000000000E+00  0.11368683772E-12  0.17120000000E+03  0.17120000000E+03 0.  0.
         13    1    1    2    0    0  0.75596873370E+01  0.94504308001E+01  0.58598415232E+02  0.59835148088E+02  0.10566000000E+00 0.  1.
        994    1    1    2    0    0 -0.74675823804E+01 -0.59871351613E+01  0.15499733395E+01  0.17147435083E+03  0.17120000000E+03 0.  0.
        998    1    1    2    0    0 -0.92104956632E-01 -0.34632956388E+01  0.14398516077E+04  0.14398905011E+04  0.10000000000E+02 0.  1.
</event>
<event>
 5    1  0.1503263E-008  0.3837375E+03  0.7957747E-01  0.3435044E+00
         13   -1    0    0    0    0  0.00000000000E+00  0.00000000000E+00  0.14999999963E+04  0.15000000000E+04  0.10566000000E+00 0. -1.
        994   -1    0    0    0    0 -0.00000000000E+00 -0.00000000000E+00  0.11368683772E-12  0.17120000000E+03  0.17120000000E+03 0.  0.
         13    1    1    2    0    0 -0.10319319105E+01  0.10313637558E+02  0.23065278280E+02  0.25287432241E+02  0.10566000000E+00 0. -1.
        994    1    1    2    0    0  0.24633382124E+01 -0.67832176540E+01  0.24302491725E+01  0.17136926850E+03  0.17120000000E+03 0.  0.
        998    1    1    2    0    0 -0.14314063019E+01 -0.35304199038E+01  0.14745044688E+04  0.14745432993E+04  0.10000000000E+02 0. -1.
</event>
<event>
 5    1  0.1503263E-008  0.3787279E+03  0.7957747E-01  0.3456716E+00
         13   -1    0    0    0    0  0.00000000000E+00  0.00000000000E+00  0.14999999963E+04  0.15000000000E+04  0.10566000000E+00 0. -1.
        994   -1    0    0    0    0 -0.00000000000E+00 -0.00000000000E+00  0.11368683772E-12  0.17120000000E+03  0.17120000000E+03 0.  0.
         13    1    1    2    0    0 -0.10113173508E+02 -0.47004693377E+01  0.10774012355E+02  0.15506811299E+02  0.10566000000E+00 0. -1.
        994    1    1    2    0    0  0.11908950410E+02  0.50478208014E+01  0.53385211879E+01  0.17177090383E+03  0.17120000000E+03 0.  0.
        998    1    1    2    0    0 -0.17957769018E+01 -0.34735146371E+00  0.14838874627E+04  0.14839222849E+04  0.10000000000E+02 0. -1.
</event>
<event>
 5    1  0.1503263E-008  0.3853331E+03  0.7957747E-01  0.3428261E+00
         13   -1    0    0    0    0  0.00000000000E+00  0.00000000000E+00  0.14999999963E+04  0.15000000000E+04  0.10566000000E+00 0.  1.
        994   -1    0    0    0    0 -0.00000000000E+00 -0.00000000000E+00  0.11368683772E-12  0.17120000000E+03  0.17120000000E+03 0.  0.
         13    1    1    2    0    0 -0.14217964019E+02 -0.45528989296E+01  0.81542428856E+02  0.82897878485E+02  0.10566000000E+00 0.  1.
        994    1    1    2    0    0  0.18578397005E+01 -0.23940750266E+01  0.14950110863E+01  0.17123334436E+03  0.17120000000E+03 0.  0.
        998    1    1    2    0    0  0.12360124319E+02  0.69469739563E+01  0.14169625563E+04  0.14170687772E+04  0.10000000000E+02 0.  1.
</event>
<event>
 5    1  0.1503263E-008  0.3845806E+03  0.7957747E-01  0.3431453E+00
         13   -1    0    0    0    0  0.00000000000E+00  0.00000000000E+00  0.14999999963E+04  0.15000000000E+04  0.10566000000E+00 0. -1.
        994   -1    0    0    0    0 -0.00000000000E+00 -0.00000000000E+00  0.11368683772E-12  0.17120000000E+03  0.17120000000E+03 0.  0.
         13    1    1    2    0    0  0.11649807511E+02 -0.10369452134E+02  0.70711277185E+02  0.72410906898E+02  0.10566000000E+00 0. -1.
        994    1    1    2    0    0 -0.59917723537E+01 -0.77650894963E+01  0.21553522877E+01  0.17149426665E+03  0.17120000000E+03 0.  0.
        998    1    1    2    0    0 -0.56580351574E+01  0.18134541630E+02  0.14271333668E+04  0.14272948265E+04  0.10000000000E+02 0. -1.
</event>
<event>
 5    1  0.1503263E-008  0.3826449E+03  0.7957747E-01  0.3439722E+00
         13   -1    0    0    0    0  0.00000000000E+00  0.00000000000E+00  0.14999999963E+04  0.15000000000E+04  0.10566000000E+00 0. -1.
        994   -1    0    0    0    0 -0.00000000000E+00 -0.00000000000E+00  0.11368683772E-12  0.17120000000E+03  0.17120000000E+03 0.  0.
         13    1    1    2    0    0  0.23161344752E+00 -0.13890969708E+02  0.33569585953E+02  0.36330991582E+02  0.10566000000E+00 0. -1.
        994    1    1    2    0    0 -0.43518727835E+01  0.84315250031E+01  0.31023531606E+01  0.17149079860E+03  0.17120000000E+03 0.  0.
        998    1    1    2    0    0  0.41202593360E+01  0.54594447052E+01  0.14633280572E+04  0.14633782098E+04  0.10000000000E+02 0. -1.
</event>
<event>
 5    1  0.1503263E-008  0.3834760E+03  0.7957747E-01  0.3436162E+00
         13   -1    0    0    0    0  0.00000000000E+00  0.00000000000E+00  0.14999999963E+04  0.15000000000E+04  0.10566000000E+00 0.  1.
        994   -1    0    0    0    0 -0.00000000000E+00 -0.00000000000E+00  0.11368683772E-12  0.17120000000E+03  0.17120000000E+03 0.  0.
         13    1    1    2    0    0 -0.55804078405E+01  0.96363404008E+01  0.26289619835E+02  0.28550924383E+02  0.10566000000E+00 0.  1.
        994    1    1    2    0    0 -0.36562753130E+01  0.31599956463E+01  0.24658678214E+01  0.17128594346E+03  0.17120000000E+03 0.  0.
        998    1    1    2    0    0  0.92366831534E+01 -0.12796336047E+02  0.14712445086E+04  0.14713631322E+04  0.10000000000E+02 0.  1.
</event>
<event>
 5    1  0.1503263E-008  0.3855089E+03  0.7957747E-01  0.3427517E+00
         13   -1    0    0    0    0  0.00000000000E+00  0.00000000000E+00  0.14999999963E+04  0.15000000000E+04  0.10566000000E+00 0. -1.
        994   -1    0    0    0    0 -0.00000000000E+00 -0.00000000000E+00  0.11368683772E-12  0.17120000000E+03  0.17120000000E+03 0.  0.
         13    1    1    2    0    0 -0.13753687931E+02 -0.71041690398E+01  0.81513808499E+02  0.82970749602E+02  0.10566000000E+00 0. -1.
        994    1    1    2    0    0  0.23542213326E+02 -0.29306096245E+01  0.32277723519E+01  0.17286608342E+03  0.17120000000E+03 0.  0.
        998    1    1    2    0    0 -0.97885253946E+01  0.10034778664E+02  0.14152584154E+04  0.14153631670E+04  0.10000000000E+02 0. -1.
</event>
<event>
 5    1  0.1503263E-008  0.3845151E+03  0.7957747E-01  0.3431731E+00
         13   -1    0    0    0    0  0.00000000000E+00  0.00000000000E+00  0.14999999963E+04  0.15000000000E+04  0.10566000000E+00 0. -1.
        994   -1    0    0    0    0 -0.00000000000E+00 -0.00000000000E+00  0.11368683772E-12  0.17120000000E+03  0.17120000000E+03 0.  0.
         13    1    1    2    0    0  0.63812750491E+01  0.82935689115E+01  0.28888550084E+02  0.30725615479E+02  0.10566000000E+00 0. -1.
        994    1    1    2    0    0 -0.43788439930E+01 -0.50732481113E+01  0.20190041730E+01  0.17134301415E+03  0.17120000000E+03 0.  0.
        998    1    1    2    0    0 -0.20024310561E+01 -0.32203208002E+01  0.14690924420E+04  0.14691313704E+04  0.10000000000E+02 0. -1.
</event>
<event>
 5    1  0.1503263E-008  0.3834582E+03  0.7957747E-01  0.3436238E+00
         13   -1    0    0    0    0  0.00000000000E+00  0.00000000000E+00  0.14999999963E+04  0.15000000000E+04  0.10566000000E+00 0.  1.
        994   -1    0    0    0    0 -0.00000000000E+00 -0.00000000000E+00  0.11368683772E-12  0.17120000000E+03  0.17120000000E+03 0.  0.
         13    1    1    2    0    0  0.20763077613E+00  0.11886069104E+02  0.27921838681E+02  0.30347355546E+02  0.10566000000E+00 0.  1.
        994    1    1    2    0    0 -0.74045202007E+00 -0.15716386048E+02  0.32161975174E+01  0.17195155418E+03  0.17120000000E+03 0.  0.
        998    1    1    2    0    0  0.53282124394E+00  0.38303169440E+01  0.14688619601E+04  0.14689010903E+04  0.10000000000E+02 0.  1.
</event>
<event>
 5    1  0.1503263E-008  0.3848291E+03  0.7957747E-01  0.3430397E+00
         13   -1    0    0    0    0  0.00000000000E+00  0.00000000000E+00  0.14999999963E+04  0.15000000000E+04  0.10566000000E+00 0.  1.
        994   -1    0    0    0    0 -0.00000000000E+00 -0.00000000000E+00  0.11368683772E-12  0.17120000000E+03  0.17120000000E+03 0.  0.
         13    1    1    2    0    0  0.96239970444E+01 -0.10547848043E+02  0.59119868380E+02  0.60819802851E+02  0.10566000000E+00 0.  1.
        994    1    1    2    0    0 -0.14525291094E+01  0.12415280197E+02  0.22293067764E+01  0.17167020368E+03  0.17120000000E+03 0.  0.
        998    1    1    2    0    0 -0.81714679350E+01 -0.18674321539E+01  0.14386508211E+04  0.14387099935E+04  0.10000000000E+02 0.  1.
</event>
<event>
 5    1  0.1503263E-008  0.3754155E+03  0.7957747E-01  0.3471367E+00
         13   -1    0    0    0    0  0.00000000000E+00  0.00000000000E+00  0.14999999963E+04  0.15000000000E+04  0.10566000000E+00 0. -1.
        994   -1    0    0    0    0 -0.00000000000E+00 -0.00000000000E+00  0.11368683772E-12  0.17120000000E+03  0.17120000000E+03 0.  0.
         13    1    1    2    0    0 -0.91562832607E+01  0.39742917592E+02  0.11435829145E+03  0.12141320772E+03  0.10566000000E+00 0. -1.
        994    1    1    2    0    0  0.10868867373E+02 -0.45367493292E+02  0.13889037052E+02  0.17798507543E+03  0.17120000000E+03 0.  0.
        998    1    1    2    0    0 -0.17125841127E+01  0.56245757001E+01  0.13717526678E+04  0.13718017168E+04  0.10000000000E+02 0. -1.
</event>
<event>
 5    1  0.1503263E-008  0.3785085E+03  0.7957747E-01  0.3457679E+00
         13   -1    0    0    0    0  0.00000000000E+00  0.00000000000E+00  0.14999999963E+04  0.15000000000E+04  0.10566000000E+00 0. -1.
        994   -1    0    0    0    0 -0.00000000000E+00 -0.00000000000E+00  0.11368683772E-12  0.17120000000E+03  0.17120000000E+03 0.  0.
         13    1    1    2    0    0 -0.90325185244E+01 -0.92449369160E+01  0.14876942275E+02  0.19707608301E+02  0.10566000000E+00 0. -1.
        994    1    1    2    0    0  0.10195837068E+02  0.63297607518E+01  0.53719405281E+01  0.17170416043E+03  0.17120000000E+03 0.  0.
        998    1    1    2    0    0 -0.11633185440E+01  0.29151761642E+01  0.14797511135E+04  0.14797882313E+04  0.10000000000E+02 0. -1.
</event>
<event>
 5    1  0.1503263E-008  0.3744428E+03  0.7957747E-01  0.3475718E+00
         13   -1    0    0    0    0  0.00000000000E+00  0.00000000000E+00  0.14999999963E+04  0.15000000000E+04  0.10566000000E+00 0. -1.
        994   -1    0    0    0    0 -0.00000000000E+00 -0.00000000000E+00  0.11368683772E-12  0.17120000000E+03  0.17120000000E+03 0.  0.
         13    1    1    2    0    0  0.22161943593E+02 -0.33997736873E+02  0.11425214252E+03  0.12124587041E+03  0.10566000000E+00 0. -1.
        994    1    1    2    0    0 -0.11456893489E+02  0.25553931225E+02  0.96406441754E+01  0.17374304541E+03  0.17120000000E+03 0.  0.
        998    1    1    2    0    0 -0.10705050104E+02  0.84438056475E+01  0.13761072096E+04  0.13762110842E+04  0.10000000000E+02 0. -1.
</event>
<event>
 5    1  0.1503263E-008  0.3831202E+03  0.7957747E-01  0.3437684E+00
         13   -1    0    0    0    0  0.00000000000E+00  0.00000000000E+00  0.14999999963E+04  0.15000000000E+04  0.10566000000E+00 0.  1.
        994   -1    0    0    0    0 -0.00000000000E+00 -0.00000000000E+00  0.11368683772E-12  0.17120000000E+03  0.17120000000E+03 0.  0.
         13    1    1    2    0    0  0.94308340717E+01 -0.12938819846E+02  0.48220621259E+02  0.50809380718E+02  0.10566000000E+00 0.  1.
        994    1    1    2    0    0 -0.10416922415E+02  0.11000213813E+02  0.33261001512E+01  0.17190119231E+03  0.17120000000E+03 0.  0.
        998    1    1    2    0    0  0.98608834360E+00  0.19386060329E+01  0.14484532749E+04  0.14484894270E+04  0.10000000000E+02 0.  1.
</event>
<event>
 5    1  0.1503263E-008  0.3825403E+03  0.7957747E-01  0.3440172E+00
         13   -1    0    0    0    0  0.00000000000E+00  0.00000000000E+00  0.14999999963E+04  0.15000000000E+04  0.10566000000E+00 0. -1.
        994   -1    0    0    0    0 -0.00000000000E+00 -0.00000000000E+00  0.11368683772E-12  0.17120000000E+03  0.17120000000E+03 0.  0.
         13    1    1    2    0    0 -0.17453731315E+02 -0.20750080835E+02  0.13977730339E+03  0.14238294947E+03  0.10566000000E+00 0. -1.
        994    1    1    2    0    0  0.66839193943E+01 -0.25007827730E+00  0.30046103521E+01  0.17135695201E+03  0.17120000000E+03 0.  0.
        998    1    1    2    0    0  0.10769811921E+02  0.21000159112E+02  0.13572180825E+04  0.13574600985E+04  0.10000000000E+02 0. -1.
</event>
<event>
 5    1  0.1503263E-008  0.3704363E+03  0.7957747E-01  0.3493888E+00
         13   -1    0    0    0    0  0.00000000000E+00  0.00000000000E+00  0.14999999963E+04  0.15000000000E+04  0.10566000000E+00 0. -1.
        994   -1    0    0    0    0 -0.00000000000E+00 -0.00000000000E+00  0.11368683772E-12  0.17120000000E+03  0.17120000000E+03 0.  0.
         13    1    1    2    0    0 -0.87252022066E+01  0.74485408968E+01  0.67904895500E+00  0.11492701447E+02  0.10566000000E+00 0. -1.
        994    1    1    2    0    0  0.39108003820E+01 -0.11841401866E+02  0.11714375560E+02  0.17205284000E+03  0.17120000000E+03 0.  0.
        998    1    1    2    0    0  0.48144018246E+01  0.43928609695E+01  0.14876065718E+04  0.14876544586E+04  0.10000000000E+02 0. -1.
</event>
<event>
 5    1  0.1503263E-008  0.4415419E+03  0.7957747E-01  0.3220374E+00
         13   -1    0    0    0    0  0.00000000000E+00  0.00000000000E+00  0.14999999963E+04  0.15000000000E+04  0.10566000000E+00 0. -1.
        994   -1    0    0    0    0 -0.00000000000E+00 -0.00000000000E+00  0.11368683772E-12  0.17120000000E+03  0.17120000000E+03 0.  0.
         13    1    1    2    0    0 -0.59797655919E+02  0.64501117086E+02  0.45651214490E+02  0.99096913712E+02  0.10566000000E+00 0. -1.
        994    1    1    2    0    0  0.68164064704E+02 -0.96484703866E+02  0.12575937390E+03  0.24306480189E+03  0.17120000000E+03 0.  0.
        998    1    1    2    0    0 -0.83664087855E+01  0.31983586780E+02  0.13285894079E+04  0.13290382844E+04  0.10000000000E+02 0. -1.
</event>
<event>
 5    1  0.1503263E-008  0.3834994E+03  0.7957747E-01  0.3436061E+00
         13   -1    0    0    0    0  0.00000000000E+00  0.00000000000E+00  0.14999999963E+04  0.15000000000E+04  0.10566000000E+00 0. -1.
        994   -1    0    0    0    0 -0.00000000000E+00 -0.00000000000E+00  0.11368683772E-12  0.17120000000E+03  0.17120000000E+03 0.  0.
         13    1    1    2    0    0 -0.91027162831E+01  0.14210847711E+02  0.58923235583E+02  0.61292466845E+02  0.10566000000E+00 0. -1.
        994    1    1    2    0    0  0.22602587396E+02 -0.41167694190E+00  0.40676721944E+01  0.17273399316E+03  0.17120000000E+03 0.  0.
        998    1    1    2    0    0 -0.13499871113E+02 -0.13799170769E+02  0.14370090885E+04  0.14371735400E+04  0.10000000000E+02 0. -1.
</event>
<event>
 5    1  0.1503263E-008  0.3999331E+03  0.7957747E-01  0.3368707E+00
         13   -1    0    0    0    0  0.00000000000E+00  0.00000000000E+00  0.14999999963E+04  0.15000000000E+04  0.10566000000E+00 0.  1.
        994   -1    0    0    0    0 -0.00000000000E+00 -0.00000000000E+00  0.11368683772E-12  0.17120000000E+03  0.17120000000E+03 0.  0.
         13    1    1    2    0    0  0.76407962010E+02  0.94309436228E+01  0.10775146746E+03  0.13242926135E+03  0.10566000000E+00 0.  1.
        994    1    1    2    0    0 -0.21902958748E+02 -0.18143906306E+02  0.30910836549E+02  0.17627779427E+03  0.17120000000E+03 0.  0.
        998    1    1    2    0    0 -0.54505003262E+02  0.87129626834E+01  0.13613376923E+04  0.13624929444E+04  0.10000000000E+02 0.  1.
</event>
<event>
 5    1  0.1503263E-008  0.3776508E+03  0.7957747E-01  0.3461452E+00
         13   -1    0    0    0    0  0.00000000000E+00  0.00000000000E+00  0.14999999963E+04  0.15000000000E+04  0.10566000000E+00 0.  1.
        994   -1    0    0    0    0 -0.00000000000E+00 -0.00000000000E+00  0.11368683772E-12  0.17120000000E+03  0.17120000000E+03 0.  0.
         13    1    1    2    0    0  0.13538224005E+02 -0.52721851992E+01  0.17272868819E+02  0.22570835325E+02  0.10566000000E+00 0.  1.
        994    1    1    2    0    0 -0.15161502670E+02  0.60302318775E+01  0.62211990110E+01  0.17208828600E+03  0.17120000000E+03 0.  0.
        998    1    1    2    0    0  0.16232786650E+01 -0.75804667837E+00  0.14765059284E+04  0.14765408787E+04  0.10000000000E+02 0.  1.
</event>
<event>
 5    1  0.1503263E-008  0.3848429E+03  0.7957747E-01  0.3430339E+00
         13   -1    0    0    0    0  0.00000000000E+00  0.00000000000E+00  0.14999999963E+04  0.15000000000E+04  0.10566000000E+00 0.  1.
        994   -1    0    0    0    0 -0.00000000000E+00 -0.00000000000E+00  0.11368683772E-12  0.17120000000E+03  0.17120000000E+03 0.  0.
         13    1    1    2    0    0  0.13839084839E+02 -0.10621195285E+01  0.53860444878E+02  0.55620203645E+02  0.10566000000E+00 0.  1.
        994    1    1    2    0    0 -0.16884903102E+02  0.31222908341E+01  0.26788991732E+01  0.17207982204E+03  0.17120000000E+03 0.  0.
        998    1    1    2    0    0  0.30458182631E+01 -0.20601713056E+01  0.14434606522E+04  0.14434999743E+04  0.10000000000E+02 0.  1.
</event>
<event>
 5    1  0.1503263E-008  0.3846675E+03  0.7957747E-01  0.3431084E+00
         13   -1    0    0    0    0  0.00000000000E+00  0.00000000000E+00  0.14999999963E+04  0.15000000000E+04  0.10566000000E+00 0. -1.
        994   -1    0    0    0    0 -0.00000000000E+00 -0.00000000000E+00  0.11368683772E-12  0.17120000000E+03  0.17120000000E+03 0.  0.
         13    1    1    2    0    0  0.13433377482E+02 -0.24872615257E+00  0.47772823723E+02  0.49626317068E+02  0.10566000000E+00 0. -1.
        994    1    1    2    0    0 -0.18055771073E+02 -0.28182327279E+01  0.28955181757E+01  0.17219691440E+03  0.17120000000E+03 0.  0.
        998    1    1    2    0    0  0.46223935911E+01  0.30669588805E+01  0.14493316544E+04  0.14493767685E+04  0.10000000000E+02 0. -1.
</event>
<event>
 5    1  0.1625578E-008  0.3861918E+03  0.7957747E-01  0.3424634E+00
         13   -1    0    0    0    0  0.00000000000E+00  0.00000000000E+00  0.14999999963E+04  0.15000000000E+04  0.10566000000E+00 0.  1.
        994   -1    0    0    0    0 -0.00000000000E+00 -0.00000000000E+00  0.11368683772E-12  0.17120000000E+03  0.17120000000E+03 0.  0.
         13    1    1    2    0    0 -0.16150401001E+01 -0.10348670521E+02  0.55152254235E+02  0.56138094440E+02  0.10566000000E+00 0.  1.
        994    1    1    2    0    0 -0.10999671987E+00  0.31025511886E+01  0.10711774234E+01  0.17123149636E+03  0.17120000000E+03 0.  0.
        998    1    1    2    0    0  0.17250368200E+01  0.72461193320E+01  0.14437765646E+04  0.14438304092E+04  0.10000000000E+02 0.  1.
</event>
<event>
 5    1  0.1503263E-008  0.3788065E+03  0.7957747E-01  0.3456372E+00
         13   -1    0    0    0    0  0.00000000000E+00  0.00000000000E+00  0.14999999963E+04  0.15000000000E+04  0.10566000000E+00 0. -1.
        994   -1    0    0    0    0 -0.00000000000E+00 -0.00000000000E+00  0.11368683772E-12  0.17120000000E+03  0.17120000000E+03 0.  0.
         13    1    1    2    0    0  0.14421695456E+02  0.70758916335E+01  0.28022316384E+02  0.32300385784E+02  0.10566000000E+00 0. -1.
        994    1    1    2    0    0  0.14926643136E+02  0.26250510942E+02  0.78033422823E+01  0.17401789032E+03  0.17120000000E+03 0.  0.
        998    1    1    2    0    0 -0.29348338592E+02 -0.33326402575E+02  0.14641743376E+04  0.14648817239E+04  0.10000000000E+02 0. -1.
</event>
<event>
 5    1  0.1503263E-008  0.3734206E+03  0.7957747E-01  0.3480317E+00
         13   -1    0    0    0    0  0.00000000000E+00  0.00000000000E+00  0.14999999963E+04  0.15000000000E+04  0.10566000000E+00 0.  1.
        994   -1    0    0    0    0 -0.00000000000E+00 -0.00000000000E+00  0.11368683772E-12  0.17120000000E+03  0.17120000000E+03 0.  0.
         13    1    1    2    0    0  0.12862055111E+03  0.93412335371E+01  0.43723002472E+03  0.45585152242E+03  0.10566000000E+00 0.  1.
        994    1    1    2    0    0 -0.12883905817E+03 -0.21227213669E+02  0.75813967182E+02  0.22827022392E+03  0.17120000000E+03 0.  0.
        998    1    1    2    0    0  0.21850705786E+00  0.11885980132E+02  0.98695600438E+03  0.98707825366E+03  0.10000000000E+02 0.  1.
</event>
<event>
 5    1  0.1503263E-008  0.3789743E+03  0.7957747E-01  0.3455637E+00
         13   -1    0    0    0    0  0.00000000000E+00  0.00000000000E+00  0.14999999963E+04  0.15000000000E+04  0.10566000000E+00 0. -1.
        994   -1    0    0    0    0 -0.00000000000E+00 -0.00000000000E+00  0.11368683772E-12  0.17120000000E+03  0.17120000000E+03 0.  0.
         13    1    1    2    0    0 -0.28402040984E+02  0.29216789472E+02  0.18906926784E+03  0.19341017534E+03  0.10566000000E+00 0. -1.
        994    1    1    2    0    0  0.37040960389E+02  0.14157189857E+02  0.99444158976E+01  0.17601360794E+03  0.17120000000E+03 0.  0.
        998    1    1    2    0    0 -0.86389194051E+01 -0.43373979329E+02  0.13009863125E+04  0.13017762167E+04  0.10000000000E+02 0. -1.
</event>
<event>
 5    1  0.1503263E-008  0.3771178E+03  0.7957747E-01  0.3463805E+00
         13   -1    0    0    0    0  0.00000000000E+00  0.00000000000E+00  0.14999999963E+04  0.15000000000E+04  0.10566000000E+00 0.  1.
        994   -1    0    0    0    0 -0.00000000000E+00 -0.00000000000E+00  0.11368683772E-12  0.17120000000E+03  0.17120000000E+03 0.  0.
         13    1    1    2    0    0  0.10859611671E+02  0.74588435514E+01  0.12950109869E+02  0.18473819920E+02  0.10566000000E+00 0.  1.
        994    1    1    2    0    0 -0.48036227593E+01 -0.14897280984E+02  0.64225310830E+01  0.17203398698E+03  0.17120000000E+03 0.  0.
        998    1    1    2    0    0 -0.60559889116E+01  0.74384374331E+01  0.14806273553E+04  0.14806921931E+04  0.10000000000E+02 0.  1.
</event>
<event>
 5    1  0.1503263E-008  0.3766756E+03  0.7957747E-01  0.3465763E+00
         13   -1    0    0    0    0  0.00000000000E+00  0.00000000000E+00  0.14999999963E+04  0.15000000000E+04  0.10566000000E+00 0.  1.
        994   -1    0    0    0    0 -0.00000000000E+00 -0.00000000000E+00  0.11368683772E-12  0.17120000000E+03  0.17120000000E+03 0.  0.
         13    1    1    2    0    0 -0.30368707360E+02  0.91496912553E+01  0.91289412193E+02  0.96642346719E+02  0.10566000000E+00 0.  1.
        994    1    1    2    0    0  0.17833672469E+01  0.20447008605E+01  0.58456770352E+01  0.17132125712E+03  0.17120000000E+03 0.  0.
        998    1    1    2    0    0  0.28585340113E+02 -0.11194392116E+02  0.14028649071E+04  0.14032363962E+04  0.10000000000E+02 0.  1.
</event>
<event>
 5    1  0.1503263E-008  0.3760298E+03  0.7957747E-01  0.3468630E+00
         13   -1    0    0    0    0  0.00000000000E+00  0.00000000000E+00  0.14999999963E+04  0.15000000000E+04  0.10566000000E+00 0.  1.
        994   -1    0    0    0    0 -0.00000000000E+00 -0.00000000000E+00  0.11368683772E-12  0.17120000000E+03  0.17120000000E+03 0.  0.
         13    1    1    2    0    0 -0.71189302707E+02  0.29124306621E+01  0.35364391084E+03  0.36074981069E+03  0.10566000000E+00 0.  1.
        994    1    1    2    0    0  0.58113533050E+02 -0.24566039435E+02  0.19756499340E+02  0.18352229370E+03  0.17120000000E+03 0.  0.
        998    1    1    2    0    0  0.13075769657E+02  0.21653608773E+02  0.11265995861E+04  0.11269278956E+04  0.10000000000E+02 0.  1.
</event>
<event>
 5    1  0.1503263E-008  0.3840831E+03  0.7957747E-01  0.3433570E+00
         13   -1    0    0    0    0  0.00000000000E+00  0.00000000000E+00  0.14999999963E+04  0.15000000000E+04  0.10566000000E+00 0.  1.
        994   -1    0    0    0    0 -0.00000000000E+00 -0.00000000000E+00  0.11368683772E-12  0.17120000000E+03  0.17120000000E+03 0.  0.
         13    1    1    2    0    0  0.87373062469E+01 -0.12320635417E+02  0.52595418130E+02  0.54721364656E+02  0.10566000000E+00 0.  1.
        994    1    1    2    0    0 -0.93868375923E+01  0.13072669170E+02  0.29408277829E+01  0.17197992868E+03  0.17120000000E+03 0.  0.
        998    1    1    2    0    0  0.64953134547E+00 -0.75203375336E+00  0.14444637504E+04  0.14444987067E+04  0.10000000000E+02 0.  1.
</event>
<event>
 5    1  0.1503263E-008  0.3746521E+03  0.7957747E-01  0.3474780E+00
         13   -1    0    0    0    0  0.00000000000E+00  0.00000000000E+00  0.14999999963E+04  0.15000000000E+04  0.10566000000E+00 0.  1.
        994   -1    0    0    0    0 -0.00000000000E+00 -0.00000000000E+00  0.11368683772E-12  0.17120000000E+03  0.17120000000E+03 0.  0.
         13    1    1    2    0    0  0.11211662033E+03 -0.31756551677E+02  0.57403746859E+03  0.58574537270E+03  0.10566000000E+00 0.  1.
        994    1    1    2    0    0 -0.11572877089E+03  0.26040725936E+02  0.56363732532E+02  0.21577205140E+03  0.17120000000E+03 0.  0.
        998    1    1    2    0    0  0.36121505553E+01  0.57158257411E+01  0.86959879515E+03  0.86968257590E+03  0.10000000000E+02 0. -1.
</event>
<event>
 5    1  0.1503263E-008  0.3817372E+03  0.7957747E-01  0.3443629E+00
         13   -1    0    0    0    0  0.00000000000E+00  0.00000000000E+00  0.14999999963E+04  0.15000000000E+04  0.10566000000E+00 0. -1.
        994   -1    0    0    0    0 -0.00000000000E+00 -0.00000000000E+00  0.11368683772E-12  0.17120000000E+03  0.17120000000E+03 0.  0.
         13    1    1    2    0    0  0.17016008203E+02  0.20883698002E+02  0.10364332262E+03  0.10708698738E+03  0.10566000000E+00 0. -1.
        994    1    1    2    0    0 -0.15149686234E+02 -0.22718982094E+02  0.57411998471E+01  0.17345912059E+03  0.17120000000E+03 0.  0.
        998    1    1    2    0    0 -0.18663219692E+01  0.18352840922E+01  0.13906154738E+04  0.13906538920E+04  0.10000000000E+02 0. -1.
</event>
<event>
 5    1  0.1503263E-008  0.3824139E+03  0.7957747E-01  0.3440715E+00
         13   -1    0    0    0    0  0.00000000000E+00  0.00000000000E+00  0.14999999963E+04  0.15000000000E+04  0.10566000000E+00 0.  1.
        994   -1    0    0    0    0 -0.00000000000E+00 -0.00000000000E+00  0.11368683772E-12  0.17120000000E+03  0.17120000000E+03 0.  0.
         13    1    1    2    0    0  0.12972085810E+02  0.24274122917E+02  0.13265762943E+03  0.13548271426E+03  0.10566000000E+00 0.  1.
        994    1    1    2    0    0 -0.11278218697E+02 -0.80141478887E+01  0.35546570177E+01  0.17179493697E+03  0.17120000000E+03 0.  0.
        998    1    1    2    0    0 -0.16938671124E+01 -0.16259975028E+02  0.13637877098E+04  0.13639223488E+04  0.10000000000E+02 0.  1.
</event>
<event>
 5    1  0.1503263E-008  0.3754716E+03  0.7957747E-01  0.3471116E+00
         13   -1    0    0    0    0  0.00000000000E+00  0.00000000000E+00  0.14999999963E+04  0.15000000000E+04  0.10566000000E+00 0.  1.
        994   -1    0    0    0    0 -0.00000000000E+00 -0.00000000000E+00  0.11368683772E-12  0.17120000000E+03  0.17120000000E+03 0.  0.
         13    1    1    2    0    0  0.28401420110E+02  0.13041938823E+02  0.31313110946E+02  0.44240873789E+02  0.10566000000E+00 0.  1.
        994    1    1    2    0    0 -0.38477383779E+01  0.90235456555E+01  0.14204849537E+02  0.17206814702E+03  0.17120000000E+03 0.  0.
        998    1    1    2    0    0 -0.24553681732E+02 -0.22065484479E+02  0.14544820358E+04  0.14548909792E+04  0.10000000000E+02 0.  1.
</event>
<event>
 5    1  0.1503263E-008  0.3859886E+03  0.7957747E-01  0.3425490E+00
         13   -1    0    0    0    0  0.00000000000E+00  0.00000000000E+00  0.14999999963E+04  0.15000000000E+04  0.10566000000E+00 0. -1.
        994   -1    0    0    0    0 -0.00000000000E+00 -0.00000000000E+00  0.11368683772E-12  0.17120000000E+03  0.17120000000E+03 0.  0.
         13    1    1    2    0    0  0.74573829088E+01  0.67109117011E+01  0.46551415373E+02  0.47620314289E+02  0.10566000000E+00 0. -1.
        994    1    1    2    0    0  0.13115582353E+01 -0.18318395058E+01  0.11567220665E+01  0.17121873095E+03  0.17120000000E+03 0.  0.
        998    1    1    2    0    0 -0.87689411441E+01 -0.48790721953E+01  0.14522918588E+04  0.14523609548E+04  0.10000000000E+02 0. -1.
</event>
<event>
 5    1  0.1503263E-008  0.3785787E+03  0.7957747E-01  0.3457370E+00
         13   -1    0    0    0    0  0.00000000000E+00  0.00000000000E+00  0.14999999963E+04  0.15000000000E+04  0.10566000000E+00 0.  1.
        994   -1    0    0    0    0 -0.00000000000E+00 -0.00000000000E+00  0.11368683772E-12  0.17120000000E+03  0.17120000000E+03 0.  0.
         13    1    1    2    0    0 -0.15505381072E+02 -0.39079561862E+01  0.24383551962E+02  0.29159179242E+02  0.10566000000E+00 0.  1.
        994    1    1    2    0    0  0.10064521540E+02  0.24210449940E+01  0.52122984659E+01  0.17159185327E+03  0.17120000000E+03 0.  0.
        998    1    1    2    0    0  0.54408595322E+01  0.14869111922E+01  0.14704041459E+04  0.14704489675E+04  0.10000000000E+02 0.  1.
</event>
<event>
 5    1  0.1503263E-008  0.3854690E+03  0.7957747E-01  0.3427686E+00
         13   -1    0    0    0    0  0.00000000000E+00  0.00000000000E+00  0.14999999963E+04  0.15000000000E+04  0.10566000000E+00 0.  1.
        994   -1    0    0    0    0 -0.00000000000E+00 -0.00000000000E+00  0.11368683772E-12  0.17120000000E+03  0.17120000000E+03 0.  0.
         13    1    1    2    0    0 -0.11052890568E+02  0.50654057526E+01  0.52144282458E+02  0.53543086225E+02  0.10566000000E+00 0.  1.
        994    1    1    2    0    0  0.84834467732E+01 -0.83337335320E+01  0.18619838204E+01  0.17162262953E+03  0.17120000000E+03 0.  0.
        998    1    1    2    0    0  0.25694437944E+01  0.32683277794E+01  0.14459937300E+04  0.14460342842E+04  0.10000000000E+02 0.  1.
</event>
<event>
 5    1  0.1503263E-008  0.3856998E+03  0.7957747E-01  0.3426710E+00
         13   -1    0    0    0    0  0.00000000000E+00  0.00000000000E+00  0.14999999963E+04  0.15000000000E+04  0.10566000000E+00 0.  1.
        994   -1    0    0    0    0 -0.00000000000E+00 -0.00000000000E+00  0.11368683772E-12  0.17120000000E+03  0.17120000000E+03 0.  0.
         13    1    1    2    0    0 -0.11716243451E+02 -0.84441013324E+00  0.49113221876E+02  0.50498545684E+02  0.10566000000E+00 0.  1.
        994    1    1    2    0    0  0.23335328998E+02  0.10507704499E+02  0.34350816192E+01  0.17313633131E+03  0.17120000000E+03 0.  0.
        998    1    1    2    0    0 -0.11619085546E+02 -0.96632943662E+01  0.14474516928E+04  0.14475651230E+04  0.10000000000E+02 0.  1.
</event>
<event>
 5    1  0.1503263E-008  0.3797440E+03  0.7957747E-01  0.3452274E+00
         13   -1    0    0    0    0  0.00000000000E+00  0.00000000000E+00  0.14999999963E+04  0.15000000000E+04  0.10566000000E+00 0. -1.
        994   -1    0    0    0    0 -0.00000000000E+00 -0.00000000000E+00  0.11368683772E-12  0.17120000000E+03  0.17120000000E+03 0.  0.
         13    1    1    2    0    0 -0.24489398394E+01 -0.10492923512E+02  0.11925357662E+02  0.16072463083E+02  0.10566000000E+00 0. -1.
        994    1    1    2    0    0  0.37393994458E+01  0.60917303123E+00  0.43104375311E+01  0.17129615895E+03  0.17120000000E+03 0.  0.
        998    1    1    2    0    0 -0.12904596063E+01  0.98837504805E+01  0.14837642011E+04  0.14838313780E+04  0.10000000000E+02 0. -1.
</event>
<event>
 5    1  0.1503263E-008  0.3850909E+03  0.7957747E-01  0.3429287E+00
         13   -1    0    0    0    0  0.00000000000E+00  0.00000000000E+00  0.14999999963E+04  0.15000000000E+04  0.10566000000E+00 0. -1.
        994   -1    0    0    0    0 -0.00000000000E+00 -0.00000000000E+00  0.11368683772E-12  0.17120000000E+03  0.17120000000E+03 0.  0.
         13    1    1    2    0    0 -0.12019645255E+02 -0.10728633987E+02  0.78617590658E+02  0.80251555650E+02  0.10566000000E+00 0. -1.
        994    1    1    2    0    0  0.57066941054E+01  0.18574277819E+02  0.28273336902E+01  0.17232238383E+03  0.17120000000E+03 0.  0.
        998    1    1    2    0    0  0.63129511498E+01 -0.78456438323E+01  0.14185550719E+04  0.14186260605E+04  0.10000000000E+02 0. -1.
</event>
<event>
 5    1  0.1503263E-008  0.3847251E+03  0.7957747E-01  0.3430839E+00
         13   -1    0    0    0    0  0.00000000000E+00  0.00000000000E+00  0.14999999963E+04  0.15000000000E+04  0.10566000000E+00 0.  1.
        994   -1    0    0    0    0 -0.00000000000E+00 -0.00000000000E+00  0.11368683772E-12  0.17120000000E+03  0.17120000000E+03 0.  0.
         13    1    1    2    0    0 -0.55260181615E+01 -0.17741293551E+02  0.97723831219E+02  0.99474864794E+02  0.10566000000E+00 0.  1.
        994    1    1    2    0    0  0.18277641704E+02  0.69386578381E+01  0.30257974475E+01  0.17233923700E+03  0.17120000000E+03 0.  0.
        998    1    1    2    0    0 -0.12751623542E+02  0.10802635713E+02  0.13992503676E+04  0.13993858982E+04  0.10000000000E+02 0.  1.
</event>
<event>
 5    1  0.1503263E-008  0.3831487E+03  0.7957747E-01  0.3437562E+00
         13   -1    0    0    0    0  0.00000000000E+00  0.00000000000E+00  0.14999999963E+04  0.15000000000E+04  0.10566000000E+00 0. -1.
        994   -1    0    0    0    0 -0.00000000000E+00 -0.00000000000E+00  0.11368683772E-12  0.17120000000E+03  0.17120000000E+03 0.  0.
         13    1    1    2    0    0 -0.89838193504E+01 -0.90116520533E+01  0.30859709998E+02  0.33380409645E+02  0.10566000000E+00 0. -1.
        994    1    1    2    0    0  0.53552700258E+01  0.72125712656E+01  0.28190921967E+01  0.17145870460E+03  0.17120000000E+03 0.  0.
        998    1    1    2    0    0  0.36285493247E+01  0.17990807877E+01  0.14663211941E+04  0.14663608858E+04  0.10000000000E+02 0. -1.
</event>
<event>
 5    1  0.3886006E-008  0.3862062E+03  0.7957747E-01  0.3424573E+00
         13   -1    0    0    0    0  0.00000000000E+00  0.00000000000E+00  0.14999999963E+04  0.15000000000E+04  0.10566000000E+00 0. -1.
        994   -1    0    0    0    0 -0.00000000000E+00 -0.00000000000E+00  0.11368683772E-12  0.17120000000E+03  0.17120000000E+03 0.  0.
         13    1    1    2    0    0 -0.22198650322E+00  0.10806199193E+02  0.59650998400E+02  0.60622405043E+02  0.10566000000E+00 0. -1.
        994    1    1    2    0    0  0.56801740365E+01 -0.22573997996E+01  0.11548535883E+01  0.17131297066E+03  0.17120000000E+03 0.  0.
        998    1    1    2    0    0 -0.54581875333E+01 -0.85487993935E+01  0.14391941443E+04  0.14392646243E+04  0.10000000000E+02 0. -1.
</event>
<event>
 5    1  0.1503263E-008  0.3845296E+03  0.7957747E-01  0.3431670E+00
         13   -1    0    0    0    0  0.00000000000E+00  0.00000000000E+00  0.14999999963E+04  0.15000000000E+04  0.10566000000E+00 0. -1.
        994   -1    0    0    0    0 -0.00000000000E+00 -0.00000000000E+00  0.11368683772E-12  0.17120000000E+03  0.17120000000E+03 0.  0.
         13    1    1    2    0    0 -0.10056197595E+02 -0.49474936595E+01  0.33367214194E+02  0.35199246451E+02  0.10566000000E+00 0. -1.
        994    1    1    2    0    0  0.63331763340E+01  0.35615779471E+01  0.20377899963E+01  0.17136623515E+03  0.17120000000E+03 0.  0.
        998    1    1    2    0    0  0.37230212608E+01  0.13859157124E+01  0.14645949921E+04  0.14646345184E+04  0.10000000000E+02 0. -1.
</event>
<event>
 5    1  0.3604627E-008  0.3863176E+03  0.7957747E-01  0.3424103E+00
         13   -1    0    0    0    0  0.00000000000E+00  0.00000000000E+00  0.14999999963E+04  0.15000000000E+04  0.10566000000E+00 0.  1.
        994   -1    0    0    0    0 -0.00000000000E+00 -0.00000000000E+00  0.11368683772E-12  0.17120000000E+03  0.17120000000E+03 0.  0.
         13    1    1    2    0    0 -0.58528537701E+00 -0.10940929263E+02  0.65380744159E+02  0.66292528711E+02  0.10566000000E+00 0.  1.
        994    1    1    2    0    0  0.18517447514E+01  0.17366860637E+01  0.99849590277E+00  0.17122173352E+03  0.17120000000E+03 0.  0.
        998    1    1    2    0    0 -0.12664593744E+01  0.92042431997E+01  0.14336207562E+04  0.14336857378E+04  0.10000000000E+02 0.  1.
</event>
<event>
 5    1  0.1503263E-008  0.3773999E+03  0.7957747E-01  0.3462559E+00
         13   -1    0    0    0    0  0.00000000000E+00  0.00000000000E+00  0.14999999963E+04  0.15000000000E+04  0.10566000000E+00 0.  1.
        994   -1    0    0    0    0 -0.00000000000E+00 -0.00000000000E+00  0.11368683772E-12  0.17120000000E+03  0.17120000000E+03 0.  0.
         13    1    1    2    0    0  0.12519911366E+02  0.29266156954E+02  0.94392802036E+02  0.99615603013E+02  0.10566000000E+00 0.  1.
        994    1    1    2    0    0  0.46956174470E+01 -0.14369876511E+02  0.62224704874E+01  0.17197878158E+03  0.17120000000E+03 0.  0.
        998    1    1    2    0    0 -0.17215528813E+02 -0.14896280443E+02  0.13993847238E+04  0.13996056154E+04  0.10000000000E+02 0.  1.
</event>
<event>
 5    1  0.1503263E-008  0.3794220E+03  0.7957747E-01  0.3453679E+00
         13   -1    0    0    0    0  0.00000000000E+00  0.00000000000E+00  0.14999999963E+04  0.15000000000E+04  0.10566000000E+00 0. -1.
        994   -1    0    0    0    0 -0.00000000000E+00 -0.00000000000E+00  0.11368683772E-12  0.17120000000E+03  0.17120000000E+03 0.  0.
         13    1    1    2    0    0  0.62502421315E+02 -0.50972041527E+02  0.47508640107E+03  0.48188359729E+03  0.10566000000E+00 0. -1.
        994    1    1    2    0    0 -0.70981888827E+02  0.46898019158E+02  0.29061604324E+02  0.19336977424E+03  0.17120000000E+03 0.  0.
        998    1    1    2    0    0  0.84794675113E+01  0.40740223697E+01  0.99585199088E+03  0.99594662847E+03  0.10000000000E+02 0.  0.
</event>
<event>
 5    1  0.1503263E-008  0.3786630E+03  0.7957747E-01  0.3457001E+00
         13   -1    0    0    0    0  0.00000000000E+00  0.00000000000E+00  0.14999999963E+04  0.15000000000E+04  0.10566000000E+00 0.  1.
        994   -1    0    0    0    0 -0.00000000000E+00 -0.00000000000E+00  0.11368683772E-12  0.17120000000E+03  0.17120000000E+03 0.  0.
         13    1    1    2    0    0  0.16981334805E+02  0.42814720167E+02  0.61204312766E+02  0.76599249734E+02  0.10566000000E+00 0.  1.
        994    1    1    2    0    0 -0.25698772500E+02 -0.31599338901E+02  0.21600486252E+02  0.17729908667E+03  0.17120000000E+03 0.  0.
        998    1    1    2    0    0  0.87174376955E+01 -0.11215381266E+02  0.14171951973E+04  0.14173016636E+04  0.10000000000E+02 0.  1.
</event>
<event>
 5    1  0.1503263E-008  0.3859187E+03  0.7957747E-01  0.3425785E+00
         13   -1    0    0    0    0  0.00000000000E+00  0.00000000000E+00  0.14999999963E+04  0.15000000000E+04  0.10566000000E+00 0.  1.
        994   -1    0    0    0    0 -0.00000000000E+00 -0.00000000000E+00  0.11368683772E-12  0.17120000000E+03  0.17120000000E+03 0.  0.
         13    1    1    2    0    0  0.58375713249E+01 -0.10002189069E+02  0.59451289342E+02  0.60568869839E+02  0.10566000000E+00 0.  1.
        994    1    1    2    0    0 -0.16483978164E+01  0.31195075750E+01  0.12155333069E+01  0.17124066709E+03  0.17120000000E+03 0.  0.
        998    1    1    2    0    0 -0.41891735084E+01  0.68826814940E+01  0.14393331736E+04  0.14393904631E+04  0.10000000000E+02 0.  1.
</event>
<event>
 5    1  0.1503263E-008  0.3753946E+03  0.7957747E-01  0.3471460E+00
         13   -1    0    0    0    0  0.00000000000E+00  0.00000000000E+00  0.14999999963E+04  0.15000000000E+04  0.10566000000E+00 0.  1.
        994   -1    0    0    0    0 -0.00000000000E+00 -0.00000000000E+00  0.11368683772E-12  0.17120000000E+03  0.17120000000E+03 0.  0.
         13    1    1    2    0    0  0.57842770071E+02 -0.20465157527E+02  0.22667071679E+03  0.23482809401E+03  0.10566000000E+00 0.  1.
        994    1    1    2    0    0 -0.68697416466E+02  0.26261518106E+02  0.25065287760E+02  0.18800721000E+03  0.17120000000E+03 0.  0.
        998    1    1    2    0    0  0.10854646395E+02 -0.57963605787E+01  0.12482639917E+04  0.12483646960E+04  0.10000000000E+02 0.  1.
</event>
<event>
 5    1  0.1503263E-008  0.3694192E+03  0.7957747E-01  0.3498565E+00
         13   -1    0    0    0    0  0.00000000000E+00  0.00000000000E+00  0.14999999963E+04  0.15000000000E+04  0.10566000000E+00 0. -1.
        994   -1    0    0    0    0 -0.00000000000E+00 -0.00000000000E+00  0.11368683772E-12  0.17120000000E+03  0.17120000000E+03 0.  0.
         13    1    1    2    0    0 -0.52780640395E+01  0.11763080229E+02  0.42692670988E+01  0.13581819542E+02  0.10566000000E+00 0. -1.
        994    1    1    2    0    0  0.43512659511E+01 -0.99689459341E+01  0.99829998925E+01  0.17183542616E+03  0.17120000000E+03 0.  0.
        998    1    1    2    0    0  0.92679808848E+00 -0.17941342946E+01  0.14857477293E+04  0.14857827543E+04  0.10000000000E+02 0. -1.
</event>
<event>
 5    1  0.1503263E-008  0.3838707E+03  0.7957747E-01  0.3434476E+00
         13   -1    0    0    0    0  0.00000000000E+00  0.00000000000E+00  0.14999999963E+04  0.15000000000E+04  0.10566000000E+00 0.  1.
        994   -1    0    0    0    0 -0.00000000000E+00 -0.00000000000E+00  0.11368683772E-12  0.17120000000E+03  0.17120000000E+03 0.  0.
         13    1    1    2    0    0 -0.21100388270E+02 -0.14025059646E+02  0.13870659587E+03  0.14100162973E+03  0.10566000000E+00 0.  1.
        994    1    1    2    0    0  0.12925294341E+02  0.19982984375E+02  0.40635662574E+01  0.17289400067E+03  0.17120000000E+03 0.  0.
        998    1    1    2    0    0  0.81750939292E+01 -0.59579247288E+01  0.13572298342E+04  0.13573043696E+04  0.10000000000E+02 0.  1.
</event>
<event>
 5    1  0.1503263E-008  0.3853578E+03  0.7957747E-01  0.3428156E+00
         13   -1    0    0    0    0  0.00000000000E+00  0.00000000000E+00  0.14999999963E+04  0.15000000000E+04  0.10566000000E+00 0. -1.
        994   -1    0    0    0    0 -0.00000000000E+00 -0.00000000000E+00  0.11368683772E-12  0.17120000000E+03  0.17120000000E+03 0.  0.
         13    1    1    2    0    0  0.76579354320E+01 -0.10886667834E+02  0.61211369824E+02  0.62641890707E+02  0.10566000000E+00 0. -1.
        994    1    1    2    0    0 -0.14045495727E+00  0.10702107730E+02  0.18289760892E+01  0.17154398850E+03  0.17120000000E+03 0.  0.
        998    1    1    2    0    0 -0.75174804747E+01  0.18456010387E+00  0.14369596504E+04  0.14370141208E+04  0.10000000000E+02 0. -1.
</event>
<event>
 5    1  0.1503263E-008  0.3918757E+03  0.7957747E-01  0.3401025E+00
         13   -1    0    0    0    0  0.00000000000E+00  0.00000000000E+00  0.14999999963E+04  0.15000000000E+04  0.10566000000E+00 0.  1.
        994   -1    0    0    0    0 -0.00000000000E+00 -0.00000000000E+00  0.11368683772E-12  0.17120000000E+03  0.17120000000E+03 0.  0.
         13    1    1    2    0    0  0.27181471939E+02 -0.51108099694E+02  0.63531464209E+02  0.85948405336E+02  0.10566000000E+00 0.  1.
        994    1    1    2    0    0 -0.55877452771E+02  0.26297858255E+02  0.37610573765E+02  0.18584365024E+03  0.17120000000E+03 0.  0.
        998    1    1    2    0    0  0.28695980832E+02  0.24810241439E+02  0.13988579583E+04  0.13994079444E+04  0.10000000000E+02 0.  1.
</event>
<event>
 5    1  0.1503263E-008  0.3819764E+03  0.7957747E-01  0.3442597E+00
         13   -1    0    0    0    0  0.00000000000E+00  0.00000000000E+00  0.14999999963E+04  0.15000000000E+04  0.10566000000E+00 0. -1.
        994   -1    0    0    0    0 -0.00000000000E+00 -0.00000000000E+00  0.11368683772E-12  0.17120000000E+03  0.17120000000E+03 0.  0.
         13    1    1    2    0    0 -0.80751706751E+01 -0.21920511032E+02  0.85920598600E+02  0.89039752993E+02  0.10566000000E+00 0. -1.
        994    1    1    2    0    0  0.10287075302E+02  0.11750268496E+02  0.39491996086E+01  0.17195618310E+03  0.17120000000E+03 0.  0.
        998    1    1    2    0    0 -0.22119046270E+01  0.10170242537E+02  0.14101301981E+04  0.14102040639E+04  0.10000000000E+02 0. -1.
</event>
<event>
 5    1  0.1503263E-008  0.3800760E+03  0.7957747E-01  0.3450827E+00
         13   -1    0    0    0    0  0.00000000000E+00  0.00000000000E+00  0.14999999963E+04  0.15000000000E+04  0.10566000000E+00 0.  1.
        994   -1    0    0    0    0 -0.00000000000E+00 -0.00000000000E+00  0.11368683772E-12  0.17120000000E+03  0.17120000000E+03 0.  0.
         13    1    1    2    0    0  0.10111822399E+02  0.13836924179E+02  0.33941710015E+02  0.38023154337E+02  0.10566000000E+00 0.  1.
        994    1    1    2    0    0 -0.30704554151E+01 -0.15735799445E+02  0.49542904120E+01  0.17202042923E+03  0.17120000000E+03 0.  0.
        998    1    1    2    0    0 -0.70413669834E+01  0.18988752670E+01  0.14611039959E+04  0.14611564164E+04  0.10000000000E+02 0.  1.
</event>
<event>
 5    1  0.1503263E-008  0.3789295E+03  0.7957747E-01  0.3455833E+00
         13   -1    0    0    0    0  0.00000000000E+00  0.00000000000E+00  0.14999999963E+04  0.15000000000E+04  0.10566000000E+00 0. -1.
        994   -1    0    0    0    0 -0.00000000000E+00 -0.00000000000E+00  0.11368683772E-12  0.17120000000E+03  0.17120000000E+03 0.  0.
         13    1    1    2    0    0  0.11450036674E+02 -0.33794882094E+02  0.11825810187E+03  0.12352403498E+03  0.10566000000E+00 0. -1.
        994    1    1    2    0    0 -0.55044365265E+01  0.46780516803E+02  0.12154080563E+02  0.17797718182E+03  0.17120000000E+03 0.  0.
        998    1    1    2    0    0 -0.59456001471E+01 -0.12985634709E+02  0.13695878138E+04  0.13696987832E+04  0.10000000000E+02 0. -1.
</event>
<event>
 5    1  0.1503263E-008  0.3849841E+03  0.7957747E-01  0.3429740E+00
         13   -1    0    0    0    0  0.00000000000E+00  0.00000000000E+00  0.14999999963E+04  0.15000000000E+04  0.10566000000E+00 0.  1.
        994   -1    0    0    0    0 -0.00000000000E+00 -0.00000000000E+00  0.11368683772E-12  0.17120000000E+03  0.17120000000E+03 0.  0.
         13    1    1    2    0    0 -0.67767807758E+01 -0.82988463588E+01  0.35604635172E+02  0.37181942100E+02  0.10566000000E+00 0.  1.
        994    1    1    2    0    0  0.88529269491E+01 -0.35290120187E+01  0.19367957733E+01  0.17147600246E+03  0.17120000000E+03 0.  0.
        998    1    1    2    0    0 -0.20761461733E+01  0.11827858377E+02  0.14624585653E+04  0.14625420554E+04  0.10000000000E+02 0.  1.
</event>
<event>
 5    1  0.1503263E-008  0.3858580E+03  0.7957747E-01  0.3426042E+00
         13   -1    0    0    0    0  0.00000000000E+00  0.00000000000E+00  0.14999999963E+04  0.15000000000E+04  0.10566000000E+00 0. -1.
        994   -1    0    0    0    0 -0.00000000000E+00 -0.00000000000E+00  0.11368683772E-12  0.17120000000E+03  0.17120000000E+03 0.  0.
         13    1    1    2    0    0  0.10430674965E+02 -0.97641686527E+00  0.50437449446E+02  0.51514074201E+02  0.10566000000E+00 0. -1.
        994    1    1    2    0    0  0.59420410338E+01 -0.10791205757E+02  0.17026292134E+01  0.17165109064E+03  0.17120000000E+03 0.  0.
        998    1    1    2    0    0 -0.16372715999E+02  0.11767622623E+02  0.14478599176E+04  0.14480348352E+04  0.10000000000E+02 0. -1.
</event>
<event>
 5    1  0.1503263E-008  0.3819199E+03  0.7957747E-01  0.3442841E+00
         13   -1    0    0    0    0  0.00000000000E+00  0.00000000000E+00  0.14999999963E+04  0.15000000000E+04  0.10566000000E+00 0.  1.
        994   -1    0    0    0    0 -0.00000000000E+00 -0.00000000000E+00  0.11368683772E-12  0.17120000000E+03  0.17120000000E+03 0.  0.
         13    1    1    2    0    0  0.14690278096E+02  0.19460811742E+01  0.33916457382E+02  0.37012548519E+02  0.10566000000E+00 0.  1.
        994    1    1    2    0    0 -0.61555859820E+01 -0.43246863797E+01  0.33551507838E+01  0.17139804896E+03  0.17120000000E+03 0.  0.
        998    1    1    2    0    0 -0.85346921143E+01  0.23786052055E+01  0.14627283881E+04  0.14627894025E+04  0.10000000000E+02 0.  1.
</event>
<event>
 5    1  0.1503263E-008  0.3823033E+03  0.7957747E-01  0.3441190E+00
         13   -1    0    0    0    0  0.00000000000E+00  0.00000000000E+00  0.14999999963E+04  0.15000000000E+04  0.10566000000E+00 0. -1.
        994   -1    0    0    0    0 -0.00000000000E+00 -0.00000000000E+00  0.11368683772E-12  0.17120000000E+03  0.17120000000E+03 0.  0.
         13    1    1    2    0    0 -0.35453486146E+01  0.23653090236E+02  0.10071926082E+03  0.10352013736E+03  0.10566000000E+00 0. -1.
        994    1    1    2    0    0  0.10078925734E+02 -0.40731552865E+01  0.33671224143E+01  0.17157783322E+03  0.17120000000E+03 0.  0.
        998    1    1    2    0    0 -0.65335771198E+01 -0.19579934950E+02  0.13959136130E+04  0.13961020294E+04  0.10000000000E+02 0. -1.
</event>
<event>
 5    1  0.1503263E-008  0.3847929E+03  0.7957747E-01  0.3430551E+00
         13   -1    0    0    0    0  0.00000000000E+00  0.00000000000E+00  0.14999999963E+04  0.15000000000E+04  0.10566000000E+00 0. -1.
        994   -1    0    0    0    0 -0.00000000000E+00 -0.00000000000E+00  0.11368683772E-12  0.17120000000E+03  0.17120000000E+03 0.  0.
         13    1    1    2    0    0  0.53712068789E+01 -0.17336672491E+02  0.10485937749E+03  0.10641856176E+03  0.10566000000E+00 0. -1.
        994    1    1    2    0    0  0.43497727420E+02  0.16448572408E+02  0.88824768276E+01  0.17762586022E+03  0.17120000000E+03 0.  0.
        998    1    1    2    0    0 -0.48868934299E+02  0.88810008288E+00  0.13862581420E+04  0.13871555780E+04  0.10000000000E+02 0. -1.
</event>
<event>
 5    1  0.1503263E-008  0.3837074E+03  0.7957747E-01  0.3435173E+00
         13   -1    0    0    0    0  0.00000000000E+00  0.00000000000E+00  0.14999999963E+04  0.15000000000E+04  0.10566000000E+00 0. -1.
        994   -1    0    0    0    0 -0.00000000000E+00 -0.00000000000E+00  0.11368683772E-12  0.17120000000E+03  0.17120000000E+03 0.  0.
         13    1    1    2    0    0  0.18898548438E+02  0.24950861849E+01  0.74876878702E+02  0.77265378511E+02  0.10566000000E+00 0. -1.
        994    1    1    2    0    0 -0.23559992266E+02  0.68718616383E+01  0.42648793743E+01  0.17300267314E+03  0.17120000000E+03 0.  0.
        998    1    1    2    0    0  0.46614438275E+01 -0.93669478232E+01  0.14208582382E+04  0.14209319483E+04  0.10000000000E+02 0. -1.
</event>
<event>
 5    1  0.1503263E-008  0.3747119E+03  0.7957747E-01  0.3474512E+00
         13   -1    0    0    0    0  0.00000000000E+00  0.00000000000E+00  0.14999999963E+04  0.15000000000E+04  0.10566000000E+00 0.  1.
        994   -1    0    0    0    0 -0.00000000000E+00 -0.00000000000E+00  0.11368683772E-12  0.17120000000E+03  0.17120000000E+03 0.  0.
         13    1    1    2    0    0  0.18544136985E+01  0.29713989847E+02  0.60399811111E+02  0.67338758446E+02  0.10566000000E+00 0.  1.
        994    1    1    2    0    0  0.17127045251E+02 -0.29629446233E+02  0.10822290702E+02  0.17492227342E+03  0.17120000000E+03 0.  0.
        998    1    1    2    0    0 -0.18981458950E+02 -0.84543613726E-01  0.14287778945E+04  0.14289389681E+04  0.10000000000E+02 0.  1.
</event>
<event>
 5    1  0.1503263E-008  0.3710175E+03  0.7957747E-01  0.3491228E+00
         13   -1    0    0    0    0  0.00000000000E+00  0.00000000000E+00  0.14999999963E+04  0.15000000000E+04  0.10566000000E+00 0. -1.
        994   -1    0    0    0    0 -0.00000000000E+00 -0.00000000000E+00  0.11368683772E-12  0.17120000000E+03  0.17120000000E+03 0.  0.
         13    1    1    2    0    0 -0.42778856129E+02  0.38806197157E+02  0.20754974260E+03  0.21543643677E+03  0.10566000000E+00 0. -1.
        994    1    1    2    0    0  0.26467906668E+02  0.47953296480E+01  0.11235235930E+02  0.17366408897E+03  0.17120000000E+03 0.  0.
        998    1    1    2    0    0  0.16310949461E+02 -0.43601526805E+02  0.12812150177E+04  0.12820994743E+04  0.10000000000E+02 0. -1.
</event>
<event>
 5    1  0.1503263E-008  0.3828252E+03  0.7957747E-01  0.3438949E+00
         13   -1    0    0    0    0  0.00000000000E+00  0.00000000000E+00  0.14999999963E+04  0.15000000000E+04  0.10566000000E+00 0.  1.
        994   -1    0    0    0    0 -0.00000000000E+00 -0.00000000000E+00  0.11368683772E-12  0.17120000000E+03  0.17120000000E+03 0.  0.
         13    1    1    2    0    0  0.13555381040E+01 -0.16535025139E+02  0.51505166142E+02  0.54111346714E+02  0.10566000000E+00 0.  1.
        994    1    1    2    0    0  0.16289814213E+01  0.39648522589E+01  0.27746148685E+01  0.17127612829E+03  0.17120000000E+03 0.  0.
        998    1    1    2    0    0 -0.29845195254E+01  0.12570172880E+02  0.14457202153E+04  0.14458125250E+04  0.10000000000E+02 0.  1.
</event>
<event>
 5    1  0.1503263E-008  0.3831718E+03  0.7957747E-01  0.3437463E+00
         13   -1    0    0    0    0  0.00000000000E+00  0.00000000000E+00  0.14999999963E+04  0.15000000000E+04  0.10566000000E+00 0. -1.
        994   -1    0    0    0    0 -0.00000000000E+00 -0.00000000000E+00  0.11368683772E-12  0.17120000000E+03  0.17120000000E+03 0.  0.
         13    1    1    2    0    0 -0.15189882702E+02 -0.15406968095E+02  0.90382408729E+02  0.92935989660E+02  0.10566000000E+00 0. -1.
        994    1    1    2    0    0  0.13140406607E+02  0.87668326528E+01  0.33664742374E+01  0.17196017210E+03  0.17120000000E+03 0.  0.
        998    1    1    2    0    0  0.20494760952E+01  0.66401354421E+01  0.14062511133E+04  0.14063038382E+04  0.10000000000E+02 0.  0.
</event>
<event>
 5    1  0.1503263E-008  0.2224049E+03  0.7957747E-01  0.4674855E+00
         13   -1    0    0    0    0  0.00000000000E+00  0.00000000000E+00  0.14999999963E+04  0.15000000000E+04  0.10566000000E+00 0. -1.
        994   -1    0    0    0    0 -0.00000000000E+00 -0.00000000000E+00  0.11368683772E-12  0.17120000000E+03  0.17120000000E+03 0.  0.
         13    1    1    2    0    0 -0.53310660388E+02 -0.97115594427E+02  0.40775600176E+02  0.11805136986E+03  0.10566000000E+00 0. -1.
        994    1    1    2    0    0  0.50902612017E+02  0.10122469172E+03  0.17754296837E+03  0.27141934298E+03  0.17120000000E+03 0.  0.
        998    1    1    2    0    0  0.24080483714E+01 -0.41090972948E+01  0.12816814277E+04  0.12817292872E+04  0.10000000000E+02 0. -1.
</event>
<event>
 5    1  0.1503263E-008  0.3777782E+03  0.7957747E-01  0.3460890E+00
         13   -1    0    0    0    0  0.00000000000E+00  0.00000000000E+00  0.14999999963E+04  0.15000000000E+04  0.10566000000E+00 0. -1.
        994   -1    0    0    0    0 -0.00000000000E+00 -0.00000000000E+00  0.11368683772E-12  0.17120000000E+03  0.17120000000E+03 0.  0.
         13    1    1    2    0    0 -0.86602552009E+01  0.13926290220E+02  0.22838811210E+02  0.28116970693E+02  0.10566000000E+00 0. -1.
        994    1    1    2    0    0  0.12989030407E+02 -0.15498521101E+02  0.66372280026E+01  0.17251785955E+03  0.17120000000E+03 0.  0.
        998    1    1    2    0    0 -0.43287752057E+01  0.15722308809E+01  0.14705239571E+04  0.14705651698E+04  0.10000000000E+02 0. -1.
</event>
<event>
 5    1  0.1503263E-008  0.3844605E+03  0.7957747E-01  0.3431963E+00
         13   -1    0    0    0    0  0.00000000000E+00  0.00000000000E+00  0.14999999963E+04  0.15000000000E+04  0.10566000000E+00 0.  1.
        994   -1    0    0    0    0 -0.00000000000E+00 -0.00000000000E+00  0.11368683772E-12  0.17120000000E+03  0.17120000000E+03 0.  0.
         13    1    1    2    0    0 -0.32521333700E+01  0.19538497977E+02  0.11094305610E+03  0.11269739188E+03  0.10566000000E+00 0.  1.
        994    1    1    2    0    0  0.10077124897E+02 -0.16242775326E+01  0.22415347541E+01  0.17151866138E+03  0.17120000000E+03 0.  0.
        998    1    1    2    0    0 -0.68249915271E+01 -0.17914220444E+02  0.13868154054E+04  0.13869839467E+04  0.10000000000E+02 0.  1.
</event>
<event>
 5    1  0.1503263E-008  0.3972932E+03  0.7957747E-01  0.3379152E+00
         13   -1    0    0    0    0  0.00000000000E+00  0.00000000000E+00  0.14999999963E+04  0.15000000000E+04  0.10566000000E+00 0. -1.
        994   -1    0    0    0    0 -0.00000000000E+00 -0.00000000000E+00  0.11368683772E-12  0.17120000000E+03  0.17120000000E+03 0.  0.
         13    1    1    2    0    0 -0.52893876532E+02 -0.43243712079E+02  0.10499237143E+03  0.12526448033E+03  0.10566000000E+00 0. -1.
        994    1    1    2    0    0 -0.78298209016E+02  0.22399218300E+02  0.52339792278E+02  0.19667543917E+03  0.17120000000E+03 0.  0.
        998    1    1    2    0    0  0.13119208555E+03  0.20844493779E+02  0.13426678326E+04  0.13492600805E+04  0.10000000000E+02 0. -1.
</event>
<event>
 5    1  0.1503263E-008  0.3804052E+03  0.7957747E-01  0.3449396E+00
         13   -1    0    0    0    0  0.00000000000E+00  0.00000000000E+00  0.14999999963E+04  0.15000000000E+04  0.10566000000E+00 0.  1.
        994   -1    0    0    0    0 -0.00000000000E+00 -0.00000000000E+00  0.11368683772E-12  0.17120000000E+03  0.17120000000E+03 0.  0.
         13    1    1    2    0    0 -0.24741858095E+02  0.21397560751E+02  0.13294729626E+03  0.13691241688E+03  0.10566000000E+00 0.  1.
        994    1    1    2    0    0  0.13666247700E+02 -0.17498882093E+02  0.55762737681E+01  0.17272380273E+03  0.17120000000E+03 0.  0.
        998    1    1    2    0    0  0.11075610395E+02 -0.38986786575E+01  0.13614764263E+04  0.13615637804E+04  0.10000000000E+02 0.  1.
</event>
<event>
 5    1  0.1503263E-008  0.3855444E+03  0.7957747E-01  0.3427367E+00
         13   -1    0    0    0    0  0.00000000000E+00  0.00000000000E+00  0.14999999963E+04  0.15000000000E+04  0.10566000000E+00 0. -1.
        994   -1    0    0    0    0 -0.00000000000E+00 -0.00000000000E+00  0.11368683772E-12  0.17120000000E+03  0.17120000000E+03 0.  0.
         13    1    1    2    0    0  0.62312939334E+01 -0.98877551124E+01  0.52483092409E+02  0.53768790930E+02  0.10566000000E+00 0. -1.
        994    1    1    2    0    0  0.24352461176E+01  0.34307815777E+01  0.14182141224E+01  0.17125756047E+03  0.17120000000E+03 0.  0.
        998    1    1    2    0    0 -0.86665400510E+01  0.64569735347E+01  0.14460986897E+04  0.14461736486E+04  0.10000000000E+02 0. -1.
</event>
<event>
 5    1  0.1503263E-008  0.3724126E+03  0.7957747E-01  0.3484876E+00
         13   -1    0    0    0    0  0.00000000000E+00  0.00000000000E+00  0.14999999963E+04  0.15000000000E+04  0.10566000000E+00 0. -1.
        994   -1    0    0    0    0 -0.00000000000E+00 -0.00000000000E+00  0.11368683772E-12  0.17120000000E+03  0.17120000000E+03 0.  0.
         13    1    1    2    0    0 -0.63672231139E+02  0.12525471665E+02  0.26350984079E+03  0.27138254884E+03  0.10566000000E+00 0. -1.
        994    1    1    2    0    0  0.32277522831E+02 -0.20619466715E+02  0.13060731762E+02  0.17591766143E+03  0.17120000000E+03 0.  0.
        998    1    1    2    0    0  0.31394708308E+02  0.80939950499E+01  0.12234294237E+04  0.12238997897E+04  0.10000000000E+02 0. -1.
</event>
<event>
 5    1  0.1503263E-008  0.3847717E+03  0.7957747E-01  0.3430641E+00
         13   -1    0    0    0    0  0.00000000000E+00  0.00000000000E+00  0.14999999963E+04  0.15000000000E+04  0.10566000000E+00 0. -1.
        994   -1    0    0    0    0 -0.00000000000E+00 -0.00000000000E+00  0.11368683772E-12  0.17120000000E+03  0.17120000000E+03 0.  0.
         13    1    1    2    0    0 -0.11576850280E+02  0.84371288035E+01  0.59954826797E+02  0.61642526110E+02  0.10566000000E+00 0. -1.
        994    1    1    2    0    0  0.61844918369E+01 -0.16701372482E+01  0.18785999007E+01  0.17133010954E+03  0.17120000000E+03 0.  0.
        998    1    1    2    0    0  0.53923584428E+01 -0.67669915553E+01  0.14381665696E+04  0.14382273643E+04  0.10000000000E+02 0. -1.
</event>
<event>
 5    1  0.1503263E-008  0.3835143E+03  0.7957747E-01  0.3435998E+00
         13   -1    0    0    0    0  0.00000000000E+00  0.00000000000E+00  0.14999999963E+04  0.15000000000E+04  0.10566000000E+00 0. -1.
        994   -1    0    0    0    0 -0.00000000000E+00 -0.00000000000E+00  0.11368683772E-12  0.17120000000E+03  0.17120000000E+03 0.  0.
         13    1    1    2    0    0  0.12378670717E+02 -0.19083576576E+02  0.11766581053E+03  0.11984435121E+03  0.10566000000E+00 0. -1.
        994    1    1    2    0    0  0.64339345319E+01  0.79024323514E+01  0.27128049781E+01  0.17152446840E+03  0.17120000000E+03 0.  0.
        998    1    1    2    0    0 -0.18812605249E+02  0.11181144225E+02  0.13796213808E+04  0.13798311804E+04  0.10000000000E+02 0. -1.
</event>
<event>
 5    1  0.1503263E-008  0.3855882E+03  0.7957747E-01  0.3427181E+00
         13   -1    0    0    0    0  0.00000000000E+00  0.00000000000E+00  0.14999999963E+04  0.15000000000E+04  0.10566000000E+00 0.  1.
        994   -1    0    0    0    0 -0.00000000000E+00 -0.00000000000E+00  0.11368683772E-12  0.17120000000E+03  0.17120000000E+03 0.  0.
         13    1    1    2    0    0  0.10607715426E+02  0.36025365844E+01  0.48336112540E+02  0.49617465029E+02  0.10566000000E+00 0.  1.
        994    1    1    2    0    0 -0.62192966845E+01  0.75352774609E+01  0.16517707675E+01  0.17148652543E+03  0.17120000000E+03 0.  0.
        998    1    1    2    0    0 -0.43884187417E+01 -0.11137814045E+02  0.14500121130E+04  0.14500960095E+04  0.10000000000E+02 0.  1.
</event>
<event>
 5    1  0.1503263E-008  0.3841493E+03  0.7957747E-01  0.3433288E+00
         13   -1    0    0    0    0  0.00000000000E+00  0.00000000000E+00  0.14999999963E+04  0.15000000000E+04  0.10566000000E+00 0.  1.
        994   -1    0    0    0    0 -0.00000000000E+00 -0.00000000000E+00  0.11368683772E-12  0.17120000000E+03  0.17120000000E+03 0.  0.
         13    1    1    2    0    0  0.88016118558E+01  0.11406542169E+02  0.49891425490E+02  0.51930175014E+02  0.10566000000E+00 0.  1.
        994    1    1    2    0    0 -0.57082560044E+01 -0.89295995266E+01  0.24235570198E+01  0.17154485000E+03  0.17120000000E+03 0.  0.
        998    1    1    2    0    0 -0.30933558515E+01 -0.24769426428E+01  0.14476850138E+04  0.14477249750E+04  0.10000000000E+02 0.  1.
</event>
<event>
 5    1  0.1503263E-008  0.3737612E+03  0.7957747E-01  0.3478782E+00
         13   -1    0    0    0    0  0.00000000000E+00  0.00000000000E+00  0.14999999963E+04  0.15000000000E+04  0.10566000000E+00 0. -1.
        994   -1    0    0    0    0 -0.00000000000E+00 -0.00000000000E+00  0.11368683772E-12  0.17120000000E+03  0.17120000000E+03 0.  0.
         13    1    1    2    0    0  0.32973353899E+02 -0.56256668843E+02  0.32968115638E+03  0.33606804504E+03  0.10566000000E+00 0. -1.
        994    1    1    2    0    0 -0.30755181158E+00  0.23448426513E+02  0.91956726833E+01  0.17304312668E+03  0.17120000000E+03 0.  0.
        998    1    1    2    0    0 -0.32665802087E+02  0.32808242330E+02  0.11611231672E+04  0.11620888283E+04  0.10000000000E+02 0. -1.
</event>
<event>
 5    1  0.1503263E-008  0.3709550E+03  0.7957747E-01  0.3491513E+00
         13   -1    0    0    0    0  0.00000000000E+00  0.00000000000E+00  0.14999999963E+04  0.15000000000E+04  0.10566000000E+00 0.  1.
        994   -1    0    0    0    0 -0.00000000000E+00 -0.00000000000E+00  0.11368683772E-12  0.17120000000E+03  0.17120000000E+03 0.  0.
         13    1    1    2    0    0  0.38013448192E+02  0.62094040678E+02  0.24732671814E+03  0.25782010938E+03  0.10566000000E+00 0.  1.
        994    1    1    2    0    0 -0.33665444264E+02 -0.66871388273E+02  0.28343108469E+02  0.18899184243E+03  0.17120000000E+03 0.  0.
        998    1    1    2    0    0 -0.43480039286E+01  0.47773475954E+01  0.12243301697E+04  0.12243880482E+04  0.10000000000E+02 0.  1.
</event>
<event>
 5    1  0.1503263E-008  0.3841803E+03  0.7957747E-01  0.3433156E+00
         13   -1    0    0    0    0  0.00000000000E+00  0.00000000000E+00  0.14999999963E+04  0.15000000000E+04  0.10566000000E+00 0. -1.
        994   -1    0    0    0    0 -0.00000000000E+00 -0.00000000000E+00  0.11368683772E-12  0.17120000000E+03  0.17120000000E+03 0.  0.
         13    1    1    2    0    0 -0.37449891378E+00  0.11469722741E+02  0.32061090277E+02  0.34053185798E+02  0.10566000000E+00 0. -1.
        994    1    1    2    0    0 -0.54261985529E+01 -0.60339798956E+01  0.22548126403E+01  0.17140704981E+03  0.17120000000E+03 0.  0.
        998    1    1    2    0    0  0.58006974666E+01 -0.54357428455E+01  0.14656840934E+04  0.14657397644E+04  0.10000000000E+02 0. -1.
</event>
<event>
 5    1  0.1503263E-008  0.3780391E+03  0.7957747E-01  0.3459741E+00
         13   -1    0    0    0    0  0.00000000000E+00  0.00000000000E+00  0.14999999963E+04  0.15000000000E+04  0.10566000000E+00 0.  1.
        994   -1    0    0    0    0 -0.00000000000E+00 -0.00000000000E+00  0.11368683772E-12  0.17120000000E+03  0.17120000000E+03 0.  0.
         13    1    1    2    0    0  0.27485862466E+02 -0.41349437329E+00  0.84875440883E+02  0.89216003285E+02  0.10566000000E+00 0.  1.
        994    1    1    2    0    0  0.20657366176E+02  0.14776549773E+02  0.72998056830E+01  0.17322759700E+03  0.17120000000E+03 0.  0.
        998    1    1    2    0    0 -0.48143228641E+02 -0.14363055400E+02  0.14078247497E+04  0.14087563997E+04  0.10000000000E+02 0.  1.
</event>
<event>
 5    1  0.1503263E-008  0.3836103E+03  0.7957747E-01  0.3435587E+00
         13   -1    0    0    0    0  0.00000000000E+00  0.00000000000E+00  0.14999999963E+04  0.15000000000E+04  0.10566000000E+00 0.  1.
        994   -1    0    0    0    0 -0.00000000000E+00 -0.00000000000E+00  0.11368683772E-12  0.17120000000E+03  0.17120000000E+03 0.  0.
         13    1    1    2    0    0  0.16841546093E+02 -0.13773589700E+02  0.10686047841E+03  0.10905284250E+03  0.10566000000E+00 0.  1.
        994    1    1    2    0    0 -0.45737652242E+01  0.38305672184E+01  0.24392456696E+01  0.17132128441E+03  0.17120000000E+03 0.  0.
        998    1    1    2    0    0 -0.12267780868E+02  0.99430224820E+01  0.13907002722E+04  0.13908258731E+04  0.10000000000E+02 0.  1.
</event>
<event>
 5    1  0.1503263E-008  0.3845899E+03  0.7957747E-01  0.3431413E+00
         13   -1    0    0    0    0  0.00000000000E+00  0.00000000000E+00  0.14999999963E+04  0.15000000000E+04  0.10566000000E+00 0.  1.
        994   -1    0    0    0    0 -0.00000000000E+00 -0.00000000000E+00  0.11368683772E-12  0.17120000000E+03  0.17120000000E+03 0.  0.
         13    1    1    2    0    0 -0.12192034764E+02 -0.40827866549E+01  0.46427625603E+02  0.48175205674E+02  0.10566000000E+00 0.  1.
        994    1    1    2    0    0 -0.36251874801E+00  0.64836920231E+01  0.19727670972E+01  0.17133447257E+03  0.17120000000E+03 0.  0.
        998    1    1    2    0    0  0.12554553512E+02 -0.24009053682E+01  0.14515996036E+04  0.14516903218E+04  0.10000000000E+02 0.  1.
</event>
<event>
 5    1  0.1503263E-008  0.3829904E+03  0.7957747E-01  0.3438240E+00
         13   -1    0    0    0    0  0.00000000000E+00  0.00000000000E+00  0.14999999963E+04  0.15000000000E+04  0.10566000000E+00 0. -1.
        994   -1    0    0    0    0 -0.00000000000E+00 -0.00000000000E+00  0.11368683772E-12  0.17120000000E+03  0.17120000000E+03 0.  0.
         13    1    1    2    0    0 -0.33890721306E+02 -0.47376952735E+01  0.19354316138E+03  0.19654514298E+03  0.10566000000E+00 0. -1.
        994    1    1    2    0    0  0.34381031277E+02  0.11605136846E+02  0.70020735322E+01  0.17514337997E+03  0.17120000000E+03 0.  0.
        998    1    1    2    0    0 -0.49030997183E+00 -0.68674415729E+01  0.12994547614E+04  0.12995114771E+04  0.10000000000E+02 0. -1.
</event>
<event>
 5    1  0.1503263E-008  0.3819323E+03  0.7957747E-01  0.3442788E+00
         13   -1    0    0    0    0  0.00000000000E+00  0.00000000000E+00  0.14999999963E+04  0.15000000000E+04  0.10566000000E+00 0. -1.
        994   -1    0    0    0    0 -0.00000000000E+00 -0.00000000000E+00  0.11368683772E-12  0.17120000000E+03  0.17120000000E+03 0.  0.
         13    1    1    2    0    0 -0.21004485755E+01  0.15824439383E+02  0.38468077878E+02  0.41648876883E+02  0.10566000000E+00 0. -1.
        994    1    1    2    0    0 -0.65895181714E+00 -0.15877579756E+02  0.40001920151E+01  0.17198247961E+03  0.17120000000E+03 0.  0.
        998    1    1    2    0    0  0.27594003927E+01  0.53140373444E-01  0.14575317264E+04  0.14575686435E+04  0.10000000000E+02 0. -1.
</event>
<event>
 5    1  0.1503263E-008  0.3857124E+03  0.7957747E-01  0.3426656E+00
         13   -1    0    0    0    0  0.00000000000E+00  0.00000000000E+00  0.14999999963E+04  0.15000000000E+04  0.10566000000E+00 0. -1.
        994   -1    0    0    0    0 -0.00000000000E+00 -0.00000000000E+00  0.11368683772E-12  0.17120000000E+03  0.17120000000E+03 0.  0.
         13    1    1    2    0    0 -0.11387850596E+02  0.11480563744E+01  0.56926868059E+02  0.58066174712E+02  0.10566000000E+00 0. -1.
        994    1    1    2    0    0 -0.63662570750E+01  0.23870832838E+01  0.14285468075E+01  0.17134091205E+03  0.17120000000E+03 0.  0.
        998    1    1    2    0    0  0.17754107671E+02 -0.35351396582E+01  0.14416445814E+04  0.14417929132E+04  0.10000000000E+02 0. -1.
</event>
<event>
 5    1  0.1503263E-008  0.3844904E+03  0.7957747E-01  0.3431836E+00
         13   -1    0    0    0    0  0.00000000000E+00  0.00000000000E+00  0.14999999963E+04  0.15000000000E+04  0.10566000000E+00 0.  1.
        994   -1    0    0    0    0 -0.00000000000E+00 -0.00000000000E+00  0.11368683772E-12  0.17120000000E+03  0.17120000000E+03 0.  0.
         13    1    1    2    0    0 -0.62850638306E+00  0.21893308540E+02  0.13177452052E+03  0.13358236187E+03  0.10566000000E+00 0.  1.
        994    1    1    2    0    0  0.14101255368E+01 -0.92906395843E+01  0.21742836886E+01  0.17147149019E+03  0.17120000000E+03 0.  0.
        998    1    1    2    0    0 -0.78161915378E+00 -0.12602668955E+02  0.13660511921E+04  0.13661461479E+04  0.10000000000E+02 0.  1.
</event>
<event>
 5    1  0.1503263E-008  0.3853821E+03  0.7957747E-01  0.3428053E+00
         13   -1    0    0    0    0  0.00000000000E+00  0.00000000000E+00  0.14999999963E+04  0.15000000000E+04  0.10566000000E+00 0. -1.
        994   -1    0    0    0    0 -0.00000000000E+00 -0.00000000000E+00  0.11368683772E-12  0.17120000000E+03  0.17120000000E+03 0.  0.
         13    1    1    2    0    0 -0.92846968949E+01  0.14979520418E+02  0.97369838569E+02  0.98951949225E+02  0.10566000000E+00 0. -1.
        994    1    1    2    0    0  0.19045201673E+01 -0.27787142745E+02  0.39927493100E+01  0.17349678541E+03  0.17120000000E+03 0.  0.
        998    1    1    2    0    0  0.73801767276E+01  0.12807622327E+02  0.13986374084E+04  0.13987512654E+04  0.10000000000E+02 0. -1.
</event>
<event>
 5    1  0.1503263E-008  0.3817315E+03  0.7957747E-01  0.3443654E+00
         13   -1    0    0    0    0  0.00000000000E+00  0.00000000000E+00  0.14999999963E+04  0.15000000000E+04  0.10566000000E+00 0. -1.
        994   -1    0    0    0    0 -0.00000000000E+00 -0.00000000000E+00  0.11368683772E-12  0.17120000000E+03  0.17120000000E+03 0.  0.
         13    1    1    2    0    0  0.31952869070E+01  0.15962932675E+02  0.39699042176E+02  0.42907460794E+02  0.10566000000E+00 0. -1.
        994    1    1    2    0    0 -0.47813373975E+01 -0.84780551394E+01  0.35765923125E+01  0.17151376218E+03  0.17120000000E+03 0.  0.
        998    1    1    2    0    0  0.15860504904E+01 -0.74848775358E+01  0.14567243618E+04  0.14567787770E+04  0.10000000000E+02 0. -1.
</event>
<event>
 5    1  0.1503263E-008  0.3744247E+03  0.7957747E-01  0.3475800E+00
         13   -1    0    0    0    0  0.00000000000E+00  0.00000000000E+00  0.14999999963E+04  0.15000000000E+04  0.10566000000E+00 0.  1.
        994   -1    0    0    0    0 -0.00000000000E+00 -0.00000000000E+00  0.11368683772E-12  0.17120000000E+03  0.17120000000E+03 0.  0.
         13    1    1    2    0    0  0.68773997596E+01 -0.22129808886E+02  0.14538853505E+02  0.27357201868E+02  0.10566000000E+00 0.  1.
        994    1    1    2    0    0  0.16543079305E+02  0.20800822637E+02  0.15810100703E+02  0.17397053480E+03  0.17120000000E+03 0.  0.
        998    1    1    2    0    0 -0.23420479064E+02  0.13289862490E+01  0.14696510421E+04  0.14698722633E+04  0.10000000000E+02 0.  1.
</event>
<event>
 5    1  0.1503263E-008  0.4026617E+03  0.7957747E-01  0.3358055E+00
         13   -1    0    0    0    0  0.00000000000E+00  0.00000000000E+00  0.14999999963E+04  0.15000000000E+04  0.10566000000E+00 0. -1.
        994   -1    0    0    0    0 -0.00000000000E+00 -0.00000000000E+00  0.11368683772E-12  0.17120000000E+03  0.17120000000E+03 0.  0.
         13    1    1    2    0    0  0.38520694625E+02  0.92510152348E+02  0.14295259710E+03  0.17457785766E+03  0.10566000000E+00 0. -1.
        994    1    1    2    0    0 -0.45968200676E+02 -0.96682362866E+02  0.76367790669E+02  0.21587504306E+03  0.17120000000E+03 0.  0.
        998    1    1    2    0    0  0.74475060511E+01  0.41722105173E+01  0.12806796085E+04  0.12807470993E+04  0.10000000000E+02 0. -1.
</event>
<event>
 5    1  0.1503263E-008  0.3745690E+03  0.7957747E-01  0.3475152E+00
         13   -1    0    0    0    0  0.00000000000E+00  0.00000000000E+00  0.14999999963E+04  0.15000000000E+04  0.10566000000E+00 0.  1.
        994   -1    0    0    0    0 -0.00000000000E+00 -0.00000000000E+00  0.11368683772E-12  0.17120000000E+03  0.17120000000E+03 0.  0.
         13    1    1    2    0    0  0.42594408159E+01 -0.20728350065E+02  0.30017566658E+02  0.36727003752E+02  0.10566000000E+00 0.  1.
        994    1    1    2    0    0 -0.43598797714E+01  0.86176944873E+01  0.72177858009E+01  0.17162403573E+03  0.17120000000E+03 0.  0.
        998    1    1    2    0    0  0.10043895548E+00  0.12110655578E+02  0.14627646438E+04  0.14628489605E+04  0.10000000000E+02 0.  1.
</event>
<event>
 5    1  0.1503263E-008  0.4044920E+03  0.7957747E-01  0.3350990E+00
         13   -1    0    0    0    0  0.00000000000E+00  0.00000000000E+00  0.14999999963E+04  0.15000000000E+04  0.10566000000E+00 0.  1.
        994   -1    0    0    0    0 -0.00000000000E+00 -0.00000000000E+00  0.11368683772E-12  0.17120000000E+03  0.17120000000E+03 0.  0.
         13    1    1    2    0    0  0.10617441039E+03 -0.95291236921E+01  0.17956024875E+03  0.20881978765E+03  0.10566000000E+00 0.  1.
        994    1    1    2    0    0 -0.71267298388E+02 -0.12660040910E+02  0.51702835033E+02  0.19292985152E+03  0.17120000000E+03 0.  0.
        998    1    1    2    0    0 -0.34907111999E+02  0.22189164602E+02  0.12687369125E+04  0.12694503608E+04  0.10000000000E+02 0.  1.
</event>
<event>
 5    1  0.1503263E-008  0.3701230E+03  0.7957747E-01  0.3495326E+00
         13   -1    0    0    0    0  0.00000000000E+00  0.00000000000E+00  0.14999999963E+04  0.15000000000E+04  0.10566000000E+00 0. -1.
        994   -1    0    0    0    0 -0.00000000000E+00 -0.00000000000E+00  0.11368683772E-12  0.17120000000E+03  0.17120000000E+03 0.  0.
         13    1    1    2    0    0 -0.36057253110E+02  0.81044167352E+02  0.32800774331E+03  0.33979019026E+03  0.10566000000E+00 0. -1.
        994    1    1    2    0    0  0.15202667185E+02 -0.62791533168E+02  0.25748241225E+02  0.18478720100E+03  0.17120000000E+03 0.  0.
        998    1    1    2    0    0  0.20854585926E+02 -0.18252634184E+02  0.11462440117E+04  0.11466226087E+04  0.10000000000E+02 0. -1.
</event>
<event>
 5    1  0.1503263E-008  0.3731561E+03  0.7957747E-01  0.3481511E+00
         13   -1    0    0    0    0  0.00000000000E+00  0.00000000000E+00  0.14999999963E+04  0.15000000000E+04  0.10566000000E+00 0. -1.
        994   -1    0    0    0    0 -0.00000000000E+00 -0.00000000000E+00  0.11368683772E-12  0.17120000000E+03  0.17120000000E+03 0.  0.
         13    1    1    2    0    0 -0.63945917308E+02 -0.60190053156E+02  0.30855893800E+03  0.32081233178E+03  0.10566000000E+00 0. -1.
        994    1    1    2    0    0  0.41718893038E+02  0.25440409235E+02  0.21106397884E+02  0.17928357563E+03  0.17120000000E+03 0.  0.
        998    1    1    2    0    0  0.22227024270E+02  0.34749643921E+02  0.11703346604E+04  0.11711040926E+04  0.10000000000E+02 0. -1.
</event>
<event>
 5    1  0.1503263E-008  0.3756730E+03  0.7957747E-01  0.3470218E+00
         13   -1    0    0    0    0  0.00000000000E+00  0.00000000000E+00  0.14999999963E+04  0.15000000000E+04  0.10566000000E+00 0.  1.
        994   -1    0    0    0    0 -0.00000000000E+00 -0.00000000000E+00  0.11368683772E-12  0.17120000000E+03  0.17120000000E+03 0.  0.
         13    1    1    2    0    0  0.21549915133E+01 -0.82722933960E+02  0.36082945148E+03  0.37019674770E+03  0.10566000000E+00 0.  1.
        994    1    1    2    0    0 -0.71011581043E+02  0.10198397714E+03  0.60652701861E+02  0.22007173030E+03  0.17120000000E+03 0.  0.
        998    1    1    2    0    0  0.68856589530E+02 -0.19261043177E+02  0.10785178429E+04  0.10809315220E+04  0.10000000000E+02 0.  1.
</event>
<event>
 5    1  0.1503263E-008  0.3825392E+03  0.7957747E-01  0.3440176E+00
         13   -1    0    0    0    0  0.00000000000E+00  0.00000000000E+00  0.14999999963E+04  0.15000000000E+04  0.10566000000E+00 0.  1.
        994   -1    0    0    0    0 -0.00000000000E+00 -0.00000000000E+00  0.11368683772E-12  0.17120000000E+03  0.17120000000E+03 0.  0.
         13    1    1    2    0    0  0.80565906315E+01 -0.13910823169E+02  0.43591444566E+02  0.46461218853E+02  0.10566000000E+00 0.  1.
        994    1    1    2    0    0 -0.40583994424E+01  0.14474250626E+02  0.36063363654E+01  0.17189653923E+03  0.17120000000E+03 0.  0.
        998    1    1    2    0    0 -0.39981911892E+01 -0.56342745699E+00  0.14528022153E+04  0.14528422419E+04  0.10000000000E+02 0.  1.
</event>
<event>
 5    1  0.1503263E-008  0.3838095E+03  0.7957747E-01  0.3434737E+00
         13   -1    0    0    0    0  0.00000000000E+00  0.00000000000E+00  0.14999999963E+04  0.15000000000E+04  0.10566000000E+00 0.  1.
        994   -1    0    0    0    0 -0.00000000000E+00 -0.00000000000E+00  0.11368683772E-12  0.17120000000E+03  0.17120000000E+03 0.  0.
         13    1    1    2    0    0 -0.13658363817E+02  0.15888884653E+02  0.98272805702E+02  0.10048165535E+03  0.10566000000E+00 0.  1.
        994    1    1    2    0    0  0.25229887686E+01 -0.15274399185E+02  0.30140261823E+01  0.17192497520E+03  0.17120000000E+03 0.  0.
        998    1    1    2    0    0  0.11135375048E+02 -0.61448546789E+00  0.13987131644E+04  0.13987933695E+04  0.10000000000E+02 0.  1.
</event>
<event>
 5    1  0.1503263E-008  0.3844791E+03  0.7957747E-01  0.3431884E+00
         13   -1    0    0    0    0  0.00000000000E+00  0.00000000000E+00  0.14999999963E+04  0.15000000000E+04  0.10566000000E+00 0.  1.
        994   -1    0    0    0    0 -0.00000000000E+00 -0.00000000000E+00  0.11368683772E-12  0.17120000000E+03  0.17120000000E+03 0.  0.
         13    1    1    2    0    0  0.14661407385E+02  0.42660192744E+01  0.67189015973E+02  0.68902328106E+02  0.10566000000E+00 0.  1.
        994    1    1    2    0    0  0.34318485403E+01  0.44600755379E+01  0.19933160633E+01  0.17130406641E+03  0.17120000000E+03 0.  0.
        998    1    1    2    0    0 -0.18093255925E+02 -0.87260948124E+01  0.14308176642E+04  0.14309936055E+04  0.10000000000E+02 0.  1.
</event>
<event>
 5    1  0.1503263E-008  0.3988233E+03  0.7957747E-01  0.3373081E+00
         13   -1    0    0    0    0  0.00000000000E+00  0.00000000000E+00  0.14999999963E+04  0.15000000000E+04  0.10566000000E+00 0. -1.
        994   -1    0    0    0    0 -0.00000000000E+00 -0.00000000000E+00  0.11368683772E-12  0.17120000000E+03  0.17120000000E+03 0.  0.
         13    1    1    2    0    0  0.11412578002E+02  0.90290846907E+02  0.13150419126E+03  0.15992513078E+03  0.10566000000E+00 0. -1.
        994    1    1    2    0    0 -0.16500821983E+02 -0.91236997021E+02  0.61423047077E+02  0.20415361242E+03  0.17120000000E+03 0.  0.
        998    1    1    2    0    0  0.50882439810E+01  0.94615011378E+00  0.13070727579E+04  0.13071212568E+04  0.10000000000E+02 0. -1.
</event>
<event>
 5    1  0.1503263E-008  0.3821763E+03  0.7957747E-01  0.3441737E+00
         13   -1    0    0    0    0  0.00000000000E+00  0.00000000000E+00  0.14999999963E+04  0.15000000000E+04  0.10566000000E+00 0. -1.
        994   -1    0    0    0    0 -0.00000000000E+00 -0.00000000000E+00  0.11368683772E-12  0.17120000000E+03  0.17120000000E+03 0.  0.
         13    1    1    2    0    0 -0.14005997835E+02  0.10290254266E+02  0.65191207501E+00  0.17392339164E+02  0.10566000000E+00 0. -1.
        994    1    1    2    0    0  0.19009988959E+02 -0.69257339037E+01  0.19024403929E+02  0.17343792381E+03  0.17120000000E+03 0.  0.
        998    1    1    2    0    0 -0.50039911238E+01 -0.33645203622E+01  0.14803236803E+04  0.14803697370E+04  0.10000000000E+02 0. -1.
</event>
<event>
 5    1  0.1503263E-008  0.3845247E+03  0.7957747E-01  0.3431691E+00
         13   -1    0    0    0    0  0.00000000000E+00  0.00000000000E+00  0.14999999963E+04  0.15000000000E+04  0.10566000000E+00 0. -1.
        994   -1    0    0    0    0 -0.00000000000E+00 -0.00000000000E+00  0.11368683772E-12  0.17120000000E+03  0.17120000000E+03 0.  0.
         13    1    1    2    0    0  0.41740712715E+00  0.12251675310E+02  0.39033619427E+02  0.40913474385E+02  0.10566000000E+00 0. -1.
        994    1    1    2    0    0 -0.24714711398E+01 -0.13063271837E+02  0.24487175224E+01  0.17173291315E+03  0.17120000000E+03 0.  0.
        998    1    1    2    0    0  0.20540640127E+01  0.81159652722E+00  0.14585176593E+04  0.14585536125E+04  0.10000000000E+02 0. -1.
</event>
<event>
 5    1  0.1503263E-008  0.3795079E+03  0.7957747E-01  0.3453304E+00
         13   -1    0    0    0    0  0.00000000000E+00  0.00000000000E+00  0.14999999963E+04  0.15000000000E+04  0.10566000000E+00 0. -1.
        994   -1    0    0    0    0 -0.00000000000E+00 -0.00000000000E+00  0.11368683772E-12  0.17120000000E+03  0.17120000000E+03 0.  0.
         13    1    1    2    0    0 -0.11515928030E+02 -0.90604052889E+01  0.23200309355E+02  0.27440354600E+02  0.10566000000E+00 0. -1.
        994    1    1    2    0    0 -0.42907712661E+01  0.88453460488E+01  0.47054696674E+01  0.17154658933E+03  0.17120000000E+03 0.  0.
        998    1    1    2    0    0  0.15806699296E+02  0.21505924007E+00  0.14720942173E+04  0.14722130561E+04  0.10000000000E+02 0. -1.
</event>
<event>
 5    1  0.1503263E-008  0.3827195E+03  0.7957747E-01  0.3439402E+00
         13   -1    0    0    0    0  0.00000000000E+00  0.00000000000E+00  0.14999999963E+04  0.15000000000E+04  0.10566000000E+00 0.  1.
        994   -1    0    0    0    0 -0.00000000000E+00 -0.00000000000E+00  0.11368683772E-12  0.17120000000E+03  0.17120000000E+03 0.  0.
         13    1    1    2    0    0  0.10303674307E+02 -0.14842809309E+02  0.54647053880E+02  0.57556809799E+02  0.10566000000E+00 0.  1.
        994    1    1    2    0    0 -0.20341906709E+02  0.16791342689E+02  0.50751375640E+01  0.17329437204E+03  0.17120000000E+03 0.  0.
        998    1    1    2    0    0  0.10038232402E+02 -0.19485333791E+01  0.14402778048E+04  0.14403488182E+04  0.10000000000E+02 0.  1.
</event>
<event>
 5    1  0.1503263E-008  0.3814725E+03  0.7957747E-01  0.3444772E+00
         13   -1    0    0    0    0  0.00000000000E+00  0.00000000000E+00  0.14999999963E+04  0.15000000000E+04  0.10566000000E+00 0.  1.
        994   -1    0    0    0    0 -0.00000000000E+00 -0.00000000000E+00  0.11368683772E-12  0.17120000000E+03  0.17120000000E+03 0.  0.
         13    1    1    2    0    0  0.16281076304E+02  0.67398026776E+01  0.46434315239E+02  0.49665432460E+02  0.10566000000E+00 0.  1.
        994    1    1    2    0    0 -0.29279257111E+01  0.39177374043E+01  0.34712561956E+01  0.17130502338E+03  0.17120000000E+03 0.  0.
        998    1    1    2    0    0 -0.13353150593E+02 -0.10657540082E+02  0.14500944248E+04  0.14502295442E+04  0.10000000000E+02 0.  1.
</event>
<event>
 5    1  0.1503263E-008  0.3991833E+03  0.7957747E-01  0.3371660E+00
         13   -1    0    0    0    0  0.00000000000E+00  0.00000000000E+00  0.14999999963E+04  0.15000000000E+04  0.10566000000E+00 0.  1.
        994   -1    0    0    0    0 -0.00000000000E+00 -0.00000000000E+00  0.11368683772E-12  0.17120000000E+03  0.17120000000E+03 0.  0.
         13    1    1    2    0    0  0.68205985884E+01 -0.47503680440E+02  0.32714793245E+02  0.58080883960E+02  0.10566000000E+00 0.  1.
        994    1    1    2    0    0 -0.15295775000E+02  0.28521776155E+02  0.31388453708E+02  0.17703707938E+03  0.17120000000E+03 0.  0.
        998    1    1    2    0    0  0.84751764120E+01  0.18981904285E+02  0.14358967493E+04  0.14360820367E+04  0.10000000000E+02 0.  1.
</event>
<event>
 5    1  0.1503263E-008  0.3721855E+03  0.7957747E-01  0.3485907E+00
         13   -1    0    0    0    0  0.00000000000E+00  0.00000000000E+00  0.14999999963E+04  0.15000000000E+04  0.10566000000E+00 0. -1.
        994   -1    0    0    0    0 -0.00000000000E+00 -0.00000000000E+00  0.11368683772E-12  0.17120000000E+03  0.17120000000E+03 0.  0.
         13    1    1    2    0    0 -0.42667306487E+02  0.43694006969E+02  0.13457769640E+03  0.14778644329E+03  0.10566000000E+00 0. -1.
        994    1    1    2    0    0  0.46524052406E+02 -0.46640606873E+02  0.27549528605E+02  0.18549460959E+03  0.17120000000E+03 0.  0.
        998    1    1    2    0    0 -0.38567459199E+01  0.29465999044E+01  0.13378727713E+04  0.13379189471E+04  0.10000000000E+02 0. -1.
</event>
<event>
 5    1  0.1503263E-008  0.3846641E+03  0.7957747E-01  0.3431098E+00
         13   -1    0    0    0    0  0.00000000000E+00  0.00000000000E+00  0.14999999963E+04  0.15000000000E+04  0.10566000000E+00 0.  1.
        994   -1    0    0    0    0 -0.00000000000E+00 -0.00000000000E+00  0.11368683772E-12  0.17120000000E+03  0.17120000000E+03 0.  0.
         13    1    1    2    0    0 -0.92107707193E+01  0.18826380506E+02  0.12595693300E+03  0.12768880544E+03  0.10566000000E+00 0.  1.
        994    1    1    2    0    0  0.12867626501E+02 -0.43319960720E+01  0.24041385732E+01  0.17175436496E+03  0.17120000000E+03 0.  0.
        998    1    1    2    0    0 -0.36568557818E+01 -0.14494384434E+02  0.13716389247E+04  0.13717568296E+04  0.10000000000E+02 0.  1.
</event>
<event>
 5    1  0.1503263E-008  0.3766983E+03  0.7957747E-01  0.3465662E+00
         13   -1    0    0    0    0  0.00000000000E+00  0.00000000000E+00  0.14999999963E+04  0.15000000000E+04  0.10566000000E+00 0. -1.
        994   -1    0    0    0    0 -0.00000000000E+00 -0.00000000000E+00  0.11368683772E-12  0.17120000000E+03  0.17120000000E+03 0.  0.
         13    1    1    2    0    0 -0.16720401798E+02 -0.53353841290E+02  0.22183886166E+03  0.22877651960E+03  0.10566000000E+00 0. -1.
        994    1    1    2    0    0  0.33277142720E+02  0.53204625216E+02  0.19237312996E+02  0.18335106922E+03  0.17120000000E+03 0.  0.
        998    1    1    2    0    0 -0.16556740922E+02  0.14921607396E+00  0.12589238216E+04  0.12590724112E+04  0.10000000000E+02 0. -1.
</event>
<event>
 5    1  0.1503263E-008  0.3827583E+03  0.7957747E-01  0.3439236E+00
         13   -1    0    0    0    0  0.00000000000E+00  0.00000000000E+00  0.14999999963E+04  0.15000000000E+04  0.10566000000E+00 0.  1.
        994   -1    0    0    0    0 -0.00000000000E+00 -0.00000000000E+00  0.11368683772E-12  0.17120000000E+03  0.17120000000E+03 0.  0.
         13    1    1    2    0    0 -0.97018254792E+01  0.80705017950E+01  0.28582664751E+02  0.31244812452E+02  0.10566000000E+00 0.  1.
        994    1    1    2    0    0  0.48572826213E+01  0.12430881230E+01  0.28305017266E+01  0.17129678982E+03  0.17120000000E+03 0.  0.
        998    1    1    2    0    0  0.48445428580E+01 -0.93135899181E+01  0.14685868298E+04  0.14686583977E+04  0.10000000000E+02 0.  1.
</event>
<event>
 5    1  0.1503263E-008  0.3700478E+03  0.7957747E-01  0.3495671E+00
         13   -1    0    0    0    0  0.00000000000E+00  0.00000000000E+00  0.14999999963E+04  0.15000000000E+04  0.10566000000E+00 0.  1.
        994   -1    0    0    0    0 -0.00000000000E+00 -0.00000000000E+00  0.11368683772E-12  0.17120000000E+03  0.17120000000E+03 0.  0.
         13    1    1    2    0    0  0.41629284274E+02 -0.22959234644E+01  0.11161815817E+03  0.11915071536E+03  0.10566000000E+00 0.  1.
        994    1    1    2    0    0  0.25230912877E+02 -0.14909020411E+02  0.12219051613E+02  0.17411956546E+03  0.17120000000E+03 0.  0.
        998    1    1    2    0    0 -0.66860197152E+02  0.17204943875E+02  0.13761627865E+04  0.13779297192E+04  0.10000000000E+02 0.  1.
</event>
<event>
 5    1  0.1503263E-008  0.3826080E+03  0.7957747E-01  0.3439881E+00
         13   -1    0    0    0    0  0.00000000000E+00  0.00000000000E+00  0.14999999963E+04  0.15000000000E+04  0.10566000000E+00 0.  1.
        994   -1    0    0    0    0 -0.00000000000E+00 -0.00000000000E+00  0.11368683772E-12  0.17120000000E+03  0.17120000000E+03 0.  0.
         13    1    1    2    0    0 -0.25033860126E+02 -0.26790915407E+02  0.31318665734E+02  0.48221543821E+02  0.10566000000E+00 0.  1.
        994    1    1    2    0    0  0.75967509363E+01  0.21943384695E+02  0.19742398853E+02  0.17389199254E+03  0.17120000000E+03 0.  0.
        998    1    1    2    0    0  0.17437109190E+02  0.48475307119E+01  0.14489389317E+04  0.14490864636E+04  0.10000000000E+02 0.  1.
</event>
<event>
 5    1  0.1503263E-008  0.3845472E+03  0.7957747E-01  0.3431595E+00
         13   -1    0    0    0    0  0.00000000000E+00  0.00000000000E+00  0.14999999963E+04  0.15000000000E+04  0.10566000000E+00 0. -1.
        994   -1    0    0    0    0 -0.00000000000E+00 -0.00000000000E+00  0.11368683772E-12  0.17120000000E+03  0.17120000000E+03 0.  0.
         13    1    1    2    0    0  0.95122492461E+01  0.76546887468E+01  0.41384532870E+02  0.43148208195E+02  0.10566000000E+00 0. -1.
        994    1    1    2    0    0  0.70927472409E+01 -0.97602981815E+01  0.23346899239E+01  0.17164050006E+03  0.17120000000E+03 0.  0.
        998    1    1    2    0    0 -0.16604996487E+02  0.21056094347E+01  0.14562807735E+04  0.14564112917E+04  0.10000000000E+02 0. -1.
</event>
<event>
 5    1  0.1503263E-008  0.3806198E+03  0.7957747E-01  0.3448464E+00
         13   -1    0    0    0    0  0.00000000000E+00  0.00000000000E+00  0.14999999963E+04  0.15000000000E+04  0.10566000000E+00 0. -1.
        994   -1    0    0    0    0 -0.00000000000E+00 -0.00000000000E+00  0.11368683772E-12  0.17120000000E+03  0.17120000000E+03 0.  0.
         13    1    1    2    0    0  0.17154836347E+01 -0.16032563828E+02  0.33215541196E+02  0.36922477272E+02  0.10566000000E+00 0. -1.
        994    1    1    2    0    0 -0.24105135650E+01  0.44860491149E+01  0.39071303266E+01  0.17132028741E+03  0.17120000000E+03 0.  0.
        998    1    1    2    0    0  0.69502993036E+00  0.11546514713E+02  0.14628773248E+04  0.14629572353E+04  0.10000000000E+02 0. -1.
</event>
<event>
 5    1  0.1503263E-008  0.2939365E+03  0.7957747E-01  0.3940281E+00
         13   -1    0    0    0    0  0.00000000000E+00  0.00000000000E+00  0.14999999963E+04  0.15000000000E+04  0.10566000000E+00 0.  1.
        994   -1    0    0    0    0 -0.00000000000E+00 -0.00000000000E+00  0.11368683772E-12  0.17120000000E+03  0.17120000000E+03 0.  0.
         13    1    1    2    0    0 -0.21261251151E+03  0.82693886479E+02  0.64408606815E+03  0.68329293371E+03  0.10566000000E+00 0.  1.
        994    1    1    2    0    0  0.18570975848E+03  0.34815111378E+02  0.20871804827E+03  0.32950397577E+03  0.17120000000E+03 0.  0.
        998    1    1    2    0    0  0.26902753029E+02 -0.11750899786E+03  0.64719587986E+03  0.65840309052E+03  0.10000000000E+02 0.  1.
</event>
<event>
 5    1  0.1503263E-008  0.3817794E+03  0.7957747E-01  0.3443447E+00
         13   -1    0    0    0    0  0.00000000000E+00  0.00000000000E+00  0.14999999963E+04  0.15000000000E+04  0.10566000000E+00 0. -1.
        994   -1    0    0    0    0 -0.00000000000E+00 -0.00000000000E+00  0.11368683772E-12  0.17120000000E+03  0.17120000000E+03 0.  0.
         13    1    1    2    0    0  0.12528641722E+02  0.13969724513E+02  0.95179994847E+02  0.97012177841E+02  0.10566000000E+00 0. -1.
        994    1    1    2    0    0  0.72529280352E+02  0.42871002943E+02  0.27198848015E+02  0.19273722198E+03  0.17120000000E+03 0.  0.
        998    1    1    2    0    0 -0.85057922073E+02 -0.56840727456E+02  0.13776211534E+04  0.13814506002E+04  0.10000000000E+02 0. -1.
</event>
<event>
 5    1  0.1503263E-008  0.3847366E+03  0.7957747E-01  0.3430790E+00
         13   -1    0    0    0    0  0.00000000000E+00  0.00000000000E+00  0.14999999963E+04  0.15000000000E+04  0.10566000000E+00 0. -1.
        994   -1    0    0    0    0 -0.00000000000E+00 -0.00000000000E+00  0.11368683772E-12  0.17120000000E+03  0.17120000000E+03 0.  0.
         13    1    1    2    0    0  0.10960168950E+02 -0.17149358920E+01  0.39074579612E+02  0.40618964098E+02  0.10566000000E+00 0. -1.
        994    1    1    2    0    0  0.15108433970E+02 -0.12999520850E+02  0.30695948879E+01  0.17238362664E+03  0.17120000000E+03 0.  0.
        998    1    1    2    0    0 -0.26068602920E+02  0.14714456742E+02  0.14578558218E+04  0.14581974093E+04  0.10000000000E+02 0. -1.
</event>
<event>
 5    1  0.1503263E-008  0.3773418E+03  0.7957747E-01  0.3462815E+00
         13   -1    0    0    0    0  0.00000000000E+00  0.00000000000E+00  0.14999999963E+04  0.15000000000E+04  0.10566000000E+00 0.  1.
        994   -1    0    0    0    0 -0.00000000000E+00 -0.00000000000E+00  0.11368683772E-12  0.17120000000E+03  0.17120000000E+03 0.  0.
         13    1    1    2    0    0 -0.20345383131E+02 -0.24255519070E+02  0.84414793719E+02  0.90156161092E+02  0.10566000000E+00 0.  1.
        994    1    1    2    0    0  0.22809167389E+02  0.24362982980E+02  0.92466292706E+01  0.17466755053E+03  0.17120000000E+03 0.  0.
        998    1    1    2    0    0 -0.24637842580E+01 -0.10746391005E+00  0.14063385733E+04  0.14063762884E+04  0.10000000000E+02 0.  1.
</event>
<event>
 5    1  0.1503263E-008  0.3685918E+03  0.7957747E-01  0.3502388E+00
         13   -1    0    0    0    0  0.00000000000E+00  0.00000000000E+00  0.14999999963E+04  0.15000000000E+04  0.10566000000E+00 0. -1.
        994   -1    0    0    0    0 -0.00000000000E+00 -0.00000000000E+00  0.11368683772E-12  0.17120000000E+03  0.17120000000E+03 0.  0.
         13    1    1    2    0    0 -0.71763759363E+01 -0.10636144126E+02  0.36037716046E+01  0.13327650478E+02  0.10566000000E+00 0. -1.
        994    1    1    2    0    0  0.63871179629E+01  0.90608971369E+01  0.10434121416E+02  0.17187555388E+03  0.17120000000E+03 0.  0.
        998    1    1    2    0    0  0.78925797344E+00  0.15752469889E+01  0.14859621033E+04  0.14859967956E+04  0.10000000000E+02 0.  0.
</event>
<event>
 5    1  0.1503263E-008  0.3831496E+03  0.7957747E-01  0.3437558E+00
         13   -1    0    0    0    0  0.00000000000E+00  0.00000000000E+00  0.14999999963E+04  0.15000000000E+04  0.10566000000E+00 0. -1.
        994   -1    0    0    0    0 -0.00000000000E+00 -0.00000000000E+00  0.11368683772E-12  0.17120000000E+03  0.17120000000E+03 0.  0.
         13    1    1    2    0    0  0.22589107586E+02 -0.15750784246E+02  0.14485765347E+03  0.14745204617E+03  0.10566000000E+00 0. -1.
        994    1    1    2    0    0 -0.18589489314E+02  0.69260534811E+01  0.38547495430E+01  0.17238862614E+03  0.17120000000E+03 0.  0.
        998    1    1    2    0    0 -0.39996182717E+01  0.88247307644E+01  0.13512875933E+04  0.13513593277E+04  0.10000000000E+02 0. -1.
</event>
<event>
 5    1  0.1503263E-008  0.3766565E+03  0.7957747E-01  0.3465847E+00
         13   -1    0    0    0    0  0.00000000000E+00  0.00000000000E+00  0.14999999963E+04  0.15000000000E+04  0.10566000000E+00 0. -1.
        994   -1    0    0    0    0 -0.00000000000E+00 -0.00000000000E+00  0.11368683772E-12  0.17120000000E+03  0.17120000000E+03 0.  0.
         13    1    1    2    0    0  0.38690276998E+02  0.52127786450E+01  0.46462757246E+02  0.60686980237E+02  0.10566000000E+00 0. -1.
        994    1    1    2    0    0 -0.32122122701E+02 -0.39443396782E+01  0.18261106426E+02  0.17518646235E+03  0.17120000000E+03 0.  0.
        998    1    1    2    0    0 -0.65681542971E+01 -0.12684389667E+01  0.14352761326E+04  0.14353265574E+04  0.10000000000E+02 0. -1.
</event>
<event>
 5    1  0.1503263E-008  0.3795739E+03  0.7957747E-01  0.3453016E+00
         13   -1    0    0    0    0  0.00000000000E+00  0.00000000000E+00  0.14999999963E+04  0.15000000000E+04  0.10566000000E+00 0. -1.
        994   -1    0    0    0    0 -0.00000000000E+00 -0.00000000000E+00  0.11368683772E-12  0.17120000000E+03  0.17120000000E+03 0.  0.
         13    1    1    2    0    0 -0.19765367228E+02 -0.35444407025E+02  0.22443101748E+03  0.22807075328E+03  0.10566000000E+00 0. -1.
        994    1    1    2    0    0 -0.13381310274E+02  0.91537892424E+01  0.52288048821E+01  0.17204543505E+03  0.17120000000E+03 0.  0.
        998    1    1    2    0    0  0.33146677502E+02  0.26290617782E+02  0.12703401739E+04  0.12710838117E+04  0.10000000000E+02 0. -1.
</event>
<event>
 5    1  0.1503263E-008  0.3704801E+03  0.7957747E-01  0.3493688E+00
         13   -1    0    0    0    0  0.00000000000E+00  0.00000000000E+00  0.14999999963E+04  0.15000000000E+04  0.10566000000E+00 0.  1.
        994   -1    0    0    0    0 -0.00000000000E+00 -0.00000000000E+00  0.11368683772E-12  0.17120000000E+03  0.17120000000E+03 0.  0.
         13    1    1    2    0    0  0.13039357554E+02  0.11688041540E+02  0.13062696721E+02  0.21846747358E+02  0.10566000000E+00 0.  1.
        994    1    1    2    0    0 -0.87653713109E+01 -0.77358563213E+01  0.94902909475E+01  0.17186093456E+03  0.17120000000E+03 0.  0.
        998    1    1    2    0    0 -0.42739862433E+01 -0.39521852184E+01  0.14774470086E+04  0.14774923181E+04  0.10000000000E+02 0.  1.
</event>
<event>
 5    1  0.1503263E-008  0.3686944E+03  0.7957747E-01  0.3501913E+00
         13   -1    0    0    0    0  0.00000000000E+00  0.00000000000E+00  0.14999999963E+04  0.15000000000E+04  0.10566000000E+00 0.  1.
        994   -1    0    0    0    0 -0.00000000000E+00 -0.00000000000E+00  0.11368683772E-12  0.17120000000E+03  0.17120000000E+03 0.  0.
         13    1    1    2    0    0 -0.54050524184E+02 -0.39797421181E+02  0.32475927900E+03  0.33162312096E+03  0.10566000000E+00 0.  1.
        994    1    1    2    0    0 -0.24556343747E+02  0.10826163212E+02  0.12458704624E+02  0.17373796116E+03  0.17120000000E+03 0.  0.
        998    1    1    2    0    0  0.78606867931E+02  0.28971257969E+02  0.11627820127E+04  0.11658389179E+04  0.10000000000E+02 0.  1.
</event>
<event>
 5    1  0.1503263E-008  0.3839472E+03  0.7957747E-01  0.3434150E+00
         13   -1    0    0    0    0  0.00000000000E+00  0.00000000000E+00  0.14999999963E+04  0.15000000000E+04  0.10566000000E+00 0.  1.
        994   -1    0    0    0    0 -0.00000000000E+00 -0.00000000000E+00  0.11368683772E-12  0.17120000000E+03  0.17120000000E+03 0.  0.
         13    1    1    2    0    0  0.13753869655E+02 -0.73707619172E+01  0.50309935771E+02  0.52674451710E+02  0.10566000000E+00 0.  1.
        994    1    1    2    0    0 -0.25212148940E+02  0.21815573729E+02  0.58304820791E+01  0.17451362764E+03  0.17120000000E+03 0.  0.
        998    1    1    2    0    0  0.11458279285E+02 -0.14444811812E+02  0.14438595784E+04  0.14440119206E+04  0.10000000000E+02 0.  1.
</event>
<event>
 5    1  0.1503263E-008  0.3771252E+03  0.7957747E-01  0.3463772E+00
         13   -1    0    0    0    0  0.00000000000E+00  0.00000000000E+00  0.14999999963E+04  0.15000000000E+04  0.10566000000E+00 0.  1.
        994   -1    0    0    0    0 -0.00000000000E+00 -0.00000000000E+00  0.11368683772E-12  0.17120000000E+03  0.17120000000E+03 0.  0.
         13    1    1    2    0    0 -0.50650028981E-01 -0.24618191291E+02  0.60639692185E+02  0.65446476912E+02  0.10566000000E+00 0.  1.
        994    1    1    2    0    0  0.20903496030E+02 -0.25805894347E+02  0.93227275194E+01  0.17464035495E+03  0.17120000000E+03 0.  0.
        998    1    1    2    0    0 -0.20852846001E+02  0.50424085638E+02  0.14300375766E+04  0.14311131681E+04  0.10000000000E+02 0.  1.
</event>
<event>
 5    1  0.1503263E-008  0.3857013E+03  0.7957747E-01  0.3426703E+00
         13   -1    0    0    0    0  0.00000000000E+00  0.00000000000E+00  0.14999999963E+04  0.15000000000E+04  0.10566000000E+00 0.  1.
        994   -1    0    0    0    0 -0.00000000000E+00 -0.00000000000E+00  0.11368683772E-12  0.17120000000E+03  0.17120000000E+03 0.  0.
         13    1    1    2    0    0 -0.11485871093E+02  0.68543804332E+01  0.71063711641E+02  0.72311617616E+02  0.10566000000E+00 0.  1.
        994    1    1    2    0    0  0.92508657956E+01  0.10741891169E+01  0.15669812537E+01  0.17146028062E+03  0.17120000000E+03 0.  0.
        998    1    1    2    0    0  0.22350052970E+01 -0.79285695501E+01  0.14273693034E+04  0.14274281018E+04  0.10000000000E+02 0.  1.
</event>
<event>
 5    1  0.1503263E-008  0.3742780E+03  0.7957747E-01  0.3476458E+00
         13   -1    0    0    0    0  0.00000000000E+00  0.00000000000E+00  0.14999999963E+04  0.15000000000E+04  0.10566000000E+00 0. -1.
        994   -1    0    0    0    0 -0.00000000000E+00 -0.00000000000E+00  0.11368683772E-12  0.17120000000E+03  0.17120000000E+03 0.  0.
         13    1    1    2    0    0 -0.91299100843E+01  0.45918208496E+02  0.76802296087E+02  0.89946878645E+02  0.10566000000E+00 0. -1.
        994    1    1    2    0    0  0.91468860337E+01 -0.36073576836E+02  0.18150538495E+02  0.17613588651E+03  0.17120000000E+03 0.  0.
        998    1    1    2    0    0 -0.16975949425E-01 -0.98446316607E+01  0.14050471617E+04  0.14051172348E+04  0.10000000000E+02 0. -1.
</event>
<event>
 5    1  0.1503263E-008  0.3855156E+03  0.7957747E-01  0.3427488E+00
         13   -1    0    0    0    0  0.00000000000E+00  0.00000000000E+00  0.14999999963E+04  0.15000000000E+04  0.10566000000E+00 0. -1.
        994   -1    0    0    0    0 -0.00000000000E+00 -0.00000000000E+00  0.11368683772E-12  0.17120000000E+03  0.17120000000E+03 0.  0.
         13    1    1    2    0    0 -0.24365239434E+01 -0.17008099194E+02  0.80546493871E+02  0.82358733150E+02  0.10566000000E+00 0. -1.
        994    1    1    2    0    0  0.26919147687E+02  0.48712819593E+02  0.11611054003E+02  0.18039355831E+03  0.17120000000E+03 0.  0.
        998    1    1    2    0    0 -0.24482623743E+02 -0.31704720399E+02  0.14078424484E+04  0.14084477085E+04  0.10000000000E+02 0. -1.
</event>
<event>
 5    1  0.1503263E-008  0.3841531E+03  0.7957747E-01  0.3433272E+00
         13   -1    0    0    0    0  0.00000000000E+00  0.00000000000E+00  0.14999999963E+04  0.15000000000E+04  0.10566000000E+00 0. -1.
        994   -1    0    0    0    0 -0.00000000000E+00 -0.00000000000E+00  0.11368683772E-12  0.17120000000E+03  0.17120000000E+03 0.  0.
         13    1    1    2    0    0  0.36119953715E+02 -0.25968395824E+03  0.10956499498E+04  0.11265829898E+04  0.10566000000E+00 0. -1.
        994    1    1    2    0    0 -0.42913116035E+02  0.26376046528E+03  0.29109931186E+03  0.43064993665E+03  0.17120000000E+03 0.  0.
        998    1    1    2    0    0  0.67931623197E+01 -0.40765070383E+01  0.11325073457E+03  0.11396707351E+03  0.10000000000E+02 0.  1.
</event>
<event>
 5    1  0.1503263E-008  0.3790381E+03  0.7957747E-01  0.3455358E+00
         13   -1    0    0    0    0  0.00000000000E+00  0.00000000000E+00  0.14999999963E+04  0.15000000000E+04  0.10566000000E+00 0.  1.
        994   -1    0    0    0    0 -0.00000000000E+00 -0.00000000000E+00  0.11368683772E-12  0.17120000000E+03  0.17120000000E+03 0.  0.
         13    1    1    2    0    0  0.28165236324E+01 -0.12219017417E+02  0.15536737084E+02  0.19965934870E+02  0.10566000000E+00 0.  1.
        994    1    1    2    0    0 -0.77075616682E+00 -0.51711411392E+01  0.47111705061E+01  0.17134459400E+03  0.17120000000E+03 0.  0.
        998    1    1    2    0    0 -0.20457674656E+01  0.17390158556E+02  0.14797520887E+04  0.14798894711E+04  0.10000000000E+02 0.  1.
</event>
<event>
 5    1  0.1503263E-008  0.3772958E+03  0.7957747E-01  0.3463018E+00
         13   -1    0    0    0    0  0.00000000000E+00  0.00000000000E+00  0.14999999963E+04  0.15000000000E+04  0.10566000000E+00 0. -1.
        994   -1    0    0    0    0 -0.00000000000E+00 -0.00000000000E+00  0.11368683772E-12  0.17120000000E+03  0.17120000000E+03 0.  0.
         13    1    1    2    0    0 -0.28401613864E+02  0.29852250388E+02  0.15452082107E+03  0.15992030463E+03  0.10566000000E+00 0. -1.
        994    1    1    2    0    0  0.23577256953E+02 -0.77021201687E+01  0.75824118510E+01  0.17315352341E+03  0.17120000000E+03 0.  0.
        998    1    1    2    0    0  0.48243569112E+01 -0.22150130219E+02  0.13378967634E+04  0.13381261720E+04  0.10000000000E+02 0. -1.
</event>
<event>
 5    1  0.1503263E-008  0.3758349E+03  0.7957747E-01  0.3469497E+00
         13   -1    0    0    0    0  0.00000000000E+00  0.00000000000E+00  0.14999999963E+04  0.15000000000E+04  0.10566000000E+00 0. -1.
        994   -1    0    0    0    0 -0.00000000000E+00 -0.00000000000E+00  0.11368683772E-12  0.17120000000E+03  0.17120000000E+03 0.  0.
         13    1    1    2    0    0  0.89552607573E+01 -0.80246227619E+01  0.86334275684E+01  0.14803327373E+02  0.10566000000E+00 0. -1.
        994    1    1    2    0    0 -0.12412217669E+02  0.71582118147E+01  0.69468031622E+01  0.17193894619E+03  0.17120000000E+03 0.  0.
        998    1    1    2    0    0  0.34569569112E+01  0.86641094726E+00  0.14844197655E+04  0.14844577264E+04  0.10000000000E+02 0. -1.
</event>
<event>
 5    1  0.1503263E-008  0.3833358E+03  0.7957747E-01  0.3436761E+00
         13   -1    0    0    0    0  0.00000000000E+00  0.00000000000E+00  0.14999999963E+04  0.15000000000E+04  0.10566000000E+00 0. -1.
        994   -1    0    0    0    0 -0.00000000000E+00 -0.00000000000E+00  0.11368683772E-12  0.17120000000E+03  0.17120000000E+03 0.  0.
         13    1    1    2    0    0  0.17786258459E+02 -0.13640689014E+02  0.10112181071E+03  0.10357630594E+03  0.10566000000E+00 0. -1.
        994    1    1    2    0    0 -0.42950004495E+02 -0.27382583021E+02  0.11085120559E+02  0.17896041081E+03  0.17120000000E+03 0.  0.
        998    1    1    2    0    0  0.25163746036E+02  0.41023272035E+02  0.13877930650E+04  0.13886632832E+04  0.10000000000E+02 0. -1.
</event>
<event>
 5    1  0.1503263E-008  0.3697084E+03  0.7957747E-01  0.3497232E+00
         13   -1    0    0    0    0  0.00000000000E+00  0.00000000000E+00  0.14999999963E+04  0.15000000000E+04  0.10566000000E+00 0. -1.
        994   -1    0    0    0    0 -0.00000000000E+00 -0.00000000000E+00  0.11368683772E-12  0.17120000000E+03  0.17120000000E+03 0.  0.
         13    1    1    2    0    0 -0.78168633150E+02  0.26194431968E+02  0.27242753525E+03  0.28462827794E+03  0.10566000000E+00 0. -1.
        994    1    1    2    0    0  0.82759550569E+02 -0.46393645166E+02  0.41256299639E+02  0.20003258680E+03  0.17120000000E+03 0.  0.
        998    1    1    2    0    0 -0.45909174187E+01  0.20199213198E+02  0.11863161614E+04  0.11865391353E+04  0.10000000000E+02 0. -1.
</event>
<event>
 5    1  0.1503263E-008  0.3830053E+03  0.7957747E-01  0.3438176E+00
         13   -1    0    0    0    0  0.00000000000E+00  0.00000000000E+00  0.14999999963E+04  0.15000000000E+04  0.10566000000E+00 0. -1.
        994   -1    0    0    0    0 -0.00000000000E+00 -0.00000000000E+00  0.11368683772E-12  0.17120000000E+03  0.17120000000E+03 0.  0.
         13    1    1    2    0    0  0.13107962254E+02  0.27354775514E+01  0.33024128095E+02  0.35635736451E+02  0.10566000000E+00 0. -1.
        994    1    1    2    0    0 -0.11852373191E+02  0.12938329347E+01  0.30944026891E+01  0.17164255906E+03  0.17120000000E+03 0.  0.
        998    1    1    2    0    0 -0.12555890633E+01 -0.40293104861E+01  0.14638814655E+04  0.14639217045E+04  0.10000000000E+02 0. -1.
</event>
<event>
 5    1  0.1503263E-008  0.3731448E+03  0.7957747E-01  0.3481562E+00
         13   -1    0    0    0    0  0.00000000000E+00  0.00000000000E+00  0.14999999963E+04  0.15000000000E+04  0.10566000000E+00 0. -1.
        994   -1    0    0    0    0 -0.00000000000E+00 -0.00000000000E+00  0.11368683772E-12  0.17120000000E+03  0.17120000000E+03 0.  0.
         13    1    1    2    0    0 -0.11692012548E+02 -0.30835370603E+01  0.60504412204E+01  0.13521477775E+02  0.10566000000E+00 0. -1.
        994    1    1    2    0    0  0.10518508374E+02  0.24639518651E+01  0.80338167254E+01  0.17172854244E+03  0.17120000000E+03 0.  0.
        998    1    1    2    0    0  0.11735041745E+01  0.61958519517E+00  0.14859157383E+04  0.14859499798E+04  0.10000000000E+02 0. -1.
</event>
<event>
 5    1  0.1503263E-008  0.3855638E+03  0.7957747E-01  0.3427285E+00
         13   -1    0    0    0    0  0.00000000000E+00  0.00000000000E+00  0.14999999963E+04  0.15000000000E+04  0.10566000000E+00 0.  1.
        994   -1    0    0    0    0 -0.00000000000E+00 -0.00000000000E+00  0.11368683772E-12  0.17120000000E+03  0.17120000000E+03 0.  0.
         13    1    1    2    0    0  0.81206997611E+01  0.11869616899E+02  0.85882601021E+02  0.87078504191E+02  0.10566000000E+00 0.  1.
        994    1    1    2    0    0 -0.37075072759E+01  0.72353756504E+01  0.15674762690E+01  0.17140009700E+03  0.17120000000E+03 0.  0.
        998    1    1    2    0    0 -0.44131924852E+01 -0.19104992550E+02  0.14125499190E+04  0.14127213988E+04  0.10000000000E+02 0.  1.
</event>
<event>
 5    1  0.1503263E-008  0.3704273E+03  0.7957747E-01  0.3493930E+00
         13   -1    0    0    0    0  0.00000000000E+00  0.00000000000E+00  0.14999999963E+04  0.15000000000E+04  0.10566000000E+00 0. -1.
        994   -1    0    0    0    0 -0.00000000000E+00 -0.00000000000E+00  0.11368683772E-12  0.17120000000E+03  0.17120000000E+03 0.  0.
         13    1    1    2    0    0  0.28380363976E+01  0.13430538997E+02  0.63516777284E+01  0.15125766174E+02  0.10566000000E+00 0. -1.
        994    1    1    2    0    0  0.17508659695E+01 -0.73513570957E+01  0.92431093243E+01  0.17161580071E+03  0.17120000000E+03 0.  0.
        998    1    1    2    0    0 -0.45889023670E+01 -0.60791819013E+01  0.14844052092E+04  0.14844584331E+04  0.10000000000E+02 0. -1.
</event>
<event>
 5    1  0.1503263E-008  0.3836109E+03  0.7957747E-01  0.3435585E+00
         13   -1    0    0    0    0  0.00000000000E+00  0.00000000000E+00  0.14999999963E+04  0.15000000000E+04  0.10566000000E+00 0.  1.
        994   -1    0    0    0    0 -0.00000000000E+00 -0.00000000000E+00  0.11368683772E-12  0.17120000000E+03  0.17120000000E+03 0.  0.
         13    1    1    2    0    0  0.17082900718E+02 -0.67042261302E+01  0.69126701269E+02  0.71521214596E+02  0.10566000000E+00 0.  1.
        994    1    1    2    0    0 -0.20621979545E+02  0.28545141200E-02  0.37274906368E+01  0.17247782534E+03  0.17120000000E+03 0.  0.
        998    1    1    2    0    0  0.35390788273E+01  0.67013716160E+01  0.14271458044E+04  0.14272009601E+04  0.10000000000E+02 0.  1.
</event>
<event>
 5    1  0.1503263E-008  0.3811336E+03  0.7957747E-01  0.3446237E+00
         13   -1    0    0    0    0  0.00000000000E+00  0.00000000000E+00  0.14999999963E+04  0.15000000000E+04  0.10566000000E+00 0. -1.
        994   -1    0    0    0    0 -0.00000000000E+00 -0.00000000000E+00  0.11368683772E-12  0.17120000000E+03  0.17120000000E+03 0.  0.
         13    1    1    2    0    0  0.19851117230E+02 -0.16169303067E+02  0.86470936648E+02  0.90181745746E+02  0.10566000000E+00 0. -1.
        994    1    1    2    0    0 -0.15349398948E+02  0.21518048429E+02  0.58922433156E+01  0.17332855791E+03  0.17120000000E+03 0.  0.
        998    1    1    2    0    0 -0.45017182824E+01 -0.53487453621E+01  0.14076368163E+04  0.14076896963E+04  0.10000000000E+02 0. -1.
</event>
<event>
 5    1  0.1503263E-008  0.3799195E+03  0.7957747E-01  0.3451509E+00
         13   -1    0    0    0    0  0.00000000000E+00  0.00000000000E+00  0.14999999963E+04  0.15000000000E+04  0.10566000000E+00 0.  1.
        994   -1    0    0    0    0 -0.00000000000E+00 -0.00000000000E+00  0.11368683772E-12  0.17120000000E+03  0.17120000000E+03 0.  0.
         13    1    1    2    0    0 -0.25721137691E+02  0.27695737641E+02  0.17637633479E+03  0.18038085665E+03  0.10566000000E+00 0.  1.
        994    1    1    2    0    0  0.78185578181E+01 -0.15206438954E+02  0.51519908396E+01  0.17212887219E+03  0.17120000000E+03 0.  0.
        998    1    1    2    0    0  0.17902579873E+02 -0.12489298687E+02  0.13184716706E+04  0.13186902712E+04  0.10000000000E+02 0.  1.
</event>
<event>
 5    1  0.1503263E-008  0.3729125E+03  0.7957747E-01  0.3482612E+00
         13   -1    0    0    0    0  0.00000000000E+00  0.00000000000E+00  0.14999999963E+04  0.15000000000E+04  0.10566000000E+00 0.  1.
        994   -1    0    0    0    0 -0.00000000000E+00 -0.00000000000E+00  0.11368683772E-12  0.17120000000E+03  0.17120000000E+03 0.  0.
         13    1    1    2    0    0 -0.10203549592E+02 -0.13928172999E+02  0.15890602232E+02  0.23465481685E+02  0.10566000000E+00 0.  1.
        994    1    1    2    0    0  0.90272887030E+01  0.70634337547E+01  0.82045154837E+01  0.17177932970E+03  0.17120000000E+03 0.  0.
        998    1    1    2    0    0  0.11762608894E+01  0.68647392446E+01  0.14759048786E+04  0.14759551886E+04  0.10000000000E+02 0.  1.
</event>
<event>
 5    1  0.1503263E-008  0.3845092E+03  0.7957747E-01  0.3431756E+00
         13   -1    0    0    0    0  0.00000000000E+00  0.00000000000E+00  0.14999999963E+04  0.15000000000E+04  0.10566000000E+00 0. -1.
        994   -1    0    0    0    0 -0.00000000000E+00 -0.00000000000E+00  0.11368683772E-12  0.17120000000E+03  0.17120000000E+03 0.  0.
         13    1    1    2    0    0  0.12775531759E+02  0.15529317802E+02  0.10428251110E+03  0.10620370619E+03  0.10566000000E+00 0. -1.
        994    1    1    2    0    0 -0.77460488752E+01 -0.15600107696E+02  0.28738807707E+01  0.17210770995E+03  0.17120000000E+03 0.  0.
        998    1    1    2    0    0 -0.50294828840E+01  0.70789894031E-01  0.13928436044E+04  0.13928885839E+04  0.10000000000E+02 0. -1.
</event>
<event>
 5    1  0.1503263E-008  0.3691781E+03  0.7957747E-01  0.3499677E+00
         13   -1    0    0    0    0  0.00000000000E+00  0.00000000000E+00  0.14999999963E+04  0.15000000000E+04  0.10566000000E+00 0.  1.
        994   -1    0    0    0    0 -0.00000000000E+00 -0.00000000000E+00  0.11368683772E-12  0.17120000000E+03  0.17120000000E+03 0.  0.
         13    1    1    2    0    0 -0.39526645307E+02 -0.12746236615E+02  0.81622553711E+02  0.91580973326E+02  0.10566000000E+00 0.  1.
        994    1    1    2    0    0  0.41920217238E+02  0.27352743045E+00  0.15817716903E+02  0.17696615382E+03  0.17120000000E+03 0.  0.
        998    1    1    2    0    0 -0.23935719313E+01  0.12472709185E+02  0.14025597257E+04  0.14026528729E+04  0.10000000000E+02 0.  1.
</event>
<event>
 5    1  0.1503263E-008  0.3695236E+03  0.7957747E-01  0.3498083E+00
         13   -1    0    0    0    0  0.00000000000E+00  0.00000000000E+00  0.14999999963E+04  0.15000000000E+04  0.10566000000E+00 0. -1.
        994   -1    0    0    0    0 -0.00000000000E+00 -0.00000000000E+00  0.11368683772E-12  0.17120000000E+03  0.17120000000E+03 0.  0.
         13    1    1    2    0    0  0.38244024260E+02  0.61287291930E+02  0.17562331645E+03  0.18990075826E+03  0.10566000000E+00 0. -1.
        994    1    1    2    0    0 -0.77997891149E+02 -0.82624752030E+02  0.57210820268E+02  0.21329097174E+03  0.17120000000E+03 0.  0.
        998    1    1    2    0    0  0.39753866889E+02  0.21337460100E+02  0.12671658596E+04  0.12680082700E+04  0.10000000000E+02 0. -1.
</event>
<event>
 5    1  0.1503263E-008  0.3994919E+03  0.7957747E-01  0.3370443E+00
         13   -1    0    0    0    0  0.00000000000E+00  0.00000000000E+00  0.14999999963E+04  0.15000000000E+04  0.10566000000E+00 0. -1.
        994   -1    0    0    0    0 -0.00000000000E+00 -0.00000000000E+00  0.11368683772E-12  0.17120000000E+03  0.17120000000E+03 0.  0.
         13    1    1    2    0    0  0.56722711794E+02 -0.74893134705E+02  0.13873162226E+03  0.16754975929E+03  0.10566000000E+00 0. -1.
        994    1    1    2    0    0 -0.60774513812E+02  0.70929599284E+02  0.62445547782E+02  0.20477655144E+03  0.17120000000E+03 0.  0.
        998    1    1    2    0    0  0.40518020185E+01  0.39635354212E+01  0.12988228262E+04  0.12988736893E+04  0.10000000000E+02 0. -1.
</event>
<event>
 5    1  0.1503263E-008  0.3820803E+03  0.7957747E-01  0.3442150E+00
         13   -1    0    0    0    0  0.00000000000E+00  0.00000000000E+00  0.14999999963E+04  0.15000000000E+04  0.10566000000E+00 0.  1.
        994   -1    0    0    0    0 -0.00000000000E+00 -0.00000000000E+00  0.11368683772E-12  0.17120000000E+03  0.17120000000E+03 0.  0.
         13    1    1    2    0    0  0.44467681993E+02 -0.31411349011E+02  0.79875760800E+02  0.96665381166E+02  0.10566000000E+00 0.  1.
        994    1    1    2    0    0 -0.53563504694E+02 -0.20596022333E+02  0.29599712811E+02  0.18297220600E+03  0.17120000000E+03 0.  0.
        998    1    1    2    0    0  0.90958227005E+01  0.52007371344E+02  0.13905245227E+04  0.13915624128E+04  0.10000000000E+02 0.  1.
</event>
<event>
 5    1  0.1503263E-008  0.3857243E+03  0.7957747E-01  0.3426606E+00
         13   -1    0    0    0    0  0.00000000000E+00  0.00000000000E+00  0.14999999963E+04  0.15000000000E+04  0.10566000000E+00 0.  1.
        994   -1    0    0    0    0 -0.00000000000E+00 -0.00000000000E+00  0.11368683772E-12  0.17120000000E+03  0.17120000000E+03 0.  0.
         13    1    1    2    0    0  0.12448272800E+02  0.10022387216E+01  0.64942917483E+02  0.66132878913E+02  0.10566000000E+00 0.  1.
        994    1    1    2    0    0 -0.12983459297E+01 -0.26051377700E+01  0.12987477561E+01  0.17122966796E+03  0.17120000000E+03 0.  0.
        998    1    1    2    0    0 -0.11149926870E+02  0.16028990484E+01  0.14337583310E+04  0.14338374531E+04  0.10000000000E+02 0.  1.
</event>
<event>
 5    1  0.1503263E-008  0.3795617E+03  0.7957747E-01  0.3453069E+00
         13   -1    0    0    0    0  0.00000000000E+00  0.00000000000E+00  0.14999999963E+04  0.15000000000E+04  0.10566000000E+00 0. -1.
        994   -1    0    0    0    0 -0.00000000000E+00 -0.00000000000E+00  0.11368683772E-12  0.17120000000E+03  0.17120000000E+03 0.  0.
         13    1    1    2    0    0 -0.21144016602E+02  0.30672254813E+02  0.16086349489E+03  0.16512096113E+03  0.10566000000E+00 0. -1.
        994    1    1    2    0    0  0.14938126348E+02 -0.12670078728E+02  0.56400928689E+01  0.17240919106E+03  0.17120000000E+03 0.  0.
        998    1    1    2    0    0  0.62058902546E+01 -0.18002176085E+02  0.13334964085E+04  0.13336698478E+04  0.10000000000E+02 0. -1.
</event>
<event>
 5    1  0.1503263E-008  0.3827145E+03  0.7957747E-01  0.3439424E+00
         13   -1    0    0    0    0  0.00000000000E+00  0.00000000000E+00  0.14999999963E+04  0.15000000000E+04  0.10566000000E+00 0.  1.
        994   -1    0    0    0    0 -0.00000000000E+00 -0.00000000000E+00  0.11368683772E-12  0.17120000000E+03  0.17120000000E+03 0.  0.
         13    1    1    2    0    0 -0.18522148880E+02  0.97385017995E+01  0.79232529879E+02  0.81949456200E+02  0.10566000000E+00 0.  1.
        994    1    1    2    0    0  0.85032354597E+01 -0.73487894120E+01  0.31877210975E+01  0.17159810979E+03  0.17120000000E+03 0.  0.
        998    1    1    2    0    0  0.10018913420E+02 -0.23897123874E+01  0.14175797453E+04  0.14176524340E+04  0.10000000000E+02 0.  1.
</event>
<event>
 5    1  0.1503263E-008  0.3762197E+03  0.7957747E-01  0.3467786E+00
         13   -1    0    0    0    0  0.00000000000E+00  0.00000000000E+00  0.14999999963E+04  0.15000000000E+04  0.10566000000E+00 0.  1.
        994   -1    0    0    0    0 -0.00000000000E+00 -0.00000000000E+00  0.11368683772E-12  0.17120000000E+03  0.17120000000E+03 0.  0.
         13    1    1    2    0    0  0.10699663687E+02 -0.23189034874E+02  0.48377402770E+02  0.54704647007E+02  0.10566000000E+00 0.  1.
        994    1    1    2    0    0 -0.38779816979E+02  0.21832425247E+02  0.12787949946E+02  0.17735134807E+03  0.17120000000E+03 0.  0.
        998    1    1    2    0    0  0.28080153292E+02  0.13566096275E+01  0.14388346436E+04  0.14391440049E+04  0.10000000000E+02 0.  1.
</event>
<event>
 5    1  0.1503263E-008  0.3831191E+03  0.7957747E-01  0.3437689E+00
         13   -1    0    0    0    0  0.00000000000E+00  0.00000000000E+00  0.14999999963E+04  0.15000000000E+04  0.10566000000E+00 0.  1.
        994   -1    0    0    0    0 -0.00000000000E+00 -0.00000000000E+00  0.11368683772E-12  0.17120000000E+03  0.17120000000E+03 0.  0.
         13    1    1    2    0    0  0.18680179473E+02 -0.78278781164E+01  0.71850072668E+02  0.74650310698E+02  0.10566000000E+00 0.  1.
        994    1    1    2    0    0 -0.19799500347E+02  0.34608667281E+02  0.78450475799E+01  0.17595671296E+03  0.17120000000E+03 0.  0.
        998    1    1    2    0    0  0.11193208735E+01 -0.26780789164E+02  0.14203048760E+04  0.14205929763E+04  0.10000000000E+02 0.  1.
</event>
<event>
 5    1  0.1503263E-008  0.3688102E+03  0.7957747E-01  0.3501377E+00
         13   -1    0    0    0    0  0.00000000000E+00  0.00000000000E+00  0.14999999963E+04  0.15000000000E+04  0.10566000000E+00 0.  1.
        994   -1    0    0    0    0 -0.00000000000E+00 -0.00000000000E+00  0.11368683772E-12  0.17120000000E+03  0.17120000000E+03 0.  0.
         13    1    1    2    0    0  0.97201767331E+01  0.15693941697E+02  0.13281045082E+02  0.22741569080E+02  0.10566000000E+00 0.  1.
        994    1    1    2    0    0  0.15399860317E+02  0.28968390554E+02  0.14067524781E+02  0.17488184183E+03  0.17120000000E+03 0.  0.
        998    1    1    2    0    0 -0.25120037050E+02 -0.44662332251E+02  0.14726514264E+04  0.14735765891E+04  0.10000000000E+02 0.  1.
</event>
<event>
 5    1  0.1503263E-008  0.3735043E+03  0.7957747E-01  0.3479939E+00
         13   -1    0    0    0    0  0.00000000000E+00  0.00000000000E+00  0.14999999963E+04  0.15000000000E+04  0.10566000000E+00 0. -1.
        994   -1    0    0    0    0 -0.00000000000E+00 -0.00000000000E+00  0.11368683772E-12  0.17120000000E+03  0.17120000000E+03 0.  0.
         13    1    1    2    0    0  0.11307192483E+02 -0.18436437174E+02  0.12442596411E+02  0.24951636961E+02  0.10566000000E+00 0. -1.
        994    1    1    2    0    0 -0.20309978482E+02  0.16298596743E+02  0.15207787297E+02  0.17383571634E+03  0.17120000000E+03 0.  0.
        998    1    1    2    0    0  0.90027859985E+01  0.21378404312E+01  0.14723496126E+04  0.14724126467E+04  0.10000000000E+02 0. -1.
</event>
<event>
 5    1  0.1503263E-008  0.3818670E+03  0.7957747E-01  0.3443069E+00
         13   -1    0    0    0    0  0.00000000000E+00  0.00000000000E+00  0.14999999963E+04  0.15000000000E+04  0.10566000000E+00 0. -1.
        994   -1    0    0    0    0 -0.00000000000E+00 -0.00000000000E+00  0.11368683772E-12  0.17120000000E+03  0.17120000000E+03 0.  0.
         13    1    1    2    0    0 -0.20111040413E+02  0.20792655460E+02  0.13483324520E+03  0.13790142727E+03  0.10566000000E+00 0. -1.
        994    1    1    2    0    0  0.45111589526E+01 -0.12193610958E+02  0.37554630885E+01  0.17173403334E+03  0.17120000000E+03 0.  0.
        998    1    1    2    0    0  0.15599881460E+02 -0.85990445026E+01  0.13614112880E+04  0.13615645394E+04  0.10000000000E+02 0. -1.
</event>
<event>
 5    1  0.1503263E-008  0.3854939E+03  0.7957747E-01  0.3427580E+00
         13   -1    0    0    0    0  0.00000000000E+00  0.00000000000E+00  0.14999999963E+04  0.15000000000E+04  0.10566000000E+00 0.  1.
        994   -1    0    0    0    0 -0.00000000000E+00 -0.00000000000E+00  0.11368683772E-12  0.17120000000E+03  0.17120000000E+03 0.  0.
         13    1    1    2    0    0 -0.10921660259E+02  0.56310953175E+01  0.53289106087E+02  0.54687584413E+02  0.10566000000E+00 0.  1.
        994    1    1    2    0    0  0.13410819088E+02 -0.15858537806E+01  0.19841340628E+01  0.17174324379E+03  0.17120000000E+03 0.  0.
        998    1    1    2    0    0 -0.24891588291E+01 -0.40452415369E+01  0.14447267561E+04  0.14447691718E+04  0.10000000000E+02 0.  1.
</event>
<event>
 5    1  0.1503263E-008  0.3705014E+03  0.7957747E-01  0.3493590E+00
         13   -1    0    0    0    0  0.00000000000E+00  0.00000000000E+00  0.14999999963E+04  0.15000000000E+04  0.10566000000E+00 0. -1.
        994   -1    0    0    0    0 -0.00000000000E+00 -0.00000000000E+00  0.11368683772E-12  0.17120000000E+03  0.17120000000E+03 0.  0.
         13    1    1    2    0    0  0.82845068026E+02  0.21503530078E+02  0.30210945073E+03  0.31399974282E+03  0.10566000000E+00 0. -1.
        994    1    1    2    0    0 -0.91788092742E+02 -0.20734947314E+02  0.40223420550E+02  0.19945514676E+03  0.17120000000E+03 0.  0.
        998    1    1    2    0    0  0.89430247164E+01 -0.76858276385E+00  0.11576671250E+04  0.11577451104E+04  0.10000000000E+02 0. -1.
</event>
<event>
 5    1  0.1503263E-008  0.3800261E+03  0.7957747E-01  0.3451045E+00
         13   -1    0    0    0    0  0.00000000000E+00  0.00000000000E+00  0.14999999963E+04  0.15000000000E+04  0.10566000000E+00 0. -1.
        994   -1    0    0    0    0 -0.00000000000E+00 -0.00000000000E+00  0.11368683772E-12  0.17120000000E+03  0.17120000000E+03 0.  0.
         13    1    1    2    0    0  0.97726916126E+02  0.89293734268E+02  0.71728033027E+03  0.72939358680E+03  0.10566000000E+00 0. -1.
        994    1    1    2    0    0 -0.10944945789E+03 -0.10630142226E+03  0.86322182545E+02  0.24503088664E+03  0.17120000000E+03 0.  0.
        998    1    1    2    0    0  0.11722541765E+02  0.17007687990E+02  0.69639748347E+03  0.69677552656E+03  0.10000000000E+02 0. -1.
</event>
<event>
 5    1  0.1503263E-008  0.3812902E+03  0.7957747E-01  0.3445560E+00
         13   -1    0    0    0    0  0.00000000000E+00  0.00000000000E+00  0.14999999963E+04  0.15000000000E+04  0.10566000000E+00 0.  1.
        994   -1    0    0    0    0 -0.00000000000E+00 -0.00000000000E+00  0.11368683772E-12  0.17120000000E+03  0.17120000000E+03 0.  0.
         13    1    1    2    0    0 -0.45137094625E+02 -0.24296281976E+01  0.24740013693E+03  0.25149572426E+03  0.10566000000E+00 0.  1.
        994    1    1    2    0    0  0.44446239806E+02  0.22898862510E+02  0.11849635948E+02  0.17874473421E+03  0.17120000000E+03 0.  0.
        998    1    1    2    0    0  0.69085481854E+00 -0.20469234312E+02  0.12407502234E+04  0.12409595415E+04  0.10000000000E+02 0.  1.
</event>
<event>
 5    1  0.1503263E-008  0.3708204E+03  0.7957747E-01  0.3492129E+00
         13   -1    0    0    0    0  0.00000000000E+00  0.00000000000E+00  0.14999999963E+04  0.15000000000E+04  0.10566000000E+00 0.  1.
        994   -1    0    0    0    0 -0.00000000000E+00 -0.00000000000E+00  0.11368683772E-12  0.17120000000E+03  0.17120000000E+03 0.  0.
         13    1    1    2    0    0 -0.18180801367E+02  0.15025906148E+02  0.29428376866E+02  0.37714187289E+02  0.10566000000E+00 0.  1.
        994    1    1    2    0    0 -0.72355390286E+01  0.12698724410E+01  0.90269568610E+01  0.17159513848E+03  0.17120000000E+03 0.  0.
        998    1    1    2    0    0  0.25416340395E+02 -0.16295778589E+02  0.14615446626E+04  0.14618906742E+04  0.10000000000E+02 0.  1.
</event>
<event>
 5    1  0.1503263E-008  0.3877072E+03  0.7957747E-01  0.3418271E+00
         13   -1    0    0    0    0  0.00000000000E+00  0.00000000000E+00  0.14999999963E+04  0.15000000000E+04  0.10566000000E+00 0.  1.
        994   -1    0    0    0    0 -0.00000000000E+00 -0.00000000000E+00  0.11368683772E-12  0.17120000000E+03  0.17120000000E+03 0.  0.
         13    1    1    2    0    0 -0.95174717352E+01 -0.13090051968E+02 -0.36501606564E+01  0.16591159260E+02  0.10566000000E+00 0.  1.
        994    1    1    2    0    0 -0.54621803754E+02  0.89832603766E+02  0.63135977725E+02  0.21059209346E+03  0.17120000000E+03 0.  0.
        998    1    1    2    0    0  0.64139275489E+02 -0.76742551798E+02  0.14405141792E+04  0.14440167473E+04  0.10000000000E+02 0.  1.
</event>
<event>
 5    1  0.1503263E-008  0.3831280E+03  0.7957747E-01  0.3437651E+00
         13   -1    0    0    0    0  0.00000000000E+00  0.00000000000E+00  0.14999999963E+04  0.15000000000E+04  0.10566000000E+00 0. -1.
        994   -1    0    0    0    0 -0.00000000000E+00 -0.00000000000E+00  0.11368683772E-12  0.17120000000E+03  0.17120000000E+03 0.  0.
         13    1    1    2    0    0  0.23452857764E+02  0.37748465896E+01  0.12085033486E+03  0.12316290271E+03  0.10566000000E+00 0. -1.
        994    1    1    2    0    0 -0.74713242802E+00  0.77884924378E+00  0.25662901358E+01  0.17122263477E+03  0.17120000000E+03 0.  0.
        998    1    1    2    0    0 -0.22705725336E+02 -0.45536958334E+01  0.13765833713E+04  0.13768144625E+04  0.10000000000E+02 0. -1.
</event>
<event>
 5    1  0.1503263E-008  0.3786829E+03  0.7957747E-01  0.3456914E+00
         13   -1    0    0    0    0  0.00000000000E+00  0.00000000000E+00  0.14999999963E+04  0.15000000000E+04  0.10566000000E+00 0. -1.
        994   -1    0    0    0    0 -0.00000000000E+00 -0.00000000000E+00  0.11368683772E-12  0.17120000000E+03  0.17120000000E+03 0.  0.
         13    1    1    2    0    0 -0.53331698213E+02 -0.16962634970E+02  0.26628446416E+03  0.27210187070E+03  0.10566000000E+00 0. -1.
        994    1    1    2    0    0  0.52071287597E+02  0.24755747641E+02  0.16043049346E+02  0.18135899610E+03  0.17120000000E+03 0.  0.
        998    1    1    2    0    0  0.12604106165E+01 -0.77931126708E+01  0.12176724828E+04  0.12177391332E+04  0.10000000000E+02 0.  0.
</event>
<event>
 5    1  0.1503263E-008  0.3843646E+03  0.7957747E-01  0.3432372E+00
         13   -1    0    0    0    0  0.00000000000E+00  0.00000000000E+00  0.14999999963E+04  0.15000000000E+04  0.10566000000E+00 0.  1.
        994   -1    0    0    0    0 -0.00000000000E+00 -0.00000000000E+00  0.11368683772E-12  0.17120000000E+03  0.17120000000E+03 0.  0.
         13    1    1    2    0    0 -0.12911904188E+02 -0.18211349784E+01  0.41769841445E+02  0.43758023501E+02  0.10566000000E+00 0.  1.
        994    1    1    2    0    0  0.16270570632E+02  0.26199825537E+01  0.28414810282E+01  0.17201485340E+03  0.17120000000E+03 0.  0.
        998    1    1    2    0    0 -0.33586664445E+01 -0.79884757532E+00  0.14553886738E+04  0.14554271231E+04  0.10000000000E+02 0.  1.
</event>
<event>
 5    1  0.1503263E-008  0.3816848E+03  0.7957747E-01  0.3443855E+00
         13   -1    0    0    0    0  0.00000000000E+00  0.00000000000E+00  0.14999999963E+04  0.15000000000E+04  0.10566000000E+00 0. -1.
        994   -1    0    0    0    0 -0.00000000000E+00 -0.00000000000E+00  0.11368683772E-12  0.17120000000E+03  0.17120000000E+03 0.  0.
         13    1    1    2    0    0  0.37635189724E+02 -0.10438356574E+02  0.36756861446E+02  0.53632497806E+02  0.10566000000E+00 0. -1.
        994    1    1    2    0    0 -0.36017475980E+02  0.98821670934E+01  0.22358636811E+02  0.17664728824E+03  0.17120000000E+03 0.  0.
        998    1    1    2    0    0 -0.16177137440E+01  0.55618948085E+00  0.14408844980E+04  0.14409202140E+04  0.10000000000E+02 0.  0.
</event>
<event>
 5    1  0.1503263E-008  0.3811057E+03  0.7957747E-01  0.3446358E+00
         13   -1    0    0    0    0  0.00000000000E+00  0.00000000000E+00  0.14999999963E+04  0.15000000000E+04  0.10566000000E+00 0. -1.
        994   -1    0    0    0    0 -0.00000000000E+00 -0.00000000000E+00  0.11368683772E-12  0.17120000000E+03  0.17120000000E+03 0.  0.
         13    1    1    2    0    0  0.13481628221E+02  0.32807761447E+02  0.17547158537E+03  0.17902064670E+03  0.10566000000E+00 0. -1.
        994    1    1    2    0    0  0.12753242299E+02 -0.27760581359E+02  0.66908116758E+01  0.17403304866E+03  0.17120000000E+03 0.  0.
        998    1    1    2    0    0 -0.26234870519E+02 -0.50471800880E+01  0.13178375992E+04  0.13181463046E+04  0.10000000000E+02 0. -1.
</event>
<event>
 5    1  0.1503263E-008  0.3836492E+03  0.7957747E-01  0.3435421E+00
         13   -1    0    0    0    0  0.00000000000E+00  0.00000000000E+00  0.14999999963E+04  0.15000000000E+04  0.10566000000E+00 0. -1.
        994   -1    0    0    0    0 -0.00000000000E+00 -0.00000000000E+00  0.11368683772E-12  0.17120000000E+03  0.17120000000E+03 0.  0.
         13    1    1    2    0    0 -0.13804714981E+02  0.84700463143E+01  0.56585243591E+02  0.58857563631E+02  0.10566000000E+00 0. -1.
        994    1    1    2    0    0  0.11153397434E+02 -0.92920011732E+00  0.27161384398E+01  0.17158694325E+03  0.17120000000E+03 0.  0.
        998    1    1    2    0    0  0.26513175473E+01 -0.75408461969E+01  0.14406986142E+04  0.14407554931E+04  0.10000000000E+02 0. -1.
</event>
<event>
 5    1  0.1503263E-008  0.3811283E+03  0.7957747E-01  0.3446260E+00
         13   -1    0    0    0    0  0.00000000000E+00  0.00000000000E+00  0.14999999963E+04  0.15000000000E+04  0.10566000000E+00 0. -1.
        994   -1    0    0    0    0 -0.00000000000E+00 -0.00000000000E+00  0.11368683772E-12  0.17120000000E+03  0.17120000000E+03 0.  0.
         13    1    1    2    0    0  0.23027121078E+01  0.11999002517E+02  0.19898444984E+02  0.23350328076E+02  0.10566000000E+00 0. -1.
        994    1    1    2    0    0 -0.71939332807E+01  0.32046091099E+00  0.37373787360E+01  0.17139213334E+03  0.17120000000E+03 0.  0.
        998    1    1    2    0    0  0.48912211729E+01 -0.12319463428E+02  0.14763641726E+04  0.14764575386E+04  0.10000000000E+02 0. -1.
</event>
<event>
 5    1  0.1503263E-008  0.3829149E+03  0.7957747E-01  0.3438564E+00
         13   -1    0    0    0    0  0.00000000000E+00  0.00000000000E+00  0.14999999963E+04  0.15000000000E+04  0.10566000000E+00 0.  1.
        994   -1    0    0    0    0 -0.00000000000E+00 -0.00000000000E+00  0.11368683772E-12  0.17120000000E+03  0.17120000000E+03 0.  0.
         13    1    1    2    0    0  0.11149681652E+02 -0.13303627172E+02  0.55065962647E+02  0.57737105081E+02  0.10566000000E+00 0.  1.
        994    1    1    2    0    0 -0.19092043792E+02  0.18748602264E+01  0.38883923896E+01  0.17231535286E+03  0.17120000000E+03 0.  0.
        998    1    1    2    0    0  0.79423621402E+01  0.11428766946E+02  0.14410456412E+04  0.14411475421E+04  0.10000000000E+02 0.  1.
</event>
<event>
 5    1  0.1503263E-008  0.3990553E+03  0.7957747E-01  0.3372165E+00
         13   -1    0    0    0    0  0.00000000000E+00  0.00000000000E+00  0.14999999963E+04  0.15000000000E+04  0.10566000000E+00 0. -1.
        994   -1    0    0    0    0 -0.00000000000E+00 -0.00000000000E+00  0.11368683772E-12  0.17120000000E+03  0.17120000000E+03 0.  0.
         13    1    1    2    0    0 -0.35459776370E+01 -0.22602134796E+02 -0.23052221412E+01  0.22994687819E+02  0.10566000000E+00 0. -1.
        994    1    1    2    0    0  0.58840734503E+01  0.25339390767E+02  0.29858758887E+02  0.17572049547E+03  0.17120000000E+03 0.  0.
        998    1    1    2    0    0 -0.23380958133E+01 -0.27372559711E+01  0.14724464595E+04  0.14724848167E+04  0.10000000000E+02 0. -1.
</event>
<event>
 5    1  0.1503263E-008  0.3826102E+03  0.7957747E-01  0.3439871E+00
         13   -1    0    0    0    0  0.00000000000E+00  0.00000000000E+00  0.14999999963E+04  0.15000000000E+04  0.10566000000E+00 0. -1.
        994   -1    0    0    0    0 -0.00000000000E+00 -0.00000000000E+00  0.11368683772E-12  0.17120000000E+03  0.17120000000E+03 0.  0.
         13    1    1    2    0    0  0.32973062873E+02  0.41727856812E+01  0.19321363324E+03  0.19605140716E+03  0.10566000000E+00 0. -1.
        994    1    1    2    0    0 -0.20392638449E+02 -0.13469368429E+01  0.42068090251E+01  0.17246684082E+03  0.17120000000E+03 0.  0.
        998    1    1    2    0    0 -0.12580424424E+02 -0.28258488382E+01  0.13025795540E+04  0.13026817520E+04  0.10000000000E+02 0. -1.
</event>
<event>
 5    1  0.1503263E-008  0.3777189E+03  0.7957747E-01  0.3461152E+00
         13   -1    0    0    0    0  0.00000000000E+00  0.00000000000E+00  0.14999999963E+04  0.15000000000E+04  0.10566000000E+00 0.  1.
        994   -1    0    0    0    0 -0.00000000000E+00 -0.00000000000E+00  0.11368683772E-12  0.17120000000E+03  0.17120000000E+03 0.  0.
         13    1    1    2    0    0 -0.11583159016E+01 -0.10594332552E+02  0.82297174118E+01  0.13465548287E+02  0.10566000000E+00 0.  1.
        994    1    1    2    0    0  0.17257165230E+01  0.13645269301E+02  0.59265378809E+01  0.17185381963E+03  0.17120000000E+03 0.  0.
        998    1    1    2    0    0 -0.56740062142E+00 -0.30509367484E+01  0.14858437410E+04  0.14858806321E+04  0.10000000000E+02 0.  1.
</event>
<event>
 5    1  0.1503263E-008  0.3836977E+03  0.7957747E-01  0.3435214E+00
         13   -1    0    0    0    0  0.00000000000E+00  0.00000000000E+00  0.14999999963E+04  0.15000000000E+04  0.10566000000E+00 0. -1.
        994   -1    0    0    0    0 -0.00000000000E+00 -0.00000000000E+00  0.11368683772E-12  0.17120000000E+03  0.17120000000E+03 0.  0.
         13    1    1    2    0    0 -0.16598308344E+01 -0.17853813284E+02  0.66294566169E+02  0.68676738091E+02  0.10566000000E+00 0. -1.
        994    1    1    2    0    0  0.19352805635E+02  0.20239651250E+02  0.48722096121E+01  0.17354351902E+03  0.17120000000E+03 0.  0.
        998    1    1    2    0    0 -0.17692974801E+02 -0.23858379653E+01  0.14288332205E+04  0.14289797429E+04  0.10000000000E+02 0. -1.
</event>
<event>
 5    1  0.1503263E-008  0.3689471E+03  0.7957747E-01  0.3500744E+00
         13   -1    0    0    0    0  0.00000000000E+00  0.00000000000E+00  0.14999999963E+04  0.15000000000E+04  0.10566000000E+00 0. -1.
        994   -1    0    0    0    0 -0.00000000000E+00 -0.00000000000E+00  0.11368683772E-12  0.17120000000E+03  0.17120000000E+03 0.  0.
         13    1    1    2    0    0 -0.16969262814E+02  0.16424254016E+02  0.22120045165E+02  0.32357681663E+02  0.10566000000E+00 0. -1.
        994    1    1    2    0    0  0.16114990776E+02 -0.17635212008E+02  0.12373501174E+02  0.17330100162E+03  0.17120000000E+03 0.  0.
        998    1    1    2    0    0  0.85427203809E+00  0.12109579924E+01  0.14655064499E+04  0.14655413167E+04  0.10000000000E+02 0. -1.
</event>
<event>
 5    1  0.1503263E-008  0.2654995E+03  0.7957747E-01  0.4177946E+00
         13   -1    0    0    0    0  0.00000000000E+00  0.00000000000E+00  0.14999999963E+04  0.15000000000E+04  0.10566000000E+00 0.  1.
        994   -1    0    0    0    0 -0.00000000000E+00 -0.00000000000E+00  0.11368683772E-12  0.17120000000E+03  0.17120000000E+03 0.  0.
         13    1    1    2    0    0 -0.19861228678E+03 -0.32235982832E+02  0.42059515842E+03  0.46624703484E+03  0.10566000000E+00 0.  1.
        994    1    1    2    0    0  0.16050771256E+03 -0.43669163063E+02  0.17368436837E+03  0.29520403353E+03  0.17120000000E+03 0.  0.
        998    1    1    2    0    0  0.38104574222E+02  0.75905145894E+02  0.90572046949E+03  0.90974893163E+03  0.10000000000E+02 0.  1.
</event>
<event>
 5    1  0.1503263E-008  0.3839919E+03  0.7957747E-01  0.3433959E+00
         13   -1    0    0    0    0  0.00000000000E+00  0.00000000000E+00  0.14999999963E+04  0.15000000000E+04  0.10566000000E+00 0.  1.
        994   -1    0    0    0    0 -0.00000000000E+00 -0.00000000000E+00  0.11368683772E-12  0.17120000000E+03  0.17120000000E+03 0.  0.
         13    1    1    2    0    0  0.11443546803E+02  0.12735121116E+02  0.70507326679E+02  0.72556408075E+02  0.10566000000E+00 0.  1.
        994    1    1    2    0    0 -0.23303839870E+01 -0.56466864561E+01  0.22545889889E+01  0.17132378390E+03  0.17120000000E+03 0.  0.
        998    1    1    2    0    0 -0.91131628163E+01 -0.70884346597E+01  0.14272380806E+04  0.14273198080E+04  0.10000000000E+02 0.  1.
</event>
<event>
 5    1  0.1503263E-008  0.3848496E+03  0.7957747E-01  0.3430310E+00
         13   -1    0    0    0    0  0.00000000000E+00  0.00000000000E+00  0.14999999963E+04  0.15000000000E+04  0.10566000000E+00 0.  1.
        994   -1    0    0    0    0 -0.00000000000E+00 -0.00000000000E+00  0.11368683772E-12  0.17120000000E+03  0.17120000000E+03 0.  0.
         13    1    1    2    0    0  0.98615379404E+01 -0.16560015787E+02  0.10751417613E+03  0.10922817076E+03  0.10566000000E+00 0.  1.
        994    1    1    2    0    0 -0.70516876607E+01  0.11877128531E+02  0.23328436046E+01  0.17177215910E+03  0.17120000000E+03 0.  0.
        998    1    1    2    0    0 -0.28098502798E+01  0.46828872562E+01  0.13901529765E+04  0.13901996701E+04  0.10000000000E+02 0.  1.
</event>
<event>
 5    1  0.1503263E-008  0.3853114E+03  0.7957747E-01  0.3428353E+00
         13   -1    0    0    0    0  0.00000000000E+00  0.00000000000E+00  0.14999999963E+04  0.15000000000E+04  0.10566000000E+00 0. -1.
        994   -1    0    0    0    0 -0.00000000000E+00 -0.00000000000E+00  0.11368683772E-12  0.17120000000E+03  0.17120000000E+03 0.  0.
         13    1    1    2    0    0 -0.93482581157E+01  0.64465631332E+01  0.44089202779E+02  0.45528200840E+02  0.10566000000E+00 0. -1.
        994    1    1    2    0    0  0.75127193997E+01 -0.12494302447E+00  0.16611303501E+01  0.17137285642E+03  0.17120000000E+03 0.  0.
        998    1    1    2    0    0  0.18355387160E+01 -0.63216201088E+01  0.14542496631E+04  0.14542989427E+04  0.10000000000E+02 0. -1.
</event>
<event>
 5    1  0.1503263E-008  0.3840128E+03  0.7957747E-01  0.3433870E+00
         13   -1    0    0    0    0  0.00000000000E+00  0.00000000000E+00  0.14999999963E+04  0.15000000000E+04  0.10566000000E+00 0.  1.
        994   -1    0    0    0    0 -0.00000000000E+00 -0.00000000000E+00  0.11368683772E-12  0.17120000000E+03  0.17120000000E+03 0.  0.
         13    1    1    2    0    0 -0.56933808778E+00  0.17672037680E+02  0.74116515726E+02  0.76196418085E+02  0.10566000000E+00 0.  1.
        994    1    1    2    0    0  0.14385614371E+01 -0.94700058734E+01  0.24238022664E+01  0.17148488355E+03  0.17120000000E+03 0.  0.
        998    1    1    2    0    0 -0.86922334932E+00 -0.82020318063E+01  0.14234596783E+04  0.14235186984E+04  0.10000000000E+02 0.  1.
</event>
<event>
 5    1  0.1503263E-008  0.3844055E+03  0.7957747E-01  0.3432197E+00
         13   -1    0    0    0    0  0.00000000000E+00  0.00000000000E+00  0.14999999963E+04  0.15000000000E+04  0.10566000000E+00 0. -1.
        994   -1    0    0    0    0 -0.00000000000E+00 -0.00000000000E+00  0.11368683772E-12  0.17120000000E+03  0.17120000000E+03 0.  0.
         13    1    1    2    0    0  0.17751330470E+00  0.13436610691E+02  0.45799504332E+02  0.47730281572E+02  0.10566000000E+00 0. -1.
        994    1    1    2    0    0 -0.28915372199E+01 -0.12250830517E+02  0.24478077956E+01  0.17167957246E+03  0.17120000000E+03 0.  0.
        998    1    1    2    0    0  0.27140239152E+01 -0.11857801742E+01  0.14517526842E+04  0.14517901460E+04  0.10000000000E+02 0. -1.
</event>
<event>
 5    1  0.2076087E-008  0.3861598E+03  0.7957747E-01  0.3424768E+00
         13   -1    0    0    0    0  0.00000000000E+00  0.00000000000E+00  0.14999999963E+04  0.15000000000E+04  0.10566000000E+00 0.  1.
        994   -1    0    0    0    0 -0.00000000000E+00 -0.00000000000E+00  0.11368683772E-12  0.17120000000E+03  0.17120000000E+03 0.  0.
         13    1    1    2    0    0 -0.67534894084E+01  0.78515546691E+01  0.49520901142E+02  0.50592364482E+02  0.10566000000E+00 0.  1.
        994    1    1    2    0    0  0.57146900495E+01 -0.12161274234E+02  0.16471613982E+01  0.17173440952E+03  0.17120000000E+03 0.  0.
        998    1    1    2    0    0  0.10387993588E+01  0.43097195653E+01  0.14488319337E+04  0.14488732260E+04  0.10000000000E+02 0.  1.
</event>
<event>
 5    1  0.1503263E-008  0.3853328E+03  0.7957747E-01  0.3428262E+00
         13   -1    0    0    0    0  0.00000000000E+00  0.00000000000E+00  0.14999999963E+04  0.15000000000E+04  0.10566000000E+00 0. -1.
        994   -1    0    0    0    0 -0.00000000000E+00 -0.00000000000E+00  0.11368683772E-12  0.17120000000E+03  0.17120000000E+03 0.  0.
         13    1    1    2    0    0 -0.10656361631E+02 -0.26929501693E+01  0.44578795944E+02  0.45913943804E+02  0.10566000000E+00 0. -1.
        994    1    1    2    0    0 -0.75059233075E+01  0.42744434901E+01  0.17101431263E+01  0.17142629419E+03  0.17120000000E+03 0.  0.
        998    1    1    2    0    0  0.18162284938E+02 -0.15814933208E+01  0.14537110572E+04  0.14538597620E+04  0.10000000000E+02 0. -1.
</event>
<event>
 5    1  0.1503263E-008  0.3821018E+03  0.7957747E-01  0.3442057E+00
         13   -1    0    0    0    0  0.00000000000E+00  0.00000000000E+00  0.14999999963E+04  0.15000000000E+04  0.10566000000E+00 0.  1.
        994   -1    0    0    0    0 -0.00000000000E+00 -0.00000000000E+00  0.11368683772E-12  0.17120000000E+03  0.17120000000E+03 0.  0.
         13    1    1    2    0    0 -0.28775842825E+02 -0.20751392609E+02  0.17821499874E+03  0.18171204244E+03  0.10566000000E+00 0.  1.
        994    1    1    2    0    0  0.33873134826E+02  0.17834361532E+02  0.79562981074E+01  0.17560807611E+03  0.17120000000E+03 0.  0.
        998    1    1    2    0    0 -0.50972920007E+01  0.29170310773E+01  0.13138286994E+04  0.13138798815E+04  0.10000000000E+02 0.  1.
</event>
<event>
 5    1  0.1503263E-008  0.3734990E+03  0.7957747E-01  0.3479963E+00
         13   -1    0    0    0    0  0.00000000000E+00  0.00000000000E+00  0.14999999963E+04  0.15000000000E+04  0.10566000000E+00 0. -1.
        994   -1    0    0    0    0 -0.00000000000E+00 -0.00000000000E+00  0.11368683772E-12  0.17120000000E+03  0.17120000000E+03 0.  0.
         13    1    1    2    0    0  0.18246277210E+03  0.23605464735E+03  0.97958793131E+03  0.10240151298E+04  0.10566000000E+00 0. -1.
        994    1    1    2    0    0 -0.16396216903E+03 -0.24997261308E+03  0.41776786856E+03  0.54148807204E+03  0.17120000000E+03 0.  0.
        998    1    1    2    0    0 -0.18500603072E+02  0.13917965724E+02  0.10264419640E+03  0.10569679815E+03  0.10000000000E+02 0. -1.
</event>
<event>
 5    1  0.1503263E-008  0.3779112E+03  0.7957747E-01  0.3460304E+00
         13   -1    0    0    0    0  0.00000000000E+00  0.00000000000E+00  0.14999999963E+04  0.15000000000E+04  0.10566000000E+00 0.  1.
        994   -1    0    0    0    0 -0.00000000000E+00 -0.00000000000E+00  0.11368683772E-12  0.17120000000E+03  0.17120000000E+03 0.  0.
         13    1    1    2    0    0  0.23112615064E+02 -0.12007769337E+02  0.68396370552E+02  0.73187800679E+02  0.10566000000E+00 0.  1.
        994    1    1    2    0    0 -0.28015287700E+01 -0.11037744447E+02  0.56279136692E+01  0.17167059672E+03  0.17120000000E+03 0.  0.
        998    1    1    2    0    0 -0.20311086294E+02  0.23045513784E+02  0.14259757121E+04  0.14263416026E+04  0.10000000000E+02 0.  1.
</event>
<event>
 5    1  0.1592891E-008  0.3853550E+03  0.7957747E-01  0.3428168E+00
         13   -1    0    0    0    0  0.00000000000E+00  0.00000000000E+00  0.14999999963E+04  0.15000000000E+04  0.10566000000E+00 0. -1.
        994   -1    0    0    0    0 -0.00000000000E+00 -0.00000000000E+00  0.11368683772E-12  0.17120000000E+03  0.17120000000E+03 0.  0.
         13    1    1    2    0    0 -0.40631954032E+01  0.92307313966E+01  0.34902529394E+02  0.36330616306E+02  0.10566000000E+00 0. -1.
        994    1    1    2    0    0  0.17754836425E+01 -0.70614671576E+01  0.16281471705E+01  0.17136250326E+03  0.17120000000E+03 0.  0.
        998    1    1    2    0    0  0.22877117607E+01 -0.21692642390E+01  0.14634693197E+04  0.14635068804E+04  0.10000000000E+02 0. -1.
</event>
<event>
 5    1  0.1503263E-008  0.3832502E+03  0.7957747E-01  0.3437127E+00
         13   -1    0    0    0    0  0.00000000000E+00  0.00000000000E+00  0.14999999963E+04  0.15000000000E+04  0.10566000000E+00 0. -1.
        994   -1    0    0    0    0 -0.00000000000E+00 -0.00000000000E+00  0.11368683772E-12  0.17120000000E+03  0.17120000000E+03 0.  0.
         13    1    1    2    0    0  0.26518000999E+02  0.17667851883E+02  0.15804707205E+03  0.16122731008E+03  0.10566000000E+00 0. -1.
        994    1    1    2    0    0 -0.25281864420E+02 -0.55939139095E+02  0.15066297928E+02  0.18249600896E+03  0.17120000000E+03 0.  0.
        998    1    1    2    0    0 -0.12361365783E+01  0.38271287212E+02  0.13268866263E+04  0.13274766810E+04  0.10000000000E+02 0. -1.
</event>
<event>
 5    1  0.1503263E-008  0.3800356E+03  0.7957747E-01  0.3451004E+00
         13   -1    0    0    0    0  0.00000000000E+00  0.00000000000E+00  0.14999999963E+04  0.15000000000E+04  0.10566000000E+00 0.  1.
        994   -1    0    0    0    0 -0.00000000000E+00 -0.00000000000E+00  0.11368683772E-12  0.17120000000E+03  0.17120000000E+03 0.  0.
         13    1    1    2    0    0 -0.16142339974E+02 -0.13106221385E+02  0.48615521862E+02  0.52875592751E+02  0.10566000000E+00 0.  1.
        994    1    1    2    0    0  0.24044350837E+02  0.12367133354E+02  0.65626736826E+01  0.17344620342E+03  0.17120000000E+03 0.  0.
        998    1    1    2    0    0 -0.79020108628E+01  0.73908803118E+00  0.14448218007E+04  0.14448782038E+04  0.10000000000E+02 0.  1.
</event>
<event>
 5    1  0.1503263E-008  0.3736126E+03  0.7957747E-01  0.3479451E+00
         13   -1    0    0    0    0  0.00000000000E+00  0.00000000000E+00  0.14999999963E+04  0.15000000000E+04  0.10566000000E+00 0.  1.
        994   -1    0    0    0    0 -0.00000000000E+00 -0.00000000000E+00  0.11368683772E-12  0.17120000000E+03  0.17120000000E+03 0.  0.
         13    1    1    2    0    0  0.37201547759E+02 -0.14604658439E+01  0.94243563203E+02  0.10133088614E+03  0.10566000000E+00 0.  1.
        994    1    1    2    0    0 -0.14133109482E+02  0.11480050939E+02  0.85259674975E+01  0.17237653110E+03  0.17120000000E+03 0.  0.
        998    1    1    2    0    0 -0.23068438277E+02 -0.10019585095E+02  0.13972304656E+04  0.13974925828E+04  0.10000000000E+02 0.  1.
</event>
<event>
 5    1  0.1503263E-008  0.3841213E+03  0.7957747E-01  0.3433408E+00
         13   -1    0    0    0    0  0.00000000000E+00  0.00000000000E+00  0.14999999963E+04  0.15000000000E+04  0.10566000000E+00 0. -1.
        994   -1    0    0    0    0 -0.00000000000E+00 -0.00000000000E+00  0.11368683772E-12  0.17120000000E+03  0.17120000000E+03 0.  0.
         13    1    1    2    0    0 -0.19673844641E+02  0.95384167200E+01  0.10093178635E+03  0.10327283387E+03  0.10566000000E+00 0. -1.
        994    1    1    2    0    0  0.34087426862E+02 -0.53466458222E+01  0.60033903212E+01  0.17474558646E+03  0.17120000000E+03 0.  0.
        998    1    1    2    0    0 -0.14413582220E+02 -0.41917708978E+01  0.13930648196E+04  0.13931815797E+04  0.10000000000E+02 0. -1.
</event>
<event>
 5    1  0.1503263E-008  0.3710011E+03  0.7957747E-01  0.3491303E+00
         13   -1    0    0    0    0  0.00000000000E+00  0.00000000000E+00  0.14999999963E+04  0.15000000000E+04  0.10566000000E+00 0. -1.
        994   -1    0    0    0    0 -0.00000000000E+00 -0.00000000000E+00  0.11368683772E-12  0.17120000000E+03  0.17120000000E+03 0.  0.
         13    1    1    2    0    0  0.22968133043E+02  0.53483920975E+02  0.13101046257E+03  0.14335905065E+03  0.10566000000E+00 0. -1.
        994    1    1    2    0    0 -0.29276850794E+02 -0.52643034747E+02  0.24309592720E+02  0.18310876385E+03  0.17120000000E+03 0.  0.
        998    1    1    2    0    0  0.63087177507E+01 -0.84088622792E+00  0.13446799410E+04  0.13447321855E+04  0.10000000000E+02 0. -1.
</event>
<event>
 5    1  0.1503263E-008  0.3836008E+03  0.7957747E-01  0.3435628E+00
         13   -1    0    0    0    0  0.00000000000E+00  0.00000000000E+00  0.14999999963E+04  0.15000000000E+04  0.10566000000E+00 0. -1.
        994   -1    0    0    0    0 -0.00000000000E+00 -0.00000000000E+00  0.11368683772E-12  0.17120000000E+03  0.17120000000E+03 0.  0.
         13    1    1    2    0    0  0.61900538206E+01  0.15920247483E+02  0.60430187892E+02  0.62798008081E+02  0.10566000000E+00 0. -1.
        994    1    1    2    0    0  0.15083915133E+01 -0.18342862337E+02  0.34462495578E+01  0.17222094089E+03  0.17120000000E+03 0.  0.
        998    1    1    2    0    0 -0.76984453339E+01  0.24226148547E+01  0.14361235588E+04  0.14361810510E+04  0.10000000000E+02 0. -1.
</event>
<event>
 5    1  0.1503263E-008  0.3825575E+03  0.7957747E-01  0.3440097E+00
         13   -1    0    0    0    0  0.00000000000E+00  0.00000000000E+00  0.14999999963E+04  0.15000000000E+04  0.10566000000E+00 0.  1.
        994   -1    0    0    0    0 -0.00000000000E+00 -0.00000000000E+00  0.11368683772E-12  0.17120000000E+03  0.17120000000E+03 0.  0.
         13    1    1    2    0    0 -0.63323346604E+01 -0.15251590157E+02  0.47726400530E+02  0.50502771569E+02  0.10566000000E+00 0.  1.
        994    1    1    2    0    0 -0.22916471633E+01  0.86883571437E+01  0.31153366184E+01  0.17146394524E+03  0.17120000000E+03 0.  0.
        998    1    1    2    0    0  0.86239818237E+01  0.65632330131E+01  0.14491582591E+04  0.14492332832E+04  0.10000000000E+02 0.  1.
</event>
<event>
 5    1  0.1503263E-008  0.3858123E+03  0.7957747E-01  0.3426234E+00
         13   -1    0    0    0    0  0.00000000000E+00  0.00000000000E+00  0.14999999963E+04  0.15000000000E+04  0.10566000000E+00 0.  1.
        994   -1    0    0    0    0 -0.00000000000E+00 -0.00000000000E+00  0.11368683772E-12  0.17120000000E+03  0.17120000000E+03 0.  0.
         13    1    1    2    0    0  0.50148556737E+01  0.90825834136E+01  0.44074210461E+02  0.45279016008E+02  0.10566000000E+00 0.  1.
        994    1    1    2    0    0 -0.33181135707E+00 -0.84235582349E+01  0.14605169761E+01  0.17141365040E+03  0.17120000000E+03 0.  0.
        998    1    1    2    0    0 -0.46830443166E+01 -0.65902517868E+00  0.14544652688E+04  0.14545073336E+04  0.10000000000E+02 0.  1.
</event>
<event>
 5    1  0.1503263E-008  0.3859970E+03  0.7957747E-01  0.3425455E+00
         13   -1    0    0    0    0  0.00000000000E+00  0.00000000000E+00  0.14999999963E+04  0.15000000000E+04  0.10566000000E+00 0.  1.
        994   -1    0    0    0    0 -0.00000000000E+00 -0.00000000000E+00  0.11368683772E-12  0.17120000000E+03  0.17120000000E+03 0.  0.
         13    1    1    2    0    0  0.65441758662E+01 -0.83016091405E+01  0.51667663202E+02  0.52738046389E+02  0.10566000000E+00 0.  1.
        994    1    1    2    0    0  0.49958649392E+01  0.60210856555E+01  0.13366383695E+01  0.17138389289E+03  0.17120000000E+03 0.  0.
        998    1    1    2    0    0 -0.11540040805E+02  0.22805234850E+01  0.14469956947E+04  0.14470780607E+04  0.10000000000E+02 0.  1.
</event>
<event>
 5    1  0.1503263E-008  0.3768475E+03  0.7957747E-01  0.3465001E+00
         13   -1    0    0    0    0  0.00000000000E+00  0.00000000000E+00  0.14999999963E+04  0.15000000000E+04  0.10566000000E+00 0.  1.
        994   -1    0    0    0    0 -0.00000000000E+00 -0.00000000000E+00  0.11368683772E-12  0.17120000000E+03  0.17120000000E+03 0.  0.
         13    1    1    2    0    0 -0.49373852080E+02  0.67360373693E+02  0.26268134245E+03  0.27563870564E+03  0.10566000000E+00 0.  1.
        994    1    1    2    0    0  0.22851506005E+02 -0.17798618232E+02  0.17617424911E+02  0.17452448481E+03  0.17120000000E+03 0.  0.
        998    1    1    2    0    0  0.26522346075E+02 -0.49561755461E+02  0.12197012289E+04  0.12210368095E+04  0.10000000000E+02 0.  1.
</event>
<event>
 5    1  0.1503263E-008  0.3725049E+03  0.7957747E-01  0.3484457E+00
         13   -1    0    0    0    0  0.00000000000E+00  0.00000000000E+00  0.14999999963E+04  0.15000000000E+04  0.10566000000E+00 0. -1.
        994   -1    0    0    0    0 -0.00000000000E+00 -0.00000000000E+00  0.11368683772E-12  0.17120000000E+03  0.17120000000E+03 0.  0.
         13    1    1    2    0    0  0.21512046900E+00 -0.52587202149E+02  0.15909971853E+03  0.16756548484E+03  0.10566000000E+00 0. -1.
        994    1    1    2    0    0  0.21517933860E+02  0.46180629794E+02  0.16916683108E+02  0.17941930279E+03  0.17120000000E+03 0.  0.
        998    1    1    2    0    0 -0.21733054329E+02  0.64065723546E+01  0.13239835946E+04  0.13242152124E+04  0.10000000000E+02 0. -1.
</event>
<event>
 5    1  0.1503263E-008  0.3813713E+03  0.7957747E-01  0.3445209E+00
         13   -1    0    0    0    0  0.00000000000E+00  0.00000000000E+00  0.14999999963E+04  0.15000000000E+04  0.10566000000E+00 0. -1.
        994   -1    0    0    0    0 -0.00000000000E+00 -0.00000000000E+00  0.11368683772E-12  0.17120000000E+03  0.17120000000E+03 0.  0.
         13    1    1    2    0    0 -0.23460273198E+02 -0.43410963505E+01  0.79963651331E+02  0.83447146352E+02  0.10566000000E+00 0. -1.
        994    1    1    2    0    0  0.15890524489E+02  0.18121680449E+02  0.53780728936E+01  0.17297186979E+03  0.17120000000E+03 0.  0.
        998    1    1    2    0    0  0.75697487096E+01 -0.13780584099E+02  0.14146582721E+04  0.14147809839E+04  0.10000000000E+02 0. -1.
</event>
<event>
 5    1  0.1503263E-008  0.3814683E+03  0.7957747E-01  0.3444790E+00
         13   -1    0    0    0    0  0.00000000000E+00  0.00000000000E+00  0.14999999963E+04  0.15000000000E+04  0.10566000000E+00 0.  1.
        994   -1    0    0    0    0 -0.00000000000E+00 -0.00000000000E+00  0.11368683772E-12  0.17120000000E+03  0.17120000000E+03 0.  0.
         13    1    1    2    0    0  0.10953561922E+02  0.20464177664E+02  0.68720447853E+02  0.72534641402E+02  0.10566000000E+00 0.  1.
        994    1    1    2    0    0 -0.29976355781E+02 -0.32384920077E+02  0.98995146932E+01  0.17707288145E+03  0.17120000000E+03 0.  0.
        998    1    1    2    0    0  0.19022793859E+02  0.11920742413E+02  0.14213800337E+04  0.14215924771E+04  0.10000000000E+02 0.  1.
</event>
<event>
 5    1  0.1503263E-008  0.3824629E+03  0.7957747E-01  0.3440504E+00
         13   -1    0    0    0    0  0.00000000000E+00  0.00000000000E+00  0.14999999963E+04  0.15000000000E+04  0.10566000000E+00 0.  1.
        994   -1    0    0    0    0 -0.00000000000E+00 -0.00000000000E+00  0.11368683772E-12  0.17120000000E+03  0.17120000000E+03 0.  0.
         13    1    1    2    0    0 -0.12704353894E+02  0.90803230842E+00  0.26865270115E+02  0.29731784894E+02  0.10566000000E+00 0.  1.
        994    1    1    2    0    0  0.97540046462E+01 -0.14698848104E+01  0.32177188369E+01  0.17151412444E+03  0.17120000000E+03 0.  0.
        998    1    1    2    0    0  0.29503492482E+01  0.56185250202E+00  0.14699170073E+04  0.14699540907E+04  0.10000000000E+02 0.  1.
</event>
<event>
 5    1  0.1503263E-008  0.3842309E+03  0.7957747E-01  0.3432941E+00
         13   -1    0    0    0    0  0.00000000000E+00  0.00000000000E+00  0.14999999963E+04  0.15000000000E+04  0.10566000000E+00 0.  1.
        994   -1    0    0    0    0 -0.00000000000E+00 -0.00000000000E+00  0.11368683772E-12  0.17120000000E+03  0.17120000000E+03 0.  0.
         13    1    1    2    0    0  0.46771879824E+01 -0.92939212163E+01  0.23244019621E+02  0.25466618762E+02  0.10566000000E+00 0.  1.
        994    1    1    2    0    0 -0.30037029644E+02  0.31563485473E+02  0.82967729431E+01  0.17685234860E+03  0.17120000000E+03 0.  0.
        998    1    1    2    0    0  0.25359841661E+02 -0.22269564257E+02  0.14684592037E+04  0.14688810326E+04  0.10000000000E+02 0.  1.
</event>
<event>
 5    1  0.1503263E-008  0.3821123E+03  0.7957747E-01  0.3442012E+00
         13   -1    0    0    0    0  0.00000000000E+00  0.00000000000E+00  0.14999999963E+04  0.15000000000E+04  0.10566000000E+00 0.  1.
        994   -1    0    0    0    0 -0.00000000000E+00 -0.00000000000E+00  0.11368683772E-12  0.17120000000E+03  0.17120000000E+03 0.  0.
         13    1    1    2    0    0 -0.13690835326E+02 -0.34434288050E+02  0.22110871831E+03  0.22419240764E+03  0.10566000000E+00 0.  1.
        994    1    1    2    0    0  0.53443227078E+01  0.21730601721E+02  0.47348653972E+01  0.17272127775E+03  0.17120000000E+03 0.  0.
        998    1    1    2    0    0  0.83465126181E+01  0.12703686329E+02  0.12741564126E+04  0.12742863146E+04  0.10000000000E+02 0.  1.
</event>
<event>
 5    1  0.1503263E-008  0.3840793E+03  0.7957747E-01  0.3433586E+00
         13   -1    0    0    0    0  0.00000000000E+00  0.00000000000E+00  0.14999999963E+04  0.15000000000E+04  0.10566000000E+00 0. -1.
        994   -1    0    0    0    0 -0.00000000000E+00 -0.00000000000E+00  0.11368683772E-12  0.17120000000E+03  0.17120000000E+03 0.  0.
         13    1    1    2    0    0  0.74416326166E+01 -0.16936520174E+02  0.76482103084E+02  0.78687653846E+02  0.10566000000E+00 0. -1.
        994    1    1    2    0    0 -0.11379876782E+02  0.19581087706E+02  0.37816079826E+01  0.17273291855E+03  0.17120000000E+03 0.  0.
        998    1    1    2    0    0  0.39382441651E+01 -0.26445675316E+01  0.14197362852E+04  0.14197794276E+04  0.10000000000E+02 0. -1.
</event>
<event>
 5    1  0.1503263E-008  0.3799686E+03  0.7957747E-01  0.3451295E+00
         13   -1    0    0    0    0  0.00000000000E+00  0.00000000000E+00  0.14999999963E+04  0.15000000000E+04  0.10566000000E+00 0. -1.
        994   -1    0    0    0    0 -0.00000000000E+00 -0.00000000000E+00  0.11368683772E-12  0.17120000000E+03  0.17120000000E+03 0.  0.
         13    1    1    2    0    0 -0.55167253836E+02 -0.28457623351E+01  0.29660879373E+03  0.30170898551E+03  0.10566000000E+00 0. -1.
        994    1    1    2    0    0  0.55056278122E+02  0.79498269344E+00  0.14352612551E+02  0.18040860081E+03  0.17120000000E+03 0.  0.
        998    1    1    2    0    0  0.11097571390E+00  0.20507796416E+01  0.11890385900E+04  0.11890824137E+04  0.10000000000E+02 0. -1.
</event>
<event>
 5    1  0.1503263E-008  0.3847643E+03  0.7957747E-01  0.3430673E+00
         13   -1    0    0    0    0  0.00000000000E+00  0.00000000000E+00  0.14999999963E+04  0.15000000000E+04  0.10566000000E+00 0. -1.
        994   -1    0    0    0    0 -0.00000000000E+00 -0.00000000000E+00  0.11368683772E-12  0.17120000000E+03  0.17120000000E+03 0.  0.
         13    1    1    2    0    0 -0.72330706877E+01  0.17850225379E+02  0.11470613118E+03  0.11631188912E+03  0.10566000000E+00 0. -1.
        994    1    1    2    0    0  0.39197724526E+01 -0.13623391773E+01  0.18038902134E+01  0.17125978689E+03  0.17120000000E+03 0.  0.
        998    1    1    2    0    0  0.33132982351E+01 -0.16487886201E+02  0.13834899749E+04  0.13836283240E+04  0.10000000000E+02 0. -1.
</event>
<event>
 5    1  0.1503263E-008  0.3836209E+03  0.7957747E-01  0.3435542E+00
         13   -1    0    0    0    0  0.00000000000E+00  0.00000000000E+00  0.14999999963E+04  0.15000000000E+04  0.10566000000E+00 0.  1.
        994   -1    0    0    0    0 -0.00000000000E+00 -0.00000000000E+00  0.11368683772E-12  0.17120000000E+03  0.17120000000E+03 0.  0.
         13    1    1    2    0    0  0.14950662835E+02  0.82164537621E+01  0.63400327531E+02  0.65655503400E+02  0.10566000000E+00 0.  1.
        994    1    1    2    0    0 -0.98161093634E+01  0.18351845744E+01  0.26458731937E+01  0.17151141230E+03  0.17120000000E+03 0.  0.
        998    1    1    2    0    0 -0.51345534721E+01 -0.10051638336E+02  0.14339537956E+04  0.14340330843E+04  0.10000000000E+02 0.  1.
</event>
<event>
 5    1  0.1503263E-008  0.3782958E+03  0.7957747E-01  0.3458613E+00
         13   -1    0    0    0    0  0.00000000000E+00  0.00000000000E+00  0.14999999963E+04  0.15000000000E+04  0.10566000000E+00 0.  1.
        994   -1    0    0    0    0 -0.00000000000E+00 -0.00000000000E+00  0.11368683772E-12  0.17120000000E+03  0.17120000000E+03 0.  0.
         13    1    1    2    0    0 -0.22370181209E+02  0.50712821569E+02  0.31860820209E+03  0.32339358819E+03  0.10566000000E+00 0.  1.
        994    1    1    2    0    0 -0.60845352506E+01 -0.32872045726E+02  0.87622598616E+01  0.17465340007E+03  0.17120000000E+03 0.  0.
        998    1    1    2    0    0  0.28454716460E+02 -0.17840775843E+02  0.11726295343E+04  0.11731530117E+04  0.10000000000E+02 0.  1.
</event>
<event>
 5    1  0.1503263E-008  0.3796249E+03  0.7957747E-01  0.3452793E+00
         13   -1    0    0    0    0  0.00000000000E+00  0.00000000000E+00  0.14999999963E+04  0.15000000000E+04  0.10566000000E+00 0.  1.
        994   -1    0    0    0    0 -0.00000000000E+00 -0.00000000000E+00  0.11368683772E-12  0.17120000000E+03  0.17120000000E+03 0.  0.
         13    1    1    2    0    0  0.12724819854E+02  0.58183267290E+01  0.20072581692E+02  0.24468217468E+02  0.10566000000E+00 0.  1.
        994    1    1    2    0    0 -0.22910351937E+02 -0.70424822574E+01  0.62477970423E+01  0.17298253019E+03  0.17120000000E+03 0.  0.
        998    1    1    2    0    0  0.10185532083E+02  0.12241555285E+01  0.14736796175E+04  0.14737492523E+04  0.10000000000E+02 0.  1.
</event>
<event>
 5    1  0.1503263E-008  0.3821588E+03  0.7957747E-01  0.3441812E+00
         13   -1    0    0    0    0  0.00000000000E+00  0.00000000000E+00  0.14999999963E+04  0.15000000000E+04  0.10566000000E+00 0. -1.
        994   -1    0    0    0    0 -0.00000000000E+00 -0.00000000000E+00  0.11368683772E-12  0.17120000000E+03  0.17120000000E+03 0.  0.
         13    1    1    2    0    0  0.12933972380E+02  0.10185653817E+02  0.43034545240E+02  0.46076224164E+02  0.10566000000E+00 0. -1.
        994    1    1    2    0    0 -0.67268360027E+01 -0.12846438397E+02  0.37456384211E+01  0.17185386556E+03  0.17120000000E+03 0.  0.
        998    1    1    2    0    0 -0.62071363773E+01  0.26607845796E+01  0.14532198126E+04  0.14532699103E+04  0.10000000000E+02 0. -1.
</event>
<event>
 5    1  0.1503263E-008  0.3698928E+03  0.7957747E-01  0.3496384E+00
         13   -1    0    0    0    0  0.00000000000E+00  0.00000000000E+00  0.14999999963E+04  0.15000000000E+04  0.10566000000E+00 0. -1.
        994   -1    0    0    0    0 -0.00000000000E+00 -0.00000000000E+00  0.11368683772E-12  0.17120000000E+03  0.17120000000E+03 0.  0.
         13    1    1    2    0    0 -0.18709944157E+01  0.61408250892E+02  0.21411952566E+03  0.22275918911E+03  0.10566000000E+00 0. -1.
        994    1    1    2    0    0 -0.27010371179E+02 -0.24458017982E+02  0.13931646315E+02  0.17558839815E+03  0.17120000000E+03 0.  0.
        998    1    1    2    0    0  0.28881365595E+02 -0.36950232909E+02  0.12719488243E+04  0.12728524127E+04  0.10000000000E+02 0. -1.
</event>
<event>
 5    1  0.1503263E-008  0.3848978E+03  0.7957747E-01  0.3430106E+00
         13   -1    0    0    0    0  0.00000000000E+00  0.00000000000E+00  0.14999999963E+04  0.15000000000E+04  0.10566000000E+00 0. -1.
        994   -1    0    0    0    0 -0.00000000000E+00 -0.00000000000E+00  0.11368683772E-12  0.17120000000E+03  0.17120000000E+03 0.  0.
         13    1    1    2    0    0  0.42984810048E+00  0.14534073509E+02  0.67264976553E+02  0.68818691479E+02  0.10566000000E+00 0. -1.
        994    1    1    2    0    0 -0.72709308214E+01  0.11458986337E+01  0.18591617413E+01  0.17136824677E+03  0.17120000000E+03 0.  0.
        998    1    1    2    0    0  0.68410827209E+01 -0.15679972143E+02  0.14308758580E+04  0.14310130618E+04  0.10000000000E+02 0. -1.
</event>
<event>
 5    1  0.1503263E-008  0.3847969E+03  0.7957747E-01  0.3430534E+00
         13   -1    0    0    0    0  0.00000000000E+00  0.00000000000E+00  0.14999999963E+04  0.15000000000E+04  0.10566000000E+00 0. -1.
        994   -1    0    0    0    0 -0.00000000000E+00 -0.00000000000E+00  0.11368683772E-12  0.17120000000E+03  0.17120000000E+03 0.  0.
         13    1    1    2    0    0 -0.15065652338E+02  0.43166003539E+01  0.68825139829E+02  0.70586953154E+02  0.10566000000E+00 0. -1.
        994    1    1    2    0    0  0.14092897289E+02 -0.48775757420E+01  0.24632060754E+01  0.17186595906E+03  0.17120000000E+03 0.  0.
        998    1    1    2    0    0  0.97275504915E+00  0.56097538807E+00  0.14287116504E+04  0.14287470878E+04  0.10000000000E+02 0. -1.
</event>
<event>
 5    1  0.1503263E-008  0.3733182E+03  0.7957747E-01  0.3480779E+00
         13   -1    0    0    0    0  0.00000000000E+00  0.00000000000E+00  0.14999999963E+04  0.15000000000E+04  0.10566000000E+00 0.  1.
        994   -1    0    0    0    0 -0.00000000000E+00 -0.00000000000E+00  0.11368683772E-12  0.17120000000E+03  0.17120000000E+03 0.  0.
         13    1    1    2    0    0  0.40070984367E+02  0.38770417139E+02  0.26275584152E+03  0.26860653836E+03  0.10566000000E+00 0.  1.
        994    1    1    2    0    0 -0.16338116305E+01  0.86536801618E+01  0.78100721425E+01  0.17160417462E+03  0.17120000000E+03 0.  0.
        998    1    1    2    0    0 -0.38437172737E+02 -0.47424097301E+02  0.12294340826E+04  0.12309892870E+04  0.10000000000E+02 0.  1.
</event>
<event>
 5    1  0.1503263E-008  0.3826644E+03  0.7957747E-01  0.3439639E+00
         13   -1    0    0    0    0  0.00000000000E+00  0.00000000000E+00  0.14999999963E+04  0.15000000000E+04  0.10566000000E+00 0.  1.
        994   -1    0    0    0    0 -0.00000000000E+00 -0.00000000000E+00  0.11368683772E-12  0.17120000000E+03  0.17120000000E+03 0.  0.
         13    1    1    2    0    0  0.18308322288E+02 -0.11773564691E+02  0.13085971061E+03  0.13265777970E+03  0.10566000000E+00 0.  1.
        994    1    1    2    0    0  0.29911046074E+02 -0.35039564752E+02  0.98595057344E+01  0.17756433096E+03  0.17120000000E+03 0.  0.
        998    1    1    2    0    0 -0.48219368361E+02  0.46813129443E+02  0.13592807799E+04  0.13609778893E+04  0.10000000000E+02 0.  1.
</event>
<event>
 5    1  0.1503263E-008  0.3733398E+03  0.7957747E-01  0.3480681E+00
         13   -1    0    0    0    0  0.00000000000E+00  0.00000000000E+00  0.14999999963E+04  0.15000000000E+04  0.10566000000E+00 0. -1.
        994   -1    0    0    0    0 -0.00000000000E+00 -0.00000000000E+00  0.11368683772E-12  0.17120000000E+03  0.17120000000E+03 0.  0.
         13    1    1    2    0    0 -0.66162367871E+02  0.34062900313E+02  0.28984544274E+03  0.29924593888E+03  0.10566000000E+00 0. -1.
        994    1    1    2    0    0  0.68688592448E+02 -0.33685948996E+02  0.27813144523E+02  0.18956760509E+03  0.17120000000E+03 0.  0.
        998    1    1    2    0    0 -0.25262245768E+01 -0.37695131673E+00  0.11823414090E+04  0.11823864560E+04  0.10000000000E+02 0.  0.
</event>
<event>
 5    1  0.1503263E-008  0.3754174E+03  0.7957747E-01  0.3471358E+00
         13   -1    0    0    0    0  0.00000000000E+00  0.00000000000E+00  0.14999999963E+04  0.15000000000E+04  0.10566000000E+00 0.  1.
        994   -1    0    0    0    0 -0.00000000000E+00 -0.00000000000E+00  0.11368683772E-12  0.17120000000E+03  0.17120000000E+03 0.  0.
         13    1    1    2    0    0 -0.32914663371E+02  0.24292280181E+02  0.11831579768E+03  0.12518837440E+03  0.10566000000E+00 0.  1.
        994    1    1    2    0    0  0.30288727716E+02 -0.26830046660E+02  0.12042382830E+02  0.17632843621E+03  0.17120000000E+03 0.  0.
        998    1    1    2    0    0  0.26259356547E+01  0.25377664788E+01  0.13696418158E+04  0.13696831894E+04  0.10000000000E+02 0.  0.
</event>
<event>
 5    1  0.1503263E-008  0.3778037E+03  0.7957747E-01  0.3460778E+00
         13   -1    0    0    0    0  0.00000000000E+00  0.00000000000E+00  0.14999999963E+04  0.15000000000E+04  0.10566000000E+00 0. -1.
        994   -1    0    0    0    0 -0.00000000000E+00 -0.00000000000E+00  0.11368683772E-12  0.17120000000E+03  0.17120000000E+03 0.  0.
         13    1    1    2    0    0  0.25128560207E+02 -0.59001986134E+00  0.61937805200E+02  0.66843814513E+02  0.10566000000E+00 0. -1.
        994    1    1    2    0    0  0.16688764985E+00 -0.31027366989E+01  0.52784654899E+01  0.17130953571E+03  0.17120000000E+03 0.  0.
        998    1    1    2    0    0 -0.25295447857E+02  0.36927565602E+01  0.14327837256E+04  0.14330466498E+04  0.10000000000E+02 0. -1.
</event>
<event>
 5    1  0.1503263E-008  0.3762056E+03  0.7957747E-01  0.3467849E+00
         13   -1    0    0    0    0  0.00000000000E+00  0.00000000000E+00  0.14999999963E+04  0.15000000000E+04  0.10566000000E+00 0. -1.
        994   -1    0    0    0    0 -0.00000000000E+00 -0.00000000000E+00  0.11368683772E-12  0.17120000000E+03  0.17120000000E+03 0.  0.
         13    1    1    2    0    0  0.25934300271E+02 -0.13931509528E+02  0.68989362109E+02  0.75008120470E+02  0.10566000000E+00 0. -1.
        994    1    1    2    0    0 -0.13563570057E+02  0.16279804758E+02  0.75824890442E+01  0.17267291801E+03  0.17120000000E+03 0.  0.
        998    1    1    2    0    0 -0.12370730214E+02 -0.23482952303E+01  0.14234281451E+04  0.14235189615E+04  0.10000000000E+02 0. -1.
</event>
<event>
 5    1  0.1503263E-008  0.3817499E+03  0.7957747E-01  0.3443574E+00
         13   -1    0    0    0    0  0.00000000000E+00  0.00000000000E+00  0.14999999963E+04  0.15000000000E+04  0.10566000000E+00 0.  1.
        994   -1    0    0    0    0 -0.00000000000E+00 -0.00000000000E+00  0.11368683772E-12  0.17120000000E+03  0.17120000000E+03 0.  0.
         13    1    1    2    0    0  0.16085189651E+02  0.35367547036E+01  0.40619734232E+02  0.43831677279E+02  0.10566000000E+00 0.  1.
        994    1    1    2    0    0 -0.10483046822E+02 -0.10000363451E+01  0.36210603352E+01  0.17156178602E+03  0.17120000000E+03 0.  0.
        998    1    1    2    0    0 -0.56021428290E+01 -0.25367183585E+01  0.14557592017E+04  0.14558065367E+04  0.10000000000E+02 0.  1.
</event>
<event>
 5    1  0.1503263E-008  0.3838573E+03  0.7957747E-01  0.3434533E+00
         13   -1    0    0    0    0  0.00000000000E+00  0.00000000000E+00  0.14999999963E+04  0.15000000000E+04  0.10566000000E+00 0. -1.
        994   -1    0    0    0    0 -0.00000000000E+00 -0.00000000000E+00  0.11368683772E-12  0.17120000000E+03  0.17120000000E+03 0.  0.
         13    1    1    2    0    0  0.96948086081E+00  0.10428314609E+02  0.24992351346E+02  0.27098310437E+02  0.10566000000E+00 0. -1.
        994    1    1    2    0    0  0.33489704295E+01  0.71281549974E+00  0.22372246022E+01  0.17124885075E+03  0.17120000000E+03 0.  0.
        998    1    1    2    0    0 -0.43184512904E+01 -0.11141130109E+02  0.14727704203E+04  0.14728528388E+04  0.10000000000E+02 0. -1.
</event>
<event>
 5    1  0.1503263E-008  0.3687584E+03  0.7957747E-01  0.3501617E+00
         13   -1    0    0    0    0  0.00000000000E+00  0.00000000000E+00  0.14999999963E+04  0.15000000000E+04  0.10566000000E+00 0. -1.
        994   -1    0    0    0    0 -0.00000000000E+00 -0.00000000000E+00  0.11368683772E-12  0.17120000000E+03  0.17120000000E+03 0.  0.
         13    1    1    2    0    0  0.27233819667E+02 -0.19219893577E+02  0.51324601834E+02  0.61198947379E+02  0.10566000000E+00 0. -1.
        994    1    1    2    0    0 -0.24086184078E+02  0.14960661351E+02  0.12716375437E+02  0.17399744784E+03  0.17120000000E+03 0.  0.
        998    1    1    2    0    0 -0.31476355893E+01  0.42592322267E+01  0.14359590190E+04  0.14360036048E+04  0.10000000000E+02 0. -1.
</event>
<event>
 5    1  0.1503263E-008  0.3772008E+03  0.7957747E-01  0.3463438E+00
         13   -1    0    0    0    0  0.00000000000E+00  0.00000000000E+00  0.14999999963E+04  0.15000000000E+04  0.10566000000E+00 0. -1.
        994   -1    0    0    0    0 -0.00000000000E+00 -0.00000000000E+00  0.11368683772E-12  0.17120000000E+03  0.17120000000E+03 0.  0.
         13    1    1    2    0    0  0.94569776805E+02 -0.87731132077E+01  0.55409167420E+03  0.56217257562E+03  0.10566000000E+00 0. -1.
        994    1    1    2    0    0 -0.88225381061E+02 -0.15350885529E+00  0.32284267899E+02  0.19528301355E+03  0.17120000000E+03 0.  0.
        998    1    1    2    0    0 -0.63443957441E+01  0.89266220630E+01  0.91362405418E+03  0.91374441083E+03  0.10000000000E+02 0. -1.
</event>
<event>
 5    1  0.1503263E-008  0.3798806E+03  0.7957747E-01  0.3451678E+00
         13   -1    0    0    0    0  0.00000000000E+00  0.00000000000E+00  0.14999999963E+04  0.15000000000E+04  0.10566000000E+00 0.  1.
        994   -1    0    0    0    0 -0.00000000000E+00 -0.00000000000E+00  0.11368683772E-12  0.17120000000E+03  0.17120000000E+03 0.  0.
         13    1    1    2    0    0 -0.22447530066E+02 -0.12899391297E+03  0.69127091501E+03  0.70356151849E+03  0.10566000000E+00 0.  1.
        994    1    1    2    0    0  0.29149624696E+02  0.15119662973E+03  0.88055500035E+02  0.24652247879E+03  0.17120000000E+03 0.  0.
        998    1    1    2    0    0 -0.67020946303E+01 -0.22202716760E+02  0.72067358123E+03  0.72111600273E+03  0.10000000000E+02 0.  1.
</event>
<event>
 5    1  0.1503263E-008  0.3759898E+03  0.7957747E-01  0.3468808E+00
         13   -1    0    0    0    0  0.00000000000E+00  0.00000000000E+00  0.14999999963E+04  0.15000000000E+04  0.10566000000E+00 0. -1.
        994   -1    0    0    0    0 -0.00000000000E+00 -0.00000000000E+00  0.11368683772E-12  0.17120000000E+03  0.17120000000E+03 0.  0.
         13    1    1    2    0    0  0.39601514822E+02 -0.22351852830E+02  0.19605249462E+03  0.20125724115E+03  0.10566000000E+00 0. -1.
        994    1    1    2    0    0  0.64057905313E+01  0.10515905088E+02  0.66851626640E+01  0.17177237791E+03  0.17120000000E+03 0.  0.
        998    1    1    2    0    0 -0.46007305354E+02  0.11835947741E+02  0.12972623390E+04  0.12981703809E+04  0.10000000000E+02 0. -1.
</event>
<event>
 5    1  0.1503263E-008  0.3766688E+03  0.7957747E-01  0.3465793E+00
         13   -1    0    0    0    0  0.00000000000E+00  0.00000000000E+00  0.14999999963E+04  0.15000000000E+04  0.10566000000E+00 0.  1.
        994   -1    0    0    0    0 -0.00000000000E+00 -0.00000000000E+00  0.11368683772E-12  0.17120000000E+03  0.17120000000E+03 0.  0.
         13    1    1    2    0    0  0.49661058464E+01 -0.95498427575E+01  0.74579909569E+01  0.13095590751E+02  0.10566000000E+00 0.  1.
        994    1    1    2    0    0 -0.39144646428E+01 -0.44280879857E+01  0.59423374300E+01  0.17140502435E+03  0.17120000000E+03 0.  0.
        998    1    1    2    0    0 -0.10516412036E+01  0.13977930743E+02  0.14865996679E+04  0.14866993849E+04  0.10000000000E+02 0.  1.
</event>
<event>
 5    1  0.1503263E-008  0.3773234E+03  0.7957747E-01  0.3462896E+00
         13   -1    0    0    0    0  0.00000000000E+00  0.00000000000E+00  0.14999999963E+04  0.15000000000E+04  0.10566000000E+00 0. -1.
        994   -1    0    0    0    0 -0.00000000000E+00 -0.00000000000E+00  0.11368683772E-12  0.17120000000E+03  0.17120000000E+03 0.  0.
         13    1    1    2    0    0  0.28743968982E+01 -0.27244381064E+02  0.18642493900E+02  0.33137172480E+02  0.10566000000E+00 0. -1.
        994    1    1    2    0    0 -0.63392917887E+01  0.28438222848E+02  0.17916855816E+02  0.17458342665E+03  0.17120000000E+03 0.  0.
        998    1    1    2    0    0  0.34648948906E+01 -0.11938417840E+01  0.14634406466E+04  0.14634794009E+04  0.10000000000E+02 0. -1.
</event>
<event>
 5    1  0.1503263E-008  0.3811225E+03  0.7957747E-01  0.3446285E+00
         13   -1    0    0    0    0  0.00000000000E+00  0.00000000000E+00  0.14999999963E+04  0.15000000000E+04  0.10566000000E+00 0. -1.
        994   -1    0    0    0    0 -0.00000000000E+00 -0.00000000000E+00  0.11368683772E-12  0.17120000000E+03  0.17120000000E+03 0.  0.
         13    1    1    2    0    0 -0.24432906065E+02 -0.32264131323E+02  0.20200055869E+03  0.20601499446E+03  0.10566000000E+00 0. -1.
        994    1    1    2    0    0  0.24464157137E+02  0.30531712506E+02  0.86824313390E+01  0.17582805540E+03  0.17120000000E+03 0.  0.
        998    1    1    2    0    0 -0.31251071970E-01  0.17324188179E+01  0.12893170062E+04  0.12893569501E+04  0.10000000000E+02 0.  0.
</event>
<event>
 5    1  0.1503263E-008  0.3826649E+03  0.7957747E-01  0.3439637E+00
         13   -1    0    0    0    0  0.00000000000E+00  0.00000000000E+00  0.14999999963E+04  0.15000000000E+04  0.10566000000E+00 0. -1.
        994   -1    0    0    0    0 -0.00000000000E+00 -0.00000000000E+00  0.11368683772E-12  0.17120000000E+03  0.17120000000E+03 0.  0.
         13    1    1    2    0    0 -0.91141533937E+01 -0.76233132791E+01  0.24491617679E+02  0.27221924950E+02  0.10566000000E+00 0. -1.
        994    1    1    2    0    0  0.17846724020E+01  0.57934946674E+01  0.29157413946E+01  0.17133210786E+03  0.17120000000E+03 0.  0.
        998    1    1    2    0    0  0.73294809917E+01  0.18298186116E+01  0.14725926372E+04  0.14726459672E+04  0.10000000000E+02 0. -1.
</event>
<event>
 5    1  0.1604746E-008  0.3861555E+03  0.7957747E-01  0.3424786E+00
         13   -1    0    0    0    0  0.00000000000E+00  0.00000000000E+00  0.14999999963E+04  0.15000000000E+04  0.10566000000E+00 0.  1.
        994   -1    0    0    0    0 -0.00000000000E+00 -0.00000000000E+00  0.11368683772E-12  0.17120000000E+03  0.17120000000E+03 0.  0.
         13    1    1    2    0    0  0.49542082596E+01  0.93920501283E+01  0.52735805469E+02  0.53794341037E+02  0.10566000000E+00 0.  1.
        994    1    1    2    0    0 -0.69589017881E+01 -0.85004693714E+01  0.14530359465E+01  0.17155825718E+03  0.17120000000E+03 0.  0.
        998    1    1    2    0    0  0.20046935285E+01 -0.89158075693E+00  0.14458111549E+04  0.14458474018E+04  0.10000000000E+02 0.  1.
</event>
<event>
 5    1  0.1503263E-008  0.3693730E+03  0.7957747E-01  0.3498778E+00
         13   -1    0    0    0    0  0.00000000000E+00  0.00000000000E+00  0.14999999963E+04  0.15000000000E+04  0.10566000000E+00 0. -1.
        994   -1    0    0    0    0 -0.00000000000E+00 -0.00000000000E+00  0.11368683772E-12  0.17120000000E+03  0.17120000000E+03 0.  0.
         13    1    1    2    0    0 -0.40494452181E+02  0.54767745336E+02  0.26431450711E+03  0.27294958585E+03  0.10566000000E+00 0. -1.
        994    1    1    2    0    0  0.51997540980E+02  0.73121342361E+01  0.19212832624E+02  0.18009937399E+03  0.17120000000E+03 0.  0.
        998    1    1    2    0    0 -0.11503088799E+02 -0.62079879572E+02  0.12164726565E+04  0.12181510402E+04  0.10000000000E+02 0. -1.
</event>
<event>
 5    1  0.1503263E-008  0.3855404E+03  0.7957747E-01  0.3427384E+00
         13   -1    0    0    0    0  0.00000000000E+00  0.00000000000E+00  0.14999999963E+04  0.15000000000E+04  0.10566000000E+00 0.  1.
        994   -1    0    0    0    0 -0.00000000000E+00 -0.00000000000E+00  0.11368683772E-12  0.17120000000E+03  0.17120000000E+03 0.  0.
         13    1    1    2    0    0  0.17750028811E+01 -0.16559028320E+02  0.98380867204E+02  0.99780550460E+02  0.10566000000E+00 0.  1.
        994    1    1    2    0    0 -0.43575889743E+01  0.14990210038E+02  0.21625232022E+01  0.17192385374E+03  0.17120000000E+03 0.  0.
        998    1    1    2    0    0  0.25825860932E+01  0.15688182827E+01  0.13994566059E+04  0.13994955958E+04  0.10000000000E+02 0.  1.
</event>
<event>
 5    1  0.1503263E-008  0.3698206E+03  0.7957747E-01  0.3496716E+00
         13   -1    0    0    0    0  0.00000000000E+00  0.00000000000E+00  0.14999999963E+04  0.15000000000E+04  0.10566000000E+00 0. -1.
        994   -1    0    0    0    0 -0.00000000000E+00 -0.00000000000E+00  0.11368683772E-12  0.17120000000E+03  0.17120000000E+03 0.  0.
         13    1    1    2    0    0  0.15554005222E+02 -0.54786113898E+02  0.14728306631E+03  0.15791060173E+03  0.10566000000E+00 0. -1.
        994    1    1    2    0    0 -0.18039661886E+02  0.28904524774E+02  0.14910783553E+02  0.17519324308E+03  0.17120000000E+03 0.  0.
        998    1    1    2    0    0  0.24856566634E+01  0.25881589123E+02  0.13378061464E+04  0.13380961552E+04  0.10000000000E+02 0. -1.
</event>
<event>
 5    1  0.1503263E-008  0.3778163E+03  0.7957747E-01  0.3460722E+00
         13   -1    0    0    0    0  0.00000000000E+00  0.00000000000E+00  0.14999999963E+04  0.15000000000E+04  0.10566000000E+00 0.  1.
        994   -1    0    0    0    0 -0.00000000000E+00 -0.00000000000E+00  0.11368683772E-12  0.17120000000E+03  0.17120000000E+03 0.  0.
         13    1    1    2    0    0 -0.20940176169E+02 -0.14234866217E+01  0.40214762703E+02  0.45362491063E+02  0.10566000000E+00 0.  1.
        994    1    1    2    0    0  0.11823374749E+02  0.38134929890E+01  0.57594046994E+01  0.17174674862E+03  0.17120000000E+03 0.  0.
        998    1    1    2    0    0  0.91168014194E+01 -0.23900063672E+01  0.14540258289E+04  0.14540907603E+04  0.10000000000E+02 0.  1.
</event>
<event>
 5    1  0.1503263E-008  0.3854920E+03  0.7957747E-01  0.3427588E+00
         13   -1    0    0    0    0  0.00000000000E+00  0.00000000000E+00  0.14999999963E+04  0.15000000000E+04  0.10566000000E+00 0. -1.
        994   -1    0    0    0    0 -0.00000000000E+00 -0.00000000000E+00  0.11368683772E-12  0.17120000000E+03  0.17120000000E+03 0.  0.
         13    1    1    2    0    0  0.35739440805E+01 -0.12113703268E+02  0.62757416844E+02  0.64015774745E+02  0.10566000000E+00 0. -1.
        994    1    1    2    0    0 -0.66986583205E+00 -0.39344152796E+01  0.14383486124E+01  0.17125255382E+03  0.17120000000E+03 0.  0.
        998    1    1    2    0    0 -0.29040782485E+01  0.16048118547E+02  0.14358042308E+04  0.14359316714E+04  0.10000000000E+02 0. -1.
</event>
<event>
 5    1  0.1503263E-008  0.3759106E+03  0.7957747E-01  0.3469160E+00
         13   -1    0    0    0    0  0.00000000000E+00  0.00000000000E+00  0.14999999963E+04  0.15000000000E+04  0.10566000000E+00 0. -1.
        994   -1    0    0    0    0 -0.00000000000E+00 -0.00000000000E+00  0.11368683772E-12  0.17120000000E+03  0.17120000000E+03 0.  0.
         13    1    1    2    0    0  0.44090087612E+02 -0.28047800313E+02  0.24024556486E+03  0.24586288359E+03  0.10566000000E+00 0. -1.
        994    1    1    2    0    0 -0.16952405211E+02  0.29704310951E+01  0.72162981931E+01  0.17221417614E+03  0.17120000000E+03 0.  0.
        998    1    1    2    0    0 -0.27137682401E+02  0.25077369218E+02  0.12525381332E+04  0.12531229403E+04  0.10000000000E+02 0. -1.
</event>
<event>
 5    1  0.1503263E-008  0.3704972E+03  0.7957747E-01  0.3493609E+00
         13   -1    0    0    0    0  0.00000000000E+00  0.00000000000E+00  0.14999999963E+04  0.15000000000E+04  0.10566000000E+00 0. -1.
        994   -1    0    0    0    0 -0.00000000000E+00 -0.00000000000E+00  0.11368683772E-12  0.17120000000E+03  0.17120000000E+03 0.  0.
         13    1    1    2    0    0  0.78704477175E+00 -0.50793501806E+02  0.13136326191E+03  0.14084359059E+03  0.10566000000E+00 0. -1.
        994    1    1    2    0    0  0.84921583222E+01 -0.96705120362E+01  0.11782249655E+02  0.17208688783E+03  0.17120000000E+03 0.  0.
        998    1    1    2    0    0 -0.92792030939E+01  0.60464013842E+02  0.13568544847E+04  0.13582695216E+04  0.10000000000E+02 0. -1.
</event>
<event>
 5    1  0.1503263E-008  0.3776050E+03  0.7957747E-01  0.3461654E+00
         13   -1    0    0    0    0  0.00000000000E+00  0.00000000000E+00  0.14999999963E+04  0.15000000000E+04  0.10566000000E+00 0.  1.
        994   -1    0    0    0    0 -0.00000000000E+00 -0.00000000000E+00  0.11368683772E-12  0.17120000000E+03  0.17120000000E+03 0.  0.
         13    1    1    2    0    0  0.35201171430E+02  0.23170055133E+02  0.14625259316E+03  0.15220317373E+03  0.10566000000E+00 0.  1.
        994    1    1    2    0    0 -0.37480843298E+02 -0.26477273637E+02  0.12476031754E+02  0.17768216287E+03  0.17120000000E+03 0.  0.
        998    1    1    2    0    0  0.22796718678E+01  0.33072185049E+01  0.13412713714E+04  0.13413146634E+04  0.10000000000E+02 0.  1.
</event>
<event>
 5    1  0.1503263E-008  0.3839277E+03  0.7957747E-01  0.3434233E+00
         13   -1    0    0    0    0  0.00000000000E+00  0.00000000000E+00  0.14999999963E+04  0.15000000000E+04  0.10566000000E+00 0. -1.
        994   -1    0    0    0    0 -0.00000000000E+00 -0.00000000000E+00  0.11368683772E-12  0.17120000000E+03  0.17120000000E+03 0.  0.
         13    1    1    2    0    0 -0.13510747762E+02 -0.21775135403E+01  0.48016569575E+02  0.49928789171E+02  0.10566000000E+00 0. -1.
        994    1    1    2    0    0 -0.13584715388E+02 -0.68073525770E+01  0.29257566537E+01  0.17189789002E+03  0.17120000000E+03 0.  0.
        998    1    1    2    0    0  0.27095463150E+02  0.89848661173E+01  0.14490576700E+04  0.14493733208E+04  0.10000000000E+02 0. -1.
</event>
<event>
 5    1  0.1503263E-008  0.3848108E+03  0.7957747E-01  0.3430475E+00
         13   -1    0    0    0    0  0.00000000000E+00  0.00000000000E+00  0.14999999963E+04  0.15000000000E+04  0.10566000000E+00 0.  1.
        994   -1    0    0    0    0 -0.00000000000E+00 -0.00000000000E+00  0.11368683772E-12  0.17120000000E+03  0.17120000000E+03 0.  0.
         13    1    1    2    0    0  0.93343867873E+01 -0.14997972306E+02  0.91789867171E+02  0.93474385953E+02  0.10566000000E+00 0.  1.
        994    1    1    2    0    0 -0.27127011179E+01  0.93148225444E+01  0.20338843758E+01  0.17148673812E+03  0.17120000000E+03 0.  0.
        998    1    1    2    0    0 -0.66216856694E+01  0.56831497611E+01  0.14061762447E+04  0.14062388759E+04  0.10000000000E+02 0.  1.
</event>
<event>
 5    1  0.1503263E-008  0.3686493E+03  0.7957747E-01  0.3502122E+00
         13   -1    0    0    0    0  0.00000000000E+00  0.00000000000E+00  0.14999999963E+04  0.15000000000E+04  0.10566000000E+00 0.  1.
        994   -1    0    0    0    0 -0.00000000000E+00 -0.00000000000E+00  0.11368683772E-12  0.17120000000E+03  0.17120000000E+03 0.  0.
         13    1    1    2    0    0 -0.72577289562E+02 -0.10285420045E+02  0.40865620412E+03  0.41517846422E+03  0.10566000000E+00 0.  1.
        994    1    1    2    0    0 -0.76122532637E+01 -0.27865701339E+02  0.13135336838E+02  0.17411611294E+03  0.17120000000E+03 0.  0.
        998    1    1    2    0    0  0.80189542826E+02  0.38151121384E+02  0.10782084553E+04  0.10819054228E+04  0.10000000000E+02 0.  1.
</event>
<event>
 5    1  0.1503263E-008  0.3797857E+03  0.7957747E-01  0.3452092E+00
         13   -1    0    0    0    0  0.00000000000E+00  0.00000000000E+00  0.14999999963E+04  0.15000000000E+04  0.10566000000E+00 0.  1.
        994   -1    0    0    0    0 -0.00000000000E+00 -0.00000000000E+00  0.11368683772E-12  0.17120000000E+03  0.17120000000E+03 0.  0.
         13    1    1    2    0    0 -0.22554689692E+03 -0.36126957700E+02  0.11258680513E+04  0.11488060933E+04  0.10566000000E+00 0.  1.
        994    1    1    2    0    0  0.21946519095E+03  0.31525416032E+02  0.19148647843E+03  0.33931597858E+03  0.17120000000E+03 0.  0.
        998    1    1    2    0    0  0.60817059713E+01  0.46015416679E+01  0.18264546651E+03  0.18307792814E+03  0.10000000000E+02 0.  0.
</event>
<event>
 5    1  0.1503263E-008  0.3972378E+03  0.7957747E-01  0.3379372E+00
         13   -1    0    0    0    0  0.00000000000E+00  0.00000000000E+00  0.14999999963E+04  0.15000000000E+04  0.10566000000E+00 0.  1.
        994   -1    0    0    0    0 -0.00000000000E+00 -0.00000000000E+00  0.11368683772E-12  0.17120000000E+03  0.17120000000E+03 0.  0.
         13    1    1    2    0    0  0.58971737843E+02 -0.41682413041E+02  0.85751181738E+02  0.11210872292E+03  0.10566000000E+00 0.  1.
        994    1    1    2    0    0 -0.65887164330E+02  0.35899394052E+02  0.48278689065E+02  0.19305480241E+03  0.17120000000E+03 0.  0.
        998    1    1    2    0    0  0.69154264871E+01  0.57830189889E+01  0.13659701255E+04  0.13660364747E+04  0.10000000000E+02 0.  1.
</event>
<event>
 5    1  0.1503263E-008  0.3787293E+03  0.7957747E-01  0.3456710E+00
         13   -1    0    0    0    0  0.00000000000E+00  0.00000000000E+00  0.14999999963E+04  0.15000000000E+04  0.10566000000E+00 0.  1.
        994   -1    0    0    0    0 -0.00000000000E+00 -0.00000000000E+00  0.11368683772E-12  0.17120000000E+03  0.17120000000E+03 0.  0.
         13    1    1    2    0    0  0.76808417382E+01  0.11258711644E+02  0.17590297678E+02  0.22252722398E+02  0.10566000000E+00 0.  1.
        994    1    1    2    0    0 -0.15398765667E+02  0.41584961031E+01  0.56305106591E+01  0.17203359475E+03  0.17120000000E+03 0.  0.
        998    1    1    2    0    0  0.77179239284E+01 -0.15417207747E+02  0.14767791879E+04  0.14769136828E+04  0.10000000000E+02 0.  1.
</event>
<event>
 5    1  0.1503263E-008  0.3826640E+03  0.7957747E-01  0.3439640E+00
         13   -1    0    0    0    0  0.00000000000E+00  0.00000000000E+00  0.14999999963E+04  0.15000000000E+04  0.10566000000E+00 0. -1.
        994   -1    0    0    0    0 -0.00000000000E+00 -0.00000000000E+00  0.11368683772E-12  0.17120000000E+03  0.17120000000E+03 0.  0.
         13    1    1    2    0    0 -0.25299065525E+01 -0.22526522512E+02  0.98339163237E+02  0.10091802036E+03  0.10566000000E+00 0. -1.
        994    1    1    2    0    0  0.70829269323E+01  0.91888079418E+00  0.29634409816E+01  0.17137454355E+03  0.17120000000E+03 0.  0.
        998    1    1    2    0    0 -0.45530203798E+01  0.21607641718E+02  0.13986973921E+04  0.13989074361E+04  0.10000000000E+02 0. -1.
</event>
<event>
 5    1  0.1503263E-008  0.3711693E+03  0.7957747E-01  0.3490534E+00
         13   -1    0    0    0    0  0.00000000000E+00  0.00000000000E+00  0.14999999963E+04  0.15000000000E+04  0.10566000000E+00 0. -1.
        994   -1    0    0    0    0 -0.00000000000E+00 -0.00000000000E+00  0.11368683772E-12  0.17120000000E+03  0.17120000000E+03 0.  0.
         13    1    1    2    0    0 -0.63301225800E+02  0.30011818474E+02  0.24795995441E+03  0.25766626592E+03  0.10566000000E+00 0. -1.
        994    1    1    2    0    0  0.82268621400E+01 -0.57920740505E+01  0.11913887399E+02  0.17190872606E+03  0.17120000000E+03 0.  0.
        998    1    1    2    0    0  0.55074363660E+02 -0.24219744423E+02  0.12401261545E+04  0.12416250080E+04  0.10000000000E+02 0. -1.
</event>
<event>
 5    1  0.1503263E-008  0.3849784E+03  0.7957747E-01  0.3429764E+00
         13   -1    0    0    0    0  0.00000000000E+00  0.00000000000E+00  0.14999999963E+04  0.15000000000E+04  0.10566000000E+00 0.  1.
        994   -1    0    0    0    0 -0.00000000000E+00 -0.00000000000E+00  0.11368683772E-12  0.17120000000E+03  0.17120000000E+03 0.  0.
         13    1    1    2    0    0 -0.72755042887E+00  0.15766555497E+02  0.82656168581E+02  0.84149670056E+02  0.10566000000E+00 0.  1.
        994    1    1    2    0    0  0.24651169472E+01  0.15564509838E+01  0.16688161293E+01  0.17123295328E+03  0.17120000000E+03 0.  0.
        998    1    1    2    0    0 -0.17375665184E+01 -0.17323006481E+02  0.14156750116E+04  0.14158173767E+04  0.10000000000E+02 0.  1.
</event>
<event>
 5    1  0.1503263E-008  0.3818507E+03  0.7957747E-01  0.3443139E+00
         13   -1    0    0    0    0  0.00000000000E+00  0.00000000000E+00  0.14999999963E+04  0.15000000000E+04  0.10566000000E+00 0. -1.
        994   -1    0    0    0    0 -0.00000000000E+00 -0.00000000000E+00  0.11368683772E-12  0.17120000000E+03  0.17120000000E+03 0.  0.
         13    1    1    2    0    0 -0.41713529289E+02  0.14691468374E+02  0.25212219962E+03  0.25597162435E+03  0.10566000000E+00 0. -1.
        994    1    1    2    0    0  0.77721684494E+02  0.49531947422E+02  0.31957841470E+02  0.19704014232E+03  0.17120000000E+03 0.  0.
        998    1    1    2    0    0 -0.36008155205E+02 -0.64223415796E+02  0.12159199552E+04  0.12181882333E+04  0.10000000000E+02 0. -1.
</event>
<event>
 5    1  0.1503263E-008  0.3753036E+03  0.7957747E-01  0.3471866E+00
         13   -1    0    0    0    0  0.00000000000E+00  0.00000000000E+00  0.14999999963E+04  0.15000000000E+04  0.10566000000E+00 0.  1.
        994   -1    0    0    0    0 -0.00000000000E+00 -0.00000000000E+00  0.11368683772E-12  0.17120000000E+03  0.17120000000E+03 0.  0.
         13    1    1    2    0    0 -0.20758466406E+02  0.20448195629E+01  0.32894191941E+02  0.38950407470E+02  0.10566000000E+00 0.  1.
        994    1    1    2    0    0 -0.99755017593E+01  0.13521222010E+02  0.74822127827E+01  0.17218524207E+03  0.17120000000E+03 0.  0.
        998    1    1    2    0    0  0.30733968165E+02 -0.15566041573E+02  0.14596235916E+04  0.14600643505E+04  0.10000000000E+02 0.  1.
</event>
<event>
 5    1  0.1503263E-008  0.3861169E+03  0.7957747E-01  0.3424949E+00
         13   -1    0    0    0    0  0.00000000000E+00  0.00000000000E+00  0.14999999963E+04  0.15000000000E+04  0.10566000000E+00 0.  1.
        994   -1    0    0    0    0 -0.00000000000E+00 -0.00000000000E+00  0.11368683772E-12  0.17120000000E+03  0.17120000000E+03 0.  0.
         13    1    1    2    0    0  0.10228235008E+02 -0.56200421344E+01  0.58572286764E+02  0.59723744070E+02  0.10566000000E+00 0.  1.
        994    1    1    2    0    0 -0.17359832200E+02  0.10665841595E+02  0.24380874147E+01  0.17242537000E+03  0.17120000000E+03 0.  0.
        998    1    1    2    0    0  0.71315971918E+01 -0.50457994603E+01  0.14389896221E+04  0.14390508859E+04  0.10000000000E+02 0. -1.
</event>
<event>
 5    1  0.1503263E-008  0.3846180E+03  0.7957747E-01  0.3431294E+00
         13   -1    0    0    0    0  0.00000000000E+00  0.00000000000E+00  0.14999999963E+04  0.15000000000E+04  0.10566000000E+00 0.  1.
        994   -1    0    0    0    0 -0.00000000000E+00 -0.00000000000E+00  0.11368683772E-12  0.17120000000E+03  0.17120000000E+03 0.  0.
         13    1    1    2    0    0  0.10920447053E+02  0.29026494580E+01  0.34792995069E+02  0.36582033946E+02  0.10566000000E+00 0.  1.
        994    1    1    2    0    0 -0.68789060550E+01 -0.27746391609E+01  0.20010849051E+01  0.17137229155E+03  0.17120000000E+03 0.  0.
        998    1    1    2    0    0 -0.40415409981E+01 -0.12801029716E+00  0.14632059163E+04  0.14632456745E+04  0.10000000000E+02 0.  1.
</event>
<event>
 5    1  0.1503263E-008  0.3859048E+03  0.7957747E-01  0.3425844E+00
         13   -1    0    0    0    0  0.00000000000E+00  0.00000000000E+00  0.14999999963E+04  0.15000000000E+04  0.10566000000E+00 0. -1.
        994   -1    0    0    0    0 -0.00000000000E+00 -0.00000000000E+00  0.11368683772E-12  0.17120000000E+03  0.17120000000E+03 0.  0.
         13    1    1    2    0    0  0.20201014709E+01 -0.13938879332E+02  0.67755611683E+02  0.69204098474E+02  0.10566000000E+00 0. -1.
        994    1    1    2    0    0  0.49198320092E+02  0.52612048015E+02  0.18383450566E+02  0.18664376108E+03  0.17120000000E+03 0.  0.
        998    1    1    2    0    0 -0.51218421563E+02 -0.38673168683E+02  0.14138609340E+04  0.14153521404E+04  0.10000000000E+02 0. -1.
</event>
<event>
 5    1  0.1503263E-008  0.3852681E+03  0.7957747E-01  0.3428536E+00
         13   -1    0    0    0    0  0.00000000000E+00  0.00000000000E+00  0.14999999963E+04  0.15000000000E+04  0.10566000000E+00 0. -1.
        994   -1    0    0    0    0 -0.00000000000E+00 -0.00000000000E+00  0.11368683772E-12  0.17120000000E+03  0.17120000000E+03 0.  0.
         13    1    1    2    0    0 -0.17238994796E+02 -0.87111773982E-01  0.10223083659E+03  0.10367422845E+03  0.10566000000E+00 0. -1.
        994    1    1    2    0    0  0.79165531849E+01 -0.64989778453E+01  0.18418782386E+01  0.17151600812E+03  0.17120000000E+03 0.  0.
        998    1    1    2    0    0  0.93224416115E+01  0.65860896192E+01  0.13959272814E+04  0.13960097634E+04  0.10000000000E+02 0. -1.
</event>
<event>
 5    1  0.1503263E-008  0.3832667E+03  0.7957747E-01  0.3437057E+00
         13   -1    0    0    0    0  0.00000000000E+00  0.00000000000E+00  0.14999999963E+04  0.15000000000E+04  0.10566000000E+00 0. -1.
        994   -1    0    0    0    0 -0.00000000000E+00 -0.00000000000E+00  0.11368683772E-12  0.17120000000E+03  0.17120000000E+03 0.  0.
         13    1    1    2    0    0 -0.14428308856E+02 -0.17952979268E+01  0.59658292608E+02  0.61404578266E+02  0.10566000000E+00 0. -1.
        994    1    1    2    0    0 -0.53117465403E+02 -0.35613476108E+02  0.16138591882E+02  0.18346574329E+03  0.17120000000E+03 0.  0.
        998    1    1    2    0    0  0.67545774259E+02  0.37408774035E+02  0.14242031118E+04  0.14263296784E+04  0.10000000000E+02 0. -1.
</event>
<event>
 5    1  0.1503263E-008  0.2826641E+03  0.7957747E-01  0.4028123E+00
         13   -1    0    0    0    0  0.00000000000E+00  0.00000000000E+00  0.14999999963E+04  0.15000000000E+04  0.10566000000E+00 0. -1.
        994   -1    0    0    0    0 -0.00000000000E+00 -0.00000000000E+00  0.11368683772E-12  0.17120000000E+03  0.17120000000E+03 0.  0.
         13    1    1    2    0    0  0.17004719804E+03 -0.10963307618E+03  0.46361924477E+03  0.50584412247E+03  0.10566000000E+00 0. -1.
        994    1    1    2    0    0 -0.16882100272E+03  0.10630584051E+03  0.20361008240E+03  0.33251762110E+03  0.17120000000E+03 0.  0.
        998    1    1    2    0    0 -0.12261953161E+01  0.33272356680E+01  0.83277066910E+03  0.83283825643E+03  0.10000000000E+02 0. -1.
</event>
<event>
 5    1  0.1503263E-008  0.3686643E+03  0.7957747E-01  0.3502052E+00
         13   -1    0    0    0    0  0.00000000000E+00  0.00000000000E+00  0.14999999963E+04  0.15000000000E+04  0.10566000000E+00 0.  1.
        994   -1    0    0    0    0 -0.00000000000E+00 -0.00000000000E+00  0.11368683772E-12  0.17120000000E+03  0.17120000000E+03 0.  0.
         13    1    1    2    0    0 -0.66672982992E+01 -0.32151481469E+02  0.51646568102E+02  0.61200896954E+02  0.10566000000E+00 0.  1.
        994    1    1    2    0    0 -0.34621743664E+01  0.13397282536E+02  0.10634284472E+02  0.17208719254E+03  0.17120000000E+03 0.  0.
        998    1    1    2    0    0  0.10129472666E+02  0.18754198933E+02  0.14377191437E+04  0.14379119105E+04  0.10000000000E+02 0.  1.
</event>
<event>
 5    1  0.1503263E-008  0.3980865E+03  0.7957747E-01  0.3375999E+00
         13   -1    0    0    0    0  0.00000000000E+00  0.00000000000E+00  0.14999999963E+04  0.15000000000E+04  0.10566000000E+00 0.  1.
        994   -1    0    0    0    0 -0.00000000000E+00 -0.00000000000E+00  0.11368683772E-12  0.17120000000E+03  0.17120000000E+03 0.  0.
         13    1    1    2    0    0 -0.19273275451E+02 -0.64493324829E+02  0.71214208355E+02  0.97991442125E+02  0.10566000000E+00 0.  1.
        994    1    1    2    0    0  0.27844993251E+02  0.69532754092E+02  0.48778620676E+02  0.19312933846E+03  0.17120000000E+03 0.  0.
        998    1    1    2    0    0 -0.85717177998E+01 -0.50394292626E+01  0.13800071672E+04  0.13800792194E+04  0.10000000000E+02 0.  1.
</event>
<event>
 5    1  0.1503263E-008  0.3813873E+03  0.7957747E-01  0.3445140E+00
         13   -1    0    0    0    0  0.00000000000E+00  0.00000000000E+00  0.14999999963E+04  0.15000000000E+04  0.10566000000E+00 0. -1.
        994   -1    0    0    0    0 -0.00000000000E+00 -0.00000000000E+00  0.11368683772E-12  0.17120000000E+03  0.17120000000E+03 0.  0.
         13    1    1    2    0    0  0.12030798113E+02  0.14275880762E+02  0.48339482614E+02  0.51819471420E+02  0.10566000000E+00 0. -1.
        994    1    1    2    0    0 -0.12974367024E+02 -0.13029981772E+02  0.45604152669E+01  0.17224503480E+03  0.17120000000E+03 0.  0.
        998    1    1    2    0    0  0.94356891056E+00 -0.12458989907E+01  0.14471000984E+04  0.14471354938E+04  0.10000000000E+02 0. -1.
</event>
<event>
 5    1  0.1503263E-008  0.3712171E+03  0.7957747E-01  0.3490316E+00
         13   -1    0    0    0    0  0.00000000000E+00  0.00000000000E+00  0.14999999963E+04  0.15000000000E+04  0.10566000000E+00 0. -1.
        994   -1    0    0    0    0 -0.00000000000E+00 -0.00000000000E+00  0.11368683772E-12  0.17120000000E+03  0.17120000000E+03 0.  0.
         13    1    1    2    0    0  0.28611989923E+02 -0.16146705218E+02  0.53123612651E+02  0.62461919934E+02  0.10566000000E+00 0. -1.
        994    1    1    2    0    0 -0.66386361153E+02 -0.18486695632E+01  0.23977374417E+02  0.18518887928E+03  0.17120000000E+03 0.  0.
        998    1    1    2    0    0  0.37774371231E+02  0.17995374781E+02  0.14228990092E+04  0.14235492008E+04  0.10000000000E+02 0. -1.
</event>
<event>
 5    1  0.1503263E-008  0.3744692E+03  0.7957747E-01  0.3475600E+00
         13   -1    0    0    0    0  0.00000000000E+00  0.00000000000E+00  0.14999999963E+04  0.15000000000E+04  0.10566000000E+00 0. -1.
        994   -1    0    0    0    0 -0.00000000000E+00 -0.00000000000E+00  0.11368683772E-12  0.17120000000E+03  0.17120000000E+03 0.  0.
         13    1    1    2    0    0 -0.18922213505E+02  0.62370827019E+01  0.96101931228E+01  0.22120541143E+02  0.10566000000E+00 0. -1.
        994    1    1    2    0    0 -0.75281951479E+01  0.76100969508E+01  0.13728838277E+02  0.17208285300E+03  0.17120000000E+03 0.  0.
        998    1    1    2    0    0  0.26450408653E+02 -0.13847179653E+02  0.14766609649E+04  0.14769966059E+04  0.10000000000E+02 0. -1.
</event>
<event>
 5    1  0.1503263E-008  0.3843650E+03  0.7957747E-01  0.3432370E+00
         13   -1    0    0    0    0  0.00000000000E+00  0.00000000000E+00  0.14999999963E+04  0.15000000000E+04  0.10566000000E+00 0. -1.
        994   -1    0    0    0    0 -0.00000000000E+00 -0.00000000000E+00  0.11368683772E-12  0.17120000000E+03  0.17120000000E+03 0.  0.
         13    1    1    2    0    0 -0.58172229509E+01  0.25868726678E+02  0.14191881010E+03  0.14437448157E+03  0.10566000000E+00 0. -1.
        994    1    1    2    0    0  0.79758041590E+01 -0.44221166382E+02  0.86281778470E+01  0.17720894577E+03  0.17120000000E+03 0.  0.
        998    1    1    2    0    0 -0.21585812081E+01  0.18352439704E+02  0.13494530083E+04  0.13496165727E+04  0.10000000000E+02 0. -1.
</event>
<event>
 5    1  0.1503263E-008  0.3813105E+03  0.7957747E-01  0.3445472E+00
         13   -1    0    0    0    0  0.00000000000E+00  0.00000000000E+00  0.14999999963E+04  0.15000000000E+04  0.10566000000E+00 0.  1.
        994   -1    0    0    0    0 -0.00000000000E+00 -0.00000000000E+00  0.11368683772E-12  0.17120000000E+03  0.17120000000E+03 0.  0.
         13    1    1    2    0    0  0.25604684653E+02 -0.67308403538E+01  0.10840671122E+03  0.11159269820E+03  0.10566000000E+00 0.  1.
        994    1    1    2    0    0 -0.39966781397E+01 -0.73666363420E+01  0.37068854695E+01  0.17144509840E+03  0.17120000000E+03 0.  0.
        998    1    1    2    0    0 -0.21608006513E+02  0.14097476696E+02  0.13878863996E+04  0.13881622034E+04  0.10000000000E+02 0.  1.
</event>
<event>
 5    1  0.1503263E-008  0.3852129E+03  0.7957747E-01  0.3428770E+00
         13   -1    0    0    0    0  0.00000000000E+00  0.00000000000E+00  0.14999999963E+04  0.15000000000E+04  0.10566000000E+00 0.  1.
        994   -1    0    0    0    0 -0.00000000000E+00 -0.00000000000E+00  0.11368683772E-12  0.17120000000E+03  0.17120000000E+03 0.  0.
         13    1    1    2    0    0 -0.16357334759E+02 -0.18683816738E+01  0.85263284148E+02  0.86838309739E+02  0.10566000000E+00 0.  1.
        994    1    1    2    0    0  0.16429662235E+02  0.23681496383E+01  0.24305411351E+01  0.17202002635E+03  0.17120000000E+03 0.  0.
        998    1    1    2    0    0 -0.72327476226E-01 -0.49976796449E+00  0.14123061710E+04  0.14123416639E+04  0.10000000000E+02 0.  0.
</event>
<event>
 5    1  0.1503263E-008  0.3850305E+03  0.7957747E-01  0.3429543E+00
         13   -1    0    0    0    0  0.00000000000E+00  0.00000000000E+00  0.14999999963E+04  0.15000000000E+04  0.10566000000E+00 0.  1.
        994   -1    0    0    0    0 -0.00000000000E+00 -0.00000000000E+00  0.11368683772E-12  0.17120000000E+03  0.17120000000E+03 0.  0.
         13    1    1    2    0    0  0.10106316298E+03 -0.42243770708E+01  0.23542631941E+03  0.25623655342E+03  0.10566000000E+00 0.  1.
        994    1    1    2    0    0 -0.85425678494E+02  0.30734694262E+02  0.50227263359E+02  0.20018587853E+03  0.17120000000E+03 0.  0.
        998    1    1    2    0    0 -0.15637484490E+02 -0.26510317192E+02  0.12143464135E+04  0.12147775680E+04  0.10000000000E+02 0.  1.
</event>
<event>
 5    1  0.1503263E-008  0.3860212E+03  0.7957747E-01  0.3425353E+00
         13   -1    0    0    0    0  0.00000000000E+00  0.00000000000E+00  0.14999999963E+04  0.15000000000E+04  0.10566000000E+00 0.  1.
        994   -1    0    0    0    0 -0.00000000000E+00 -0.00000000000E+00  0.11368683772E-12  0.17120000000E+03  0.17120000000E+03 0.  0.
         13    1    1    2    0    0 -0.13147900348E+01 -0.10450236612E+02  0.49666731653E+02  0.50771365110E+02  0.10566000000E+00 0.  1.
        994    1    1    2    0    0  0.16231275061E+00  0.79836912553E+01  0.13330076485E+01  0.17139131419E+03  0.17120000000E+03 0.  0.
        998    1    1    2    0    0  0.11524772842E+01  0.24665453570E+01  0.14490002570E+04  0.14490373207E+04  0.10000000000E+02 0.  1.
</event>
<event>
 5    1  0.1503263E-008  0.3753842E+03  0.7957747E-01  0.3471506E+00
         13   -1    0    0    0    0  0.00000000000E+00  0.00000000000E+00  0.14999999963E+04  0.15000000000E+04  0.10566000000E+00 0.  1.
        994   -1    0    0    0    0 -0.00000000000E+00 -0.00000000000E+00  0.11368683772E-12  0.17120000000E+03  0.17120000000E+03 0.  0.
         13    1    1    2    0    0 -0.20507536527E+02  0.36366879803E+01  0.29696371065E+02  0.36272168013E+02  0.10566000000E+00 0.  1.
        994    1    1    2    0    0  0.27401895437E+02 -0.40927992256E+01  0.90918787443E+01  0.17366553238E+03  0.17120000000E+03 0.  0.
        998    1    1    2    0    0 -0.68943589098E+01  0.45611124529E+00  0.14612117465E+04  0.14612622996E+04  0.10000000000E+02 0.  1.
</event>
<event>
 5    1  0.1503263E-008  0.3837404E+03  0.7957747E-01  0.3435032E+00
         13   -1    0    0    0    0  0.00000000000E+00  0.00000000000E+00  0.14999999963E+04  0.15000000000E+04  0.10566000000E+00 0. -1.
        994   -1    0    0    0    0 -0.00000000000E+00 -0.00000000000E+00  0.11368683772E-12  0.17120000000E+03  0.17120000000E+03 0.  0.
         13    1    1    2    0    0 -0.12489369874E+02 -0.20525796033E+02  0.10903743762E+03  0.11165333237E+03  0.10566000000E+00 0. -1.
        994    1    1    2    0    0  0.76065274687E+01  0.39469343121E+02  0.76103633004E+01  0.17602001573E+03  0.17120000000E+03 0.  0.
        998    1    1    2    0    0  0.48828424050E+01 -0.18943547087E+02  0.13833521954E+04  0.13835266519E+04  0.10000000000E+02 0. -1.
</event>
<event>
 5    1  0.1503263E-008  0.3835653E+03  0.7957747E-01  0.3435780E+00
         13   -1    0    0    0    0  0.00000000000E+00  0.00000000000E+00  0.14999999963E+04  0.15000000000E+04  0.10566000000E+00 0. -1.
        994   -1    0    0    0    0 -0.00000000000E+00 -0.00000000000E+00  0.11368683772E-12  0.17120000000E+03  0.17120000000E+03 0.  0.
         13    1    1    2    0    0  0.31322726518E+01 -0.13980601866E+02  0.42286289161E+02  0.44647617804E+02  0.10566000000E+00 0. -1.
        994    1    1    2    0    0 -0.85963317268E+01  0.12576327590E+02  0.31112064074E+01  0.17190456812E+03  0.17120000000E+03 0.  0.
        998    1    1    2    0    0  0.54640590749E+01  0.14042742756E+01  0.14546025007E+04  0.14546478141E+04  0.10000000000E+02 0. -1.
</event>
<event>
 5    1  0.1503263E-008  0.3849463E+03  0.7957747E-01  0.3429900E+00
         13   -1    0    0    0    0  0.00000000000E+00  0.00000000000E+00  0.14999999963E+04  0.15000000000E+04  0.10566000000E+00 0.  1.
        994   -1    0    0    0    0 -0.00000000000E+00 -0.00000000000E+00  0.11368683772E-12  0.17120000000E+03  0.17120000000E+03 0.  0.
         13    1    1    2    0    0  0.94111061514E+01  0.52949392523E+01  0.34869763383E+02  0.36503655476E+02  0.10566000000E+00 0.  1.
        994    1    1    2    0    0 -0.84193063821E+01 -0.14672257077E+01  0.18970764404E+01  0.17142367506E+03  0.17120000000E+03 0.  0.
        998    1    1    2    0    0 -0.99179976931E+00 -0.38277135446E+01  0.14632331565E+04  0.14632726695E+04  0.10000000000E+02 0.  1.
</event>
<event>
 5    1  0.1503263E-008  0.3846354E+03  0.7957747E-01  0.3431220E+00
         13   -1    0    0    0    0  0.00000000000E+00  0.00000000000E+00  0.14999999963E+04  0.15000000000E+04  0.10566000000E+00 0.  1.
        994   -1    0    0    0    0 -0.00000000000E+00 -0.00000000000E+00  0.11368683772E-12  0.17120000000E+03  0.17120000000E+03 0.  0.
         13    1    1    2    0    0 -0.11357807989E+02  0.52054675899E+01  0.44977090417E+02  0.46680258371E+02  0.10566000000E+00 0.  1.
        994    1    1    2    0    0 -0.20815616647E+01 -0.16503789046E+01  0.18344968414E+01  0.17123043546E+03  0.17120000000E+03 0.  0.
        998    1    1    2    0    0  0.13439369654E+02 -0.35550886854E+01  0.14531884090E+04  0.14532893062E+04  0.10000000000E+02 0.  1.
</event>
<event>
 5    1  0.1503263E-008  0.3736545E+03  0.7957747E-01  0.3479262E+00
         13   -1    0    0    0    0  0.00000000000E+00  0.00000000000E+00  0.14999999963E+04  0.15000000000E+04  0.10566000000E+00 0.  1.
        994   -1    0    0    0    0 -0.00000000000E+00 -0.00000000000E+00  0.11368683772E-12  0.17120000000E+03  0.17120000000E+03 0.  0.
         13    1    1    2    0    0  0.63798266945E+02 -0.51835009743E+02  0.42289538102E+03  0.43081040094E+03  0.10566000000E+00 0.  1.
        994    1    1    2    0    0 -0.57756934296E+02  0.18384797087E+02  0.20022062278E+02  0.18271340181E+03  0.17120000000E+03 0.  0.
        998    1    1    2    0    0 -0.60413326494E+01  0.33450212656E+02  0.10570825530E+04  0.10576761973E+04  0.10000000000E+02 0.  0.
</event>
<event>
 5    1  0.1503263E-008  0.3805589E+03  0.7957747E-01  0.3448729E+00
         13   -1    0    0    0    0  0.00000000000E+00  0.00000000000E+00  0.14999999963E+04  0.15000000000E+04  0.10566000000E+00 0.  1.
        994   -1    0    0    0    0 -0.00000000000E+00 -0.00000000000E+00  0.11368683772E-12  0.17120000000E+03  0.17120000000E+03 0.  0.
         13    1    1    2    0    0 -0.20658702362E+02 -0.37361980486E+02  0.19315061475E+03  0.19781271626E+03  0.10566000000E+00 0.  1.
        994    1    1    2    0    0  0.11859740688E+02  0.53102177254E+02  0.13793636695E+02  0.18016714210E+03  0.17120000000E+03 0.  0.
        998    1    1    2    0    0  0.87989616746E+01 -0.15740196768E+02  0.12930557448E+04  0.12932201416E+04  0.10000000000E+02 0.  1.
</event>
<event>
 5    1  0.1503263E-008  0.3804365E+03  0.7957747E-01  0.3449260E+00
         13   -1    0    0    0    0  0.00000000000E+00  0.00000000000E+00  0.14999999963E+04  0.15000000000E+04  0.10566000000E+00 0. -1.
        994   -1    0    0    0    0 -0.00000000000E+00 -0.00000000000E+00  0.11368683772E-12  0.17120000000E+03  0.17120000000E+03 0.  0.
         13    1    1    2    0    0  0.30216200010E+02 -0.43832283522E+02  0.30747622652E+03  0.31205116385E+03  0.10566000000E+00 0. -1.
        994    1    1    2    0    0 -0.27907550844E+02  0.38059989828E+02  0.11384281469E+02  0.17795065632E+03  0.17120000000E+03 0.  0.
        998    1    1    2    0    0 -0.23086491654E+01  0.57722936937E+01  0.11811394883E+04  0.11811981798E+04  0.10000000000E+02 0. -1.
</event>
<event>
 5    1  0.1503263E-008  0.3859692E+03  0.7957747E-01  0.3425572E+00
         13   -1    0    0    0    0  0.00000000000E+00  0.00000000000E+00  0.14999999963E+04  0.15000000000E+04  0.10566000000E+00 0. -1.
        994   -1    0    0    0    0 -0.00000000000E+00 -0.00000000000E+00  0.11368683772E-12  0.17120000000E+03  0.17120000000E+03 0.  0.
         13    1    1    2    0    0 -0.10314173142E+02  0.30039113217E+01  0.53516608180E+02  0.54584284973E+02  0.10566000000E+00 0. -1.
        994    1    1    2    0    0 -0.14272890625E+01 -0.32045423429E+01  0.11900456880E+01  0.17124007257E+03  0.17120000000E+03 0.  0.
        998    1    1    2    0    0  0.11741462204E+02  0.20063102121E+00  0.14452933424E+04  0.14453756425E+04  0.10000000000E+02 0. -1.
</event>
<event>
 5    1  0.1503263E-008  0.3791384E+03  0.7957747E-01  0.3454919E+00
         13   -1    0    0    0    0  0.00000000000E+00  0.00000000000E+00  0.14999999963E+04  0.15000000000E+04  0.10566000000E+00 0.  1.
        994   -1    0    0    0    0 -0.00000000000E+00 -0.00000000000E+00  0.11368683772E-12  0.17120000000E+03  0.17120000000E+03 0.  0.
         13    1    1    2    0    0  0.26582664001E+02 -0.47016610936E+02  0.31825535566E+03  0.32280595146E+03  0.10566000000E+00 0.  1.
        994    1    1    2    0    0 -0.96217774533E+01  0.29705999616E+02  0.78443394701E+01  0.17420102949E+03  0.17120000000E+03 0.  0.
        998    1    1    2    0    0 -0.16960886548E+02  0.17310611320E+02  0.11739003012E+04  0.11741930190E+04  0.10000000000E+02 0.  1.
</event>
<event>
 5    1  0.1503263E-008  0.3839255E+03  0.7957747E-01  0.3434242E+00
         13   -1    0    0    0    0  0.00000000000E+00  0.00000000000E+00  0.14999999963E+04  0.15000000000E+04  0.10566000000E+00 0.  1.
        994   -1    0    0    0    0 -0.00000000000E+00 -0.00000000000E+00  0.11368683772E-12  0.17120000000E+03  0.17120000000E+03 0.  0.
         13    1    1    2    0    0 -0.17312741252E+02 -0.68792877134E+01  0.75158726527E+02  0.77433203126E+02  0.10566000000E+00 0.  1.
        994    1    1    2    0    0  0.20582309364E+02  0.75610646589E+01  0.37528736301E+01  0.17263929222E+03  0.17120000000E+03 0.  0.
        998    1    1    2    0    0 -0.32695681114E+01 -0.68177694559E+00  0.14210883961E+04  0.14211275047E+04  0.10000000000E+02 0.  1.
</event>
<event>
 5    1  0.1503263E-008  0.2575541E+03  0.7957747E-01  0.4255003E+00
         13   -1    0    0    0    0  0.00000000000E+00  0.00000000000E+00  0.14999999963E+04  0.15000000000E+04  0.10566000000E+00 0. -1.
        994   -1    0    0    0    0 -0.00000000000E+00 -0.00000000000E+00  0.11368683772E-12  0.17120000000E+03  0.17120000000E+03 0.  0.
         13    1    1    2    0    0 -0.15467839211E+03  0.21885195199E+03  0.39669352326E+03  0.47873515062E+03  0.10566000000E+00 0. -1.
        994    1    1    2    0    0  0.65500158768E+02 -0.49436324233E+02  0.22937620364E+03  0.29775342777E+03  0.17120000000E+03 0.  0.
        998    1    1    2    0    0  0.89178233340E+02 -0.16941562776E+03  0.87393026938E+03  0.89471142161E+03  0.10000000000E+02 0.  1.
</event>
<event>
 5    1  0.1503263E-008  0.3966966E+03  0.7957747E-01  0.3381531E+00
         13   -1    0    0    0    0  0.00000000000E+00  0.00000000000E+00  0.14999999963E+04  0.15000000000E+04  0.10566000000E+00 0.  1.
        994   -1    0    0    0    0 -0.00000000000E+00 -0.00000000000E+00  0.11368683772E-12  0.17120000000E+03  0.17120000000E+03 0.  0.
         13    1    1    2    0    0  0.44310283541E+02  0.12692265320E+03  0.43322398631E+03  0.45360312455E+03  0.10566000000E+00 0.  1.
        994    1    1    2    0    0 -0.58850956410E+02 -0.25550007271E+02  0.41897881987E+02  0.18756628284E+03  0.17120000000E+03 0.  0.
        998    1    1    2    0    0  0.14540672870E+02 -0.10137264593E+03  0.10248781280E+04  0.10300305926E+04  0.10000000000E+02 0. -1.
</event>
<event>
 5    1  0.1503263E-008  0.3832999E+03  0.7957747E-01  0.3436915E+00
         13   -1    0    0    0    0  0.00000000000E+00  0.00000000000E+00  0.14999999963E+04  0.15000000000E+04  0.10566000000E+00 0.  1.
        994   -1    0    0    0    0 -0.00000000000E+00 -0.00000000000E+00  0.11368683772E-12  0.17120000000E+03  0.17120000000E+03 0.  0.
         13    1    1    2    0    0  0.22197386644E+02 -0.14471881793E+02  0.14200611459E+03  0.14445728463E+03  0.10566000000E+00 0.  1.
        994    1    1    2    0    0 -0.90933156050E+01  0.13837667581E+02  0.33837501987E+01  0.17203214583E+03  0.17120000000E+03 0.  0.
        998    1    1    2    0    0 -0.13104071039E+02  0.63421421121E+00  0.13546101315E+04  0.13547105695E+04  0.10000000000E+02 0. -1.
</event>
<event>
 5    1  0.1503263E-008  0.3701041E+03  0.7957747E-01  0.3495413E+00
         13   -1    0    0    0    0  0.00000000000E+00  0.00000000000E+00  0.14999999963E+04  0.15000000000E+04  0.10566000000E+00 0. -1.
        994   -1    0    0    0    0 -0.00000000000E+00 -0.00000000000E+00  0.11368683772E-12  0.17120000000E+03  0.17120000000E+03 0.  0.
         13    1    1    2    0    0  0.22041731467E+02 -0.23159934974E+01  0.23435197061E+02  0.32255563508E+02  0.10566000000E+00 0. -1.
        994    1    1    2    0    0 -0.46687794558E+01 -0.10783902954E+02  0.96921226172E+01  0.17187631397E+03  0.17120000000E+03 0.  0.
        998    1    1    2    0    0 -0.17372952011E+02  0.13099896451E+02  0.14668726766E+04  0.14670681225E+04  0.10000000000E+02 0. -1.
</event>
<event>
 5    1  0.1503263E-008  0.3728817E+03  0.7957747E-01  0.3482751E+00
         13   -1    0    0    0    0  0.00000000000E+00  0.00000000000E+00  0.14999999963E+04  0.15000000000E+04  0.10566000000E+00 0.  1.
        994   -1    0    0    0    0 -0.00000000000E+00 -0.00000000000E+00  0.11368683772E-12  0.17120000000E+03  0.17120000000E+03 0.  0.
         13    1    1    2    0    0 -0.92010419644E+02  0.79337104028E+02  0.63216653413E+03  0.64373506307E+03  0.10566000000E+00 0.  1.
        994    1    1    2    0    0  0.84162957409E+02 -0.66908514707E+02  0.48447834333E+02  0.20788647236E+03  0.17120000000E+03 0.  0.
        998    1    1    2    0    0  0.78474622341E+01 -0.12428589322E+02  0.81938562782E+03  0.81957846456E+03  0.10000000000E+02 0.  0.
</event>
<event>
 5    1  0.1503263E-008  0.3837385E+03  0.7957747E-01  0.3435040E+00
         13   -1    0    0    0    0  0.00000000000E+00  0.00000000000E+00  0.14999999963E+04  0.15000000000E+04  0.10566000000E+00 0. -1.
        994   -1    0    0    0    0 -0.00000000000E+00 -0.00000000000E+00  0.11368683772E-12  0.17120000000E+03  0.17120000000E+03 0.  0.
         13    1    1    2    0    0  0.10147601615E+02  0.17437274343E+02  0.93893214390E+02  0.96036343264E+02  0.10566000000E+00 0. -1.
        994    1    1    2    0    0 -0.54976922115E+01 -0.33687945900E+01  0.23950566720E+01  0.17133811512E+03  0.17120000000E+03 0.  0.
        998    1    1    2    0    0 -0.46499094037E+01 -0.14068479753E+02  0.14037117252E+04  0.14038255416E+04  0.10000000000E+02 0. -1.
</event>
<event>
 5    1  0.1503263E-008  0.3849547E+03  0.7957747E-01  0.3429865E+00
         13   -1    0    0    0    0  0.00000000000E+00  0.00000000000E+00  0.14999999963E+04  0.15000000000E+04  0.10566000000E+00 0.  1.
        994   -1    0    0    0    0 -0.00000000000E+00 -0.00000000000E+00  0.11368683772E-12  0.17120000000E+03  0.17120000000E+03 0.  0.
         13    1    1    2    0    0  0.11786192413E+02 -0.14995549913E+00  0.40240399794E+02  0.41931345767E+02  0.10566000000E+00 0.  1.
        994    1    1    2    0    0 -0.16009742521E+02  0.35948449200E+01  0.25387011375E+01  0.17200325511E+03  0.17120000000E+03 0.  0.
        998    1    1    2    0    0  0.42235501089E+01 -0.34448894209E+01  0.14572208953E+04  0.14572653991E+04  0.10000000000E+02 0.  1.
</event>
<event>
 5    1  0.1503263E-008  0.3853921E+03  0.7957747E-01  0.3428011E+00
         13   -1    0    0    0    0  0.00000000000E+00  0.00000000000E+00  0.14999999963E+04  0.15000000000E+04  0.10566000000E+00 0.  1.
        994   -1    0    0    0    0 -0.00000000000E+00 -0.00000000000E+00  0.11368683772E-12  0.17120000000E+03  0.17120000000E+03 0.  0.
         13    1    1    2    0    0  0.14419743353E+00  0.12286917521E+02  0.57671375422E+02  0.58965988859E+02  0.10566000000E+00 0.  1.
        994    1    1    2    0    0 -0.10444540725E+01  0.55839901640E+01  0.15415809901E+01  0.17130116258E+03  0.17120000000E+03 0.  0.
        998    1    1    2    0    0  0.90025663897E+00 -0.17870907685E+02  0.14407870399E+04  0.14409328486E+04  0.10000000000E+02 0.  1.
</event>
<event>
 5    1  0.1503263E-008  0.3041105E+03  0.7957747E-01  0.3867103E+00
         13   -1    0    0    0    0  0.00000000000E+00  0.00000000000E+00  0.14999999963E+04  0.15000000000E+04  0.10566000000E+00 0. -1.
        994   -1    0    0    0    0 -0.00000000000E+00 -0.00000000000E+00  0.11368683772E-12  0.17120000000E+03  0.17120000000E+03 0.  0.
         13    1    1    2    0    0  0.22457407305E+03 -0.74024968510E+02  0.39126687931E+03  0.45716845064E+03  0.10566000000E+00 0. -1.
        994    1    1    2    0    0 -0.26014698414E+03  0.66402332857E+02  0.43421355242E+03  0.53845758632E+03  0.17120000000E+03 0.  0.
        998    1    1    2    0    0  0.35572911092E+02  0.76226356531E+01  0.67451956455E+03  0.67557396304E+03  0.10000000000E+02 0.  1.
</event>
<event>
 5    1  0.1503263E-008  0.3817313E+03  0.7957747E-01  0.3443655E+00
         13   -1    0    0    0    0  0.00000000000E+00  0.00000000000E+00  0.14999999963E+04  0.15000000000E+04  0.10566000000E+00 0.  1.
        994   -1    0    0    0    0 -0.00000000000E+00 -0.00000000000E+00  0.11368683772E-12  0.17120000000E+03  0.17120000000E+03 0.  0.
         13    1    1    2    0    0 -0.39127304568E+02  0.13389905430E+02  0.22949751771E+03  0.23319381923E+03  0.10566000000E+00 0.  1.
        994    1    1    2    0    0  0.35116254414E+02 -0.16631870246E+02  0.82963838171E+01  0.17574993717E+03  0.17120000000E+03 0.  0.
        998    1    1    2    0    0  0.40110501544E+01  0.32419648162E+01  0.12622060948E+04  0.12622562436E+04  0.10000000000E+02 0. -1.
</event>
<event>
 5    1  0.1503263E-008  0.3814099E+03  0.7957747E-01  0.3445042E+00
         13   -1    0    0    0    0  0.00000000000E+00  0.00000000000E+00  0.14999999963E+04  0.15000000000E+04  0.10566000000E+00 0.  1.
        994   -1    0    0    0    0 -0.00000000000E+00 -0.00000000000E+00  0.11368683772E-12  0.17120000000E+03  0.17120000000E+03 0.  0.
         13    1    1    2    0    0 -0.26387805042E+02  0.11369707979E+02  0.12137335587E+03  0.12472806097E+03  0.10566000000E+00 0.  1.
        994    1    1    2    0    0  0.95553147177E+01 -0.15283828438E+02  0.45049604649E+01  0.17220520933E+03  0.17120000000E+03 0.  0.
        998    1    1    2    0    0  0.16832490324E+02  0.39141204593E+01  0.13741216799E+04  0.13742667297E+04  0.10000000000E+02 0.  1.
</event>
<event>
 5    1  0.1503263E-008  0.3849466E+03  0.7957747E-01  0.3429899E+00
         13   -1    0    0    0    0  0.00000000000E+00  0.00000000000E+00  0.14999999963E+04  0.15000000000E+04  0.10566000000E+00 0.  1.
        994   -1    0    0    0    0 -0.00000000000E+00 -0.00000000000E+00  0.11368683772E-12  0.17120000000E+03  0.17120000000E+03 0.  0.
         13    1    1    2    0    0  0.13732030962E+02  0.75592147338E+01  0.72924782893E+02  0.74590519008E+02  0.10566000000E+00 0.  1.
        994    1    1    2    0    0 -0.10999147878E+02 -0.65329259554E+01  0.21951613365E+01  0.17169134838E+03  0.17120000000E+03 0.  0.
        998    1    1    2    0    0 -0.27328830833E+01 -0.10262887784E+01  0.14248800520E+04  0.14249181326E+04  0.10000000000E+02 0.  1.
</event>
<event>
 5    1  0.1503263E-008  0.3806489E+03  0.7957747E-01  0.3448338E+00
         13   -1    0    0    0    0  0.00000000000E+00  0.00000000000E+00  0.14999999963E+04  0.15000000000E+04  0.10566000000E+00 0. -1.
        994   -1    0    0    0    0 -0.00000000000E+00 -0.00000000000E+00  0.11368683772E-12  0.17120000000E+03  0.17120000000E+03 0.  0.
         13    1    1    2    0    0 -0.36353638153E+02  0.15635843009E+02  0.18052491685E+03  0.18481158882E+03  0.10566000000E+00 0. -1.
        994    1    1    2    0    0  0.35819074648E+02 -0.19172531357E+02  0.93316185020E+01  0.17620190456E+03  0.17120000000E+03 0.  0.
        998    1    1    2    0    0  0.53456350469E+00  0.35366883481E+01  0.13101434609E+04  0.13101865066E+04  0.10000000000E+02 0.  0.
</event>
<event>
 5    1  0.1503263E-008  0.3723827E+03  0.7957747E-01  0.3485012E+00
         13   -1    0    0    0    0  0.00000000000E+00  0.00000000000E+00  0.14999999963E+04  0.15000000000E+04  0.10566000000E+00 0.  1.
        994   -1    0    0    0    0 -0.00000000000E+00 -0.00000000000E+00  0.11368683772E-12  0.17120000000E+03  0.17120000000E+03 0.  0.
         13    1    1    2    0    0 -0.46442123594E+02 -0.14171480370E+02  0.17072695151E+03  0.17749761924E+03  0.10566000000E+00 0.  1.
        994    1    1    2    0    0  0.23586662681E+01 -0.19737759894E+02  0.93852748170E+01  0.17260552093E+03  0.17120000000E+03 0.  0.
        998    1    1    2    0    0  0.44083457326E+02  0.33909240264E+02  0.13198877700E+04  0.13210968598E+04  0.10000000000E+02 0.  1.
</event>
<event>
 5    1  0.1503263E-008  0.3722614E+03  0.7957747E-01  0.3485562E+00
         13   -1    0    0    0    0  0.00000000000E+00  0.00000000000E+00  0.14999999963E+04  0.15000000000E+04  0.10566000000E+00 0.  1.
        994   -1    0    0    0    0 -0.00000000000E+00 -0.00000000000E+00  0.11368683772E-12  0.17120000000E+03  0.17120000000E+03 0.  0.
         13    1    1    2    0    0  0.38368692882E+02  0.50098886461E+02  0.22649186794E+03  0.23511833707E+03  0.10566000000E+00 0.  1.
        994    1    1    2    0    0 -0.27997700446E+02 -0.40176288610E+02  0.16364384342E+02  0.17881621423E+03  0.17120000000E+03 0.  0.
        998    1    1    2    0    0 -0.10370992436E+02 -0.99225978508E+01  0.12571437440E+04  0.12572654487E+04  0.10000000000E+02 0.  1.
</event>
<event>
 5    1  0.1503263E-008  0.3762299E+03  0.7957747E-01  0.3467741E+00
         13   -1    0    0    0    0  0.00000000000E+00  0.00000000000E+00  0.14999999963E+04  0.15000000000E+04  0.10566000000E+00 0.  1.
        994   -1    0    0    0    0 -0.00000000000E+00 -0.00000000000E+00  0.11368683772E-12  0.17120000000E+03  0.17120000000E+03 0.  0.
         13    1    1    2    0    0 -0.51224041874E+02 -0.11388760700E+02  0.28102247779E+03  0.28587978334E+03  0.10566000000E+00 0.  1.
        994    1    1    2    0    0  0.27890157766E+01 -0.26970929857E+01  0.60994820901E+01  0.17135255061E+03  0.17120000000E+03 0.  0.
        998    1    1    2    0    0  0.48435026097E+02  0.14085853686E+02  0.12128780364E+04  0.12139676661E+04  0.10000000000E+02 0.  1.
</event>
<event>
 5    1  0.1503263E-008  0.3707355E+03  0.7957747E-01  0.3492517E+00
         13   -1    0    0    0    0  0.00000000000E+00  0.00000000000E+00  0.14999999963E+04  0.15000000000E+04  0.10566000000E+00 0.  1.
        994   -1    0    0    0    0 -0.00000000000E+00 -0.00000000000E+00  0.11368683772E-12  0.17120000000E+03  0.17120000000E+03 0.  0.
         13    1    1    2    0    0 -0.21048330699E+02 -0.17619954179E+02  0.40367879570E+02  0.48816717172E+02  0.10566000000E+00 0.  1.
        994    1    1    2    0    0  0.20364107165E+01  0.48150041711E+01  0.89793992275E+01  0.17151501638E+03  0.17120000000E+03 0.  0.
        998    1    1    2    0    0  0.19011919982E+02  0.12804950008E+02  0.14506527175E+04  0.14508682664E+04  0.10000000000E+02 0.  1.
</event>
<event>
 5    1  0.1503263E-008  0.3732059E+03  0.7957747E-01  0.3481286E+00
         13   -1    0    0    0    0  0.00000000000E+00  0.00000000000E+00  0.14999999963E+04  0.15000000000E+04  0.10566000000E+00 0. -1.
        994   -1    0    0    0    0 -0.00000000000E+00 -0.00000000000E+00  0.11368683772E-12  0.17120000000E+03  0.17120000000E+03 0.  0.
         13    1    1    2    0    0  0.14726691216E+02 -0.43709990038E+02  0.14161237146E+03  0.14893459497E+03  0.10566000000E+00 0. -1.
        994    1    1    2    0    0  0.13177155271E+01  0.22786450389E+02  0.93866013951E+01  0.17296967070E+03  0.17120000000E+03 0.  0.
        998    1    1    2    0    0 -0.16044406743E+02  0.20923539649E+02  0.13490010234E+04  0.13492957343E+04  0.10000000000E+02 0. -1.
</event>
<event>
 5    1  0.1503263E-008  0.3755543E+03  0.7957747E-01  0.3470748E+00
         13   -1    0    0    0    0  0.00000000000E+00  0.00000000000E+00  0.14999999963E+04  0.15000000000E+04  0.10566000000E+00 0. -1.
        994   -1    0    0    0    0 -0.00000000000E+00 -0.00000000000E+00  0.11368683772E-12  0.17120000000E+03  0.17120000000E+03 0.  0.
         13    1    1    2    0    0  0.70607298109E+01 -0.18756908707E+03  0.91539243877E+03  0.93443851828E+03  0.10566000000E+00 0. -1.
        994    1    1    2    0    0 -0.26273152705E+02  0.18520484141E+03  0.13622582006E+03  0.28785070069E+03  0.17120000000E+03 0.  0.
        998    1    1    2    0    0  0.19212422894E+02  0.23642456602E+01  0.44838173745E+03  0.44891078103E+03  0.10000000000E+02 0.  1.
</event>
<event>
 5    1  0.1503263E-008  0.3805840E+03  0.7957747E-01  0.3448619E+00
         13   -1    0    0    0    0  0.00000000000E+00  0.00000000000E+00  0.14999999963E+04  0.15000000000E+04  0.10566000000E+00 0.  1.
        994   -1    0    0    0    0 -0.00000000000E+00 -0.00000000000E+00  0.11368683772E-12  0.17120000000E+03  0.17120000000E+03 0.  0.
         13    1    1    2    0    0 -0.36206176882E+02  0.38862213134E+02  0.28198845506E+03  0.28694713590E+03  0.10566000000E+00 0.  1.
        994    1    1    2    0    0  0.37936960708E+02 -0.46095589536E+02  0.15822768648E+02  0.18199949552E+03  0.17120000000E+03 0.  0.
        998    1    1    2    0    0 -0.17307838256E+01  0.72333764014E+01  0.12021887726E+04  0.12022533686E+04  0.10000000000E+02 0.  1.
</event>
<event>
 5    1  0.1503263E-008  0.3706527E+03  0.7957747E-01  0.3492897E+00
         13   -1    0    0    0    0  0.00000000000E+00  0.00000000000E+00  0.14999999963E+04  0.15000000000E+04  0.10566000000E+00 0.  1.
        994   -1    0    0    0    0 -0.00000000000E+00 -0.00000000000E+00  0.11368683772E-12  0.17120000000E+03  0.17120000000E+03 0.  0.
         13    1    1    2    0    0 -0.10199954421E+03  0.25357750709E+03  0.10963664375E+04  0.11299224910E+04  0.10566000000E+00 0.  1.
        994    1    1    2    0    0  0.98773597596E+02 -0.22935364451E+03  0.27194497048E+03  0.40696784246E+03  0.17120000000E+03 0.  0.
        998    1    1    2    0    0  0.32259466113E+01 -0.24223862583E+02  0.13168858828E+03  0.13430966656E+03  0.10000000000E+02 0.  1.
</event>
<event>
 5    1  0.1503263E-008  0.3836138E+03  0.7957747E-01  0.3435573E+00
         13   -1    0    0    0    0  0.00000000000E+00  0.00000000000E+00  0.14999999963E+04  0.15000000000E+04  0.10566000000E+00 0.  1.
        994   -1    0    0    0    0 -0.00000000000E+00 -0.00000000000E+00  0.11368683772E-12  0.17120000000E+03  0.17120000000E+03 0.  0.
         13    1    1    2    0    0 -0.18931810574E+02  0.15113296259E+02  0.12747084136E+03  0.12975227064E+03  0.10566000000E+00 0.  1.
        994    1    1    2    0    0  0.13264356783E+02 -0.45137702466E+01  0.29687257482E+01  0.17179805184E+03  0.17120000000E+03 0.  0.
        998    1    1    2    0    0  0.56674537917E+01 -0.10599526013E+02  0.13695604292E+04  0.13696496775E+04  0.10000000000E+02 0.  0.
</event>
<event>
 5    1  0.1503263E-008  0.3714701E+03  0.7957747E-01  0.3489162E+00
         13   -1    0    0    0    0  0.00000000000E+00  0.00000000000E+00  0.14999999963E+04  0.15000000000E+04  0.10566000000E+00 0.  1.
        994   -1    0    0    0    0 -0.00000000000E+00 -0.00000000000E+00  0.11368683772E-12  0.17120000000E+03  0.17120000000E+03 0.  0.
         13    1    1    2    0    0  0.51901095953E+02 -0.61178524164E+02  0.22944452401E+03  0.24306652657E+03  0.10566000000E+00 0.  1.
        994    1    1    2    0    0 -0.50641223366E+02  0.62051135897E+02  0.34615885868E+02  0.19215248248E+03  0.17120000000E+03 0.  0.
        998    1    1    2    0    0 -0.12598725870E+01 -0.87261173226E+00  0.12359395864E+04  0.12359809909E+04  0.10000000000E+02 0.  1.
</event>
<event>
 5    1  0.1503263E-008  0.3849341E+03  0.7957747E-01  0.3429952E+00
         13   -1    0    0    0    0  0.00000000000E+00  0.00000000000E+00  0.14999999963E+04  0.15000000000E+04  0.10566000000E+00 0. -1.
        994   -1    0    0    0    0 -0.00000000000E+00 -0.00000000000E+00  0.11368683772E-12  0.17120000000E+03  0.17120000000E+03 0.  0.
         13    1    1    2    0    0  0.32297658894E+00 -0.16996631030E+02  0.84376039851E+02  0.86071580939E+02  0.10566000000E+00 0. -1.
        994    1    1    2    0    0 -0.10302379832E+02  0.15099488566E+02  0.27626976675E+01  0.17219525569E+03  0.17120000000E+03 0.  0.
        998    1    1    2    0    0  0.99794032435E+01  0.18971424635E+01  0.14128612588E+04  0.14129331634E+04  0.10000000000E+02 0. -1.
</event>
<event>
 5    1  0.1503263E-008  0.3818665E+03  0.7957747E-01  0.3443071E+00
         13   -1    0    0    0    0  0.00000000000E+00  0.00000000000E+00  0.14999999963E+04  0.15000000000E+04  0.10566000000E+00 0. -1.
        994   -1    0    0    0    0 -0.00000000000E+00 -0.00000000000E+00  0.11368683772E-12  0.17120000000E+03  0.17120000000E+03 0.  0.
         13    1    1    2    0    0  0.13299752408E+02  0.44885728820E+01  0.28547420202E+02  0.31811901308E+02  0.10566000000E+00 0. -1.
        994    1    1    2    0    0 -0.21986875234E+02 -0.76620229291E+00  0.48036392739E+01  0.17267462089E+03  0.17120000000E+03 0.  0.
        998    1    1    2    0    0  0.86871228252E+01 -0.37223705891E+01  0.14666489368E+04  0.14667134778E+04  0.10000000000E+02 0. -1.
</event>
<event>
 5    1  0.1947996E-008  0.3860452E+03  0.7957747E-01  0.3425251E+00
         13   -1    0    0    0    0  0.00000000000E+00  0.00000000000E+00  0.14999999963E+04  0.15000000000E+04  0.10566000000E+00 0. -1.
        994   -1    0    0    0    0 -0.00000000000E+00 -0.00000000000E+00  0.11368683772E-12  0.17120000000E+03  0.17120000000E+03 0.  0.
         13    1    1    2    0    0  0.10757770523E+02  0.19783250847E+01  0.57167312661E+02  0.58204434519E+02  0.10566000000E+00 0. -1.
        994    1    1    2    0    0  0.34295411450E+00 -0.56419498052E+01  0.12167992062E+01  0.17129760598E+03  0.17120000000E+03 0.  0.
        998    1    1    2    0    0 -0.11100724638E+02  0.36636247205E+01  0.14416158844E+04  0.14416979595E+04  0.10000000000E+02 0. -1.
</event>
<event>
 5    1  0.1503263E-008  0.3797777E+03  0.7957747E-01  0.3452127E+00
         13   -1    0    0    0    0  0.00000000000E+00  0.00000000000E+00  0.14999999963E+04  0.15000000000E+04  0.10566000000E+00 0.  1.
        994   -1    0    0    0    0 -0.00000000000E+00 -0.00000000000E+00  0.11368683772E-12  0.17120000000E+03  0.17120000000E+03 0.  0.
         13    1    1    2    0    0  0.64105111059E+01  0.10477664820E+02  0.16527778159E+02  0.20592589143E+02  0.10566000000E+00 0.  1.
        994    1    1    2    0    0  0.78598176289E+01  0.13248047847E+01  0.44579585093E+01  0.17144341701E+03  0.17120000000E+03 0.  0.
        998    1    1    2    0    0 -0.14270328735E+02 -0.11802469605E+02  0.14790142596E+04  0.14791639939E+04  0.10000000000E+02 0.  1.
</event>
<event>
 5    1  0.1503263E-008  0.3858937E+03  0.7957747E-01  0.3425891E+00
         13   -1    0    0    0    0  0.00000000000E+00  0.00000000000E+00  0.14999999963E+04  0.15000000000E+04  0.10566000000E+00 0. -1.
        994   -1    0    0    0    0 -0.00000000000E+00 -0.00000000000E+00  0.11368683772E-12  0.17120000000E+03  0.17120000000E+03 0.  0.
         13    1    1    2    0    0 -0.10439362999E+02 -0.22022864109E+02  0.14446482924E+03  0.14650626231E+03  0.10566000000E+00 0. -1.
        994    1    1    2    0    0  0.33671327042E+02  0.62378629920E+02  0.17841082392E+02  0.18615207750E+03  0.17120000000E+03 0.  0.
        998    1    1    2    0    0 -0.23231964043E+02 -0.40355765811E+02  0.13376940846E+04  0.13385416602E+04  0.10000000000E+02 0. -1.
</event>
<event>
 5    1  0.1503263E-008  0.3802399E+03  0.7957747E-01  0.3450115E+00
         13   -1    0    0    0    0  0.00000000000E+00  0.00000000000E+00  0.14999999963E+04  0.15000000000E+04  0.10566000000E+00 0.  1.
        994   -1    0    0    0    0 -0.00000000000E+00 -0.00000000000E+00  0.11368683772E-12  0.17120000000E+03  0.17120000000E+03 0.  0.
         13    1    1    2    0    0 -0.28895660372E+01 -0.10590407064E+02  0.13655595831E+02  0.17521209296E+02  0.10566000000E+00 0.  1.
        994    1    1    2    0    0 -0.12020065622E+01 -0.31977119447E+01  0.40511068890E+01  0.17128199453E+03  0.17120000000E+03 0.  0.
        998    1    1    2    0    0  0.40915725995E+01  0.13788119009E+02  0.14822932936E+04  0.14823967962E+04  0.10000000000E+02 0.  1.
</event>
<event>
 5    1  0.1503263E-008  0.3751793E+03  0.7957747E-01  0.3472421E+00
         13   -1    0    0    0    0  0.00000000000E+00  0.00000000000E+00  0.14999999963E+04  0.15000000000E+04  0.10566000000E+00 0. -1.
        994   -1    0    0    0    0 -0.00000000000E+00 -0.00000000000E+00  0.11368683772E-12  0.17120000000E+03  0.17120000000E+03 0.  0.
         13    1    1    2    0    0 -0.60142957634E+02 -0.85826633402E+02  0.52016188504E+03  0.53061453445E+03  0.10566000000E+00 0. -1.
        994    1    1    2    0    0  0.40317074668E+02  0.10360805347E+03  0.49807353402E+02  0.21011974611E+03  0.17120000000E+03 0.  0.
        998    1    1    2    0    0  0.19825882967E+02 -0.17781420064E+02  0.93003075783E+03  0.93046571944E+03  0.10000000000E+02 0. -1.
</event>
<event>
 5    1  0.1503263E-008  0.3825089E+03  0.7957747E-01  0.3440306E+00
         13   -1    0    0    0    0  0.00000000000E+00  0.00000000000E+00  0.14999999963E+04  0.15000000000E+04  0.10566000000E+00 0.  1.
        994   -1    0    0    0    0 -0.00000000000E+00 -0.00000000000E+00  0.11368683772E-12  0.17120000000E+03  0.17120000000E+03 0.  0.
         13    1    1    2    0    0  0.43935980689E+01 -0.13372874548E+02  0.34273645569E+02  0.37051739802E+02  0.10566000000E+00 0.  1.
        994    1    1    2    0    0 -0.10608383440E+02  0.51556947398E-01  0.32452121184E+01  0.17155906231E+03  0.17120000000E+03 0.  0.
        998    1    1    2    0    0  0.62147853706E+01  0.13321317601E+02  0.14624811386E+04  0.14625891979E+04  0.10000000000E+02 0.  1.
</event>
<event>
 5    1  0.1503263E-008  0.3813887E+03  0.7957747E-01  0.3445134E+00
         13   -1    0    0    0    0  0.00000000000E+00  0.00000000000E+00  0.14999999963E+04  0.15000000000E+04  0.10566000000E+00 0.  1.
        994   -1    0    0    0    0 -0.00000000000E+00 -0.00000000000E+00  0.11368683772E-12  0.17120000000E+03  0.17120000000E+03 0.  0.
         13    1    1    2    0    0  0.29135365995E+02  0.32356629013E+02  0.25098147128E+03  0.25473031049E+03  0.10566000000E+00 0.  1.
        994    1    1    2    0    0 -0.27937416272E+02 -0.22056560375E+02  0.76613543619E+01  0.17502893313E+03  0.17120000000E+03 0.  0.
        998    1    1    2    0    0 -0.11979497224E+01 -0.10300068638E+02  0.12413571706E+04  0.12414407564E+04  0.10000000000E+02 0.  1.
</event>
<event>
 5    1  0.1503263E-008  0.3930172E+03  0.7957747E-01  0.3396366E+00
         13   -1    0    0    0    0  0.00000000000E+00  0.00000000000E+00  0.14999999963E+04  0.15000000000E+04  0.10566000000E+00 0. -1.
        994   -1    0    0    0    0 -0.00000000000E+00 -0.00000000000E+00  0.11368683772E-12  0.17120000000E+03  0.17120000000E+03 0.  0.
         13    1    1    2    0    0 -0.39988940257E+01 -0.57833263692E+02  0.75568775669E+02  0.95243522419E+02  0.10566000000E+00 0. -1.
        994    1    1    2    0    0  0.60270940595E+02 -0.34843378802E+02  0.42364137736E+02  0.18960698166E+03  0.17120000000E+03 0.  0.
        998    1    1    2    0    0 -0.56272046569E+02  0.92676642494E+02  0.13820670829E+04  0.13863494959E+04  0.10000000000E+02 0. -1.
</event>
<event>
 5    1  0.1503263E-008  0.3699713E+03  0.7957747E-01  0.3496023E+00
         13   -1    0    0    0    0  0.00000000000E+00  0.00000000000E+00  0.14999999963E+04  0.15000000000E+04  0.10566000000E+00 0.  1.
        994   -1    0    0    0    0 -0.00000000000E+00 -0.00000000000E+00  0.11368683772E-12  0.17120000000E+03  0.17120000000E+03 0.  0.
         13    1    1    2    0    0 -0.19712697899E+02 -0.73198219640E+02  0.37325843371E+03  0.38087850992E+03  0.10566000000E+00 0.  1.
        994    1    1    2    0    0  0.36744715938E+02  0.10642245444E+02  0.14361568483E+02  0.17600888099E+03  0.17120000000E+03 0.  0.
        998    1    1    2    0    0 -0.17032018039E+02  0.62555974196E+02  0.11123799941E+04  0.11143126091E+04  0.10000000000E+02 0.  1.
</event>
<event>
 5    1  0.1503263E-008  0.3844848E+03  0.7957747E-01  0.3431860E+00
         13   -1    0    0    0    0  0.00000000000E+00  0.00000000000E+00  0.14999999963E+04  0.15000000000E+04  0.10566000000E+00 0. -1.
        994   -1    0    0    0    0 -0.00000000000E+00 -0.00000000000E+00  0.11368683772E-12  0.17120000000E+03  0.17120000000E+03 0.  0.
         13    1    1    2    0    0 -0.59957173050E+01  0.99227746915E+01  0.34744617534E+02  0.36627990598E+02  0.10566000000E+00 0. -1.
        994    1    1    2    0    0  0.41925104529E+01 -0.10482099756E+02  0.23060882194E+01  0.17158732355E+03  0.17120000000E+03 0.  0.
        998    1    1    2    0    0  0.18032068522E+01  0.55932506456E+00  0.14629492905E+04  0.14629846859E+04  0.10000000000E+02 0. -1.
</event>
<event>
 5    1  0.1503263E-008  0.4008538E+03  0.7957747E-01  0.3365097E+00
         13   -1    0    0    0    0  0.00000000000E+00  0.00000000000E+00  0.14999999963E+04  0.15000000000E+04  0.10566000000E+00 0.  1.
        994   -1    0    0    0    0 -0.00000000000E+00 -0.00000000000E+00  0.11368683772E-12  0.17120000000E+03  0.17120000000E+03 0.  0.
         13    1    1    2    0    0 -0.60567917836E+02 -0.17350789782E+02  0.50739345166E+02  0.80895085691E+02  0.10566000000E+00 0.  1.
        994    1    1    2    0    0  0.11141444295E+03  0.65062997787E+01  0.79126471874E+02  0.21914823428E+03  0.17120000000E+03 0.  0.
        998    1    1    2    0    0 -0.50846525117E+02  0.10844490004E+02  0.13701341792E+04  0.13711566800E+04  0.10000000000E+02 0.  1.
</event>
<event>
 5    1  0.1503263E-008  0.3792301E+03  0.7957747E-01  0.3454518E+00
         13   -1    0    0    0    0  0.00000000000E+00  0.00000000000E+00  0.14999999963E+04  0.15000000000E+04  0.10566000000E+00 0. -1.
        994   -1    0    0    0    0 -0.00000000000E+00 -0.00000000000E+00  0.11368683772E-12  0.17120000000E+03  0.17120000000E+03 0.  0.
         13    1    1    2    0    0  0.86704511699E+01  0.25030422028E+02  0.72947713668E+02  0.77608497240E+02  0.10566000000E+00 0. -1.
        994    1    1    2    0    0 -0.10335457100E+02 -0.23999698584E+02  0.68140340656E+01  0.17331669933E+03  0.17120000000E+03 0.  0.
        998    1    1    2    0    0  0.16650059305E+01 -0.10307234438E+01  0.14202382485E+04  0.14202748034E+04  0.10000000000E+02 0. -1.
</event>
<event>
 5    1  0.1503263E-008  0.3771766E+03  0.7957747E-01  0.3463545E+00
         13   -1    0    0    0    0  0.00000000000E+00  0.00000000000E+00  0.14999999963E+04  0.15000000000E+04  0.10566000000E+00 0. -1.
        994   -1    0    0    0    0 -0.00000000000E+00 -0.00000000000E+00  0.11368683772E-12  0.17120000000E+03  0.17120000000E+03 0.  0.
         13    1    1    2    0    0 -0.80512800207E+01  0.10564649053E+02  0.13245719703E+02  0.18758869211E+02  0.10566000000E+00 0. -1.
        994    1    1    2    0    0  0.83732015582E+01 -0.11840285394E+02  0.62751635847E+01  0.17192766078E+03  0.17120000000E+03 0.  0.
        998    1    1    2    0    0 -0.32192153752E+00  0.12756363410E+01  0.14804791130E+04  0.14805134700E+04  0.10000000000E+02 0. -1.
</event>
<event>
 5    1  0.1503263E-008  0.3885841E+03  0.7957747E-01  0.3414613E+00
         13   -1    0    0    0    0  0.00000000000E+00  0.00000000000E+00  0.14999999963E+04  0.15000000000E+04  0.10566000000E+00 0.  1.
        994   -1    0    0    0    0 -0.00000000000E+00 -0.00000000000E+00  0.11368683772E-12  0.17120000000E+03  0.17120000000E+03 0.  0.
         13    1    1    2    0    0 -0.18237133216E+02  0.11397235407E+02  0.17515833555E+01  0.21577052883E+02  0.10566000000E+00 0.  1.
        994    1    1    2    0    0  0.58267540043E+01 -0.13863259143E+02  0.21971541870E+02  0.17325798587E+03  0.17120000000E+03 0.  0.
        998    1    1    2    0    0  0.12410379211E+02  0.24660237365E+01  0.14762768711E+04  0.14763649612E+04  0.10000000000E+02 0.  1.
</event>
<event>
 5    1  0.1503263E-008  0.3810485E+03  0.7957747E-01  0.3446606E+00
         13   -1    0    0    0    0  0.00000000000E+00  0.00000000000E+00  0.14999999963E+04  0.15000000000E+04  0.10566000000E+00 0. -1.
        994   -1    0    0    0    0 -0.00000000000E+00 -0.00000000000E+00  0.11368683772E-12  0.17120000000E+03  0.17120000000E+03 0.  0.
         13    1    1    2    0    0 -0.19739593481E+02 -0.15527047022E+02  0.84936536069E+02  0.88571818676E+02  0.10566000000E+00 0. -1.
        994    1    1    2    0    0  0.67906172747E+01  0.21721936910E+02  0.53322141685E+01  0.17278838947E+03  0.17120000000E+03 0.  0.
        998    1    1    2    0    0  0.12948976206E+02 -0.61948898884E+01  0.14097312460E+04  0.14098397919E+04  0.10000000000E+02 0. -1.
</event>
<event>
 5    1  0.1503263E-008  0.3783598E+03  0.7957747E-01  0.3458331E+00
         13   -1    0    0    0    0  0.00000000000E+00  0.00000000000E+00  0.14999999963E+04  0.15000000000E+04  0.10566000000E+00 0.  1.
        994   -1    0    0    0    0 -0.00000000000E+00 -0.00000000000E+00  0.11368683772E-12  0.17120000000E+03  0.17120000000E+03 0.  0.
         13    1    1    2    0    0 -0.14919852737E+02 -0.28067994140E+01  0.23566549940E+02  0.28033436620E+02  0.10566000000E+00 0.  1.
        994    1    1    2    0    0 -0.32556792657E+02  0.71848338705E+01  0.87085841720E+01  0.17463346193E+03  0.17120000000E+03 0.  0.
        998    1    1    2    0    0  0.47476645394E+02 -0.43780344565E+01  0.14677248622E+04  0.14685331015E+04  0.10000000000E+02 0.  1.
</event>
<event>
 5    1  0.1503263E-008  0.3837232E+03  0.7957747E-01  0.3435105E+00
         13   -1    0    0    0    0  0.00000000000E+00  0.00000000000E+00  0.14999999963E+04  0.15000000000E+04  0.10566000000E+00 0. -1.
        994   -1    0    0    0    0 -0.00000000000E+00 -0.00000000000E+00  0.11368683772E-12  0.17120000000E+03  0.17120000000E+03 0.  0.
         13    1    1    2    0    0  0.61000740128E+01  0.15212569153E+02  0.61107400704E+02  0.63267359262E+02  0.10566000000E+00 0. -1.
        994    1    1    2    0    0 -0.77498062009E+01 -0.52331977565E+00  0.24646528323E+01  0.17139383849E+03  0.17120000000E+03 0.  0.
        998    1    1    2    0    0  0.16497321881E+01 -0.14689249378E+02  0.14364279427E+04  0.14365388022E+04  0.10000000000E+02 0. -1.
</event>
<event>
 5    1  0.1503263E-008  0.3765148E+03  0.7957747E-01  0.3466476E+00
         13   -1    0    0    0    0  0.00000000000E+00  0.00000000000E+00  0.14999999963E+04  0.15000000000E+04  0.10566000000E+00 0.  1.
        994   -1    0    0    0    0 -0.00000000000E+00 -0.00000000000E+00  0.11368683772E-12  0.17120000000E+03  0.17120000000E+03 0.  0.
         13    1    1    2    0    0 -0.30267026637E-01 -0.67770299221E+02  0.35875631207E+03  0.36510124210E+03  0.10566000000E+00 0.  1.
        994    1    1    2    0    0 -0.23195086149E+02  0.48203792420E+02  0.15642679885E+02  0.18004374763E+03  0.17120000000E+03 0.  0.
        998    1    1    2    0    0  0.23225353176E+02  0.19566506800E+02  0.11256010043E+04  0.11260550103E+04  0.10000000000E+02 0.  1.
</event>
<event>
 5    1  0.1503263E-008  0.3815984E+03  0.7957747E-01  0.3444228E+00
         13   -1    0    0    0    0  0.00000000000E+00  0.00000000000E+00  0.14999999963E+04  0.15000000000E+04  0.10566000000E+00 0.  1.
        994   -1    0    0    0    0 -0.00000000000E+00 -0.00000000000E+00  0.11368683772E-12  0.17120000000E+03  0.17120000000E+03 0.  0.
         13    1    1    2    0    0  0.12109991162E+02  0.20497748612E+02  0.92527556863E+02  0.95541454496E+02  0.10566000000E+00 0.  1.
        994    1    1    2    0    0 -0.86310277288E+01  0.80159671477E+01  0.37899912762E+01  0.17164659741E+03  0.17120000000E+03 0.  0.
        998    1    1    2    0    0 -0.34789634335E+01 -0.28513715760E+02  0.14036824481E+04  0.14040119481E+04  0.10000000000E+02 0.  1.
</event>
<event>
 5    1  0.1503263E-008  0.3842169E+03  0.7957747E-01  0.3433000E+00
         13   -1    0    0    0    0  0.00000000000E+00  0.00000000000E+00  0.14999999963E+04  0.15000000000E+04  0.10566000000E+00 0. -1.
        994   -1    0    0    0    0 -0.00000000000E+00 -0.00000000000E+00  0.11368683772E-12  0.17120000000E+03  0.17120000000E+03 0.  0.
         13    1    1    2    0    0  0.11838945128E+02  0.20304495411E+01  0.32035396125E+02  0.34213463958E+02  0.10566000000E+00 0. -1.
        994    1    1    2    0    0 -0.27838534817E+02 -0.23854024261E+02  0.64632538033E+01  0.17520049128E+03  0.17120000000E+03 0.  0.
        998    1    1    2    0    0  0.15999589689E+02  0.21823574720E+02  0.14615013464E+04  0.14617860448E+04  0.10000000000E+02 0. -1.
</event>
<event>
 5    1  0.1503263E-008  0.3715168E+03  0.7957747E-01  0.3488949E+00
         13   -1    0    0    0    0  0.00000000000E+00  0.00000000000E+00  0.14999999963E+04  0.15000000000E+04  0.10566000000E+00 0.  1.
        994   -1    0    0    0    0 -0.00000000000E+00 -0.00000000000E+00  0.11368683772E-12  0.17120000000E+03  0.17120000000E+03 0.  0.
         13    1    1    2    0    0 -0.22234885428E+01  0.97524595908E+02  0.33751161349E+03  0.35132618905E+03  0.10566000000E+00 0.  1.
        994    1    1    2    0    0 -0.81553280306E+01 -0.84506266584E+02  0.37527000708E+02  0.19474479261E+03  0.17120000000E+03 0.  0.
        998    1    1    2    0    0  0.10378816573E+02 -0.13018329324E+02  0.11249613821E+04  0.11251290183E+04  0.10000000000E+02 0.  1.
</event>
<event>
 5    1  0.1503263E-008  0.3749967E+03  0.7957747E-01  0.3473238E+00
         13   -1    0    0    0    0  0.00000000000E+00  0.00000000000E+00  0.14999999963E+04  0.15000000000E+04  0.10566000000E+00 0.  1.
        994   -1    0    0    0    0 -0.00000000000E+00 -0.00000000000E+00  0.11368683772E-12  0.17120000000E+03  0.17120000000E+03 0.  0.
         13    1    1    2    0    0  0.74757620692E+02 -0.12247229017E+03  0.74449154184E+03  0.75819247605E+03  0.10566000000E+00 0.  1.
        994    1    1    2    0    0 -0.15525731124E+03  0.98744302863E+02  0.13216093393E+03  0.28395637429E+03  0.17120000000E+03 0.  0.
        998    1    1    2    0    0  0.80499690552E+02  0.23727987303E+02  0.62334752051E+03  0.62905114966E+03  0.10000000000E+02 0. -1.
</event>
<event>
 5    1  0.1503263E-008  0.2919471E+03  0.7957747E-01  0.3955241E+00
         13   -1    0    0    0    0  0.00000000000E+00  0.00000000000E+00  0.14999999963E+04  0.15000000000E+04  0.10566000000E+00 0.  1.
        994   -1    0    0    0    0 -0.00000000000E+00 -0.00000000000E+00  0.11368683772E-12  0.17120000000E+03  0.17120000000E+03 0.  0.
         13    1    1    2    0    0 -0.16016703912E+03 -0.18042948715E+02  0.65770382999E+03  0.67716568694E+03  0.10566000000E+00 0.  1.
        994    1    1    2    0    0  0.12961273224E+03  0.21359459665E+02  0.78606190528E+02  0.22966074995E+03  0.17120000000E+03 0.  0.
        998    1    1    2    0    0  0.30554306881E+02 -0.33165109497E+01  0.76368997576E+03  0.76437356311E+03  0.10000000000E+02 0.  1.
</event>
<event>
 5    1  0.1503263E-008  0.3795361E+03  0.7957747E-01  0.3453181E+00
         13   -1    0    0    0    0  0.00000000000E+00  0.00000000000E+00  0.14999999963E+04  0.15000000000E+04  0.10566000000E+00 0. -1.
        994   -1    0    0    0    0 -0.00000000000E+00 -0.00000000000E+00  0.11368683772E-12  0.17120000000E+03  0.17120000000E+03 0.  0.
         13    1    1    2    0    0  0.20719073862E+02 -0.10833235281E+02  0.62608279614E+02  0.66831480970E+02  0.10566000000E+00 0. -1.
        994    1    1    2    0    0 -0.79228612471E+01  0.30288790671E+01  0.46084186939E+01  0.17147193170E+03  0.17120000000E+03 0.  0.
        998    1    1    2    0    0 -0.12796212615E+02  0.78043562135E+01  0.14327832980E+04  0.14328965873E+04  0.10000000000E+02 0. -1.
</event>
<event>
 5    1  0.1503263E-008  0.3830967E+03  0.7957747E-01  0.3437785E+00
         13   -1    0    0    0    0  0.00000000000E+00  0.00000000000E+00  0.14999999963E+04  0.15000000000E+04  0.10566000000E+00 0. -1.
        994   -1    0    0    0    0 -0.00000000000E+00 -0.00000000000E+00  0.11368683772E-12  0.17120000000E+03  0.17120000000E+03 0.  0.
         13    1    1    2    0    0 -0.11358942815E+02 -0.92170400904E+01  0.40027888320E+02  0.42617161066E+02  0.10566000000E+00 0. -1.
        994    1    1    2    0    0  0.95928595585E+01  0.10179154287E+02  0.32256877116E+01  0.17180070779E+03  0.17120000000E+03 0.  0.
        998    1    1    2    0    0  0.17660832567E+01 -0.96211419694E+00  0.14567464202E+04  0.14567821311E+04  0.10000000000E+02 0. -1.
</event>
<event>
 5    1  0.1503263E-008  0.3780171E+03  0.7957747E-01  0.3459838E+00
         13   -1    0    0    0    0  0.00000000000E+00  0.00000000000E+00  0.14999999963E+04  0.15000000000E+04  0.10566000000E+00 0.  1.
        994   -1    0    0    0    0 -0.00000000000E+00 -0.00000000000E+00  0.11368683772E-12  0.17120000000E+03  0.17120000000E+03 0.  0.
         13    1    1    2    0    0  0.26085194224E+01  0.32997650389E+02  0.97412115172E+02  0.10288236317E+03  0.10566000000E+00 0.  1.
        994    1    1    2    0    0  0.12696785475E+01 -0.36253834055E+02  0.95783956628E+01  0.17526305438E+03  0.17120000000E+03 0.  0.
        998    1    1    2    0    0 -0.38781979699E+01  0.32561836656E+01  0.13930094854E+04  0.13930545825E+04  0.10000000000E+02 0.  1.
</event>
<event>
 5    1  0.1503263E-008  0.3780744E+03  0.7957747E-01  0.3459586E+00
         13   -1    0    0    0    0  0.00000000000E+00  0.00000000000E+00  0.14999999963E+04  0.15000000000E+04  0.10566000000E+00 0.  1.
        994   -1    0    0    0    0 -0.00000000000E+00 -0.00000000000E+00  0.11368683772E-12  0.17120000000E+03  0.17120000000E+03 0.  0.
         13    1    1    2    0    0  0.84136612345E+01  0.71325048627E+01  0.98886266070E+01  0.14814129107E+02  0.10566000000E+00 0.  1.
        994    1    1    2    0    0  0.25950730862E+02 -0.22072350951E+02  0.90230114160E+01  0.17478982763E+03  0.17120000000E+03 0.  0.
        998    1    1    2    0    0 -0.34364392096E+02  0.14939846088E+02  0.14810883583E+04  0.14815960433E+04  0.10000000000E+02 0.  1.
</event>
<event>
 5    1  0.1503263E-008  0.3844849E+03  0.7957747E-01  0.3431860E+00
         13   -1    0    0    0    0  0.00000000000E+00  0.00000000000E+00  0.14999999963E+04  0.15000000000E+04  0.10566000000E+00 0. -1.
        994   -1    0    0    0    0 -0.00000000000E+00 -0.00000000000E+00  0.11368683772E-12  0.17120000000E+03  0.17120000000E+03 0.  0.
         13    1    1    2    0    0 -0.69764070738E+01  0.20898023075E+02  0.11964614562E+03  0.12165775335E+03  0.10566000000E+00 0. -1.
        994    1    1    2    0    0  0.10313563970E+02 -0.20387506107E+02  0.36075947561E+01  0.17275553463E+03  0.17120000000E+03 0.  0.
        998    1    1    2    0    0 -0.33371568958E+01 -0.51051696843E+00  0.13767462559E+04  0.13767867120E+04  0.10000000000E+02 0. -1.
</event>
<event>
 5    1  0.1503263E-008  0.3736349E+03  0.7957747E-01  0.3479351E+00
         13   -1    0    0    0    0  0.00000000000E+00  0.00000000000E+00  0.14999999963E+04  0.15000000000E+04  0.10566000000E+00 0. -1.
        994   -1    0    0    0    0 -0.00000000000E+00 -0.00000000000E+00  0.11368683772E-12  0.17120000000E+03  0.17120000000E+03 0.  0.
         13    1    1    2    0    0  0.72394552976E+02  0.31890188587E+02  0.21513858592E+03  0.22922167817E+03  0.10566000000E+00 0. -1.
        994    1    1    2    0    0 -0.55032892774E+02 -0.47839927905E+02  0.31950349021E+02  0.18880556875E+03  0.17120000000E+03 0.  0.
        998    1    1    2    0    0 -0.17361660201E+02  0.15949739318E+02  0.12529110613E+04  0.12531727531E+04  0.10000000000E+02 0. -1.
</event>
<event>
 5    1  0.1503263E-008  0.3748674E+03  0.7957747E-01  0.3473816E+00
         13   -1    0    0    0    0  0.00000000000E+00  0.00000000000E+00  0.14999999963E+04  0.15000000000E+04  0.10566000000E+00 0. -1.
        994   -1    0    0    0    0 -0.00000000000E+00 -0.00000000000E+00  0.11368683772E-12  0.17120000000E+03  0.17120000000E+03 0.  0.
         13    1    1    2    0    0 -0.16290472903E+02 -0.75860200085E+02  0.34222647957E+03  0.35091184641E+03  0.10566000000E+00 0. -1.
        994    1    1    2    0    0  0.79896697783E+01  0.77557338583E+02  0.27709251837E+02  0.19014788515E+03  0.17120000000E+03 0.  0.
        998    1    1    2    0    0  0.83008031244E+01 -0.16971384977E+01  0.11300642649E+04  0.11301402684E+04  0.10000000000E+02 0. -1.
</event>
<event>
 5    1  0.1503263E-008  0.3841763E+03  0.7957747E-01  0.3433173E+00
         13   -1    0    0    0    0  0.00000000000E+00  0.00000000000E+00  0.14999999963E+04  0.15000000000E+04  0.10566000000E+00 0.  1.
        994   -1    0    0    0    0 -0.00000000000E+00 -0.00000000000E+00  0.11368683772E-12  0.17120000000E+03  0.17120000000E+03 0.  0.
         13    1    1    2    0    0  0.10595899363E+02 -0.15559627129E+02  0.95590599997E+02  0.97426634200E+02  0.10566000000E+00 0.  1.
        994    1    1    2    0    0 -0.50001915359E+01 -0.59557205579E+01  0.22390570122E+01  0.17139114884E+03  0.17120000000E+03 0.  0.
        998    1    1    2    0    0 -0.55957078270E+01  0.21515347687E+02  0.14021703393E+04  0.14023822170E+04  0.10000000000E+02 0.  1.
</event>
<event>
 5    1  0.1503263E-008  0.3830376E+03  0.7957747E-01  0.3438038E+00
         13   -1    0    0    0    0  0.00000000000E+00  0.00000000000E+00  0.14999999963E+04  0.15000000000E+04  0.10566000000E+00 0. -1.
        994   -1    0    0    0    0 -0.00000000000E+00 -0.00000000000E+00  0.11368683772E-12  0.17120000000E+03  0.17120000000E+03 0.  0.
         13    1    1    2    0    0 -0.30690519820E+01 -0.23205970572E+02  0.11182633462E+03  0.11425006096E+03  0.10566000000E+00 0. -1.
        994    1    1    2    0    0 -0.27947408893E+01  0.45759326312E+01  0.27027327718E+01  0.17130526700E+03  0.17120000000E+03 0.  0.
        998    1    1    2    0    0  0.58637928713E+01  0.18630037940E+02  0.13854709289E+04  0.13856446720E+04  0.10000000000E+02 0. -1.
</event>
<event>
 5    1  0.1503263E-008  0.3904209E+03  0.7957747E-01  0.3407002E+00
         13   -1    0    0    0    0  0.00000000000E+00  0.00000000000E+00  0.14999999963E+04  0.15000000000E+04  0.10566000000E+00 0. -1.
        994   -1    0    0    0    0 -0.00000000000E+00 -0.00000000000E+00  0.11368683772E-12  0.17120000000E+03  0.17120000000E+03 0.  0.
         13    1    1    2    0    0  0.17523284071E+02  0.64046816779E+02  0.10155088303E+03  0.12133282010E+03  0.10566000000E+00 0. -1.
        994    1    1    2    0    0  0.10029427945E+01 -0.14696888890E+02  0.22991959178E+02  0.17336399460E+03  0.17120000000E+03 0.  0.
        998    1    1    2    0    0 -0.18526226865E+02 -0.49349927889E+02  0.13754571541E+04  0.13765031853E+04  0.10000000000E+02 0. -1.
</event>
<event>
 5    1  0.1503263E-008  0.3846496E+03  0.7957747E-01  0.3431160E+00
         13   -1    0    0    0    0  0.00000000000E+00  0.00000000000E+00  0.14999999963E+04  0.15000000000E+04  0.10566000000E+00 0. -1.
        994   -1    0    0    0    0 -0.00000000000E+00 -0.00000000000E+00  0.11368683772E-12  0.17120000000E+03  0.17120000000E+03 0.  0.
         13    1    1    2    0    0  0.10642422377E+02 -0.16220896564E+02  0.10786085972E+03  0.10959176458E+03  0.10566000000E+00 0. -1.
        994    1    1    2    0    0 -0.23035347628E+01  0.78312587457E+01  0.20236413654E+01  0.17140644682E+03  0.17120000000E+03 0.  0.
        998    1    1    2    0    0 -0.83388876143E+01  0.83896378185E+01  0.13901154952E+04  0.13902017886E+04  0.10000000000E+02 0. -1.
</event>
<event>
 5    1  0.1503263E-008  0.3810077E+03  0.7957747E-01  0.3446782E+00
         13   -1    0    0    0    0  0.00000000000E+00  0.00000000000E+00  0.14999999963E+04  0.15000000000E+04  0.10566000000E+00 0.  1.
        994   -1    0    0    0    0 -0.00000000000E+00 -0.00000000000E+00  0.11368683772E-12  0.17120000000E+03  0.17120000000E+03 0.  0.
         13    1    1    2    0    0 -0.18298679579E+02 -0.69340174224E+01  0.62336349465E+02  0.65335701578E+02  0.10566000000E+00 0.  1.
        994    1    1    2    0    0 -0.25923390458E+02 -0.16627912364E+02  0.67920280864E+01  0.17408067465E+03  0.17120000000E+03 0.  0.
        998    1    1    2    0    0  0.44222070037E+02  0.23561929786E+02  0.14308716187E+04  0.14317836238E+04  0.10000000000E+02 0.  1.
</event>
<event>
 5    1  0.2963191E-008  0.3863219E+03  0.7957747E-01  0.3424085E+00
         13   -1    0    0    0    0  0.00000000000E+00  0.00000000000E+00  0.14999999963E+04  0.15000000000E+04  0.10566000000E+00 0.  1.
        994   -1    0    0    0    0 -0.00000000000E+00 -0.00000000000E+00  0.11368683772E-12  0.17120000000E+03  0.17120000000E+03 0.  0.
         13    1    1    2    0    0 -0.89568691603E+01 -0.85172780918E+01  0.74593079606E+02  0.75610238860E+02  0.10566000000E+00 0.  1.
        994    1    1    2    0    0  0.10986850661E+02  0.11403587229E+02  0.17968178370E+01  0.17194016763E+03  0.17120000000E+03 0.  0.
        998    1    1    2    0    0 -0.20299815011E+01 -0.28863091372E+01  0.14236100988E+04  0.14236495935E+04  0.10000000000E+02 0.  1.
</event>
<event>
 5    1  0.1503263E-008  0.3847903E+03  0.7957747E-01  0.3430562E+00
         13   -1    0    0    0    0  0.00000000000E+00  0.00000000000E+00  0.14999999963E+04  0.15000000000E+04  0.10566000000E+00 0.  1.
        994   -1    0    0    0    0 -0.00000000000E+00 -0.00000000000E+00  0.11368683772E-12  0.17120000000E+03  0.17120000000E+03 0.  0.
         13    1    1    2    0    0  0.14655373775E+02  0.28849228695E+01  0.63172378645E+02  0.64914276921E+02  0.10566000000E+00 0.  1.
        994    1    1    2    0    0 -0.17706664638E+02  0.21450177317E+02  0.42843626915E+01  0.17349764218E+03  0.17120000000E+03 0.  0.
        998    1    1    2    0    0  0.30512908626E+01 -0.24335100186E+02  0.14325432549E+04  0.14327880809E+04  0.10000000000E+02 0.  1.
</event>
<event>
 5    1  0.1503263E-008  0.3707112E+03  0.7957747E-01  0.3492629E+00
         13   -1    0    0    0    0  0.00000000000E+00  0.00000000000E+00  0.14999999963E+04  0.15000000000E+04  0.10566000000E+00 0.  1.
        994   -1    0    0    0    0 -0.00000000000E+00 -0.00000000000E+00  0.11368683772E-12  0.17120000000E+03  0.17120000000E+03 0.  0.
         13    1    1    2    0    0  0.95021358375E+01 -0.11080083955E+02  0.42597263957E+01  0.15205764661E+02  0.10566000000E+00 0.  1.
        994    1    1    2    0    0 -0.10249993448E+02  0.54897926872E+01  0.11789368621E+02  0.17199892268E+03  0.17120000000E+03 0.  0.
        998    1    1    2    0    0  0.74785761098E+00  0.55902912678E+01  0.14839509013E+04  0.14839953127E+04  0.10000000000E+02 0.  1.
</event>
<event>
 5    1  0.1503263E-008  0.3821208E+03  0.7957747E-01  0.3441976E+00
         13   -1    0    0    0    0  0.00000000000E+00  0.00000000000E+00  0.14999999963E+04  0.15000000000E+04  0.10566000000E+00 0.  1.
        994   -1    0    0    0    0 -0.00000000000E+00 -0.00000000000E+00  0.11368683772E-12  0.17120000000E+03  0.17120000000E+03 0.  0.
         13    1    1    2    0    0  0.98099897477E+01  0.23245415828E+01  0.15697789506E+02  0.18656665078E+02  0.10566000000E+00 0.  1.
        994    1    1    2    0    0  0.73463254104E+00  0.45765405775E+01  0.31377134102E+01  0.17129147572E+03  0.17120000000E+03 0.  0.
        998    1    1    2    0    0 -0.10544622289E+02 -0.69010821603E+01  0.14811644934E+04  0.14812518592E+04  0.10000000000E+02 0.  1.
</event>
<event>
 5    1  0.1503263E-008  0.3836423E+03  0.7957747E-01  0.3435451E+00
         13   -1    0    0    0    0  0.00000000000E+00  0.00000000000E+00  0.14999999963E+04  0.15000000000E+04  0.10566000000E+00 0.  1.
        994   -1    0    0    0    0 -0.00000000000E+00 -0.00000000000E+00  0.11368683772E-12  0.17120000000E+03  0.17120000000E+03 0.  0.
         13    1    1    2    0    0 -0.12272758480E+01 -0.13585737516E+02  0.41012494743E+02  0.43221688525E+02  0.10566000000E+00 0.  1.
        994    1    1    2    0    0  0.42419552049E+01  0.14701542216E+01  0.23723050272E+01  0.17127528534E+03  0.17120000000E+03 0.  0.
        998    1    1    2    0    0 -0.30146793569E+01  0.12115583294E+02  0.14566151965E+04  0.14567030261E+04  0.10000000000E+02 0.  1.
</event>
<event>
 5    1  0.1503263E-008  0.3859642E+03  0.7957747E-01  0.3425593E+00
         13   -1    0    0    0    0  0.00000000000E+00  0.00000000000E+00  0.14999999963E+04  0.15000000000E+04  0.10566000000E+00 0. -1.
        994   -1    0    0    0    0 -0.00000000000E+00 -0.00000000000E+00  0.11368683772E-12  0.17120000000E+03  0.17120000000E+03 0.  0.
         13    1    1    2    0    0  0.60271543370E+01  0.12761978865E+02  0.74099611955E+02  0.75431812585E+02  0.10566000000E+00 0. -1.
        994    1    1    2    0    0 -0.22687831487E+02 -0.23275462879E+02  0.46234396101E+01  0.17431953724E+03  0.17120000000E+03 0.  0.
        998    1    1    2    0    0  0.16660677150E+02  0.10513484014E+02  0.14212769447E+04  0.14214486502E+04  0.10000000000E+02 0. -1.
</event>
<event>
 5    1  0.1561700E-008  0.3858057E+03  0.7957747E-01  0.3426262E+00
         13   -1    0    0    0    0  0.00000000000E+00  0.00000000000E+00  0.14999999963E+04  0.15000000000E+04  0.10566000000E+00 0. -1.
        994   -1    0    0    0    0 -0.00000000000E+00 -0.00000000000E+00  0.11368683772E-12  0.17120000000E+03  0.17120000000E+03 0.  0.
         13    1    1    2    0    0  0.26300945575E+01 -0.13298160837E+02  0.76848370345E+02  0.78034874689E+02  0.10566000000E+00 0. -1.
        994    1    1    2    0    0 -0.82788420328E+00  0.63250748218E+01  0.13641415026E+01  0.17132423310E+03  0.17120000000E+03 0.  0.
        998    1    1    2    0    0 -0.18022103542E+01  0.69730860150E+01  0.14217874844E+04  0.14218408922E+04  0.10000000000E+02 0. -1.
</event>
<event>
 5    1  0.1503263E-008  0.3713067E+03  0.7957747E-01  0.3489907E+00
         13   -1    0    0    0    0  0.00000000000E+00  0.00000000000E+00  0.14999999963E+04  0.15000000000E+04  0.10566000000E+00 0. -1.
        994   -1    0    0    0    0 -0.00000000000E+00 -0.00000000000E+00  0.11368683772E-12  0.17120000000E+03  0.17120000000E+03 0.  0.
         13    1    1    2    0    0 -0.88750074887E+02  0.27482609596E+02  0.28195842208E+03  0.29687107062E+03  0.10566000000E+00 0. -1.
        994    1    1    2    0    0  0.96422742639E+02 -0.29212310322E+02  0.48189096494E+02  0.20440727334E+03  0.17120000000E+03 0.  0.
        998    1    1    2    0    0 -0.76726677519E+01  0.17297007261E+01  0.11698524777E+04  0.11699216560E+04  0.10000000000E+02 0. -1.
</event>
<event>
 5    1  0.1768405E-008  0.3855863E+03  0.7957747E-01  0.3427189E+00
         13   -1    0    0    0    0  0.00000000000E+00  0.00000000000E+00  0.14999999963E+04  0.15000000000E+04  0.10566000000E+00 0.  1.
        994   -1    0    0    0    0 -0.00000000000E+00 -0.00000000000E+00  0.11368683772E-12  0.17120000000E+03  0.17120000000E+03 0.  0.
         13    1    1    2    0    0 -0.10646670671E+02  0.18386546890E+01  0.42659022138E+02  0.44006085730E+02  0.10566000000E+00 0.  1.
        994    1    1    2    0    0  0.11118239699E+02 -0.57187673285E+01  0.18525907116E+01  0.17166593036E+03  0.17120000000E+03 0.  0.
        998    1    1    2    0    0 -0.47156902808E+00  0.38801126395E+01  0.14554883834E+04  0.14555279839E+04  0.10000000000E+02 0.  1.
</event>
<event>
 5    1  0.1503263E-008  0.3719555E+03  0.7957747E-01  0.3486952E+00
         13   -1    0    0    0    0  0.00000000000E+00  0.00000000000E+00  0.14999999963E+04  0.15000000000E+04  0.10566000000E+00 0. -1.
        994   -1    0    0    0    0 -0.00000000000E+00 -0.00000000000E+00  0.11368683772E-12  0.17120000000E+03  0.17120000000E+03 0.  0.
         13    1    1    2    0    0 -0.10142275774E+02  0.33657343956E+02  0.75857104312E+02  0.83606183973E+02  0.10566000000E+00 0. -1.
        994    1    1    2    0    0  0.68741464135E+01 -0.50382194367E+01  0.85000506528E+01  0.17162263372E+03  0.17120000000E+03 0.  0.
        998    1    1    2    0    0  0.32681293601E+01 -0.28619124519E+02  0.14156428413E+04  0.14159711823E+04  0.10000000000E+02 0. -1.
</event>
<event>
 5    1  0.1503263E-008  0.3805709E+03  0.7957747E-01  0.3448677E+00
         13   -1    0    0    0    0  0.00000000000E+00  0.00000000000E+00  0.14999999963E+04  0.15000000000E+04  0.10566000000E+00 0.  1.
        994   -1    0    0    0    0 -0.00000000000E+00 -0.00000000000E+00  0.11368683772E-12  0.17120000000E+03  0.17120000000E+03 0.  0.
         13    1    1    2    0    0 -0.17647242312E+02 -0.13690928703E+02  0.61348154779E+02  0.65287624775E+02  0.10566000000E+00 0.  1.
        994    1    1    2    0    0  0.12261881799E+02  0.20856028262E+02  0.58007073751E+01  0.17299831174E+03  0.17120000000E+03 0.  0.
        998    1    1    2    0    0  0.53853605127E+01 -0.71650995589E+01  0.14328511341E+04  0.14329140635E+04  0.10000000000E+02 0.  1.
</event>
<event>
 5    1  0.1503263E-008  0.3853277E+03  0.7957747E-01  0.3428284E+00
         13   -1    0    0    0    0  0.00000000000E+00  0.00000000000E+00  0.14999999963E+04  0.15000000000E+04  0.10566000000E+00 0. -1.
        994   -1    0    0    0    0 -0.00000000000E+00 -0.00000000000E+00  0.11368683772E-12  0.17120000000E+03  0.17120000000E+03 0.  0.
         13    1    1    2    0    0 -0.50270874968E+01 -0.11709719285E+02  0.57327168338E+02  0.58726523209E+02  0.10566000000E+00 0. -1.
        994    1    1    2    0    0  0.53738780850E+01  0.13185717703E+01  0.15681234170E+01  0.17129657384E+03  0.17120000000E+03 0.  0.
        998    1    1    2    0    0 -0.34679058819E+00  0.10391147515E+02  0.14411047045E+04  0.14411769030E+04  0.10000000000E+02 0. -1.
</event>
<event>
 5    1  0.1503263E-008  0.3773397E+03  0.7957747E-01  0.3462824E+00
         13   -1    0    0    0    0  0.00000000000E+00  0.00000000000E+00  0.14999999963E+04  0.15000000000E+04  0.10566000000E+00 0. -1.
        994   -1    0    0    0    0 -0.00000000000E+00 -0.00000000000E+00  0.11368683772E-12  0.17120000000E+03  0.17120000000E+03 0.  0.
         13    1    1    2    0    0  0.40814879275E+01 -0.13815164727E+02  0.16572436620E+02  0.21958463965E+02  0.10566000000E+00 0. -1.
        994    1    1    2    0    0 -0.21282393148E+01  0.95363993142E+01  0.58041536360E+01  0.17157680646E+03  0.17120000000E+03 0.  0.
        998    1    1    2    0    0 -0.19532486127E+01  0.42787654131E+01  0.14776234060E+04  0.14776647296E+04  0.10000000000E+02 0. -1.
</event>
<event>
 5    1  0.1503263E-008  0.3849771E+03  0.7957747E-01  0.3429769E+00
         13   -1    0    0    0    0  0.00000000000E+00  0.00000000000E+00  0.14999999963E+04  0.15000000000E+04  0.10566000000E+00 0. -1.
        994   -1    0    0    0    0 -0.00000000000E+00 -0.00000000000E+00  0.11368683772E-12  0.17120000000E+03  0.17120000000E+03 0.  0.
         13    1    1    2    0    0  0.84927034128E+01 -0.59447062089E+01  0.33126566785E+02  0.34710893595E+02  0.10566000000E+00 0. -1.
        994    1    1    2    0    0 -0.27269947169E+01  0.14036739020E+01  0.16724670406E+01  0.17123563866E+03  0.17120000000E+03 0.  0.
        998    1    1    2    0    0 -0.57657086959E+01  0.45410323068E+01  0.14652009625E+04  0.14652534677E+04  0.10000000000E+02 0. -1.
</event>
<event>
 5    1  0.1503263E-008  0.3745255E+03  0.7957747E-01  0.3475348E+00
         13   -1    0    0    0    0  0.00000000000E+00  0.00000000000E+00  0.14999999963E+04  0.15000000000E+04  0.10566000000E+00 0.  1.
        994   -1    0    0    0    0 -0.00000000000E+00 -0.00000000000E+00  0.11368683772E-12  0.17120000000E+03  0.17120000000E+03 0.  0.
         13    1    1    2    0    0  0.28502448734E+02  0.60527011116E+02  0.35188475579E+03  0.35818822033E+03  0.10566000000E+00 0.  1.
        994    1    1    2    0    0  0.13946464035E+02 -0.38162401072E+02  0.12564068229E+02  0.17640342549E+03  0.17120000000E+03 0.  0.
        998    1    1    2    0    0 -0.42448912769E+02 -0.22364610044E+02  0.11355511723E+04  0.11366083542E+04  0.10000000000E+02 0.  1.
</event>
<event>
 5    1  0.1503263E-008  0.3835704E+03  0.7957747E-01  0.3435758E+00
         13   -1    0    0    0    0  0.00000000000E+00  0.00000000000E+00  0.14999999963E+04  0.15000000000E+04  0.10566000000E+00 0. -1.
        994   -1    0    0    0    0 -0.00000000000E+00 -0.00000000000E+00  0.11368683772E-12  0.17120000000E+03  0.17120000000E+03 0.  0.
         13    1    1    2    0    0 -0.19480718488E+02  0.10457529657E+02  0.11167366115E+03  0.11384145149E+03  0.10566000000E+00 0. -1.
        994    1    1    2    0    0  0.65114610427E+01  0.46916064176E+01  0.25543947001E+01  0.17140704544E+03  0.17120000000E+03 0.  0.
        998    1    1    2    0    0  0.12969257445E+02 -0.15149136075E+02  0.13857719404E+04  0.13859515031E+04  0.10000000000E+02 0. -1.
</event>
<event>
 5    1  0.1503263E-008  0.3852185E+03  0.7957747E-01  0.3428746E+00
         13   -1    0    0    0    0  0.00000000000E+00  0.00000000000E+00  0.14999999963E+04  0.15000000000E+04  0.10566000000E+00 0. -1.
        994   -1    0    0    0    0 -0.00000000000E+00 -0.00000000000E+00  0.11368683772E-12  0.17120000000E+03  0.17120000000E+03 0.  0.
         13    1    1    2    0    0  0.63121752757E+01  0.15559809253E+02  0.90912156616E+02  0.92449892403E+02  0.10566000000E+00 0. -1.
        994    1    1    2    0    0 -0.34704682686E+01 -0.13243693668E+02  0.21379076122E+01  0.17175986208E+03  0.17120000000E+03 0.  0.
        998    1    1    2    0    0 -0.28417070072E+01 -0.23161155853E+01  0.14069499321E+04  0.14069902455E+04  0.10000000000E+02 0. -1.
</event>
<event>
 5    1  0.1503263E-008  0.3705733E+03  0.7957747E-01  0.3493260E+00
         13   -1    0    0    0    0  0.00000000000E+00  0.00000000000E+00  0.14999999963E+04  0.15000000000E+04  0.10566000000E+00 0.  1.
        994   -1    0    0    0    0 -0.00000000000E+00 -0.00000000000E+00  0.11368683772E-12  0.17120000000E+03  0.17120000000E+03 0.  0.
         13    1    1    2    0    0  0.75787600520E+02 -0.55245525183E+01  0.43242297381E+03  0.43904888170E+03  0.10566000000E+00 0.  1.
        994    1    1    2    0    0 -0.87023386314E+01  0.14808816923E+02  0.99884884065E+01  0.17234918525E+03  0.17120000000E+03 0.  0.
        998    1    1    2    0    0 -0.67085261888E+02 -0.92842644046E+01  0.10575885341E+04  0.10598019331E+04  0.10000000000E+02 0.  1.
</event>
<event>
 5    1  0.1503263E-008  0.3712746E+03  0.7957747E-01  0.3490054E+00
         13   -1    0    0    0    0  0.00000000000E+00  0.00000000000E+00  0.14999999963E+04  0.15000000000E+04  0.10566000000E+00 0.  1.
        994   -1    0    0    0    0 -0.00000000000E+00 -0.00000000000E+00  0.11368683772E-12  0.17120000000E+03  0.17120000000E+03 0.  0.
         13    1    1    2    0    0 -0.32333485549E+01 -0.43135188893E+02  0.11787187522E+03  0.12555830995E+03  0.10566000000E+00 0.  1.
        994    1    1    2    0    0 -0.73467921952E+01 -0.85858563864E+02  0.38168811646E+02  0.19542765036E+03  0.17120000000E+03 0.  0.
        998    1    1    2    0    0  0.10580140750E+02  0.12899375276E+03  0.13439593094E+04  0.13502140397E+04  0.10000000000E+02 0.  1.
</event>
<event>
 5    1  0.1503263E-008  0.3836632E+03  0.7957747E-01  0.3435362E+00
         13   -1    0    0    0    0  0.00000000000E+00  0.00000000000E+00  0.14999999963E+04  0.15000000000E+04  0.10566000000E+00 0.  1.
        994   -1    0    0    0    0 -0.00000000000E+00 -0.00000000000E+00  0.11368683772E-12  0.17120000000E+03  0.17120000000E+03 0.  0.
         13    1    1    2    0    0 -0.61894226831E+01 -0.16681431858E+02  0.68729251565E+02  0.70995072412E+02  0.10566000000E+00 0.  1.
        994    1    1    2    0    0  0.11671710603E+02  0.71342154465E+01  0.29136035837E+01  0.17177035525E+03  0.17120000000E+03 0.  0.
        998    1    1    2    0    0 -0.54822879196E+01  0.95472164118E+01  0.14283571411E+04  0.14284345723E+04  0.10000000000E+02 0.  1.
</event>
<event>
 5    1  0.1503263E-008  0.3829595E+03  0.7957747E-01  0.3438372E+00
         13   -1    0    0    0    0  0.00000000000E+00  0.00000000000E+00  0.14999999963E+04  0.15000000000E+04  0.10566000000E+00 0. -1.
        994   -1    0    0    0    0 -0.00000000000E+00 -0.00000000000E+00  0.11368683772E-12  0.17120000000E+03  0.17120000000E+03 0.  0.
         13    1    1    2    0    0 -0.29181102327E+02 -0.11540937059E+02  0.18477537654E+03  0.18742113248E+03  0.10566000000E+00 0. -1.
        994    1    1    2    0    0  0.15600905463E+02  0.11571612961E+02  0.38966290278E+01  0.17234243295E+03  0.17120000000E+03 0.  0.
        998    1    1    2    0    0  0.13580196863E+02 -0.30675901470E-01  0.13113279907E+04  0.13114364346E+04  0.10000000000E+02 0. -1.
</event>
<event>
 5    1  0.1503263E-008  0.3850507E+03  0.7957747E-01  0.3429457E+00
         13   -1    0    0    0    0  0.00000000000E+00  0.00000000000E+00  0.14999999963E+04  0.15000000000E+04  0.10566000000E+00 0.  1.
        994   -1    0    0    0    0 -0.00000000000E+00 -0.00000000000E+00  0.11368683772E-12  0.17120000000E+03  0.17120000000E+03 0.  0.
         13    1    1    2    0    0 -0.16191591737E+02 -0.53892617543E+00  0.85669819855E+02  0.87188229036E+02  0.10566000000E+00 0.  1.
        994    1    1    2    0    0  0.42565790341E+01  0.21721685814E+01  0.16800825029E+01  0.17127492361E+03  0.17120000000E+03 0.  0.
        998    1    1    2    0    0  0.11935012703E+02 -0.16332424060E+01  0.14126500939E+04  0.14127368474E+04  0.10000000000E+02 0.  1.
</event>
<event>
 5    1  0.1503263E-008  0.3838162E+03  0.7957747E-01  0.3434708E+00
         13   -1    0    0    0    0  0.00000000000E+00  0.00000000000E+00  0.14999999963E+04  0.15000000000E+04  0.10566000000E+00 0. -1.
        994   -1    0    0    0    0 -0.00000000000E+00 -0.00000000000E+00  0.11368683772E-12  0.17120000000E+03  0.17120000000E+03 0.  0.
         13    1    1    2    0    0  0.60050980736E+01  0.97864500414E+01  0.28829377223E+02  0.31031918445E+02  0.10566000000E+00 0. -1.
        994    1    1    2    0    0 -0.10434773673E+02 -0.51738860798E+01  0.26669610386E+01  0.17161645108E+03  0.17120000000E+03 0.  0.
        998    1    1    2    0    0  0.44296755995E+01 -0.46125639616E+01  0.14685036580E+04  0.14685516305E+04  0.10000000000E+02 0. -1.
</event>
<event>
 5    1  0.1503263E-008  0.3828082E+03  0.7957747E-01  0.3439021E+00
         13   -1    0    0    0    0  0.00000000000E+00  0.00000000000E+00  0.14999999963E+04  0.15000000000E+04  0.10566000000E+00 0.  1.
        994   -1    0    0    0    0 -0.00000000000E+00 -0.00000000000E+00  0.11368683772E-12  0.17120000000E+03  0.17120000000E+03 0.  0.
         13    1    1    2    0    0  0.16733784010E+02  0.13501848191E+02  0.81278625779E+02  0.84074643052E+02  0.10566000000E+00 0.  1.
        994    1    1    2    0    0 -0.15714851847E+02 -0.11909147417E+02  0.40110190420E+01  0.17237839956E+03  0.17120000000E+03 0.  0.
        998    1    1    2    0    0 -0.10189321626E+01 -0.15927007738E+01  0.14147103515E+04  0.14147469574E+04  0.10000000000E+02 0.  1.
</event>
<event>
 5    1  0.1503263E-008  0.3852428E+03  0.7957747E-01  0.3428643E+00
         13   -1    0    0    0    0  0.00000000000E+00  0.00000000000E+00  0.14999999963E+04  0.15000000000E+04  0.10566000000E+00 0. -1.
        994   -1    0    0    0    0 -0.00000000000E+00 -0.00000000000E+00  0.11368683772E-12  0.17120000000E+03  0.17120000000E+03 0.  0.
         13    1    1    2    0    0  0.10582606769E+02 -0.12824744850E+02  0.95817673890E+02  0.97249696350E+02  0.10566000000E+00 0. -1.
        994    1    1    2    0    0  0.18450451992E+01  0.86047039216E+01  0.17641933820E+01  0.17143511163E+03  0.17120000000E+03 0.  0.
        998    1    1    2    0    0 -0.12427651968E+02  0.42200409285E+01  0.14024181290E+04  0.14025151920E+04  0.10000000000E+02 0. -1.
</event>
<event>
 5    1  0.1503263E-008  0.3808865E+03  0.7957747E-01  0.3447308E+00
         13   -1    0    0    0    0  0.00000000000E+00  0.00000000000E+00  0.14999999963E+04  0.15000000000E+04  0.10566000000E+00 0. -1.
        994   -1    0    0    0    0 -0.00000000000E+00 -0.00000000000E+00  0.11368683772E-12  0.17120000000E+03  0.17120000000E+03 0.  0.
         13    1    1    2    0    0  0.47425474944E+02 -0.80694040302E+01  0.25015889952E+03  0.25474257031E+03  0.10566000000E+00 0. -1.
        994    1    1    2    0    0 -0.52727740561E+02  0.10129455303E+02  0.13355592363E+02  0.17991840466E+03  0.17120000000E+03 0.  0.
        998    1    1    2    0    0  0.53022656171E+01 -0.20600512724E+01  0.12364855044E+04  0.12365390250E+04  0.10000000000E+02 0. -1.
</event>
<event>
 5    1  0.1503263E-008  0.3851001E+03  0.7957747E-01  0.3429248E+00
         13   -1    0    0    0    0  0.00000000000E+00  0.00000000000E+00  0.14999999963E+04  0.15000000000E+04  0.10566000000E+00 0.  1.
        994   -1    0    0    0    0 -0.00000000000E+00 -0.00000000000E+00  0.11368683772E-12  0.17120000000E+03  0.17120000000E+03 0.  0.
         13    1    1    2    0    0  0.16036143051E+02  0.33068490348E+01  0.85975977597E+02  0.87521271828E+02  0.10566000000E+00 0.  1.
        994    1    1    2    0    0 -0.84771300438E+01 -0.32592285791E+01  0.18516577929E+01  0.17145073036E+03  0.17120000000E+03 0.  0.
        998    1    1    2    0    0 -0.75590130069E+01 -0.47620455649E-01  0.14121723609E+04  0.14122279978E+04  0.10000000000E+02 0.  1.
</event>
<event>
 5    1  0.1503263E-008  0.3850946E+03  0.7957747E-01  0.3429271E+00
         13   -1    0    0    0    0  0.00000000000E+00  0.00000000000E+00  0.14999999963E+04  0.15000000000E+04  0.10566000000E+00 0.  1.
        994   -1    0    0    0    0 -0.00000000000E+00 -0.00000000000E+00  0.11368683772E-12  0.17120000000E+03  0.17120000000E+03 0.  0.
         13    1    1    2    0    0 -0.10717870386E+02 -0.35546862115E+01  0.39318795111E+02  0.40908279757E+02  0.10566000000E+00 0.  1.
        994    1    1    2    0    0  0.11269340479E+02  0.39623142069E+01  0.20524452220E+01  0.17162852473E+03  0.17120000000E+03 0.  0.
        998    1    1    2    0    0 -0.55147009305E+00 -0.40762799541E+00  0.14586287559E+04  0.14586631955E+04  0.10000000000E+02 0.  1.
</event>
<event>
 5    1  0.1503263E-008  0.3687466E+03  0.7957747E-01  0.3501671E+00
         13   -1    0    0    0    0  0.00000000000E+00  0.00000000000E+00  0.14999999963E+04  0.15000000000E+04  0.10566000000E+00 0. -1.
        994   -1    0    0    0    0 -0.00000000000E+00 -0.00000000000E+00  0.11368683772E-12  0.17120000000E+03  0.17120000000E+03 0.  0.
         13    1    1    2    0    0 -0.23986689438E+02  0.10458291713E+02  0.30535184702E+02  0.40213751436E+02  0.10566000000E+00 0. -1.
        994    1    1    2    0    0  0.14179501247E+02 -0.10062614148E+02  0.10976239407E+02  0.17243036940E+03  0.17120000000E+03 0.  0.
        998    1    1    2    0    0  0.98071881915E+01 -0.39567756481E+00  0.14584885722E+04  0.14585558792E+04  0.10000000000E+02 0. -1.
</event>
<event>
 5    1  0.1503263E-008  0.3847052E+03  0.7957747E-01  0.3430924E+00
         13   -1    0    0    0    0  0.00000000000E+00  0.00000000000E+00  0.14999999963E+04  0.15000000000E+04  0.10566000000E+00 0. -1.
        994   -1    0    0    0    0 -0.00000000000E+00 -0.00000000000E+00  0.11368683772E-12  0.17120000000E+03  0.17120000000E+03 0.  0.
         13    1    1    2    0    0 -0.70232759734E+01  0.14057315907E+02  0.66393803378E+02  0.68228167401E+02  0.10566000000E+00 0. -1.
        994    1    1    2    0    0  0.62830026583E+01 -0.16397302025E+02  0.27922520668E+01  0.17212084217E+03  0.17120000000E+03 0.  0.
        998    1    1    2    0    0  0.74027331508E+00  0.23399861182E+01  0.14308139408E+04  0.14308509904E+04  0.10000000000E+02 0. -1.
</event>
<event>
 5    1  0.1503263E-008  0.3842367E+03  0.7957747E-01  0.3432916E+00
         13   -1    0    0    0    0  0.00000000000E+00  0.00000000000E+00  0.14999999963E+04  0.15000000000E+04  0.10566000000E+00 0.  1.
        994   -1    0    0    0    0 -0.00000000000E+00 -0.00000000000E+00  0.11368683772E-12  0.17120000000E+03  0.17120000000E+03 0.  0.
         13    1    1    2    0    0  0.87419202040E+01  0.57570455728E+01  0.27397474893E+02  0.29329124384E+02  0.10566000000E+00 0.  1.
        994    1    1    2    0    0 -0.49533137898E+01  0.61734135515E+01  0.22161219121E+01  0.17139719236E+03  0.17120000000E+03 0.  0.
        998    1    1    2    0    0 -0.37886064143E+01 -0.11930459124E+02  0.14703863995E+04  0.14704736833E+04  0.10000000000E+02 0.  1.
</event>
<event>
 5    1  0.1503263E-008  0.3758794E+03  0.7957747E-01  0.3469299E+00
         13   -1    0    0    0    0  0.00000000000E+00  0.00000000000E+00  0.14999999963E+04  0.15000000000E+04  0.10566000000E+00 0. -1.
        994   -1    0    0    0    0 -0.00000000000E+00 -0.00000000000E+00  0.11368683772E-12  0.17120000000E+03  0.17120000000E+03 0.  0.
         13    1    1    2    0    0  0.16012174905E+02  0.99155626910E+01  0.25453796972E+02  0.31664097540E+02  0.10566000000E+00 0. -1.
        994    1    1    2    0    0 -0.16415631992E+02 -0.10212190868E+02  0.74955742161E+01  0.17245111031E+03  0.17120000000E+03 0.  0.
        998    1    1    2    0    0  0.40345708690E+00  0.29662817749E+00  0.14670506251E+04  0.14670847921E+04  0.10000000000E+02 0. -1.
</event>
<event>
 5    1  0.1503263E-008  0.3848821E+03  0.7957747E-01  0.3430173E+00
         13   -1    0    0    0    0  0.00000000000E+00  0.00000000000E+00  0.14999999963E+04  0.15000000000E+04  0.10566000000E+00 0.  1.
        994   -1    0    0    0    0 -0.00000000000E+00 -0.00000000000E+00  0.11368683772E-12  0.17120000000E+03  0.17120000000E+03 0.  0.
         13    1    1    2    0    0 -0.13511331530E+02  0.15862536934E+02  0.12521165814E+03  0.12693363091E+03  0.10566000000E+00 0.  1.
        994    1    1    2    0    0  0.11478524788E+02 -0.11266617325E+02  0.25402383900E+01  0.17197263157E+03  0.17120000000E+03 0.  0.
        998    1    1    2    0    0  0.20328067422E+01 -0.45959196092E+01  0.13722480997E+04  0.13722937375E+04  0.10000000000E+02 0.  1.
</event>
<event>
 5    1  0.1503263E-008  0.3800170E+03  0.7957747E-01  0.3451085E+00
         13   -1    0    0    0    0  0.00000000000E+00  0.00000000000E+00  0.14999999963E+04  0.15000000000E+04  0.10566000000E+00 0.  1.
        994   -1    0    0    0    0 -0.00000000000E+00 -0.00000000000E+00  0.11368683772E-12  0.17120000000E+03  0.17120000000E+03 0.  0.
         13    1    1    2    0    0 -0.39870506048E+01  0.23738679471E+02  0.60420477628E+02  0.65038963371E+02  0.10566000000E+00 0.  1.
        994    1    1    2    0    0  0.20303166162E+02 -0.44455292433E+02  0.12150313315E+02  0.17845324793E+03  0.17120000000E+03 0.  0.
        998    1    1    2    0    0 -0.16316115557E+02  0.20716612963E+02  0.14274292053E+04  0.14277077887E+04  0.10000000000E+02 0.  1.
</event>
<event>
 5    1  0.1503263E-008  0.3850229E+03  0.7957747E-01  0.3429575E+00
         13   -1    0    0    0    0  0.00000000000E+00  0.00000000000E+00  0.14999999963E+04  0.15000000000E+04  0.10566000000E+00 0.  1.
        994   -1    0    0    0    0 -0.00000000000E+00 -0.00000000000E+00  0.11368683772E-12  0.17120000000E+03  0.17120000000E+03 0.  0.
         13    1    1    2    0    0 -0.66659401874E+01 -0.12090687070E+02  0.56868751156E+02  0.58520812490E+02  0.10566000000E+00 0.  1.
        994    1    1    2    0    0  0.33421500341E+01  0.15346574521E+02  0.24304095624E+01  0.17193613409E+03  0.17120000000E+03 0.  0.
        998    1    1    2    0    0  0.33237901533E+01 -0.32558874503E+01  0.14407008356E+04  0.14407430534E+04  0.10000000000E+02 0.  1.
</event>
<event>
 5    1  0.1503263E-008  0.3834257E+03  0.7957747E-01  0.3436376E+00
         13   -1    0    0    0    0  0.00000000000E+00  0.00000000000E+00  0.14999999963E+04  0.15000000000E+04  0.10566000000E+00 0. -1.
        994   -1    0    0    0    0 -0.00000000000E+00 -0.00000000000E+00  0.11368683772E-12  0.17120000000E+03  0.17120000000E+03 0.  0.
         13    1    1    2    0    0 -0.13404021080E+02 -0.83280591576E+01  0.52083528573E+02  0.54421773796E+02  0.10566000000E+00 0. -1.
        994    1    1    2    0    0  0.10851707515E+02 -0.64618789329E+01  0.29412217589E+01  0.17169043718E+03  0.17120000000E+03 0.  0.
        998    1    1    2    0    0  0.25523135645E+01  0.14789938090E+02  0.14449752459E+04  0.14450877890E+04  0.10000000000E+02 0. -1.
</event>
<event>
 5    1  0.1503263E-008  0.3745252E+03  0.7957747E-01  0.3475349E+00
         13   -1    0    0    0    0  0.00000000000E+00  0.00000000000E+00  0.14999999963E+04  0.15000000000E+04  0.10566000000E+00 0. -1.
        994   -1    0    0    0    0 -0.00000000000E+00 -0.00000000000E+00  0.11368683772E-12  0.17120000000E+03  0.17120000000E+03 0.  0.
         13    1    1    2    0    0  0.41672719472E+02 -0.17716307451E+02  0.18823946207E+03  0.19360937308E+03  0.10566000000E+00 0. -1.
        994    1    1    2    0    0  0.19734910636E+02  0.41229116517E+01  0.83078197768E+01  0.17258309583E+03  0.17120000000E+03 0.  0.
        998    1    1    2    0    0 -0.61407630108E+02  0.13593395799E+02  0.13034527144E+04  0.13050075311E+04  0.10000000000E+02 0. -1.
</event>
<event>
 5    1  0.1503263E-008  0.3833263E+03  0.7957747E-01  0.3436802E+00
         13   -1    0    0    0    0  0.00000000000E+00  0.00000000000E+00  0.14999999963E+04  0.15000000000E+04  0.10566000000E+00 0.  1.
        994   -1    0    0    0    0 -0.00000000000E+00 -0.00000000000E+00  0.11368683772E-12  0.17120000000E+03  0.17120000000E+03 0.  0.
         13    1    1    2    0    0  0.85587138203E+02  0.54191884058E+02  0.22926803833E+03  0.25065067941E+03  0.10566000000E+00 0.  1.
        994    1    1    2    0    0 -0.90686110130E+02 -0.52036347146E+02  0.59467472216E+02  0.20923090653E+03  0.17120000000E+03 0.  0.
        998    1    1    2    0    0  0.50989719271E+01 -0.21555369122E+01  0.12112644857E+04  0.12113184141E+04  0.10000000000E+02 0.  1.
</event>
<event>
 5    1  0.1503263E-008  0.3795248E+03  0.7957747E-01  0.3453230E+00
         13   -1    0    0    0    0  0.00000000000E+00  0.00000000000E+00  0.14999999963E+04  0.15000000000E+04  0.10566000000E+00 0. -1.
        994   -1    0    0    0    0 -0.00000000000E+00 -0.00000000000E+00  0.11368683772E-12  0.17120000000E+03  0.17120000000E+03 0.  0.
         13    1    1    2    0    0  0.20836794445E+02  0.22263237691E+02  0.10308189857E+03  0.10749750105E+03  0.10566000000E+00 0. -1.
        994    1    1    2    0    0 -0.17901884302E+02 -0.13004789525E+02  0.60141801869E+01  0.17272872481E+03  0.17120000000E+03 0.  0.
        998    1    1    2    0    0 -0.29349101427E+01 -0.92584481652E+01  0.13909039175E+04  0.13909737741E+04  0.10000000000E+02 0. -1.
</event>
<event>
 5    1  0.1503263E-008  0.3848219E+03  0.7957747E-01  0.3430428E+00
         13   -1    0    0    0    0  0.00000000000E+00  0.00000000000E+00  0.14999999963E+04  0.15000000000E+04  0.10566000000E+00 0. -1.
        994   -1    0    0    0    0 -0.00000000000E+00 -0.00000000000E+00  0.11368683772E-12  0.17120000000E+03  0.17120000000E+03 0.  0.
         13    1    1    2    0    0  0.10664968346E+02  0.34730919331E+01  0.34092027084E+02  0.35889850823E+02  0.10566000000E+00 0. -1.
        994    1    1    2    0    0 -0.20570383953E+02 -0.72201634639E+01  0.32840652628E+01  0.17261372060E+03  0.17120000000E+03 0.  0.
        998    1    1    2    0    0  0.99054156075E+01  0.37470715308E+01  0.14626239039E+04  0.14626964286E+04  0.10000000000E+02 0. -1.
</event>
<event>
 5    1  0.1503263E-008  0.3741343E+03  0.7957747E-01  0.3477104E+00
         13   -1    0    0    0    0  0.00000000000E+00  0.00000000000E+00  0.14999999963E+04  0.15000000000E+04  0.10566000000E+00 0. -1.
        994   -1    0    0    0    0 -0.00000000000E+00 -0.00000000000E+00  0.11368683772E-12  0.17120000000E+03  0.17120000000E+03 0.  0.
         13    1    1    2    0    0  0.10293530908E+02  0.59126567257E+00  0.41098997744E+01  0.11099946569E+02  0.10566000000E+00 0. -1.
        994    1    1    2    0    0 -0.11935651218E+02  0.25553959388E+01  0.76320567592E+01  0.17180418536E+03  0.17120000000E+03 0.  0.
        998    1    1    2    0    0  0.16421203104E+01 -0.31466616114E+01  0.14882580397E+04  0.14882958681E+04  0.10000000000E+02 0. -1.
</event>
<event>
 5    1  0.1503263E-008  0.3851987E+03  0.7957747E-01  0.3428830E+00
         13   -1    0    0    0    0  0.00000000000E+00  0.00000000000E+00  0.14999999963E+04  0.15000000000E+04  0.10566000000E+00 0. -1.
        994   -1    0    0    0    0 -0.00000000000E+00 -0.00000000000E+00  0.11368683772E-12  0.17120000000E+03  0.17120000000E+03 0.  0.
         13    1    1    2    0    0  0.56507046291E+01  0.17240091499E+02  0.10413062797E+03  0.10569933805E+03  0.10566000000E+00 0. -1.
        994    1    1    2    0    0  0.42089338315E+01 -0.17990288560E+02  0.26542305625E+01  0.17221454801E+03  0.17120000000E+03 0.  0.
        998    1    1    2    0    0 -0.98596384605E+01  0.75019706102E+00  0.13932151377E+04  0.13932861139E+04  0.10000000000E+02 0. -1.
</event>
<event>
 5    1  0.1713402E-008  0.3855034E+03  0.7957747E-01  0.3427540E+00
         13   -1    0    0    0    0  0.00000000000E+00  0.00000000000E+00  0.14999999963E+04  0.15000000000E+04  0.10566000000E+00 0. -1.
        994   -1    0    0    0    0 -0.00000000000E+00 -0.00000000000E+00  0.11368683772E-12  0.17120000000E+03  0.17120000000E+03 0.  0.
         13    1    1    2    0    0 -0.15080695312E+01  0.11729144731E+02  0.49701215587E+02  0.51088835421E+02  0.10566000000E+00 0. -1.
        994    1    1    2    0    0  0.34832907294E+01 -0.11509558057E+02  0.18553301471E+01  0.17163183123E+03  0.17120000000E+03 0.  0.
        998    1    1    2    0    0 -0.19752211982E+01 -0.21958667376E+00  0.14484434505E+04  0.14484793333E+04  0.10000000000E+02 0. -1.
</event>
<event>
 5    1  0.1503263E-008  0.3836586E+03  0.7957747E-01  0.3435381E+00
         13   -1    0    0    0    0  0.00000000000E+00  0.00000000000E+00  0.14999999963E+04  0.15000000000E+04  0.10566000000E+00 0.  1.
        994   -1    0    0    0    0 -0.00000000000E+00 -0.00000000000E+00  0.11368683772E-12  0.17120000000E+03  0.17120000000E+03 0.  0.
         13    1    1    2    0    0 -0.15067355725E+02  0.18401181044E+02  0.12071948367E+03  0.12303996738E+03  0.10566000000E+00 0.  1.
        994    1    1    2    0    0  0.14929437027E+02 -0.93013770516E+01  0.33201978518E+01  0.17213328388E+03  0.17120000000E+03 0.  0.
        998    1    1    2    0    0  0.13791869735E+00 -0.90998039929E+01  0.13759603148E+04  0.13760267487E+04  0.10000000000E+02 0.  1.
</event>
<event>
 5    1  0.1545155E-008  0.3862110E+03  0.7957747E-01  0.3424553E+00
         13   -1    0    0    0    0  0.00000000000E+00  0.00000000000E+00  0.14999999963E+04  0.15000000000E+04  0.10566000000E+00 0. -1.
        994   -1    0    0    0    0 -0.00000000000E+00 -0.00000000000E+00  0.11368683772E-12  0.17120000000E+03  0.17120000000E+03 0.  0.
         13    1    1    2    0    0 -0.11839375816E+02  0.28149359288E+01  0.73006769324E+02  0.74014148750E+02  0.10566000000E+00 0. -1.
        994    1    1    2    0    0  0.12635169058E+02  0.15867227734E+02  0.23789766920E+01  0.17241379279E+03  0.17120000000E+03 0.  0.
        998    1    1    2    0    0 -0.79579324143E+00 -0.18682163663E+02  0.14246142503E+04  0.14247720585E+04  0.10000000000E+02 0. -1.
</event>
<event>
 5    1  0.1503263E-008  0.3827890E+03  0.7957747E-01  0.3439104E+00
         13   -1    0    0    0    0  0.00000000000E+00  0.00000000000E+00  0.14999999963E+04  0.15000000000E+04  0.10566000000E+00 0.  1.
        994   -1    0    0    0    0 -0.00000000000E+00 -0.00000000000E+00  0.11368683772E-12  0.17120000000E+03  0.17120000000E+03 0.  0.
         13    1    1    2    0    0  0.15799740533E+02 -0.30826869407E+02  0.18632236966E+03  0.18951507665E+03  0.10566000000E+00 0.  1.
        994    1    1    2    0    0 -0.26916463167E+02  0.30728122091E+02  0.82790692218E+01  0.17620072776E+03  0.17120000000E+03 0.  0.
        998    1    1    2    0    0  0.11116722634E+02  0.98747315397E-01  0.13053985574E+04  0.13054841956E+04  0.10000000000E+02 0.  1.
</event>
<event>
 5    1  0.1503263E-008  0.3777854E+03  0.7957747E-01  0.3460858E+00
         13   -1    0    0    0    0  0.00000000000E+00  0.00000000000E+00  0.14999999963E+04  0.15000000000E+04  0.10566000000E+00 0. -1.
        994   -1    0    0    0    0 -0.00000000000E+00 -0.00000000000E+00  0.11368683772E-12  0.17120000000E+03  0.17120000000E+03 0.  0.
         13    1    1    2    0    0 -0.31515024703E+02  0.15182439816E+02  0.10622910004E+03  0.11184067293E+03  0.10566000000E+00 0. -1.
        994    1    1    2    0    0  0.32461396626E+02 -0.17957014701E+02  0.99037039276E+01  0.17545289966E+03  0.17120000000E+03 0.  0.
        998    1    1    2    0    0 -0.94637192274E+00  0.27745748857E+01  0.13838671923E+04  0.13839064274E+04  0.10000000000E+02 0.  0.
</event>
<event>
 5    1  0.1503263E-008  0.3840541E+03  0.7957747E-01  0.3433694E+00
         13   -1    0    0    0    0  0.00000000000E+00  0.00000000000E+00  0.14999999963E+04  0.15000000000E+04  0.10566000000E+00 0.  1.
        994   -1    0    0    0    0 -0.00000000000E+00 -0.00000000000E+00  0.11368683772E-12  0.17120000000E+03  0.17120000000E+03 0.  0.
         13    1    1    2    0    0  0.13842400053E+02 -0.10491488591E+02  0.69784001545E+02  0.71913151841E+02  0.10566000000E+00 0.  1.
        994    1    1    2    0    0 -0.67692394057E+01  0.16387778467E+02  0.31382212481E+01  0.17214432990E+03  0.17120000000E+03 0.  0.
        998    1    1    2    0    0 -0.70731606472E+01 -0.58962898760E+01  0.14270777735E+04  0.14271425183E+04  0.10000000000E+02 0.  1.
</event>
<event>
 5    1  0.1503263E-008  0.3806125E+03  0.7957747E-01  0.3448496E+00
         13   -1    0    0    0    0  0.00000000000E+00  0.00000000000E+00  0.14999999963E+04  0.15000000000E+04  0.10566000000E+00 0. -1.
        994   -1    0    0    0    0 -0.00000000000E+00 -0.00000000000E+00  0.11368683772E-12  0.17120000000E+03  0.17120000000E+03 0.  0.
         13    1    1    2    0    0 -0.30868377704E+02 -0.26370112594E+01  0.11661165347E+03  0.12065694949E+03  0.10566000000E+00 0. -1.
        994    1    1    2    0    0  0.30138045568E+02 -0.41482842048E+01  0.69181022480E+01  0.17401956841E+03  0.17120000000E+03 0.  0.
        998    1    1    2    0    0  0.73033213524E+00  0.67852954643E+01  0.13764702406E+04  0.13765234821E+04  0.10000000000E+02 0. -1.
</event>
<event>
 5    1  0.1503263E-008  0.3806463E+03  0.7957747E-01  0.3448349E+00
         13   -1    0    0    0    0  0.00000000000E+00  0.00000000000E+00  0.14999999963E+04  0.15000000000E+04  0.10566000000E+00 0.  1.
        994   -1    0    0    0    0 -0.00000000000E+00 -0.00000000000E+00  0.11368683772E-12  0.17120000000E+03  0.17120000000E+03 0.  0.
         13    1    1    2    0    0 -0.10452240088E+03  0.59526570828E+01  0.35038515451E+03  0.36569130982E+03  0.10566000000E+00 0.  1.
        994    1    1    2    0    0  0.48302979052E+02 -0.52357491872E+01  0.25306594118E+02  0.17975109057E+03  0.17120000000E+03 0.  0.
        998    1    1    2    0    0  0.56219421829E+02 -0.71690789560E+00  0.11243082477E+04  0.11257575996E+04  0.10000000000E+02 0.  1.
</event>
<event>
 5    1  0.1503263E-008  0.3805268E+03  0.7957747E-01  0.3448868E+00
         13   -1    0    0    0    0  0.00000000000E+00  0.00000000000E+00  0.14999999963E+04  0.15000000000E+04  0.10566000000E+00 0.  1.
        994   -1    0    0    0    0 -0.00000000000E+00 -0.00000000000E+00  0.11368683772E-12  0.17120000000E+03  0.17120000000E+03 0.  0.
         13    1    1    2    0    0 -0.11219450790E+02  0.16227866809E+02  0.53724825279E+02  0.57232750698E+02  0.10566000000E+00 0.  1.
        994    1    1    2    0    0 -0.13213125016E+02  0.37777730036E+01  0.44979398857E+01  0.17180957396E+03  0.17120000000E+03 0.  0.
        998    1    1    2    0    0  0.24432575806E+02 -0.20005639812E+02  0.14417772311E+04  0.14421576753E+04  0.10000000000E+02 0.  1.
</event>
<event>
 5    1  0.1503263E-008  0.3760638E+03  0.7957747E-01  0.3468479E+00
         13   -1    0    0    0    0  0.00000000000E+00  0.00000000000E+00  0.14999999963E+04  0.15000000000E+04  0.10566000000E+00 0.  1.
        994   -1    0    0    0    0 -0.00000000000E+00 -0.00000000000E+00  0.11368683772E-12  0.17120000000E+03  0.17120000000E+03 0.  0.
         13    1    1    2    0    0 -0.57330138679E+02  0.16172766487E+02  0.24540019695E+03  0.25252637685E+03  0.10566000000E+00 0.  1.
        994    1    1    2    0    0  0.56216235830E+02 -0.11617104209E+02  0.17377335004E+02  0.18140185791E+03  0.17120000000E+03 0.  0.
        998    1    1    2    0    0  0.11139028498E+01 -0.45556622784E+01  0.12372224643E+04  0.12372717652E+04  0.10000000000E+02 0.  1.
</event>
<event>
 5    1  0.1503263E-008  0.3828388E+03  0.7957747E-01  0.3438890E+00
         13   -1    0    0    0    0  0.00000000000E+00  0.00000000000E+00  0.14999999963E+04  0.15000000000E+04  0.10566000000E+00 0. -1.
        994   -1    0    0    0    0 -0.00000000000E+00 -0.00000000000E+00  0.11368683772E-12  0.17120000000E+03  0.17120000000E+03 0.  0.
         13    1    1    2    0    0 -0.93509485652E+01 -0.15833395417E+02  0.60436843355E+02  0.63172461154E+02  0.10566000000E+00 0. -1.
        994    1    1    2    0    0  0.24204410762E+02  0.45565428494E+01  0.47185839453E+01  0.17302693610E+03  0.17120000000E+03 0.  0.
        998    1    1    2    0    0 -0.14853462197E+02  0.11276852568E+02  0.14348445690E+04  0.14350006027E+04  0.10000000000E+02 0. -1.
</event>
<event>
 5    1  0.1503263E-008  0.3847637E+03  0.7957747E-01  0.3430675E+00
         13   -1    0    0    0    0  0.00000000000E+00  0.00000000000E+00  0.14999999963E+04  0.15000000000E+04  0.10566000000E+00 0.  1.
        994   -1    0    0    0    0 -0.00000000000E+00 -0.00000000000E+00  0.11368683772E-12  0.17120000000E+03  0.17120000000E+03 0.  0.
         13    1    1    2    0    0 -0.11032445235E+02 -0.85725732491E+01  0.58171564363E+02  0.59825963632E+02  0.10566000000E+00 0.  1.
        994    1    1    2    0    0 -0.24565874032E+01  0.63129476524E+01  0.18985558347E+01  0.17134448530E+03  0.17120000000E+03 0.  0.
        998    1    1    2    0    0  0.13489032638E+02  0.22596255967E+01  0.14399298761E+04  0.14400295511E+04  0.10000000000E+02 0.  1.
</event>
<event>
 5    1  0.1503263E-008  0.3769660E+03  0.7957747E-01  0.3464477E+00
         13   -1    0    0    0    0  0.00000000000E+00  0.00000000000E+00  0.14999999963E+04  0.15000000000E+04  0.10566000000E+00 0.  1.
        994   -1    0    0    0    0 -0.00000000000E+00 -0.00000000000E+00  0.11368683772E-12  0.17120000000E+03  0.17120000000E+03 0.  0.
         13    1    1    2    0    0 -0.30541753324E+02 -0.46491454929E+02  0.26350212433E+03  0.26930955194E+03  0.10566000000E+00 0.  1.
        994    1    1    2    0    0  0.12060390972E+02  0.34618577211E+02  0.10224143090E+02  0.17537922346E+03  0.17120000000E+03 0.  0.
        998    1    1    2    0    0  0.18481362352E+02  0.11872877718E+02  0.12262737289E+04  0.12265112246E+04  0.10000000000E+02 0.  1.
</event>
<event>
 5    1  0.1684458E-008  0.3857070E+03  0.7957747E-01  0.3426679E+00
         13   -1    0    0    0    0  0.00000000000E+00  0.00000000000E+00  0.14999999963E+04  0.15000000000E+04  0.10566000000E+00 0. -1.
        994   -1    0    0    0    0 -0.00000000000E+00 -0.00000000000E+00  0.11368683772E-12  0.17120000000E+03  0.17120000000E+03 0.  0.
         13    1    1    2    0    0  0.14882054955E+02 -0.30584727641E+01  0.86196512122E+02  0.87525308805E+02  0.10566000000E+00 0. -1.
        994    1    1    2    0    0 -0.16847043812E+02 -0.59240841450E+00  0.22124740813E+01  0.17204217179E+03  0.17120000000E+03 0.  0.
        998    1    1    2    0    0  0.19649888567E+01  0.36508811786E+01  0.14115910101E+04  0.14116325194E+04  0.10000000000E+02 0. -1.
</event>
<event>
 5    1  0.1503263E-008  0.3801246E+03  0.7957747E-01  0.3450616E+00
         13   -1    0    0    0    0  0.00000000000E+00  0.00000000000E+00  0.14999999963E+04  0.15000000000E+04  0.10566000000E+00 0.  1.
        994   -1    0    0    0    0 -0.00000000000E+00 -0.00000000000E+00  0.11368683772E-12  0.17120000000E+03  0.17120000000E+03 0.  0.
         13    1    1    2    0    0  0.38161621327E+02  0.29673407914E+01  0.16954655265E+03  0.17381357581E+03  0.10566000000E+00 0.  1.
        994    1    1    2    0    0 -0.33819847216E+02  0.30191939361E+02  0.10969027952E+02  0.17744039800E+03  0.17120000000E+03 0.  0.
        998    1    1    2    0    0 -0.43417741107E+01 -0.33159280153E+02  0.13194844157E+04  0.13199460262E+04  0.10000000000E+02 0.  1.
</event>
<event>
 5    1  0.1503263E-008  0.3852074E+03  0.7957747E-01  0.3428793E+00
         13   -1    0    0    0    0  0.00000000000E+00  0.00000000000E+00  0.14999999963E+04  0.15000000000E+04  0.10566000000E+00 0.  1.
        994   -1    0    0    0    0 -0.00000000000E+00 -0.00000000000E+00  0.11368683772E-12  0.17120000000E+03  0.17120000000E+03 0.  0.
         13    1    1    2    0    0  0.11933362371E+02 -0.19543627925E+01  0.52300443123E+02  0.53680277443E+02  0.10566000000E+00 0.  1.
        994    1    1    2    0    0  0.38324151083E+01 -0.15793760437E+02  0.23957333188E+01  0.17198636519E+03  0.17120000000E+03 0.  0.
        998    1    1    2    0    0 -0.15765777479E+02  0.17748123229E+02  0.14453038198E+04  0.14455333574E+04  0.10000000000E+02 0.  1.
</event>
<event>
 5    1  0.1503263E-008  0.3771263E+03  0.7957747E-01  0.3463767E+00
         13   -1    0    0    0    0  0.00000000000E+00  0.00000000000E+00  0.14999999963E+04  0.15000000000E+04  0.10566000000E+00 0.  1.
        994   -1    0    0    0    0 -0.00000000000E+00 -0.00000000000E+00  0.11368683772E-12  0.17120000000E+03  0.17120000000E+03 0.  0.
         13    1    1    2    0    0  0.13030368481E+02  0.61800549395E+01  0.16244060906E+02  0.21722436801E+02  0.10566000000E+00 0.  1.
        994    1    1    2    0    0 -0.66736670907E+01 -0.56385011715E+01  0.58484944053E+01  0.17152252160E+03  0.17120000000E+03 0.  0.
        998    1    1    2    0    0 -0.63567013906E+01 -0.54155376794E+00  0.14779074410E+04  0.14779550416E+04  0.10000000000E+02 0.  1.
</event>
<event>
 5    1  0.1503263E-008  0.3838736E+03  0.7957747E-01  0.3434463E+00
         13   -1    0    0    0    0  0.00000000000E+00  0.00000000000E+00  0.14999999963E+04  0.15000000000E+04  0.10566000000E+00 0. -1.
        994   -1    0    0    0    0 -0.00000000000E+00 -0.00000000000E+00  0.11368683772E-12  0.17120000000E+03  0.17120000000E+03 0.  0.
         13    1    1    2    0    0 -0.18284366683E+02 -0.88830499739E+01  0.78302374413E+02  0.80898081835E+02  0.10566000000E+00 0. -1.
        994    1    1    2    0    0  0.42754115127E+02  0.12074785863E+02  0.87324406670E+01  0.17708588406E+03  0.17120000000E+03 0.  0.
        998    1    1    2    0    0 -0.24469748445E+02 -0.31917358887E+01  0.14129651812E+04  0.14132160341E+04  0.10000000000E+02 0. -1.
</event>
<event>
 5    1  0.1503263E-008  0.3710326E+03  0.7957747E-01  0.3491159E+00
         13   -1    0    0    0    0  0.00000000000E+00  0.00000000000E+00  0.14999999963E+04  0.15000000000E+04  0.10566000000E+00 0.  1.
        994   -1    0    0    0    0 -0.00000000000E+00 -0.00000000000E+00  0.11368683772E-12  0.17120000000E+03  0.17120000000E+03 0.  0.
         13    1    1    2    0    0 -0.82122034657E+02  0.11765783319E+02  0.31302884507E+03  0.32383565468E+03  0.10566000000E+00 0.  1.
        994    1    1    2    0    0  0.77571550720E+02 -0.32320990840E+02  0.33469896675E+02  0.19362764760E+03  0.17120000000E+03 0.  0.
        998    1    1    2    0    0  0.45504839367E+01  0.20555207522E+02  0.11535012545E+04  0.11537366977E+04  0.10000000000E+02 0.  1.
</event>
<event>
 5    1  0.1503263E-008  0.3724512E+03  0.7957747E-01  0.3484701E+00
         13   -1    0    0    0    0  0.00000000000E+00  0.00000000000E+00  0.14999999963E+04  0.15000000000E+04  0.10566000000E+00 0. -1.
        994   -1    0    0    0    0 -0.00000000000E+00 -0.00000000000E+00  0.11368683772E-12  0.17120000000E+03  0.17120000000E+03 0.  0.
         13    1    1    2    0    0 -0.91806807952E+02  0.19187287588E+02  0.39055328784E+03  0.40165722176E+03  0.10566000000E+00 0. -1.
        994    1    1    2    0    0  0.87830420974E+02 -0.71887942460E+02  0.53542419540E+02  0.21226938029E+03  0.17120000000E+03 0.  0.
        998    1    1    2    0    0  0.39763869778E+01  0.52700654872E+02  0.10559042889E+04  0.10572733979E+04  0.10000000000E+02 0. -1.
</event>
<event>
 5    1  0.1503263E-008  0.3806090E+03  0.7957747E-01  0.3448511E+00
         13   -1    0    0    0    0  0.00000000000E+00  0.00000000000E+00  0.14999999963E+04  0.15000000000E+04  0.10566000000E+00 0.  1.
        994   -1    0    0    0    0 -0.00000000000E+00 -0.00000000000E+00  0.11368683772E-12  0.17120000000E+03  0.17120000000E+03 0.  0.
         13    1    1    2    0    0 -0.11075275489E+02 -0.10253352280E+02  0.29505497623E+02  0.33141794069E+02  0.10566000000E+00 0.  1.
        994    1    1    2    0    0 -0.31231232302E+01 -0.16723727041E+01  0.38679207354E+01  0.17128033028E+03  0.17120000000E+03 0.  0.
        998    1    1    2    0    0  0.14198398719E+02  0.11925724984E+02  0.14666265779E+04  0.14667778757E+04  0.10000000000E+02 0.  1.
</event>
<event>
 5    1  0.1503263E-008  0.3857946E+03  0.7957747E-01  0.3426309E+00
         13   -1    0    0    0    0  0.00000000000E+00  0.00000000000E+00  0.14999999963E+04  0.15000000000E+04  0.10566000000E+00 0.  1.
        994   -1    0    0    0    0 -0.00000000000E+00 -0.00000000000E+00  0.11368683772E-12  0.17120000000E+03  0.17120000000E+03 0.  0.
         13    1    1    2    0    0  0.12588551072E+02  0.21543811859E+01  0.63337117465E+02  0.64612031304E+02  0.10566000000E+00 0.  1.
        994    1    1    2    0    0 -0.15796363872E+02  0.41839259332E+00  0.20556623363E+01  0.17194000672E+03  0.17120000000E+03 0.  0.
        998    1    1    2    0    0  0.32078128002E+01 -0.25727737792E+01  0.14346072165E+04  0.14346479620E+04  0.10000000000E+02 0.  1.
</event>
<event>
 5    1  0.1503263E-008  0.3833064E+03  0.7957747E-01  0.3436887E+00
         13   -1    0    0    0    0  0.00000000000E+00  0.00000000000E+00  0.14999999963E+04  0.15000000000E+04  0.10566000000E+00 0.  1.
        994   -1    0    0    0    0 -0.00000000000E+00 -0.00000000000E+00  0.11368683772E-12  0.17120000000E+03  0.17120000000E+03 0.  0.
         13    1    1    2    0    0 -0.46728401083E+01  0.16336107588E+02  0.58580189875E+02  0.60994701866E+02  0.10566000000E+00 0.  1.
        994    1    1    2    0    0  0.25380482562E+01 -0.76160008024E+01  0.26864353232E+01  0.17140916572E+03  0.17120000000E+03 0.  0.
        998    1    1    2    0    0  0.21347918521E+01 -0.87201067856E+01  0.14387333711E+04  0.14387961324E+04  0.10000000000E+02 0.  1.
</event>
<event>
 5    1  0.1503263E-008  0.3853366E+03  0.7957747E-01  0.3428246E+00
         13   -1    0    0    0    0  0.00000000000E+00  0.00000000000E+00  0.14999999963E+04  0.15000000000E+04  0.10566000000E+00 0.  1.
        994   -1    0    0    0    0 -0.00000000000E+00 -0.00000000000E+00  0.11368683772E-12  0.17120000000E+03  0.17120000000E+03 0.  0.
         13    1    1    2    0    0 -0.75925431784E+01  0.10252034117E+02  0.59175687572E+02  0.60535312662E+02  0.10566000000E+00 0.  1.
        994    1    1    2    0    0 -0.23209276972E+01 -0.89311718934E+00  0.14834092654E+01  0.17122448676E+03  0.17120000000E+03 0.  0.
        998    1    1    2    0    0  0.99134708756E+01 -0.93589169280E+01  0.14393408994E+04  0.14394402006E+04  0.10000000000E+02 0.  1.
</event>
<event>
 5    1  0.1503263E-008  0.3800795E+03  0.7957747E-01  0.3450813E+00
         13   -1    0    0    0    0  0.00000000000E+00  0.00000000000E+00  0.14999999963E+04  0.15000000000E+04  0.10566000000E+00 0.  1.
        994   -1    0    0    0    0 -0.00000000000E+00 -0.00000000000E+00  0.11368683772E-12  0.17120000000E+03  0.17120000000E+03 0.  0.
         13    1    1    2    0    0  0.11291376884E+02 -0.20944544726E+02  0.64909223599E+02  0.69133115205E+02  0.10566000000E+00 0.  1.
        994    1    1    2    0    0 -0.58000054917E+01  0.25366458747E+02  0.63592180162E+01  0.17328293900E+03  0.17120000000E+03 0.  0.
        998    1    1    2    0    0 -0.54913713922E+01 -0.44219140205E+01  0.14287315547E+04  0.14287839458E+04  0.10000000000E+02 0.  1.
</event>
<event>
 5    1  0.1503263E-008  0.3788360E+03  0.7957747E-01  0.3456243E+00
         13   -1    0    0    0    0  0.00000000000E+00  0.00000000000E+00  0.14999999963E+04  0.15000000000E+04  0.10566000000E+00 0. -1.
        994   -1    0    0    0    0 -0.00000000000E+00 -0.00000000000E+00  0.11368683772E-12  0.17120000000E+03  0.17120000000E+03 0.  0.
         13    1    1    2    0    0  0.22418133384E+01 -0.49068871115E+02  0.21788213537E+03  0.22335043299E+03  0.10566000000E+00 0. -1.
        994    1    1    2    0    0 -0.72272383226E+01  0.49374875090E+02  0.13124105086E+02  0.17880658097E+03  0.17120000000E+03 0.  0.
        998    1    1    2    0    0  0.49854249842E+01 -0.30600397497E+00  0.12689937558E+04  0.12690429860E+04  0.10000000000E+02 0.  0.
</event>
<event>
 5    1  0.1503263E-008  0.3835012E+03  0.7957747E-01  0.3436054E+00
         13   -1    0    0    0    0  0.00000000000E+00  0.00000000000E+00  0.14999999963E+04  0.15000000000E+04  0.10566000000E+00 0. -1.
        994   -1    0    0    0    0 -0.00000000000E+00 -0.00000000000E+00  0.11368683772E-12  0.17120000000E+03  0.17120000000E+03 0.  0.
         13    1    1    2    0    0 -0.31216763808E+00 -0.14048949115E+02  0.40323949084E+02  0.42702487675E+02  0.10566000000E+00 0. -1.
        994    1    1    2    0    0  0.82991801264E+00  0.12605971521E+02  0.29037063501E+01  0.17169004279E+03  0.17120000000E+03 0.  0.
        998    1    1    2    0    0 -0.51775037456E+00  0.14429775940E+01  0.14567723408E+04  0.14568074695E+04  0.10000000000E+02 0. -1.
</event>
<event>
 5    1  0.1503263E-008  0.3811766E+03  0.7957747E-01  0.3446051E+00
         13   -1    0    0    0    0  0.00000000000E+00  0.00000000000E+00  0.14999999963E+04  0.15000000000E+04  0.10566000000E+00 0.  1.
        994   -1    0    0    0    0 -0.00000000000E+00 -0.00000000000E+00  0.11368683772E-12  0.17120000000E+03  0.17120000000E+03 0.  0.
         13    1    1    2    0    0  0.19748918688E+02 -0.15931853048E+02  0.84052351923E+02  0.87798933699E+02  0.10566000000E+00 0.  1.
        994    1    1    2    0    0 -0.22353139253E+02  0.18067110966E+02  0.62960691828E+01  0.17370999919E+03  0.17120000000E+03 0.  0.
        998    1    1    2    0    0  0.26042205657E+01 -0.21352579181E+01  0.14096515752E+04  0.14096910671E+04  0.10000000000E+02 0.  1.
</event>
<event>
 5    1  0.1503263E-008  0.3750733E+03  0.7957747E-01  0.3472895E+00
         13   -1    0    0    0    0  0.00000000000E+00  0.00000000000E+00  0.14999999963E+04  0.15000000000E+04  0.10566000000E+00 0. -1.
        994   -1    0    0    0    0 -0.00000000000E+00 -0.00000000000E+00  0.11368683772E-12  0.17120000000E+03  0.17120000000E+03 0.  0.
         13    1    1    2    0    0 -0.11282675446E+02 -0.49121895419E+02  0.82969871799E+02  0.97078680281E+02  0.10566000000E+00 0. -1.
        994    1    1    2    0    0  0.91541829579E+01  0.52603183048E+02  0.23864608583E+02  0.18091393942E+03  0.17120000000E+03 0.  0.
        998    1    1    2    0    0  0.21284924881E+01 -0.34812876295E+01  0.13931655159E+04  0.13932073803E+04  0.10000000000E+02 0. -1.
</event>
<event>
 5    1  0.1503263E-008  0.3716481E+03  0.7957747E-01  0.3488351E+00
         13   -1    0    0    0    0  0.00000000000E+00  0.00000000000E+00  0.14999999963E+04  0.15000000000E+04  0.10566000000E+00 0.  1.
        994   -1    0    0    0    0 -0.00000000000E+00 -0.00000000000E+00  0.11368683772E-12  0.17120000000E+03  0.17120000000E+03 0.  0.
         13    1    1    2    0    0  0.55383126557E+02 -0.11072721320E+02  0.23704736000E+03  0.24368290443E+03  0.10566000000E+00 0.  1.
        994    1    1    2    0    0  0.44224175227E+01 -0.67390288574E+01  0.86335818792E+01  0.17160696671E+03  0.17120000000E+03 0.  0.
        998    1    1    2    0    0 -0.59805544080E+02  0.17811750178E+02  0.12543190544E+04  0.12559101289E+04  0.10000000000E+02 0.  1.
</event>
<event>
 5    1  0.1503263E-008  0.3820757E+03  0.7957747E-01  0.3442170E+00
         13   -1    0    0    0    0  0.00000000000E+00  0.00000000000E+00  0.14999999963E+04  0.15000000000E+04  0.10566000000E+00 0.  1.
        994   -1    0    0    0    0 -0.00000000000E+00 -0.00000000000E+00  0.11368683772E-12  0.17120000000E+03  0.17120000000E+03 0.  0.
         13    1    1    2    0    0  0.17923492941E+02 -0.43436090775E+02  0.28363599223E+03  0.28750188318E+03  0.10566000000E+00 0.  1.
        994    1    1    2    0    0 -0.16638469525E+02  0.47073549439E+02  0.11409901774E+02  0.17869634463E+03  0.17120000000E+03 0.  0.
        998    1    1    2    0    0 -0.12850234155E+01 -0.36374586644E+01  0.12049541023E+04  0.12050017722E+04  0.10000000000E+02 0.  0.
</event>
<event>
 5    1  0.1503263E-008  0.3728285E+03  0.7957747E-01  0.3482992E+00
         13   -1    0    0    0    0  0.00000000000E+00  0.00000000000E+00  0.14999999963E+04  0.15000000000E+04  0.10566000000E+00 0.  1.
        994   -1    0    0    0    0 -0.00000000000E+00 -0.00000000000E+00  0.11368683772E-12  0.17120000000E+03  0.17120000000E+03 0.  0.
         13    1    1    2    0    0  0.42934033615E+02 -0.41619881981E+02  0.14205292400E+03  0.15412524193E+03  0.10566000000E+00 0.  1.
        994    1    1    2    0    0 -0.14951245607E+02  0.31756088055E+02  0.16804927322E+02  0.17556717932E+03  0.17120000000E+03 0.  0.
        998    1    1    2    0    0 -0.27982788008E+02  0.98637939259E+01  0.13411421450E+04  0.13415075787E+04  0.10000000000E+02 0.  1.
</event>
<event>
 5    1  0.1503263E-008  0.3830109E+03  0.7957747E-01  0.3438152E+00
         13   -1    0    0    0    0  0.00000000000E+00  0.00000000000E+00  0.14999999963E+04  0.15000000000E+04  0.10566000000E+00 0.  1.
        994   -1    0    0    0    0 -0.00000000000E+00 -0.00000000000E+00  0.11368683772E-12  0.17120000000E+03  0.17120000000E+03 0.  0.
         13    1    1    2    0    0 -0.15457226748E+02 -0.29694047898E+01  0.46868606336E+02  0.49441082588E+02  0.10566000000E+00 0.  1.
        994    1    1    2    0    0  0.10260150150E+02 -0.82346778759E+01  0.31940096635E+01  0.17173445286E+03  0.17120000000E+03 0.  0.
        998    1    1    2    0    0  0.51970765983E+01  0.11204082666E+02  0.14499373803E+04  0.14500244646E+04  0.10000000000E+02 0.  1.
</event>
<event>
 5    1  0.1503263E-008  0.3749421E+03  0.7957747E-01  0.3473482E+00
         13   -1    0    0    0    0  0.00000000000E+00  0.00000000000E+00  0.14999999963E+04  0.15000000000E+04  0.10566000000E+00 0.  1.
        994   -1    0    0    0    0 -0.00000000000E+00 -0.00000000000E+00  0.11368683772E-12  0.17120000000E+03  0.17120000000E+03 0.  0.
         13    1    1    2    0    0  0.11728181988E+02  0.20882852922E+03  0.78200023548E+03  0.80948828548E+03  0.10566000000E+00 0.  1.
        994    1    1    2    0    0 -0.21093367899E+02 -0.22978499809E+03  0.21693716099E+03  0.36002395384E+03  0.17120000000E+03 0.  0.
        998    1    1    2    0    0  0.93651859115E+01  0.20956468878E+02  0.50106259981E+03  0.50168776069E+03  0.10000000000E+02 0.  1.
</event>
<event>
 5    1  0.1503263E-008  0.3859756E+03  0.7957747E-01  0.3425545E+00
         13   -1    0    0    0    0  0.00000000000E+00  0.00000000000E+00  0.14999999963E+04  0.15000000000E+04  0.10566000000E+00 0. -1.
        994   -1    0    0    0    0 -0.00000000000E+00 -0.00000000000E+00  0.11368683772E-12  0.17120000000E+03  0.17120000000E+03 0.  0.
         13    1    1    2    0    0  0.64268665498E+01  0.84424829139E+01  0.54570395710E+02  0.55592439984E+02  0.10566000000E+00 0. -1.
        994    1    1    2    0    0  0.24136733277E+02 -0.11629642266E+02  0.35033077605E+01  0.17331919581E+03  0.17120000000E+03 0.  0.
        998    1    1    2    0    0 -0.30563599827E+02  0.31871593519E+01  0.14419262928E+04  0.14422883642E+04  0.10000000000E+02 0. -1.
</event>
<event>
 5    1  0.1503263E-008  0.3818700E+03  0.7957747E-01  0.3443056E+00
         13   -1    0    0    0    0  0.00000000000E+00  0.00000000000E+00  0.14999999963E+04  0.15000000000E+04  0.10566000000E+00 0. -1.
        994   -1    0    0    0    0 -0.00000000000E+00 -0.00000000000E+00  0.11368683772E-12  0.17120000000E+03  0.17120000000E+03 0.  0.
         13    1    1    2    0    0 -0.65372947673E+02  0.28525271379E+02  0.39659197694E+03  0.40295473782E+03  0.10566000000E+00 0. -1.
        994    1    1    2    0    0  0.93449636903E+02 -0.44721618957E+02  0.39711587709E+02  0.20400810777E+03  0.17120000000E+03 0.  0.
        998    1    1    2    0    0 -0.28076689230E+02  0.16196347578E+02  0.10636964316E+04  0.10642371544E+04  0.10000000000E+02 0. -1.
</event>
<event>
 5    1  0.1503263E-008  0.3762458E+03  0.7957747E-01  0.3467670E+00
         13   -1    0    0    0    0  0.00000000000E+00  0.00000000000E+00  0.14999999963E+04  0.15000000000E+04  0.10566000000E+00 0.  1.
        994   -1    0    0    0    0 -0.00000000000E+00 -0.00000000000E+00  0.11368683772E-12  0.17120000000E+03  0.17120000000E+03 0.  0.
         13    1    1    2    0    0  0.47943093551E+02 -0.31784331184E+01  0.17207076776E+03  0.17865330374E+03  0.10566000000E+00 0.  1.
        994    1    1    2    0    0 -0.44395193373E+02  0.38559364056E+01  0.12792015595E+02  0.17736650502E+03  0.17120000000E+03 0.  0.
        998    1    1    2    0    0 -0.35479001783E+01 -0.67750328721E+00  0.13151372129E+04  0.13151801912E+04  0.10000000000E+02 0.  1.
</event>
<event>
 5    1  0.1503263E-008  0.3840142E+03  0.7957747E-01  0.3433864E+00
         13   -1    0    0    0    0  0.00000000000E+00  0.00000000000E+00  0.14999999963E+04  0.15000000000E+04  0.10566000000E+00 0. -1.
        994   -1    0    0    0    0 -0.00000000000E+00 -0.00000000000E+00  0.11368683772E-12  0.17120000000E+03  0.17120000000E+03 0.  0.
         13    1    1    2    0    0 -0.33423734406E+01 -0.23446266590E+02  0.13943901478E+03  0.14143602400E+03  0.10566000000E+00 0. -1.
        994    1    1    2    0    0  0.11935936053E+01  0.76413023659E+01  0.23177412850E+01  0.17139027421E+03  0.17120000000E+03 0.  0.
        998    1    1    2    0    0  0.21487798353E+01  0.15804964225E+02  0.13582432402E+04  0.13583737018E+04  0.10000000000E+02 0. -1.
</event>
<event>
 5    1  0.1503263E-008  0.3810131E+03  0.7957747E-01  0.3446759E+00
         13   -1    0    0    0    0  0.00000000000E+00  0.00000000000E+00  0.14999999963E+04  0.15000000000E+04  0.10566000000E+00 0.  1.
        994   -1    0    0    0    0 -0.00000000000E+00 -0.00000000000E+00  0.11368683772E-12  0.17120000000E+03  0.17120000000E+03 0.  0.
         13    1    1    2    0    0 -0.91709384759E+01  0.83280919782E+01  0.20326339087E+02  0.23804084801E+02  0.10566000000E+00 0.  1.
        994    1    1    2    0    0 -0.53430991197E+01 -0.22047420962E+01  0.37339178203E+01  0.17133823782E+03  0.17120000000E+03 0.  0.
        998    1    1    2    0    0  0.14514037596E+02 -0.61233498821E+01  0.14759397394E+04  0.14760576774E+04  0.10000000000E+02 0.  1.
</event>
<event>
 5    1  0.1503263E-008  0.3794481E+03  0.7957747E-01  0.3453565E+00
         13   -1    0    0    0    0  0.00000000000E+00  0.00000000000E+00  0.14999999963E+04  0.15000000000E+04  0.10566000000E+00 0.  1.
        994   -1    0    0    0    0 -0.00000000000E+00 -0.00000000000E+00  0.11368683772E-12  0.17120000000E+03  0.17120000000E+03 0.  0.
         13    1    1    2    0    0  0.14760275256E+02  0.80479636122E+01  0.29926723599E+02  0.34325724950E+02  0.10566000000E+00 0.  1.
        994    1    1    2    0    0 -0.30538405411E+02  0.24824755558E+02  0.96166869005E+01  0.17592834723E+03  0.17120000000E+03 0.  0.
        998    1    1    2    0    0  0.15778130155E+02 -0.32872719170E+02  0.14604565858E+04  0.14609459278E+04  0.10000000000E+02 0.  1.
</event>
<event>
 5    1  0.1503263E-008  0.3840439E+03  0.7957747E-01  0.3433737E+00
         13   -1    0    0    0    0  0.00000000000E+00  0.00000000000E+00  0.14999999963E+04  0.15000000000E+04  0.10566000000E+00 0.  1.
        994   -1    0    0    0    0 -0.00000000000E+00 -0.00000000000E+00  0.11368683772E-12  0.17120000000E+03  0.17120000000E+03 0.  0.
         13    1    1    2    0    0  0.11756662314E+01  0.16298629728E+02  0.63446496812E+02  0.65517147709E+02  0.10566000000E+00 0.  1.
        994    1    1    2    0    0  0.34324093552E+01 -0.96702468156E+01  0.24530191543E+01  0.17152478658E+03  0.17120000000E+03 0.  0.
        998    1    1    2    0    0 -0.46080755866E+01 -0.66283829129E+01  0.14341004803E+04  0.14341580657E+04  0.10000000000E+02 0.  1.
</event>
<event>
 5    1  0.1503263E-008  0.3850653E+03  0.7957747E-01  0.3429395E+00
         13   -1    0    0    0    0  0.00000000000E+00  0.00000000000E+00  0.14999999963E+04  0.15000000000E+04  0.10566000000E+00 0.  1.
        994   -1    0    0    0    0 -0.00000000000E+00 -0.00000000000E+00  0.11368683772E-12  0.17120000000E+03  0.17120000000E+03 0.  0.
         13    1    1    2    0    0 -0.55588764349E+01  0.93273082374E+01  0.36696890132E+02  0.38269736027E+02  0.10566000000E+00 0.  1.
        994    1    1    2    0    0  0.80668278633E+01 -0.42111984950E+01  0.18700350330E+01  0.17145187353E+03  0.17120000000E+03 0.  0.
        998    1    1    2    0    0 -0.25079514284E+01 -0.51161097425E+01  0.14614330711E+04  0.14614783904E+04  0.10000000000E+02 0.  1.
</event>
<event>
 5    1  0.1503263E-008  0.3720973E+03  0.7957747E-01  0.3486307E+00
         13   -1    0    0    0    0  0.00000000000E+00  0.00000000000E+00  0.14999999963E+04  0.15000000000E+04  0.10566000000E+00 0. -1.
        994   -1    0    0    0    0 -0.00000000000E+00 -0.00000000000E+00  0.11368683772E-12  0.17120000000E+03  0.17120000000E+03 0.  0.
         13    1    1    2    0    0 -0.28164894239E+02 -0.81619263274E+02  0.28997718651E+03  0.30255866417E+03  0.10566000000E+00 0. -1.
        994    1    1    2    0    0  0.12736328075E+03  0.30557614453E+02  0.75190701619E+02  0.22829422834E+03  0.17120000000E+03 0.  0.
        998    1    1    2    0    0 -0.99198386510E+02  0.51061648821E+02  0.11348321082E+04  0.11403471075E+04  0.10000000000E+02 0. -1.
</event>
<event>
 5    1  0.1503263E-008  0.3743864E+03  0.7957747E-01  0.3475972E+00
         13   -1    0    0    0    0  0.00000000000E+00  0.00000000000E+00  0.14999999963E+04  0.15000000000E+04  0.10566000000E+00 0. -1.
        994   -1    0    0    0    0 -0.00000000000E+00 -0.00000000000E+00  0.11368683772E-12  0.17120000000E+03  0.17120000000E+03 0.  0.
         13    1    1    2    0    0 -0.35524126166E+01  0.23332167555E+02  0.36175903130E+02  0.43193944131E+02  0.10566000000E+00 0. -1.
        994    1    1    2    0    0  0.37090649603E+01 -0.23701858118E+02  0.89570646061E+01  0.17310460493E+03  0.17120000000E+03 0.  0.
        998    1    1    2    0    0 -0.15665234367E+00  0.36969056263E+00  0.14548670285E+04  0.14549014509E+04  0.10000000000E+02 0. -1.
</event>
<event>
 5    1  0.1503263E-008  0.3839445E+03  0.7957747E-01  0.3434161E+00
         13   -1    0    0    0    0  0.00000000000E+00  0.00000000000E+00  0.14999999963E+04  0.15000000000E+04  0.10566000000E+00 0. -1.
        994   -1    0    0    0    0 -0.00000000000E+00 -0.00000000000E+00  0.11368683772E-12  0.17120000000E+03  0.17120000000E+03 0.  0.
         13    1    1    2    0    0  0.36602867139E+00 -0.16198214986E+02  0.65926685578E+02  0.67888549705E+02  0.10566000000E+00 0. -1.
        994    1    1    2    0    0 -0.63302057818E+01 -0.47724446646E+01  0.23625088169E+01  0.17139973507E+03  0.17120000000E+03 0.  0.
        998    1    1    2    0    0  0.59641771104E+01  0.20970659651E+02  0.14317108019E+04  0.14319117152E+04  0.10000000000E+02 0. -1.
</event>
<event>
 5    1  0.1503263E-008  0.3831471E+03  0.7957747E-01  0.3437569E+00
         13   -1    0    0    0    0  0.00000000000E+00  0.00000000000E+00  0.14999999963E+04  0.15000000000E+04  0.10566000000E+00 0. -1.
        994   -1    0    0    0    0 -0.00000000000E+00 -0.00000000000E+00  0.11368683772E-12  0.17120000000E+03  0.17120000000E+03 0.  0.
         13    1    1    2    0    0 -0.94440832187E+01  0.19408323598E+02  0.96582766601E+02  0.98965224706E+02  0.10566000000E+00 0. -1.
        994    1    1    2    0    0  0.16115996341E+01 -0.28802265481E+01  0.25889227752E+01  0.17125138096E+03  0.17120000000E+03 0.  0.
        998    1    1    2    0    0  0.78324835846E+01 -0.16528097050E+02  0.14008283069E+04  0.14009833943E+04  0.10000000000E+02 0. -1.
</event>
<event>
 5    1  0.1503263E-008  0.3848383E+03  0.7957747E-01  0.3430358E+00
         13   -1    0    0    0    0  0.00000000000E+00  0.00000000000E+00  0.14999999963E+04  0.15000000000E+04  0.10566000000E+00 0.  1.
        994   -1    0    0    0    0 -0.00000000000E+00 -0.00000000000E+00  0.11368683772E-12  0.17120000000E+03  0.17120000000E+03 0.  0.
         13    1    1    2    0    0 -0.16912739437E+02  0.51559227504E+01  0.81063236684E+02  0.82969173796E+02  0.10566000000E+00 0.  1.
        994    1    1    2    0    0  0.26658985637E+02 -0.12280419251E+02  0.45502657014E+01  0.17375746065E+03  0.17120000000E+03 0.  0.
        998    1    1    2    0    0 -0.97462461996E+01  0.71244965006E+01  0.14143864939E+04  0.14144733656E+04  0.10000000000E+02 0.  1.
</event>
<event>
 5    1  0.1503263E-008  0.3839651E+03  0.7957747E-01  0.3434073E+00
         13   -1    0    0    0    0  0.00000000000E+00  0.00000000000E+00  0.14999999963E+04  0.15000000000E+04  0.10566000000E+00 0. -1.
        994   -1    0    0    0    0 -0.00000000000E+00 -0.00000000000E+00  0.11368683772E-12  0.17120000000E+03  0.17120000000E+03 0.  0.
         13    1    1    2    0    0 -0.17674512484E+02  0.74083352848E+01  0.93370281984E+02  0.95316800959E+02  0.10566000000E+00 0. -1.
        994    1    1    2    0    0  0.15602385157E+00  0.38338230299E+01  0.21933986099E+01  0.17125703939E+03  0.17120000000E+03 0.  0.
        998    1    1    2    0    0  0.17518488633E+02 -0.11242158315E+02  0.14044363157E+04  0.14046261597E+04  0.10000000000E+02 0. -1.
</event>
<event>
 5    1  0.1503263E-008  0.3829066E+03  0.7957747E-01  0.3438599E+00
         13   -1    0    0    0    0  0.00000000000E+00  0.00000000000E+00  0.14999999963E+04  0.15000000000E+04  0.10566000000E+00 0.  1.
        994   -1    0    0    0    0 -0.00000000000E+00 -0.00000000000E+00  0.11368683772E-12  0.17120000000E+03  0.17120000000E+03 0.  0.
         13    1    1    2    0    0 -0.16991158377E+02 -0.40272917239E+01  0.55264145198E+02  0.57957358895E+02  0.10566000000E+00 0.  1.
        994    1    1    2    0    0  0.14179666057E+02  0.57566456635E+01  0.34489189807E+01  0.17191723864E+03  0.17120000000E+03 0.  0.
        998    1    1    2    0    0  0.28114923198E+01 -0.17293539396E+01  0.14412869321E+04  0.14413254025E+04  0.10000000000E+02 0.  1.
</event>
<event>
 5    1  0.1503263E-008  0.3788007E+03  0.7957747E-01  0.3456397E+00
         13   -1    0    0    0    0  0.00000000000E+00  0.00000000000E+00  0.14999999963E+04  0.15000000000E+04  0.10566000000E+00 0. -1.
        994   -1    0    0    0    0 -0.00000000000E+00 -0.00000000000E+00  0.11368683772E-12  0.17120000000E+03  0.17120000000E+03 0.  0.
         13    1    1    2    0    0 -0.38212880357E+01 -0.10660061730E+02  0.11453828398E+02  0.16107157022E+02  0.10566000000E+00 0. -1.
        994    1    1    2    0    0  0.48742025199E+01  0.60025448258E+01  0.49404343773E+01  0.17144572402E+03  0.17120000000E+03 0.  0.
        998    1    1    2    0    0 -0.10529144842E+01  0.46575169041E+01  0.14836057335E+04  0.14836471190E+04  0.10000000000E+02 0. -1.
</event>
<event>
 5    1  0.1503263E-008  0.3786404E+03  0.7957747E-01  0.3457100E+00
         13   -1    0    0    0    0  0.00000000000E+00  0.00000000000E+00  0.14999999963E+04  0.15000000000E+04  0.10566000000E+00 0. -1.
        994   -1    0    0    0    0 -0.00000000000E+00 -0.00000000000E+00  0.11368683772E-12  0.17120000000E+03  0.17120000000E+03 0.  0.
         13    1    1    2    0    0 -0.10132412104E+02  0.73862842972E+01  0.14174398856E+02  0.18924791088E+02  0.10566000000E+00 0. -1.
        994    1    1    2    0    0  0.77812185827E+01 -0.60563454817E+01  0.51475842232E+01  0.17156096382E+03  0.17120000000E+03 0.  0.
        998    1    1    2    0    0  0.23511935212E+01 -0.13299388155E+01  0.14806780132E+04  0.14807142451E+04  0.10000000000E+02 0. -1.
</event>
<event>
 5    1  0.1503263E-008  0.3841406E+03  0.7957747E-01  0.3433325E+00
         13   -1    0    0    0    0  0.00000000000E+00  0.00000000000E+00  0.14999999963E+04  0.15000000000E+04  0.10566000000E+00 0. -1.
        994   -1    0    0    0    0 -0.00000000000E+00 -0.00000000000E+00  0.11368683772E-12  0.17120000000E+03  0.17120000000E+03 0.  0.
         13    1    1    2    0    0  0.14035210111E+02 -0.86535537761E+00  0.49485218068E+02  0.51444474281E+02  0.10566000000E+00 0. -1.
        994    1    1    2    0    0 -0.19393043032E+01 -0.29077258373E+01  0.20977133717E+01  0.17124852166E+03  0.17120000000E+03 0.  0.
        998    1    1    2    0    0 -0.12095905808E+02  0.37730812149E+01  0.14484170648E+04  0.14485070041E+04  0.10000000000E+02 0. -1.
</event>
<event>
 5    1  0.1503263E-008  0.2831772E+03  0.7957747E-01  0.4023956E+00
         13   -1    0    0    0    0  0.00000000000E+00  0.00000000000E+00  0.14999999963E+04  0.15000000000E+04  0.10566000000E+00 0.  1.
        994   -1    0    0    0    0 -0.00000000000E+00 -0.00000000000E+00  0.11368683772E-12  0.17120000000E+03  0.17120000000E+03 0.  0.
         13    1    1    2    0    0  0.14644290104E+03 -0.46718076198E+00  0.64120008079E+03  0.65771064785E+03  0.10566000000E+00 0.  1.
        994    1    1    2    0    0 -0.12847216981E+03 -0.13163086477E+03  0.15096704892E+03  0.29314206938E+03  0.17120000000E+03 0.  0.
        998    1    1    2    0    0 -0.17970731223E+02  0.13209804553E+03  0.70783286656E+03  0.72034728277E+03  0.10000000000E+02 0. -1.
</event>
<event>
 5    1  0.1503263E-008  0.3826562E+03  0.7957747E-01  0.3439674E+00
         13   -1    0    0    0    0  0.00000000000E+00  0.00000000000E+00  0.14999999963E+04  0.15000000000E+04  0.10566000000E+00 0.  1.
        994   -1    0    0    0    0 -0.00000000000E+00 -0.00000000000E+00  0.11368683772E-12  0.17120000000E+03  0.17120000000E+03 0.  0.
         13    1    1    2    0    0  0.49488294312E+01  0.11307546928E+02  0.25336845784E+02  0.28183655699E+02  0.10566000000E+00 0.  1.
        994    1    1    2    0    0 -0.79300931536E+01 -0.16984772933E+02  0.39635210380E+01  0.17226873886E+03  0.17120000000E+03 0.  0.
        998    1    1    2    0    0  0.29812637224E+01  0.56772260054E+01  0.14706996295E+04  0.14707476054E+04  0.10000000000E+02 0.  1.
</event>
<event>
 5    1  0.1503263E-008  0.3853880E+03  0.7957747E-01  0.3428028E+00
         13   -1    0    0    0    0  0.00000000000E+00  0.00000000000E+00  0.14999999963E+04  0.15000000000E+04  0.10566000000E+00 0. -1.
        994   -1    0    0    0    0 -0.00000000000E+00 -0.00000000000E+00  0.11368683772E-12  0.17120000000E+03  0.17120000000E+03 0.  0.
         13    1    1    2    0    0 -0.95896118074E+01  0.50896372539E+01  0.41409567940E+02  0.42809210960E+02  0.10566000000E+00 0. -1.
        994    1    1    2    0    0  0.16230185421E+01 -0.93663500806E+01  0.17344971798E+01  0.17147247938E+03  0.17120000000E+03 0.  0.
        998    1    1    2    0    0  0.79665932653E+01  0.42767128267E+01  0.14568559312E+04  0.14569183097E+04  0.10000000000E+02 0. -1.
</event>
<event>
 5    1  0.1503263E-008  0.3757662E+03  0.7957747E-01  0.3469803E+00
         13   -1    0    0    0    0  0.00000000000E+00  0.00000000000E+00  0.14999999963E+04  0.15000000000E+04  0.10566000000E+00 0.  1.
        994   -1    0    0    0    0 -0.00000000000E+00 -0.00000000000E+00  0.11368683772E-12  0.17120000000E+03  0.17120000000E+03 0.  0.
         13    1    1    2    0    0 -0.37010162627E+02 -0.50443095617E+01  0.11322469167E+03  0.11922683911E+03  0.10566000000E+00 0.  1.
        994    1    1    2    0    0  0.13917665380E+02  0.84399523615E+00  0.69452001494E+01  0.17190721201E+03  0.17120000000E+03 0.  0.
        998    1    1    2    0    0  0.23092497247E+02  0.42003143255E+01  0.13798301045E+04  0.13800659489E+04  0.10000000000E+02 0.  1.
</event>
<event>
 5    1  0.1503263E-008  0.3753036E+03  0.7957747E-01  0.3471866E+00
         13   -1    0    0    0    0  0.00000000000E+00  0.00000000000E+00  0.14999999963E+04  0.15000000000E+04  0.10566000000E+00 0. -1.
        994   -1    0    0    0    0 -0.00000000000E+00 -0.00000000000E+00  0.11368683772E-12  0.17120000000E+03  0.17120000000E+03 0.  0.
         13    1    1    2    0    0 -0.66971178565E+02 -0.26277975943E+01  0.14456010266E+03  0.15934138986E+03  0.10566000000E+00 0. -1.
        994    1    1    2    0    0  0.66150474874E+02 -0.52629098202E+01  0.29629027422E+02  0.18598629738E+03  0.17120000000E+03 0.  0.
        998    1    1    2    0    0  0.82070369112E+00  0.78907074145E+01  0.13258108662E+04  0.13258723128E+04  0.10000000000E+02 0. -1.
</event>
<event>
 5    1  0.1503263E-008  0.3760707E+03  0.7957747E-01  0.3468448E+00
         13   -1    0    0    0    0  0.00000000000E+00  0.00000000000E+00  0.14999999963E+04  0.15000000000E+04  0.10566000000E+00 0.  1.
        994   -1    0    0    0    0 -0.00000000000E+00 -0.00000000000E+00  0.11368683772E-12  0.17120000000E+03  0.17120000000E+03 0.  0.
         13    1    1    2    0    0 -0.88371473947E+01  0.13154316475E+02  0.17618355247E+02  0.23697021367E+02  0.10566000000E+00 0.  1.
        994    1    1    2    0    0  0.11833987382E+02 -0.11694025563E+02  0.70679667351E+01  0.17215164723E+03  0.17120000000E+03 0.  0.
        998    1    1    2    0    0 -0.29968399873E+01 -0.14602909118E+01  0.14753136743E+04  0.14753513314E+04  0.10000000000E+02 0.  1.
</event>
<event>
 5    1  0.1503263E-008  0.3755238E+03  0.7957747E-01  0.3470884E+00
         13   -1    0    0    0    0  0.00000000000E+00  0.00000000000E+00  0.14999999963E+04  0.15000000000E+04  0.10566000000E+00 0.  1.
        994   -1    0    0    0    0 -0.00000000000E+00 -0.00000000000E+00  0.11368683772E-12  0.17120000000E+03  0.17120000000E+03 0.  0.
         13    1    1    2    0    0 -0.40099476429E+02 -0.24006593278E+02  0.18162120490E+03  0.18753815015E+03  0.10566000000E+00 0.  1.
        994    1    1    2    0    0  0.11723034702E+02  0.79781220860E+01  0.70926123156E+01  0.17193261798E+03  0.17120000000E+03 0.  0.
        998    1    1    2    0    0  0.28376441727E+02  0.16028471192E+02  0.13112861791E+04  0.13117292319E+04  0.10000000000E+02 0.  1.
</event>
<event>
 5    1  0.1503263E-008  0.3807200E+03  0.7957747E-01  0.3448029E+00
         13   -1    0    0    0    0  0.00000000000E+00  0.00000000000E+00  0.14999999963E+04  0.15000000000E+04  0.10566000000E+00 0. -1.
        994   -1    0    0    0    0 -0.00000000000E+00 -0.00000000000E+00  0.11368683772E-12  0.17120000000E+03  0.17120000000E+03 0.  0.
         13    1    1    2    0    0  0.18339111231E+02 -0.39279056287E+02  0.21365765600E+03  0.21801094559E+03  0.10566000000E+00 0. -1.
        994    1    1    2    0    0  0.86151690669E+01  0.54243131508E+02  0.13896494607E+02  0.18033050495E+03  0.17120000000E+03 0.  0.
        998    1    1    2    0    0 -0.26954280298E+02 -0.14964075221E+02  0.12724458457E+04  0.12728585495E+04  0.10000000000E+02 0. -1.
</event>
<event>
 5    1  0.1503263E-008  0.3773315E+03  0.7957747E-01  0.3462861E+00
         13   -1    0    0    0    0  0.00000000000E+00  0.00000000000E+00  0.14999999963E+04  0.15000000000E+04  0.10566000000E+00 0.  1.
        994   -1    0    0    0    0 -0.00000000000E+00 -0.00000000000E+00  0.11368683772E-12  0.17120000000E+03  0.17120000000E+03 0.  0.
         13    1    1    2    0    0  0.51545268760E+02  0.82212321403E+01  0.20796354827E+03  0.21441397334E+03  0.10566000000E+00 0.  1.
        994    1    1    2    0    0 -0.55037837991E+02 -0.11536200729E+02  0.16226856580E+02  0.18092815815E+03  0.17120000000E+03 0.  0.
        998    1    1    2    0    0  0.34925692313E+01  0.33149685886E+01  0.12758095914E+04  0.12758578685E+04  0.10000000000E+02 0.  1.
</event>
<event>
 5    1  0.1503263E-008  0.3848178E+03  0.7957747E-01  0.3430445E+00
         13   -1    0    0    0    0  0.00000000000E+00  0.00000000000E+00  0.14999999963E+04  0.15000000000E+04  0.10566000000E+00 0. -1.
        994   -1    0    0    0    0 -0.00000000000E+00 -0.00000000000E+00  0.11368683772E-12  0.17120000000E+03  0.17120000000E+03 0.  0.
         13    1    1    2    0    0 -0.12602683377E+02 -0.90761460381E+01  0.74289903871E+02  0.75896014628E+02  0.10566000000E+00 0. -1.
        994    1    1    2    0    0 -0.21160621617E+01  0.51935778624E+01  0.18241271919E+01  0.17130154235E+03  0.17120000000E+03 0.  0.
        998    1    1    2    0    0  0.14718745539E+02  0.38825681756E+01  0.14238859652E+04  0.14240024430E+04  0.10000000000E+02 0. -1.
</event>
<event>
 5    1  0.1503263E-008  0.3793121E+03  0.7957747E-01  0.3454159E+00
         13   -1    0    0    0    0  0.00000000000E+00  0.00000000000E+00  0.14999999963E+04  0.15000000000E+04  0.10566000000E+00 0. -1.
        994   -1    0    0    0    0 -0.00000000000E+00 -0.00000000000E+00  0.11368683772E-12  0.17120000000E+03  0.17120000000E+03 0.  0.
         13    1    1    2    0    0  0.31315784164E+02 -0.16228651106E+02  0.16502629066E+03  0.16875347472E+03  0.10566000000E+00 0. -1.
        994    1    1    2    0    0  0.10720094011E+02  0.55099410593E+01  0.49677006685E+01  0.17169565491E+03  0.17120000000E+03 0.  0.
        998    1    1    2    0    0 -0.42035878175E+02  0.10718710047E+02  0.13300060049E+04  0.13307508704E+04  0.10000000000E+02 0. -1.
</event>
<event>
 5    1  0.1503263E-008  0.3855459E+03  0.7957747E-01  0.3427360E+00
         13   -1    0    0    0    0  0.00000000000E+00  0.00000000000E+00  0.14999999963E+04  0.15000000000E+04  0.10566000000E+00 0.  1.
        994   -1    0    0    0    0 -0.00000000000E+00 -0.00000000000E+00  0.11368683772E-12  0.17120000000E+03  0.17120000000E+03 0.  0.
         13    1    1    2    0    0 -0.10361566172E+01 -0.11078599455E+02  0.49034727842E+02  0.50281454683E+02  0.10566000000E+00 0.  1.
        994    1    1    2    0    0 -0.58346040515E+01 -0.33356028153E+01  0.15076704576E+01  0.17133850099E+03  0.17120000000E+03 0.  0.
        998    1    1    2    0    0  0.68707606687E+01  0.14414202270E+02  0.14494575980E+04  0.14495800443E+04  0.10000000000E+02 0.  1.
</event>
<event>
 5    1  0.1503263E-008  0.3698984E+03  0.7957747E-01  0.3496358E+00
         13   -1    0    0    0    0  0.00000000000E+00  0.00000000000E+00  0.14999999963E+04  0.15000000000E+04  0.10566000000E+00 0. -1.
        994   -1    0    0    0    0 -0.00000000000E+00 -0.00000000000E+00  0.11368683772E-12  0.17120000000E+03  0.17120000000E+03 0.  0.
         13    1    1    2    0    0  0.10790844020E+03  0.85030971680E+02  0.60228978671E+03  0.61776006341E+03  0.10566000000E+00 0. -1.
        994    1    1    2    0    0 -0.10864156086E+03 -0.76085703021E+02  0.72881855605E+02  0.22850213966E+03  0.17120000000E+03 0.  0.
        998    1    1    2    0    0  0.73312065933E+00 -0.89452686588E+01  0.82482835397E+03  0.82493779693E+03  0.10000000000E+02 0. -1.
</event>
<event>
 5    1  0.1503263E-008  0.3834011E+03  0.7957747E-01  0.3436482E+00
         13   -1    0    0    0    0  0.00000000000E+00  0.00000000000E+00  0.14999999963E+04  0.15000000000E+04  0.10566000000E+00 0. -1.
        994   -1    0    0    0    0 -0.00000000000E+00 -0.00000000000E+00  0.11368683772E-12  0.17120000000E+03  0.17120000000E+03 0.  0.
         13    1    1    2    0    0 -0.95913926701E+00  0.13155293350E+02  0.35977578178E+02  0.38319433540E+02  0.10566000000E+00 0. -1.
        994    1    1    2    0    0  0.49204364427E+01 -0.26228789878E+01  0.25288237430E+01  0.17130944264E+03  0.17120000000E+03 0.  0.
        998    1    1    2    0    0 -0.39612971757E+01 -0.10532414362E+02  0.14614935944E+04  0.14615711238E+04  0.10000000000E+02 0. -1.
</event>
<event>
 5    1  0.1503263E-008  0.3797462E+03  0.7957747E-01  0.3452264E+00
         13   -1    0    0    0    0  0.00000000000E+00  0.00000000000E+00  0.14999999963E+04  0.15000000000E+04  0.10566000000E+00 0.  1.
        994   -1    0    0    0    0 -0.00000000000E+00 -0.00000000000E+00  0.11368683772E-12  0.17120000000E+03  0.17120000000E+03 0.  0.
         13    1    1    2    0    0 -0.78705157057E+01 -0.15924618044E+02  0.34380079806E+02  0.38698055879E+02  0.10566000000E+00 0.  1.
        994    1    1    2    0    0  0.44896110586E+01  0.20860482096E+02  0.57861362134E+01  0.17262165476E+03  0.17120000000E+03 0.  0.
        998    1    1    2    0    0  0.33809046470E+01 -0.49358640513E+01  0.14598337803E+04  0.14598802894E+04  0.10000000000E+02 0.  1.
</event>
<event>
 5    1  0.1503263E-008  0.3967393E+03  0.7957747E-01  0.3381361E+00
         13   -1    0    0    0    0  0.00000000000E+00  0.00000000000E+00  0.14999999963E+04  0.15000000000E+04  0.10566000000E+00 0.  1.
        994   -1    0    0    0    0 -0.00000000000E+00 -0.00000000000E+00  0.11368683772E-12  0.17120000000E+03  0.17120000000E+03 0.  0.
         13    1    1    2    0    0  0.52545632363E+00  0.33534020779E+02  0.10223716193E+02  0.35061976425E+02  0.10566000000E+00 0.  1.
        994    1    1    2    0    0  0.92697981349E+00 -0.52230826694E+02  0.36462369367E+02  0.18266872455E+03  0.17120000000E+03 0.  0.
        998    1    1    2    0    0 -0.14524361371E+01  0.18696805915E+02  0.14533139107E+04  0.14534692990E+04  0.10000000000E+02 0.  1.
</event>
<event>
 5    1  0.1503263E-008  0.3816554E+03  0.7957747E-01  0.3443982E+00
         13   -1    0    0    0    0  0.00000000000E+00  0.00000000000E+00  0.14999999963E+04  0.15000000000E+04  0.10566000000E+00 0. -1.
        994   -1    0    0    0    0 -0.00000000000E+00 -0.00000000000E+00  0.11368683772E-12  0.17120000000E+03  0.17120000000E+03 0.  0.
         13    1    1    2    0    0 -0.10728772443E+02 -0.31153786494E+01  0.18598589267E+02  0.21696332156E+02  0.10566000000E+00 0. -1.
        994    1    1    2    0    0 -0.86975519717E+01 -0.15047628842E+02  0.43047922491E+01  0.17213381359E+03  0.17120000000E+03 0.  0.
        998    1    1    2    0    0  0.19426324415E+02  0.18163007492E+02  0.14770966148E+04  0.14773698543E+04  0.10000000000E+02 0. -1.
</event>
<event>
 5    1  0.1503263E-008  0.3836619E+03  0.7957747E-01  0.3435367E+00
         13   -1    0    0    0    0  0.00000000000E+00  0.00000000000E+00  0.14999999963E+04  0.15000000000E+04  0.10566000000E+00 0. -1.
        994   -1    0    0    0    0 -0.00000000000E+00 -0.00000000000E+00  0.11368683772E-12  0.17120000000E+03  0.17120000000E+03 0.  0.
         13    1    1    2    0    0 -0.99241828154E+01  0.14971980612E+02  0.66780296375E+02  0.69153949677E+02  0.10566000000E+00 0. -1.
        994    1    1    2    0    0  0.12084695139E+02 -0.15402894128E+02  0.35629338273E+01  0.17235261385E+03  0.17120000000E+03 0.  0.
        998    1    1    2    0    0 -0.21605123232E+01  0.43091351661E+00  0.14296567661E+04  0.14296934365E+04  0.10000000000E+02 0. -1.
</event>
<event>
 5    1  0.1503263E-008  0.3848801E+03  0.7957747E-01  0.3430181E+00
         13   -1    0    0    0    0  0.00000000000E+00  0.00000000000E+00  0.14999999963E+04  0.15000000000E+04  0.10566000000E+00 0.  1.
        994   -1    0    0    0    0 -0.00000000000E+00 -0.00000000000E+00  0.11368683772E-12  0.17120000000E+03  0.17120000000E+03 0.  0.
         13    1    1    2    0    0 -0.10940459621E+02  0.14375115616E+02  0.10741122550E+03  0.10891978761E+03  0.10566000000E+00 0.  1.
        994    1    1    2    0    0 -0.21851242981E+01  0.21488938129E+00  0.17055244794E+01  0.17122257374E+03  0.17120000000E+03 0.  0.
        998    1    1    2    0    0  0.13125583919E+02 -0.14590004997E+02  0.13908832463E+04  0.13910576386E+04  0.10000000000E+02 0.  1.
</event>
<event>
 5    1  0.1503263E-008  0.3846339E+03  0.7957747E-01  0.3431227E+00
         13   -1    0    0    0    0  0.00000000000E+00  0.00000000000E+00  0.14999999963E+04  0.15000000000E+04  0.10566000000E+00 0. -1.
        994   -1    0    0    0    0 -0.00000000000E+00 -0.00000000000E+00  0.11368683772E-12  0.17120000000E+03  0.17120000000E+03 0.  0.
         13    1    1    2    0    0  0.19559371442E+02 -0.69685173669E+01  0.10950728180E+03  0.11145844597E+03  0.10566000000E+00 0. -1.
        994    1    1    2    0    0 -0.18662949830E+02  0.18443677187E+02  0.40821628797E+01  0.17324716153E+03  0.17120000000E+03 0.  0.
        998    1    1    2    0    0 -0.89642161224E+00 -0.11475159820E+02  0.13864105516E+04  0.13864943925E+04  0.10000000000E+02 0. -1.
</event>
<event>
 5    1  0.1581742E-008  0.3861076E+03  0.7957747E-01  0.3424988E+00
         13   -1    0    0    0    0  0.00000000000E+00  0.00000000000E+00  0.14999999963E+04  0.15000000000E+04  0.10566000000E+00 0. -1.
        994   -1    0    0    0    0 -0.00000000000E+00 -0.00000000000E+00  0.11368683772E-12  0.17120000000E+03  0.17120000000E+03 0.  0.
         13    1    1    2    0    0 -0.57216701076E+01 -0.10900624291E+02  0.73200410401E+02  0.74228514505E+02  0.10566000000E+00 0. -1.
        994    1    1    2    0    0  0.47776080807E+01  0.25846733862E+01  0.11779414191E+01  0.17129020293E+03  0.17120000000E+03 0.  0.
        998    1    1    2    0    0  0.94406202692E+00  0.83159509048E+01  0.14256216445E+04  0.14256812826E+04  0.10000000000E+02 0. -1.
</event>
<event>
 5    1  0.1503263E-008  0.3791697E+03  0.7957747E-01  0.3454782E+00
         13   -1    0    0    0    0  0.00000000000E+00  0.00000000000E+00  0.14999999963E+04  0.15000000000E+04  0.10566000000E+00 0.  1.
        994   -1    0    0    0    0 -0.00000000000E+00 -0.00000000000E+00  0.11368683772E-12  0.17120000000E+03  0.17120000000E+03 0.  0.
         13    1    1    2    0    0  0.39404604084E+02 -0.30365310115E+01  0.14577341541E+03  0.15103590020E+03  0.10566000000E+00 0.  1.
        994    1    1    2    0    0 -0.47885052461E+02  0.32532242476E+02  0.15870041421E+02  0.18141836529E+03  0.17120000000E+03 0.  0.
        998    1    1    2    0    0  0.84804483771E+01 -0.29495711464E+02  0.13383565394E+04  0.13387457345E+04  0.10000000000E+02 0.  1.
</event>
<event>
 5    1  0.1503263E-008  0.4026461E+03  0.7957747E-01  0.3358115E+00
         13   -1    0    0    0    0  0.00000000000E+00  0.00000000000E+00  0.14999999963E+04  0.15000000000E+04  0.10566000000E+00 0.  1.
        994   -1    0    0    0    0 -0.00000000000E+00 -0.00000000000E+00  0.11368683772E-12  0.17120000000E+03  0.17120000000E+03 0.  0.
         13    1    1    2    0    0 -0.16614217762E+02  0.16467221801E+02 -0.36667993332E+01  0.23678222211E+02  0.10566000000E+00 0.  1.
        994    1    1    2    0    0  0.24668414779E+02 -0.28574469740E+02  0.35028813094E+02  0.17877776359E+03  0.17120000000E+03 0.  0.
        998    1    1    2    0    0 -0.80541970176E+01  0.12107247940E+02  0.14686379825E+04  0.14687440142E+04  0.10000000000E+02 0.  1.
</event>
<event>
 5    1  0.1503263E-008  0.3817927E+03  0.7957747E-01  0.3443390E+00
         13   -1    0    0    0    0  0.00000000000E+00  0.00000000000E+00  0.14999999963E+04  0.15000000000E+04  0.10566000000E+00 0. -1.
        994   -1    0    0    0    0 -0.00000000000E+00 -0.00000000000E+00  0.11368683772E-12  0.17120000000E+03  0.17120000000E+03 0.  0.
         13    1    1    2    0    0  0.12161196701E+02  0.11222416067E+02  0.40937305162E+02  0.44155536976E+02  0.10566000000E+00 0. -1.
        994    1    1    2    0    0 -0.80349253147E+01 -0.10318078836E+02  0.37995066272E+01  0.17174079022E+03  0.17120000000E+03 0.  0.
        998    1    1    2    0    0 -0.41262713867E+01 -0.90433723138E+00  0.14552631845E+04  0.14553036728E+04  0.10000000000E+02 0. -1.
</event>
<event>
 5    1  0.1503263E-008  0.3838781E+03  0.7957747E-01  0.3434444E+00
         13   -1    0    0    0    0  0.00000000000E+00  0.00000000000E+00  0.14999999963E+04  0.15000000000E+04  0.10566000000E+00 0. -1.
        994   -1    0    0    0    0 -0.00000000000E+00 -0.00000000000E+00  0.11368683772E-12  0.17120000000E+03  0.17120000000E+03 0.  0.
         13    1    1    2    0    0 -0.17246890785E+02 -0.51892636086E+01  0.74329113003E+02  0.76480140575E+02  0.10566000000E+00 0. -1.
        994    1    1    2    0    0  0.96601698845E+01  0.27981272223E+01  0.25220870926E+01  0.17151370010E+03  0.17120000000E+03 0.  0.
        998    1    1    2    0    0  0.75867209005E+01  0.23911363863E+01  0.14231487962E+04  0.14232061593E+04  0.10000000000E+02 0. -1.
</event>
<event>
 5    1  0.1503263E-008  0.3703507E+03  0.7957747E-01  0.3494281E+00
         13   -1    0    0    0    0  0.00000000000E+00  0.00000000000E+00  0.14999999963E+04  0.15000000000E+04  0.10566000000E+00 0.  1.
        994   -1    0    0    0    0 -0.00000000000E+00 -0.00000000000E+00  0.11368683772E-12  0.17120000000E+03  0.17120000000E+03 0.  0.
         13    1    1    2    0    0  0.49117181677E+02 -0.14723759406E+03  0.68139650827E+03  0.69885092781E+03  0.10566000000E+00 0.  1.
        994    1    1    2    0    0 -0.37553501309E+02  0.14818932612E+03  0.94710265264E+02  0.24829381020E+03  0.17120000000E+03 0.  0.
        998    1    1    2    0    0 -0.11563680368E+02 -0.95173205243E+00  0.72389322274E+03  0.72405526200E+03  0.10000000000E+02 0.  0.
</event>
<event>
 5    1  0.1503263E-008  0.3829520E+03  0.7957747E-01  0.3438405E+00
         13   -1    0    0    0    0  0.00000000000E+00  0.00000000000E+00  0.14999999963E+04  0.15000000000E+04  0.10566000000E+00 0.  1.
        994   -1    0    0    0    0 -0.00000000000E+00 -0.00000000000E+00  0.11368683772E-12  0.17120000000E+03  0.17120000000E+03 0.  0.
         13    1    1    2    0    0 -0.11718128020E+02  0.23378959065E+02  0.14126938060E+03  0.14366954900E+03  0.10566000000E+00 0.  1.
        994    1    1    2    0    0  0.66198181286E+01 -0.20028684072E+00  0.27955735341E+01  0.17135086034E+03  0.17120000000E+03 0.  0.
        998    1    1    2    0    0  0.50983098913E+01 -0.23178672225E+02  0.13559350421E+04  0.13561795907E+04  0.10000000000E+02 0.  1.
</event>
<event>
 5    1  0.1503263E-008  0.3855037E+03  0.7957747E-01  0.3427539E+00
         13   -1    0    0    0    0  0.00000000000E+00  0.00000000000E+00  0.14999999963E+04  0.15000000000E+04  0.10566000000E+00 0. -1.
        994   -1    0    0    0    0 -0.00000000000E+00 -0.00000000000E+00  0.11368683772E-12  0.17120000000E+03  0.17120000000E+03 0.  0.
         13    1    1    2    0    0 -0.53149208846E+01 -0.12483827943E+02  0.68767840463E+02  0.70093661555E+02  0.10566000000E+00 0. -1.
        994    1    1    2    0    0  0.72191214051E+01  0.27983065388E+01  0.15771095348E+01  0.17138224385E+03  0.17120000000E+03 0.  0.
        998    1    1    2    0    0 -0.19042005205E+01  0.96855214044E+01  0.14296550463E+04  0.14297240946E+04  0.10000000000E+02 0. -1.
</event>
<event>
 5    1  0.1503263E-008  0.3796147E+03  0.7957747E-01  0.3452838E+00
         13   -1    0    0    0    0  0.00000000000E+00  0.00000000000E+00  0.14999999963E+04  0.15000000000E+04  0.10566000000E+00 0. -1.
        994   -1    0    0    0    0 -0.00000000000E+00 -0.00000000000E+00  0.11368683772E-12  0.17120000000E+03  0.17120000000E+03 0.  0.
         13    1    1    2    0    0 -0.80327324535E+01 -0.62562870612E+01  0.10283224648E+02  0.14471412911E+02  0.10566000000E+00 0. -1.
        994    1    1    2    0    0  0.27142788488E+01 -0.74540299237E+01  0.45384249923E+01  0.17144377263E+03  0.17120000000E+03 0.  0.
        998    1    1    2    0    0  0.53184536047E+01  0.13710316985E+02  0.14851783466E+04  0.14852848145E+04  0.10000000000E+02 0. -1.
</event>
<event>
 5    1  0.1503263E-008  0.3841177E+03  0.7957747E-01  0.3433423E+00
         13   -1    0    0    0    0  0.00000000000E+00  0.00000000000E+00  0.14999999963E+04  0.15000000000E+04  0.10566000000E+00 0.  1.
        994   -1    0    0    0    0 -0.00000000000E+00 -0.00000000000E+00  0.11368683772E-12  0.17120000000E+03  0.17120000000E+03 0.  0.
         13    1    1    2    0    0  0.17238300651E+02  0.61264249459E+02  0.95025345220E+02  0.11436911589E+03  0.10566000000E+00 0.  1.
        994    1    1    2    0    0 -0.26503607451E+02 -0.63651620461E+02  0.36315347475E+02  0.18810160674E+03  0.17120000000E+03 0.  0.
        998    1    1    2    0    0  0.92653068004E+01  0.23873710020E+01  0.13686593036E+04  0.13687292774E+04  0.10000000000E+02 0.  1.
</event>
<event>
 5    1  0.1503263E-008  0.3815053E+03  0.7957747E-01  0.3444630E+00
         13   -1    0    0    0    0  0.00000000000E+00  0.00000000000E+00  0.14999999963E+04  0.15000000000E+04  0.10566000000E+00 0. -1.
        994   -1    0    0    0    0 -0.00000000000E+00 -0.00000000000E+00  0.11368683772E-12  0.17120000000E+03  0.17120000000E+03 0.  0.
         13    1    1    2    0    0  0.27050255002E+02  0.12530343075E+02  0.17112023906E+03  0.17369764873E+03  0.10566000000E+00 0. -1.
        994    1    1    2    0    0  0.19162421128E+02 -0.14120516178E+01  0.46042587303E+01  0.17233639045E+03  0.17120000000E+03 0.  0.
        998    1    1    2    0    0 -0.46212676131E+02 -0.11118291457E+02  0.13242754985E+04  0.13251659608E+04  0.10000000000E+02 0. -1.
</event>
<event>
 5    1  0.1503263E-008  0.3832402E+03  0.7957747E-01  0.3437170E+00
         13   -1    0    0    0    0  0.00000000000E+00  0.00000000000E+00  0.14999999963E+04  0.15000000000E+04  0.10566000000E+00 0. -1.
        994   -1    0    0    0    0 -0.00000000000E+00 -0.00000000000E+00  0.11368683772E-12  0.17120000000E+03  0.17120000000E+03 0.  0.
         13    1    1    2    0    0 -0.10083834156E+02  0.20834328627E+02  0.98974825234E+02  0.10164536465E+03  0.10566000000E+00 0. -1.
        994    1    1    2    0    0  0.93262542256E+01 -0.23799118533E+02  0.46704004893E+01  0.17316070484E+03  0.17120000000E+03 0.  0.
        998    1    1    2    0    0  0.75757992995E+00  0.29647899064E+01  0.13963547706E+04  0.13963939305E+04  0.10000000000E+02 0. -1.
</event>
<event>
 5    1  0.1503263E-008  0.3837142E+03  0.7957747E-01  0.3435144E+00
         13   -1    0    0    0    0  0.00000000000E+00  0.00000000000E+00  0.14999999963E+04  0.15000000000E+04  0.10566000000E+00 0.  1.
        994   -1    0    0    0    0 -0.00000000000E+00 -0.00000000000E+00  0.11368683772E-12  0.17120000000E+03  0.17120000000E+03 0.  0.
         13    1    1    2    0    0 -0.14230952380E+02  0.94268478129E+01  0.65062068458E+02  0.67264176063E+02  0.10566000000E+00 0.  1.
        994    1    1    2    0    0  0.63288656615E+01 -0.32742821693E+01  0.24375800129E+01  0.17136556615E+03  0.17120000000E+03 0.  0.
        998    1    1    2    0    0  0.79020867180E+01 -0.61525656437E+01  0.14325003478E+04  0.14325702578E+04  0.10000000000E+02 0.  1.
</event>
<event>
 5    1  0.1503263E-008  0.3845787E+03  0.7957747E-01  0.3431461E+00
         13   -1    0    0    0    0  0.00000000000E+00  0.00000000000E+00  0.14999999963E+04  0.15000000000E+04  0.10566000000E+00 0. -1.
        994   -1    0    0    0    0 -0.00000000000E+00 -0.00000000000E+00  0.11368683772E-12  0.17120000000E+03  0.17120000000E+03 0.  0.
         13    1    1    2    0    0  0.61314968637E+01 -0.10224977575E+02  0.39169974685E+02  0.40944395234E+02  0.10566000000E+00 0. -1.
        994    1    1    2    0    0 -0.38725012331E+00  0.37513253133E+01  0.18862787956E+01  0.17125192102E+03  0.17120000000E+03 0.  0.
        998    1    1    2    0    0 -0.57442467404E+01  0.64736522622E+01  0.14589437428E+04  0.14590036837E+04  0.10000000000E+02 0. -1.
</event>
<event>
 5    1  0.1503263E-008  0.3836357E+03  0.7957747E-01  0.3435479E+00
         13   -1    0    0    0    0  0.00000000000E+00  0.00000000000E+00  0.14999999963E+04  0.15000000000E+04  0.10566000000E+00 0.  1.
        994   -1    0    0    0    0 -0.00000000000E+00 -0.00000000000E+00  0.11368683772E-12  0.17120000000E+03  0.17120000000E+03 0.  0.
         13    1    1    2    0    0  0.76331592658E+00 -0.13525706806E+02  0.37561398677E+02  0.39929903962E+02  0.10566000000E+00 0.  1.
        994    1    1    2    0    0 -0.35903275130E+02  0.17226031409E+02  0.75649567914E+01  0.17593308357E+03  0.17120000000E+03 0.  0.
        998    1    1    2    0    0  0.35139959204E+02 -0.37003246032E+01  0.14548736408E+04  0.14553370125E+04  0.10000000000E+02 0.  1.
</event>
<event>
 5    1  0.1503263E-008  0.4046166E+03  0.7957747E-01  0.3350511E+00
         13   -1    0    0    0    0  0.00000000000E+00  0.00000000000E+00  0.14999999963E+04  0.15000000000E+04  0.10566000000E+00 0.  1.
        994   -1    0    0    0    0 -0.00000000000E+00 -0.00000000000E+00  0.11368683772E-12  0.17120000000E+03  0.17120000000E+03 0.  0.
         13    1    1    2    0    0  0.61592697035E+01  0.36321048333E+02  0.98470116714E+01  0.38133055978E+02  0.10566000000E+00 0.  1.
        994    1    1    2    0    0 -0.49364371969E+01 -0.33191094380E+02  0.35072392717E+02  0.17794811010E+03  0.17120000000E+03 0.  0.
        998    1    1    2    0    0 -0.12228325065E+01 -0.31299539530E+01  0.14550805919E+04  0.14551188339E+04  0.10000000000E+02 0.  1.
</event>
<event>
 5    1  0.1503263E-008  0.3691088E+03  0.7957747E-01  0.3499997E+00
         13   -1    0    0    0    0  0.00000000000E+00  0.00000000000E+00  0.14999999963E+04  0.15000000000E+04  0.10566000000E+00 0.  1.
        994   -1    0    0    0    0 -0.00000000000E+00 -0.00000000000E+00  0.11368683772E-12  0.17120000000E+03  0.17120000000E+03 0.  0.
         13    1    1    2    0    0  0.55466591023E+01 -0.98390466220E+01  0.12054653763E+01  0.11359426765E+02  0.10566000000E+00 0.  1.
        994    1    1    2    0    0 -0.59137472101E+01  0.86888193607E+01  0.10853418515E+02  0.17186536789E+03  0.17120000000E+03 0.  0.
        998    1    1    2    0    0  0.36708810786E+00  0.11502272613E+01  0.14879411124E+04  0.14879752053E+04  0.10000000000E+02 0.  1.
</event>
<event>
 5    1  0.1503263E-008  0.3853656E+03  0.7957747E-01  0.3428123E+00
         13   -1    0    0    0    0  0.00000000000E+00  0.00000000000E+00  0.14999999963E+04  0.15000000000E+04  0.10566000000E+00 0. -1.
        994   -1    0    0    0    0 -0.00000000000E+00 -0.00000000000E+00  0.11368683772E-12  0.17120000000E+03  0.17120000000E+03 0.  0.
         13    1    1    2    0    0 -0.10753502744E+02  0.60878411641E+01  0.53336031531E+02  0.54748909166E+02  0.10566000000E+00 0. -1.
        994    1    1    2    0    0  0.62888775820E+01 -0.26922085298E+01  0.16024756992E+01  0.17134411544E+03  0.17120000000E+03 0.  0.
        998    1    1    2    0    0  0.44646251620E+01 -0.33956326343E+01  0.14450614890E+04  0.14451069754E+04  0.10000000000E+02 0. -1.
</event>
<event>
 5    1  0.1503263E-008  0.4083160E+03  0.7957747E-01  0.3336430E+00
         13   -1    0    0    0    0  0.00000000000E+00  0.00000000000E+00  0.14999999963E+04  0.15000000000E+04  0.10566000000E+00 0. -1.
        994   -1    0    0    0    0 -0.00000000000E+00 -0.00000000000E+00  0.11368683772E-12  0.17120000000E+03  0.17120000000E+03 0.  0.
         13    1    1    2    0    0  0.44541388744E+02  0.12040562140E+03  0.21797454031E+03  0.25297106626E+03  0.10566000000E+00 0. -1.
        994    1    1    2    0    0 -0.33760272506E+02 -0.10691214920E+03  0.85908035480E+02  0.22194502519E+03  0.17120000000E+03 0.  0.
        998    1    1    2    0    0 -0.10781116239E+02 -0.13493472199E+02  0.11961174205E+04  0.11962839085E+04  0.10000000000E+02 0. -1.
</event>
<event>
 5    1  0.1503263E-008  0.3830227E+03  0.7957747E-01  0.3438102E+00
         13   -1    0    0    0    0  0.00000000000E+00  0.00000000000E+00  0.14999999963E+04  0.15000000000E+04  0.10566000000E+00 0.  1.
        994   -1    0    0    0    0 -0.00000000000E+00 -0.00000000000E+00  0.11368683772E-12  0.17120000000E+03  0.17120000000E+03 0.  0.
         13    1    1    2    0    0 -0.18751444578E+02 -0.17780064451E+02  0.14492932456E+03  0.14721503880E+03  0.10566000000E+00 0.  1.
        994    1    1    2    0    0  0.71533249561E+01 -0.91665414329E+01  0.30626481982E+01  0.17162172168E+03  0.17120000000E+03 0.  0.
        998    1    1    2    0    0  0.11598119622E+02  0.26946605884E+02  0.13520080235E+04  0.13523632395E+04  0.10000000000E+02 0.  1.
</event>
<event>
 5    1  0.1503263E-008  0.3854656E+03  0.7957747E-01  0.3427700E+00
         13   -1    0    0    0    0  0.00000000000E+00  0.00000000000E+00  0.14999999963E+04  0.15000000000E+04  0.10566000000E+00 0.  1.
        994   -1    0    0    0    0 -0.00000000000E+00 -0.00000000000E+00  0.11368683772E-12  0.17120000000E+03  0.17120000000E+03 0.  0.
         13    1    1    2    0    0  0.83179423205E+01  0.13549684250E+02  0.84574119917E+02  0.86055650781E+02  0.10566000000E+00 0.  1.
        994    1    1    2    0    0 -0.35022467533E+01 -0.20854892771E+02  0.28689857618E+01  0.17252496447E+03  0.17120000000E+03 0.  0.
        998    1    1    2    0    0 -0.48156955672E+01  0.73052085207E+01  0.14125568906E+04  0.14126193848E+04  0.10000000000E+02 0.  1.
</event>
<event>
 5    1  0.1503263E-008  0.3783051E+03  0.7957747E-01  0.3458572E+00
         13   -1    0    0    0    0  0.00000000000E+00  0.00000000000E+00  0.14999999963E+04  0.15000000000E+04  0.10566000000E+00 0.  1.
        994   -1    0    0    0    0 -0.00000000000E+00 -0.00000000000E+00  0.11368683772E-12  0.17120000000E+03  0.17120000000E+03 0.  0.
         13    1    1    2    0    0 -0.21071922513E+02 -0.20240528283E+02  0.78893058033E+02  0.84129844130E+02  0.10566000000E+00 0.  1.
        994    1    1    2    0    0  0.25554660429E+02  0.19814695765E+02  0.85144385363E+01  0.17443508392E+03  0.17120000000E+03 0.  0.
        998    1    1    2    0    0 -0.44827379162E+01  0.42583251830E+00  0.14125924997E+04  0.14126350720E+04  0.10000000000E+02 0.  1.
</event>
<event>
 5    1  0.1503263E-008  0.3817567E+03  0.7957747E-01  0.3443545E+00
         13   -1    0    0    0    0  0.00000000000E+00  0.00000000000E+00  0.14999999963E+04  0.15000000000E+04  0.10566000000E+00 0.  1.
        994   -1    0    0    0    0 -0.00000000000E+00 -0.00000000000E+00  0.11368683772E-12  0.17120000000E+03  0.17120000000E+03 0.  0.
         13    1    1    2    0    0 -0.21041702842E+02 -0.74875688701E+01  0.80136474558E+02  0.83190640487E+02  0.10566000000E+00 0.  1.
        994    1    1    2    0    0  0.43161527444E+01 -0.31053174570E+01  0.33429704799E+01  0.17131517044E+03  0.17120000000E+03 0.  0.
        998    1    1    2    0    0  0.16725550098E+02  0.10592886327E+02  0.14165205512E+04  0.14166941891E+04  0.10000000000E+02 0.  1.
</event>
<event>
 5    1  0.1666461E-008  0.3857466E+03  0.7957747E-01  0.3426512E+00
         13   -1    0    0    0    0  0.00000000000E+00  0.00000000000E+00  0.14999999963E+04  0.15000000000E+04  0.10566000000E+00 0.  1.
        994   -1    0    0    0    0 -0.00000000000E+00 -0.00000000000E+00  0.11368683772E-12  0.17120000000E+03  0.17120000000E+03 0.  0.
         13    1    1    2    0    0 -0.21350509436E+01  0.13337952715E+02  0.67712524184E+02  0.69046770530E+02  0.10566000000E+00 0.  1.
        994    1    1    2    0    0  0.46934483120E+01 -0.18839587940E+02  0.24976002033E+01  0.17231551450E+03  0.17120000000E+03 0.  0.
        998    1    1    2    0    0 -0.25583973684E+01  0.55016352246E+01  0.14297898719E+04  0.14298377150E+04  0.10000000000E+02 0.  1.
</event>
<event>
 5    1  0.1503263E-008  0.3817048E+03  0.7957747E-01  0.3443769E+00
         13   -1    0    0    0    0  0.00000000000E+00  0.00000000000E+00  0.14999999963E+04  0.15000000000E+04  0.10566000000E+00 0. -1.
        994   -1    0    0    0    0 -0.00000000000E+00 -0.00000000000E+00  0.11368683772E-12  0.17120000000E+03  0.17120000000E+03 0.  0.
         13    1    1    2    0    0  0.66802928467E+01 -0.94124449153E+01  0.20015541370E+02  0.23105269792E+02  0.10566000000E+00 0. -1.
        994    1    1    2    0    0  0.13556694645E+02 -0.21998455063E+01  0.39023111994E+01  0.17179432855E+03  0.17120000000E+03 0.  0.
        998    1    1    2    0    0 -0.20236987492E+02  0.11612290422E+02  0.14760821437E+04  0.14763004017E+04  0.10000000000E+02 0. -1.
</event>
<event>
 5    1  0.1503263E-008  0.3817126E+03  0.7957747E-01  0.3443735E+00
         13   -1    0    0    0    0  0.00000000000E+00  0.00000000000E+00  0.14999999963E+04  0.15000000000E+04  0.10566000000E+00 0. -1.
        994   -1    0    0    0    0 -0.00000000000E+00 -0.00000000000E+00  0.11368683772E-12  0.17120000000E+03  0.17120000000E+03 0.  0.
         13    1    1    2    0    0  0.96130850628E+01  0.86880259957E+01  0.24136987679E+02  0.27395228387E+02  0.10566000000E+00 0. -1.
        994    1    1    2    0    0 -0.18459425143E-01 -0.18450630329E+02  0.44035427462E+01  0.17224766265E+03  0.17120000000E+03 0.  0.
        998    1    1    2    0    0 -0.95946256377E+01  0.97626043332E+01  0.14714594659E+04  0.14715571090E+04  0.10000000000E+02 0. -1.
</event>
<event>
 5    1  0.1503263E-008  0.3822855E+03  0.7957747E-01  0.3441267E+00
         13   -1    0    0    0    0  0.00000000000E+00  0.00000000000E+00  0.14999999963E+04  0.15000000000E+04  0.10566000000E+00 0. -1.
        994   -1    0    0    0    0 -0.00000000000E+00 -0.00000000000E+00  0.11368683772E-12  0.17120000000E+03  0.17120000000E+03 0.  0.
         13    1    1    2    0    0 -0.23527702757E+02  0.24612137420E+02  0.20373111406E+03  0.20655674307E+03  0.10566000000E+00 0. -1.
        994    1    1    2    0    0  0.27971536171E+02  0.60773551930E+01  0.57070897742E+01  0.17367023912E+03  0.17120000000E+03 0.  0.
        998    1    1    2    0    0 -0.44438334143E+01 -0.30689492613E+02  0.12905617924E+04  0.12909730178E+04  0.10000000000E+02 0. -1.
</event>
<event>
 5    1  0.1503263E-008  0.3844155E+03  0.7957747E-01  0.3432155E+00
         13   -1    0    0    0    0  0.00000000000E+00  0.00000000000E+00  0.14999999963E+04  0.15000000000E+04  0.10566000000E+00 0. -1.
        994   -1    0    0    0    0 -0.00000000000E+00 -0.00000000000E+00  0.11368683772E-12  0.17120000000E+03  0.17120000000E+03 0.  0.
         13    1    1    2    0    0  0.52601864878E+01 -0.18401719166E+02  0.98190390563E+02  0.10003827664E+03  0.10566000000E+00 0. -1.
        994    1    1    2    0    0  0.43434247821E+01  0.93570058921E+01  0.22713417489E+01  0.17152556046E+03  0.17120000000E+03 0.  0.
        998    1    1    2    0    0 -0.96036112700E+01  0.90447132741E+01  0.13995382640E+04  0.13996361629E+04  0.10000000000E+02 0. -1.
</event>
<event>
 5    1  0.1503263E-008  0.3821936E+03  0.7957747E-01  0.3441663E+00
         13   -1    0    0    0    0  0.00000000000E+00  0.00000000000E+00  0.14999999963E+04  0.15000000000E+04  0.10566000000E+00 0.  1.
        994   -1    0    0    0    0 -0.00000000000E+00 -0.00000000000E+00  0.11368683772E-12  0.17120000000E+03  0.17120000000E+03 0.  0.
         13    1    1    2    0    0 -0.14368548644E+02  0.19585422728E+02  0.10235918799E+03  0.10520198906E+03  0.10566000000E+00 0.  1.
        994    1    1    2    0    0  0.81147739095E+01 -0.33471722671E+00  0.32488793132E+01  0.17142332632E+03  0.17120000000E+03 0.  0.
        998    1    1    2    0    0  0.62537747344E+01 -0.19250705502E+02  0.13943919290E+04  0.13945746846E+04  0.10000000000E+02 0.  1.
</event>
<event>
 5    1  0.1503263E-008  0.3837480E+03  0.7957747E-01  0.3434999E+00
         13   -1    0    0    0    0  0.00000000000E+00  0.00000000000E+00  0.14999999963E+04  0.15000000000E+04  0.10566000000E+00 0. -1.
        994   -1    0    0    0    0 -0.00000000000E+00 -0.00000000000E+00  0.11368683772E-12  0.17120000000E+03  0.17120000000E+03 0.  0.
         13    1    1    2    0    0  0.11233391496E+02 -0.83731543431E+01  0.44125202872E+02  0.46296257848E+02  0.10566000000E+00 0. -1.
        994    1    1    2    0    0 -0.49891409880E+01 -0.62628029870E+00  0.23364829695E+01  0.17128976300E+03  0.17120000000E+03 0.  0.
        998    1    1    2    0    0 -0.62442505084E+01  0.89994346418E+01  0.14535383104E+04  0.14536139792E+04  0.10000000000E+02 0. -1.
</event>
<event>
 5    1  0.1503263E-008  0.3815924E+03  0.7957747E-01  0.3444254E+00
         13   -1    0    0    0    0  0.00000000000E+00  0.00000000000E+00  0.14999999963E+04  0.15000000000E+04  0.10566000000E+00 0.  1.
        994   -1    0    0    0    0 -0.00000000000E+00 -0.00000000000E+00  0.11368683772E-12  0.17120000000E+03  0.17120000000E+03 0.  0.
         13    1    1    2    0    0  0.17084432294E+02  0.14306694484E+02  0.73762417009E+02  0.77054945726E+02  0.10566000000E+00 0.  1.
        994    1    1    2    0    0 -0.18344080731E+02  0.13430246404E+01  0.44572733161E+01  0.17224289912E+03  0.17120000000E+03 0.  0.
        998    1    1    2    0    0  0.12596484375E+01 -0.15649719125E+02  0.14217803060E+04  0.14219021552E+04  0.10000000000E+02 0.  1.
</event>
<event>
 5    1  0.1731419E-008  0.3859222E+03  0.7957747E-01  0.3425770E+00
         13   -1    0    0    0    0  0.00000000000E+00  0.00000000000E+00  0.14999999963E+04  0.15000000000E+04  0.10566000000E+00 0. -1.
        994   -1    0    0    0    0 -0.00000000000E+00 -0.00000000000E+00  0.11368683772E-12  0.17120000000E+03  0.17120000000E+03 0.  0.
         13    1    1    2    0    0 -0.18313143068E+01 -0.12018498861E+02  0.66658629050E+02  0.67758261620E+02  0.10566000000E+00 0. -1.
        994    1    1    2    0    0  0.24334100483E+01  0.16913468111E+01  0.12017650643E+01  0.17122986415E+03  0.17120000000E+03 0.  0.
        998    1    1    2    0    0 -0.60209574155E+00  0.10327152050E+02  0.14321396022E+04  0.14322118742E+04  0.10000000000E+02 0. -1.
</event>
<event>
 5    1  0.1503263E-008  0.3839215E+03  0.7957747E-01  0.3434259E+00
         13   -1    0    0    0    0  0.00000000000E+00  0.00000000000E+00  0.14999999963E+04  0.15000000000E+04  0.10566000000E+00 0.  1.
        994   -1    0    0    0    0 -0.00000000000E+00 -0.00000000000E+00  0.11368683772E-12  0.17120000000E+03  0.17120000000E+03 0.  0.
         13    1    1    2    0    0  0.69850047881E+01 -0.73894518957E+01  0.23032039607E+02  0.25176979638E+02  0.10566000000E+00 0.  1.
        994    1    1    2    0    0 -0.70379396059E+01  0.55463774513E+01  0.24315870819E+01  0.17145158941E+03  0.17120000000E+03 0.  0.
        998    1    1    2    0    0  0.52934817798E-01  0.18430744444E+01  0.14745363696E+04  0.14745714309E+04  0.10000000000E+02 0.  1.
</event>
<event>
 5    1  0.1503263E-008  0.3856674E+03  0.7957747E-01  0.3426846E+00
         13   -1    0    0    0    0  0.00000000000E+00  0.00000000000E+00  0.14999999963E+04  0.15000000000E+04  0.10566000000E+00 0. -1.
        994   -1    0    0    0    0 -0.00000000000E+00 -0.00000000000E+00  0.11368683772E-12  0.17120000000E+03  0.17120000000E+03 0.  0.
         13    1    1    2    0    0 -0.14385296208E+02  0.27652732261E+00  0.73173213872E+02  0.74574416570E+02  0.10566000000E+00 0. -1.
        994    1    1    2    0    0  0.21989864151E+02 -0.14768430953E+02  0.36050517627E+01  0.17327462906E+03  0.17120000000E+03 0.  0.
        998    1    1    2    0    0 -0.76045679430E+01  0.14491903630E+02  0.14232217306E+04  0.14233509544E+04  0.10000000000E+02 0. -1.
</event>
<event>
 5    1  0.1503263E-008  0.3817291E+03  0.7957747E-01  0.3443664E+00
         13   -1    0    0    0    0  0.00000000000E+00  0.00000000000E+00  0.14999999963E+04  0.15000000000E+04  0.10566000000E+00 0. -1.
        994   -1    0    0    0    0 -0.00000000000E+00 -0.00000000000E+00  0.11368683772E-12  0.17120000000E+03  0.17120000000E+03 0.  0.
         13    1    1    2    0    0 -0.44252921627E+01  0.10467967515E+02  0.18425775043E+02  0.21649062442E+02  0.10566000000E+00 0. -1.
        994    1    1    2    0    0  0.11944203604E+01 -0.92138520923E+01  0.35498429842E+01  0.17148866754E+03  0.17120000000E+03 0.  0.
        998    1    1    2    0    0  0.32308718022E+01 -0.12541154231E+01  0.14780243783E+04  0.14780622700E+04  0.10000000000E+02 0. -1.
</event>
<event>
 5    1  0.2098034E-008  0.3862191E+03  0.7957747E-01  0.3424518E+00
         13   -1    0    0    0    0  0.00000000000E+00  0.00000000000E+00  0.14999999963E+04  0.15000000000E+04  0.10566000000E+00 0. -1.
        994   -1    0    0    0    0 -0.00000000000E+00 -0.00000000000E+00  0.11368683772E-12  0.17120000000E+03  0.17120000000E+03 0.  0.
         13    1    1    2    0    0  0.11788520006E+02  0.30761376872E+01  0.70127024622E+02  0.71177542620E+02  0.10566000000E+00 0. -1.
        994    1    1    2    0    0 -0.12187971105E+02 -0.78583168237E+01  0.17152432617E+01  0.17182165708E+03  0.17120000000E+03 0.  0.
        998    1    1    2    0    0  0.39945109820E+00  0.47821791365E+01  0.14281577284E+04  0.14282008003E+04  0.10000000000E+02 0. -1.
</event>
<event>
 5    1  0.1503263E-008  0.3841177E+03  0.7957747E-01  0.3433423E+00
         13   -1    0    0    0    0  0.00000000000E+00  0.00000000000E+00  0.14999999963E+04  0.15000000000E+04  0.10566000000E+00 0.  1.
        994   -1    0    0    0    0 -0.00000000000E+00 -0.00000000000E+00  0.11368683772E-12  0.17120000000E+03  0.17120000000E+03 0.  0.
         13    1    1    2    0    0 -0.18786018365E+02  0.92603246021E+01  0.12288776720E+03  0.12465986759E+03  0.10566000000E+00 0.  1.
        994    1    1    2    0    0  0.21772775643E+01  0.16458249128E+02  0.29783300758E+01  0.17202884919E+03  0.17120000000E+03 0.  0.
        998    1    1    2    0    0  0.16608740800E+02 -0.25718573730E+02  0.13741338990E+04  0.13745112832E+04  0.10000000000E+02 0.  1.
</event>
<event>
 5    1  0.1503263E-008  0.3807108E+03  0.7957747E-01  0.3448069E+00
         13   -1    0    0    0    0  0.00000000000E+00  0.00000000000E+00  0.14999999963E+04  0.15000000000E+04  0.10566000000E+00 0. -1.
        994   -1    0    0    0    0 -0.00000000000E+00 -0.00000000000E+00  0.11368683772E-12  0.17120000000E+03  0.17120000000E+03 0.  0.
         13    1    1    2    0    0  0.33183529431E+02 -0.14534131079E+02  0.15836303194E+03  0.16245383542E+03  0.10566000000E+00 0. -1.
        994    1    1    2    0    0 -0.29609076771E+02  0.17298370176E+02  0.77065327373E+01  0.17477059731E+03  0.17120000000E+03 0.  0.
        998    1    1    2    0    0 -0.35744526598E+01 -0.27642390972E+01  0.13339304316E+04  0.13339755673E+04  0.10000000000E+02 0. -1.
</event>
<event>
 5    1  0.1503263E-008  0.3833894E+03  0.7957747E-01  0.3436532E+00
         13   -1    0    0    0    0  0.00000000000E+00  0.00000000000E+00  0.14999999963E+04  0.15000000000E+04  0.10566000000E+00 0.  1.
        994   -1    0    0    0    0 -0.00000000000E+00 -0.00000000000E+00  0.11368683772E-12  0.17120000000E+03  0.17120000000E+03 0.  0.
         13    1    1    2    0    0 -0.19953381916E+02 -0.26288384028E+01  0.88482666967E+02  0.90742722898E+02  0.10566000000E+00 0.  1.
        994    1    1    2    0    0  0.13012595107E+01  0.34527863831E+01  0.24768940710E+01  0.17125767140E+03  0.17120000000E+03 0.  0.
        998    1    1    2    0    0  0.18652122405E+02 -0.82394798034E+00  0.14090404352E+04  0.14091996057E+04  0.10000000000E+02 0.  1.
</event>
<event>
 5    1  0.1503263E-008  0.3771706E+03  0.7957747E-01  0.3463571E+00
         13   -1    0    0    0    0  0.00000000000E+00  0.00000000000E+00  0.14999999963E+04  0.15000000000E+04  0.10566000000E+00 0.  1.
        994   -1    0    0    0    0 -0.00000000000E+00 -0.00000000000E+00  0.11368683772E-12  0.17120000000E+03  0.17120000000E+03 0.  0.
         13    1    1    2    0    0 -0.17802409408E+02 -0.31482235485E+02  0.10853186589E+03  0.11439944934E+03  0.10566000000E+00 0.  1.
        994    1    1    2    0    0  0.33731831531E+02  0.21453260862E+02  0.10980014072E+02  0.17614789119E+03  0.17120000000E+03 0.  0.
        998    1    1    2    0    0 -0.15929422123E+02  0.10028974623E+02  0.13804881163E+04  0.13806526595E+04  0.10000000000E+02 0.  1.
</event>
<event>
 5    1  0.1503263E-008  0.3841228E+03  0.7957747E-01  0.3433401E+00
         13   -1    0    0    0    0  0.00000000000E+00  0.00000000000E+00  0.14999999963E+04  0.15000000000E+04  0.10566000000E+00 0. -1.
        994   -1    0    0    0    0 -0.00000000000E+00 -0.00000000000E+00  0.11368683772E-12  0.17120000000E+03  0.17120000000E+03 0.  0.
         13    1    1    2    0    0 -0.15104363748E+02  0.37956617013E+01  0.61230526506E+02  0.63180197785E+02  0.10566000000E+00 0. -1.
        994    1    1    2    0    0  0.12748048440E+01 -0.62994589469E+00  0.20729693453E+01  0.17121845450E+03  0.17120000000E+03 0.  0.
        998    1    1    2    0    0  0.13829558904E+02 -0.31657158066E+01  0.14366965004E+04  0.14368013477E+04  0.10000000000E+02 0. -1.
</event>
<event>
 5    1  0.1503263E-008  0.3741075E+03  0.7957747E-01  0.3477224E+00
         13   -1    0    0    0    0  0.00000000000E+00  0.00000000000E+00  0.14999999963E+04  0.15000000000E+04  0.10566000000E+00 0.  1.
        994   -1    0    0    0    0 -0.00000000000E+00 -0.00000000000E+00  0.11368683772E-12  0.17120000000E+03  0.17120000000E+03 0.  0.
         13    1    1    2    0    0  0.63891617832E+01  0.20245900815E+02  0.11274344675E+02  0.24038300688E+02  0.10566000000E+00 0.  1.
        994    1    1    2    0    0 -0.72894735172E+01 -0.20572713254E+02  0.14818891106E+02  0.17322070456E+03  0.17120000000E+03 0.  0.
        998    1    1    2    0    0  0.90031173402E+00  0.32681243951E+00  0.14739067605E+04  0.14739409948E+04  0.10000000000E+02 0.  1.
</event>
<event>
 5    1  0.1503263E-008  0.3734272E+03  0.7957747E-01  0.3480287E+00
         13   -1    0    0    0    0  0.00000000000E+00  0.00000000000E+00  0.14999999963E+04  0.15000000000E+04  0.10566000000E+00 0.  1.
        994   -1    0    0    0    0 -0.00000000000E+00 -0.00000000000E+00  0.11368683772E-12  0.17120000000E+03  0.17120000000E+03 0.  0.
         13    1    1    2    0    0 -0.31530544829E+02  0.23145952597E+01  0.33693018665E+02  0.46203498560E+02  0.10566000000E+00 0.  1.
        994    1    1    2    0    0  0.27325961322E+02  0.38570069452E+01  0.15462123166E+02  0.17409796644E+03  0.17120000000E+03 0.  0.
        998    1    1    2    0    0  0.42045835061E+01 -0.61716022049E+01  0.14508448544E+04  0.14508985350E+04  0.10000000000E+02 0.  1.
</event>
<event>
 5    1  0.1503263E-008  0.3686408E+03  0.7957747E-01  0.3502161E+00
         13   -1    0    0    0    0  0.00000000000E+00  0.00000000000E+00  0.14999999963E+04  0.15000000000E+04  0.10566000000E+00 0.  1.
        994   -1    0    0    0    0 -0.00000000000E+00 -0.00000000000E+00  0.11368683772E-12  0.17120000000E+03  0.17120000000E+03 0.  0.
         13    1    1    2    0    0 -0.55289733788E+02  0.46100667819E+02  0.32391508535E+03  0.33181805243E+03  0.10566000000E+00 0.  1.
        994    1    1    2    0    0  0.12922272222E+02  0.31118902605E+01  0.10595214098E+02  0.17204176104E+03  0.17120000000E+03 0.  0.
        998    1    1    2    0    0  0.42367461566E+02 -0.49212558080E+02  0.11654896968E+04  0.11673401865E+04  0.10000000000E+02 0.  1.
</event>
<event>
 5    1  0.1503263E-008  0.3800926E+03  0.7957747E-01  0.3450755E+00
         13   -1    0    0    0    0  0.00000000000E+00  0.00000000000E+00  0.14999999963E+04  0.15000000000E+04  0.10566000000E+00 0.  1.
        994   -1    0    0    0    0 -0.00000000000E+00 -0.00000000000E+00  0.11368683772E-12  0.17120000000E+03  0.17120000000E+03 0.  0.
         13    1    1    2    0    0 -0.15540259655E+02  0.88568073098E+01  0.38304707753E+02  0.42275341583E+02  0.10566000000E+00 0.  1.
        994    1    1    2    0    0  0.32388599230E+01 -0.70046965931E+01  0.42854494703E+01  0.17142742215E+03  0.17120000000E+03 0.  0.
        998    1    1    2    0    0  0.12301399732E+02 -0.18521107167E+01  0.14574098391E+04  0.14574972363E+04  0.10000000000E+02 0.  1.
</event>
<event>
 5    1  0.1503263E-008  0.3813114E+03  0.7957747E-01  0.3445468E+00
         13   -1    0    0    0    0  0.00000000000E+00  0.00000000000E+00  0.14999999963E+04  0.15000000000E+04  0.10566000000E+00 0.  1.
        994   -1    0    0    0    0 -0.00000000000E+00 -0.00000000000E+00  0.11368683772E-12  0.17120000000E+03  0.17120000000E+03 0.  0.
         13    1    1    2    0    0 -0.12330773064E+02  0.26335689530E+02  0.12623596463E+03  0.12954206435E+03  0.10566000000E+00 0.  1.
        994    1    1    2    0    0  0.11114837261E+02 -0.61189625877E+01  0.40086268888E+01  0.17171630790E+03  0.17120000000E+03 0.  0.
        998    1    1    2    0    0  0.12159358023E+01 -0.20216726943E+02  0.13697554048E+04  0.13699416277E+04  0.10000000000E+02 0.  1.
</event>
<event>
 5    1  0.1503263E-008  0.3789661E+03  0.7957747E-01  0.3455673E+00
         13   -1    0    0    0    0  0.00000000000E+00  0.00000000000E+00  0.14999999963E+04  0.15000000000E+04  0.10566000000E+00 0. -1.
        994   -1    0    0    0    0 -0.00000000000E+00 -0.00000000000E+00  0.11368683772E-12  0.17120000000E+03  0.17120000000E+03 0.  0.
         13    1    1    2    0    0 -0.27227375627E+02  0.60116306342E+01  0.77197382330E+02  0.82078722511E+02  0.10566000000E+00 0. -1.
        994    1    1    2    0    0  0.31308122273E+02 -0.12118541186E+01  0.79558508633E+01  0.17422514937E+03  0.17120000000E+03 0.  0.
        998    1    1    2    0    0 -0.40807466462E+01 -0.47997765156E+01  0.14148467631E+04  0.14148961281E+04  0.10000000000E+02 0. -1.
</event>
<event>
 5    1  0.1503263E-008  0.3861281E+03  0.7957747E-01  0.3424902E+00
         13   -1    0    0    0    0  0.00000000000E+00  0.00000000000E+00  0.14999999963E+04  0.15000000000E+04  0.10566000000E+00 0.  1.
        994   -1    0    0    0    0 -0.00000000000E+00 -0.00000000000E+00  0.11368683772E-12  0.17120000000E+03  0.17120000000E+03 0.  0.
         13    1    1    2    0    0 -0.68749553232E+01  0.95737711625E+01  0.68414068879E+02  0.69422028850E+02  0.10566000000E+00 0.  1.
        994    1    1    2    0    0  0.26977145332E+01 -0.16285892847E+01  0.11036269673E+01  0.17123255520E+03  0.17120000000E+03 0.  0.
        998    1    1    2    0    0  0.41772407900E+01 -0.79451818778E+01  0.14304823004E+04  0.14305454160E+04  0.10000000000E+02 0.  1.
</event>
<event>
 5    1  0.1503263E-008  0.4277097E+03  0.7957747E-01  0.3266546E+00
         13   -1    0    0    0    0  0.00000000000E+00  0.00000000000E+00  0.14999999963E+04  0.15000000000E+04  0.10566000000E+00 0. -1.
        994   -1    0    0    0    0 -0.00000000000E+00 -0.00000000000E+00  0.11368683772E-12  0.17120000000E+03  0.17120000000E+03 0.  0.
         13    1    1    2    0    0 -0.19532136343E+01  0.57995969135E+02  0.20340772313E+02  0.61490695733E+02  0.10566000000E+00 0. -1.
        994    1    1    2    0    0  0.14526981920E+00 -0.59319994172E+02  0.61243566758E+02  0.19125662676E+03  0.17120000000E+03 0.  0.
        998    1    1    2    0    0  0.18079438151E+01  0.13240250369E+01  0.14184156572E+04  0.14184526775E+04  0.10000000000E+02 0. -1.
</event>
<event>
 5    1  0.1503263E-008  0.3828495E+03  0.7957747E-01  0.3438844E+00
         13   -1    0    0    0    0  0.00000000000E+00  0.00000000000E+00  0.14999999963E+04  0.15000000000E+04  0.10566000000E+00 0.  1.
        994   -1    0    0    0    0 -0.00000000000E+00 -0.00000000000E+00  0.11368683772E-12  0.17120000000E+03  0.17120000000E+03 0.  0.
         13    1    1    2    0    0 -0.23115361182E+02 -0.16570813798E+02  0.16852580905E+03  0.17090895609E+03  0.10566000000E+00 0.  1.
        994    1    1    2    0    0  0.34407260194E+01 -0.11646613065E+01  0.27453027266E+01  0.17126053754E+03  0.17120000000E+03 0.  0.
        998    1    1    2    0    0  0.19674635163E+02  0.17735475105E+02  0.13287288845E+04  0.13290305064E+04  0.10000000000E+02 0.  1.
</event>
<event>
 5    1  0.1503263E-008  0.3706826E+03  0.7957747E-01  0.3492760E+00
         13   -1    0    0    0    0  0.00000000000E+00  0.00000000000E+00  0.14999999963E+04  0.15000000000E+04  0.10566000000E+00 0.  1.
        994   -1    0    0    0    0 -0.00000000000E+00 -0.00000000000E+00  0.11368683772E-12  0.17120000000E+03  0.17120000000E+03 0.  0.
         13    1    1    2    0    0  0.13913965636E+02  0.13475759119E+02  0.17387191248E+02  0.26029216413E+02  0.10566000000E+00 0.  1.
        994    1    1    2    0    0  0.91077054814E+01 -0.21920969164E+02  0.10858881963E+02  0.17317862023E+03  0.17120000000E+03 0.  0.
        998    1    1    2    0    0 -0.23021671117E+02  0.84452100456E+01  0.14717539231E+04  0.14719921634E+04  0.10000000000E+02 0.  1.
</event>
<event>
 5    1  0.1503263E-008  0.3856802E+03  0.7957747E-01  0.3426792E+00
         13   -1    0    0    0    0  0.00000000000E+00  0.00000000000E+00  0.14999999963E+04  0.15000000000E+04  0.10566000000E+00 0. -1.
        994   -1    0    0    0    0 -0.00000000000E+00 -0.00000000000E+00  0.11368683772E-12  0.17120000000E+03  0.17120000000E+03 0.  0.
         13    1    1    2    0    0  0.96738938464E+01  0.81999913076E+01  0.63572785307E+02  0.64825413808E+02  0.10566000000E+00 0. -1.
        994    1    1    2    0    0 -0.58790412364E+01 -0.28849595943E+01  0.14335311563E+01  0.17133120302E+03  0.17120000000E+03 0.  0.
        998    1    1    2    0    0 -0.37948526099E+01 -0.53150317132E+01  0.14349936798E+04  0.14350433832E+04  0.10000000000E+02 0. -1.
</event>
<event>
 5    1  0.1503263E-008  0.3835536E+03  0.7957747E-01  0.3435830E+00
         13   -1    0    0    0    0  0.00000000000E+00  0.00000000000E+00  0.14999999963E+04  0.15000000000E+04  0.10566000000E+00 0. -1.
        994   -1    0    0    0    0 -0.00000000000E+00 -0.00000000000E+00  0.11368683772E-12  0.17120000000E+03  0.17120000000E+03 0.  0.
         13    1    1    2    0    0 -0.20072030729E+02 -0.22011714559E+02  0.17177964920E+03  0.17434351447E+03  0.10566000000E+00 0. -1.
        994    1    1    2    0    0  0.13646598382E+02  0.25799857858E+02  0.51697007601E+01  0.17374702334E+03  0.17120000000E+03 0.  0.
        998    1    1    2    0    0  0.64254323467E+01 -0.37881432988E+01  0.13230506463E+04  0.13231094622E+04  0.10000000000E+02 0. -1.
</event>
<event>
 5    1  0.1503263E-008  0.3825103E+03  0.7957747E-01  0.3440300E+00
         13   -1    0    0    0    0  0.00000000000E+00  0.00000000000E+00  0.14999999963E+04  0.15000000000E+04  0.10566000000E+00 0.  1.
        994   -1    0    0    0    0 -0.00000000000E+00 -0.00000000000E+00  0.11368683772E-12  0.17120000000E+03  0.17120000000E+03 0.  0.
         13    1    1    2    0    0 -0.25965900697E+00 -0.22076257000E+02  0.85235927779E+02  0.88048867650E+02  0.10566000000E+00 0.  1.
        994    1    1    2    0    0 -0.17619485679E+01  0.11253835920E+02  0.33015928728E+01  0.17161029631E+03  0.17120000000E+03 0.  0.
        998    1    1    2    0    0  0.20216075748E+01  0.10822421081E+02  0.14114624756E+04  0.14115408360E+04  0.10000000000E+02 0.  1.
</event>
<event>
 5    1  0.1503263E-008  0.4015022E+03  0.7957747E-01  0.3362564E+00
         13   -1    0    0    0    0  0.00000000000E+00  0.00000000000E+00  0.14999999963E+04  0.15000000000E+04  0.10566000000E+00 0.  1.
        994   -1    0    0    0    0 -0.00000000000E+00 -0.00000000000E+00  0.11368683772E-12  0.17120000000E+03  0.17120000000E+03 0.  0.
         13    1    1    2    0    0  0.19026311136E+02  0.19538303687E+02  0.83762715748E+00  0.27284768822E+02  0.10566000000E+00 0.  1.
        994    1    1    2    0    0 -0.22184835043E+02 -0.86158694231E+01  0.30914323845E+02  0.17558910994E+03  0.17120000000E+03 0.  0.
        998    1    1    2    0    0  0.31585239067E+01 -0.10922434264E+02  0.14682480453E+04  0.14683261212E+04  0.10000000000E+02 0.  1.
</event>
<event>
 5    1  0.1503263E-008  0.3753765E+03  0.7957747E-01  0.3471540E+00
         13   -1    0    0    0    0  0.00000000000E+00  0.00000000000E+00  0.14999999963E+04  0.15000000000E+04  0.10566000000E+00 0.  1.
        994   -1    0    0    0    0 -0.00000000000E+00 -0.00000000000E+00  0.11368683772E-12  0.17120000000E+03  0.17120000000E+03 0.  0.
         13    1    1    2    0    0 -0.10670476704E+02  0.30036571552E+02  0.89229716825E+02  0.94752352121E+02  0.10566000000E+00 0.  1.
        994    1    1    2    0    0  0.11337385719E+00  0.20549353980E+02  0.79204222812E+01  0.17261072357E+03  0.17120000000E+03 0.  0.
        998    1    1    2    0    0  0.10557102847E+02 -0.50585925532E+02  0.14028498572E+04  0.14038369243E+04  0.10000000000E+02 0.  1.
</event>
<event>
 5    1  0.1503263E-008  0.3709031E+03  0.7957747E-01  0.3491751E+00
         13   -1    0    0    0    0  0.00000000000E+00  0.00000000000E+00  0.14999999963E+04  0.15000000000E+04  0.10566000000E+00 0. -1.
        994   -1    0    0    0    0 -0.00000000000E+00 -0.00000000000E+00  0.11368683772E-12  0.17120000000E+03  0.17120000000E+03 0.  0.
         13    1    1    2    0    0 -0.41447346567E+02  0.76644962164E+01  0.70143793827E+02  0.81833917273E+02  0.10566000000E+00 0. -1.
        994    1    1    2    0    0  0.43418945701E+02 -0.55758873764E+01  0.18168016591E+02  0.17763955695E+03  0.17120000000E+03 0.  0.
        998    1    1    2    0    0 -0.19715991340E+01 -0.20886088400E+01  0.14116881859E+04  0.14117265258E+04  0.10000000000E+02 0. -1.
</event>
<event>
 5    1  0.1503263E-008  0.3749581E+03  0.7957747E-01  0.3473410E+00
         13   -1    0    0    0    0  0.00000000000E+00  0.00000000000E+00  0.14999999963E+04  0.15000000000E+04  0.10566000000E+00 0. -1.
        994   -1    0    0    0    0 -0.00000000000E+00 -0.00000000000E+00  0.11368683772E-12  0.17120000000E+03  0.17120000000E+03 0.  0.
         13    1    1    2    0    0  0.10322147635E+02  0.18652398962E+01  0.50701714948E+01  0.11650907891E+02  0.10566000000E+00 0. -1.
        994    1    1    2    0    0 -0.11286018308E+02 -0.17602885330E+01  0.71439443932E+01  0.17172928919E+03  0.17120000000E+03 0.  0.
        998    1    1    2    0    0  0.96387067313E+00 -0.10495136322E+00  0.14877858804E+04  0.14878198029E+04  0.10000000000E+02 0. -1.
</event>
<event>
 5    1  0.1503263E-008  0.3762457E+03  0.7957747E-01  0.3467670E+00
         13   -1    0    0    0    0  0.00000000000E+00  0.00000000000E+00  0.14999999963E+04  0.15000000000E+04  0.10566000000E+00 0.  1.
        994   -1    0    0    0    0 -0.00000000000E+00 -0.00000000000E+00  0.11368683772E-12  0.17120000000E+03  0.17120000000E+03 0.  0.
         13    1    1    2    0    0 -0.35302010261E+01  0.69541722680E+02  0.40523158329E+03  0.41117047653E+03  0.10566000000E+00 0.  1.
        994    1    1    2    0    0  0.17490486868E+02 -0.37842721959E+02  0.11946179814E+02  0.17660730435E+03  0.17120000000E+03 0.  0.
        998    1    1    2    0    0 -0.13960285842E+02 -0.31699000721E+02  0.10828222332E+04  0.10834222191E+04  0.10000000000E+02 0.  1.
</event>
<event>
 5    1  0.1503263E-008  0.3824760E+03  0.7957747E-01  0.3440448E+00
         13   -1    0    0    0    0  0.00000000000E+00  0.00000000000E+00  0.14999999963E+04  0.15000000000E+04  0.10566000000E+00 0.  1.
        994   -1    0    0    0    0 -0.00000000000E+00 -0.00000000000E+00  0.11368683772E-12  0.17120000000E+03  0.17120000000E+03 0.  0.
         13    1    1    2    0    0 -0.34442513869E+01 -0.14979109577E+02  0.44262587030E+02  0.46855355788E+02  0.10566000000E+00 0.  1.
        994    1    1    2    0    0 -0.18937178463E+02 -0.10510662844E+02  0.44453969333E+01  0.17262181877E+03  0.17120000000E+03 0.  0.
        998    1    1    2    0    0  0.22381429850E+02  0.25489772421E+02  0.14512920123E+04  0.14517228254E+04  0.10000000000E+02 0.  1.
</event>
<event>
 5    1  0.1503263E-008  0.3886479E+03  0.7957747E-01  0.3414347E+00
         13   -1    0    0    0    0  0.00000000000E+00  0.00000000000E+00  0.14999999963E+04  0.15000000000E+04  0.10566000000E+00 0. -1.
        994   -1    0    0    0    0 -0.00000000000E+00 -0.00000000000E+00  0.11368683772E-12  0.17120000000E+03  0.17120000000E+03 0.  0.
         13    1    1    2    0    0  0.89169543342E+02 -0.61702379211E+02  0.23270070365E+03  0.25672557275E+03  0.10566000000E+00 0. -1.
        994    1    1    2    0    0 -0.92587328443E+02  0.47832805326E+02  0.63062189645E+02  0.21011109066E+03  0.17120000000E+03 0.  0.
        998    1    1    2    0    0  0.34177851008E+01  0.13869573885E+02  0.12042371030E+04  0.12043633366E+04  0.10000000000E+02 0. -1.
</event>
<event>
 5    1  0.1503263E-008  0.3852063E+03  0.7957747E-01  0.3428798E+00
         13   -1    0    0    0    0  0.00000000000E+00  0.00000000000E+00  0.14999999963E+04  0.15000000000E+04  0.10566000000E+00 0.  1.
        994   -1    0    0    0    0 -0.00000000000E+00 -0.00000000000E+00  0.11368683772E-12  0.17120000000E+03  0.17120000000E+03 0.  0.
         13    1    1    2    0    0  0.25492413073E+01 -0.98356753814E+01  0.35449783838E+02  0.36877330159E+02  0.10566000000E+00 0.  1.
        994    1    1    2    0    0  0.55836343958E+01 -0.20863599267E+01  0.16445333489E+01  0.17131162938E+03  0.17120000000E+03 0.  0.
        998    1    1    2    0    0 -0.81328757031E+01  0.11922035308E+02  0.14629056791E+04  0.14630110405E+04  0.10000000000E+02 0.  1.
</event>
<event>
 5    1  0.1503263E-008  0.3842121E+03  0.7957747E-01  0.3433021E+00
         13   -1    0    0    0    0  0.00000000000E+00  0.00000000000E+00  0.14999999963E+04  0.15000000000E+04  0.10566000000E+00 0.  1.
        994   -1    0    0    0    0 -0.00000000000E+00 -0.00000000000E+00  0.11368683772E-12  0.17120000000E+03  0.17120000000E+03 0.  0.
         13    1    1    2    0    0 -0.99305305359E+01  0.19804139000E+02  0.12365646756E+03  0.12562544524E+03  0.10566000000E+00 0.  1.
        994    1    1    2    0    0  0.94188959392E+01 -0.76206010670E+01  0.25059489777E+01  0.17164646498E+03  0.17120000000E+03 0.  0.
        998    1    1    2    0    0  0.51163459662E+00 -0.12183537933E+02  0.13738375797E+04  0.13739280898E+04  0.10000000000E+02 0.  1.
</event>
<event>
 5    1  0.1503263E-008  0.3827744E+03  0.7957747E-01  0.3439166E+00
         13   -1    0    0    0    0  0.00000000000E+00  0.00000000000E+00  0.14999999963E+04  0.15000000000E+04  0.10566000000E+00 0. -1.
        994   -1    0    0    0    0 -0.00000000000E+00 -0.00000000000E+00  0.11368683772E-12  0.17120000000E+03  0.17120000000E+03 0.  0.
         13    1    1    2    0    0  0.91733775508E+02  0.23086743193E+02  0.24115818920E+03  0.25904703562E+03  0.10566000000E+00 0. -1.
        994    1    1    2    0    0 -0.60177388282E+02 -0.13588747930E+02  0.31928195676E+02  0.18475611440E+03  0.17120000000E+03 0.  0.
        998    1    1    2    0    0 -0.31556387226E+02 -0.94979952631E+01  0.12269136114E+04  0.12273968500E+04  0.10000000000E+02 0. -1.
</event>
<event>
 5    1  0.1503263E-008  0.3731142E+03  0.7957747E-01  0.3481700E+00
         13   -1    0    0    0    0  0.00000000000E+00  0.00000000000E+00  0.14999999963E+04  0.15000000000E+04  0.10566000000E+00 0.  1.
        994   -1    0    0    0    0 -0.00000000000E+00 -0.00000000000E+00  0.11368683772E-12  0.17120000000E+03  0.17120000000E+03 0.  0.
         13    1    1    2    0    0 -0.41820610552E+02  0.35364565175E+01  0.66212623002E+02  0.78393830118E+02  0.10566000000E+00 0.  1.
        994    1    1    2    0    0  0.20752678144E+02 -0.31452889333E+02  0.17630705574E+02  0.17618240456E+03  0.17120000000E+03 0.  0.
        998    1    1    2    0    0  0.21067932408E+02  0.27916432815E+02  0.14161566677E+04  0.14166237653E+04  0.10000000000E+02 0.  1.
</event>
<event>
 5    1  0.1503263E-008  0.3838405E+03  0.7957747E-01  0.3434605E+00
         13   -1    0    0    0    0  0.00000000000E+00  0.00000000000E+00  0.14999999963E+04  0.15000000000E+04  0.10566000000E+00 0.  1.
        994   -1    0    0    0    0 -0.00000000000E+00 -0.00000000000E+00  0.11368683772E-12  0.17120000000E+03  0.17120000000E+03 0.  0.
         13    1    1    2    0    0 -0.10463771804E+02 -0.86322338479E+01  0.45614981370E+02  0.47589323077E+02  0.10566000000E+00 0.  1.
        994    1    1    2    0    0  0.41972583145E+01 -0.24679442300E+02  0.42784110366E+01  0.17307350072E+03  0.17120000000E+03 0.  0.
        998    1    1    2    0    0  0.62665134895E+01  0.33311676148E+02  0.14501066039E+04  0.14505371762E+04  0.10000000000E+02 0.  1.
</event>
<event>
 5    1  0.1503263E-008  0.3831809E+03  0.7957747E-01  0.3437424E+00
         13   -1    0    0    0    0  0.00000000000E+00  0.00000000000E+00  0.14999999963E+04  0.15000000000E+04  0.10566000000E+00 0.  1.
        994   -1    0    0    0    0 -0.00000000000E+00 -0.00000000000E+00  0.11368683772E-12  0.17120000000E+03  0.17120000000E+03 0.  0.
         13    1    1    2    0    0  0.13434358071E+02  0.88792403066E+01  0.42164050121E+02  0.45134700308E+02  0.10566000000E+00 0.  1.
        994    1    1    2    0    0 -0.41524340140E+02 -0.33480018609E+02  0.12005864004E+02  0.17971856677E+03  0.17120000000E+03 0.  0.
        998    1    1    2    0    0  0.28089982069E+02  0.24600778303E+02  0.14458300822E+04  0.14463467329E+04  0.10000000000E+02 0.  1.
</event>
<event>
 5    1  0.1503263E-008  0.3756808E+03  0.7957747E-01  0.3470183E+00
         13   -1    0    0    0    0  0.00000000000E+00  0.00000000000E+00  0.14999999963E+04  0.15000000000E+04  0.10566000000E+00 0. -1.
        994   -1    0    0    0    0 -0.00000000000E+00 -0.00000000000E+00  0.11368683772E-12  0.17120000000E+03  0.17120000000E+03 0.  0.
         13    1    1    2    0    0  0.87802503313E+01 -0.12535832406E+02  0.19658282409E+01  0.15430992667E+02  0.10566000000E+00 0. -1.
        994    1    1    2    0    0 -0.56746749484E+01  0.15508610993E+02  0.14948102465E+02  0.17264299788E+03  0.17120000000E+03 0.  0.
        998    1    1    2    0    0 -0.31055753829E+01 -0.29727785866E+01  0.14830860656E+04  0.14831260094E+04  0.10000000000E+02 0. -1.
</event>
<event>
 5    1  0.1503263E-008  0.3775560E+03  0.7957747E-01  0.3461870E+00
         13   -1    0    0    0    0  0.00000000000E+00  0.00000000000E+00  0.14999999963E+04  0.15000000000E+04  0.10566000000E+00 0.  1.
        994   -1    0    0    0    0 -0.00000000000E+00 -0.00000000000E+00  0.11368683772E-12  0.17120000000E+03  0.17120000000E+03 0.  0.
         13    1    1    2    0    0 -0.79190835121E+02  0.22696099784E+02  0.49133323470E+03  0.49819138893E+03  0.10566000000E+00 0.  1.
        994    1    1    2    0    0  0.70636327214E+02 -0.81550333141E+01  0.22605523528E+02  0.18675236273E+03  0.17120000000E+03 0.  0.
        998    1    1    2    0    0  0.85545079075E+01 -0.14541066470E+02  0.98606123805E+03  0.98625624835E+03  0.10000000000E+02 0.  1.
</event>
<event>
 5    1  0.1503263E-008  0.3689834E+03  0.7957747E-01  0.3500576E+00
         13   -1    0    0    0    0  0.00000000000E+00  0.00000000000E+00  0.14999999963E+04  0.15000000000E+04  0.10566000000E+00 0.  1.
        994   -1    0    0    0    0 -0.00000000000E+00 -0.00000000000E+00  0.11368683772E-12  0.17120000000E+03  0.17120000000E+03 0.  0.
         13    1    1    2    0    0 -0.30503231865E+02  0.95286866299E+01  0.43778073973E+02  0.54201235668E+02  0.10566000000E+00 0. -1.
        994    1    1    2    0    0  0.30981559327E+02 -0.88732738539E+01  0.14028880898E+02  0.17477082567E+03  0.17120000000E+03 0.  0.
        998    1    1    2    0    0 -0.47832746267E+00 -0.65541277603E+00  0.14421930414E+04  0.14422279387E+04  0.10000000000E+02 0.  1.
</event>
<event>
 5    1  0.1503263E-008  0.3851339E+03  0.7957747E-01  0.3429104E+00
         13   -1    0    0    0    0  0.00000000000E+00  0.00000000000E+00  0.14999999963E+04  0.15000000000E+04  0.10566000000E+00 0. -1.
        994   -1    0    0    0    0 -0.00000000000E+00 -0.00000000000E+00  0.11368683772E-12  0.17120000000E+03  0.17120000000E+03 0.  0.
         13    1    1    2    0    0  0.16422346719E+02  0.16883309252E+02  0.11368962696E+03  0.11610375552E+03  0.10566000000E+00 0. -1.
        994    1    1    2    0    0 -0.28029870301E+02 -0.74217766855E+02  0.22534192149E+02  0.19002941973E+03  0.17120000000E+03 0.  0.
        998    1    1    2    0    0  0.11607523582E+02  0.57334457602E+02  0.13637761772E+04  0.13650668248E+04  0.10000000000E+02 0. -1.
</event>
<event>
 5    1  0.1503263E-008  0.3715927E+03  0.7957747E-01  0.3488603E+00
         13   -1    0    0    0    0  0.00000000000E+00  0.00000000000E+00  0.14999999963E+04  0.15000000000E+04  0.10566000000E+00 0. -1.
        994   -1    0    0    0    0 -0.00000000000E+00 -0.00000000000E+00  0.11368683772E-12  0.17120000000E+03  0.17120000000E+03 0.  0.
         13    1    1    2    0    0  0.97730922725E+01 -0.61103980325E+02  0.21524075477E+03  0.22395937896E+03  0.10566000000E+00 0. -1.
        994    1    1    2    0    0 -0.91595886297E+01  0.42379715546E+02  0.14931406936E+02  0.17723522581E+03  0.17120000000E+03 0.  0.
        998    1    1    2    0    0 -0.61350364281E+00  0.18724264780E+02  0.12698278346E+04  0.12700053952E+04  0.10000000000E+02 0. -1.
</event>
<event>
 5    1  0.1503263E-008  0.3832464E+03  0.7957747E-01  0.3437144E+00
         13   -1    0    0    0    0  0.00000000000E+00  0.00000000000E+00  0.14999999963E+04  0.15000000000E+04  0.10566000000E+00 0.  1.
        994   -1    0    0    0    0 -0.00000000000E+00 -0.00000000000E+00  0.11368683772E-12  0.17120000000E+03  0.17120000000E+03 0.  0.
         13    1    1    2    0    0 -0.98376101672E+01 -0.23725036166E+02  0.12202724198E+03  0.12470090162E+03  0.10566000000E+00 0.  1.
        994    1    1    2    0    0  0.13580337951E+02  0.22276118885E+02  0.47577481878E+01  0.17324181718E+03  0.17120000000E+03 0.  0.
        998    1    1    2    0    0 -0.37427277842E+01  0.14489172815E+01  0.13732150061E+04  0.13732572812E+04  0.10000000000E+02 0.  1.
</event>
<event>
 5    1  0.1503263E-008  0.3825044E+03  0.7957747E-01  0.3440326E+00
         13   -1    0    0    0    0  0.00000000000E+00  0.00000000000E+00  0.14999999963E+04  0.15000000000E+04  0.10566000000E+00 0. -1.
        994   -1    0    0    0    0 -0.00000000000E+00 -0.00000000000E+00  0.11368683772E-12  0.17120000000E+03  0.17120000000E+03 0.  0.
         13    1    1    2    0    0 -0.11118067103E+02 -0.13441644229E+02  0.52408607559E+02  0.55235518699E+02  0.10566000000E+00 0. -1.
        994    1    1    2    0    0  0.73404893773E+01  0.65367163092E+01  0.31946496387E+01  0.17151168249E+03  0.17120000000E+03 0.  0.
        998    1    1    2    0    0  0.37775777254E+01  0.69049279195E+01  0.14443967391E+04  0.14444527988E+04  0.10000000000E+02 0. -1.
</event>
<event>
 5    1  0.1503263E-008  0.4164453E+03  0.7957747E-01  0.3306358E+00
         13   -1    0    0    0    0  0.00000000000E+00  0.00000000000E+00  0.14999999963E+04  0.15000000000E+04  0.10566000000E+00 0. -1.
        994   -1    0    0    0    0 -0.00000000000E+00 -0.00000000000E+00  0.11368683772E-12  0.17120000000E+03  0.17120000000E+03 0.  0.
         13    1    1    2    0    0  0.93883397614E+02 -0.31598747568E+02  0.10755625857E+03  0.14622220460E+03  0.10566000000E+00 0. -1.
        994    1    1    2    0    0 -0.95390277085E+02  0.43889929406E+02  0.86061558848E+02  0.21849865624E+03  0.17120000000E+03 0.  0.
        998    1    1    2    0    0  0.15068794710E+01 -0.12291181838E+02  0.13063821789E+04  0.13064791392E+04  0.10000000000E+02 0. -1.
</event>
<event>
 5    1  0.1503263E-008  0.3829865E+03  0.7957747E-01  0.3438257E+00
         13   -1    0    0    0    0  0.00000000000E+00  0.00000000000E+00  0.14999999963E+04  0.15000000000E+04  0.10566000000E+00 0. -1.
        994   -1    0    0    0    0 -0.00000000000E+00 -0.00000000000E+00  0.11368683772E-12  0.17120000000E+03  0.17120000000E+03 0.  0.
         13    1    1    2    0    0 -0.14772964888E+02  0.20114003988E+02  0.10738664105E+03  0.11024842623E+03  0.10566000000E+00 0. -1.
        994    1    1    2    0    0  0.19259508132E+02 -0.22225670167E+02  0.55014393034E+01  0.17379474935E+03  0.17120000000E+03 0.  0.
        998    1    1    2    0    0 -0.44865432440E+01  0.21116661789E+01  0.13871119159E+04  0.13871568244E+04  0.10000000000E+02 0. -1.
</event>
<event>
 5    1  0.1503263E-008  0.3818650E+03  0.7957747E-01  0.3443078E+00
         13   -1    0    0    0    0  0.00000000000E+00  0.00000000000E+00  0.14999999963E+04  0.15000000000E+04  0.10566000000E+00 0. -1.
        994   -1    0    0    0    0 -0.00000000000E+00 -0.00000000000E+00  0.11368683772E-12  0.17120000000E+03  0.17120000000E+03 0.  0.
         13    1    1    2    0    0 -0.58244488825E+01 -0.36213046110E+02  0.20179571653E+03  0.20510200216E+03  0.10566000000E+00 0. -1.
        994    1    1    2    0    0  0.18674823323E+02  0.23473750999E+02  0.61898217557E+01  0.17391814139E+03  0.17120000000E+03 0.  0.
        998    1    1    2    0    0 -0.12850374440E+02  0.12739295111E+02  0.12920144580E+04  0.12921798565E+04  0.10000000000E+02 0. -1.
</event>
<event>
 5    1  0.1503263E-008  0.3700265E+03  0.7957747E-01  0.3495769E+00
         13   -1    0    0    0    0  0.00000000000E+00  0.00000000000E+00  0.14999999963E+04  0.15000000000E+04  0.10566000000E+00 0. -1.
        994   -1    0    0    0    0 -0.00000000000E+00 -0.00000000000E+00  0.11368683772E-12  0.17120000000E+03  0.17120000000E+03 0.  0.
         13    1    1    2    0    0 -0.18069760534E+02 -0.19367692409E+02  0.27412537780E+02  0.38119314614E+02  0.10566000000E+00 0. -1.
        994    1    1    2    0    0  0.13040988151E+02  0.15853476606E+02  0.12427507820E+02  0.17287360424E+03  0.17120000000E+03 0.  0.
        998    1    1    2    0    0  0.50287723830E+01  0.35142158039E+01  0.14601599507E+04  0.14602070811E+04  0.10000000000E+02 0. -1.
</event>
<event>
 5    1  0.1503263E-008  0.3717472E+03  0.7957747E-01  0.3487899E+00
         13   -1    0    0    0    0  0.00000000000E+00  0.00000000000E+00  0.14999999963E+04  0.15000000000E+04  0.10566000000E+00 0. -1.
        994   -1    0    0    0    0 -0.00000000000E+00 -0.00000000000E+00  0.11368683772E-12  0.17120000000E+03  0.17120000000E+03 0.  0.
         13    1    1    2    0    0 -0.13867854537E+02  0.42034239884E+01  0.87003361317E+01  0.16902460635E+02  0.10566000000E+00 0. -1.
        994    1    1    2    0    0  0.12854738844E+02 -0.97945109862E+01  0.92568115457E+01  0.17221006160E+03  0.17120000000E+03 0.  0.
        998    1    1    2    0    0  0.10131156929E+01  0.55910869978E+01  0.14820428486E+04  0.14820874778E+04  0.10000000000E+02 0. -1.
</event>
<event>
 5    1  0.1503263E-008  0.3789155E+03  0.7957747E-01  0.3455894E+00
         13   -1    0    0    0    0  0.00000000000E+00  0.00000000000E+00  0.14999999963E+04  0.15000000000E+04  0.10566000000E+00 0.  1.
        994   -1    0    0    0    0 -0.00000000000E+00 -0.00000000000E+00  0.11368683772E-12  0.17120000000E+03  0.17120000000E+03 0.  0.
         13    1    1    2    0    0  0.32415684589E+02 -0.26865243269E+02  0.21182912262E+03  0.21597246644E+03  0.10566000000E+00 0.  1.
        994    1    1    2    0    0 -0.58840713771E+00  0.11792212721E+02  0.51493977063E+01  0.17168389208E+03  0.17120000000E+03 0.  0.
        998    1    1    2    0    0 -0.31827277452E+02  0.15073030549E+02  0.12830214760E+04  0.12835436415E+04  0.10000000000E+02 0.  1.
</event>
<event>
 5    1  0.1503263E-008  0.3859106E+03  0.7957747E-01  0.3425819E+00
         13   -1    0    0    0    0  0.00000000000E+00  0.00000000000E+00  0.14999999963E+04  0.15000000000E+04  0.10566000000E+00 0.  1.
        994   -1    0    0    0    0 -0.00000000000E+00 -0.00000000000E+00  0.11368683772E-12  0.17120000000E+03  0.17120000000E+03 0.  0.
         13    1    1    2    0    0 -0.44484393802E+01  0.12506658312E+02  0.70743999722E+02  0.71978675841E+02  0.10566000000E+00 0.  1.
        994    1    1    2    0    0  0.90380662372E+01 -0.15186068296E+02  0.22033924075E+01  0.17212378758E+03  0.17120000000E+03 0.  0.
        998    1    1    2    0    0 -0.45896268571E+01  0.26794099841E+01  0.14270526041E+04  0.14270975366E+04  0.10000000000E+02 0.  1.
</event>
<event>
 5    1  0.1503263E-008  0.2455764E+03  0.7957747E-01  0.4382126E+00
         13   -1    0    0    0    0  0.00000000000E+00  0.00000000000E+00  0.14999999963E+04  0.15000000000E+04  0.10566000000E+00 0. -1.
        994   -1    0    0    0    0 -0.00000000000E+00 -0.00000000000E+00  0.11368683772E-12  0.17120000000E+03  0.17120000000E+03 0.  0.
         13    1    1    2    0    0  0.13765634473E+03  0.95724293774E+02  0.38481563254E+03  0.41975646734E+03  0.10566000000E+00 0. -1.
        994    1    1    2    0    0 -0.83343223921E+02 -0.42761882325E+02  0.75971884635E+02  0.20941785695E+03  0.17120000000E+03 0.  0.
        998    1    1    2    0    0 -0.54313120810E+02 -0.52962411449E+02  0.10392124791E+04  0.10420256757E+04  0.10000000000E+02 0.  1.
</event>
<event>
 5    1  0.1529196E-008  0.3848877E+03  0.7957747E-01  0.3430149E+00
         13   -1    0    0    0    0  0.00000000000E+00  0.00000000000E+00  0.14999999963E+04  0.15000000000E+04  0.10566000000E+00 0.  1.
        994   -1    0    0    0    0 -0.00000000000E+00 -0.00000000000E+00  0.11368683772E-12  0.17120000000E+03  0.17120000000E+03 0.  0.
         13    1    1    2    0    0  0.10245451301E+02 -0.98267100857E+00  0.31287232697E+02  0.32936863976E+02  0.10566000000E+00 0.  1.
        994    1    1    2    0    0 -0.57909327007E+01  0.28556478920E+01  0.18230855081E+01  0.17133141354E+03  0.17120000000E+03 0.  0.
        998    1    1    2    0    0 -0.44545186008E+01 -0.18729768834E+01  0.14668896781E+04  0.14669317225E+04  0.10000000000E+02 0.  1.
</event>
<event>
 5    1  0.1503263E-008  0.3835504E+03  0.7957747E-01  0.3435843E+00
         13   -1    0    0    0    0  0.00000000000E+00  0.00000000000E+00  0.14999999963E+04  0.15000000000E+04  0.10566000000E+00 0. -1.
        994   -1    0    0    0    0 -0.00000000000E+00 -0.00000000000E+00  0.11368683772E-12  0.17120000000E+03  0.17120000000E+03 0.  0.
         13    1    1    2    0    0 -0.21153228255E+02 -0.69622446809E+01  0.10221338998E+03  0.10461128129E+03  0.10566000000E+00 0. -1.
        994    1    1    2    0    0  0.17806090653E+02  0.24984557002E+01  0.34205129880E+01  0.17217560528E+03  0.17120000000E+03 0.  0.
        998    1    1    2    0    0  0.33471376012E+01  0.44637889807E+01  0.13943660933E+04  0.13944131134E+04  0.10000000000E+02 0. -1.
</event>
<event>
 5    1  0.1503263E-008  0.3738434E+03  0.7957747E-01  0.3478412E+00
         13   -1    0    0    0    0  0.00000000000E+00  0.00000000000E+00  0.14999999963E+04  0.15000000000E+04  0.10566000000E+00 0. -1.
        994   -1    0    0    0    0 -0.00000000000E+00 -0.00000000000E+00  0.11368683772E-12  0.17120000000E+03  0.17120000000E+03 0.  0.
         13    1    1    2    0    0  0.20528542505E+02 -0.96283994606E+02  0.57025438624E+03  0.57868999030E+03  0.10566000000E+00 0. -1.
        994    1    1    2    0    0 -0.50879022112E+02  0.65101101697E+02  0.30940914054E+02  0.19259701061E+03  0.17120000000E+03 0.  0.
        998    1    1    2    0    0  0.30350479607E+02  0.31182892909E+02  0.89880469598E+03  0.89991299909E+03  0.10000000000E+02 0. -1.
</event>
<event>
 5    1  0.1503263E-008  0.3801868E+03  0.7957747E-01  0.3450345E+00
         13   -1    0    0    0    0  0.00000000000E+00  0.00000000000E+00  0.14999999963E+04  0.15000000000E+04  0.10566000000E+00 0.  1.
        994   -1    0    0    0    0 -0.00000000000E+00 -0.00000000000E+00  0.11368683772E-12  0.17120000000E+03  0.17120000000E+03 0.  0.
         13    1    1    2    0    0 -0.12215138060E+02  0.34208645221E+01  0.18416366341E+02  0.22362594329E+02  0.10566000000E+00 0.  1.
        994    1    1    2    0    0  0.78238246362E+01  0.94846806984E+01  0.45440581720E+01  0.17170107706E+03  0.17120000000E+03 0.  0.
        998    1    1    2    0    0  0.43913134236E+01 -0.12905545220E+02  0.14770395718E+04  0.14771363286E+04  0.10000000000E+02 0.  1.
</event>
<event>
 5    1  0.1503263E-008  0.3771601E+03  0.7957747E-01  0.3463618E+00
         13   -1    0    0    0    0  0.00000000000E+00  0.00000000000E+00  0.14999999963E+04  0.15000000000E+04  0.10566000000E+00 0.  1.
        994   -1    0    0    0    0 -0.00000000000E+00 -0.00000000000E+00  0.11368683772E-12  0.17120000000E+03  0.17120000000E+03 0.  0.
         13    1    1    2    0    0 -0.91278955519E+01 -0.27174280657E+02  0.72893480610E+02  0.78327713397E+02  0.10566000000E+00 0.  1.
        994    1    1    2    0    0 -0.90717582071E+01  0.17586789211E+02  0.68961905939E+01  0.17247779392E+03  0.17120000000E+03 0.  0.
        998    1    1    2    0    0  0.18199653759E+02  0.95874914459E+01  0.14202103251E+04  0.14203944927E+04  0.10000000000E+02 0.  1.
</event>
<event>
 5    1  0.1503263E-008  0.3798498E+03  0.7957747E-01  0.3451813E+00
         13   -1    0    0    0    0  0.00000000000E+00  0.00000000000E+00  0.14999999963E+04  0.15000000000E+04  0.10566000000E+00 0. -1.
        994   -1    0    0    0    0 -0.00000000000E+00 -0.00000000000E+00  0.11368683772E-12  0.17120000000E+03  0.17120000000E+03 0.  0.
         13    1    1    2    0    0 -0.12323484121E+01  0.14733173520E+02  0.23929557431E+02  0.28128632520E+02  0.10566000000E+00 0. -1.
        994    1    1    2    0    0  0.97922626158E+01 -0.14083305167E+02  0.51936481538E+01  0.17213553344E+03  0.17120000000E+03 0.  0.
        998    1    1    2    0    0 -0.85599142037E+01 -0.64986835339E+00  0.14708767907E+04  0.14709358340E+04  0.10000000000E+02 0. -1.
</event>
<event>
 5    1  0.1503263E-008  0.3708997E+03  0.7957747E-01  0.3491766E+00
         13   -1    0    0    0    0  0.00000000000E+00  0.00000000000E+00  0.14999999963E+04  0.15000000000E+04  0.10566000000E+00 0. -1.
        994   -1    0    0    0    0 -0.00000000000E+00 -0.00000000000E+00  0.11368683772E-12  0.17120000000E+03  0.17120000000E+03 0.  0.
         13    1    1    2    0    0  0.13618974988E+02  0.13305132544E+02  0.16998069239E+02  0.25523490232E+02  0.10566000000E+00 0. -1.
        994    1    1    2    0    0 -0.56873582486E+01 -0.61145449445E+01  0.90399810404E+01  0.17164176345E+03  0.17120000000E+03 0.  0.
        998    1    1    2    0    0 -0.79316167390E+01 -0.71905875991E+01  0.14739619460E+04  0.14740347463E+04  0.10000000000E+02 0. -1.
</event>
<event>
 5    1  0.1503263E-008  0.3737896E+03  0.7957747E-01  0.3478654E+00
         13   -1    0    0    0    0  0.00000000000E+00  0.00000000000E+00  0.14999999963E+04  0.15000000000E+04  0.10566000000E+00 0.  1.
        994   -1    0    0    0    0 -0.00000000000E+00 -0.00000000000E+00  0.11368683772E-12  0.17120000000E+03  0.17120000000E+03 0.  0.
         13    1    1    2    0    0  0.32281531181E+02  0.40558326283E+02  0.17933500649E+03  0.18667654058E+03  0.10566000000E+00 0.  1.
        994    1    1    2    0    0 -0.28518126257E+01 -0.40023355861E+02  0.12816663001E+02  0.17630572509E+03  0.17120000000E+03 0.  0.
        998    1    1    2    0    0 -0.29429718555E+02 -0.53497042149E+00  0.13078483268E+04  0.13082177343E+04  0.10000000000E+02 0.  1.
</event>
<event>
 5    1  0.1503263E-008  0.3857972E+03  0.7957747E-01  0.3426298E+00
         13   -1    0    0    0    0  0.00000000000E+00  0.00000000000E+00  0.14999999963E+04  0.15000000000E+04  0.10566000000E+00 0. -1.
        994   -1    0    0    0    0 -0.00000000000E+00 -0.00000000000E+00  0.11368683772E-12  0.17120000000E+03  0.17120000000E+03 0.  0.
         13    1    1    2    0    0 -0.73266002306E+01  0.10186857595E+02  0.65300312177E+02  0.66495060516E+02  0.10566000000E+00 0. -1.
        994    1    1    2    0    0  0.80138276714E+01 -0.19752324894E+01  0.14583640445E+01  0.17140504603E+03  0.17120000000E+03 0.  0.
        998    1    1    2    0    0 -0.68722744085E+00 -0.82116251054E+01  0.14332413201E+04  0.14332998935E+04  0.10000000000E+02 0. -1.
</event>
<event>
 5    1  0.1503263E-008  0.3823490E+03  0.7957747E-01  0.3440994E+00
         13   -1    0    0    0    0  0.00000000000E+00  0.00000000000E+00  0.14999999963E+04  0.15000000000E+04  0.10566000000E+00 0.  1.
        994   -1    0    0    0    0 -0.00000000000E+00 -0.00000000000E+00  0.11368683772E-12  0.17120000000E+03  0.17120000000E+03 0.  0.
         13    1    1    2    0    0  0.10935918575E+02  0.50629614094E+01  0.23438518686E+02  0.26355326133E+02  0.10566000000E+00 0.  1.
        994    1    1    2    0    0 -0.12025292492E+02  0.46324873969E+01  0.35031162399E+01  0.17172006121E+03  0.17120000000E+03 0.  0.
        998    1    1    2    0    0  0.10893739169E+01 -0.96954488063E+01  0.14730583614E+04  0.14731246127E+04  0.10000000000E+02 0.  1.
</event>
<event>
 5    1  0.1503263E-008  0.3744689E+03  0.7957747E-01  0.3475602E+00
         13   -1    0    0    0    0  0.00000000000E+00  0.00000000000E+00  0.14999999963E+04  0.15000000000E+04  0.10566000000E+00 0.  1.
        994   -1    0    0    0    0 -0.00000000000E+00 -0.00000000000E+00  0.11368683772E-12  0.17120000000E+03  0.17120000000E+03 0.  0.
         13    1    1    2    0    0 -0.58719495243E+02  0.55374200810E+02  0.41592536445E+03  0.42368408182E+03  0.10566000000E+00 0.  1.
        994    1    1    2    0    0  0.38573293193E+02 -0.45018475008E+02  0.19015647803E+02  0.18216914366E+03  0.17120000000E+03 0.  0.
        998    1    1    2    0    0  0.20146202051E+02 -0.10355725802E+02  0.10650589840E+04  0.10653467745E+04  0.10000000000E+02 0. -1.
</event>
<event>
 5    1  0.1503263E-008  0.3747013E+03  0.7957747E-01  0.3474560E+00
         13   -1    0    0    0    0  0.00000000000E+00  0.00000000000E+00  0.14999999963E+04  0.15000000000E+04  0.10566000000E+00 0.  1.
        994   -1    0    0    0    0 -0.00000000000E+00 -0.00000000000E+00  0.11368683772E-12  0.17120000000E+03  0.17120000000E+03 0.  0.
         13    1    1    2    0    0 -0.83253020215E+02  0.40415485486E+02  0.43445454600E+03  0.44420180160E+03  0.10566000000E+00 0.  1.
        994    1    1    2    0    0  0.84617602146E+02 -0.39486880940E+02  0.37105693164E+02  0.19850850064E+03  0.17120000000E+03 0.  0.
        998    1    1    2    0    0 -0.13645819311E+01 -0.92860454518E+00  0.10284397571E+04  0.10284896978E+04  0.10000000000E+02 0.  0.
</event>
<event>
 5    1  0.1503263E-008  0.3858669E+03  0.7957747E-01  0.3426004E+00
         13   -1    0    0    0    0  0.00000000000E+00  0.00000000000E+00  0.14999999963E+04  0.15000000000E+04  0.10566000000E+00 0.  1.
        994   -1    0    0    0    0 -0.00000000000E+00 -0.00000000000E+00  0.11368683772E-12  0.17120000000E+03  0.17120000000E+03 0.  0.
         13    1    1    2    0    0 -0.31948291440E+01  0.12324114854E+02  0.74418347079E+02  0.75499617788E+02  0.10566000000E+00 0.  1.
        994    1    1    2    0    0  0.21137476410E+02  0.72367790465E+01  0.28390149974E+01  0.17267502392E+03  0.17120000000E+03 0.  0.
        998    1    1    2    0    0 -0.17942647266E+02 -0.19560893901E+02  0.14227426342E+04  0.14230253583E+04  0.10000000000E+02 0.  1.
</event>
<event>
 5    1  0.1503263E-008  0.3839299E+03  0.7957747E-01  0.3434223E+00
         13   -1    0    0    0    0  0.00000000000E+00  0.00000000000E+00  0.14999999963E+04  0.15000000000E+04  0.10566000000E+00 0. -1.
        994   -1    0    0    0    0 -0.00000000000E+00 -0.00000000000E+00  0.11368683772E-12  0.17120000000E+03  0.17120000000E+03 0.  0.
         13    1    1    2    0    0 -0.12878915170E+02  0.17604505665E+01  0.40112823414E+02  0.42166519994E+02  0.10566000000E+00 0. -1.
        994    1    1    2    0    0 -0.10082611673E+01 -0.52007898229E+01  0.22549930096E+01  0.17129678864E+03  0.17120000000E+03 0.  0.
        998    1    1    2    0    0  0.13887176337E+02  0.34403392564E+01  0.14576321799E+04  0.14577366914E+04  0.10000000000E+02 0. -1.
</event>
<event>
 5    1  0.1503263E-008  0.3813747E+03  0.7957747E-01  0.3445195E+00
         13   -1    0    0    0    0  0.00000000000E+00  0.00000000000E+00  0.14999999963E+04  0.15000000000E+04  0.10566000000E+00 0.  1.
        994   -1    0    0    0    0 -0.00000000000E+00 -0.00000000000E+00  0.11368683772E-12  0.17120000000E+03  0.17120000000E+03 0.  0.
         13    1    1    2    0    0 -0.84153134067E+01 -0.22834365516E+02  0.93219573418E+02  0.96343789527E+02  0.10566000000E+00 0.  1.
        994    1    1    2    0    0  0.19818225682E+01 -0.28957470398E+01  0.34817991124E+01  0.17127135165E+03  0.17120000000E+03 0.  0.
        998    1    1    2    0    0  0.64334908386E+01  0.25730112556E+02  0.14032986237E+04  0.14035848588E+04  0.10000000000E+02 0.  1.
</event>
<event>
 5    1  0.1503263E-008  0.3852591E+03  0.7957747E-01  0.3428574E+00
         13   -1    0    0    0    0  0.00000000000E+00  0.00000000000E+00  0.14999999963E+04  0.15000000000E+04  0.10566000000E+00 0.  1.
        994   -1    0    0    0    0 -0.00000000000E+00 -0.00000000000E+00  0.11368683772E-12  0.17120000000E+03  0.17120000000E+03 0.  0.
         13    1    1    2    0    0  0.56585505521E+01 -0.10387155357E+02  0.47200007721E+02  0.48659676157E+02  0.10566000000E+00 0.  1.
        994    1    1    2    0    0 -0.22705384688E+01  0.54139583978E+01  0.16148376396E+01  0.17130824262E+03  0.17120000000E+03 0.  0.
        998    1    1    2    0    0 -0.33880120833E+01  0.49731969596E+01  0.14511851509E+04  0.14512320812E+04  0.10000000000E+02 0.  1.
</event>
<event>
 5    1  0.1503263E-008  0.3212348E+03  0.7957747E-01  0.3755191E+00
         13   -1    0    0    0    0  0.00000000000E+00  0.00000000000E+00  0.14999999963E+04  0.15000000000E+04  0.10566000000E+00 0.  1.
        994   -1    0    0    0    0 -0.00000000000E+00 -0.00000000000E+00  0.11368683772E-12  0.17120000000E+03  0.17120000000E+03 0.  0.
         13    1    1    2    0    0 -0.21955973310E+03  0.63073315104E+02  0.78043987614E+03  0.81318579114E+03  0.10566000000E+00 0.  1.
        994    1    1    2    0    0  0.22128769101E+03  0.22935919455E+02  0.23594816625E+03  0.36670870694E+03  0.17120000000E+03 0.  0.
        998    1    1    2    0    0 -0.17279579122E+01 -0.86009234559E+02  0.48361195389E+03  0.49130550192E+03  0.10000000000E+02 0. -1.
</event>
<event>
 5    1  0.1503263E-008  0.3802277E+03  0.7957747E-01  0.3450168E+00
         13   -1    0    0    0    0  0.00000000000E+00  0.00000000000E+00  0.14999999963E+04  0.15000000000E+04  0.10566000000E+00 0.  1.
        994   -1    0    0    0    0 -0.00000000000E+00 -0.00000000000E+00  0.11368683772E-12  0.17120000000E+03  0.17120000000E+03 0.  0.
         13    1    1    2    0    0 -0.35921738630E+02 -0.12050689801E+01  0.19973809719E+03  0.20294615574E+03  0.10566000000E+00 0.  1.
        994    1    1    2    0    0 -0.79279183565E+01 -0.35514928850E+01  0.42703886440E+01  0.17147344171E+03  0.17120000000E+03 0.  0.
        998    1    1    2    0    0  0.43849656987E+02  0.47565618651E+01  0.12959915104E+04  0.12967804026E+04  0.10000000000E+02 0.  1.
</event>
<event>
 5    1  0.1503263E-008  0.3705507E+03  0.7957747E-01  0.3493364E+00
         13   -1    0    0    0    0  0.00000000000E+00  0.00000000000E+00  0.14999999963E+04  0.15000000000E+04  0.10566000000E+00 0. -1.
        994   -1    0    0    0    0 -0.00000000000E+00 -0.00000000000E+00  0.11368683772E-12  0.17120000000E+03  0.17120000000E+03 0.  0.
         13    1    1    2    0    0 -0.12881937190E+02  0.22201986754E+01  0.53812903173E+01  0.14136585070E+02  0.10566000000E+00 0. -1.
        994    1    1    2    0    0  0.10859333391E+02 -0.27195688441E+01  0.94141261088E+01  0.17182370892E+03  0.17120000000E+03 0.  0.
        998    1    1    2    0    0  0.20226037985E+01  0.49937016866E+00  0.14852045799E+04  0.14852397060E+04  0.10000000000E+02 0. -1.
</event>
<event>
 5    1  0.1503263E-008  0.3822611E+03  0.7957747E-01  0.3441372E+00
         13   -1    0    0    0    0  0.00000000000E+00  0.00000000000E+00  0.14999999963E+04  0.15000000000E+04  0.10566000000E+00 0.  1.
        994   -1    0    0    0    0 -0.00000000000E+00 -0.00000000000E+00  0.11368683772E-12  0.17120000000E+03  0.17120000000E+03 0.  0.
         13    1    1    2    0    0  0.30217969898E+02  0.65286625130E+00  0.17057792272E+03  0.17323507388E+03  0.10566000000E+00 0.  1.
        994    1    1    2    0    0 -0.29865165838E+01 -0.59088846012E+01  0.31415546523E+01  0.17135677274E+03  0.17120000000E+03 0.  0.
        998    1    1    2    0    0 -0.27231453314E+02  0.52560183499E+01  0.13262805189E+04  0.13266081534E+04  0.10000000000E+02 0.  1.
</event>
<event>
 5    1  0.1503263E-008  0.3775071E+03  0.7957747E-01  0.3462085E+00
         13   -1    0    0    0    0  0.00000000000E+00  0.00000000000E+00  0.14999999963E+04  0.15000000000E+04  0.10566000000E+00 0.  1.
        994   -1    0    0    0    0 -0.00000000000E+00 -0.00000000000E+00  0.11368683772E-12  0.17120000000E+03  0.17120000000E+03 0.  0.
         13    1    1    2    0    0 -0.24490101575E+02  0.35418142681E+02  0.17624244024E+03  0.18142662101E+03  0.10566000000E+00 0.  1.
        994    1    1    2    0    0  0.12827750123E+02 -0.14442134781E+02  0.66555769840E+01  0.17241479964E+03  0.17120000000E+03 0.  0.
        998    1    1    2    0    0  0.11662351452E+02 -0.20976007900E+02  0.13171019791E+04  0.13173585793E+04  0.10000000000E+02 0.  1.
</event>
<event>
 5    1  0.1503263E-008  0.3857433E+03  0.7957747E-01  0.3426526E+00
         13   -1    0    0    0    0  0.00000000000E+00  0.00000000000E+00  0.14999999963E+04  0.15000000000E+04  0.10566000000E+00 0. -1.
        994   -1    0    0    0    0 -0.00000000000E+00 -0.00000000000E+00  0.11368683772E-12  0.17120000000E+03  0.17120000000E+03 0.  0.
         13    1    1    2    0    0  0.10238624489E+02  0.11638108452E+02  0.86846926724E+02  0.88219469762E+02  0.10566000000E+00 0. -1.
        994    1    1    2    0    0 -0.11121672544E+02 -0.19996194303E+02  0.29810240989E+01  0.17274798376E+03  0.17120000000E+03 0.  0.
        998    1    1    2    0    0  0.88304805545E+00  0.83580858515E+01  0.14101720455E+04  0.14102325465E+04  0.10000000000E+02 0. -1.
</event>
<event>
 5    1  0.1503263E-008  0.3764400E+03  0.7957747E-01  0.3466808E+00
         13   -1    0    0    0    0  0.00000000000E+00  0.00000000000E+00  0.14999999963E+04  0.15000000000E+04  0.10566000000E+00 0. -1.
        994   -1    0    0    0    0 -0.00000000000E+00 -0.00000000000E+00  0.11368683772E-12  0.17120000000E+03  0.17120000000E+03 0.  0.
         13    1    1    2    0    0  0.43846519225E+01  0.35093093997E+02  0.10331423771E+03  0.10919978615E+03  0.10566000000E+00 0. -1.
        994    1    1    2    0    0  0.67089683179E+01 -0.22241019906E+02  0.77688431331E+01  0.17294354034E+03  0.17120000000E+03 0.  0.
        998    1    1    2    0    0 -0.11093620240E+02 -0.12852074091E+02  0.13889169154E+04  0.13890566735E+04  0.10000000000E+02 0. -1.
</event>
<event>
 5    1  0.1503263E-008  0.3798151E+03  0.7957747E-01  0.3451964E+00
         13   -1    0    0    0    0  0.00000000000E+00  0.00000000000E+00  0.14999999963E+04  0.15000000000E+04  0.10566000000E+00 0.  1.
        994   -1    0    0    0    0 -0.00000000000E+00 -0.00000000000E+00  0.11368683772E-12  0.17120000000E+03  0.17120000000E+03 0.  0.
         13    1    1    2    0    0 -0.43819957429E+00 -0.13815100249E+02  0.20596099312E+02  0.24804424699E+02  0.10566000000E+00 0.  1.
        994    1    1    2    0    0 -0.26539855739E+01  0.14160346207E+02  0.49210978005E+01  0.17187558363E+03  0.17120000000E+03 0.  0.
        998    1    1    2    0    0  0.30921851481E+01 -0.34524595850E+00  0.14744827992E+04  0.14745199917E+04  0.10000000000E+02 0.  1.
</event>
<event>
 5    1  0.1503263E-008  0.3790482E+03  0.7957747E-01  0.3455314E+00
         13   -1    0    0    0    0  0.00000000000E+00  0.00000000000E+00  0.14999999963E+04  0.15000000000E+04  0.10566000000E+00 0.  1.
        994   -1    0    0    0    0 -0.00000000000E+00 -0.00000000000E+00  0.11368683772E-12  0.17120000000E+03  0.17120000000E+03 0.  0.
         13    1    1    2    0    0 -0.37085689342E+02  0.17972944514E+02  0.18359987231E+03  0.18816827407E+03  0.10566000000E+00 0.  1.
        994    1    1    2    0    0  0.28627041527E+02  0.55226600070E+01  0.74701180480E+01  0.17382534321E+03  0.17120000000E+03 0.  0.
        998    1    1    2    0    0  0.84586478151E+01 -0.23495604521E+02  0.13089300059E+04  0.13092063827E+04  0.10000000000E+02 0.  1.
</event>
<event>
 5    1  0.1503263E-008  0.3805769E+03  0.7957747E-01  0.3448650E+00
         13   -1    0    0    0    0  0.00000000000E+00  0.00000000000E+00  0.14999999963E+04  0.15000000000E+04  0.10566000000E+00 0. -1.
        994   -1    0    0    0    0 -0.00000000000E+00 -0.00000000000E+00  0.11368683772E-12  0.17120000000E+03  0.17120000000E+03 0.  0.
         13    1    1    2    0    0  0.43987934336E+02 -0.12957683612E+02  0.16798315689E+03  0.17412981392E+03  0.10566000000E+00 0. -1.
        994    1    1    2    0    0 -0.10231510570E+03  0.10704772666E+02  0.40000048830E+02  0.20369687508E+03  0.17120000000E+03 0.  0.
        998    1    1    2    0    0  0.58327171361E+02  0.22529109456E+01  0.12920167906E+04  0.12933733110E+04  0.10000000000E+02 0. -1.
</event>
<event>
 5    1  0.1503263E-008  0.3831672E+03  0.7957747E-01  0.3437483E+00
         13   -1    0    0    0    0  0.00000000000E+00  0.00000000000E+00  0.14999999963E+04  0.15000000000E+04  0.10566000000E+00 0.  1.
        994   -1    0    0    0    0 -0.00000000000E+00 -0.00000000000E+00  0.11368683772E-12  0.17120000000E+03  0.17120000000E+03 0.  0.
         13    1    1    2    0    0 -0.14775671294E+02  0.85666751422E+01  0.66558114907E+02  0.68714643339E+02  0.10566000000E+00 0.  1.
        994    1    1    2    0    0 -0.15306158825E+02  0.11428937374E+02  0.37509613938E+01  0.17230324669E+03  0.17120000000E+03 0.  0.
        998    1    1    2    0    0  0.30081830119E+02 -0.19995612516E+02  0.14296909200E+04  0.14301821100E+04  0.10000000000E+02 0.  1.
</event>
<event>
 5    1  0.1503263E-008  0.3832717E+03  0.7957747E-01  0.3437035E+00
         13   -1    0    0    0    0  0.00000000000E+00  0.00000000000E+00  0.14999999963E+04  0.15000000000E+04  0.10566000000E+00 0. -1.
        994   -1    0    0    0    0 -0.00000000000E+00 -0.00000000000E+00  0.11368683772E-12  0.17120000000E+03  0.17120000000E+03 0.  0.
         13    1    1    2    0    0 -0.10241856984E+02  0.21208463160E+02  0.12753256245E+03  0.12968909049E+03  0.10566000000E+00 0. -1.
        994    1    1    2    0    0 -0.41169630209E+01  0.29477761103E+01  0.25754448159E+01  0.17129422549E+03  0.17120000000E+03 0.  0.
        998    1    1    2    0    0  0.14358820005E+02 -0.24156239271E+02  0.13698919890E+04  0.13702166840E+04  0.10000000000E+02 0. -1.
</event>
<event>
 5    1  0.1503263E-008  0.3861270E+03  0.7957747E-01  0.3424907E+00
         13   -1    0    0    0    0  0.00000000000E+00  0.00000000000E+00  0.14999999963E+04  0.15000000000E+04  0.10566000000E+00 0. -1.
        994   -1    0    0    0    0 -0.00000000000E+00 -0.00000000000E+00  0.11368683772E-12  0.17120000000E+03  0.17120000000E+03 0.  0.
         13    1    1    2    0    0 -0.72732311323E+01 -0.92635929803E+01  0.67355241340E+02  0.68377289695E+02  0.10566000000E+00 0. -1.
        994    1    1    2    0    0 -0.27397915605E+01  0.80423356176E+01  0.13082045865E+01  0.17141568487E+03  0.17120000000E+03 0.  0.
        998    1    1    2    0    0  0.10013022693E+02  0.12212573627E+01  0.14313365504E+04  0.14314070254E+04  0.10000000000E+02 0. -1.
</event>
<event>
 5    1  0.1503263E-008  0.3703228E+03  0.7957747E-01  0.3494409E+00
         13   -1    0    0    0    0  0.00000000000E+00  0.00000000000E+00  0.14999999963E+04  0.15000000000E+04  0.10566000000E+00 0. -1.
        994   -1    0    0    0    0 -0.00000000000E+00 -0.00000000000E+00  0.11368683772E-12  0.17120000000E+03  0.17120000000E+03 0.  0.
         13    1    1    2    0    0  0.23062496651E+03  0.21099958003E+03  0.90079807439E+03  0.95349141577E+03  0.10566000000E+00 0. -1.
        994    1    1    2    0    0 -0.23500224762E+03 -0.18959169484E+03  0.45902207470E+03  0.57548394609E+03  0.17120000000E+03 0.  0.
        998    1    1    2    0    0  0.43772811116E+01 -0.21407885190E+02  0.14017984718E+03  0.14222463814E+03  0.10000000000E+02 0.  1.
</event>
<event>
 5    1  0.1503263E-008  0.3835807E+03  0.7957747E-01  0.3435714E+00
         13   -1    0    0    0    0  0.00000000000E+00  0.00000000000E+00  0.14999999963E+04  0.15000000000E+04  0.10566000000E+00 0. -1.
        994   -1    0    0    0    0 -0.00000000000E+00 -0.00000000000E+00  0.11368683772E-12  0.17120000000E+03  0.17120000000E+03 0.  0.
         13    1    1    2    0    0  0.12270243803E+02  0.15762026660E+01  0.33529293458E+02  0.35738886128E+02  0.10566000000E+00 0. -1.
        994    1    1    2    0    0  0.27246686501E+01  0.15329009199E+01  0.23687487875E+01  0.17124492569E+03  0.17120000000E+03 0.  0.
        998    1    1    2    0    0 -0.14994912453E+02 -0.31091035859E+01  0.14641019540E+04  0.14642161882E+04  0.10000000000E+02 0. -1.
</event>
<event>
 5    1  0.1503263E-008  0.3749582E+03  0.7957747E-01  0.3473410E+00
         13   -1    0    0    0    0  0.00000000000E+00  0.00000000000E+00  0.14999999963E+04  0.15000000000E+04  0.10566000000E+00 0. -1.
        994   -1    0    0    0    0 -0.00000000000E+00 -0.00000000000E+00  0.11368683772E-12  0.17120000000E+03  0.17120000000E+03 0.  0.
         13    1    1    2    0    0 -0.14771890788E+02 -0.11588804129E+02  0.23381077370E+02  0.29986581692E+02  0.10566000000E+00 0. -1.
        994    1    1    2    0    0  0.15827012693E+02  0.36895305505E+01  0.75985543964E+01  0.17213740150E+03  0.17120000000E+03 0.  0.
        998    1    1    2    0    0 -0.10551219058E+01  0.78992735786E+01  0.14690203645E+04  0.14690760168E+04  0.10000000000E+02 0. -1.
</event>
<event>
 5    1  0.1503263E-008  0.3695168E+03  0.7957747E-01  0.3498115E+00
         13   -1    0    0    0    0  0.00000000000E+00  0.00000000000E+00  0.14999999963E+04  0.15000000000E+04  0.10566000000E+00 0.  1.
        994   -1    0    0    0    0 -0.00000000000E+00 -0.00000000000E+00  0.11368683772E-12  0.17120000000E+03  0.17120000000E+03 0.  0.
         13    1    1    2    0    0  0.67045146094E+02  0.50375143346E+02  0.36185058241E+03  0.37144119566E+03  0.10566000000E+00 0.  1.
        994    1    1    2    0    0 -0.26476086824E+02 -0.49172116088E+02  0.20402719363E+02  0.18123076762E+03  0.17120000000E+03 0.  0.
        998    1    1    2    0    0 -0.40569059270E+02 -0.12030272588E+01  0.11177466945E+04  0.11185280367E+04  0.10000000000E+02 0.  1.
</event>
<event>
 5    1  0.1503263E-008  0.3814434E+03  0.7957747E-01  0.3444898E+00
         13   -1    0    0    0    0  0.00000000000E+00  0.00000000000E+00  0.14999999963E+04  0.15000000000E+04  0.10566000000E+00 0. -1.
        994   -1    0    0    0    0 -0.00000000000E+00 -0.00000000000E+00  0.11368683772E-12  0.17120000000E+03  0.17120000000E+03 0.  0.
         13    1    1    2    0    0  0.19856319936E+02  0.19435242126E+02  0.11972951053E+03  0.12291122380E+03  0.10566000000E+00 0. -1.
        994    1    1    2    0    0  0.32014335176E+01 -0.12458264958E+02  0.39569905940E+01  0.17172814364E+03  0.17120000000E+03 0.  0.
        998    1    1    2    0    0 -0.23057753454E+02 -0.69769771674E+01  0.13763134951E+04  0.13765606326E+04  0.10000000000E+02 0. -1.
</event>
<event>
 5    1  0.1503263E-008  0.3839202E+03  0.7957747E-01  0.3434265E+00
         13   -1    0    0    0    0  0.00000000000E+00  0.00000000000E+00  0.14999999963E+04  0.15000000000E+04  0.10566000000E+00 0.  1.
        994   -1    0    0    0    0 -0.00000000000E+00 -0.00000000000E+00  0.11368683772E-12  0.17120000000E+03  0.17120000000E+03 0.  0.
         13    1    1    2    0    0 -0.11128429065E+02  0.14999113388E+02  0.75434477361E+02  0.77712205442E+02  0.10566000000E+00 0.  1.
        994    1    1    2    0    0  0.87839688107E+01 -0.20867108791E+02  0.38606938145E+01  0.17273372367E+03  0.17120000000E+03 0.  0.
        998    1    1    2    0    0  0.23444602539E+01  0.58679954031E+01  0.14207048251E+04  0.14207540709E+04  0.10000000000E+02 0.  1.
</event>
<event>
 5    1  0.1503263E-008  0.3778923E+03  0.7957747E-01  0.3460387E+00
         13   -1    0    0    0    0  0.00000000000E+00  0.00000000000E+00  0.14999999963E+04  0.15000000000E+04  0.10566000000E+00 0. -1.
        994   -1    0    0    0    0 -0.00000000000E+00 -0.00000000000E+00  0.11368683772E-12  0.17120000000E+03  0.17120000000E+03 0.  0.
         13    1    1    2    0    0  0.50215518388E+02 -0.93944583056E+01  0.28523658784E+03  0.28977538946E+03  0.10566000000E+00 0. -1.
        994    1    1    2    0    0 -0.82755776695E+01  0.39949967828E+02  0.10824698786E+02  0.17632668323E+03  0.17120000000E+03 0.  0.
        998    1    1    2    0    0 -0.41939940719E+02 -0.30555509522E+02  0.12039387097E+04  0.12050979273E+04  0.10000000000E+02 0. -1.
</event>
<event>
 5    1  0.1503263E-008  0.2433800E+03  0.7957747E-01  0.4407031E+00
         13   -1    0    0    0    0  0.00000000000E+00  0.00000000000E+00  0.14999999963E+04  0.15000000000E+04  0.10566000000E+00 0.  1.
        994   -1    0    0    0    0 -0.00000000000E+00 -0.00000000000E+00  0.11368683772E-12  0.17120000000E+03  0.17120000000E+03 0.  0.
         13    1    1    2    0    0  0.12544342938E+02  0.17198822454E+03  0.32413738454E+03  0.36715441593E+03  0.10566000000E+00 0.  1.
        994    1    1    2    0    0 -0.46117774305E+02 -0.11708439401E+03  0.11579333084E+03  0.24197756073E+03  0.17120000000E+03 0.  0.
        998    1    1    2    0    0  0.33573431367E+02 -0.54903830523E+02  0.10600692809E+04  0.10620680233E+04  0.10000000000E+02 0.  1.
</event>
<event>
 5    1  0.1503263E-008  0.3804195E+03  0.7957747E-01  0.3449334E+00
         13   -1    0    0    0    0  0.00000000000E+00  0.00000000000E+00  0.14999999963E+04  0.15000000000E+04  0.10566000000E+00 0. -1.
        994   -1    0    0    0    0 -0.00000000000E+00 -0.00000000000E+00  0.11368683772E-12  0.17120000000E+03  0.17120000000E+03 0.  0.
         13    1    1    2    0    0  0.95961553916E+01  0.18632522676E+02  0.52702993561E+02  0.56717491076E+02  0.10566000000E+00 0. -1.
        994    1    1    2    0    0 -0.81999763640E+01 -0.21092102048E+02  0.56329871393E+01  0.17278103752E+03  0.17120000000E+03 0.  0.
        998    1    1    2    0    0 -0.13961790275E+01  0.24595793714E+01  0.14416640156E+04  0.14417014714E+04  0.10000000000E+02 0. -1.
</event>
<event>
 5    1  0.1503263E-008  0.3751904E+03  0.7957747E-01  0.3472372E+00
         13   -1    0    0    0    0  0.00000000000E+00  0.00000000000E+00  0.14999999963E+04  0.15000000000E+04  0.10566000000E+00 0. -1.
        994   -1    0    0    0    0 -0.00000000000E+00 -0.00000000000E+00  0.11368683772E-12  0.17120000000E+03  0.17120000000E+03 0.  0.
         13    1    1    2    0    0  0.12693786369E+02  0.12972688880E+02  0.22272667402E+02  0.28731615798E+02  0.10566000000E+00 0. -1.
        994    1    1    2    0    0 -0.73549870725E+01 -0.97151376680E+01  0.70855311326E+01  0.17177929004E+03  0.17120000000E+03 0.  0.
        998    1    1    2    0    0 -0.53387992964E+01 -0.32575512121E+01  0.14706417977E+04  0.14706890942E+04  0.10000000000E+02 0. -1.
</event>
<event>
 5    1  0.1503263E-008  0.3826732E+03  0.7957747E-01  0.3439601E+00
         13   -1    0    0    0    0  0.00000000000E+00  0.00000000000E+00  0.14999999963E+04  0.15000000000E+04  0.10566000000E+00 0.  1.
        994   -1    0    0    0    0 -0.00000000000E+00 -0.00000000000E+00  0.11368683772E-12  0.17120000000E+03  0.17120000000E+03 0.  0.
         13    1    1    2    0    0  0.19737117475E+01 -0.26288553961E+02  0.11898785867E+02  0.28923621430E+02  0.10566000000E+00 0.  1.
        994    1    1    2    0    0 -0.85266422213E+01  0.21502070371E+02  0.19763699270E+02  0.17388239263E+03  0.17120000000E+03 0.  0.
        998    1    1    2    0    0  0.65529304738E+01  0.47864835909E+01  0.14683375111E+04  0.14683939859E+04  0.10000000000E+02 0.  1.
</event>
<event>
 5    1  0.1503263E-008  0.3766530E+03  0.7957747E-01  0.3465863E+00
         13   -1    0    0    0    0  0.00000000000E+00  0.00000000000E+00  0.14999999963E+04  0.15000000000E+04  0.10566000000E+00 0.  1.
        994   -1    0    0    0    0 -0.00000000000E+00 -0.00000000000E+00  0.11368683772E-12  0.17120000000E+03  0.17120000000E+03 0.  0.
         13    1    1    2    0    0 -0.66526354972E+02  0.10918132910E+03  0.66678927586E+03  0.67893612961E+03  0.10566000000E+00 0.  1.
        994    1    1    2    0    0  0.96825385047E+02 -0.10130883062E+03  0.75395021739E+02  0.23373592718E+03  0.17120000000E+03 0.  0.
        998    1    1    2    0    0 -0.30299030075E+02 -0.78724984800E+01  0.75781569868E+03  0.75852794320E+03  0.10000000000E+02 0.  1.
</event>
<event>
 5    1  0.1503263E-008  0.3817282E+03  0.7957747E-01  0.3443668E+00
         13   -1    0    0    0    0  0.00000000000E+00  0.00000000000E+00  0.14999999963E+04  0.15000000000E+04  0.10566000000E+00 0.  1.
        994   -1    0    0    0    0 -0.00000000000E+00 -0.00000000000E+00  0.11368683772E-12  0.17120000000E+03  0.17120000000E+03 0.  0.
         13    1    1    2    0    0 -0.36499217252E+02 -0.24421723342E+01  0.21124991637E+03  0.21439378582E+03  0.10566000000E+00 0.  1.
        994    1    1    2    0    0  0.16709101092E+02  0.64183572691E+01  0.43289941983E+01  0.17218759990E+03  0.17120000000E+03 0.  0.
        998    1    1    2    0    0  0.19790116160E+02 -0.39761849349E+01  0.12844210857E+04  0.12846186143E+04  0.10000000000E+02 0.  1.
</event>
<event>
 5    1  0.1503263E-008  0.3845875E+03  0.7957747E-01  0.3431424E+00
         13   -1    0    0    0    0  0.00000000000E+00  0.00000000000E+00  0.14999999963E+04  0.15000000000E+04  0.10566000000E+00 0.  1.
        994   -1    0    0    0    0 -0.00000000000E+00 -0.00000000000E+00  0.11368683772E-12  0.17120000000E+03  0.17120000000E+03 0.  0.
         13    1    1    2    0    0  0.11495954647E+02 -0.17185316230E+01  0.36088726452E+02  0.37914610180E+02  0.10566000000E+00 0.  1.
        994    1    1    2    0    0 -0.92151748251E+01  0.78634371807E+01  0.23185111012E+01  0.17164372574E+03  0.17120000000E+03 0.  0.
        998    1    1    2    0    0 -0.22807798222E+01 -0.61449055577E+01  0.14615927587E+04  0.14616416641E+04  0.10000000000E+02 0.  1.
</event>
<event>
 5    1  0.1503263E-008  0.3836545E+03  0.7957747E-01  0.3435399E+00
         13   -1    0    0    0    0  0.00000000000E+00  0.00000000000E+00  0.14999999963E+04  0.15000000000E+04  0.10566000000E+00 0.  1.
        994   -1    0    0    0    0 -0.00000000000E+00 -0.00000000000E+00  0.11368683772E-12  0.17120000000E+03  0.17120000000E+03 0.  0.
         13    1    1    2    0    0 -0.17067084118E+02 -0.11050254631E+02  0.12075200745E+03  0.12245183525E+03  0.10566000000E+00 0.  1.
        994    1    1    2    0    0 -0.33855753224E+02  0.65551316465E+01  0.62374687904E+01  0.17474990070E+03  0.17120000000E+03 0.  0.
        998    1    1    2    0    0  0.50922837342E+02  0.44951229840E+01  0.13730105200E+04  0.13739982641E+04  0.10000000000E+02 0.  1.
</event>
<event>
 5    1  0.1503263E-008  0.3843960E+03  0.7957747E-01  0.3432238E+00
         13   -1    0    0    0    0  0.00000000000E+00  0.00000000000E+00  0.14999999963E+04  0.15000000000E+04  0.10566000000E+00 0. -1.
        994   -1    0    0    0    0 -0.00000000000E+00 -0.00000000000E+00  0.11368683772E-12  0.17120000000E+03  0.17120000000E+03 0.  0.
         13    1    1    2    0    0  0.32045947033E+01  0.18886310295E+02  0.93899829539E+02  0.95833977770E+02  0.10566000000E+00 0. -1.
        994    1    1    2    0    0 -0.30610889531E+01 -0.13189133929E+02  0.25346131439E+01  0.17175327590E+03  0.17120000000E+03 0.  0.
        998    1    1    2    0    0 -0.14350575020E+00 -0.56971763660E+01  0.14035655536E+04  0.14036127463E+04  0.10000000000E+02 0. -1.
</event>
<event>
 5    1  0.1503263E-008  0.3775146E+03  0.7957747E-01  0.3462053E+00
         13   -1    0    0    0    0  0.00000000000E+00  0.00000000000E+00  0.14999999963E+04  0.15000000000E+04  0.10566000000E+00 0. -1.
        994   -1    0    0    0    0 -0.00000000000E+00 -0.00000000000E+00  0.11368683772E-12  0.17120000000E+03  0.17120000000E+03 0.  0.
         13    1    1    2    0    0 -0.29713049018E+02  0.34611171276E+02  0.14044885235E+03  0.14767088322E+03  0.10566000000E+00 0. -1.
        994    1    1    2    0    0  0.47896803817E+02 -0.70948579275E+02  0.30504732393E+02  0.19382410432E+03  0.17120000000E+03 0.  0.
        998    1    1    2    0    0 -0.18183754799E+02  0.36337408000E+02  0.13290464115E+04  0.13297050125E+04  0.10000000000E+02 0. -1.
</event>
<event>
 5    1  0.1503263E-008  0.3818389E+03  0.7957747E-01  0.3443190E+00
         13   -1    0    0    0    0  0.00000000000E+00  0.00000000000E+00  0.14999999963E+04  0.15000000000E+04  0.10566000000E+00 0.  1.
        994   -1    0    0    0    0 -0.00000000000E+00 -0.00000000000E+00  0.11368683772E-12  0.17120000000E+03  0.17120000000E+03 0.  0.
         13    1    1    2    0    0 -0.16634222100E+02 -0.41034590879E+01  0.50086314118E+02  0.52935675563E+02  0.10566000000E+00 0.  1.
        994    1    1    2    0    0 -0.15163171586E+02 -0.57991382572E+01  0.40839256381E+01  0.17201648242E+03  0.17120000000E+03 0.  0.
        998    1    1    2    0    0  0.31797393686E+02  0.99025973451E+01  0.14458297565E+04  0.14462478420E+04  0.10000000000E+02 0.  1.
</event>
<event>
 5    1  0.1503263E-008  0.3857827E+03  0.7957747E-01  0.3426360E+00
         13   -1    0    0    0    0  0.00000000000E+00  0.00000000000E+00  0.14999999963E+04  0.15000000000E+04  0.10566000000E+00 0. -1.
        994   -1    0    0    0    0 -0.00000000000E+00 -0.00000000000E+00  0.11368683772E-12  0.17120000000E+03  0.17120000000E+03 0.  0.
         13    1    1    2    0    0  0.65443081565E+01 -0.14008892202E+02  0.93479420929E+02  0.94749619162E+02  0.10566000000E+00 0. -1.
        994    1    1    2    0    0 -0.71574810417E+01  0.12439837549E+02  0.19180291101E+01  0.17181122760E+03  0.17120000000E+03 0.  0.
        998    1    1    2    0    0  0.61317288518E+00  0.15690546527E+01  0.14046025462E+04  0.14046391532E+04  0.10000000000E+02 0.  0.
</event>
<event>
 5    1  0.1503263E-008  0.3755288E+03  0.7957747E-01  0.3470861E+00
         13   -1    0    0    0    0  0.00000000000E+00  0.00000000000E+00  0.14999999963E+04  0.15000000000E+04  0.10566000000E+00 0.  1.
        994   -1    0    0    0    0 -0.00000000000E+00 -0.00000000000E+00  0.11368683772E-12  0.17120000000E+03  0.17120000000E+03 0.  0.
         13    1    1    2    0    0 -0.69701827487E+01  0.18690586193E+02  0.28173962242E+02  0.34521077217E+02  0.10566000000E+00 0.  1.
        994    1    1    2    0    0  0.33367345245E+01 -0.16597274798E+02  0.73805065117E+01  0.17219324959E+03  0.17120000000E+03 0.  0.
        998    1    1    2    0    0  0.36334482242E+01 -0.20933113957E+01  0.14644455275E+04  0.14644856732E+04  0.10000000000E+02 0.  1.
</event>
<event>
 5    1  0.1503263E-008  0.3827144E+03  0.7957747E-01  0.3439424E+00
         13   -1    0    0    0    0  0.00000000000E+00  0.00000000000E+00  0.14999999963E+04  0.15000000000E+04  0.10566000000E+00 0.  1.
        994   -1    0    0    0    0 -0.00000000000E+00 -0.00000000000E+00  0.11368683772E-12  0.17120000000E+03  0.17120000000E+03 0.  0.
         13    1    1    2    0    0 -0.15274310937E+02  0.10991618358E+02  0.59963394447E+02  0.62846957654E+02  0.10566000000E+00 0.  1.
        994    1    1    2    0    0  0.20424389958E+02 -0.10734030652E+02  0.45350046866E+01  0.17280735339E+03  0.17120000000E+03 0.  0.
        998    1    1    2    0    0 -0.51500790204E+01 -0.25758770561E+00  0.14355015971E+04  0.14355456890E+04  0.10000000000E+02 0.  1.
</event>
<event>
 5    1  0.1503263E-008  0.3775056E+03  0.7957747E-01  0.3462092E+00
         13   -1    0    0    0    0  0.00000000000E+00  0.00000000000E+00  0.14999999963E+04  0.15000000000E+04  0.10566000000E+00 0.  1.
        994   -1    0    0    0    0 -0.00000000000E+00 -0.00000000000E+00  0.11368683772E-12  0.17120000000E+03  0.17120000000E+03 0.  0.
         13    1    1    2    0    0  0.76243848293E+01 -0.28861762207E+02  0.85394335926E+02  0.90461794886E+02  0.10566000000E+00 0.  1.
        994    1    1    2    0    0  0.11635157057E+01  0.55241234561E+01  0.55050696626E+01  0.17138149113E+03  0.17120000000E+03 0.  0.
        998    1    1    2    0    0 -0.87879005350E+01  0.23337638751E+02  0.14091005907E+04  0.14093567140E+04  0.10000000000E+02 0.  1.
</event>
<event>
 5    1  0.1503263E-008  0.3791248E+03  0.7957747E-01  0.3454978E+00
         13   -1    0    0    0    0  0.00000000000E+00  0.00000000000E+00  0.14999999963E+04  0.15000000000E+04  0.10566000000E+00 0.  1.
        994   -1    0    0    0    0 -0.00000000000E+00 -0.00000000000E+00  0.11368683772E-12  0.17120000000E+03  0.17120000000E+03 0.  0.
         13    1    1    2    0    0  0.25539964079E+02  0.28442044809E+02  0.16030485473E+03  0.16479956702E+03  0.10566000000E+00 0.  1.
        994    1    1    2    0    0  0.91341906570E+01 -0.36830364077E+02  0.94182032231E+01  0.17560766415E+03  0.17120000000E+03 0.  0.
        998    1    1    2    0    0 -0.34674154736E+02  0.83883192681E+01  0.13302769383E+04  0.13307927688E+04  0.10000000000E+02 0.  1.
</event>
<event>
 5    1  0.1503263E-008  0.4081008E+03  0.7957747E-01  0.3337243E+00
         13   -1    0    0    0    0  0.00000000000E+00  0.00000000000E+00  0.14999999963E+04  0.15000000000E+04  0.10566000000E+00 0.  1.
        994   -1    0    0    0    0 -0.00000000000E+00 -0.00000000000E+00  0.11368683772E-12  0.17120000000E+03  0.17120000000E+03 0.  0.
         13    1    1    2    0    0  0.45435380162E+01  0.11117530563E+03  0.19743051443E+03  0.22662614922E+03  0.10566000000E+00 0.  1.
        994    1    1    2    0    0 -0.80425883891E+01 -0.50391926374E+02  0.43329303495E+02  0.18382300730E+03  0.17120000000E+03 0.  0.
        998    1    1    2    0    0  0.34990503729E+01 -0.60783379255E+02  0.12592401784E+04  0.12607508435E+04  0.10000000000E+02 0.  1.
</event>
<event>
 5    1  0.1503263E-008  0.4059674E+03  0.7957747E-01  0.3345340E+00
         13   -1    0    0    0    0  0.00000000000E+00  0.00000000000E+00  0.14999999963E+04  0.15000000000E+04  0.10566000000E+00 0. -1.
        994   -1    0    0    0    0 -0.00000000000E+00 -0.00000000000E+00  0.11368683772E-12  0.17120000000E+03  0.17120000000E+03 0.  0.
         13    1    1    2    0    0 -0.39053291702E+02  0.37058312738E+02  0.37275977453E+02  0.65482728981E+02  0.10566000000E+00 0. -1.
        994    1    1    2    0    0  0.74271335136E+02  0.79377691239E+02  0.80619604170E+02  0.21823384171E+03  0.17120000000E+03 0.  0.
        998    1    1    2    0    0 -0.35218043435E+02 -0.11643600398E+03  0.13821044147E+04  0.13874834293E+04  0.10000000000E+02 0. -1.
</event>
<event>
 5    1  0.1503263E-008  0.3853500E+03  0.7957747E-01  0.3428189E+00
         13   -1    0    0    0    0  0.00000000000E+00  0.00000000000E+00  0.14999999963E+04  0.15000000000E+04  0.10566000000E+00 0. -1.
        994   -1    0    0    0    0 -0.00000000000E+00 -0.00000000000E+00  0.11368683772E-12  0.17120000000E+03  0.17120000000E+03 0.  0.
         13    1    1    2    0    0 -0.13940565244E+02 -0.46180416605E+01  0.70306611123E+02  0.71824065603E+02  0.10566000000E+00 0. -1.
        994    1    1    2    0    0  0.18055946936E+02  0.18103940229E+01  0.25389399811E+01  0.17217775978E+03  0.17120000000E+03 0.  0.
        998    1    1    2    0    0 -0.41153816920E+01  0.28076476376E+01  0.14271544452E+04  0.14271981746E+04  0.10000000000E+02 0. -1.
</event>
<event>
 5    1  0.1503263E-008  0.3842931E+03  0.7957747E-01  0.3432676E+00
         13   -1    0    0    0    0  0.00000000000E+00  0.00000000000E+00  0.14999999963E+04  0.15000000000E+04  0.10566000000E+00 0.  1.
        994   -1    0    0    0    0 -0.00000000000E+00 -0.00000000000E+00  0.11368683772E-12  0.17120000000E+03  0.17120000000E+03 0.  0.
         13    1    1    2    0    0 -0.11552154678E+02  0.81628984652E-01  0.34011620156E+02  0.35920195026E+02  0.10566000000E+00 0.  1.
        994    1    1    2    0    0  0.22914492564E+01 -0.56166063210E+01  0.21028209122E+01  0.17132033990E+03  0.17120000000E+03 0.  0.
        998    1    1    2    0    0  0.92607054220E+01  0.55349773363E+01  0.14638855552E+04  0.14639594651E+04  0.10000000000E+02 0.  1.
</event>
<event>
 5    1  0.1503263E-008  0.3856929E+03  0.7957747E-01  0.3426739E+00
         13   -1    0    0    0    0  0.00000000000E+00  0.00000000000E+00  0.14999999963E+04  0.15000000000E+04  0.10566000000E+00 0. -1.
        994   -1    0    0    0    0 -0.00000000000E+00 -0.00000000000E+00  0.11368683772E-12  0.17120000000E+03  0.17120000000E+03 0.  0.
         13    1    1    2    0    0 -0.11639635736E+02 -0.85252355964E+01  0.80775650971E+02  0.82054114558E+02  0.10566000000E+00 0. -1.
        994    1    1    2    0    0  0.16521041280E+01  0.15992947820E+02  0.21351875787E+01  0.17196657482E+03  0.17120000000E+03 0.  0.
        998    1    1    2    0    0  0.99875316078E+01 -0.74677122234E+01  0.14170891577E+04  0.14171793106E+04  0.10000000000E+02 0. -1.
</event>
<event>
 5    1  0.1503263E-008  0.3691266E+03  0.7957747E-01  0.3499915E+00
         13   -1    0    0    0    0  0.00000000000E+00  0.00000000000E+00  0.14999999963E+04  0.15000000000E+04  0.10566000000E+00 0. -1.
        994   -1    0    0    0    0 -0.00000000000E+00 -0.00000000000E+00  0.11368683772E-12  0.17120000000E+03  0.17120000000E+03 0.  0.
         13    1    1    2    0    0  0.85377949536E+02 -0.20055616064E+01  0.29623519381E+03  0.30829972066E+03  0.10566000000E+00 0. -1.
        994    1    1    2    0    0 -0.75514952501E+02 -0.23052464451E+02  0.32532526197E+02  0.19131578458E+03  0.17120000000E+03 0.  0.
        998    1    1    2    0    0 -0.98629970348E+01  0.25058026057E+02  0.11712322763E+04  0.11715844948E+04  0.10000000000E+02 0. -1.
</event>
<event>
 5    1  0.1503263E-008  0.3853955E+03  0.7957747E-01  0.3427997E+00
         13   -1    0    0    0    0  0.00000000000E+00  0.00000000000E+00  0.14999999963E+04  0.15000000000E+04  0.10566000000E+00 0. -1.
        994   -1    0    0    0    0 -0.00000000000E+00 -0.00000000000E+00  0.11368683772E-12  0.17120000000E+03  0.17120000000E+03 0.  0.
         13    1    1    2    0    0 -0.49265209934E+01 -0.11334820511E+02  0.47689198028E+02  0.49264790040E+02  0.10566000000E+00 0. -1.
        994    1    1    2    0    0  0.39783238911E+01  0.29195514169E+02  0.42906949375E+01  0.17377012163E+03  0.17120000000E+03 0.  0.
        998    1    1    2    0    0  0.94819710228E+00 -0.17860693658E+02  0.14480201033E+04  0.14481650883E+04  0.10000000000E+02 0. -1.
</event>
<event>
 5    1  0.1503263E-008  0.3850704E+03  0.7957747E-01  0.3429374E+00
         13   -1    0    0    0    0  0.00000000000E+00  0.00000000000E+00  0.14999999963E+04  0.15000000000E+04  0.10566000000E+00 0. -1.
        994   -1    0    0    0    0 -0.00000000000E+00 -0.00000000000E+00  0.11368683772E-12  0.17120000000E+03  0.17120000000E+03 0.  0.
         13    1    1    2    0    0  0.37356426517E+01 -0.14584006785E+02  0.74614486049E+02  0.76118203948E+02  0.10566000000E+00 0. -1.
        994    1    1    2    0    0 -0.53929852097E+01  0.16556453541E+01  0.16998535786E+01  0.17130135713E+03  0.17120000000E+03 0.  0.
        998    1    1    2    0    0  0.16573425579E+01  0.12928361431E+02  0.14236856567E+04  0.14237804389E+04  0.10000000000E+02 0. -1.
</event>
<event>
 5    1  0.1503263E-008  0.3752969E+03  0.7957747E-01  0.3471896E+00
         13   -1    0    0    0    0  0.00000000000E+00  0.00000000000E+00  0.14999999963E+04  0.15000000000E+04  0.10566000000E+00 0.  1.
        994   -1    0    0    0    0 -0.00000000000E+00 -0.00000000000E+00  0.11368683772E-12  0.17120000000E+03  0.17120000000E+03 0.  0.
         13    1    1    2    0    0  0.18572642712E+02 -0.68221276947E+02  0.30463419920E+03  0.31273166161E+03  0.10566000000E+00 0.  1.
        994    1    1    2    0    0 -0.14425216024E+02  0.68948436660E+02  0.23567157195E+02  0.18661946488E+03  0.17120000000E+03 0.  0.
        998    1    1    2    0    0 -0.41474266881E+01 -0.72715971305E+00  0.11717986399E+04  0.11718488735E+04  0.10000000000E+02 0.  1.
</event>
<event>
 5    1  0.1503263E-008  0.3847721E+03  0.7957747E-01  0.3430639E+00
         13   -1    0    0    0    0  0.00000000000E+00  0.00000000000E+00  0.14999999963E+04  0.15000000000E+04  0.10566000000E+00 0. -1.
        994   -1    0    0    0    0 -0.00000000000E+00 -0.00000000000E+00  0.11368683772E-12  0.17120000000E+03  0.17120000000E+03 0.  0.
         13    1    1    2    0    0 -0.13904243026E+02 -0.43723996974E+01  0.63920977630E+02  0.65561790690E+02  0.10566000000E+00 0. -1.
        994    1    1    2    0    0  0.26161246471E+01 -0.32502484298E+01  0.18006430150E+01  0.17126030053E+03  0.17120000000E+03 0.  0.
        998    1    1    2    0    0  0.11288118379E+02  0.76226481273E+01  0.14342783756E+04  0.14343779088E+04  0.10000000000E+02 0. -1.
</event>
<event>
 5    1  0.1503263E-008  0.3791728E+03  0.7957747E-01  0.3454768E+00
         13   -1    0    0    0    0  0.00000000000E+00  0.00000000000E+00  0.14999999963E+04  0.15000000000E+04  0.10566000000E+00 0. -1.
        994   -1    0    0    0    0 -0.00000000000E+00 -0.00000000000E+00  0.11368683772E-12  0.17120000000E+03  0.17120000000E+03 0.  0.
         13    1    1    2    0    0  0.11067583076E+03  0.58162038937E+02  0.70505155730E+03  0.71605144501E+03  0.10566000000E+00 0. -1.
        994    1    1    2    0    0 -0.12117287403E+03 -0.62527985769E+02  0.69633493838E+02  0.22967559267E+03  0.17120000000E+03 0.  0.
        998    1    1    2    0    0  0.10497043269E+02  0.43659468325E+01  0.72531494514E+03  0.72547296232E+03  0.10000000000E+02 0. -1.
</event>
<event>
 5    1  0.1503263E-008  0.3787144E+03  0.7957747E-01  0.3456775E+00
         13   -1    0    0    0    0  0.00000000000E+00  0.00000000000E+00  0.14999999963E+04  0.15000000000E+04  0.10566000000E+00 0. -1.
        994   -1    0    0    0    0 -0.00000000000E+00 -0.00000000000E+00  0.11368683772E-12  0.17120000000E+03  0.17120000000E+03 0.  0.
         13    1    1    2    0    0  0.78477009698E+01 -0.13317962218E+02  0.23162880206E+02  0.27847526132E+02  0.10566000000E+00 0. -1.
        994    1    1    2    0    0 -0.35848157150E+01  0.70423398435E+01  0.49931648025E+01  0.17145500036E+03  0.17120000000E+03 0.  0.
        998    1    1    2    0    0 -0.42628852548E+01  0.62756223748E+01  0.14718439513E+04  0.14718974735E+04  0.10000000000E+02 0. -1.
</event>
<event>
 5    1  0.1503263E-008  0.3724179E+03  0.7957747E-01  0.3484852E+00
         13   -1    0    0    0    0  0.00000000000E+00  0.00000000000E+00  0.14999999963E+04  0.15000000000E+04  0.10566000000E+00 0.  1.
        994   -1    0    0    0    0 -0.00000000000E+00 -0.00000000000E+00  0.11368683772E-12  0.17120000000E+03  0.17120000000E+03 0.  0.
         13    1    1    2    0    0  0.10879659095E+03  0.11225061615E+03  0.62172983025E+03  0.64108103389E+03  0.10566000000E+00 0.  1.
        994    1    1    2    0    0 -0.13660819726E+03 -0.11446101796E+03  0.12624020524E+03  0.27750523168E+03  0.17120000000E+03 0.  0.
        998    1    1    2    0    0  0.27811606315E+02  0.22104018094E+01  0.75202996079E+03  0.75261373443E+03  0.10000000000E+02 0.  1.
</event>
<event>
 5    1  0.1503263E-008  0.3856508E+03  0.7957747E-01  0.3426917E+00
         13   -1    0    0    0    0  0.00000000000E+00  0.00000000000E+00  0.14999999963E+04  0.15000000000E+04  0.10566000000E+00 0.  1.
        994   -1    0    0    0    0 -0.00000000000E+00 -0.00000000000E+00  0.11368683772E-12  0.17120000000E+03  0.17120000000E+03 0.  0.
         13    1    1    2    0    0 -0.95252612279E+01  0.31957808733E+01  0.37523242945E+02  0.38845186857E+02  0.10566000000E+00 0.  1.
        994    1    1    2    0    0  0.12582441822E+02 -0.33450051964E+01  0.18638366871E+01  0.17170445769E+03  0.17120000000E+03 0.  0.
        998    1    1    2    0    0 -0.30571805940E+01  0.14922432315E+00  0.14606129166E+04  0.14606503555E+04  0.10000000000E+02 0.  1.
</event>
<event>
 5    1  0.1503263E-008  0.3861157E+03  0.7957747E-01  0.3424954E+00
         13   -1    0    0    0    0  0.00000000000E+00  0.00000000000E+00  0.14999999963E+04  0.15000000000E+04  0.10566000000E+00 0. -1.
        994   -1    0    0    0    0 -0.00000000000E+00 -0.00000000000E+00  0.11368683772E-12  0.17120000000E+03  0.17120000000E+03 0.  0.
         13    1    1    2    0    0  0.11104474832E+02 -0.20143826889E+01  0.63965002894E+02  0.64953058882E+02  0.10566000000E+00 0. -1.
        994    1    1    2    0    0 -0.17089600535E+01 -0.12587427457E+02  0.16061319850E+01  0.17167813936E+03  0.17120000000E+03 0.  0.
        998    1    1    2    0    0 -0.93955147786E+01  0.14601810145E+02  0.14344288614E+04  0.14345688018E+04  0.10000000000E+02 0. -1.
</event>
<event>
 5    1  0.1503263E-008  0.3834335E+03  0.7957747E-01  0.3436343E+00
         13   -1    0    0    0    0  0.00000000000E+00  0.00000000000E+00  0.14999999963E+04  0.15000000000E+04  0.10566000000E+00 0. -1.
        994   -1    0    0    0    0 -0.00000000000E+00 -0.00000000000E+00  0.11368683772E-12  0.17120000000E+03  0.17120000000E+03 0.  0.
         13    1    1    2    0    0  0.50606229768E+00  0.23927708763E+02  0.10599661370E+03  0.10866501105E+03  0.10566000000E+00 0. -1.
        994    1    1    2    0    0 -0.50520002098E+01 -0.31136835282E+02  0.57058295141E+01  0.17417526147E+03  0.17120000000E+03 0.  0.
        998    1    1    2    0    0  0.45459379122E+01  0.72091265188E+01  0.13882975531E+04  0.13883597275E+04  0.10000000000E+02 0. -1.
</event>
<event>
 5    1  0.1503263E-008  0.4164907E+03  0.7957747E-01  0.3306193E+00
         13   -1    0    0    0    0  0.00000000000E+00  0.00000000000E+00  0.14999999963E+04  0.15000000000E+04  0.10566000000E+00 0.  1.
        994   -1    0    0    0    0 -0.00000000000E+00 -0.00000000000E+00  0.11368683772E-12  0.17120000000E+03  0.17120000000E+03 0.  0.
         13    1    1    2    0    0  0.11196010264E+03 -0.61559808968E+02  0.18687696530E+03  0.22637951760E+03  0.10566000000E+00 0.  1.
        994    1    1    2    0    0 -0.10070403831E+03  0.51871364350E+02  0.94370104223E+02  0.22593604923E+03  0.17120000000E+03 0.  0.
        998    1    1    2    0    0 -0.11256064332E+02  0.96884446173E+01  0.12187529268E+04  0.12188844332E+04  0.10000000000E+02 0.  1.
</event>
<event>
 5    1  0.1503263E-008  0.3835325E+03  0.7957747E-01  0.3435920E+00
         13   -1    0    0    0    0  0.00000000000E+00  0.00000000000E+00  0.14999999963E+04  0.15000000000E+04  0.10566000000E+00 0.  1.
        994   -1    0    0    0    0 -0.00000000000E+00 -0.00000000000E+00  0.11368683772E-12  0.17120000000E+03  0.17120000000E+03 0.  0.
         13    1    1    2    0    0 -0.14077206635E+01 -0.10459105167E+02  0.22630079207E+02  0.24970106273E+02  0.10566000000E+00 0.  1.
        994    1    1    2    0    0  0.23588687661E+01  0.92021603196E+01  0.26587430914E+01  0.17148397281E+03  0.17120000000E+03 0.  0.
        998    1    1    2    0    0 -0.95114810259E+00  0.12569448474E+01  0.14747111740E+04  0.14747459209E+04  0.10000000000E+02 0.  1.
</event>
<event>
 5    1  0.1503263E-008  0.3821848E+03  0.7957747E-01  0.3441700E+00
         13   -1    0    0    0    0  0.00000000000E+00  0.00000000000E+00  0.14999999963E+04  0.15000000000E+04  0.10566000000E+00 0. -1.
        994   -1    0    0    0    0 -0.00000000000E+00 -0.00000000000E+00  0.11368683772E-12  0.17120000000E+03  0.17120000000E+03 0.  0.
         13    1    1    2    0    0 -0.56207862566E+01 -0.88301466811E+01  0.16929754415E+02  0.19904584324E+02  0.10566000000E+00 0. -1.
        994    1    1    2    0    0 -0.45341197730E+01  0.92526427747E+01  0.33867518384E+01  0.17154322991E+03  0.17120000000E+03 0.  0.
        998    1    1    2    0    0  0.10154906030E+02 -0.42249609366E+00  0.14796834900E+04  0.14797521858E+04  0.10000000000E+02 0. -1.
</event>
<event>
 5    1  0.1503263E-008  0.3702671E+03  0.7957747E-01  0.3494664E+00
         13   -1    0    0    0    0  0.00000000000E+00  0.00000000000E+00  0.14999999963E+04  0.15000000000E+04  0.10566000000E+00 0.  1.
        994   -1    0    0    0    0 -0.00000000000E+00 -0.00000000000E+00  0.11368683772E-12  0.17120000000E+03  0.17120000000E+03 0.  0.
         13    1    1    2    0    0 -0.14491519282E+02  0.20966561057E+02  0.31373043534E+02  0.40421279523E+02  0.10566000000E+00 0.  1.
        994    1    1    2    0    0  0.90854839656E+01 -0.22394618433E+02  0.11149785755E+02  0.17325652275E+03  0.17120000000E+03 0.  0.
        998    1    1    2    0    0  0.54060353159E+01  0.14280573762E+01  0.14574771670E+04  0.14575221977E+04  0.10000000000E+02 0.  1.
</event>
<event>
 5    1  0.1503263E-008  0.3833750E+03  0.7957747E-01  0.3436593E+00
         13   -1    0    0    0    0  0.00000000000E+00  0.00000000000E+00  0.14999999963E+04  0.15000000000E+04  0.10566000000E+00 0. -1.
        994   -1    0    0    0    0 -0.00000000000E+00 -0.00000000000E+00  0.11368683772E-12  0.17120000000E+03  0.17120000000E+03 0.  0.
         13    1    1    2    0    0  0.84039480327E+01  0.23247230040E+02  0.12195149599E+03  0.12443166231E+03  0.10566000000E+00 0. -1.
        994    1    1    2    0    0 -0.75107465206E+00 -0.19010273852E+02  0.36366278311E+01  0.17229225080E+03  0.17120000000E+03 0.  0.
        998    1    1    2    0    0 -0.76528733806E+01 -0.42369561885E+01  0.13744118725E+04  0.13744760869E+04  0.10000000000E+02 0. -1.
</event>
<event>
 5    1  0.1503263E-008  0.3729799E+03  0.7957747E-01  0.3482307E+00
         13   -1    0    0    0    0  0.00000000000E+00  0.00000000000E+00  0.14999999963E+04  0.15000000000E+04  0.10566000000E+00 0. -1.
        994   -1    0    0    0    0 -0.00000000000E+00 -0.00000000000E+00  0.11368683772E-12  0.17120000000E+03  0.17120000000E+03 0.  0.
         13    1    1    2    0    0 -0.62879515809E+01  0.88224779117E+01  0.38248592528E+01  0.11489785199E+02  0.10566000000E+00 0. -1.
        994    1    1    2    0    0  0.26880966238E+02 -0.11119645012E+02  0.10621492369E+02  0.17397841519E+03  0.17120000000E+03 0.  0.
        998    1    1    2    0    0 -0.20593014657E+02  0.22971670998E+01  0.14855536447E+04  0.14857317996E+04  0.10000000000E+02 0. -1.
</event>
<event>
 5    1  0.1503263E-008  0.3722649E+03  0.7957747E-01  0.3485546E+00
         13   -1    0    0    0    0  0.00000000000E+00  0.00000000000E+00  0.14999999963E+04  0.15000000000E+04  0.10566000000E+00 0.  1.
        994   -1    0    0    0    0 -0.00000000000E+00 -0.00000000000E+00  0.11368683772E-12  0.17120000000E+03  0.17120000000E+03 0.  0.
         13    1    1    2    0    0  0.50106711063E+02 -0.76044879504E+02  0.33514072036E+03  0.34729356430E+03  0.10566000000E+00 0.  1.
        994    1    1    2    0    0 -0.48170609741E+01  0.63090311726E+02  0.26386957173E+02  0.18441611377E+03  0.17120000000E+03 0.  0.
        998    1    1    2    0    0 -0.45289650089E+02  0.12954567778E+02  0.11384723187E+04  0.11394903219E+04  0.10000000000E+02 0.  1.
</event>
<event>
 5    1  0.1503263E-008  0.3707325E+03  0.7957747E-01  0.3492531E+00
         13   -1    0    0    0    0  0.00000000000E+00  0.00000000000E+00  0.14999999963E+04  0.15000000000E+04  0.10566000000E+00 0.  1.
        994   -1    0    0    0    0 -0.00000000000E+00 -0.00000000000E+00  0.11368683772E-12  0.17120000000E+03  0.17120000000E+03 0.  0.
         13    1    1    2    0    0 -0.61711971648E+02 -0.48488098677E+02  0.26670205743E+03  0.27800982313E+03  0.10566000000E+00 0.  1.
        994    1    1    2    0    0  0.65881847201E+02  0.57021798262E+02  0.35545331079E+02  0.19535816806E+03  0.17120000000E+03 0.  0.
        998    1    1    2    0    0 -0.41698755536E+01 -0.85336995853E+01  0.11977526078E+04  0.11978320088E+04  0.10000000000E+02 0.  1.
</event>
<event>
 5    1  0.1503263E-008  0.3823237E+03  0.7957747E-01  0.3441103E+00
         13   -1    0    0    0    0  0.00000000000E+00  0.00000000000E+00  0.14999999963E+04  0.15000000000E+04  0.10566000000E+00 0.  1.
        994   -1    0    0    0    0 -0.00000000000E+00 -0.00000000000E+00  0.11368683772E-12  0.17120000000E+03  0.17120000000E+03 0.  0.
         13    1    1    2    0    0  0.15083013322E+02  0.25178173851E+02  0.13524115647E+03  0.13838937567E+03  0.10566000000E+00 0.  1.
        994    1    1    2    0    0 -0.13788093438E+02 -0.23204504260E+02  0.53854414892E+01  0.17339839538E+03  0.17120000000E+03 0.  0.
        998    1    1    2    0    0 -0.12949198840E+01 -0.19736695912E+01  0.13593733983E+04  0.13594122290E+04  0.10000000000E+02 0.  0.
</event>
<event>
 5    1  0.1503263E-008  0.3781818E+03  0.7957747E-01  0.3459114E+00
         13   -1    0    0    0    0  0.00000000000E+00  0.00000000000E+00  0.14999999963E+04  0.15000000000E+04  0.10566000000E+00 0. -1.
        994   -1    0    0    0    0 -0.00000000000E+00 -0.00000000000E+00  0.11368683772E-12  0.17120000000E+03  0.17120000000E+03 0.  0.
         13    1    1    2    0    0  0.25391472667E+02 -0.38652933497E+02  0.21571101750E+03  0.22061285182E+03  0.10566000000E+00 0. -1.
        994    1    1    2    0    0 -0.14841355199E+02  0.17458409421E+02  0.68216512763E+01  0.17286132248E+03  0.17120000000E+03 0.  0.
        998    1    1    2    0    0 -0.10550117468E+02  0.21194524076E+02  0.12774673275E+04  0.12777258257E+04  0.10000000000E+02 0. -1.
</event>
<event>
 5    1  0.1697071E-008  0.3861093E+03  0.7957747E-01  0.3424981E+00
         13   -1    0    0    0    0  0.00000000000E+00  0.00000000000E+00  0.14999999963E+04  0.15000000000E+04  0.10566000000E+00 0. -1.
        994   -1    0    0    0    0 -0.00000000000E+00 -0.00000000000E+00  0.11368683772E-12  0.17120000000E+03  0.17120000000E+03 0.  0.
         13    1    1    2    0    0 -0.10720208494E+02 -0.74071219043E+01  0.77773137526E+02  0.78857215331E+02  0.10566000000E+00 0. -1.
        994    1    1    2    0    0  0.34521721423E+02 -0.24780945173E+02  0.70203760873E+01  0.17653489789E+03  0.17120000000E+03 0.  0.
        998    1    1    2    0    0 -0.23801512929E+02  0.32188067078E+02  0.14152064827E+04  0.14158078868E+04  0.10000000000E+02 0. -1.
</event>
<event>
 5    1  0.1503263E-008  0.3788919E+03  0.7957747E-01  0.3455998E+00
         13   -1    0    0    0    0  0.00000000000E+00  0.00000000000E+00  0.14999999963E+04  0.15000000000E+04  0.10566000000E+00 0.  1.
        994   -1    0    0    0    0 -0.00000000000E+00 -0.00000000000E+00  0.11368683772E-12  0.17120000000E+03  0.17120000000E+03 0.  0.
         13    1    1    2    0    0 -0.32032078538E+02  0.79540059441E+01  0.10783299020E+03  0.11277094132E+03  0.10566000000E+00 0.  1.
        994    1    1    2    0    0  0.30381687947E+02 -0.90662455049E+01  0.80737202737E+01  0.17429821780E+03  0.17120000000E+03 0.  0.
        998    1    1    2    0    0  0.16503905907E+01  0.11122395607E+01  0.13840932858E+04  0.13841308409E+04  0.10000000000E+02 0.  0.
</event>
<event>
 5    1  0.1503263E-008  0.3848367E+03  0.7957747E-01  0.3430365E+00
         13   -1    0    0    0    0  0.00000000000E+00  0.00000000000E+00  0.14999999963E+04  0.15000000000E+04  0.10566000000E+00 0. -1.
        994   -1    0    0    0    0 -0.00000000000E+00 -0.00000000000E+00  0.11368683772E-12  0.17120000000E+03  0.17120000000E+03 0.  0.
         13    1    1    2    0    0 -0.61826505152E+01  0.14058494155E+02  0.66713425901E+02  0.68458445679E+02  0.10566000000E+00 0. -1.
        994    1    1    2    0    0  0.36649731000E+01 -0.14934703847E+02  0.24897340132E+01  0.17190728950E+03  0.17120000000E+03 0.  0.
        998    1    1    2    0    0  0.25176774152E+01  0.87620969214E+00  0.14307968364E+04  0.14308342648E+04  0.10000000000E+02 0. -1.
</event>
<event>
 5    1  0.1503263E-008  0.3852547E+03  0.7957747E-01  0.3428593E+00
         13   -1    0    0    0    0  0.00000000000E+00  0.00000000000E+00  0.14999999963E+04  0.15000000000E+04  0.10566000000E+00 0. -1.
        994   -1    0    0    0    0 -0.00000000000E+00 -0.00000000000E+00  0.11368683772E-12  0.17120000000E+03  0.17120000000E+03 0.  0.
         13    1    1    2    0    0  0.96335886659E+00 -0.15059553889E+02  0.71481586309E+02  0.73057145912E+02  0.10566000000E+00 0. -1.
        994    1    1    2    0    0 -0.25073847917E+01  0.18607106800E+02  0.26629103028E+01  0.17224703914E+03  0.17120000000E+03 0.  0.
        998    1    1    2    0    0  0.15440259251E+01 -0.35475529117E+01  0.14258554997E+04  0.14258958149E+04  0.10000000000E+02 0. -1.
</event>
<event>
 5    1  0.1503263E-008  0.3816491E+03  0.7957747E-01  0.3444009E+00
         13   -1    0    0    0    0  0.00000000000E+00  0.00000000000E+00  0.14999999963E+04  0.15000000000E+04  0.10566000000E+00 0. -1.
        994   -1    0    0    0    0 -0.00000000000E+00 -0.00000000000E+00  0.11368683772E-12  0.17120000000E+03  0.17120000000E+03 0.  0.
         13    1    1    2    0    0  0.66162934806E+01  0.16880628596E+02  0.50091291702E+02  0.53271752643E+02  0.10566000000E+00 0. -1.
        994    1    1    2    0    0  0.15889272888E+02 -0.11324486400E+02  0.45698283986E+01  0.17236889602E+03  0.17120000000E+03 0.  0.
        998    1    1    2    0    0 -0.22505566369E+02 -0.55561421960E+01  0.14453388762E+04  0.14455593513E+04  0.10000000000E+02 0. -1.
</event>
<event>
 5    1  0.1503263E-008  0.3684759E+03  0.7957747E-01  0.3502925E+00
         13   -1    0    0    0    0  0.00000000000E+00  0.00000000000E+00  0.14999999963E+04  0.15000000000E+04  0.10566000000E+00 0.  1.
        994   -1    0    0    0    0 -0.00000000000E+00 -0.00000000000E+00  0.11368683772E-12  0.17120000000E+03  0.17120000000E+03 0.  0.
         13    1    1    2    0    0 -0.24537133244E+02  0.14099489537E+02  0.35915059865E+02  0.45724929767E+02  0.10566000000E+00 0.  1.
        994    1    1    2    0    0  0.10444398024E+02 -0.17148366857E+02  0.11470478642E+02  0.17275463472E+03  0.17120000000E+03 0.  0.
        998    1    1    2    0    0  0.14092735220E+02  0.30488773194E+01  0.14526144578E+04  0.14527204355E+04  0.10000000000E+02 0.  1.
</event>
<event>
 5    1  0.1503263E-008  0.3765159E+03  0.7957747E-01  0.3466471E+00
         13   -1    0    0    0    0  0.00000000000E+00  0.00000000000E+00  0.14999999963E+04  0.15000000000E+04  0.10566000000E+00 0.  1.
        994   -1    0    0    0    0 -0.00000000000E+00 -0.00000000000E+00  0.11368683772E-12  0.17120000000E+03  0.17120000000E+03 0.  0.
         13    1    1    2    0    0  0.90906889685E+00 -0.10199958551E+02  0.63031777230E+01  0.12025255679E+02  0.10566000000E+00 0.  1.
        994    1    1    2    0    0  0.25377026198E+02 -0.11171381143E+00  0.80833401484E+01  0.17325930372E+03  0.17120000000E+03 0.  0.
        998    1    1    2    0    0 -0.26286095095E+02  0.10311672362E+02  0.14856134784E+04  0.14859154406E+04  0.10000000000E+02 0.  1.
</event>
<event>
 5    1  0.1503263E-008  0.3851093E+03  0.7957747E-01  0.3429209E+00
         13   -1    0    0    0    0  0.00000000000E+00  0.00000000000E+00  0.14999999963E+04  0.15000000000E+04  0.10566000000E+00 0.  1.
        994   -1    0    0    0    0 -0.00000000000E+00 -0.00000000000E+00  0.11368683772E-12  0.17120000000E+03  0.17120000000E+03 0.  0.
         13    1    1    2    0    0 -0.14496755934E+02 -0.59156712608E+01  0.79551995903E+02  0.81078248102E+02  0.10566000000E+00 0.  1.
        994    1    1    2    0    0  0.68158484833E+01  0.25053012293E+01  0.17492492588E+01  0.17136286703E+03  0.17120000000E+03 0.  0.
        998    1    1    2    0    0  0.76809074511E+01  0.34103700315E+01  0.14186987511E+04  0.14187588849E+04  0.10000000000E+02 0.  1.
</event>
<event>
 5    1  0.2244931E-008  0.3863069E+03  0.7957747E-01  0.3424148E+00
         13   -1    0    0    0    0  0.00000000000E+00  0.00000000000E+00  0.14999999963E+04  0.15000000000E+04  0.10566000000E+00 0.  1.
        994   -1    0    0    0    0 -0.00000000000E+00 -0.00000000000E+00  0.11368683772E-12  0.17120000000E+03  0.17120000000E+03 0.  0.
         13    1    1    2    0    0  0.72907416019E+01 -0.81842831855E+01  0.58941420142E+02  0.59951977254E+02  0.10566000000E+00 0.  1.
        994    1    1    2    0    0 -0.73483569615E+01  0.12747930518E+02  0.16920181643E+01  0.17183949199E+03  0.17120000000E+03 0.  0.
        998    1    1    2    0    0  0.57615359574E-01 -0.45636473328E+01  0.14393665580E+04  0.14394085308E+04  0.10000000000E+02 0.  1.
</event>
<event>
 5    1  0.1503263E-008  0.3837492E+03  0.7957747E-01  0.3434994E+00
         13   -1    0    0    0    0  0.00000000000E+00  0.00000000000E+00  0.14999999963E+04  0.15000000000E+04  0.10566000000E+00 0. -1.
        994   -1    0    0    0    0 -0.00000000000E+00 -0.00000000000E+00  0.11368683772E-12  0.17120000000E+03  0.17120000000E+03 0.  0.
         13    1    1    2    0    0 -0.13850604936E+02  0.89619469327E+01  0.66208003362E+02  0.68232445531E+02  0.10566000000E+00 0. -1.
        994    1    1    2    0    0 -0.36458544618E+01  0.75241260584E+01  0.24832628805E+01  0.17142202695E+03  0.17120000000E+03 0.  0.
        998    1    1    2    0    0  0.17496459397E+02 -0.16486072991E+02  0.14313087300E+04  0.14315455275E+04  0.10000000000E+02 0. -1.
</event>
<event>
 5    1  0.1688993E-008  0.3861903E+03  0.7957747E-01  0.3424640E+00
         13   -1    0    0    0    0  0.00000000000E+00  0.00000000000E+00  0.14999999963E+04  0.15000000000E+04  0.10566000000E+00 0. -1.
        994   -1    0    0    0    0 -0.00000000000E+00 -0.00000000000E+00  0.11368683772E-12  0.17120000000E+03  0.17120000000E+03 0.  0.
         13    1    1    2    0    0 -0.95335018188E+01  0.35370614795E+01  0.47341545764E+02  0.48421395893E+02  0.10566000000E+00 0. -1.
        994    1    1    2    0    0  0.16307348355E+02 -0.33094587535E+01  0.19479236261E+01  0.17201777970E+03  0.17120000000E+03 0.  0.
        998    1    1    2    0    0 -0.67738465360E+01 -0.22760272593E+00  0.14507105269E+04  0.14507608244E+04  0.10000000000E+02 0. -1.
</event>
<event>
 5    1  0.1503263E-008  0.3697477E+03  0.7957747E-01  0.3497051E+00
         13   -1    0    0    0    0  0.00000000000E+00  0.00000000000E+00  0.14999999963E+04  0.15000000000E+04  0.10566000000E+00 0.  1.
        994   -1    0    0    0    0 -0.00000000000E+00 -0.00000000000E+00  0.11368683772E-12  0.17120000000E+03  0.17120000000E+03 0.  0.
         13    1    1    2    0    0  0.11387904297E+03 -0.13129555682E+02  0.60082298639E+03  0.61166093042E+03  0.10566000000E+00 0.  1.
        994    1    1    2    0    0 -0.85487145215E+02 -0.16880608874E+02  0.36157310447E+02  0.19547326685E+03  0.17120000000E+03 0.  0.
        998    1    1    2    0    0 -0.28391897753E+02  0.30010164555E+02  0.86301969944E+03  0.86406580274E+03  0.10000000000E+02 0.  1.
</event>
<event>
 5    1  0.1503263E-008  0.3737378E+03  0.7957747E-01  0.3478887E+00
         13   -1    0    0    0    0  0.00000000000E+00  0.00000000000E+00  0.14999999963E+04  0.15000000000E+04  0.10566000000E+00 0. -1.
        994   -1    0    0    0    0 -0.00000000000E+00 -0.00000000000E+00  0.11368683772E-12  0.17120000000E+03  0.17120000000E+03 0.  0.
         13    1    1    2    0    0 -0.52146124936E+02  0.62789103084E+02  0.38621541364E+03  0.39474554679E+03  0.10566000000E+00 0. -1.
        994    1    1    2    0    0  0.58894330239E+02 -0.37397012212E+02  0.24129724893E+02  0.18643701961E+03  0.17120000000E+03 0.  0.
        998    1    1    2    0    0 -0.67482053037E+01 -0.25392090871E+02  0.10896548577E+04  0.10900174336E+04  0.10000000000E+02 0. -1.
</event>
<event>
 5    1  0.1503263E-008  0.3705880E+03  0.7957747E-01  0.3493193E+00
         13   -1    0    0    0    0  0.00000000000E+00  0.00000000000E+00  0.14999999963E+04  0.15000000000E+04  0.10566000000E+00 0.  1.
        994   -1    0    0    0    0 -0.00000000000E+00 -0.00000000000E+00  0.11368683772E-12  0.17120000000E+03  0.17120000000E+03 0.  0.
         13    1    1    2    0    0 -0.34566880909E+02  0.87815266189E+02  0.38519552552E+03  0.39658794015E+03  0.10566000000E+00 0.  1.
        994    1    1    2    0    0  0.34380458030E+02 -0.80161858451E+02  0.35691804000E+02  0.19542590493E+03  0.17120000000E+03 0.  0.
        998    1    1    2    0    0  0.18642287972E+00 -0.76534077388E+01  0.10791126668E+04  0.10791861549E+04  0.10000000000E+02 0.  1.
</event>
<event>
 5    1  0.1503263E-008  0.3852421E+03  0.7957747E-01  0.3428646E+00
         13   -1    0    0    0    0  0.00000000000E+00  0.00000000000E+00  0.14999999963E+04  0.15000000000E+04  0.10566000000E+00 0.  1.
        994   -1    0    0    0    0 -0.00000000000E+00 -0.00000000000E+00  0.11368683772E-12  0.17120000000E+03  0.17120000000E+03 0.  0.
         13    1    1    2    0    0  0.15839732666E+02  0.33166725743E+01  0.94297096725E+02  0.95675760058E+02  0.10566000000E+00 0.  1.
        994    1    1    2    0    0 -0.76170906021E+00  0.18379011128E+01  0.15230096698E+01  0.17121833325E+03  0.17120000000E+03 0.  0.
        998    1    1    2    0    0 -0.15078023606E+02 -0.51545736871E+01  0.14041798899E+04  0.14043059067E+04  0.10000000000E+02 0.  1.
</event>
<event>
 5    1  0.1503263E-008  0.3746269E+03  0.7957747E-01  0.3474893E+00
         13   -1    0    0    0    0  0.00000000000E+00  0.00000000000E+00  0.14999999963E+04  0.15000000000E+04  0.10566000000E+00 0.  1.
        994   -1    0    0    0    0 -0.00000000000E+00 -0.00000000000E+00  0.11368683772E-12  0.17120000000E+03  0.17120000000E+03 0.  0.
         13    1    1    2    0    0  0.27115332576E+02  0.22955396620E+02  0.99212856263E+02  0.10538213087E+03  0.10566000000E+00 0.  1.
        994    1    1    2    0    0  0.16434519313E+01  0.25979783487E+01  0.69026047475E+01  0.17136667231E+03  0.17120000000E+03 0.  0.
        998    1    1    2    0    0 -0.28758784508E+02 -0.25553374969E+02  0.13938845353E+04  0.13944511968E+04  0.10000000000E+02 0.  1.
</event>
<event>
 5    1  0.1503263E-008  0.3844751E+03  0.7957747E-01  0.3431902E+00
         13   -1    0    0    0    0  0.00000000000E+00  0.00000000000E+00  0.14999999963E+04  0.15000000000E+04  0.10566000000E+00 0. -1.
        994   -1    0    0    0    0 -0.00000000000E+00 -0.00000000000E+00  0.11368683772E-12  0.17120000000E+03  0.17120000000E+03 0.  0.
         13    1    1    2    0    0 -0.13043717345E+02  0.72661620865E+01  0.59137544549E+02  0.60993409586E+02  0.10566000000E+00 0. -1.
        994    1    1    2    0    0  0.37351792745E+01 -0.10894340748E+02  0.23280427865E+01  0.17160273310E+03  0.17120000000E+03 0.  0.
        998    1    1    2    0    0  0.93085380701E+01  0.36281786615E+01  0.14385344089E+04  0.14386038573E+04  0.10000000000E+02 0. -1.
</event>
<event>
 5    1  0.1503263E-008  0.3862484E+03  0.7957747E-01  0.3424395E+00
         13   -1    0    0    0    0  0.00000000000E+00  0.00000000000E+00  0.14999999963E+04  0.15000000000E+04  0.10566000000E+00 0.  1.
        994   -1    0    0    0    0 -0.00000000000E+00 -0.00000000000E+00  0.11368683772E-12  0.17120000000E+03  0.17120000000E+03 0.  0.
         13    1    1    2    0    0 -0.99729710933E+00 -0.11274457638E+02  0.67366465805E+02  0.68310759589E+02  0.10566000000E+00 0.  1.
        994    1    1    2    0    0  0.10091635621E+02  0.12372268922E+01  0.13502605545E+01  0.17150695334E+03  0.17120000000E+03 0.  0.
        998    1    1    2    0    0 -0.90943385116E+01  0.10037230746E+02  0.14312832699E+04  0.14313822871E+04  0.10000000000E+02 0.  1.
</event>
<event>
 5    1  0.1503263E-008  0.3847440E+03  0.7957747E-01  0.3430758E+00
         13   -1    0    0    0    0  0.00000000000E+00  0.00000000000E+00  0.14999999963E+04  0.15000000000E+04  0.10566000000E+00 0. -1.
        994   -1    0    0    0    0 -0.00000000000E+00 -0.00000000000E+00  0.11368683772E-12  0.17120000000E+03  0.17120000000E+03 0.  0.
         13    1    1    2    0    0 -0.70629069915E+01  0.15555430077E+02  0.93691657705E+02  0.95236515831E+02  0.10566000000E+00 0. -1.
        994    1    1    2    0    0 -0.67003521677E+01  0.26390243903E+01  0.19279776684E+01  0.17136223699E+03  0.17120000000E+03 0.  0.
        998    1    1    2    0    0  0.13763259159E+02 -0.18194454468E+02  0.14043803609E+04  0.14046012472E+04  0.10000000000E+02 0. -1.
</event>
<event>
 5    1  0.1503263E-008  0.3839398E+03  0.7957747E-01  0.3434181E+00
         13   -1    0    0    0    0  0.00000000000E+00  0.00000000000E+00  0.14999999963E+04  0.15000000000E+04  0.10566000000E+00 0. -1.
        994   -1    0    0    0    0 -0.00000000000E+00 -0.00000000000E+00  0.11368683772E-12  0.17120000000E+03  0.17120000000E+03 0.  0.
         13    1    1    2    0    0  0.89628180682E+01 -0.58093399849E+01  0.25487751820E+02  0.27635433698E+02  0.10566000000E+00 0. -1.
        994    1    1    2    0    0 -0.90664094543E+01  0.54579090624E+01  0.25270629304E+01  0.17154537184E+03  0.17120000000E+03 0.  0.
        998    1    1    2    0    0  0.10359138606E+00  0.35143092256E+00  0.14719851815E+04  0.14720191945E+04  0.10000000000E+02 0. -1.
</event>
<event>
 5    1  0.1503263E-008  0.3841312E+03  0.7957747E-01  0.3433365E+00
         13   -1    0    0    0    0  0.00000000000E+00  0.00000000000E+00  0.14999999963E+04  0.15000000000E+04  0.10566000000E+00 0.  1.
        994   -1    0    0    0    0 -0.00000000000E+00 -0.00000000000E+00  0.11368683772E-12  0.17120000000E+03  0.17120000000E+03 0.  0.
         13    1    1    2    0    0  0.15368820314E+01 -0.11157701286E+02  0.31311954990E+02  0.33276207622E+02  0.10566000000E+00 0.  1.
        994    1    1    2    0    0  0.25386341420E+01 -0.71207737111E+00  0.20850311354E+01  0.17123299645E+03  0.17120000000E+03 0.  0.
        998    1    1    2    0    0 -0.40755161734E+01  0.11869778657E+02  0.14666030102E+04  0.14666907959E+04  0.10000000000E+02 0.  1.
</event>
<event>
 5    1  0.1503263E-008  0.3800573E+03  0.7957747E-01  0.3450909E+00
         13   -1    0    0    0    0  0.00000000000E+00  0.00000000000E+00  0.14999999963E+04  0.15000000000E+04  0.10566000000E+00 0. -1.
        994   -1    0    0    0    0 -0.00000000000E+00 -0.00000000000E+00  0.11368683772E-12  0.17120000000E+03  0.17120000000E+03 0.  0.
         13    1    1    2    0    0  0.12668806018E+02  0.18215891318E+02  0.57697057302E+02  0.61816493978E+02  0.10566000000E+00 0. -1.
        994    1    1    2    0    0 -0.31152619410E+01 -0.19330033489E+02  0.53865645036E+01  0.17240014539E+03  0.17120000000E+03 0.  0.
        998    1    1    2    0    0 -0.95535440775E+01  0.11141421706E+01  0.14369163745E+04  0.14369833606E+04  0.10000000000E+02 0. -1.
</event>
<event>
 5    1  0.1503263E-008  0.3824039E+03  0.7957747E-01  0.3440758E+00
         13   -1    0    0    0    0  0.00000000000E+00  0.00000000000E+00  0.14999999963E+04  0.15000000000E+04  0.10566000000E+00 0. -1.
        994   -1    0    0    0    0 -0.00000000000E+00 -0.00000000000E+00  0.11368683772E-12  0.17120000000E+03  0.17120000000E+03 0.  0.
         13    1    1    2    0    0  0.20482017659E+02 -0.14647007582E+02  0.11348719065E+03  0.11624715688E+03  0.10566000000E+00 0. -1.
        994    1    1    2    0    0 -0.12720710519E+02 -0.55217915862E+01  0.35626190256E+01  0.17179766853E+03  0.17120000000E+03 0.  0.
        998    1    1    2    0    0 -0.77613071407E+01  0.20168799168E+02  0.13829501866E+04  0.13831551746E+04  0.10000000000E+02 0. -1.
</event>
<event>
 5    1  0.1503263E-008  0.3154003E+03  0.7957747E-01  0.3791860E+00
         13   -1    0    0    0    0  0.00000000000E+00  0.00000000000E+00  0.14999999963E+04  0.15000000000E+04  0.10566000000E+00 0. -1.
        994   -1    0    0    0    0 -0.00000000000E+00 -0.00000000000E+00  0.11368683772E-12  0.17120000000E+03  0.17120000000E+03 0.  0.
         13    1    1    2    0    0 -0.16191055753E+03  0.19871501241E+02  0.91702082656E+03  0.93141672345E+03  0.10566000000E+00 0. -1.
        994    1    1    2    0    0  0.80183767302E+02 -0.42003065951E+01  0.43763005556E+02  0.19409203943E+03  0.17120000000E+03 0.  0.
        998    1    1    2    0    0  0.81726790232E+02 -0.15671194645E+02  0.53921616416E+03  0.54569123712E+03  0.10000000000E+02 0. -1.
</event>
<event>
 5    1  0.1503263E-008  0.3802996E+03  0.7957747E-01  0.3449855E+00
         13   -1    0    0    0    0  0.00000000000E+00  0.00000000000E+00  0.14999999963E+04  0.15000000000E+04  0.10566000000E+00 0. -1.
        994   -1    0    0    0    0 -0.00000000000E+00 -0.00000000000E+00  0.11368683772E-12  0.17120000000E+03  0.17120000000E+03 0.  0.
         13    1    1    2    0    0  0.30369461743E+02 -0.79151602909E+00  0.11509097048E+03  0.11903307672E+03  0.10566000000E+00 0. -1.
        994    1    1    2    0    0 -0.17395826901E+02  0.47755896824E+00  0.49940047749E+01  0.17215464832E+03  0.17120000000E+03 0.  0.
        998    1    1    2    0    0 -0.12973634842E+02  0.31395706085E+00  0.13799150210E+04  0.13800122750E+04  0.10000000000E+02 0. -1.
</event>
<event>
 5    1  0.1503263E-008  0.3688554E+03  0.7957747E-01  0.3501168E+00
         13   -1    0    0    0    0  0.00000000000E+00  0.00000000000E+00  0.14999999963E+04  0.15000000000E+04  0.10566000000E+00 0.  1.
        994   -1    0    0    0    0 -0.00000000000E+00 -0.00000000000E+00  0.11368683772E-12  0.17120000000E+03  0.17120000000E+03 0.  0.
         13    1    1    2    0    0  0.19020327067E+02 -0.91498618842E+01  0.16861822472E+02  0.27015274112E+02  0.10566000000E+00 0.  1.
        994    1    1    2    0    0  0.87475075703E+00  0.46481742033E+02  0.17898725985E+02  0.17830065037E+03  0.17120000000E+03 0.  0.
        998    1    1    2    0    0 -0.19895077824E+02 -0.37331880149E+02  0.14652394478E+04  0.14658840755E+04  0.10000000000E+02 0.  1.
</event>
<event>
 5    1  0.1503263E-008  0.3860885E+03  0.7957747E-01  0.3425069E+00
         13   -1    0    0    0    0  0.00000000000E+00  0.00000000000E+00  0.14999999963E+04  0.15000000000E+04  0.10566000000E+00 0. -1.
        994   -1    0    0    0    0 -0.00000000000E+00 -0.00000000000E+00  0.11368683772E-12  0.17120000000E+03  0.17120000000E+03 0.  0.
         13    1    1    2    0    0  0.70595605913E+01 -0.75506960786E+01  0.47798673620E+02  0.48903729622E+02  0.10566000000E+00 0. -1.
        994    1    1    2    0    0 -0.11551068151E+02  0.66321387226E+01  0.16722711945E+01  0.17172550460E+03  0.17120000000E+03 0.  0.
        998    1    1    2    0    0  0.44915075593E+01  0.91855735604E+00  0.14505290515E+04  0.14505707658E+04  0.10000000000E+02 0. -1.
</event>
<event>
 5    1  0.1503263E-008  0.3809097E+03  0.7957747E-01  0.3447207E+00
         13   -1    0    0    0    0  0.00000000000E+00  0.00000000000E+00  0.14999999963E+04  0.15000000000E+04  0.10566000000E+00 0. -1.
        994   -1    0    0    0    0 -0.00000000000E+00 -0.00000000000E+00  0.11368683772E-12  0.17120000000E+03  0.17120000000E+03 0.  0.
         13    1    1    2    0    0  0.33081128828E+02  0.80971946056E+00  0.12997744226E+03  0.13412368691E+03  0.10566000000E+00 0. -1.
        994    1    1    2    0    0 -0.41435245986E+02  0.15325882833E+02  0.10207158387E+02  0.17710276219E+03  0.17120000000E+03 0.  0.
        998    1    1    2    0    0  0.83541171580E+01 -0.16135602294E+02  0.13598153956E+04  0.13599735509E+04  0.10000000000E+02 0. -1.
</event>
<event>
 5    1  0.1503263E-008  0.2836095E+03  0.7957747E-01  0.4020458E+00
         13   -1    0    0    0    0  0.00000000000E+00  0.00000000000E+00  0.14999999963E+04  0.15000000000E+04  0.10566000000E+00 0. -1.
        994   -1    0    0    0    0 -0.00000000000E+00 -0.00000000000E+00  0.11368683772E-12  0.17120000000E+03  0.17120000000E+03 0.  0.
         13    1    1    2    0    0 -0.15458121511E+03 -0.50580806014E+02  0.60871454831E+03  0.63006918865E+03  0.10566000000E+00 0. -1.
        994    1    1    2    0    0  0.11250861971E+03  0.50587863768E+02  0.75369883725E+02  0.22407003557E+03  0.17120000000E+03 0.  0.
        998    1    1    2    0    0  0.42072595397E+02 -0.70577541092E-02  0.81591556425E+03  0.81706077578E+03  0.10000000000E+02 0. -1.
</event>
<event>
 5    1  0.1503263E-008  0.3721671E+03  0.7957747E-01  0.3485990E+00
         13   -1    0    0    0    0  0.00000000000E+00  0.00000000000E+00  0.14999999963E+04  0.15000000000E+04  0.10566000000E+00 0. -1.
        994   -1    0    0    0    0 -0.00000000000E+00 -0.00000000000E+00  0.11368683772E-12  0.17120000000E+03  0.17120000000E+03 0.  0.
         13    1    1    2    0    0 -0.12449256051E+02 -0.68904473650E+01  0.86758493075E+01  0.16665646293E+02  0.10566000000E+00 0. -1.
        994    1    1    2    0    0  0.11954669957E+02  0.88046348059E+01  0.88976250424E+01  0.17207278535E+03  0.17120000000E+03 0.  0.
        998    1    1    2    0    0  0.49458609401E+00 -0.19141874410E+01  0.14824265219E+04  0.14824615684E+04  0.10000000000E+02 0. -1.
</event>
<event>
 5    1  0.1503263E-008  0.3751184E+03  0.7957747E-01  0.3472693E+00
         13   -1    0    0    0    0  0.00000000000E+00  0.00000000000E+00  0.14999999963E+04  0.15000000000E+04  0.10566000000E+00 0.  1.
        994   -1    0    0    0    0 -0.00000000000E+00 -0.00000000000E+00  0.11368683772E-12  0.17120000000E+03  0.17120000000E+03 0.  0.
         13    1    1    2    0    0 -0.30373289451E+01 -0.25854764311E+02  0.47084236361E+02  0.53801772112E+02  0.10566000000E+00 0.  1.
        994    1    1    2    0    0  0.43586182048E+01  0.27129843708E+02  0.91876574131E+01  0.17363432558E+03  0.17120000000E+03 0.  0.
        998    1    1    2    0    0 -0.13212892597E+01 -0.12750793965E+01  0.14437281025E+04  0.14437639023E+04  0.10000000000E+02 0.  0.
</event>
<event>
 5    1  0.1503263E-008  0.3692463E+03  0.7957747E-01  0.3499362E+00
         13   -1    0    0    0    0  0.00000000000E+00  0.00000000000E+00  0.14999999963E+04  0.15000000000E+04  0.10566000000E+00 0. -1.
        994   -1    0    0    0    0 -0.00000000000E+00 -0.00000000000E+00  0.11368683772E-12  0.17120000000E+03  0.17120000000E+03 0.  0.
         13    1    1    2    0    0  0.16697518490E+02 -0.82127286339E+02  0.44850699811E+03  0.45626991661E+03  0.10566000000E+00 0. -1.
        994    1    1    2    0    0  0.11986438853E+02  0.26534238464E+02  0.12608004857E+02  0.17411531327E+03  0.17120000000E+03 0.  0.
        998    1    1    2    0    0 -0.28683957343E+02  0.55593047875E+02  0.10388849933E+04  0.10408147701E+04  0.10000000000E+02 0. -1.
</event>
<event>
 5    1  0.1503263E-008  0.3685839E+03  0.7957747E-01  0.3502425E+00
         13   -1    0    0    0    0  0.00000000000E+00  0.00000000000E+00  0.14999999963E+04  0.15000000000E+04  0.10566000000E+00 0.  1.
        994   -1    0    0    0    0 -0.00000000000E+00 -0.00000000000E+00  0.11368683772E-12  0.17120000000E+03  0.17120000000E+03 0.  0.
         13    1    1    2    0    0  0.55583190651E+02  0.37879194828E+02  0.19386887904E+03  0.20520594023E+03  0.10566000000E+00 0.  1.
        994    1    1    2    0    0 -0.46385220163E+02 -0.52750183304E+02  0.27357263672E+02  0.18706156838E+03  0.17120000000E+03 0.  0.
        998    1    1    2    0    0 -0.91979704877E+01  0.14870988476E+02  0.12787738536E+04  0.12789324914E+04  0.10000000000E+02 0.  1.
</event>
<event>
 5    1  0.1503263E-008  0.3834040E+03  0.7957747E-01  0.3436469E+00
         13   -1    0    0    0    0  0.00000000000E+00  0.00000000000E+00  0.14999999963E+04  0.15000000000E+04  0.10566000000E+00 0. -1.
        994   -1    0    0    0    0 -0.00000000000E+00 -0.00000000000E+00  0.11368683772E-12  0.17120000000E+03  0.17120000000E+03 0.  0.
         13    1    1    2    0    0 -0.62106808930E+01  0.13232305548E+02  0.44125142329E+02  0.46483392914E+02  0.10566000000E+00 0. -1.
        994    1    1    2    0    0  0.12466672582E+02 -0.69145991203E+00  0.29401248715E+01  0.17167987761E+03  0.17120000000E+03 0.  0.
        998    1    1    2    0    0 -0.62559916894E+01 -0.12540845636E+02  0.14529347291E+04  0.14530367295E+04  0.10000000000E+02 0. -1.
</event>
<event>
 5    1  0.1503263E-008  0.3795861E+03  0.7957747E-01  0.3452963E+00
         13   -1    0    0    0    0  0.00000000000E+00  0.00000000000E+00  0.14999999963E+04  0.15000000000E+04  0.10566000000E+00 0.  1.
        994   -1    0    0    0    0 -0.00000000000E+00 -0.00000000000E+00  0.11368683772E-12  0.17120000000E+03  0.17120000000E+03 0.  0.
         13    1    1    2    0    0  0.77435418292E+01 -0.19605734968E+02  0.50698243615E+02  0.54906013818E+02  0.10566000000E+00 0.  1.
        994    1    1    2    0    0 -0.79733251147E+01  0.49019621652E+01  0.46355297767E+01  0.17151831180E+03  0.17120000000E+03 0.  0.
        998    1    1    2    0    0  0.22978328550E+00  0.14703772803E+02  0.14446662229E+04  0.14447756744E+04  0.10000000000E+02 0.  1.
</event>
<event>
 5    1  0.1503263E-008  0.3845380E+03  0.7957747E-01  0.3431634E+00
         13   -1    0    0    0    0  0.00000000000E+00  0.00000000000E+00  0.14999999963E+04  0.15000000000E+04  0.10566000000E+00 0. -1.
        994   -1    0    0    0    0 -0.00000000000E+00 -0.00000000000E+00  0.11368683772E-12  0.17120000000E+03  0.17120000000E+03 0.  0.
         13    1    1    2    0    0  0.15406393061E+02  0.70564843412E+01  0.78717992725E+02  0.80521329231E+02  0.10566000000E+00 0. -1.
        994    1    1    2    0    0 -0.62252892238E+01 -0.47205481817E+01  0.20607421661E+01  0.17139056117E+03  0.17120000000E+03 0.  0.
        998    1    1    2    0    0 -0.91811038373E+01 -0.23359361595E+01  0.14192212614E+04  0.14192881096E+04  0.10000000000E+02 0. -1.
</event>
<event>
 5    1  0.1503263E-008  0.3787944E+03  0.7957747E-01  0.3456425E+00
         13   -1    0    0    0    0  0.00000000000E+00  0.00000000000E+00  0.14999999963E+04  0.15000000000E+04  0.10566000000E+00 0. -1.
        994   -1    0    0    0    0 -0.00000000000E+00 -0.00000000000E+00  0.11368683772E-12  0.17120000000E+03  0.17120000000E+03 0.  0.
         13    1    1    2    0    0  0.48172500192E+02  0.42365365518E+02  0.30831099651E+03  0.31491442600E+03  0.10566000000E+00 0. -1.
        994    1    1    2    0    0 -0.46204215144E+02 -0.63966423884E+02  0.25933436753E+02  0.19028535420E+03  0.17120000000E+03 0.  0.
        998    1    1    2    0    0 -0.19682850479E+01  0.21601058367E+02  0.11657555630E+04  0.11660002198E+04  0.10000000000E+02 0. -1.
</event>
<event>
 5    1  0.2132112E-008  0.3860374E+03  0.7957747E-01  0.3425284E+00
         13   -1    0    0    0    0  0.00000000000E+00  0.00000000000E+00  0.14999999963E+04  0.15000000000E+04  0.10566000000E+00 0.  1.
        994   -1    0    0    0    0 -0.00000000000E+00 -0.00000000000E+00  0.11368683772E-12  0.17120000000E+03  0.17120000000E+03 0.  0.
         13    1    1    2    0    0  0.16752580213E+01 -0.10389446810E+02  0.50128183746E+02  0.51221021702E+02  0.10566000000E+00 0.  1.
        994    1    1    2    0    0  0.61334748164E+00  0.75990910837E+01  0.13064920634E+01  0.17137464603E+03  0.17120000000E+03 0.  0.
        998    1    1    2    0    0 -0.22886055030E+01  0.27903557259E+01  0.14485653205E+04  0.14486043323E+04  0.10000000000E+02 0.  1.
</event>
<event>
 5    1  0.1503263E-008  0.3705634E+03  0.7957747E-01  0.3493305E+00
         13   -1    0    0    0    0  0.00000000000E+00  0.00000000000E+00  0.14999999963E+04  0.15000000000E+04  0.10566000000E+00 0.  1.
        994   -1    0    0    0    0 -0.00000000000E+00 -0.00000000000E+00  0.11368683772E-12  0.17120000000E+03  0.17120000000E+03 0.  0.
         13    1    1    2    0    0  0.35067814974E+02  0.33552381779E+02  0.12423169161E+03  0.13337555374E+03  0.10566000000E+00 0.  1.
        994    1    1    2    0    0 -0.19928069425E+02 -0.32911872232E+02  0.14100645500E+02  0.17603575628E+03  0.17120000000E+03 0.  0.
        998    1    1    2    0    0 -0.15139745550E+02 -0.64050954739E+00  0.13616676592E+04  0.13617886900E+04  0.10000000000E+02 0.  1.
</event>
<event>
 5    1  0.1503263E-008  0.3733082E+03  0.7957747E-01  0.3480824E+00
         13   -1    0    0    0    0  0.00000000000E+00  0.00000000000E+00  0.14999999963E+04  0.15000000000E+04  0.10566000000E+00 0. -1.
        994   -1    0    0    0    0 -0.00000000000E+00 -0.00000000000E+00  0.11368683772E-12  0.17120000000E+03  0.17120000000E+03 0.  0.
         13    1    1    2    0    0  0.58868232528E+02  0.76238517387E+02  0.45016624754E+03  0.46035577755E+03  0.10566000000E+00 0. -1.
        994    1    1    2    0    0 -0.29807608559E+02 -0.92945856576E+02  0.40857189553E+02  0.20126146109E+03  0.17120000000E+03 0.  0.
        998    1    1    2    0    0 -0.29060623969E+02  0.16707339189E+02  0.10089765592E+04  0.10095827614E+04  0.10000000000E+02 0. -1.
</event>
<event>
 5    1  0.1503263E-008  0.3686284E+03  0.7957747E-01  0.3502218E+00
         13   -1    0    0    0    0  0.00000000000E+00  0.00000000000E+00  0.14999999963E+04  0.15000000000E+04  0.10566000000E+00 0.  1.
        994   -1    0    0    0    0 -0.00000000000E+00 -0.00000000000E+00  0.11368683772E-12  0.17120000000E+03  0.17120000000E+03 0.  0.
         13    1    1    2    0    0  0.99322743451E+01  0.18254129344E+02  0.16560025410E+02  0.26572710012E+02  0.10566000000E+00 0.  1.
        994    1    1    2    0    0 -0.70941967450E+01 -0.18381895881E+02  0.11567264573E+02  0.17271787207E+03  0.17120000000E+03 0.  0.
        998    1    1    2    0    0 -0.28380776001E+01  0.12776653705E+00  0.14718727063E+04  0.14719094179E+04  0.10000000000E+02 0.  1.
</event>
<event>
 5    1  0.1503263E-008  0.3840125E+03  0.7957747E-01  0.3433871E+00
         13   -1    0    0    0    0  0.00000000000E+00  0.00000000000E+00  0.14999999963E+04  0.15000000000E+04  0.10566000000E+00 0.  1.
        994   -1    0    0    0    0 -0.00000000000E+00 -0.00000000000E+00  0.11368683772E-12  0.17120000000E+03  0.17120000000E+03 0.  0.
         13    1    1    2    0    0  0.21551950778E+02 -0.55851284017E+01  0.11267295057E+03  0.11485157899E+03  0.10566000000E+00 0.  1.
        994    1    1    2    0    0 -0.14484448209E+02  0.17945460979E+02  0.38778348869E+01  0.17278980414E+03  0.17120000000E+03 0.  0.
        998    1    1    2    0    0 -0.70675025687E+01 -0.12360332578E+02  0.13834492108E+04  0.13835586169E+04  0.10000000000E+02 0.  1.
</event>
<event>
 5    1  0.1503263E-008  0.3854388E+03  0.7957747E-01  0.3427813E+00
         13   -1    0    0    0    0  0.00000000000E+00  0.00000000000E+00  0.14999999963E+04  0.15000000000E+04  0.10566000000E+00 0. -1.
        994   -1    0    0    0    0 -0.00000000000E+00 -0.00000000000E+00  0.11368683772E-12  0.17120000000E+03  0.17120000000E+03 0.  0.
         13    1    1    2    0    0 -0.14433732247E+02 -0.12341042664E+02  0.11418885760E+03  0.11575724740E+03  0.10566000000E+00 0. -1.
        994    1    1    2    0    0  0.13268507127E+02  0.23256521991E+02  0.37703286712E+01  0.17332216960E+03  0.17120000000E+03 0.  0.
        998    1    1    2    0    0  0.11652251198E+01 -0.10915479328E+02  0.13820408100E+04  0.13821205830E+04  0.10000000000E+02 0. -1.
</event>
<event>
 5    1  0.1503263E-008  0.3852085E+03  0.7957747E-01  0.3428789E+00
         13   -1    0    0    0    0  0.00000000000E+00  0.00000000000E+00  0.14999999963E+04  0.15000000000E+04  0.10566000000E+00 0. -1.
        994   -1    0    0    0    0 -0.00000000000E+00 -0.00000000000E+00  0.11368683772E-12  0.17120000000E+03  0.17120000000E+03 0.  0.
         13    1    1    2    0    0  0.53973913443E+01 -0.99539510907E+01  0.40368722810E+02  0.41926816252E+02  0.10566000000E+00 0. -1.
        994    1    1    2    0    0  0.21850689599E+01  0.18561867531E+02  0.26755279018E+01  0.17223796301E+03  0.17120000000E+03 0.  0.
        998    1    1    2    0    0 -0.75824603042E+01 -0.86079164403E+01  0.14569557456E+04  0.14570352207E+04  0.10000000000E+02 0. -1.
</event>
<event>
 5    1  0.1503263E-008  0.3803943E+03  0.7957747E-01  0.3449443E+00
         13   -1    0    0    0    0  0.00000000000E+00  0.00000000000E+00  0.14999999963E+04  0.15000000000E+04  0.10566000000E+00 0.  1.
        994   -1    0    0    0    0 -0.00000000000E+00 -0.00000000000E+00  0.11368683772E-12  0.17120000000E+03  0.17120000000E+03 0.  0.
         13    1    1    2    0    0 -0.74906259140E+01  0.91267352643E+01  0.16084227392E+02  0.19952952363E+02  0.10566000000E+00 0.  1.
        994    1    1    2    0    0  0.22077089632E+01 -0.79650534879E+01  0.41623338976E+01  0.17144993753E+03  0.17120000000E+03 0.  0.
        998    1    1    2    0    0  0.52829169508E+01 -0.11616817764E+01  0.14797534350E+04  0.14797971101E+04  0.10000000000E+02 0.  1.
</event>
<event>
 5    1  0.1503263E-008  0.3825028E+03  0.7957747E-01  0.3440333E+00
         13   -1    0    0    0    0  0.00000000000E+00  0.00000000000E+00  0.14999999963E+04  0.15000000000E+04  0.10566000000E+00 0. -1.
        994   -1    0    0    0    0 -0.00000000000E+00 -0.00000000000E+00  0.11368683772E-12  0.17120000000E+03  0.17120000000E+03 0.  0.
         13    1    1    2    0    0  0.44798075270E+01 -0.12925919595E+02  0.31353549643E+02  0.34208249182E+02  0.10566000000E+00 0. -1.
        994    1    1    2    0    0 -0.60303502349E+01  0.94653843286E+01  0.32927940966E+01  0.17159907085E+03  0.17120000000E+03 0.  0.
        998    1    1    2    0    0  0.15505427079E+01  0.34605352663E+01  0.14653536525E+04  0.14653926800E+04  0.10000000000E+02 0. -1.
</event>
<event>
 5    1  0.1503263E-008  0.3707158E+03  0.7957747E-01  0.3492608E+00
         13   -1    0    0    0    0  0.00000000000E+00  0.00000000000E+00  0.14999999963E+04  0.15000000000E+04  0.10566000000E+00 0.  1.
        994   -1    0    0    0    0 -0.00000000000E+00 -0.00000000000E+00  0.11368683772E-12  0.17120000000E+03  0.17120000000E+03 0.  0.
         13    1    1    2    0    0 -0.62304582468E+02 -0.43382651462E+02  0.19437366805E+03  0.20867450597E+03  0.10566000000E+00 0.  1.
        994    1    1    2    0    0  0.76103356120E+02  0.64102994704E+02  0.46875416352E+02  0.20348872057E+03  0.17120000000E+03 0.  0.
        998    1    1    2    0    0 -0.13798773652E+02 -0.20720343242E+02  0.12587509119E+04  0.12590367735E+04  0.10000000000E+02 0.  1.
</event>
<event>
 5    1  0.1503263E-008  0.3800970E+03  0.7957747E-01  0.3450736E+00
         13   -1    0    0    0    0  0.00000000000E+00  0.00000000000E+00  0.14999999963E+04  0.15000000000E+04  0.10566000000E+00 0. -1.
        994   -1    0    0    0    0 -0.00000000000E+00 -0.00000000000E+00  0.11368683772E-12  0.17120000000E+03  0.17120000000E+03 0.  0.
         13    1    1    2    0    0  0.63676211268E+01  0.11939661594E+02  0.20907937578E+02  0.24904921915E+02  0.10566000000E+00 0. -1.
        994    1    1    2    0    0 -0.52039627389E-01 -0.70535078956E+01  0.42504588982E+01  0.17139796114E+03  0.17120000000E+03 0.  0.
        998    1    1    2    0    0 -0.63155814994E+01 -0.48861536984E+01  0.14748415998E+04  0.14748971169E+04  0.10000000000E+02 0. -1.
</event>
<event>
 5    1  0.1503263E-008  0.3847403E+03  0.7957747E-01  0.3430774E+00
         13   -1    0    0    0    0  0.00000000000E+00  0.00000000000E+00  0.14999999963E+04  0.15000000000E+04  0.10566000000E+00 0.  1.
        994   -1    0    0    0    0 -0.00000000000E+00 -0.00000000000E+00  0.11368683772E-12  0.17120000000E+03  0.17120000000E+03 0.  0.
         13    1    1    2    0    0  0.99282072191E+01  0.16632846469E+02  0.10227564118E+03  0.10409389426E+03  0.10566000000E+00 0.  1.
        994    1    1    2    0    0 -0.87693304683E+01 -0.15318637248E+02  0.27852587513E+01  0.17213006556E+03  0.17120000000E+03 0.  0.
        998    1    1    2    0    0 -0.11588767508E+01 -0.13142092206E+01  0.13949390964E+04  0.13949760402E+04  0.10000000000E+02 0.  1.
</event>
<event>
 5    1  0.1503263E-008  0.3815201E+03  0.7957747E-01  0.3444566E+00
         13   -1    0    0    0    0  0.00000000000E+00  0.00000000000E+00  0.14999999963E+04  0.15000000000E+04  0.10566000000E+00 0. -1.
        994   -1    0    0    0    0 -0.00000000000E+00 -0.00000000000E+00  0.11368683772E-12  0.17120000000E+03  0.17120000000E+03 0.  0.
         13    1    1    2    0    0  0.30171000739E+02 -0.17239222610E+02  0.20891951608E+03  0.21178964905E+03  0.10566000000E+00 0. -1.
        994    1    1    2    0    0 -0.26985647042E+01 -0.14726376888E+01  0.33992257947E+01  0.17126133729E+03  0.17120000000E+03 0.  0.
        998    1    1    2    0    0 -0.27472436035E+02  0.18711860298E+02  0.12876812544E+04  0.12881490137E+04  0.10000000000E+02 0. -1.
</event>
<event>
 5    1  0.1503263E-008  0.3850507E+03  0.7957747E-01  0.3429457E+00
         13   -1    0    0    0    0  0.00000000000E+00  0.00000000000E+00  0.14999999963E+04  0.15000000000E+04  0.10566000000E+00 0.  1.
        994   -1    0    0    0    0 -0.00000000000E+00 -0.00000000000E+00  0.11368683772E-12  0.17120000000E+03  0.17120000000E+03 0.  0.
         13    1    1    2    0    0 -0.23558255395E+01 -0.97226195392E+01  0.30997725564E+02  0.32572218206E+02  0.10566000000E+00 0.  1.
        994    1    1    2    0    0 -0.23469071484E+01  0.74259789974E+01  0.18044500489E+01  0.17138654900E+03  0.17120000000E+03 0.  0.
        998    1    1    2    0    0  0.47027326878E+01  0.22966405418E+01  0.14671978207E+04  0.14672412328E+04  0.10000000000E+02 0.  1.
</event>
<event>
 5    1  0.1696953E-008  0.3863868E+03  0.7957747E-01  0.3423812E+00
         13   -1    0    0    0    0  0.00000000000E+00  0.00000000000E+00  0.14999999963E+04  0.15000000000E+04  0.10566000000E+00 0. -1.
        994   -1    0    0    0    0 -0.00000000000E+00 -0.00000000000E+00  0.11368683772E-12  0.17120000000E+03  0.17120000000E+03 0.  0.
         13    1    1    2    0    0  0.74808006270E+01 -0.79805076399E+01  0.66049054943E+02  0.66948784180E+02  0.10566000000E+00 0. -1.
        994    1    1    2    0    0  0.20938755735E+01  0.85790141789E+01  0.11985340805E+01  0.17143179484E+03  0.17120000000E+03 0.  0.
        998    1    1    2    0    0 -0.95746762005E+01 -0.59850653906E+00  0.14327524073E+04  0.14328194210E+04  0.10000000000E+02 0. -1.
</event>
<event>
 5    1  0.1503263E-008  0.3715276E+03  0.7957747E-01  0.3488900E+00
         13   -1    0    0    0    0  0.00000000000E+00  0.00000000000E+00  0.14999999963E+04  0.15000000000E+04  0.10566000000E+00 0. -1.
        994   -1    0    0    0    0 -0.00000000000E+00 -0.00000000000E+00  0.11368683772E-12  0.17120000000E+03  0.17120000000E+03 0.  0.
         13    1    1    2    0    0 -0.21382400649E+02  0.43275571781E+02  0.11708234226E+03  0.12664228442E+03  0.10566000000E+00 0. -1.
        994    1    1    2    0    0  0.11639173894E+02 -0.64670810224E+02  0.23473526468E+02  0.18487355276E+03  0.17120000000E+03 0.  0.
        998    1    1    2    0    0  0.97432267550E+01  0.21395238443E+02  0.13594441275E+04  0.13596841628E+04  0.10000000000E+02 0. -1.
</event>
<event>
 5    1  0.1503263E-008  0.3805823E+03  0.7957747E-01  0.3448627E+00
         13   -1    0    0    0    0  0.00000000000E+00  0.00000000000E+00  0.14999999963E+04  0.15000000000E+04  0.10566000000E+00 0. -1.
        994   -1    0    0    0    0 -0.00000000000E+00 -0.00000000000E+00  0.11368683772E-12  0.17120000000E+03  0.17120000000E+03 0.  0.
         13    1    1    2    0    0 -0.30115708692E+02  0.43104314269E-02  0.12277217828E+03  0.12641192527E+03  0.10566000000E+00 0. -1.
        994    1    1    2    0    0  0.96724781809E+01  0.22988236793E+01  0.41693711536E+01  0.17153910656E+03  0.17120000000E+03 0.  0.
        998    1    1    2    0    0  0.20443230512E+02 -0.23031341107E+01  0.13730584468E+04  0.13732489682E+04  0.10000000000E+02 0. -1.
</event>
<event>
 5    1  0.1503263E-008  0.3817549E+03  0.7957747E-01  0.3443553E+00
         13   -1    0    0    0    0  0.00000000000E+00  0.00000000000E+00  0.14999999963E+04  0.15000000000E+04  0.10566000000E+00 0. -1.
        994   -1    0    0    0    0 -0.00000000000E+00 -0.00000000000E+00  0.11368683772E-12  0.17120000000E+03  0.17120000000E+03 0.  0.
         13    1    1    2    0    0  0.15494293981E+02 -0.65027372407E+00  0.38042687439E+02  0.41082273957E+02  0.10566000000E+00 0. -1.
        994    1    1    2    0    0  0.61627638074E+01  0.65497905790E+01  0.35187393554E+01  0.17147215792E+03  0.17120000000E+03 0.  0.
        998    1    1    2    0    0 -0.21657057788E+02 -0.58995168549E+01  0.14584385695E+04  0.14586455681E+04  0.10000000000E+02 0. -1.
</event>
<event>
 5    1  0.1503263E-008  0.3754782E+03  0.7957747E-01  0.3471087E+00
         13   -1    0    0    0    0  0.00000000000E+00  0.00000000000E+00  0.14999999963E+04  0.15000000000E+04  0.10566000000E+00 0.  1.
        994   -1    0    0    0    0 -0.00000000000E+00 -0.00000000000E+00  0.11368683772E-12  0.17120000000E+03  0.17120000000E+03 0.  0.
         13    1    1    2    0    0  0.44200040012E+02  0.93031562790E+01  0.82693781716E+02  0.94225606670E+02  0.10566000000E+00 0.  1.
        994    1    1    2    0    0  0.29673748118E+02  0.12381106012E+02  0.17559202371E+02  0.17507595124E+03  0.17120000000E+03 0.  0.
        998    1    1    2    0    0 -0.73873788130E+02 -0.21684262291E+02  0.13997470122E+04  0.14018984421E+04  0.10000000000E+02 0.  1.
</event>
<event>
 5    1  0.1503263E-008  0.3686607E+03  0.7957747E-01  0.3502069E+00
         13   -1    0    0    0    0  0.00000000000E+00  0.00000000000E+00  0.14999999963E+04  0.15000000000E+04  0.10566000000E+00 0. -1.
        994   -1    0    0    0    0 -0.00000000000E+00 -0.00000000000E+00  0.11368683772E-12  0.17120000000E+03  0.17120000000E+03 0.  0.
         13    1    1    2    0    0 -0.49807054185E+01  0.30290640695E+02  0.41256931773E+02  0.51424468140E+02  0.10566000000E+00 0. -1.
        994    1    1    2    0    0  0.73326635807E+01 -0.27063573154E+02  0.12972980843E+02  0.17396535051E+03  0.17120000000E+03 0.  0.
        998    1    1    2    0    0 -0.23519581622E+01 -0.32270675404E+01  0.14457700837E+04  0.14458101813E+04  0.10000000000E+02 0. -1.
</event>
<event>
 5    1  0.1503263E-008  0.3754857E+03  0.7957747E-01  0.3471053E+00
         13   -1    0    0    0    0  0.00000000000E+00  0.00000000000E+00  0.14999999963E+04  0.15000000000E+04  0.10566000000E+00 0. -1.
        994   -1    0    0    0    0 -0.00000000000E+00 -0.00000000000E+00  0.11368683772E-12  0.17120000000E+03  0.17120000000E+03 0.  0.
         13    1    1    2    0    0  0.71594968389E+01  0.23140509942E+02  0.49903318642E+02  0.55471560018E+02  0.10566000000E+00 0. -1.
        994    1    1    2    0    0  0.11063448026E+03 -0.30644821094E+01  0.49204666009E+02  0.20971389661E+03  0.17120000000E+03 0.  0.
        998    1    1    2    0    0 -0.11779397710E+03 -0.20076027833E+02  0.14008920116E+04  0.14060145434E+04  0.10000000000E+02 0. -1.
</event>
<event>
 5    1  0.1503263E-008  0.3838128E+03  0.7957747E-01  0.3434723E+00
         13   -1    0    0    0    0  0.00000000000E+00  0.00000000000E+00  0.14999999963E+04  0.15000000000E+04  0.10566000000E+00 0.  1.
        994   -1    0    0    0    0 -0.00000000000E+00 -0.00000000000E+00  0.11368683772E-12  0.17120000000E+03  0.17120000000E+03 0.  0.
         13    1    1    2    0    0  0.12024889699E+02  0.49859799588E+01  0.39270686629E+02  0.41372164082E+02  0.10566000000E+00 0.  1.
        994    1    1    2    0    0  0.24808184922E+01 -0.23545487595E+01  0.22593287016E+01  0.17124906694E+03  0.17120000000E+03 0.  0.
        998    1    1    2    0    0 -0.14505708192E+02 -0.26314311993E+01  0.14584699809E+04  0.14585787690E+04  0.10000000000E+02 0.  1.
</event>
<event>
 5    1  0.1503263E-008  0.3736731E+03  0.7957747E-01  0.3479178E+00
         13   -1    0    0    0    0  0.00000000000E+00  0.00000000000E+00  0.14999999963E+04  0.15000000000E+04  0.10566000000E+00 0.  1.
        994   -1    0    0    0    0 -0.00000000000E+00 -0.00000000000E+00  0.11368683772E-12  0.17120000000E+03  0.17120000000E+03 0.  0.
         13    1    1    2    0    0  0.26643899456E+02 -0.69225805687E+01  0.24933539142E+02  0.37141782915E+02  0.10566000000E+00 0.  1.
        994    1    1    2    0    0 -0.85599708901E+01 -0.14760053307E+02  0.13926072815E+02  0.17261085649E+03  0.17120000000E+03 0.  0.
        998    1    1    2    0    0 -0.18083928566E+02  0.21682633876E+02  0.14611403843E+04  0.14614473606E+04  0.10000000000E+02 0.  1.
</event>
<event>
 5    1  0.1503263E-008  0.3848820E+03  0.7957747E-01  0.3430173E+00
         13   -1    0    0    0    0  0.00000000000E+00  0.00000000000E+00  0.14999999963E+04  0.15000000000E+04  0.10566000000E+00 0. -1.
        994   -1    0    0    0    0 -0.00000000000E+00 -0.00000000000E+00  0.11368683772E-12  0.17120000000E+03  0.17120000000E+03 0.  0.
         13    1    1    2    0    0 -0.74060214704E+01  0.16956639572E+02  0.98758604957E+02  0.10047711180E+03  0.10566000000E+00 0. -1.
        994    1    1    2    0    0  0.34943475266E+01 -0.15058720614E+02  0.24753529828E+01  0.17191434758E+03  0.17120000000E+03 0.  0.
        998    1    1    2    0    0  0.39116739438E+01 -0.18979189582E+01  0.13987660383E+04  0.13988085406E+04  0.10000000000E+02 0. -1.
</event>
<event>
 5    1  0.1503263E-008  0.3837133E+03  0.7957747E-01  0.3435148E+00
         13   -1    0    0    0    0  0.00000000000E+00  0.00000000000E+00  0.14999999963E+04  0.15000000000E+04  0.10566000000E+00 0. -1.
        994   -1    0    0    0    0 -0.00000000000E+00 -0.00000000000E+00  0.11368683772E-12  0.17120000000E+03  0.17120000000E+03 0.  0.
         13    1    1    2    0    0 -0.15030073630E+02  0.65842095623E+01  0.60938798833E+02  0.63109454887E+02  0.10566000000E+00 0. -1.
        994    1    1    2    0    0  0.22572283261E+01 -0.44817876732E+01  0.23534639706E+01  0.17128969698E+03  0.17120000000E+03 0.  0.
        998    1    1    2    0    0  0.12772845304E+02 -0.21024218891E+01  0.14367077335E+04  0.14368008481E+04  0.10000000000E+02 0. -1.
</event>
<event>
 5    1  0.1503263E-008  0.4117900E+03  0.7957747E-01  0.3323436E+00
         13   -1    0    0    0    0  0.00000000000E+00  0.00000000000E+00  0.14999999963E+04  0.15000000000E+04  0.10566000000E+00 0. -1.
        994   -1    0    0    0    0 -0.00000000000E+00 -0.00000000000E+00  0.11368683772E-12  0.17120000000E+03  0.17120000000E+03 0.  0.
         13    1    1    2    0    0 -0.66564801575E+02  0.11889639993E+03  0.26650652443E+03  0.29932084033E+03  0.10566000000E+00 0. -1.
        994    1    1    2    0    0  0.41938923598E+02 -0.67953941762E+02  0.61773448374E+02  0.19875112688E+03  0.17120000000E+03 0.  0.
        998    1    1    2    0    0  0.24625877977E+02 -0.50942458167E+02  0.11717200235E+04  0.11731280328E+04  0.10000000000E+02 0. -1.
</event>
<event>
 5    1  0.1503263E-008  0.2540167E+03  0.7957747E-01  0.4291099E+00
         13   -1    0    0    0    0  0.00000000000E+00  0.00000000000E+00  0.14999999963E+04  0.15000000000E+04  0.10566000000E+00 0. -1.
        994   -1    0    0    0    0 -0.00000000000E+00 -0.00000000000E+00  0.11368683772E-12  0.17120000000E+03  0.17120000000E+03 0.  0.
         13    1    1    2    0    0  0.22193303453E+02  0.18788684012E+03  0.43843709304E+03  0.47751555276E+03  0.10566000000E+00 0. -1.
        994    1    1    2    0    0  0.50919765144E+02 -0.10519799188E+03  0.10806437115E+03  0.23376652517E+03  0.17120000000E+03 0.  0.
        998    1    1    2    0    0 -0.73113068598E+02 -0.82688848237E+02  0.95349853209E+03  0.95991792207E+03  0.10000000000E+02 0. -1.
</event>
<event>
 5    1  0.1503263E-008  0.3696716E+03  0.7957747E-01  0.3497401E+00
         13   -1    0    0    0    0  0.00000000000E+00  0.00000000000E+00  0.14999999963E+04  0.15000000000E+04  0.10566000000E+00 0.  1.
        994   -1    0    0    0    0 -0.00000000000E+00 -0.00000000000E+00  0.11368683772E-12  0.17120000000E+03  0.17120000000E+03 0.  0.
         13    1    1    2    0    0 -0.29614087321E+02 -0.16039265015E+01  0.41759029707E+02  0.51219083106E+02  0.10566000000E+00 0.  1.
        994    1    1    2    0    0  0.29952167391E+02 -0.36563695626E+01  0.12599045678E+02  0.17429480004E+03  0.17120000000E+03 0.  0.
        998    1    1    2    0    0 -0.33808006923E+00  0.52602960640E+01  0.14456419209E+04  0.14456861169E+04  0.10000000000E+02 0.  1.
</event>
<event>
 5    1  0.1503263E-008  0.3786510E+03  0.7957747E-01  0.3457053E+00
         13   -1    0    0    0    0  0.00000000000E+00  0.00000000000E+00  0.14999999963E+04  0.15000000000E+04  0.10566000000E+00 0.  1.
        994   -1    0    0    0    0 -0.00000000000E+00 -0.00000000000E+00  0.11368683772E-12  0.17120000000E+03  0.17120000000E+03 0.  0.
         13    1    1    2    0    0 -0.16894942466E+02 -0.13400251392E+02  0.50067582269E+02  0.54514032841E+02  0.10566000000E+00 0.  1.
        994    1    1    2    0    0 -0.61276131816E+01 -0.36950746547E+01  0.49875992569E+01  0.17142204458E+03  0.17120000000E+03 0.  0.
        998    1    1    2    0    0  0.23022555647E+02  0.17095326047E+02  0.14449448148E+04  0.14452639226E+04  0.10000000000E+02 0.  1.
</event>
<event>
 5    1  0.1503263E-008  0.3796511E+03  0.7957747E-01  0.3452679E+00
         13   -1    0    0    0    0  0.00000000000E+00  0.00000000000E+00  0.14999999963E+04  0.15000000000E+04  0.10566000000E+00 0. -1.
        994   -1    0    0    0    0 -0.00000000000E+00 -0.00000000000E+00  0.11368683772E-12  0.17120000000E+03  0.17120000000E+03 0.  0.
         13    1    1    2    0    0 -0.29061420727E+02  0.96451704291E+02  0.51146378421E+03  0.52128946964E+03  0.10566000000E+00 0. -1.
        994    1    1    2    0    0  0.70557818715E+02 -0.11867527567E+03  0.70997987178E+02  0.23111118757E+03  0.17120000000E+03 0.  0.
        998    1    1    2    0    0 -0.41496397988E+02  0.22223571382E+02  0.91753822489E+03  0.91879934279E+03  0.10000000000E+02 0. -1.
</event>
<event>
 5    1  0.1503263E-008  0.3806661E+03  0.7957747E-01  0.3448263E+00
         13   -1    0    0    0    0  0.00000000000E+00  0.00000000000E+00  0.14999999963E+04  0.15000000000E+04  0.10566000000E+00 0.  1.
        994   -1    0    0    0    0 -0.00000000000E+00 -0.00000000000E+00  0.11368683772E-12  0.17120000000E+03  0.17120000000E+03 0.  0.
         13    1    1    2    0    0 -0.94907351786E+01 -0.17055418875E+02  0.47425221981E+02  0.51284736630E+02  0.10566000000E+00 0.  1.
        994    1    1    2    0    0 -0.11641121360E+02  0.29716296357E+02  0.72022828875E+01  0.17429826980E+03  0.17120000000E+03 0.  0.
        998    1    1    2    0    0  0.21131856539E+02 -0.12660877482E+02  0.14453724914E+04  0.14456169936E+04  0.10000000000E+02 0.  1.
</event>
<event>
 5    1  0.1503263E-008  0.3854206E+03  0.7957747E-01  0.3427890E+00
         13   -1    0    0    0    0  0.00000000000E+00  0.00000000000E+00  0.14999999963E+04  0.15000000000E+04  0.10566000000E+00 0.  1.
        994   -1    0    0    0    0 -0.00000000000E+00 -0.00000000000E+00  0.11368683772E-12  0.17120000000E+03  0.17120000000E+03 0.  0.
         13    1    1    2    0    0  0.11047730187E+02  0.11273508875E+02  0.86184282322E+02  0.87617840809E+02  0.10566000000E+00 0.  1.
        994    1    1    2    0    0 -0.79902123945E+01 -0.10279599819E+02  0.19783886864E+01  0.17170575904E+03  0.17120000000E+03 0.  0.
        998    1    1    2    0    0 -0.30575177927E+01 -0.99390905562E+00  0.14118373253E+04  0.14118764001E+04  0.10000000000E+02 0.  1.
</event>
<event>
 5    1  0.1503263E-008  0.3736333E+03  0.7957747E-01  0.3479358E+00
         13   -1    0    0    0    0  0.00000000000E+00  0.00000000000E+00  0.14999999963E+04  0.15000000000E+04  0.10566000000E+00 0.  1.
        994   -1    0    0    0    0 -0.00000000000E+00 -0.00000000000E+00  0.11368683772E-12  0.17120000000E+03  0.17120000000E+03 0.  0.
         13    1    1    2    0    0  0.13592404112E+00  0.23071495597E+02  0.34357824228E+02  0.41385790245E+02  0.10566000000E+00 0.  1.
        994    1    1    2    0    0 -0.95536364117E+01 -0.12695065747E+01  0.76995041989E+01  0.17164383467E+03  0.17120000000E+03 0.  0.
        998    1    1    2    0    0  0.94177123706E+01 -0.21801989023E+02  0.14579426679E+04  0.14581703751E+04  0.10000000000E+02 0.  1.
</event>
<event>
 5    1  0.1503263E-008  0.3866513E+03  0.7957747E-01  0.3422699E+00
         13   -1    0    0    0    0  0.00000000000E+00  0.00000000000E+00  0.14999999963E+04  0.15000000000E+04  0.10566000000E+00 0.  1.
        994   -1    0    0    0    0 -0.00000000000E+00 -0.00000000000E+00  0.11368683772E-12  0.17120000000E+03  0.17120000000E+03 0.  0.
         13    1    1    2    0    0 -0.69161008074E+02  0.29928851640E+02  0.13185408327E+03  0.15186998267E+03  0.10566000000E+00 0.  1.
        994    1    1    2    0    0  0.47900166734E+02 -0.35787547963E+02  0.33432845552E+02  0.18439731485E+03  0.17120000000E+03 0.  0.
        998    1    1    2    0    0  0.21260841341E+02  0.58586963232E+01  0.13347130675E+04  0.13349327025E+04  0.10000000000E+02 0.  1.
</event>
<event>
 5    1  0.1503263E-008  0.3795446E+03  0.7957747E-01  0.3453144E+00
         13   -1    0    0    0    0  0.00000000000E+00  0.00000000000E+00  0.14999999963E+04  0.15000000000E+04  0.10566000000E+00 0.  1.
        994   -1    0    0    0    0 -0.00000000000E+00 -0.00000000000E+00  0.11368683772E-12  0.17120000000E+03  0.17120000000E+03 0.  0.
         13    1    1    2    0    0 -0.57838265603E+02  0.25722017888E+02  0.36588429801E+03  0.37131956300E+03  0.10566000000E+00 0.  1.
        994    1    1    2    0    0  0.47273519784E+02 -0.39162535707E+02  0.17084923257E+02  0.18267409362E+03  0.17120000000E+03 0.  0.
        998    1    1    2    0    0  0.10564745819E+02  0.13440517819E+02  0.11170307750E+04  0.11172063434E+04  0.10000000000E+02 0.  0.
</event>
<event>
 5    1  0.1503263E-008  0.3851715E+03  0.7957747E-01  0.3428945E+00
         13   -1    0    0    0    0  0.00000000000E+00  0.00000000000E+00  0.14999999963E+04  0.15000000000E+04  0.10566000000E+00 0. -1.
        994   -1    0    0    0    0 -0.00000000000E+00 -0.00000000000E+00  0.11368683772E-12  0.17120000000E+03  0.17120000000E+03 0.  0.
         13    1    1    2    0    0 -0.13253102728E+02  0.32862786466E+01  0.64490700942E+02  0.65920452299E+02  0.10566000000E+00 0. -1.
        994    1    1    2    0    0 -0.15458527356E+01 -0.26015657885E+01  0.15751309696E+01  0.17123398857E+03  0.17120000000E+03 0.  0.
        998    1    1    2    0    0  0.14798955464E+02 -0.68471285812E+00  0.14339341644E+04  0.14340455591E+04  0.10000000000E+02 0. -1.
</event>
<event>
 5    1  0.1503263E-008  0.3806052E+03  0.7957747E-01  0.3448527E+00
         13   -1    0    0    0    0  0.00000000000E+00  0.00000000000E+00  0.14999999963E+04  0.15000000000E+04  0.10566000000E+00 0. -1.
        994   -1    0    0    0    0 -0.00000000000E+00 -0.00000000000E+00  0.11368683772E-12  0.17120000000E+03  0.17120000000E+03 0.  0.
         13    1    1    2    0    0  0.10016640978E+02 -0.86261915558E+01  0.22118777381E+02  0.25768115067E+02  0.10566000000E+00 0. -1.
        994    1    1    2    0    0  0.93095694937E+01  0.34870547366E+01  0.41577165616E+01  0.17153878349E+03  0.17120000000E+03 0.  0.
        998    1    1    2    0    0 -0.19326210471E+02  0.51391368192E+01  0.14737235023E+04  0.14738931014E+04  0.10000000000E+02 0. -1.
</event>
<event>
 5    1  0.1503263E-008  0.3731783E+03  0.7957747E-01  0.3481411E+00
         13   -1    0    0    0    0  0.00000000000E+00  0.00000000000E+00  0.14999999963E+04  0.15000000000E+04  0.10566000000E+00 0.  1.
        994   -1    0    0    0    0 -0.00000000000E+00 -0.00000000000E+00  0.11368683772E-12  0.17120000000E+03  0.17120000000E+03 0.  0.
         13    1    1    2    0    0 -0.53184456930E+02  0.83808938462E+01  0.16753268305E+03  0.17597169344E+03  0.10566000000E+00 0.  1.
        994    1    1    2    0    0  0.52573469994E+02 -0.13511129004E+02  0.17762895726E+02  0.18047570700E+03  0.17120000000E+03 0.  0.
        998    1    1    2    0    0  0.61098693517E+00  0.51302351582E+01  0.13147044175E+04  0.13147525996E+04  0.10000000000E+02 0.  1.
</event>
<event>
 5    1  0.1503263E-008  0.3764265E+03  0.7957747E-01  0.3466867E+00
         13   -1    0    0    0    0  0.00000000000E+00  0.00000000000E+00  0.14999999963E+04  0.15000000000E+04  0.10566000000E+00 0. -1.
        994   -1    0    0    0    0 -0.00000000000E+00 -0.00000000000E+00  0.11368683772E-12  0.17120000000E+03  0.17120000000E+03 0.  0.
         13    1    1    2    0    0  0.33725398948E+02  0.31415714310E+02  0.16983501964E+03  0.17597810858E+03  0.10566000000E+00 0. -1.
        994    1    1    2    0    0 -0.32273638275E+02 -0.14954022921E+02  0.10240082625E+02  0.17515567311E+03  0.17120000000E+03 0.  0.
        998    1    1    2    0    0 -0.14517606728E+01 -0.16461691390E+02  0.13199248940E+04  0.13200662183E+04  0.10000000000E+02 0. -1.
</event>
<event>
 5    1  0.1503263E-008  0.3819798E+03  0.7957747E-01  0.3442583E+00
         13   -1    0    0    0    0  0.00000000000E+00  0.00000000000E+00  0.14999999963E+04  0.15000000000E+04  0.10566000000E+00 0.  1.
        994   -1    0    0    0    0 -0.00000000000E+00 -0.00000000000E+00  0.11368683772E-12  0.17120000000E+03  0.17120000000E+03 0.  0.
         13    1    1    2    0    0 -0.15930567960E+02  0.18549428889E+02  0.10449953917E+03  0.10732208141E+03  0.10566000000E+00 0.  1.
        994    1    1    2    0    0 -0.95044091676E+00  0.18215988950E+01  0.31510979701E+01  0.17124132381E+03  0.17120000000E+03 0.  0.
        998    1    1    2    0    0  0.16881008877E+02 -0.20371027785E+02  0.13923493591E+04  0.13926365948E+04  0.10000000000E+02 0.  1.
</event>
<event>
 5    1  0.1503263E-008  0.3834341E+03  0.7957747E-01  0.3436341E+00
         13   -1    0    0    0    0  0.00000000000E+00  0.00000000000E+00  0.14999999963E+04  0.15000000000E+04  0.10566000000E+00 0.  1.
        994   -1    0    0    0    0 -0.00000000000E+00 -0.00000000000E+00  0.11368683772E-12  0.17120000000E+03  0.17120000000E+03 0.  0.
         13    1    1    2    0    0  0.25485100928E+02 -0.45659819861E+02  0.28831929541E+03  0.29302275814E+03  0.10566000000E+00 0.  1.
        994    1    1    2    0    0 -0.67979257881E+02  0.72825103544E+02  0.35936831261E+02  0.20130963973E+03  0.17120000000E+03 0.  0.
        998    1    1    2    0    0  0.42494156954E+02 -0.27165283683E+02  0.11757438696E+04  0.11768676021E+04  0.10000000000E+02 0.  1.
</event>
<event>
 5    1  0.1503263E-008  0.3854868E+03  0.7957747E-01  0.3427610E+00
         13   -1    0    0    0    0  0.00000000000E+00  0.00000000000E+00  0.14999999963E+04  0.15000000000E+04  0.10566000000E+00 0.  1.
        994   -1    0    0    0    0 -0.00000000000E+00 -0.00000000000E+00  0.11368683772E-12  0.17120000000E+03  0.17120000000E+03 0.  0.
         13    1    1    2    0    0  0.18449859929E+02  0.95351552551E+01  0.12413956409E+03  0.12586484439E+03  0.10566000000E+00 0.  1.
        994    1    1    2    0    0 -0.37895482468E+02 -0.97751050856E+01  0.64339078375E+01  0.17573404747E+03  0.17120000000E+03 0.  0.
        998    1    1    2    0    0  0.19445622539E+02  0.23994983056E+00  0.13694265244E+04  0.13696011081E+04  0.10000000000E+02 0.  1.
</event>
<event>
 5    1  0.1503263E-008  0.3845174E+03  0.7957747E-01  0.3431722E+00
         13   -1    0    0    0    0  0.00000000000E+00  0.00000000000E+00  0.14999999963E+04  0.15000000000E+04  0.10566000000E+00 0. -1.
        994   -1    0    0    0    0 -0.00000000000E+00 -0.00000000000E+00  0.11368683772E-12  0.17120000000E+03  0.17120000000E+03 0.  0.
         13    1    1    2    0    0  0.90941293593E+01 -0.55922484979E+01  0.30435672441E+02  0.32253957169E+02  0.10566000000E+00 0. -1.
        994    1    1    2    0    0  0.12249885484E+01  0.10343567606E+02  0.22273524017E+01  0.17153102077E+03  0.17120000000E+03 0.  0.
        998    1    1    2    0    0 -0.10319117908E+02 -0.47513191086E+01  0.14673369714E+04  0.14674150221E+04  0.10000000000E+02 0. -1.
</event>
<event>
 5    1  0.1503263E-008  0.3742012E+03  0.7957747E-01  0.3476803E+00
         13   -1    0    0    0    0  0.00000000000E+00  0.00000000000E+00  0.14999999963E+04  0.15000000000E+04  0.10566000000E+00 0. -1.
        994   -1    0    0    0    0 -0.00000000000E+00 -0.00000000000E+00  0.11368683772E-12  0.17120000000E+03  0.17120000000E+03 0.  0.
         13    1    1    2    0    0  0.81080711752E+02  0.24850457486E+02  0.37644884113E+03  0.38588258345E+03  0.10566000000E+00 0. -1.
        994    1    1    2    0    0 -0.77030644412E+02 -0.38213699882E+02  0.32725291901E+02  0.19435635253E+03  0.17120000000E+03 0.  0.
        998    1    1    2    0    0 -0.40500673407E+01  0.13363242396E+02  0.10908258632E+04  0.10909610640E+04  0.10000000000E+02 0. -1.
</event>
<event>
 5    1  0.1503263E-008  0.3795066E+03  0.7957747E-01  0.3453310E+00
         13   -1    0    0    0    0  0.00000000000E+00  0.00000000000E+00  0.14999999963E+04  0.15000000000E+04  0.10566000000E+00 0. -1.
        994   -1    0    0    0    0 -0.00000000000E+00 -0.00000000000E+00  0.11368683772E-12  0.17120000000E+03  0.17120000000E+03 0.  0.
         13    1    1    2    0    0  0.12058567638E+02  0.13840243963E+03  0.43624443328E+03  0.45783169515E+03  0.10566000000E+00 0. -1.
        994    1    1    2    0    0 -0.44008029665E+02 -0.12603938442E+03  0.83718824564E+02  0.23268200336E+03  0.17120000000E+03 0.  0.
        998    1    1    2    0    0  0.31949462027E+02 -0.12363055205E+02  0.98003673843E+03  0.98068630149E+03  0.10000000000E+02 0.  1.
</event>
<event>
 5    1  0.1503263E-008  0.3834880E+03  0.7957747E-01  0.3436110E+00
         13   -1    0    0    0    0  0.00000000000E+00  0.00000000000E+00  0.14999999963E+04  0.15000000000E+04  0.10566000000E+00 0.  1.
        994   -1    0    0    0    0 -0.00000000000E+00 -0.00000000000E+00  0.11368683772E-12  0.17120000000E+03  0.17120000000E+03 0.  0.
         13    1    1    2    0    0  0.12124133342E+02 -0.33277191822E+01  0.32747997378E+02  0.35078637666E+02  0.10566000000E+00 0.  1.
        994    1    1    2    0    0 -0.63672658291E+01  0.25512631648E-01  0.25166574694E+01  0.17133685036E+03  0.17120000000E+03 0.  0.
        998    1    1    2    0    0 -0.57568675125E+01  0.33022065505E+01  0.14647353414E+04  0.14647845120E+04  0.10000000000E+02 0.  1.
</event>
<event>
 5    1  0.1503263E-008  0.3729300E+03  0.7957747E-01  0.3482533E+00
         13   -1    0    0    0    0  0.00000000000E+00  0.00000000000E+00  0.14999999963E+04  0.15000000000E+04  0.10566000000E+00 0.  1.
        994   -1    0    0    0    0 -0.00000000000E+00 -0.00000000000E+00  0.11368683772E-12  0.17120000000E+03  0.17120000000E+03 0.  0.
         13    1    1    2    0    0 -0.11281542433E+02  0.57302038667E+02  0.23244346604E+03  0.23966804731E+03  0.10566000000E+00 0.  1.
        994    1    1    2    0    0 -0.19993325424E+01 -0.24024761965E+02  0.97375851219E+01  0.17316306501E+03  0.17120000000E+03 0.  0.
        998    1    1    2    0    0  0.13280874975E+02 -0.33277276702E+02  0.12578189451E+04  0.12583688877E+04  0.10000000000E+02 0.  1.
</event>
<event>
 5    1  0.1503263E-008  0.3843655E+03  0.7957747E-01  0.3432368E+00
         13   -1    0    0    0    0  0.00000000000E+00  0.00000000000E+00  0.14999999963E+04  0.15000000000E+04  0.10566000000E+00 0. -1.
        994   -1    0    0    0    0 -0.00000000000E+00 -0.00000000000E+00  0.11368683772E-12  0.17120000000E+03  0.17120000000E+03 0.  0.
         13    1    1    2    0    0 -0.14989939499E+02  0.79337854079E+01  0.71491685719E+02  0.73475952039E+02  0.10566000000E+00 0. -1.
        994    1    1    2    0    0  0.26324666495E+02  0.14282494302E+02  0.49070300850E+01  0.17386919409E+03  0.17120000000E+03 0.  0.
        998    1    1    2    0    0 -0.11334726996E+02 -0.22216279709E+02  0.14236012805E+04  0.14238548539E+04  0.10000000000E+02 0. -1.
</event>
<event>
 5    1  0.1545084E-008  0.3840359E+03  0.7957747E-01  0.3433771E+00
         13   -1    0    0    0    0  0.00000000000E+00  0.00000000000E+00  0.14999999963E+04  0.15000000000E+04  0.10566000000E+00 0.  1.
        994   -1    0    0    0    0 -0.00000000000E+00 -0.00000000000E+00  0.11368683772E-12  0.17120000000E+03  0.17120000000E+03 0.  0.
         13    1    1    2    0    0 -0.54455524389E+01  0.10177788302E+02  0.30413956192E+02  0.32530928536E+02  0.10566000000E+00 0.  1.
        994    1    1    2    0    0  0.48540836732E+01 -0.11867935482E+02  0.26521277544E+01  0.17169998195E+03  0.17120000000E+03 0.  0.
        998    1    1    2    0    0  0.59146876568E+00  0.16901471797E+01  0.14669339123E+04  0.14669690895E+04  0.10000000000E+02 0.  1.
</event>
<event>
 5    1  0.1503263E-008  0.3844519E+03  0.7957747E-01  0.3432000E+00
         13   -1    0    0    0    0  0.00000000000E+00  0.00000000000E+00  0.14999999963E+04  0.15000000000E+04  0.10566000000E+00 0. -1.
        994   -1    0    0    0    0 -0.00000000000E+00 -0.00000000000E+00  0.11368683772E-12  0.17120000000E+03  0.17120000000E+03 0.  0.
         13    1    1    2    0    0 -0.11499911141E+02  0.11663220283E+02  0.68281628062E+02  0.70218733671E+02  0.10566000000E+00 0. -1.
        994    1    1    2    0    0  0.12164062819E+02 -0.96898181856E+01  0.26997119958E+01  0.17192610461E+03  0.17120000000E+03 0.  0.
        998    1    1    2    0    0 -0.66415167804E+00 -0.19734020973E+01  0.14290186562E+04  0.14290551617E+04  0.10000000000E+02 0. -1.
</event>
<event>
 5    1  0.1711853E-008  0.3860578E+03  0.7957747E-01  0.3425198E+00
         13   -1    0    0    0    0  0.00000000000E+00  0.00000000000E+00  0.14999999963E+04  0.15000000000E+04  0.10566000000E+00 0.  1.
        994   -1    0    0    0    0 -0.00000000000E+00 -0.00000000000E+00  0.11368683772E-12  0.17120000000E+03  0.17120000000E+03 0.  0.
         13    1    1    2    0    0 -0.93965437726E+01 -0.50164658668E+01  0.53237545003E+02  0.54292792585E+02  0.10566000000E+00 0.  1.
        994    1    1    2    0    0  0.41972823257E+01 -0.96579046056E-01  0.11636478276E+01  0.17125542497E+03  0.17120000000E+03 0.  0.
        998    1    1    2    0    0  0.51992614469E+01  0.51130449128E+01  0.14455988034E+04  0.14456517824E+04  0.10000000000E+02 0.  1.
</event>
<event>
 5    1  0.1503263E-008  0.3850172E+03  0.7957747E-01  0.3429599E+00
         13   -1    0    0    0    0  0.00000000000E+00  0.00000000000E+00  0.14999999963E+04  0.15000000000E+04  0.10566000000E+00 0.  1.
        994   -1    0    0    0    0 -0.00000000000E+00 -0.00000000000E+00  0.11368683772E-12  0.17120000000E+03  0.17120000000E+03 0.  0.
         13    1    1    2    0    0 -0.19018582244E+02 -0.86109276989E+00  0.11084644278E+03  0.11246952028E+03  0.10566000000E+00 0.  1.
        994    1    1    2    0    0  0.13014309459E+02  0.24623996902E+01  0.21987266293E+01  0.17172568259E+03  0.17120000000E+03 0.  0.
        998    1    1    2    0    0  0.60042727851E+01 -0.16013069203E+01  0.13869548269E+04  0.13870047971E+04  0.10000000000E+02 0.  1.
</event>
<event>
 5    1  0.1503263E-008  0.3858940E+03  0.7957747E-01  0.3425890E+00
         13   -1    0    0    0    0  0.00000000000E+00  0.00000000000E+00  0.14999999963E+04  0.15000000000E+04  0.10566000000E+00 0.  1.
        994   -1    0    0    0    0 -0.00000000000E+00 -0.00000000000E+00  0.11368683772E-12  0.17120000000E+03  0.17120000000E+03 0.  0.
         13    1    1    2    0    0 -0.16524404599E+02  0.83284476388E+00  0.97911273094E+02  0.99299436759E+02  0.10566000000E+00 0.  1.
        994    1    1    2    0    0  0.30741502755E+02  0.61317376236E+01  0.44157922169E+01  0.17410220395E+03  0.17120000000E+03 0.  0.
        998    1    1    2    0    0 -0.14217098155E+02 -0.69645823875E+01  0.13976729310E+04  0.13977983593E+04  0.10000000000E+02 0.  1.
</event>
<event>
 5    1  0.1503263E-008  0.3808510E+03  0.7957747E-01  0.3447462E+00
         13   -1    0    0    0    0  0.00000000000E+00  0.00000000000E+00  0.14999999963E+04  0.15000000000E+04  0.10566000000E+00 0. -1.
        994   -1    0    0    0    0 -0.00000000000E+00 -0.00000000000E+00  0.11368683772E-12  0.17120000000E+03  0.17120000000E+03 0.  0.
         13    1    1    2    0    0 -0.21718722614E+02  0.27911655570E+01  0.72573731939E+01  0.23068899993E+02  0.10566000000E+00 0. -1.
        994    1    1    2    0    0 -0.14381111797E+01 -0.21223316117E+02  0.18441880126E+02  0.17349939554E+03  0.17120000000E+03 0.  0.
        998    1    1    2    0    0  0.23156833794E+02  0.18432150560E+02  0.14743007430E+04  0.14746317045E+04  0.10000000000E+02 0. -1.
</event>
<event>
 5    1  0.1503263E-008  0.3756756E+03  0.7957747E-01  0.3470207E+00
         13   -1    0    0    0    0  0.00000000000E+00  0.00000000000E+00  0.14999999963E+04  0.15000000000E+04  0.10566000000E+00 0.  1.
        994   -1    0    0    0    0 -0.00000000000E+00 -0.00000000000E+00  0.11368683772E-12  0.17120000000E+03  0.17120000000E+03 0.  0.
         13    1    1    2    0    0  0.34178872337E+02  0.26597595378E+02  0.14193715106E+03  0.14839741712E+03  0.10566000000E+00 0.  1.
        994    1    1    2    0    0 -0.17375013771E+02 -0.28514320376E+02  0.10122855276E+02  0.17471940296E+03  0.17120000000E+03 0.  0.
        998    1    1    2    0    0 -0.16803858566E+02  0.19167249989E+01  0.13479399899E+04  0.13480831799E+04  0.10000000000E+02 0.  1.
</event>
<event>
 5    1  0.1503263E-008  0.3772624E+03  0.7957747E-01  0.3463166E+00
         13   -1    0    0    0    0  0.00000000000E+00  0.00000000000E+00  0.14999999963E+04  0.15000000000E+04  0.10566000000E+00 0. -1.
        994   -1    0    0    0    0 -0.00000000000E+00 -0.00000000000E+00  0.11368683772E-12  0.17120000000E+03  0.17120000000E+03 0.  0.
         13    1    1    2    0    0 -0.24467407138E+02  0.68909713656E+02  0.35454380050E+03  0.36200624343E+03  0.10566000000E+00 0. -1.
        994    1    1    2    0    0 -0.77315032183E+01 -0.87102004194E+02  0.31767703523E+02  0.19484650950E+03  0.17120000000E+03 0.  0.
        998    1    1    2    0    0  0.32198910357E+02  0.18192290538E+02  0.11136884923E+04  0.11143472471E+04  0.10000000000E+02 0. -1.
</event>
<event>
 5    1  0.1503263E-008  0.3811406E+03  0.7957747E-01  0.3446207E+00
         13   -1    0    0    0    0  0.00000000000E+00  0.00000000000E+00  0.14999999963E+04  0.15000000000E+04  0.10566000000E+00 0.  1.
        994   -1    0    0    0    0 -0.00000000000E+00 -0.00000000000E+00  0.11368683772E-12  0.17120000000E+03  0.17120000000E+03 0.  0.
         13    1    1    2    0    0 -0.10833586245E+02 -0.30044472922E+02  0.13072722065E+03  0.13457211571E+03  0.10566000000E+00 0.  1.
        994    1    1    2    0    0  0.12224786342E+02  0.30094385169E+02  0.70803847052E+01  0.17439807702E+03  0.17120000000E+03 0.  0.
        998    1    1    2    0    0 -0.13912000965E+01 -0.49912246927E-01  0.13621923909E+04  0.13622298073E+04  0.10000000000E+02 0.  0.
</event>
<event>
 5    1  0.1503263E-008  0.3786594E+03  0.7957747E-01  0.3457017E+00
         13   -1    0    0    0    0  0.00000000000E+00  0.00000000000E+00  0.14999999963E+04  0.15000000000E+04  0.10566000000E+00 0.  1.
        994   -1    0    0    0    0 -0.00000000000E+00 -0.00000000000E+00  0.11368683772E-12  0.17120000000E+03  0.17120000000E+03 0.  0.
         13    1    1    2    0    0 -0.17865949271E+02  0.50950491688E+01  0.34500428770E+02  0.39184721752E+02  0.10566000000E+00 0.  1.
        994    1    1    2    0    0  0.45496039701E+01 -0.10611129107E+02  0.52590921362E+01  0.17166942945E+03  0.17120000000E+03 0.  0.
        998    1    1    2    0    0  0.13316345301E+02  0.55160799381E+01  0.14602404754E+04  0.14603458488E+04  0.10000000000E+02 0.  1.
</event>
<event>
 5    1  0.1503263E-008  0.3855590E+03  0.7957747E-01  0.3427305E+00
         13   -1    0    0    0    0  0.00000000000E+00  0.00000000000E+00  0.14999999963E+04  0.15000000000E+04  0.10566000000E+00 0.  1.
        994   -1    0    0    0    0 -0.00000000000E+00 -0.00000000000E+00  0.11368683772E-12  0.17120000000E+03  0.17120000000E+03 0.  0.
         13    1    1    2    0    0 -0.24792323757E+01 -0.13174879793E+02  0.62729062854E+02  0.64145697762E+02  0.10566000000E+00 0.  1.
        994    1    1    2    0    0  0.18321171378E+01  0.18236339946E+02  0.24563541401E+01  0.17219580257E+03  0.17120000000E+03 0.  0.
        998    1    1    2    0    0  0.64711523791E+00 -0.50614601522E+01  0.14348145793E+04  0.14348584997E+04  0.10000000000E+02 0.  1.
</event>
<event>
 5    1  0.1503263E-008  0.3842146E+03  0.7957747E-01  0.3433010E+00
         13   -1    0    0    0    0  0.00000000000E+00  0.00000000000E+00  0.14999999963E+04  0.15000000000E+04  0.10566000000E+00 0. -1.
        994   -1    0    0    0    0 -0.00000000000E+00 -0.00000000000E+00  0.11368683772E-12  0.17120000000E+03  0.17120000000E+03 0.  0.
         13    1    1    2    0    0  0.16693525006E+00  0.17239594884E+02  0.77748721044E+02  0.79637342291E+02  0.10566000000E+00 0. -1.
        994    1    1    2    0    0  0.17757373589E+02 -0.21890264188E+01  0.30767047424E+01  0.17215987414E+03  0.17120000000E+03 0.  0.
        998    1    1    2    0    0 -0.17924308839E+02 -0.15050568466E+02  0.14191745705E+04  0.14194027836E+04  0.10000000000E+02 0. -1.
</event>
<event>
 5    1  0.1503263E-008  0.3806327E+03  0.7957747E-01  0.3448408E+00
         13   -1    0    0    0    0  0.00000000000E+00  0.00000000000E+00  0.14999999963E+04  0.15000000000E+04  0.10566000000E+00 0.  1.
        994   -1    0    0    0    0 -0.00000000000E+00 -0.00000000000E+00  0.11368683772E-12  0.17120000000E+03  0.17120000000E+03 0.  0.
         13    1    1    2    0    0  0.17041977374E+02 -0.67662795426E+01  0.43837663722E+02  0.47518032959E+02  0.10566000000E+00 0.  1.
        994    1    1    2    0    0 -0.35058746076E+01  0.38288184918E+01  0.39040263511E+01  0.17132318124E+03  0.17120000000E+03 0.  0.
        998    1    1    2    0    0 -0.13536102766E+02  0.29374610509E+01  0.14522583062E+04  0.14523587858E+04  0.10000000000E+02 0.  1.
</event>
<event>
 5    1  0.1503263E-008  0.3765631E+03  0.7957747E-01  0.3466261E+00
         13   -1    0    0    0    0  0.00000000000E+00  0.00000000000E+00  0.14999999963E+04  0.15000000000E+04  0.10566000000E+00 0.  1.
        994   -1    0    0    0    0 -0.00000000000E+00 -0.00000000000E+00  0.11368683772E-12  0.17120000000E+03  0.17120000000E+03 0.  0.
         13    1    1    2    0    0  0.10157371835E+02  0.25194063182E+02  0.59084144808E+02  0.65029688250E+02  0.10566000000E+00 0.  1.
        994    1    1    2    0    0 -0.10425211164E+02 -0.22063797428E+02  0.78944110836E+01  0.17311053668E+03  0.17120000000E+03 0.  0.
        998    1    1    2    0    0  0.26783932891E+00 -0.31302657536E+01  0.14330214404E+04  0.14330597751E+04  0.10000000000E+02 0.  1.
</event>
<event>
 5    1  0.1503263E-008  0.3759218E+03  0.7957747E-01  0.3469111E+00
         13   -1    0    0    0    0  0.00000000000E+00  0.00000000000E+00  0.14999999963E+04  0.15000000000E+04  0.10566000000E+00 0.  1.
        994   -1    0    0    0    0 -0.00000000000E+00 -0.00000000000E+00  0.11368683772E-12  0.17120000000E+03  0.17120000000E+03 0.  0.
         13    1    1    2    0    0  0.16575770067E+02 -0.10936997152E+02  0.29650901940E+02  0.35686989365E+02  0.10566000000E+00 0.  1.
        994    1    1    2    0    0 -0.12149752966E+02 -0.36456827508E+01  0.67515944644E+01  0.17180201258E+03  0.17120000000E+03 0.  0.
        998    1    1    2    0    0 -0.44260171012E+01  0.14582679903E+02  0.14635974999E+04  0.14637109981E+04  0.10000000000E+02 0.  1.
</event>
<event>
 5    1  0.1503263E-008  0.3758083E+03  0.7957747E-01  0.3469616E+00
         13   -1    0    0    0    0  0.00000000000E+00  0.00000000000E+00  0.14999999963E+04  0.15000000000E+04  0.10566000000E+00 0. -1.
        994   -1    0    0    0    0 -0.00000000000E+00 -0.00000000000E+00  0.11368683772E-12  0.17120000000E+03  0.17120000000E+03 0.  0.
         13    1    1    2    0    0  0.65858808742E+02 -0.66274498076E+02  0.51239150794E+03  0.52084043656E+03  0.10566000000E+00 0. -1.
        994    1    1    2    0    0 -0.46981105868E+02  0.70790297012E+02  0.31141394495E+02  0.19364327231E+03  0.17120000000E+03 0.  0.
        998    1    1    2    0    0 -0.18877702874E+02 -0.45157989361E+01  0.95646709385E+03  0.95671629113E+03  0.10000000000E+02 0. -1.
</event>
<event>
 5    1  0.1503263E-008  0.3831373E+03  0.7957747E-01  0.3437611E+00
         13   -1    0    0    0    0  0.00000000000E+00  0.00000000000E+00  0.14999999963E+04  0.15000000000E+04  0.10566000000E+00 0.  1.
        994   -1    0    0    0    0 -0.00000000000E+00 -0.00000000000E+00  0.11368683772E-12  0.17120000000E+03  0.17120000000E+03 0.  0.
         13    1    1    2    0    0  0.87567933014E+00 -0.15281386086E+02  0.45362904686E+02  0.47875796187E+02  0.10566000000E+00 0.  1.
        994    1    1    2    0    0 -0.43262228454E+01  0.82849287996E+01  0.28468587196E+01  0.17147857258E+03  0.17120000000E+03 0.  0.
        998    1    1    2    0    0  0.34505435153E+01  0.69964572863E+01  0.14517902329E+04  0.14518456312E+04  0.10000000000E+02 0.  1.
</event>
<event>
 5    1  0.1503263E-008  0.3858530E+03  0.7957747E-01  0.3426063E+00
         13   -1    0    0    0    0  0.00000000000E+00  0.00000000000E+00  0.14999999963E+04  0.15000000000E+04  0.10566000000E+00 0.  1.
        994   -1    0    0    0    0 -0.00000000000E+00 -0.00000000000E+00  0.11368683772E-12  0.17120000000E+03  0.17120000000E+03 0.  0.
         13    1    1    2    0    0 -0.45560702942E+01  0.89950729407E+01  0.35215075567E+02  0.36630340224E+02  0.10566000000E+00 0.  1.
        994    1    1    2    0    0  0.13526526639E+01 -0.46953188468E+02  0.84770822078E+01  0.17772937996E+03  0.17120000000E+03 0.  0.
        998    1    1    2    0    0  0.32034176303E+01  0.37958115527E+02  0.14563078385E+04  0.14568402798E+04  0.10000000000E+02 0.  1.
</event>
<event>
 5    1  0.1503263E-008  0.3810861E+03  0.7957747E-01  0.3446443E+00
         13   -1    0    0    0    0  0.00000000000E+00  0.00000000000E+00  0.14999999963E+04  0.15000000000E+04  0.10566000000E+00 0. -1.
        994   -1    0    0    0    0 -0.00000000000E+00 -0.00000000000E+00  0.11368683772E-12  0.17120000000E+03  0.17120000000E+03 0.  0.
         13    1    1    2    0    0 -0.76349578261E-01 -0.38859131406E+02  0.19049461579E+03  0.19441771456E+03  0.10566000000E+00 0. -1.
        994    1    1    2    0    0 -0.36819053396E+00  0.34991553248E+02  0.76755812757E+01  0.17490825856E+03  0.17120000000E+03 0.  0.
        998    1    1    2    0    0  0.44454011222E+00  0.38675781575E+01  0.13018297992E+04  0.13018740269E+04  0.10000000000E+02 0.  0.
</event>
<event>
 5    1  0.1503263E-008  0.3842958E+03  0.7957747E-01  0.3432664E+00
         13   -1    0    0    0    0  0.00000000000E+00  0.00000000000E+00  0.14999999963E+04  0.15000000000E+04  0.10566000000E+00 0.  1.
        994   -1    0    0    0    0 -0.00000000000E+00 -0.00000000000E+00  0.11368683772E-12  0.17120000000E+03  0.17120000000E+03 0.  0.
         13    1    1    2    0    0  0.16471568035E+02  0.14156981948E+03  0.44027630381E+03  0.46277052758E+03  0.10566000000E+00 0.  1.
        994    1    1    2    0    0 -0.20268485152E+02 -0.11400801302E+03  0.69928362398E+02  0.21819270013E+03  0.17120000000E+03 0.  0.
        998    1    1    2    0    0  0.37969171175E+01 -0.27561806460E+02  0.98979533007E+03  0.99023677229E+03  0.10000000000E+02 0.  1.
</event>
<event>
 5    1  0.1503263E-008  0.3825793E+03  0.7957747E-01  0.3440004E+00
         13   -1    0    0    0    0  0.00000000000E+00  0.00000000000E+00  0.14999999963E+04  0.15000000000E+04  0.10566000000E+00 0.  1.
        994   -1    0    0    0    0 -0.00000000000E+00 -0.00000000000E+00  0.11368683772E-12  0.17120000000E+03  0.17120000000E+03 0.  0.
         13    1    1    2    0    0  0.77722575463E+00 -0.13443600118E+02  0.32117898628E+02  0.34826786248E+02  0.10566000000E+00 0.  1.
        994    1    1    2    0    0  0.15925384273E+01 -0.81852548837E+00  0.28473859102E+01  0.17123303936E+03  0.17120000000E+03 0.  0.
        998    1    1    2    0    0 -0.23697641820E+01  0.14262125606E+02  0.14650347117E+04  0.14651401744E+04  0.10000000000E+02 0.  1.
</event>
<event>
 5    1  0.1503263E-008  0.3804625E+03  0.7957747E-01  0.3449147E+00
         13   -1    0    0    0    0  0.00000000000E+00  0.00000000000E+00  0.14999999963E+04  0.15000000000E+04  0.10566000000E+00 0.  1.
        994   -1    0    0    0    0 -0.00000000000E+00 -0.00000000000E+00  0.11368683772E-12  0.17120000000E+03  0.17120000000E+03 0.  0.
         13    1    1    2    0    0 -0.35428103911E+02  0.11030932637E+02  0.19812235694E+03  0.20156713895E+03  0.10566000000E+00 0.  1.
        994    1    1    2    0    0  0.57255778177E+01 -0.39086262341E+00  0.40098167666E+01  0.17134308753E+03  0.17120000000E+03 0.  0.
        998    1    1    2    0    0  0.29702526093E+02 -0.10640070014E+02  0.12978678226E+04  0.12982897735E+04  0.10000000000E+02 0.  1.
</event>
<event>
 5    1  0.1503263E-008  0.3843601E+03  0.7957747E-01  0.3432391E+00
         13   -1    0    0    0    0  0.00000000000E+00  0.00000000000E+00  0.14999999963E+04  0.15000000000E+04  0.10566000000E+00 0.  1.
        994   -1    0    0    0    0 -0.00000000000E+00 -0.00000000000E+00  0.11368683772E-12  0.17120000000E+03  0.17120000000E+03 0.  0.
         13    1    1    2    0    0 -0.16969039415E+02  0.12131955517E+02  0.11120588314E+03  0.11314544734E+03  0.10566000000E+00 0.  1.
        994    1    1    2    0    0  0.10218422086E+02 -0.85086232775E+01  0.25310682164E+01  0.17173426893E+03  0.17120000000E+03 0.  0.
        998    1    1    2    0    0  0.67506173288E+01 -0.36233322396E+01  0.13862630449E+04  0.13863202837E+04  0.10000000000E+02 0.  1.
</event>
<event>
 5    1  0.1503263E-008  0.3809206E+03  0.7957747E-01  0.3447160E+00
         13   -1    0    0    0    0  0.00000000000E+00  0.00000000000E+00  0.14999999963E+04  0.15000000000E+04  0.10566000000E+00 0.  1.
        994   -1    0    0    0    0 -0.00000000000E+00 -0.00000000000E+00  0.11368683772E-12  0.17120000000E+03  0.17120000000E+03 0.  0.
         13    1    1    2    0    0 -0.13077111477E+02 -0.44072956860E+02  0.21371771676E+03  0.21860628992E+03  0.10566000000E+00 0.  1.
        994    1    1    2    0    0  0.19787357766E+02  0.61415255798E+02  0.17671474649E+02  0.18380722017E+03  0.17120000000E+03 0.  0.
        998    1    1    2    0    0 -0.67102462882E+01 -0.17342298938E+02  0.12686108049E+04  0.12687864899E+04  0.10000000000E+02 0.  1.
</event>
<event>
 5    1  0.1503263E-008  0.3838305E+03  0.7957747E-01  0.3434647E+00
         13   -1    0    0    0    0  0.00000000000E+00  0.00000000000E+00  0.14999999963E+04  0.15000000000E+04  0.10566000000E+00 0. -1.
        994   -1    0    0    0    0 -0.00000000000E+00 -0.00000000000E+00  0.11368683772E-12  0.17120000000E+03  0.17120000000E+03 0.  0.
         13    1    1    2    0    0 -0.15745675309E+02  0.21855253943E+01  0.53367002356E+02  0.55684386651E+02  0.10566000000E+00 0. -1.
        994    1    1    2    0    0  0.21630524936E+02 -0.66409671520E+01  0.39038388821E+01  0.17273292104E+03  0.17120000000E+03 0.  0.
        998    1    1    2    0    0 -0.58848496270E+01  0.44554417577E+01  0.14427291550E+04  0.14427826923E+04  0.10000000000E+02 0. -1.
</event>
<event>
 5    1  0.1503263E-008  0.3765387E+03  0.7957747E-01  0.3466369E+00
         13   -1    0    0    0    0  0.00000000000E+00  0.00000000000E+00  0.14999999963E+04  0.15000000000E+04  0.10566000000E+00 0. -1.
        994   -1    0    0    0    0 -0.00000000000E+00 -0.00000000000E+00  0.11368683772E-12  0.17120000000E+03  0.17120000000E+03 0.  0.
         13    1    1    2    0    0  0.17542540403E+02  0.15759314246E+02  0.48792454310E+02  0.54192356204E+02  0.10566000000E+00 0. -1.
        994    1    1    2    0    0  0.25972646705E+02 -0.14032722523E+02  0.88433919491E+01  0.17395154860E+03  0.17120000000E+03 0.  0.
        998    1    1    2    0    0 -0.43515187108E+02 -0.17265917231E+01  0.14423641500E+04  0.14430560952E+04  0.10000000000E+02 0. -1.
</event>
<event>
 5    1  0.1503263E-008  0.3831068E+03  0.7957747E-01  0.3437741E+00
         13   -1    0    0    0    0  0.00000000000E+00  0.00000000000E+00  0.14999999963E+04  0.15000000000E+04  0.10566000000E+00 0.  1.
        994   -1    0    0    0    0 -0.00000000000E+00 -0.00000000000E+00  0.11368683772E-12  0.17120000000E+03  0.17120000000E+03 0.  0.
         13    1    1    2    0    0 -0.37285102983E+00  0.19257840647E+02  0.72396719645E+02  0.74915282978E+02  0.10566000000E+00 0.  1.
        994    1    1    2    0    0 -0.19452621929E+02 -0.10440768361E+02  0.41874826915E+01  0.17266843706E+03  0.17120000000E+03 0.  0.
        998    1    1    2    0    0  0.19825472959E+02 -0.88170722866E+01  0.14234157939E+04  0.14236162800E+04  0.10000000000E+02 0.  1.
</event>
<event>
 5    1  0.1503263E-008  0.3748236E+03  0.7957747E-01  0.3474012E+00
         13   -1    0    0    0    0  0.00000000000E+00  0.00000000000E+00  0.14999999963E+04  0.15000000000E+04  0.10566000000E+00 0.  1.
        994   -1    0    0    0    0 -0.00000000000E+00 -0.00000000000E+00  0.11368683772E-12  0.17120000000E+03  0.17120000000E+03 0.  0.
         13    1    1    2    0    0 -0.37525626580E+02 -0.88898775997E+01  0.11271730897E+03  0.11913188272E+03  0.10566000000E+00 0.  1.
        994    1    1    2    0    0  0.14056185749E+02 -0.39106190273E+01  0.74936598293E+01  0.17198390691E+03  0.17120000000E+03 0.  0.
        998    1    1    2    0    0  0.23469440831E+02  0.12800496627E+02  0.13797890275E+04  0.13800842104E+04  0.10000000000E+02 0.  1.
</event>
<event>
 5    1  0.1503263E-008  0.3833199E+03  0.7957747E-01  0.3436829E+00
         13   -1    0    0    0    0  0.00000000000E+00  0.00000000000E+00  0.14999999963E+04  0.15000000000E+04  0.10566000000E+00 0.  1.
        994   -1    0    0    0    0 -0.00000000000E+00 -0.00000000000E+00  0.11368683772E-12  0.17120000000E+03  0.17120000000E+03 0.  0.
         13    1    1    2    0    0  0.11740764061E+02  0.43830811297E+01  0.30945761812E+02  0.33387247253E+02  0.10566000000E+00 0.  1.
        994    1    1    2    0    0 -0.68427319483E+01 -0.86329065362E+01  0.28679382037E+01  0.17157801469E+03  0.17120000000E+03 0.  0.
        998    1    1    2    0    0 -0.48980321131E+01  0.42498254065E+01  0.14661862963E+04  0.14662347381E+04  0.10000000000E+02 0.  1.
</event>
<event>
 5    1  0.1503263E-008  0.3840703E+03  0.7957747E-01  0.3433625E+00
         13   -1    0    0    0    0  0.00000000000E+00  0.00000000000E+00  0.14999999963E+04  0.15000000000E+04  0.10566000000E+00 0.  1.
        994   -1    0    0    0    0 -0.00000000000E+00 -0.00000000000E+00  0.11368683772E-12  0.17120000000E+03  0.17120000000E+03 0.  0.
         13    1    1    2    0    0  0.36853226906E+01 -0.14505898643E+02  0.52047153609E+02  0.54156440629E+02  0.10566000000E+00 0.  1.
        994    1    1    2    0    0 -0.32408878541E+01  0.13447388065E+02  0.27238302896E+01  0.17177949485E+03  0.17120000000E+03 0.  0.
        998    1    1    2    0    0 -0.44443483653E+00  0.10585105778E+01  0.14452290124E+04  0.14452640645E+04  0.10000000000E+02 0.  1.
</event>
<event>
 5    1  0.1503263E-008  0.3837619E+03  0.7957747E-01  0.3434940E+00
         13   -1    0    0    0    0  0.00000000000E+00  0.00000000000E+00  0.14999999963E+04  0.15000000000E+04  0.10566000000E+00 0.  1.
        994   -1    0    0    0    0 -0.00000000000E+00 -0.00000000000E+00  0.11368683772E-12  0.17120000000E+03  0.17120000000E+03 0.  0.
         13    1    1    2    0    0 -0.77273974883E+01 -0.22417281796E+02  0.12077187103E+03  0.12307763075E+03  0.10566000000E+00 0.  1.
        994    1    1    2    0    0  0.27753968127E+01  0.18941136945E+02  0.34570583901E+01  0.17230165626E+03  0.17120000000E+03 0.  0.
        998    1    1    2    0    0  0.49520006756E+01  0.34761448510E+01  0.13757710669E+04  0.13758207130E+04  0.10000000000E+02 0.  1.
</event>
<event>
 5    1  0.1503263E-008  0.3826901E+03  0.7957747E-01  0.3439528E+00
         13   -1    0    0    0    0  0.00000000000E+00  0.00000000000E+00  0.14999999963E+04  0.15000000000E+04  0.10566000000E+00 0. -1.
        994   -1    0    0    0    0 -0.00000000000E+00 -0.00000000000E+00  0.11368683772E-12  0.17120000000E+03  0.17120000000E+03 0.  0.
         13    1    1    2    0    0 -0.16705140501E+01  0.12763705409E+02  0.29159498677E+02  0.31874603057E+02  0.10566000000E+00 0. -1.
        994    1    1    2    0    0 -0.31385259554E+00 -0.54365639222E+01  0.28795777898E+01  0.17131078979E+03  0.17120000000E+03 0.  0.
        998    1    1    2    0    0  0.19843666456E+01 -0.73271414867E+01  0.14679609198E+04  0.14680146072E+04  0.10000000000E+02 0. -1.
</event>
<event>
 5    1  0.1503263E-008  0.3788377E+03  0.7957747E-01  0.3456235E+00
         13   -1    0    0    0    0  0.00000000000E+00  0.00000000000E+00  0.14999999963E+04  0.15000000000E+04  0.10566000000E+00 0. -1.
        994   -1    0    0    0    0 -0.00000000000E+00 -0.00000000000E+00  0.11368683772E-12  0.17120000000E+03  0.17120000000E+03 0.  0.
         13    1    1    2    0    0  0.11367521484E+02  0.22505799957E+02  0.74142948019E+02  0.78312958579E+02  0.10566000000E+00 0. -1.
        994    1    1    2    0    0  0.17919702666E+01  0.13335588203E+02  0.53288192945E+01  0.17181060906E+03  0.17120000000E+03 0.  0.
        998    1    1    2    0    0 -0.13159491750E+02 -0.35841388160E+02  0.14205282290E+04  0.14210764324E+04  0.10000000000E+02 0. -1.
</event>
<event>
 5    1  0.1503263E-008  0.3732025E+03  0.7957747E-01  0.3481301E+00
         13   -1    0    0    0    0  0.00000000000E+00  0.00000000000E+00  0.14999999963E+04  0.15000000000E+04  0.10566000000E+00 0. -1.
        994   -1    0    0    0    0 -0.00000000000E+00 -0.00000000000E+00  0.11368683772E-12  0.17120000000E+03  0.17120000000E+03 0.  0.
         13    1    1    2    0    0 -0.67696996059E+02  0.52569064989E+02  0.36212520043E+03  0.37213043657E+03  0.10566000000E+00 0. -1.
        994    1    1    2    0    0  0.70553223647E+02 -0.48851658148E+02  0.33225003156E+02  0.19436456134E+03  0.17120000000E+03 0.  0.
        998    1    1    2    0    0 -0.28562275883E+01 -0.37174068408E+01  0.11046497927E+04  0.11047050021E+04  0.10000000000E+02 0. -1.
</event>
<event>
 5    1  0.1503263E-008  0.3778297E+03  0.7957747E-01  0.3460663E+00
         13   -1    0    0    0    0  0.00000000000E+00  0.00000000000E+00  0.14999999963E+04  0.15000000000E+04  0.10566000000E+00 0. -1.
        994   -1    0    0    0    0 -0.00000000000E+00 -0.00000000000E+00  0.11368683772E-12  0.17120000000E+03  0.17120000000E+03 0.  0.
         13    1    1    2    0    0  0.12205150778E+02 -0.90108668208E+01  0.20205242194E+02  0.25267061612E+02  0.10566000000E+00 0. -1.
        994    1    1    2    0    0 -0.74876339852E+01 -0.68019403753E+01  0.55773515729E+01  0.17158927095E+03  0.17120000000E+03 0.  0.
        998    1    1    2    0    0 -0.47175167927E+01  0.15812807196E+02  0.14742174025E+04  0.14743436674E+04  0.10000000000E+02 0. -1.
</event>
<event>
 5    1  0.1503263E-008  0.3710320E+03  0.7957747E-01  0.3491161E+00
         13   -1    0    0    0    0  0.00000000000E+00  0.00000000000E+00  0.14999999963E+04  0.15000000000E+04  0.10566000000E+00 0.  1.
        994   -1    0    0    0    0 -0.00000000000E+00 -0.00000000000E+00  0.11368683772E-12  0.17120000000E+03  0.17120000000E+03 0.  0.
         13    1    1    2    0    0  0.58611310842E+02 -0.40918899321E+02  0.24140128738E+03  0.25176225847E+03  0.10566000000E+00 0.  1.
        994    1    1    2    0    0  0.50029511982E+01  0.51889316108E+02  0.21082134926E+02  0.18019829927E+03  0.17120000000E+03 0.  0.
        998    1    1    2    0    0 -0.63614262040E+02 -0.10970416788E+02  0.12375165740E+04  0.12392394423E+04  0.10000000000E+02 0.  1.
</event>
<event>
 5    1  0.1503263E-008  0.3889739E+03  0.7957747E-01  0.3412991E+00
         13   -1    0    0    0    0  0.00000000000E+00  0.00000000000E+00  0.14999999963E+04  0.15000000000E+04  0.10566000000E+00 0.  1.
        994   -1    0    0    0    0 -0.00000000000E+00 -0.00000000000E+00  0.11368683772E-12  0.17120000000E+03  0.17120000000E+03 0.  0.
         13    1    1    2    0    0 -0.40472676913E+02 -0.28865672618E+02  0.57639374632E+02  0.76115526039E+02  0.10566000000E+00 0.  1.
        994    1    1    2    0    0 -0.40038628051E+02  0.21673481549E+02  0.29154758997E+02  0.17953348298E+03  0.17120000000E+03 0.  0.
        998    1    1    2    0    0  0.80511304964E+02  0.71921910688E+01  0.14132058627E+04  0.14155509910E+04  0.10000000000E+02 0.  1.
</event>
<event>
 5    1  0.1503263E-008  0.3804734E+03  0.7957747E-01  0.3449100E+00
         13   -1    0    0    0    0  0.00000000000E+00  0.00000000000E+00  0.14999999963E+04  0.15000000000E+04  0.10566000000E+00 0. -1.
        994   -1    0    0    0    0 -0.00000000000E+00 -0.00000000000E+00  0.11368683772E-12  0.17120000000E+03  0.17120000000E+03 0.  0.
         13    1    1    2    0    0  0.13473508048E+02  0.14211339356E+02  0.46127609184E+02  0.50112524168E+02  0.10566000000E+00 0. -1.
        994    1    1    2    0    0 -0.16426513754E+02 -0.15329036382E+02  0.55810833530E+01  0.17275820734E+03  0.17120000000E+03 0.  0.
        998    1    1    2    0    0  0.29530057068E+01  0.11176970260E+01  0.14482913037E+04  0.14483292685E+04  0.10000000000E+02 0. -1.
</event>
<event>
 5    1  0.1503263E-008  0.3685262E+03  0.7957747E-01  0.3502692E+00
         13   -1    0    0    0    0  0.00000000000E+00  0.00000000000E+00  0.14999999963E+04  0.15000000000E+04  0.10566000000E+00 0.  1.
        994   -1    0    0    0    0 -0.00000000000E+00 -0.00000000000E+00  0.11368683772E-12  0.17120000000E+03  0.17120000000E+03 0.  0.
         13    1    1    2    0    0  0.75627510473E+02  0.10497339701E+03  0.76590720479E+03  0.77675787214E+03  0.10566000000E+00 0.  1.
        994    1    1    2    0    0 -0.18552405963E+02 -0.97308224396E+02  0.44965916431E+02  0.20284096219E+03  0.17120000000E+03 0.  0.
        998    1    1    2    0    0 -0.57075104510E+02 -0.76651726132E+01  0.68912687506E+03  0.69160116567E+03  0.10000000000E+02 0.  1.
</event>
<event>
 5    1  0.1503263E-008  0.3841205E+03  0.7957747E-01  0.3433411E+00
         13   -1    0    0    0    0  0.00000000000E+00  0.00000000000E+00  0.14999999963E+04  0.15000000000E+04  0.10566000000E+00 0.  1.
        994   -1    0    0    0    0 -0.00000000000E+00 -0.00000000000E+00  0.11368683772E-12  0.17120000000E+03  0.17120000000E+03 0.  0.
         13    1    1    2    0    0 -0.12785308727E+02 -0.86628697026E+01  0.57525330104E+02  0.59562439493E+02  0.10566000000E+00 0.  1.
        994    1    1    2    0    0  0.21125834964E+00  0.16688532641E+02  0.29866569750E+01  0.17203753042E+03  0.17120000000E+03 0.  0.
        998    1    1    2    0    0  0.12574050377E+02 -0.80256629381E+01  0.14394880092E+04  0.14396000301E+04  0.10000000000E+02 0.  1.
</event>
<event>
 5    1  0.1503263E-008  0.3871015E+03  0.7957747E-01  0.3420808E+00
         13   -1    0    0    0    0  0.00000000000E+00  0.00000000000E+00  0.14999999963E+04  0.15000000000E+04  0.10566000000E+00 0. -1.
        994   -1    0    0    0    0 -0.00000000000E+00 -0.00000000000E+00  0.11368683772E-12  0.17120000000E+03  0.17120000000E+03 0.  0.
         13    1    1    2    0    0 -0.64423015276E+02  0.71544939317E+02  0.19784964234E+03  0.22003066917E+03  0.10566000000E+00 0. -1.
        994    1    1    2    0    0  0.59550683316E+02 -0.67374669833E+02  0.51037050190E+02  0.19999962628E+03  0.17120000000E+03 0.  0.
        998    1    1    2    0    0  0.48723319605E+01 -0.41702694842E+01  0.12511133038E+04  0.12511697046E+04  0.10000000000E+02 0. -1.
</event>
<event>
 5    1  0.1503263E-008  0.3833024E+03  0.7957747E-01  0.3436904E+00
         13   -1    0    0    0    0  0.00000000000E+00  0.00000000000E+00  0.14999999963E+04  0.15000000000E+04  0.10566000000E+00 0.  1.
        994   -1    0    0    0    0 -0.00000000000E+00 -0.00000000000E+00  0.11368683772E-12  0.17120000000E+03  0.17120000000E+03 0.  0.
         13    1    1    2    0    0 -0.80758440769E+01 -0.26531790177E+02  0.13975840308E+03  0.14248360447E+03  0.10566000000E+00 0.  1.
        994    1    1    2    0    0  0.11252618280E+02  0.28007423997E+02  0.54937984696E+01  0.17392716590E+03  0.17120000000E+03 0.  0.
        998    1    1    2    0    0 -0.31767742030E+01 -0.14756338199E+01  0.13547477947E+04  0.13547892296E+04  0.10000000000E+02 0.  1.
</event>
<event>
 5    1  0.1503263E-008  0.3729762E+03  0.7957747E-01  0.3482324E+00
         13   -1    0    0    0    0  0.00000000000E+00  0.00000000000E+00  0.14999999963E+04  0.15000000000E+04  0.10566000000E+00 0.  1.
        994   -1    0    0    0    0 -0.00000000000E+00 -0.00000000000E+00  0.11368683772E-12  0.17120000000E+03  0.17120000000E+03 0.  0.
         13    1    1    2    0    0  0.62129882687E+02 -0.21921870177E+03  0.12008922361E+04  0.12223171174E+04  0.10566000000E+00 0.  1.
        994    1    1    2    0    0 -0.77260004747E+02  0.20351576646E+03  0.18682756243E+03  0.33406848642E+03  0.17120000000E+03 0.  0.
        998    1    1    2    0    0  0.15130122060E+02  0.15702935309E+02  0.11228019771E+03  0.11481439617E+03  0.10000000000E+02 0.  0.
</event>
<event>
 5    1  0.1503263E-008  0.3807412E+03  0.7957747E-01  0.3447937E+00
         13   -1    0    0    0    0  0.00000000000E+00  0.00000000000E+00  0.14999999963E+04  0.15000000000E+04  0.10566000000E+00 0. -1.
        994   -1    0    0    0    0 -0.00000000000E+00 -0.00000000000E+00  0.11368683772E-12  0.17120000000E+03  0.17120000000E+03 0.  0.
         13    1    1    2    0    0 -0.67932059959E+02 -0.51925767738E+02  0.50727127467E+03  0.51442706713E+03  0.10566000000E+00 0. -1.
        994    1    1    2    0    0  0.77490547438E+02  0.66600754690E+02  0.39398286933E+02  0.20322920676E+03  0.17120000000E+03 0.  0.
        998    1    1    2    0    0 -0.95584874788E+01 -0.14674986952E+02  0.95333043467E+03  0.95354372611E+03  0.10000000000E+02 0. -1.
</event>
<event>
 5    1  0.1503263E-008  0.4015029E+03  0.7957747E-01  0.3362561E+00
         13   -1    0    0    0    0  0.00000000000E+00  0.00000000000E+00  0.14999999963E+04  0.15000000000E+04  0.10566000000E+00 0. -1.
        994   -1    0    0    0    0 -0.00000000000E+00 -0.00000000000E+00  0.11368683772E-12  0.17120000000E+03  0.17120000000E+03 0.  0.
         13    1    1    2    0    0  0.23664455798E+02  0.11323895925E+02 -0.34834823862E+00  0.26236798541E+02  0.10566000000E+00 0. -1.
        994    1    1    2    0    0 -0.25961090397E+02 -0.11326060907E+02  0.31846277729E+02  0.17642529092E+03  0.17120000000E+03 0.  0.
        998    1    1    2    0    0  0.22966345982E+01  0.21649825344E-02  0.14685020668E+04  0.14685379105E+04  0.10000000000E+02 0. -1.
</event>
<event>
 5    1  0.1503263E-008  0.3723777E+03  0.7957747E-01  0.3485034E+00
         13   -1    0    0    0    0  0.00000000000E+00  0.00000000000E+00  0.14999999963E+04  0.15000000000E+04  0.10566000000E+00 0. -1.
        994   -1    0    0    0    0 -0.00000000000E+00 -0.00000000000E+00  0.11368683772E-12  0.17120000000E+03  0.17120000000E+03 0.  0.
         13    1    1    2    0    0  0.11565492881E+02  0.80965263798E+01  0.86925075001E+01  0.16579662713E+02  0.10566000000E+00 0. -1.
        994    1    1    2    0    0 -0.11430993282E+02 -0.96125674760E+01  0.87969181308E+01  0.17207525920E+03  0.17120000000E+03 0.  0.
        998    1    1    2    0    0 -0.13449959926E+00  0.15160410962E+01  0.14825105706E+04  0.14825450781E+04  0.10000000000E+02 0. -1.
</event>
<event>
 5    1  0.1503263E-008  0.3851141E+03  0.7957747E-01  0.3429189E+00
         13   -1    0    0    0    0  0.00000000000E+00  0.00000000000E+00  0.14999999963E+04  0.15000000000E+04  0.10566000000E+00 0.  1.
        994   -1    0    0    0    0 -0.00000000000E+00 -0.00000000000E+00  0.11368683772E-12  0.17120000000E+03  0.17120000000E+03 0.  0.
         13    1    1    2    0    0 -0.14169122240E+02 -0.35948230963E+01  0.66509150203E+02  0.68096732689E+02  0.10566000000E+00 0.  1.
        994    1    1    2    0    0  0.11465996414E+02  0.78733958560E+01  0.22097538975E+01  0.17177829446E+03  0.17120000000E+03 0.  0.
        998    1    1    2    0    0  0.27031258259E+01 -0.42785727598E+01  0.14312810922E+04  0.14313249728E+04  0.10000000000E+02 0.  1.
</event>
<event>
 5    1  0.1503263E-008  0.3859572E+03  0.7957747E-01  0.3425623E+00
         13   -1    0    0    0    0  0.00000000000E+00  0.00000000000E+00  0.14999999963E+04  0.15000000000E+04  0.10566000000E+00 0. -1.
        994   -1    0    0    0    0 -0.00000000000E+00 -0.00000000000E+00  0.11368683772E-12  0.17120000000E+03  0.17120000000E+03 0.  0.
         13    1    1    2    0    0  0.10239601680E+02 -0.20435933960E+01  0.46727618329E+02  0.47880133618E+02  0.10566000000E+00 0. -1.
        994    1    1    2    0    0 -0.97599343942E+01  0.34162329183E+01  0.15062968712E+01  0.17151861677E+03  0.17120000000E+03 0.  0.
        998    1    1    2    0    0 -0.47966728543E+00 -0.13726395223E+01  0.14517660811E+04  0.14518012496E+04  0.10000000000E+02 0. -1.
</event>
<event>
 5    1  0.1503263E-008  0.3808202E+03  0.7957747E-01  0.3447595E+00
         13   -1    0    0    0    0  0.00000000000E+00  0.00000000000E+00  0.14999999963E+04  0.15000000000E+04  0.10566000000E+00 0.  1.
        994   -1    0    0    0    0 -0.00000000000E+00 -0.00000000000E+00  0.11368683772E-12  0.17120000000E+03  0.17120000000E+03 0.  0.
         13    1    1    2    0    0 -0.10272650259E+02  0.30970181992E+02  0.13168722205E+03  0.13566950700E+03  0.10566000000E+00 0.  1.
        994    1    1    2    0    0  0.22487647807E+02 -0.25956139454E+02  0.76616860000E+01  0.17477859397E+03  0.17120000000E+03 0.  0.
        998    1    1    2    0    0 -0.12214997549E+02 -0.50140425378E+01  0.13606510882E+04  0.13607518990E+04  0.10000000000E+02 0.  1.
</event>
<event>
 5    1  0.1503263E-008  0.3715610E+03  0.7957747E-01  0.3488747E+00
         13   -1    0    0    0    0  0.00000000000E+00  0.00000000000E+00  0.14999999963E+04  0.15000000000E+04  0.10566000000E+00 0. -1.
        994   -1    0    0    0    0 -0.00000000000E+00 -0.00000000000E+00  0.11368683772E-12  0.17120000000E+03  0.17120000000E+03 0.  0.
         13    1    1    2    0    0 -0.62448081603E+02 -0.10429534430E+03  0.50879275926E+03  0.52311314721E+03  0.10566000000E+00 0. -1.
        994    1    1    2    0    0  0.61692973456E+02  0.11415378103E+03  0.68790653268E+02  0.22556307915E+03  0.17120000000E+03 0.  0.
        998    1    1    2    0    0  0.75510814778E+00 -0.98584367306E+01  0.92241658375E+03  0.92252377364E+03  0.10000000000E+02 0.  1.
</event>
<event>
 5    1  0.1503263E-008  0.3721730E+03  0.7957747E-01  0.3485963E+00
         13   -1    0    0    0    0  0.00000000000E+00  0.00000000000E+00  0.14999999963E+04  0.15000000000E+04  0.10566000000E+00 0. -1.
        994   -1    0    0    0    0 -0.00000000000E+00 -0.00000000000E+00  0.11368683772E-12  0.17120000000E+03  0.17120000000E+03 0.  0.
         13    1    1    2    0    0 -0.10278052176E+02 -0.57951937440E+02  0.24394644609E+03  0.25094610006E+03  0.10566000000E+00 0. -1.
        994    1    1    2    0    0 -0.15502174714E+02  0.13620993718E+02  0.96004958360E+01  0.17270627786E+03  0.17120000000E+03 0.  0.
        998    1    1    2    0    0  0.25780226889E+02  0.44330943722E+02  0.12464530544E+04  0.12475476221E+04  0.10000000000E+02 0. -1.
</event>
<event>
 5    1  0.1503263E-008  0.3781953E+03  0.7957747E-01  0.3459055E+00
         13   -1    0    0    0    0  0.00000000000E+00  0.00000000000E+00  0.14999999963E+04  0.15000000000E+04  0.10566000000E+00 0. -1.
        994   -1    0    0    0    0 -0.00000000000E+00 -0.00000000000E+00  0.11368683772E-12  0.17120000000E+03  0.17120000000E+03 0.  0.
         13    1    1    2    0    0  0.49300947554E+02  0.43267222734E+02  0.32994372505E+03  0.33640081577E+03  0.10566000000E+00 0. -1.
        994    1    1    2    0    0 -0.59487200852E+02 -0.33255806129E+02  0.20829286639E+02  0.18543994955E+03  0.17120000000E+03 0.  0.
        998    1    1    2    0    0  0.10186253298E+02 -0.10011416605E+02  0.11492269846E+04  0.11493592347E+04  0.10000000000E+02 0.  0.
</event>
<event>
 5    1  0.1503263E-008  0.3828860E+03  0.7957747E-01  0.3438688E+00
         13   -1    0    0    0    0  0.00000000000E+00  0.00000000000E+00  0.14999999963E+04  0.15000000000E+04  0.10566000000E+00 0.  1.
        994   -1    0    0    0    0 -0.00000000000E+00 -0.00000000000E+00  0.11368683772E-12  0.17120000000E+03  0.17120000000E+03 0.  0.
         13    1    1    2    0    0  0.67656694282E+01  0.88772591348E+01  0.21953241899E+02  0.24627951731E+02  0.10566000000E+00 0.  1.
        994    1    1    2    0    0 -0.12980369425E+02 -0.47996495366E+01  0.33178382268E+01  0.17179049647E+03  0.17120000000E+03 0.  0.
        998    1    1    2    0    0  0.62146999969E+01 -0.40776095981E+01  0.14747289162E+04  0.14747815518E+04  0.10000000000E+02 0.  1.
</event>
<event>
 5    1  0.1601606E-008  0.3854335E+03  0.7957747E-01  0.3427836E+00
         13   -1    0    0    0    0  0.00000000000E+00  0.00000000000E+00  0.14999999963E+04  0.15000000000E+04  0.10566000000E+00 0. -1.
        994   -1    0    0    0    0 -0.00000000000E+00 -0.00000000000E+00  0.11368683772E-12  0.17120000000E+03  0.17120000000E+03 0.  0.
         13    1    1    2    0    0  0.91312884605E+01  0.48997782046E+01  0.38597329848E+02  0.39964400293E+02  0.10566000000E+00 0. -1.
        994    1    1    2    0    0 -0.28859989229E+01 -0.32643822481E+01  0.14773992699E+01  0.17126181095E+03  0.17120000000E+03 0.  0.
        998    1    1    2    0    0 -0.62452895376E+01 -0.16353959565E+01  0.14599252672E+04  0.14599737888E+04  0.10000000000E+02 0. -1.
</event>
<event>
 5    1  0.1503263E-008  0.3853897E+03  0.7957747E-01  0.3428021E+00
         13   -1    0    0    0    0  0.00000000000E+00  0.00000000000E+00  0.14999999963E+04  0.15000000000E+04  0.10566000000E+00 0.  1.
        994   -1    0    0    0    0 -0.00000000000E+00 -0.00000000000E+00  0.11368683772E-12  0.17120000000E+03  0.17120000000E+03 0.  0.
         13    1    1    2    0    0  0.96090807902E+01  0.41390685760E+01  0.37497938144E+02  0.38930358994E+02  0.10566000000E+00 0.  1.
        994    1    1    2    0    0 -0.88878364831E+01 -0.54822331652E+01  0.17950220810E+01  0.17152757977E+03  0.17120000000E+03 0.  0.
        998    1    1    2    0    0 -0.72124430713E+00  0.13431645892E+01  0.14607070361E+04  0.14607420612E+04  0.10000000000E+02 0.  1.
</event>
<event>
 5    1  0.1503263E-008  0.3824602E+03  0.7957747E-01  0.3440516E+00
         13   -1    0    0    0    0  0.00000000000E+00  0.00000000000E+00  0.14999999963E+04  0.15000000000E+04  0.10566000000E+00 0. -1.
        994   -1    0    0    0    0 -0.00000000000E+00 -0.00000000000E+00  0.11368683772E-12  0.17120000000E+03  0.17120000000E+03 0.  0.
         13    1    1    2    0    0 -0.14641785915E+00 -0.12549296611E+02  0.25080269182E+02  0.28045273218E+02  0.10566000000E+00 0. -1.
        994    1    1    2    0    0 -0.42868680200E+02  0.21625772801E+02  0.10578945071E+02  0.17812004904E+03  0.17120000000E+03 0.  0.
        998    1    1    2    0    0  0.43015098059E+02 -0.90764761902E+01  0.14643407820E+04  0.14650346777E+04  0.10000000000E+02 0. -1.
</event>
<event>
 5    1  0.1503263E-008  0.3821853E+03  0.7957747E-01  0.3441698E+00
         13   -1    0    0    0    0  0.00000000000E+00  0.00000000000E+00  0.14999999963E+04  0.15000000000E+04  0.10566000000E+00 0.  1.
        994   -1    0    0    0    0 -0.00000000000E+00 -0.00000000000E+00  0.11368683772E-12  0.17120000000E+03  0.17120000000E+03 0.  0.
         13    1    1    2    0    0 -0.17820424298E+02 -0.26430224174E+02  0.14513883322E+03  0.14859817073E+03  0.10566000000E+00 0.  1.
        994    1    1    2    0    0  0.24764204098E+02  0.29759859957E+02  0.80249156836E+01  0.17570644365E+03  0.17120000000E+03 0.  0.
        998    1    1    2    0    0 -0.69437798001E+01 -0.33296357828E+01  0.13468362474E+04  0.13468953856E+04  0.10000000000E+02 0.  1.
</event>
<event>
 5    1  0.1503263E-008  0.3693038E+03  0.7957747E-01  0.3499097E+00
         13   -1    0    0    0    0  0.00000000000E+00  0.00000000000E+00  0.14999999963E+04  0.15000000000E+04  0.10566000000E+00 0. -1.
        994   -1    0    0    0    0 -0.00000000000E+00 -0.00000000000E+00  0.11368683772E-12  0.17120000000E+03  0.17120000000E+03 0.  0.
         13    1    1    2    0    0 -0.61940416891E+02 -0.72174748129E+01  0.16210024427E+03  0.17368133908E+03  0.10566000000E+00 0. -1.
        994    1    1    2    0    0  0.62466020481E+02 -0.23532153930E+01  0.24325589250E+02  0.18387146497E+03  0.17120000000E+03 0.  0.
        998    1    1    2    0    0 -0.52560359057E+00  0.95706902059E+01  0.13135741628E+04  0.13136471959E+04  0.10000000000E+02 0. -1.
</event>
<event>
 5    1  0.1503263E-008  0.3779825E+03  0.7957747E-01  0.3459990E+00
         13   -1    0    0    0    0  0.00000000000E+00  0.00000000000E+00  0.14999999963E+04  0.15000000000E+04  0.10566000000E+00 0.  1.
        994   -1    0    0    0    0 -0.00000000000E+00 -0.00000000000E+00  0.11368683772E-12  0.17120000000E+03  0.17120000000E+03 0.  0.
         13    1    1    2    0    0 -0.42369735514E+02  0.12996133340E+02  0.17870198852E+03  0.18411546876E+03  0.10566000000E+00 0.  1.
        994    1    1    2    0    0  0.30334753625E+02 -0.19017080822E+02  0.94810424086E+01  0.17516043162E+03  0.17120000000E+03 0.  0.
        998    1    1    2    0    0  0.12034981889E+02  0.60209474821E+01  0.13118169653E+04  0.13119240996E+04  0.10000000000E+02 0.  1.
</event>
<event>
 5    1  0.1503263E-008  0.3797318E+03  0.7957747E-01  0.3452327E+00
         13   -1    0    0    0    0  0.00000000000E+00  0.00000000000E+00  0.14999999963E+04  0.15000000000E+04  0.10566000000E+00 0. -1.
        994   -1    0    0    0    0 -0.00000000000E+00 -0.00000000000E+00  0.11368683772E-12  0.17120000000E+03  0.17120000000E+03 0.  0.
         13    1    1    2    0    0 -0.99002163446E+00  0.16845267240E+02  0.31429287500E+02  0.35672881129E+02  0.10566000000E+00 0. -1.
        994    1    1    2    0    0  0.80429780536E+00 -0.13803560625E+02  0.49085066458E+01  0.17182758399E+03  0.17120000000E+03 0.  0.
        998    1    1    2    0    0  0.18572382910E+00 -0.30417066152E+01  0.14636622021E+04  0.14636995349E+04  0.10000000000E+02 0. -1.
</event>
<event>
 5    1  0.1503263E-008  0.3838094E+03  0.7957747E-01  0.3434737E+00
         13   -1    0    0    0    0  0.00000000000E+00  0.00000000000E+00  0.14999999963E+04  0.15000000000E+04  0.10566000000E+00 0. -1.
        994   -1    0    0    0    0 -0.00000000000E+00 -0.00000000000E+00  0.11368683772E-12  0.17120000000E+03  0.17120000000E+03 0.  0.
         13    1    1    2    0    0  0.15110392285E+02  0.27899128302E+01  0.54032581605E+02  0.56175071050E+02  0.10566000000E+00 0. -1.
        994    1    1    2    0    0 -0.38586946885E+01 -0.56531455846E+01  0.23770630557E+01  0.17135325503E+03  0.17120000000E+03 0.  0.
        998    1    1    2    0    0 -0.11251697596E+02  0.28632327544E+01  0.14435903516E+04  0.14436716739E+04  0.10000000000E+02 0. -1.
</event>
<event>
 5    1  0.1503263E-008  0.3711147E+03  0.7957747E-01  0.3490783E+00
         13   -1    0    0    0    0  0.00000000000E+00  0.00000000000E+00  0.14999999963E+04  0.15000000000E+04  0.10566000000E+00 0. -1.
        994   -1    0    0    0    0 -0.00000000000E+00 -0.00000000000E+00  0.11368683772E-12  0.17120000000E+03  0.17120000000E+03 0.  0.
         13    1    1    2    0    0  0.11326485715E+03 -0.53011000293E+02  0.44926903344E+03  0.46634940719E+03  0.10566000000E+00 0. -1.
        994    1    1    2    0    0 -0.11640479844E+03  0.49735335196E+02  0.70100831192E+02  0.22415897751E+03  0.17120000000E+03 0.  0.
        998    1    1    2    0    0  0.31399412883E+01  0.32756650975E+01  0.98063013165E+03  0.98069161530E+03  0.10000000000E+02 0.  0.
</event>
<event>
 5    1  0.1503263E-008  0.3846527E+03  0.7957747E-01  0.3431146E+00
         13   -1    0    0    0    0  0.00000000000E+00  0.00000000000E+00  0.14999999963E+04  0.15000000000E+04  0.10566000000E+00 0.  1.
        994   -1    0    0    0    0 -0.00000000000E+00 -0.00000000000E+00  0.11368683772E-12  0.17120000000E+03  0.17120000000E+03 0.  0.
         13    1    1    2    0    0  0.10727189574E+02  0.74640235549E+01  0.46575875957E+02  0.48374658955E+02  0.10566000000E+00 0.  1.
        994    1    1    2    0    0 -0.12960030965E+02 -0.84167031872E+00  0.23581656390E+01  0.17170810044E+03  0.17120000000E+03 0.  0.
        998    1    1    2    0    0  0.22328413914E+01 -0.66223532362E+01  0.14510659547E+04  0.14511172406E+04  0.10000000000E+02 0.  1.
</event>
<event>
 5    1  0.1503263E-008  0.3805631E+03  0.7957747E-01  0.3448710E+00
         13   -1    0    0    0    0  0.00000000000E+00  0.00000000000E+00  0.14999999963E+04  0.15000000000E+04  0.10566000000E+00 0. -1.
        994   -1    0    0    0    0 -0.00000000000E+00 -0.00000000000E+00  0.11368683772E-12  0.17120000000E+03  0.17120000000E+03 0.  0.
         13    1    1    2    0    0  0.30368081694E+02 -0.54334399989E+01  0.13620103376E+03  0.13965126357E+03  0.10566000000E+00 0. -1.
        994    1    1    2    0    0 -0.15298011747E+01 -0.78604097119E+00  0.38590589432E+01  0.17125212550E+03  0.17120000000E+03 0.  0.
        998    1    1    2    0    0 -0.28838280520E+02  0.62194809701E+01  0.13599399036E+04  0.13602966109E+04  0.10000000000E+02 0. -1.
</event>
<event>
 5    1  0.1503263E-008  0.3864282E+03  0.7957747E-01  0.3423638E+00
         13   -1    0    0    0    0  0.00000000000E+00  0.00000000000E+00  0.14999999963E+04  0.15000000000E+04  0.10566000000E+00 0. -1.
        994   -1    0    0    0    0 -0.00000000000E+00 -0.00000000000E+00  0.11368683772E-12  0.17120000000E+03  0.17120000000E+03 0.  0.
         13    1    1    2    0    0  0.21061667337E+01 -0.10419653369E+02  0.61198848374E+02  0.62115338855E+02  0.10566000000E+00 0. -1.
        994    1    1    2    0    0 -0.34777252774E+01  0.91662446580E+01  0.12374114556E+01  0.17148494337E+03  0.17120000000E+03 0.  0.
        998    1    1    2    0    0  0.13715585437E+01  0.12534087111E+01  0.14375637364E+04  0.14375997178E+04  0.10000000000E+02 0. -1.
</event>
<event>
 5    1  0.1503263E-008  0.3832164E+03  0.7957747E-01  0.3437272E+00
         13   -1    0    0    0    0  0.00000000000E+00  0.00000000000E+00  0.14999999963E+04  0.15000000000E+04  0.10566000000E+00 0. -1.
        994   -1    0    0    0    0 -0.00000000000E+00 -0.00000000000E+00  0.11368683772E-12  0.17120000000E+03  0.17120000000E+03 0.  0.
         13    1    1    2    0    0 -0.19494775434E+02  0.11088412782E+02  0.10861783291E+03  0.11090916986E+03  0.10566000000E+00 0. -1.
        994    1    1    2    0    0 -0.90471318986E+00 -0.26964404643E+01  0.25450251159E+01  0.17124253692E+03  0.17120000000E+03 0.  0.
        998    1    1    2    0    0  0.20399488624E+02 -0.83919723173E+01  0.13888371382E+04  0.13890482932E+04  0.10000000000E+02 0. -1.
</event>
<event>
 5    1  0.1503263E-008  0.3751418E+03  0.7957747E-01  0.3472589E+00
         13   -1    0    0    0    0  0.00000000000E+00  0.00000000000E+00  0.14999999963E+04  0.15000000000E+04  0.10566000000E+00 0. -1.
        994   -1    0    0    0    0 -0.00000000000E+00 -0.00000000000E+00  0.11368683772E-12  0.17120000000E+03  0.17120000000E+03 0.  0.
         13    1    1    2    0    0  0.30917399419E+01  0.97511508199E+01  0.46832280057E+01  0.11251114912E+02  0.10566000000E+00 0. -1.
        994    1    1    2    0    0 -0.77936858361E+01 -0.20734885648E+02  0.82748183547E+01  0.17282531539E+03  0.17120000000E+03 0.  0.
        998    1    1    2    0    0  0.47019458941E+01  0.10983734828E+02  0.14870419499E+04  0.14871235697E+04  0.10000000000E+02 0. -1.
</event>
<event>
 5    1  0.1503263E-008  0.3704739E+03  0.7957747E-01  0.3493716E+00
         13   -1    0    0    0    0  0.00000000000E+00  0.00000000000E+00  0.14999999963E+04  0.15000000000E+04  0.10566000000E+00 0. -1.
        994   -1    0    0    0    0 -0.00000000000E+00 -0.00000000000E+00  0.11368683772E-12  0.17120000000E+03  0.17120000000E+03 0.  0.
         13    1    1    2    0    0 -0.18162905779E+03 -0.38634333492E+02  0.73391461294E+03  0.75704187243E+03  0.10566000000E+00 0. -1.
        994    1    1    2    0    0  0.19257250009E+03  0.23049437958E+02  0.15271551639E+03  0.30041124035E+03  0.17120000000E+03 0.  0.
        998    1    1    2    0    0 -0.10943442305E+02  0.15584895534E+02  0.61336986695E+03  0.61374688723E+03  0.10000000000E+02 0. -1.
</event>
<event>
 5    1  0.1503263E-008  0.3839841E+03  0.7957747E-01  0.3433992E+00
         13   -1    0    0    0    0  0.00000000000E+00  0.00000000000E+00  0.14999999963E+04  0.15000000000E+04  0.10566000000E+00 0.  1.
        994   -1    0    0    0    0 -0.00000000000E+00 -0.00000000000E+00  0.11368683772E-12  0.17120000000E+03  0.17120000000E+03 0.  0.
         13    1    1    2    0    0 -0.61263955543E+01  0.86958025909E+01  0.26149982334E+02  0.28230877515E+02  0.10566000000E+00 0.  1.
        994    1    1    2    0    0 -0.54488143694E+01 -0.91629541492E+01  0.25104462772E+01  0.17154996837E+03  0.17120000000E+03 0.  0.
        998    1    1    2    0    0  0.11575209924E+02  0.46715155828E+00  0.14713395677E+04  0.14714191541E+04  0.10000000000E+02 0.  1.
</event>
<event>
 5    1  0.1503263E-008  0.3851500E+03  0.7957747E-01  0.3429036E+00
         13   -1    0    0    0    0  0.00000000000E+00  0.00000000000E+00  0.14999999963E+04  0.15000000000E+04  0.10566000000E+00 0.  1.
        994   -1    0    0    0    0 -0.00000000000E+00 -0.00000000000E+00  0.11368683772E-12  0.17120000000E+03  0.17120000000E+03 0.  0.
         13    1    1    2    0    0 -0.33989846355E+01 -0.13511370784E+02  0.66450607735E+02  0.67895542339E+02  0.10566000000E+00 0.  1.
        994    1    1    2    0    0  0.40687530318E+01 -0.11055053114E+01  0.16141213500E+01  0.17125951734E+03  0.17120000000E+03 0.  0.
        998    1    1    2    0    0 -0.66976839632E+00  0.14616876095E+02  0.14319352672E+04  0.14320449403E+04  0.10000000000E+02 0.  1.
</event>
<event>
 5    1  0.1503263E-008  0.3836119E+03  0.7957747E-01  0.3435581E+00
         13   -1    0    0    0    0  0.00000000000E+00  0.00000000000E+00  0.14999999963E+04  0.15000000000E+04  0.10566000000E+00 0. -1.
        994   -1    0    0    0    0 -0.00000000000E+00 -0.00000000000E+00  0.11368683772E-12  0.17120000000E+03  0.17120000000E+03 0.  0.
         13    1    1    2    0    0 -0.18197049262E+02  0.36693683281E+01  0.72985384469E+02  0.75309191842E+02  0.10566000000E+00 0. -1.
        994    1    1    2    0    0  0.12514044875E+02 -0.67437891820E+01  0.29887430240E+01  0.17181516987E+03  0.17120000000E+03 0.  0.
        998    1    1    2    0    0  0.56830043875E+01  0.30744208538E+01  0.14240258688E+04  0.14240756383E+04  0.10000000000E+02 0. -1.
</event>
<event>
 5    1  0.1503263E-008  0.3720262E+03  0.7957747E-01  0.3486630E+00
         13   -1    0    0    0    0  0.00000000000E+00  0.00000000000E+00  0.14999999963E+04  0.15000000000E+04  0.10566000000E+00 0.  1.
        994   -1    0    0    0    0 -0.00000000000E+00 -0.00000000000E+00  0.11368683772E-12  0.17120000000E+03  0.17120000000E+03 0.  0.
         13    1    1    2    0    0 -0.14342530791E+02 -0.17717397853E+02  0.28849748497E+02  0.36768648718E+02  0.10566000000E+00 0.  1.
        994    1    1    2    0    0  0.48835889428E+00  0.89329826421E+01  0.84886932297E+01  0.17164362670E+03  0.17120000000E+03 0.  0.
        998    1    1    2    0    0  0.13854171897E+02  0.87844152108E+01  0.14626615546E+04  0.14627877246E+04  0.10000000000E+02 0.  1.
</event>
<event>
 5    1  0.1503263E-008  0.3801872E+03  0.7957747E-01  0.3450344E+00
         13   -1    0    0    0    0  0.00000000000E+00  0.00000000000E+00  0.14999999963E+04  0.15000000000E+04  0.10566000000E+00 0. -1.
        994   -1    0    0    0    0 -0.00000000000E+00 -0.00000000000E+00  0.11368683772E-12  0.17120000000E+03  0.17120000000E+03 0.  0.
         13    1    1    2    0    0 -0.80158029379E+01  0.99816120570E+01  0.18471991028E+02  0.22474681145E+02  0.10566000000E+00 0. -1.
        994    1    1    2    0    0  0.10661609024E+02 -0.62910187808E+01  0.45508192192E+01  0.17170729973E+03  0.17120000000E+03 0.  0.
        998    1    1    2    0    0 -0.26458060863E+01 -0.36905932762E+01  0.14769771860E+04  0.14770180191E+04  0.10000000000E+02 0. -1.
</event>
<event>
 5    1  0.1503263E-008  0.3874856E+03  0.7957747E-01  0.3419198E+00
         13   -1    0    0    0    0  0.00000000000E+00  0.00000000000E+00  0.14999999963E+04  0.15000000000E+04  0.10566000000E+00 0.  1.
        994   -1    0    0    0    0 -0.00000000000E+00 -0.00000000000E+00  0.11368683772E-12  0.17120000000E+03  0.17120000000E+03 0.  0.
         13    1    1    2    0    0  0.28279752570E+01 -0.34361447760E+02  0.20647816610E+02  0.40187685067E+02  0.10566000000E+00 0.  1.
        994    1    1    2    0    0 -0.13697007885E+02  0.27160518378E+02  0.23956572417E+02  0.17552395604E+03  0.17120000000E+03 0.  0.
        998    1    1    2    0    0  0.10869032628E+02  0.72009293826E+01  0.14553956073E+04  0.14554883589E+04  0.10000000000E+02 0.  1.
</event>
<event>
 5    1  0.1503263E-008  0.3810042E+03  0.7957747E-01  0.3446798E+00
         13   -1    0    0    0    0  0.00000000000E+00  0.00000000000E+00  0.14999999963E+04  0.15000000000E+04  0.10566000000E+00 0. -1.
        994   -1    0    0    0    0 -0.00000000000E+00 -0.00000000000E+00  0.11368683772E-12  0.17120000000E+03  0.17120000000E+03 0.  0.
         13    1    1    2    0    0 -0.24265594622E+02 -0.21461798043E+02  0.15673794775E+03  0.16005068975E+03  0.10566000000E+00 0. -1.
        994    1    1    2    0    0  0.46606714131E+00  0.91983015541E+01  0.39097657542E+01  0.17149213463E+03  0.17120000000E+03 0.  0.
        998    1    1    2    0    0  0.23799527481E+02  0.12263496489E+02  0.13393522828E+04  0.13396571756E+04  0.10000000000E+02 0. -1.
</event>
<event>
 5    1  0.1503263E-008  0.3823353E+03  0.7957747E-01  0.3441053E+00
         13   -1    0    0    0    0  0.00000000000E+00  0.00000000000E+00  0.14999999963E+04  0.15000000000E+04  0.10566000000E+00 0.  1.
        994   -1    0    0    0    0 -0.00000000000E+00 -0.00000000000E+00  0.11368683772E-12  0.17120000000E+03  0.17120000000E+03 0.  0.
         13    1    1    2    0    0 -0.13150824865E+02 -0.43345847069E+01  0.31578240314E+02  0.34480853304E+02  0.10566000000E+00 0.  1.
        994    1    1    2    0    0  0.81274220340E+01 -0.13676477169E+01  0.31842814012E+01  0.17142784225E+03  0.17120000000E+03 0.  0.
        998    1    1    2    0    0  0.50234028309E+01  0.57022324238E+01  0.14652374746E+04  0.14652913044E+04  0.10000000000E+02 0.  1.
</event>
<event>
 5    1  0.1503263E-008  0.3826648E+03  0.7957747E-01  0.3439637E+00
         13   -1    0    0    0    0  0.00000000000E+00  0.00000000000E+00  0.14999999963E+04  0.15000000000E+04  0.10566000000E+00 0.  1.
        994   -1    0    0    0    0 -0.00000000000E+00 -0.00000000000E+00  0.11368683772E-12  0.17120000000E+03  0.17120000000E+03 0.  0.
         13    1    1    2    0    0 -0.53295005465E+01 -0.13109445842E+02  0.34807773101E+02  0.37574637439E+02  0.10566000000E+00 0.  1.
        994    1    1    2    0    0  0.72206449769E+01  0.80656909210E+01  0.31824283033E+01  0.17157144557E+03  0.17120000000E+03 0.  0.
        998    1    1    2    0    0 -0.18911444304E+01  0.50437549212E+01  0.14620097949E+04  0.14620539170E+04  0.10000000000E+02 0.  1.
</event>
<event>
 5    1  0.1503263E-008  0.3804599E+03  0.7957747E-01  0.3449159E+00
         13   -1    0    0    0    0  0.00000000000E+00  0.00000000000E+00  0.14999999963E+04  0.15000000000E+04  0.10566000000E+00 0.  1.
        994   -1    0    0    0    0 -0.00000000000E+00 -0.00000000000E+00  0.11368683772E-12  0.17120000000E+03  0.17120000000E+03 0.  0.
         13    1    1    2    0    0  0.31885049301E+02 -0.36284247859E+02  0.61492884107E+02  0.78195837302E+02  0.10566000000E+00 0.  1.
        994    1    1    2    0    0 -0.21816060978E+02  0.48098454267E+02  0.26774839067E+02  0.18115113532E+03  0.17120000000E+03 0.  0.
        998    1    1    2    0    0 -0.10068988323E+02 -0.11814206408E+02  0.14117322731E+04  0.14118530274E+04  0.10000000000E+02 0.  1.
</event>
<event>
 5    1  0.1503263E-008  0.3844442E+03  0.7957747E-01  0.3432033E+00
         13   -1    0    0    0    0  0.00000000000E+00  0.00000000000E+00  0.14999999963E+04  0.15000000000E+04  0.10566000000E+00 0.  1.
        994   -1    0    0    0    0 -0.00000000000E+00 -0.00000000000E+00  0.11368683772E-12  0.17120000000E+03  0.17120000000E+03 0.  0.
         13    1    1    2    0    0  0.12207173722E+02  0.28493463629E+01  0.40436778852E+02  0.42335305749E+02  0.10566000000E+00 0.  1.
        994    1    1    2    0    0 -0.79077888916E+01 -0.13347619833E+02  0.26997280454E+01  0.17192271697E+03  0.17120000000E+03 0.  0.
        998    1    1    2    0    0 -0.42993848302E+01  0.10498273470E+02  0.14568634894E+04  0.14569419773E+04  0.10000000000E+02 0.  1.
</event>
<event>
 5    1  0.1503263E-008  0.3824013E+03  0.7957747E-01  0.3440769E+00
         13   -1    0    0    0    0  0.00000000000E+00  0.00000000000E+00  0.14999999963E+04  0.15000000000E+04  0.10566000000E+00 0.  1.
        994   -1    0    0    0    0 -0.00000000000E+00 -0.00000000000E+00  0.11368683772E-12  0.17120000000E+03  0.17120000000E+03 0.  0.
         13    1    1    2    0    0 -0.11298922450E+02 -0.20102152518E+01  0.21446124235E+02  0.24323939291E+02  0.10566000000E+00 0.  1.
        994    1    1    2    0    0  0.69084412706E+01  0.18325462068E+01  0.30953282578E+01  0.17137708669E+03  0.17120000000E+03 0.  0.
        998    1    1    2    0    0  0.43904811796E+01  0.17766904507E+00  0.14754585438E+04  0.14754989740E+04  0.10000000000E+02 0.  1.
</event>
<event>
 5    1  0.1503263E-008  0.3808619E+03  0.7957747E-01  0.3447414E+00
         13   -1    0    0    0    0  0.00000000000E+00  0.00000000000E+00  0.14999999963E+04  0.15000000000E+04  0.10566000000E+00 0. -1.
        994   -1    0    0    0    0 -0.00000000000E+00 -0.00000000000E+00  0.11368683772E-12  0.17120000000E+03  0.17120000000E+03 0.  0.
         13    1    1    2    0    0 -0.80361654179E+01 -0.11218394166E+02  0.24055927760E+02  0.27733213783E+02  0.10566000000E+00 0. -1.
        994    1    1    2    0    0  0.16456212457E+01  0.14147844658E+02  0.43752274775E+01  0.17184717686E+03  0.17120000000E+03 0.  0.
        998    1    1    2    0    0  0.63905441722E+01 -0.29294504923E+01  0.14715688410E+04  0.14716196094E+04  0.10000000000E+02 0. -1.
</event>
<event>
 5    1  0.1503263E-008  0.3880636E+03  0.7957747E-01  0.3416782E+00
         13   -1    0    0    0    0  0.00000000000E+00  0.00000000000E+00  0.14999999963E+04  0.15000000000E+04  0.10566000000E+00 0. -1.
        994   -1    0    0    0    0 -0.00000000000E+00 -0.00000000000E+00  0.11368683772E-12  0.17120000000E+03  0.17120000000E+03 0.  0.
         13    1    1    2    0    0 -0.98787764414E+02  0.12632405591E+03  0.44291561858E+03  0.47105312423E+03  0.10566000000E+00 0. -1.
        994    1    1    2    0    0  0.84014719609E+02 -0.12011257156E+03  0.10632281723E+03  0.24919768141E+03  0.17120000000E+03 0.  0.
        998    1    1    2    0    0  0.14773044804E+02 -0.62114843468E+01  0.95076156047E+03  0.95094919436E+03  0.10000000000E+02 0. -1.
</event>
<event>
 5    1  0.1503263E-008  0.3705574E+03  0.7957747E-01  0.3493333E+00
         13   -1    0    0    0    0  0.00000000000E+00  0.00000000000E+00  0.14999999963E+04  0.15000000000E+04  0.10566000000E+00 0.  1.
        994   -1    0    0    0    0 -0.00000000000E+00 -0.00000000000E+00  0.11368683772E-12  0.17120000000E+03  0.17120000000E+03 0.  0.
         13    1    1    2    0    0  0.52439289126E+02 -0.57976138570E+01  0.20737432073E+03  0.21398039965E+03  0.10566000000E+00 0.  1.
        994    1    1    2    0    0  0.23235822189E+02 -0.89746762411E+01  0.11122158942E+02  0.17335971466E+03  0.17120000000E+03 0.  0.
        998    1    1    2    0    0 -0.75675111315E+02  0.14772290098E+02  0.12815035166E+04  0.12838598857E+04  0.10000000000E+02 0.  1.
</event>
<event>
 5    1  0.1503263E-008  0.3778713E+03  0.7957747E-01  0.3460480E+00
         13   -1    0    0    0    0  0.00000000000E+00  0.00000000000E+00  0.14999999963E+04  0.15000000000E+04  0.10566000000E+00 0.  1.
        994   -1    0    0    0    0 -0.00000000000E+00 -0.00000000000E+00  0.11368683772E-12  0.17120000000E+03  0.17120000000E+03 0.  0.
         13    1    1    2    0    0 -0.22825936284E+01  0.36272676456E+02  0.15074630646E+03  0.15506571951E+03  0.10566000000E+00 0.  1.
        994    1    1    2    0    0 -0.58423818815E+02  0.31631055229E+01  0.16824586334E+02  0.18170265421E+03  0.17120000000E+03 0.  0.
        998    1    1    2    0    0  0.60706412443E+02 -0.39435781979E+02  0.13324291035E+04  0.13344316263E+04  0.10000000000E+02 0.  1.
</event>
<event>
 5    1  0.1503263E-008  0.3811521E+03  0.7957747E-01  0.3446157E+00
         13   -1    0    0    0    0  0.00000000000E+00  0.00000000000E+00  0.14999999963E+04  0.15000000000E+04  0.10566000000E+00 0. -1.
        994   -1    0    0    0    0 -0.00000000000E+00 -0.00000000000E+00  0.11368683772E-12  0.17120000000E+03  0.17120000000E+03 0.  0.
         13    1    1    2    0    0 -0.12692347785E+02  0.11057580601E+02  0.39930086475E+02  0.43333459947E+02  0.10566000000E+00 0. -1.
        994    1    1    2    0    0  0.59181947746E+01  0.42550999379E+01  0.37296398493E+01  0.17139568582E+03  0.17120000000E+03 0.  0.
        998    1    1    2    0    0  0.67741530103E+01 -0.15312680539E+02  0.14563402700E+04  0.14564708542E+04  0.10000000000E+02 0. -1.
</event>
<event>
 5    1  0.1503263E-008  0.3856108E+03  0.7957747E-01  0.3427086E+00
         13   -1    0    0    0    0  0.00000000000E+00  0.00000000000E+00  0.14999999963E+04  0.15000000000E+04  0.10566000000E+00 0. -1.
        994   -1    0    0    0    0 -0.00000000000E+00 -0.00000000000E+00  0.11368683772E-12  0.17120000000E+03  0.17120000000E+03 0.  0.
         13    1    1    2    0    0 -0.65484455132E+01  0.77332212900E+01  0.40346518180E+02  0.41599730089E+02  0.10566000000E+00 0. -1.
        994    1    1    2    0    0 -0.22228624858E+01 -0.20161147972E+01  0.13567536024E+01  0.17123167527E+03  0.17120000000E+03 0.  0.
        998    1    1    2    0    0  0.87713079990E+01 -0.57171064928E+01  0.14582967245E+04  0.14583685946E+04  0.10000000000E+02 0. -1.
</event>
<event>
 5    1  0.1503263E-008  0.3684270E+03  0.7957747E-01  0.3503152E+00
         13   -1    0    0    0    0  0.00000000000E+00  0.00000000000E+00  0.14999999963E+04  0.15000000000E+04  0.10566000000E+00 0.  1.
        994   -1    0    0    0    0 -0.00000000000E+00 -0.00000000000E+00  0.11368683772E-12  0.17120000000E+03  0.17120000000E+03 0.  0.
         13    1    1    2    0    0  0.99904111092E+02 -0.20200958578E+03  0.73197481155E+03  0.76588239311E+03  0.10566000000E+00 0.  1.
        994    1    1    2    0    0 -0.11239810223E+03  0.21204091103E+03  0.24881191467E+03  0.38576092365E+03  0.17120000000E+03 0.  0.
        998    1    1    2    0    0  0.12493991139E+02 -0.10031325248E+02  0.51921327006E+03  0.51955668324E+03  0.10000000000E+02 0.  0.
</event>
<event>
 5    1  0.1503263E-008  0.3837282E+03  0.7957747E-01  0.3435084E+00
         13   -1    0    0    0    0  0.00000000000E+00  0.00000000000E+00  0.14999999963E+04  0.15000000000E+04  0.10566000000E+00 0.  1.
        994   -1    0    0    0    0 -0.00000000000E+00 -0.00000000000E+00  0.11368683772E-12  0.17120000000E+03  0.17120000000E+03 0.  0.
         13    1    1    2    0    0  0.35370109488E+01  0.16606991104E+02  0.68944821874E+02  0.71004945091E+02  0.10566000000E+00 0.  1.
        994    1    1    2    0    0  0.15904193584E+02  0.81795980220E+00  0.31008213636E+01  0.17196705360E+03  0.17120000000E+03 0.  0.
        998    1    1    2    0    0 -0.19441204533E+02 -0.17424950906E+02  0.14279543530E+04  0.14282280013E+04  0.10000000000E+02 0.  1.
</event>
<event>
 5    1  0.1503263E-008  0.3793444E+03  0.7957747E-01  0.3454018E+00
         13   -1    0    0    0    0  0.00000000000E+00  0.00000000000E+00  0.14999999963E+04  0.15000000000E+04  0.10566000000E+00 0.  1.
        994   -1    0    0    0    0 -0.00000000000E+00 -0.00000000000E+00  0.11368683772E-12  0.17120000000E+03  0.17120000000E+03 0.  0.
         13    1    1    2    0    0  0.66871939465E+01  0.30088528194E+02  0.11974604177E+03  0.12364935817E+03  0.10566000000E+00 0.  1.
        994    1    1    2    0    0  0.57131874887E+01  0.42332124278E+01  0.46338649781E+01  0.17141024854E+03  0.17120000000E+03 0.  0.
        998    1    1    2    0    0 -0.12400381435E+02 -0.34321740621E+02  0.13756200895E+04  0.13761403933E+04  0.10000000000E+02 0.  1.
</event>
<event>
 5    1  0.1503263E-008  0.3813375E+03  0.7957747E-01  0.3445355E+00
         13   -1    0    0    0    0  0.00000000000E+00  0.00000000000E+00  0.14999999963E+04  0.15000000000E+04  0.10566000000E+00 0. -1.
        994   -1    0    0    0    0 -0.00000000000E+00 -0.00000000000E+00  0.11368683772E-12  0.17120000000E+03  0.17120000000E+03 0.  0.
         13    1    1    2    0    0 -0.75285661373E+01 -0.19288938453E+02  0.72281768672E+02  0.75189146165E+02  0.10566000000E+00 0. -1.
        994    1    1    2    0    0 -0.33044523154E+01 -0.22762700818E+02  0.52223295608E+01  0.17281716547E+03  0.17120000000E+03 0.  0.
        998    1    1    2    0    0  0.10833018453E+02  0.42051639271E+02  0.14224958980E+04  0.14231936884E+04  0.10000000000E+02 0. -1.
</event>
<event>
 5    1  0.1503263E-008  0.3818366E+03  0.7957747E-01  0.3443200E+00
         13   -1    0    0    0    0  0.00000000000E+00  0.00000000000E+00  0.14999999963E+04  0.15000000000E+04  0.10566000000E+00 0. -1.
        994   -1    0    0    0    0 -0.00000000000E+00 -0.00000000000E+00  0.11368683772E-12  0.17120000000E+03  0.17120000000E+03 0.  0.
         13    1    1    2    0    0 -0.13935714366E+02  0.84159834593E+01  0.40869034069E+02  0.43992295033E+02  0.10566000000E+00 0. -1.
        994    1    1    2    0    0  0.81847475376E+01  0.14400428862E+01  0.34384000113E+01  0.17143607091E+03  0.17120000000E+03 0.  0.
        998    1    1    2    0    0  0.57509668283E+01 -0.98560263455E+01  0.14556925622E+04  0.14557716341E+04  0.10000000000E+02 0. -1.
</event>
<event>
 5    1  0.1503263E-008  0.3814111E+03  0.7957747E-01  0.3445037E+00
         13   -1    0    0    0    0  0.00000000000E+00  0.00000000000E+00  0.14999999963E+04  0.15000000000E+04  0.10566000000E+00 0.  1.
        994   -1    0    0    0    0 -0.00000000000E+00 -0.00000000000E+00  0.11368683772E-12  0.17120000000E+03  0.17120000000E+03 0.  0.
         13    1    1    2    0    0 -0.57728411682E+01  0.10809058352E+02  0.20597438455E+02  0.23967208276E+02  0.10566000000E+00 0.  1.
        994    1    1    2    0    0  0.14740560484E+02 -0.11071207509E+01  0.41499037149E+01  0.17188708951E+03  0.17120000000E+03 0.  0.
        998    1    1    2    0    0 -0.89677193155E+01 -0.97019376011E+01  0.14752526541E+04  0.14753457022E+04  0.10000000000E+02 0.  1.
</event>
<event>
 5    1  0.1503263E-008  0.3707504E+03  0.7957747E-01  0.3492449E+00
         13   -1    0    0    0    0  0.00000000000E+00  0.00000000000E+00  0.14999999963E+04  0.15000000000E+04  0.10566000000E+00 0.  1.
        994   -1    0    0    0    0 -0.00000000000E+00 -0.00000000000E+00  0.11368683772E-12  0.17120000000E+03  0.17120000000E+03 0.  0.
         13    1    1    2    0    0 -0.86223618163E+01  0.67155109306E+01 -0.55458583640E-02  0.10929519895E+02  0.10566000000E+00 0.  1.
        994    1    1    2    0    0 -0.15623213848E+02 -0.25886965874E+02  0.14547379104E+02  0.17445711809E+03  0.17120000000E+03 0.  0.
        998    1    1    2    0    0  0.24245575665E+02  0.19171454943E+02  0.14854581630E+04  0.14858133620E+04  0.10000000000E+02 0.  1.
</event>
<event>
 5    1  0.1503263E-008  0.3842314E+03  0.7957747E-01  0.3432939E+00
         13   -1    0    0    0    0  0.00000000000E+00  0.00000000000E+00  0.14999999963E+04  0.15000000000E+04  0.10566000000E+00 0.  1.
        994   -1    0    0    0    0 -0.00000000000E+00 -0.00000000000E+00  0.11368683772E-12  0.17120000000E+03  0.17120000000E+03 0.  0.
         13    1    1    2    0    0  0.15941682596E+01 -0.12180640739E+02  0.38288299954E+02  0.40210874880E+02  0.10566000000E+00 0.  1.
        994    1    1    2    0    0  0.13756654456E+01  0.11537993093E+01  0.20228583266E+01  0.17122136451E+03  0.17120000000E+03 0.  0.
        998    1    1    2    0    0 -0.29698337052E+01  0.11026841429E+02  0.14596888380E+04  0.14597677606E+04  0.10000000000E+02 0.  1.
</event>
<event>
 5    1  0.1503263E-008  0.3723162E+03  0.7957747E-01  0.3485314E+00
         13   -1    0    0    0    0  0.00000000000E+00  0.00000000000E+00  0.14999999963E+04  0.15000000000E+04  0.10566000000E+00 0. -1.
        994   -1    0    0    0    0 -0.00000000000E+00 -0.00000000000E+00  0.11368683772E-12  0.17120000000E+03  0.17120000000E+03 0.  0.
         13    1    1    2    0    0  0.60761397008E+02  0.26355741150E+02  0.23758734112E+03  0.24664616008E+03  0.10566000000E+00 0. -1.
        994    1    1    2    0    0 -0.50317254290E+02 -0.33225137742E+02  0.20639792925E+02  0.18267779534E+03  0.17120000000E+03 0.  0.
        998    1    1    2    0    0 -0.10444142718E+02  0.68693965929E+01  0.12417728622E+04  0.12418760446E+04  0.10000000000E+02 0. -1.
</event>
<event>
 5    1  0.1503263E-008  0.3849101E+03  0.7957747E-01  0.3430054E+00
         13   -1    0    0    0    0  0.00000000000E+00  0.00000000000E+00  0.14999999963E+04  0.15000000000E+04  0.10566000000E+00 0. -1.
        994   -1    0    0    0    0 -0.00000000000E+00 -0.00000000000E+00  0.11368683772E-12  0.17120000000E+03  0.17120000000E+03 0.  0.
         13    1    1    2    0    0  0.93062669630E+01  0.98079096618E+01  0.56513815262E+02  0.58108727195E+02  0.10566000000E+00 0. -1.
        994    1    1    2    0    0 -0.37269991281E+01 -0.36250643757E+00  0.17209149066E+01  0.17124959411E+03  0.17120000000E+03 0.  0.
        998    1    1    2    0    0 -0.55792678349E+01 -0.94454032243E+01  0.14417652661E+04  0.14418416787E+04  0.10000000000E+02 0. -1.
</event>
<event>
 5    1  0.1503263E-008  0.3824253E+03  0.7957747E-01  0.3440666E+00
         13   -1    0    0    0    0  0.00000000000E+00  0.00000000000E+00  0.14999999963E+04  0.15000000000E+04  0.10566000000E+00 0.  1.
        994   -1    0    0    0    0 -0.00000000000E+00 -0.00000000000E+00  0.11368683772E-12  0.17120000000E+03  0.17120000000E+03 0.  0.
         13    1    1    2    0    0 -0.49004866584E+01 -0.18155688491E+02  0.58856291220E+02  0.61787684649E+02  0.10566000000E+00 0.  1.
        994    1    1    2    0    0  0.31609570642E+01  0.15142871225E+02  0.37078318314E+01  0.17193744855E+03  0.17120000000E+03 0.  0.
        998    1    1    2    0    0  0.17395295942E+01  0.30128172668E+01  0.14374358732E+04  0.14374748668E+04  0.10000000000E+02 0.  1.
</event>
<event>
 5    1  0.1503263E-008  0.3835888E+03  0.7957747E-01  0.3435680E+00
         13   -1    0    0    0    0  0.00000000000E+00  0.00000000000E+00  0.14999999963E+04  0.15000000000E+04  0.10566000000E+00 0. -1.
        994   -1    0    0    0    0 -0.00000000000E+00 -0.00000000000E+00  0.11368683772E-12  0.17120000000E+03  0.17120000000E+03 0.  0.
         13    1    1    2    0    0 -0.60204343433E+01 -0.81802036533E+01  0.21199898515E+02  0.23507620522E+02  0.10566000000E+00 0. -1.
        994    1    1    2    0    0  0.71559962058E+01  0.55639354386E+01  0.26039194161E+01  0.17145957557E+03  0.17120000000E+03 0.  0.
        998    1    1    2    0    0 -0.11355618625E+01  0.26162682147E+01  0.14761961783E+04  0.14762328039E+04  0.10000000000E+02 0. -1.
</event>
<event>
 5    1  0.1503263E-008  0.3797099E+03  0.7957747E-01  0.3452423E+00
         13   -1    0    0    0    0  0.00000000000E+00  0.00000000000E+00  0.14999999963E+04  0.15000000000E+04  0.10566000000E+00 0. -1.
        994   -1    0    0    0    0 -0.00000000000E+00 -0.00000000000E+00  0.11368683772E-12  0.17120000000E+03  0.17120000000E+03 0.  0.
         13    1    1    2    0    0 -0.12906275440E+02 -0.54452863266E+02  0.29533101903E+03  0.30058627418E+03  0.10566000000E+00 0. -1.
        994    1    1    2    0    0  0.98190224786E+01  0.54944939273E+02  0.14775429336E+02  0.18067405145E+03  0.17120000000E+03 0.  0.
        998    1    1    2    0    0  0.30872529610E+01 -0.49207600750E+00  0.11898935479E+04  0.11899396744E+04  0.10000000000E+02 0.  0.
</event>
<event>
 5    1  0.1503263E-008  0.3815753E+03  0.7957747E-01  0.3444328E+00
         13   -1    0    0    0    0  0.00000000000E+00  0.00000000000E+00  0.14999999963E+04  0.15000000000E+04  0.10566000000E+00 0.  1.
        994   -1    0    0    0    0 -0.00000000000E+00 -0.00000000000E+00  0.11368683772E-12  0.17120000000E+03  0.17120000000E+03 0.  0.
         13    1    1    2    0    0 -0.13771648492E+02  0.14545812715E+01  0.28190254873E+02  0.31408211390E+02  0.10566000000E+00 0.  1.
        994    1    1    2    0    0  0.20421190432E+01  0.94144467041E+01  0.36487278315E+01  0.17150963609E+03  0.17120000000E+03 0.  0.
        998    1    1    2    0    0  0.11729529449E+02 -0.10869027976E+02  0.14681610136E+04  0.14682821525E+04  0.10000000000E+02 0.  1.
</event>
<event>
 5    1  0.1503263E-008  0.3811504E+03  0.7957747E-01  0.3446164E+00
         13   -1    0    0    0    0  0.00000000000E+00  0.00000000000E+00  0.14999999963E+04  0.15000000000E+04  0.10566000000E+00 0. -1.
        994   -1    0    0    0    0 -0.00000000000E+00 -0.00000000000E+00  0.11368683772E-12  0.17120000000E+03  0.17120000000E+03 0.  0.
         13    1    1    2    0    0  0.66980210362E+01 -0.11751168519E+02  0.24491208350E+02  0.27978275462E+02  0.10566000000E+00 0. -1.
        994    1    1    2    0    0 -0.31070433637E+01  0.65508830522E+01  0.37286240117E+01  0.17139402097E+03  0.17120000000E+03 0.  0.
        998    1    1    2    0    0 -0.35909776724E+01  0.52002854672E+01  0.14717801639E+04  0.14718277036E+04  0.10000000000E+02 0. -1.
</event>
<event>
 5    1  0.1503263E-008  0.3828356E+03  0.7957747E-01  0.3438904E+00
         13   -1    0    0    0    0  0.00000000000E+00  0.00000000000E+00  0.14999999963E+04  0.15000000000E+04  0.10566000000E+00 0. -1.
        994   -1    0    0    0    0 -0.00000000000E+00 -0.00000000000E+00  0.11368683772E-12  0.17120000000E+03  0.17120000000E+03 0.  0.
         13    1    1    2    0    0 -0.10696207557E+02 -0.19435003915E+01  0.20854890917E+02  0.23518581782E+02  0.10566000000E+00 0. -1.
        994    1    1    2    0    0  0.53219195841E+01  0.89958422115E+01  0.30704396355E+01  0.17154624917E+03  0.17120000000E+03 0.  0.
        998    1    1    2    0    0  0.53742879728E+01 -0.70523418200E+01  0.14760746657E+04  0.14761351690E+04  0.10000000000E+02 0. -1.
</event>
<event>
 5    1  0.1503263E-008  0.3771586E+03  0.7957747E-01  0.3463625E+00
         13   -1    0    0    0    0  0.00000000000E+00  0.00000000000E+00  0.14999999963E+04  0.15000000000E+04  0.10566000000E+00 0.  1.
        994   -1    0    0    0    0 -0.00000000000E+00 -0.00000000000E+00  0.11368683772E-12  0.17120000000E+03  0.17120000000E+03 0.  0.
         13    1    1    2    0    0 -0.43664754063E+02 -0.15221674862E+02  0.16549812583E+03  0.17183698947E+03  0.10566000000E+00 0.  1.
        994    1    1    2    0    0  0.51926194431E+02  0.60734850083E+01  0.14854202185E+02  0.17961988813E+03  0.17120000000E+03 0.  0.
        998    1    1    2    0    0 -0.82614403677E+01  0.91481898532E+01  0.13196476683E+04  0.13197431224E+04  0.10000000000E+02 0.  1.
</event>
<event>
 5    1  0.1503263E-008  0.3766194E+03  0.7957747E-01  0.3466012E+00
         13   -1    0    0    0    0  0.00000000000E+00  0.00000000000E+00  0.14999999963E+04  0.15000000000E+04  0.10566000000E+00 0. -1.
        994   -1    0    0    0    0 -0.00000000000E+00 -0.00000000000E+00  0.11368683772E-12  0.17120000000E+03  0.17120000000E+03 0.  0.
         13    1    1    2    0    0  0.29463436358E+02 -0.33126343673E+02  0.13001699820E+03  0.13736768074E+03  0.10566000000E+00 0. -1.
        994    1    1    2    0    0 -0.24779594688E+02  0.79908869104E+02  0.29891755791E+02  0.19287926985E+03  0.17120000000E+03 0.  0.
        998    1    1    2    0    0 -0.46838416696E+01 -0.46782525432E+02  0.13400912423E+04  0.13409530494E+04  0.10000000000E+02 0. -1.
</event>
<event>
 5    1  0.1503263E-008  0.3772390E+03  0.7957747E-01  0.3463269E+00
         13   -1    0    0    0    0  0.00000000000E+00  0.00000000000E+00  0.14999999963E+04  0.15000000000E+04  0.10566000000E+00 0. -1.
        994   -1    0    0    0    0 -0.00000000000E+00 -0.00000000000E+00  0.11368683772E-12  0.17120000000E+03  0.17120000000E+03 0.  0.
         13    1    1    2    0    0 -0.51056400510E+01 -0.36045018366E+02  0.11295527854E+03  0.11867694394E+03  0.10566000000E+00 0. -1.
        994    1    1    2    0    0  0.54604804894E+01  0.30206678865E+02  0.87189035143E+01  0.17414855605E+03  0.17120000000E+03 0.  0.
        998    1    1    2    0    0 -0.35484043839E+00  0.58383395006E+01  0.13783258142E+04  0.13783745000E+04  0.10000000000E+02 0. -1.
</event>
<event>
 5    1  0.1503263E-008  0.3733429E+03  0.7957747E-01  0.3480667E+00
         13   -1    0    0    0    0  0.00000000000E+00  0.00000000000E+00  0.14999999963E+04  0.15000000000E+04  0.10566000000E+00 0. -1.
        994   -1    0    0    0    0 -0.00000000000E+00 -0.00000000000E+00  0.11368683772E-12  0.17120000000E+03  0.17120000000E+03 0.  0.
         13    1    1    2    0    0  0.72444684883E+02  0.17407243449E+02  0.30497696850E+03  0.31394618483E+03  0.10566000000E+00 0. -1.
        994    1    1    2    0    0 -0.67711463727E+02 -0.11498732924E+02  0.23832287383E+02  0.18599591689E+03  0.17120000000E+03 0.  0.
        998    1    1    2    0    0 -0.47332211553E+01 -0.59085105248E+01  0.11711907404E+04  0.11712578983E+04  0.10000000000E+02 0. -1.
</event>
<event>
 5    1  0.1503263E-008  0.3839610E+03  0.7957747E-01  0.3434091E+00
         13   -1    0    0    0    0  0.00000000000E+00  0.00000000000E+00  0.14999999963E+04  0.15000000000E+04  0.10566000000E+00 0. -1.
        994   -1    0    0    0    0 -0.00000000000E+00 -0.00000000000E+00  0.11368683772E-12  0.17120000000E+03  0.17120000000E+03 0.  0.
         13    1    1    2    0    0 -0.10097343620E+02  0.17728437710E+01  0.23519267258E+02  0.25656703210E+02  0.10566000000E+00 0. -1.
        994    1    1    2    0    0  0.98868560067E+01 -0.49790584157E+01  0.25513421778E+01  0.17157648525E+03  0.17120000000E+03 0.  0.
        998    1    1    2    0    0  0.21048761355E+00  0.32062146447E+01  0.14739293868E+04  0.14739668115E+04  0.10000000000E+02 0. -1.
</event>
<event>
 5    1  0.1503263E-008  0.3836369E+03  0.7957747E-01  0.3435474E+00
         13   -1    0    0    0    0  0.00000000000E+00  0.00000000000E+00  0.14999999963E+04  0.15000000000E+04  0.10566000000E+00 0.  1.
        994   -1    0    0    0    0 -0.00000000000E+00 -0.00000000000E+00  0.11368683772E-12  0.17120000000E+03  0.17120000000E+03 0.  0.
         13    1    1    2    0    0  0.20705163737E+02 -0.30267991704E+01  0.92033490594E+02  0.94382412947E+02  0.10566000000E+00 0.  1.
        994    1    1    2    0    0 -0.15463230158E+02  0.12222518788E+02  0.35927628313E+01  0.17236835382E+03  0.17120000000E+03 0.  0.
        998    1    1    2    0    0 -0.52419335789E+01 -0.91957196175E+01  0.14043737429E+04  0.14044492332E+04  0.10000000000E+02 0.  1.
</event>
<event>
 5    1  0.1503263E-008  0.3804909E+03  0.7957747E-01  0.3449024E+00
         13   -1    0    0    0    0  0.00000000000E+00  0.00000000000E+00  0.14999999963E+04  0.15000000000E+04  0.10566000000E+00 0. -1.
        994   -1    0    0    0    0 -0.00000000000E+00 -0.00000000000E+00  0.11368683772E-12  0.17120000000E+03  0.17120000000E+03 0.  0.
         13    1    1    2    0    0  0.12550180341E+02  0.19503393268E+02  0.67205023378E+02  0.71094414034E+02  0.10566000000E+00 0. -1.
        994    1    1    2    0    0 -0.15929979769E+02 -0.98175126526E+01  0.50550246400E+01  0.17229376392E+03  0.17120000000E+03 0.  0.
        998    1    1    2    0    0  0.33797994285E+01 -0.96858806158E+01  0.14277399483E+04  0.14278118221E+04  0.10000000000E+02 0. -1.
</event>
<event>
 5    1  0.1503263E-008  0.3806139E+03  0.7957747E-01  0.3448490E+00
         13   -1    0    0    0    0  0.00000000000E+00  0.00000000000E+00  0.14999999963E+04  0.15000000000E+04  0.10566000000E+00 0.  1.
        994   -1    0    0    0    0 -0.00000000000E+00 -0.00000000000E+00  0.11368683772E-12  0.17120000000E+03  0.17120000000E+03 0.  0.
         13    1    1    2    0    0  0.67686424691E+01  0.78104835309E+01  0.12558322592E+02  0.16264710395E+02  0.10566000000E+00 0.  1.
        994    1    1    2    0    0 -0.48807691625E+01  0.51867170586E+01  0.39928181656E+01  0.17139459308E+03  0.17120000000E+03 0.  0.
        998    1    1    2    0    0 -0.18878733066E+01 -0.12997200590E+02  0.14834488555E+04  0.14835406965E+04  0.10000000000E+02 0.  1.
</event>
<event>
 5    1  0.1503263E-008  0.3790799E+03  0.7957747E-01  0.3455175E+00
         13   -1    0    0    0    0  0.00000000000E+00  0.00000000000E+00  0.14999999963E+04  0.15000000000E+04  0.10566000000E+00 0. -1.
        994   -1    0    0    0    0 -0.00000000000E+00 -0.00000000000E+00  0.11368683772E-12  0.17120000000E+03  0.17120000000E+03 0.  0.
         13    1    1    2    0    0  0.70577448632E+01 -0.11928578472E+02  0.19140449731E+02  0.23631985251E+02  0.10566000000E+00 0. -1.
        994    1    1    2    0    0  0.49082231667E+01  0.95034136059E+01  0.49820454093E+01  0.17160613713E+03  0.17120000000E+03 0.  0.
        998    1    1    2    0    0 -0.11965968030E+02  0.24251648665E+01  0.14758775011E+04  0.14759618776E+04  0.10000000000E+02 0. -1.
</event>
<event>
 5    1  0.1503263E-008  0.3812374E+03  0.7957747E-01  0.3445788E+00
         13   -1    0    0    0    0  0.00000000000E+00  0.00000000000E+00  0.14999999963E+04  0.15000000000E+04  0.10566000000E+00 0. -1.
        994   -1    0    0    0    0 -0.00000000000E+00 -0.00000000000E+00  0.11368683772E-12  0.17120000000E+03  0.17120000000E+03 0.  0.
         13    1    1    2    0    0 -0.42177930621E+01  0.10385792414E+02  0.16286036779E+02  0.19771206852E+02  0.10566000000E+00 0. -1.
        994    1    1    2    0    0 -0.21139803217E+01 -0.13248109462E+02  0.41092760431E+01  0.17177400114E+03  0.17120000000E+03 0.  0.
        998    1    1    2    0    0  0.63317733838E+01  0.28623170477E+01  0.14796046835E+04  0.14796547920E+04  0.10000000000E+02 0. -1.
</event>
<event>
 5    1  0.1503263E-008  0.3852265E+03  0.7957747E-01  0.3428712E+00
         13   -1    0    0    0    0  0.00000000000E+00  0.00000000000E+00  0.14999999963E+04  0.15000000000E+04  0.10566000000E+00 0.  1.
        994   -1    0    0    0    0 -0.00000000000E+00 -0.00000000000E+00  0.11368683772E-12  0.17120000000E+03  0.17120000000E+03 0.  0.
         13    1    1    2    0    0  0.10881693796E+02  0.47602944941E+01  0.47306896320E+02  0.48775252609E+02  0.10566000000E+00 0.  1.
        994    1    1    2    0    0 -0.38660292623E+01 -0.35487247035E+01  0.16082363521E+01  0.17128796237E+03  0.17120000000E+03 0.  0.
        998    1    1    2    0    0 -0.70156645335E+01 -0.12115697905E+01  0.14510848636E+04  0.14511367850E+04  0.10000000000E+02 0.  1.
</event>
<event>
 5    1  0.1503263E-008  0.3764447E+03  0.7957747E-01  0.3466787E+00
         13   -1    0    0    0    0  0.00000000000E+00  0.00000000000E+00  0.14999999963E+04  0.15000000000E+04  0.10566000000E+00 0.  1.
        994   -1    0    0    0    0 -0.00000000000E+00 -0.00000000000E+00  0.11368683772E-12  0.17120000000E+03  0.17120000000E+03 0.  0.
         13    1    1    2    0    0 -0.55303348247E+02 -0.60394654321E+02  0.21552487258E+03  0.23055792431E+03  0.10566000000E+00 0.  1.
        994    1    1    2    0    0  0.41797872961E+02  0.46313524779E+02  0.28443711091E+02  0.18441933050E+03  0.17120000000E+03 0.  0.
        998    1    1    2    0    0  0.13505475285E+02  0.14081129542E+02  0.12560314126E+04  0.12562227452E+04  0.10000000000E+02 0.  1.
</event>
<event>
 5    1  0.1503263E-008  0.3807843E+03  0.7957747E-01  0.3447751E+00
         13   -1    0    0    0    0  0.00000000000E+00  0.00000000000E+00  0.14999999963E+04  0.15000000000E+04  0.10566000000E+00 0.  1.
        994   -1    0    0    0    0 -0.00000000000E+00 -0.00000000000E+00  0.11368683772E-12  0.17120000000E+03  0.17120000000E+03 0.  0.
         13    1    1    2    0    0 -0.75932209524E+01  0.29060437722E+02  0.13581735176E+03  0.13909899442E+03  0.10566000000E+00 0.  1.
        994    1    1    2    0    0  0.30947345389E+01  0.29895274644E+01  0.37995147610E+01  0.17129620827E+03  0.17120000000E+03 0.  0.
        998    1    1    2    0    0  0.44984864136E+01 -0.32049965187E+02  0.13603831298E+04  0.13608047973E+04  0.10000000000E+02 0.  1.
</event>
<event>
 5    1  0.1503263E-008  0.3775571E+03  0.7957747E-01  0.3461865E+00
         13   -1    0    0    0    0  0.00000000000E+00  0.00000000000E+00  0.14999999963E+04  0.15000000000E+04  0.10566000000E+00 0. -1.
        994   -1    0    0    0    0 -0.00000000000E+00 -0.00000000000E+00  0.11368683772E-12  0.17120000000E+03  0.17120000000E+03 0.  0.
         13    1    1    2    0    0  0.29739384657E+02  0.92651349429E+01  0.96450008280E+02  0.10135526127E+03  0.10566000000E+00 0. -1.
        994    1    1    2    0    0 -0.41701232660E+01  0.12905915919E+02  0.59916120763E+01  0.17184089155E+03  0.17120000000E+03 0.  0.
        998    1    1    2    0    0 -0.25569261391E+02 -0.22171050862E+02  0.13975583759E+04  0.13980038472E+04  0.10000000000E+02 0. -1.
</event>
<event>
 5    1  0.1503263E-008  0.3855433E+03  0.7957747E-01  0.3427371E+00
         13   -1    0    0    0    0  0.00000000000E+00  0.00000000000E+00  0.14999999963E+04  0.15000000000E+04  0.10566000000E+00 0.  1.
        994   -1    0    0    0    0 -0.00000000000E+00 -0.00000000000E+00  0.11368683772E-12  0.17120000000E+03  0.17120000000E+03 0.  0.
         13    1    1    2    0    0  0.10566590937E+02 -0.24271174423E+01  0.41933812013E+02  0.43312809850E+02  0.10566000000E+00 0.  1.
        994    1    1    2    0    0 -0.13544240146E+02  0.85952438659E+00  0.19655495526E+01  0.17174832927E+03  0.17120000000E+03 0.  0.
        998    1    1    2    0    0  0.29776492098E+01  0.15675930557E+01  0.14561006347E+04  0.14561388609E+04  0.10000000000E+02 0.  1.
</event>
<event>
 5    1  0.1503263E-008  0.3816522E+03  0.7957747E-01  0.3443996E+00
         13   -1    0    0    0    0  0.00000000000E+00  0.00000000000E+00  0.14999999963E+04  0.15000000000E+04  0.10566000000E+00 0.  1.
        994   -1    0    0    0    0 -0.00000000000E+00 -0.00000000000E+00  0.11368683772E-12  0.17120000000E+03  0.17120000000E+03 0.  0.
         13    1    1    2    0    0 -0.92680242405E+01 -0.31779758304E+02  0.24447160883E+02  0.41152450115E+02  0.10566000000E+00 0.  1.
        994    1    1    2    0    0 -0.12902388922E+02  0.35771582448E+02  0.22527823192E+02  0.17681351919E+03  0.17120000000E+03 0.  0.
        998    1    1    2    0    0  0.22170413163E+02 -0.39918241439E+01  0.14530250122E+04  0.14532340307E+04  0.10000000000E+02 0.  1.
</event>
<event>
 5    1  0.1503263E-008  0.3739853E+03  0.7957747E-01  0.3477773E+00
         13   -1    0    0    0    0  0.00000000000E+00  0.00000000000E+00  0.14999999963E+04  0.15000000000E+04  0.10566000000E+00 0. -1.
        994   -1    0    0    0    0 -0.00000000000E+00 -0.00000000000E+00  0.11368683772E-12  0.17120000000E+03  0.17120000000E+03 0.  0.
         13    1    1    2    0    0 -0.37635474484E+02  0.42444416124E+02  0.23271112245E+03  0.23952543722E+03  0.10566000000E+00 0. -1.
        994    1    1    2    0    0  0.14050956090E+02 -0.20530604079E+02  0.93147034404E+01  0.17324877711E+03  0.17120000000E+03 0.  0.
        998    1    1    2    0    0  0.23584518395E+02 -0.21913812045E+02  0.12579741704E+04  0.12584257857E+04  0.10000000000E+02 0. -1.
</event>
<event>
 5    1  0.1503263E-008  0.3846632E+03  0.7957747E-01  0.3431102E+00
         13   -1    0    0    0    0  0.00000000000E+00  0.00000000000E+00  0.14999999963E+04  0.15000000000E+04  0.10566000000E+00 0.  1.
        994   -1    0    0    0    0 -0.00000000000E+00 -0.00000000000E+00  0.11368683772E-12  0.17120000000E+03  0.17120000000E+03 0.  0.
         13    1    1    2    0    0  0.14986832576E+02  0.14883966918E+01  0.64502473423E+02  0.66237457055E+02  0.10566000000E+00 0.  1.
        994    1    1    2    0    0 -0.63746804950E+01  0.47761152013E+01  0.20063629192E+01  0.17139694665E+03  0.17120000000E+03 0.  0.
        998    1    1    2    0    0 -0.86121520813E+01 -0.62645118931E+01  0.14334911599E+04  0.14335655963E+04  0.10000000000E+02 0.  1.
</event>
<event>
 5    1  0.1503263E-008  0.3776835E+03  0.7957747E-01  0.3461307E+00
         13   -1    0    0    0    0  0.00000000000E+00  0.00000000000E+00  0.14999999963E+04  0.15000000000E+04  0.10566000000E+00 0.  1.
        994   -1    0    0    0    0 -0.00000000000E+00 -0.00000000000E+00  0.11368683772E-12  0.17120000000E+03  0.17120000000E+03 0.  0.
         13    1    1    2    0    0 -0.16961203690E+02 -0.25810249966E+02  0.84728638122E+02  0.90182064270E+02  0.10566000000E+00 0.  1.
        994    1    1    2    0    0  0.16912877665E+02  0.22170689408E+02  0.79309961744E+01  0.17363733930E+03  0.17120000000E+03 0.  0.
        998    1    1    2    0    0  0.48326025447E-01  0.36395605583E+01  0.14073403620E+04  0.14073805964E+04  0.10000000000E+02 0.  1.
</event>
<event>
 5    1  0.1503263E-008  0.3747570E+03  0.7957747E-01  0.3474310E+00
         13   -1    0    0    0    0  0.00000000000E+00  0.00000000000E+00  0.14999999963E+04  0.15000000000E+04  0.10566000000E+00 0. -1.
        994   -1    0    0    0    0 -0.00000000000E+00 -0.00000000000E+00  0.11368683772E-12  0.17120000000E+03  0.17120000000E+03 0.  0.
         13    1    1    2    0    0 -0.16759796683E+02 -0.64928954520E+02  0.35286768141E+03  0.35918278309E+03  0.10566000000E+00 0. -1.
        994    1    1    2    0    0  0.18106509805E+02  0.26135062745E+02  0.10250309896E+02  0.17442877072E+03  0.17120000000E+03 0.  0.
        998    1    1    2    0    0 -0.13467131217E+01  0.38793891774E+02  0.11368820050E+04  0.11375884462E+04  0.10000000000E+02 0. -1.
</event>
<event>
 5    1  0.1503263E-008  0.3788776E+03  0.7957747E-01  0.3456060E+00
         13   -1    0    0    0    0  0.00000000000E+00  0.00000000000E+00  0.14999999963E+04  0.15000000000E+04  0.10566000000E+00 0.  1.
        994   -1    0    0    0    0 -0.00000000000E+00 -0.00000000000E+00  0.11368683772E-12  0.17120000000E+03  0.17120000000E+03 0.  0.
         13    1    1    2    0    0 -0.15231853316E+02 -0.24700371413E+01  0.23099683337E+02  0.27779794334E+02  0.10566000000E+00 0.  1.
        994    1    1    2    0    0  0.14801893325E+02  0.27289757699E+01  0.54612838071E+01  0.17194711098E+03  0.17120000000E+03 0.  0.
        998    1    1    2    0    0  0.42995999070E+00 -0.25893862868E+00  0.14714390291E+04  0.14714730947E+04  0.10000000000E+02 0.  0.
</event>
<event>
 5    1  0.1503263E-008  0.3773378E+03  0.7957747E-01  0.3462833E+00
         13   -1    0    0    0    0  0.00000000000E+00  0.00000000000E+00  0.14999999963E+04  0.15000000000E+04  0.10566000000E+00 0.  1.
        994   -1    0    0    0    0 -0.00000000000E+00 -0.00000000000E+00  0.11368683772E-12  0.17120000000E+03  0.17120000000E+03 0.  0.
         13    1    1    2    0    0 -0.11802537364E+02 -0.14156389149E+00  0.10332113625E+02  0.15687054043E+02  0.10566000000E+00 0.  1.
        994    1    1    2    0    0  0.50280727892E+01  0.54057658710E+00  0.55693403027E+01  0.17136519860E+03  0.17120000000E+03 0.  0.
        998    1    1    2    0    0  0.67744645751E+01 -0.39901269561E+00  0.14840985424E+04  0.14841477474E+04  0.10000000000E+02 0.  1.
</event>
<event>
 5    1  0.1503263E-008  0.3833269E+03  0.7957747E-01  0.3436799E+00
         13   -1    0    0    0    0  0.00000000000E+00  0.00000000000E+00  0.14999999963E+04  0.15000000000E+04  0.10566000000E+00 0.  1.
        994   -1    0    0    0    0 -0.00000000000E+00 -0.00000000000E+00  0.11368683772E-12  0.17120000000E+03  0.17120000000E+03 0.  0.
         13    1    1    2    0    0 -0.20766866737E+01 -0.22289491060E+02  0.10726868773E+03  0.10957972700E+03  0.10566000000E+00 0.  1.
        994    1    1    2    0    0  0.11790492803E+01  0.50308560498E+01  0.25513767276E+01  0.17129696201E+03  0.17120000000E+03 0.  0.
        998    1    1    2    0    0  0.89763739334E+00  0.17258635011E+02  0.13901799318E+04  0.13903233110E+04  0.10000000000E+02 0.  1.
</event>
<event>
 5    1  0.1503263E-008  0.3857834E+03  0.7957747E-01  0.3426357E+00
         13   -1    0    0    0    0  0.00000000000E+00  0.00000000000E+00  0.14999999963E+04  0.15000000000E+04  0.10566000000E+00 0. -1.
        994   -1    0    0    0    0 -0.00000000000E+00 -0.00000000000E+00  0.11368683772E-12  0.17120000000E+03  0.17120000000E+03 0.  0.
         13    1    1    2    0    0 -0.13106624731E+02 -0.18138259306E+01  0.75449815267E+02  0.76601301322E+02  0.10566000000E+00 0. -1.
        994    1    1    2    0    0  0.14120625003E+01 -0.15915834585E+01  0.12565598731E+01  0.17121783202E+03  0.17120000000E+03 0.  0.
        998    1    1    2    0    0  0.11694562231E+02  0.34054093892E+01  0.14232936211E+04  0.14233808667E+04  0.10000000000E+02 0. -1.
</event>
<event>
 5    1  0.1531738E-008  0.3848031E+03  0.7957747E-01  0.3430508E+00
         13   -1    0    0    0    0  0.00000000000E+00  0.00000000000E+00  0.14999999963E+04  0.15000000000E+04  0.10566000000E+00 0.  1.
        994   -1    0    0    0    0 -0.00000000000E+00 -0.00000000000E+00  0.11368683772E-12  0.17120000000E+03  0.17120000000E+03 0.  0.
         13    1    1    2    0    0 -0.12914153856E+02  0.16659689148E+02  0.12058951287E+03  0.12241798230E+03  0.10566000000E+00 0.  1.
        994    1    1    2    0    0  0.16744905695E+02 -0.13364264550E+02  0.32398067953E+01  0.17256573177E+03  0.17120000000E+03 0.  0.
        998    1    1    2    0    0 -0.38307518391E+01 -0.32954245973E+01  0.13761706766E+04  0.13762162859E+04  0.10000000000E+02 0.  0.
</event>
<event>
 5    1  0.1503263E-008  0.3699705E+03  0.7957747E-01  0.3496026E+00
         13   -1    0    0    0    0  0.00000000000E+00  0.00000000000E+00  0.14999999963E+04  0.15000000000E+04  0.10566000000E+00 0. -1.
        994   -1    0    0    0    0 -0.00000000000E+00 -0.00000000000E+00  0.11368683772E-12  0.17120000000E+03  0.17120000000E+03 0.  0.
         13    1    1    2    0    0  0.17337975742E+02  0.23286757308E+02  0.43847539046E+02  0.52587986396E+02  0.10566000000E+00 0. -1.
        994    1    1    2    0    0  0.47125629684E+01 -0.55521782784E+01  0.94679113568E+01  0.17161618886E+03  0.17120000000E+03 0.  0.
        998    1    1    2    0    0 -0.22050538711E+02 -0.17734579029E+02  0.14466845459E+04  0.14469958247E+04  0.10000000000E+02 0. -1.
</event>
<event>
 5    1  0.1503263E-008  0.3773887E+03  0.7957747E-01  0.3462608E+00
         13   -1    0    0    0    0  0.00000000000E+00  0.00000000000E+00  0.14999999963E+04  0.15000000000E+04  0.10566000000E+00 0.  1.
        994   -1    0    0    0    0 -0.00000000000E+00 -0.00000000000E+00  0.11368683772E-12  0.17120000000E+03  0.17120000000E+03 0.  0.
         13    1    1    2    0    0  0.12270904570E+02 -0.53428627325E+01  0.13718839954E+02  0.19166090234E+02  0.10566000000E+00 0.  1.
        994    1    1    2    0    0 -0.23800217660E+02 -0.86028416984E+01  0.76198253390E+01  0.17322806061E+03  0.17120000000E+03 0.  0.
        998    1    1    2    0    0  0.11529313090E+02  0.13945704431E+02  0.14786613310E+04  0.14788058492E+04  0.10000000000E+02 0.  1.
</event>
<event>
 5    1  0.1503263E-008  0.3802378E+03  0.7957747E-01  0.3450124E+00
         13   -1    0    0    0    0  0.00000000000E+00  0.00000000000E+00  0.14999999963E+04  0.15000000000E+04  0.10566000000E+00 0. -1.
        994   -1    0    0    0    0 -0.00000000000E+00 -0.00000000000E+00  0.11368683772E-12  0.17120000000E+03  0.17120000000E+03 0.  0.
         13    1    1    2    0    0  0.36481055747E+02  0.36116764384E+02  0.27001855878E+03  0.27485509154E+03  0.10566000000E+00 0. -1.
        994    1    1    2    0    0 -0.39764387386E+02 -0.33033878420E+02  0.12992045133E+02  0.17930609824E+03  0.17120000000E+03 0.  0.
        998    1    1    2    0    0  0.32833316395E+01 -0.30828859638E+01  0.12169893924E+04  0.12170388102E+04  0.10000000000E+02 0.  0.
</event>
<event>
 5    1  0.1503263E-008  0.3806658E+03  0.7957747E-01  0.3448265E+00
         13   -1    0    0    0    0  0.00000000000E+00  0.00000000000E+00  0.14999999963E+04  0.15000000000E+04  0.10566000000E+00 0.  1.
        994   -1    0    0    0    0 -0.00000000000E+00 -0.00000000000E+00  0.11368683772E-12  0.17120000000E+03  0.17120000000E+03 0.  0.
         13    1    1    2    0    0 -0.22925506311E+01  0.20647045258E+02  0.56286206973E+02  0.59997537663E+02  0.10566000000E+00 0.  1.
        994    1    1    2    0    0 -0.65727654686E+00 -0.99150094378E+01  0.41268639682E+01  0.17153778135E+03  0.17120000000E+03 0.  0.
        998    1    1    2    0    0  0.29498271779E+01 -0.10732035820E+02  0.14395869253E+04  0.14396646810E+04  0.10000000000E+02 0.  1.
</event>
<event>
 5    1  0.1503263E-008  0.3758901E+03  0.7957747E-01  0.3469251E+00
         13   -1    0    0    0    0  0.00000000000E+00  0.00000000000E+00  0.14999999963E+04  0.15000000000E+04  0.10566000000E+00 0.  1.
        994   -1    0    0    0    0 -0.00000000000E+00 -0.00000000000E+00  0.11368683772E-12  0.17120000000E+03  0.17120000000E+03 0.  0.
         13    1    1    2    0    0 -0.14707270247E+02 -0.40037260096E+02  0.15955236340E+03  0.16515524159E+03  0.10566000000E+00 0.  1.
        994    1    1    2    0    0  0.69824375048E+01  0.45905239337E+01  0.64590308343E+01  0.17152546873E+03  0.17120000000E+03 0.  0.
        998    1    1    2    0    0  0.77248327426E+01  0.35446736162E+02  0.13339886020E+04  0.13345192897E+04  0.10000000000E+02 0.  1.
</event>
<event>
 5    1  0.1503263E-008  0.3850827E+03  0.7957747E-01  0.3429321E+00
         13   -1    0    0    0    0  0.00000000000E+00  0.00000000000E+00  0.14999999963E+04  0.15000000000E+04  0.10566000000E+00 0.  1.
        994   -1    0    0    0    0 -0.00000000000E+00 -0.00000000000E+00  0.11368683772E-12  0.17120000000E+03  0.17120000000E+03 0.  0.
         13    1    1    2    0    0  0.99982822719E+01 -0.38845564426E+00  0.31345825439E+02  0.32904231987E+02  0.10566000000E+00 0.  1.
        994    1    1    2    0    0 -0.67420989341E+01 -0.30930417673E+01  0.17699966690E+01  0.17136976307E+03  0.17120000000E+03 0.  0.
        998    1    1    2    0    0 -0.32561833378E+01  0.34814974116E+01  0.14668841742E+04  0.14669260049E+04  0.10000000000E+02 0.  1.
</event>
<event>
 5    1  0.1503263E-008  0.3816320E+03  0.7957747E-01  0.3444083E+00
         13   -1    0    0    0    0  0.00000000000E+00  0.00000000000E+00  0.14999999963E+04  0.15000000000E+04  0.10566000000E+00 0.  1.
        994   -1    0    0    0    0 -0.00000000000E+00 -0.00000000000E+00  0.11368683772E-12  0.17120000000E+03  0.17120000000E+03 0.  0.
         13    1    1    2    0    0  0.17345127062E+02 -0.15484952625E+02  0.70458847184E+02  0.74196344257E+02  0.10566000000E+00 0.  1.
        994    1    1    2    0    0 -0.44110963225E+02  0.15260987342E+02  0.10589777182E+02  0.17776461457E+03  0.17120000000E+03 0.  0.
        998    1    1    2    0    0  0.26765836163E+02  0.22396528253E+00  0.14189513719E+04  0.14192390412E+04  0.10000000000E+02 0.  1.
</event>
<event>
 5    1  0.1503263E-008  0.3748385E+03  0.7957747E-01  0.3473946E+00
         13   -1    0    0    0    0  0.00000000000E+00  0.00000000000E+00  0.14999999963E+04  0.15000000000E+04  0.10566000000E+00 0.  1.
        994   -1    0    0    0    0 -0.00000000000E+00 -0.00000000000E+00  0.11368683772E-12  0.17120000000E+03  0.17120000000E+03 0.  0.
         13    1    1    2    0    0  0.23565970904E+02 -0.20816534911E+02  0.67118026909E+02  0.74118309549E+02  0.10566000000E+00 0.  1.
        994    1    1    2    0    0 -0.30231503854E+02  0.17528566734E+02  0.10926333650E+02  0.17507146896E+03  0.17120000000E+03 0.  0.
        998    1    1    2    0    0  0.66655329502E+01  0.32879681768E+01  0.14219556357E+04  0.14220102215E+04  0.10000000000E+02 0.  1.
</event>
<event>
 5    1  0.1503263E-008  0.3836097E+03  0.7957747E-01  0.3435590E+00
         13   -1    0    0    0    0  0.00000000000E+00  0.00000000000E+00  0.14999999963E+04  0.15000000000E+04  0.10566000000E+00 0.  1.
        994   -1    0    0    0    0 -0.00000000000E+00 -0.00000000000E+00  0.11368683772E-12  0.17120000000E+03  0.17120000000E+03 0.  0.
         13    1    1    2    0    0 -0.12149925897E+02  0.12670942105E+02  0.68882877846E+02  0.71084706495E+02  0.10566000000E+00 0.  1.
        994    1    1    2    0    0  0.21403667360E+01 -0.22935341204E+01  0.23544923321E+01  0.17124492723E+03  0.17120000000E+03 0.  0.
        998    1    1    2    0    0  0.10009559161E+02 -0.10377407985E+02  0.14287626261E+04  0.14288703663E+04  0.10000000000E+02 0.  1.
</event>
<event>
 5    1  0.1503263E-008  0.3854591E+03  0.7957747E-01  0.3427728E+00
         13   -1    0    0    0    0  0.00000000000E+00  0.00000000000E+00  0.14999999963E+04  0.15000000000E+04  0.10566000000E+00 0.  1.
        994   -1    0    0    0    0 -0.00000000000E+00 -0.00000000000E+00  0.11368683772E-12  0.17120000000E+03  0.17120000000E+03 0.  0.
         13    1    1    2    0    0 -0.83226134731E+01 -0.67539730349E+01  0.51424844237E+02  0.52530065826E+02  0.10566000000E+00 0.  1.
        994    1    1    2    0    0 -0.24765785104E+02 -0.14320317544E+02  0.40944894064E+01  0.17362206211E+03  0.17120000000E+03 0.  0.
        998    1    1    2    0    0  0.33088398577E+02  0.21074290578E+02  0.14444806626E+04  0.14450478721E+04  0.10000000000E+02 0.  1.
</event>
<event>
 5    1  0.1503263E-008  0.3841356E+03  0.7957747E-01  0.3433347E+00
         13   -1    0    0    0    0  0.00000000000E+00  0.00000000000E+00  0.14999999963E+04  0.15000000000E+04  0.10566000000E+00 0. -1.
        994   -1    0    0    0    0 -0.00000000000E+00 -0.00000000000E+00  0.11368683772E-12  0.17120000000E+03  0.17120000000E+03 0.  0.
         13    1    1    2    0    0  0.19039432172E+00  0.10836126177E+02  0.28859718783E+02  0.30827786376E+02  0.10566000000E+00 0. -1.
        994    1    1    2    0    0 -0.34418690908E+01  0.79537706441E+00  0.21010750672E+01  0.17124933169E+03  0.17120000000E+03 0.  0.
        998    1    1    2    0    0  0.32514747690E+01 -0.11631503242E+02  0.14690392024E+04  0.14691228819E+04  0.10000000000E+02 0. -1.
</event>
<event>
 5    1  0.1503263E-008  0.3836320E+03  0.7957747E-01  0.3435495E+00
         13   -1    0    0    0    0  0.00000000000E+00  0.00000000000E+00  0.14999999963E+04  0.15000000000E+04  0.10566000000E+00 0. -1.
        994   -1    0    0    0    0 -0.00000000000E+00 -0.00000000000E+00  0.11368683772E-12  0.17120000000E+03  0.17120000000E+03 0.  0.
         13    1    1    2    0    0 -0.74133614129E+01 -0.90328686571E+01  0.31064470364E+02  0.33189804559E+02  0.10566000000E+00 0. -1.
        994    1    1    2    0    0 -0.12488688937E+02 -0.41677523932E+01  0.28836451159E+01  0.17172970890E+03  0.17120000000E+03 0.  0.
        998    1    1    2    0    0  0.19902050350E+02  0.13200621050E+02  0.14660518808E+04  0.14662804865E+04  0.10000000000E+02 0. -1.
</event>
<event>
 5    1  0.1599606E-008  0.3859197E+03  0.7957747E-01  0.3425781E+00
         13   -1    0    0    0    0  0.00000000000E+00  0.00000000000E+00  0.14999999963E+04  0.15000000000E+04  0.10566000000E+00 0.  1.
        994   -1    0    0    0    0 -0.00000000000E+00 -0.00000000000E+00  0.11368683772E-12  0.17120000000E+03  0.17120000000E+03 0.  0.
         13    1    1    2    0    0 -0.10324788893E+02  0.40553620976E+01  0.51432123301E+02  0.52614842950E+02  0.10566000000E+00 0.  1.
        994    1    1    2    0    0  0.11370941480E+02 -0.35111016531E+01  0.16387049714E+01  0.17162095297E+03  0.17120000000E+03 0.  0.
        998    1    1    2    0    0 -0.10461525870E+01 -0.54426044454E+00  0.14469291680E+04  0.14469642041E+04  0.10000000000E+02 0.  1.
</event>
<event>
 5    1  0.1503263E-008  0.3688877E+03  0.7957747E-01  0.3501019E+00
         13   -1    0    0    0    0  0.00000000000E+00  0.00000000000E+00  0.14999999963E+04  0.15000000000E+04  0.10566000000E+00 0.  1.
        994   -1    0    0    0    0 -0.00000000000E+00 -0.00000000000E+00  0.11368683772E-12  0.17120000000E+03  0.17120000000E+03 0.  0.
         13    1    1    2    0    0  0.28419926634E+02 -0.25940512704E+02  0.64477432349E+02  0.75086302849E+02  0.10566000000E+00 0.  1.
        994    1    1    2    0    0 -0.32907521232E+02  0.25033146546E+02  0.16328948409E+02  0.17687746588E+03  0.17120000000E+03 0.  0.
        998    1    1    2    0    0  0.44875945987E+01  0.90736615838E+00  0.14191936155E+04  0.14192362313E+04  0.10000000000E+02 0.  1.
</event>
<event>
 5    1  0.1503263E-008  0.3836108E+03  0.7957747E-01  0.3435585E+00
         13   -1    0    0    0    0  0.00000000000E+00  0.00000000000E+00  0.14999999963E+04  0.15000000000E+04  0.10566000000E+00 0.  1.
        994   -1    0    0    0    0 -0.00000000000E+00 -0.00000000000E+00  0.11368683772E-12  0.17120000000E+03  0.17120000000E+03 0.  0.
         13    1    1    2    0    0  0.13130668065E+02  0.20567939039E+01  0.38505233168E+02  0.40734616610E+02  0.10566000000E+00 0.  1.
        994    1    1    2    0    0 -0.34535766952E+01  0.86596574792E+01  0.26086046584E+01  0.17147350139E+03  0.17120000000E+03 0.  0.
        998    1    1    2    0    0 -0.96770913698E+01 -0.10716451383E+02  0.14588861585E+04  0.14589918820E+04  0.10000000000E+02 0.  1.
</event>
<event>
 5    1  0.1503263E-008  0.3854498E+03  0.7957747E-01  0.3427767E+00
         13   -1    0    0    0    0  0.00000000000E+00  0.00000000000E+00  0.14999999963E+04  0.15000000000E+04  0.10566000000E+00 0. -1.
        994   -1    0    0    0    0 -0.00000000000E+00 -0.00000000000E+00  0.11368683772E-12  0.17120000000E+03  0.17120000000E+03 0.  0.
         13    1    1    2    0    0 -0.10875427599E+02 -0.11338625792E+02  0.92246215103E+02  0.93574647876E+02  0.10566000000E+00 0. -1.
        994    1    1    2    0    0  0.29088550133E+01  0.35307944776E+01  0.14756900354E+01  0.17126746804E+03  0.17120000000E+03 0.  0.
        998    1    1    2    0    0  0.79665725857E+01  0.78078313141E+01  0.14062780911E+04  0.14063578841E+04  0.10000000000E+02 0. -1.
</event>
<event>
 5    1  0.1503263E-008  0.3859108E+03  0.7957747E-01  0.3425818E+00
         13   -1    0    0    0    0  0.00000000000E+00  0.00000000000E+00  0.14999999963E+04  0.15000000000E+04  0.10566000000E+00 0.  1.
        994   -1    0    0    0    0 -0.00000000000E+00 -0.00000000000E+00  0.11368683772E-12  0.17120000000E+03  0.17120000000E+03 0.  0.
         13    1    1    2    0    0  0.85668761692E+01  0.56136387489E+01  0.46974850486E+02  0.48078602824E+02  0.10566000000E+00 0.  1.
        994    1    1    2    0    0  0.90445846031E+01 -0.14388158038E+02  0.21262167136E+01  0.17205459715E+03  0.17120000000E+03 0.  0.
        998    1    1    2    0    0 -0.17611460772E+02  0.87745192889E+01  0.14508989291E+04  0.14510668000E+04  0.10000000000E+02 0.  1.
</event>
<event>
 5    1  0.1503263E-008  0.3758547E+03  0.7957747E-01  0.3469409E+00
         13   -1    0    0    0    0  0.00000000000E+00  0.00000000000E+00  0.14999999963E+04  0.15000000000E+04  0.10566000000E+00 0. -1.
        994   -1    0    0    0    0 -0.00000000000E+00 -0.00000000000E+00  0.11368683772E-12  0.17120000000E+03  0.17120000000E+03 0.  0.
         13    1    1    2    0    0 -0.30533856605E+00  0.11940893645E+02 -0.13629122776E+01  0.12022764515E+02  0.10566000000E+00 0. -1.
        994    1    1    2    0    0  0.20836155424E+02  0.52561705802E+01  0.15718556860E+02  0.17325785908E+03  0.17120000000E+03 0.  0.
        998    1    1    2    0    0 -0.20530816858E+02 -0.17197064225E+02  0.14856443517E+04  0.14859193764E+04  0.10000000000E+02 0. -1.
</event>
<event>
 5    1  0.1503263E-008  0.3818330E+03  0.7957747E-01  0.3443216E+00
         13   -1    0    0    0    0  0.00000000000E+00  0.00000000000E+00  0.14999999963E+04  0.15000000000E+04  0.10566000000E+00 0.  1.
        994   -1    0    0    0    0 -0.00000000000E+00 -0.00000000000E+00  0.11368683772E-12  0.17120000000E+03  0.17120000000E+03 0.  0.
         13    1    1    2    0    0  0.24617030343E+01  0.23521926406E+02  0.78818204921E+02  0.82290106299E+02  0.10566000000E+00 0.  1.
        994    1    1    2    0    0 -0.76728381018E+01 -0.31507555295E+02  0.67128382333E+01  0.17437345177E+03  0.17120000000E+03 0.  0.
        998    1    1    2    0    0  0.52111350676E+01  0.79856288888E+01  0.14144689531E+04  0.14145364419E+04  0.10000000000E+02 0.  1.
</event>
<event>
 5    1  0.1503263E-008  0.3830793E+03  0.7957747E-01  0.3437859E+00
         13   -1    0    0    0    0  0.00000000000E+00  0.00000000000E+00  0.14999999963E+04  0.15000000000E+04  0.10566000000E+00 0. -1.
        994   -1    0    0    0    0 -0.00000000000E+00 -0.00000000000E+00  0.11368683772E-12  0.17120000000E+03  0.17120000000E+03 0.  0.
         13    1    1    2    0    0  0.77046597667E+01 -0.66205661751E+01  0.19232088337E+02  0.21750357800E+02  0.10566000000E+00 0. -1.
        994    1    1    2    0    0 -0.60090154750E+01 -0.25822902569E+01  0.27283244191E+01  0.17134660850E+03  0.17120000000E+03 0.  0.
        998    1    1    2    0    0 -0.16956442917E+01  0.92028564320E+01  0.14780395835E+04  0.14781030337E+04  0.10000000000E+02 0. -1.
</event>
<event>
 5    1  0.1503263E-008  0.3772317E+03  0.7957747E-01  0.3463302E+00
         13   -1    0    0    0    0  0.00000000000E+00  0.00000000000E+00  0.14999999963E+04  0.15000000000E+04  0.10566000000E+00 0. -1.
        994   -1    0    0    0    0 -0.00000000000E+00 -0.00000000000E+00  0.11368683772E-12  0.17120000000E+03  0.17120000000E+03 0.  0.
         13    1    1    2    0    0 -0.18982960315E+02  0.10609623627E+02  0.41453038079E+02  0.46811135703E+02  0.10566000000E+00 0. -1.
        994    1    1    2    0    0  0.58648964112E+01 -0.42357454497E+01  0.57137357852E+01  0.17144802514E+03  0.17120000000E+03 0.  0.
        998    1    1    2    0    0  0.13118063904E+02 -0.63738781774E+01  0.14528332224E+04  0.14529408392E+04  0.10000000000E+02 0. -1.
</event>
<event>
 5    1  0.1503263E-008  0.3822963E+03  0.7957747E-01  0.3441220E+00
         13   -1    0    0    0    0  0.00000000000E+00  0.00000000000E+00  0.14999999963E+04  0.15000000000E+04  0.10566000000E+00 0. -1.
        994   -1    0    0    0    0 -0.00000000000E+00 -0.00000000000E+00  0.11368683772E-12  0.17120000000E+03  0.17120000000E+03 0.  0.
         13    1    1    2    0    0 -0.31376690880E+01  0.12393882069E+02  0.26889957515E+02  0.29774725175E+02  0.10566000000E+00 0. -1.
        994    1    1    2    0    0 -0.11885686386E+01 -0.28908525167E+01  0.30108538116E+01  0.17125499982E+03  0.17120000000E+03 0.  0.
        998    1    1    2    0    0  0.43262377266E+01 -0.95030295522E+01  0.14700991850E+04  0.14701702750E+04  0.10000000000E+02 0. -1.
</event>
<event>
 5    1  0.1503263E-008  0.3830643E+03  0.7957747E-01  0.3437924E+00
         13   -1    0    0    0    0  0.00000000000E+00  0.00000000000E+00  0.14999999963E+04  0.15000000000E+04  0.10566000000E+00 0. -1.
        994   -1    0    0    0    0 -0.00000000000E+00 -0.00000000000E+00  0.11368683772E-12  0.17120000000E+03  0.17120000000E+03 0.  0.
         13    1    1    2    0    0 -0.89346281866E+01 -0.11167874911E+02  0.38406879799E+02  0.40983516086E+02  0.10566000000E+00 0. -1.
        994    1    1    2    0    0  0.88241481306E+01  0.69003233558E+01  0.30096354669E+01  0.17159247640E+03  0.17120000000E+03 0.  0.
        998    1    1    2    0    0  0.11048005601E+00  0.42675515550E+01  0.14585834810E+04  0.14586240075E+04  0.10000000000E+02 0. -1.
</event>
<event>
 5    1  0.1503263E-008  0.3838514E+03  0.7957747E-01  0.3434558E+00
         13   -1    0    0    0    0  0.00000000000E+00  0.00000000000E+00  0.14999999963E+04  0.15000000000E+04  0.10566000000E+00 0.  1.
        994   -1    0    0    0    0 -0.00000000000E+00 -0.00000000000E+00  0.11368683772E-12  0.17120000000E+03  0.17120000000E+03 0.  0.
         13    1    1    2    0    0  0.10831570931E+02  0.11153126753E+02  0.58129954824E+02  0.60173233061E+02  0.10566000000E+00 0.  1.
        994    1    1    2    0    0  0.12299555128E+01  0.20706571103E+01  0.22205961352E+01  0.17123133901E+03  0.17120000000E+03 0.  0.
        998    1    1    2    0    0 -0.12061526444E+02 -0.13223783863E+02  0.14396494453E+04  0.14397954279E+04  0.10000000000E+02 0.  1.
</event>
<event>
 5    1  0.1503263E-008  0.3853935E+03  0.7957747E-01  0.3428005E+00
         13   -1    0    0    0    0  0.00000000000E+00  0.00000000000E+00  0.14999999963E+04  0.15000000000E+04  0.10566000000E+00 0.  1.
        994   -1    0    0    0    0 -0.00000000000E+00 -0.00000000000E+00  0.11368683772E-12  0.17120000000E+03  0.17120000000E+03 0.  0.
         13    1    1    2    0    0  0.12068418119E+02  0.18715561086E+01  0.54879802430E+02  0.56222356024E+02  0.10566000000E+00 0.  1.
        994    1    1    2    0    0 -0.32703404233E+00  0.21126083842E+01  0.14499109519E+01  0.17121948577E+03  0.17120000000E+03 0.  0.
        998    1    1    2    0    0 -0.11741384076E+02 -0.39841644929E+01  0.14436702829E+04  0.14437581582E+04  0.10000000000E+02 0.  1.
</event>
<event>
 5    1  0.1503263E-008  0.3804306E+03  0.7957747E-01  0.3449286E+00
         13   -1    0    0    0    0  0.00000000000E+00  0.00000000000E+00  0.14999999963E+04  0.15000000000E+04  0.10566000000E+00 0.  1.
        994   -1    0    0    0    0 -0.00000000000E+00 -0.00000000000E+00  0.11368683772E-12  0.17120000000E+03  0.17120000000E+03 0.  0.
         13    1    1    2    0    0  0.11724784212E+03  0.12132065975E+02  0.32930403826E+03  0.34976478423E+03  0.10566000000E+00 0.  1.
        994    1    1    2    0    0 -0.11144632607E+03 -0.46490691593E+01  0.63240490194E+02  0.21389412577E+03  0.17120000000E+03 0.  0.
        998    1    1    2    0    0 -0.58015160433E+01 -0.74829968159E+01  0.11074554678E+04  0.11075410900E+04  0.10000000000E+02 0.  0.
</event>
<event>
 5    1  0.1503263E-008  0.3846148E+03  0.7957747E-01  0.3431308E+00
         13   -1    0    0    0    0  0.00000000000E+00  0.00000000000E+00  0.14999999963E+04  0.15000000000E+04  0.10566000000E+00 0.  1.
        994   -1    0    0    0    0 -0.00000000000E+00 -0.00000000000E+00  0.11368683772E-12  0.17120000000E+03  0.17120000000E+03 0.  0.
         13    1    1    2    0    0  0.27927363006E+01  0.10499502467E+02  0.30996448429E+02  0.32845546233E+02  0.10566000000E+00 0.  1.
        994    1    1    2    0    0  0.21202416376E+02 -0.21668208438E+02  0.48536059021E+01  0.17393116802E+03  0.17120000000E+03 0.  0.
        998    1    1    2    0    0 -0.23995152677E+02  0.11168705971E+02  0.14641499419E+04  0.14644232858E+04  0.10000000000E+02 0.  1.
</event>
<event>
 5    1  0.1503263E-008  0.3750316E+03  0.7957747E-01  0.3473081E+00
         13   -1    0    0    0    0  0.00000000000E+00  0.00000000000E+00  0.14999999963E+04  0.15000000000E+04  0.10566000000E+00 0. -1.
        994   -1    0    0    0    0 -0.00000000000E+00 -0.00000000000E+00  0.11368683772E-12  0.17120000000E+03  0.17120000000E+03 0.  0.
         13    1    1    2    0    0  0.15663080690E+02  0.35685860267E+02  0.52193877334E+02  0.65138504088E+02  0.10566000000E+00 0. -1.
        994    1    1    2    0    0  0.25923246744E+01 -0.18039272773E+02  0.14807294754E+02  0.17280286886E+03  0.17120000000E+03 0.  0.
        998    1    1    2    0    0 -0.18255405365E+02 -0.17646587494E+02  0.14329988242E+04  0.14332586270E+04  0.10000000000E+02 0. -1.
</event>
<event>
 5    1  0.1503263E-008  0.3698329E+03  0.7957747E-01  0.3496659E+00
         13   -1    0    0    0    0  0.00000000000E+00  0.00000000000E+00  0.14999999963E+04  0.15000000000E+04  0.10566000000E+00 0. -1.
        994   -1    0    0    0    0 -0.00000000000E+00 -0.00000000000E+00  0.11368683772E-12  0.17120000000E+03  0.17120000000E+03 0.  0.
         13    1    1    2    0    0  0.72513508805E+02  0.21272143523E+02  0.27799857478E+03  0.28808667410E+03  0.10566000000E+00 0. -1.
        994    1    1    2    0    0 -0.27573061498E+02 -0.22834714894E+02  0.15341902054E+02  0.17557480424E+03  0.17120000000E+03 0.  0.
        998    1    1    2    0    0 -0.44940447308E+02  0.15625713711E+01  0.12066595194E+04  0.12075385217E+04  0.10000000000E+02 0. -1.
</event>
<event>
 5    1  0.1503263E-008  0.3843489E+03  0.7957747E-01  0.3432438E+00
         13   -1    0    0    0    0  0.00000000000E+00  0.00000000000E+00  0.14999999963E+04  0.15000000000E+04  0.10566000000E+00 0.  1.
        994   -1    0    0    0    0 -0.00000000000E+00 -0.00000000000E+00  0.11368683772E-12  0.17120000000E+03  0.17120000000E+03 0.  0.
         13    1    1    2    0    0  0.92637555765E+01  0.12603029604E+02  0.68607974958E+02  0.70368451130E+02  0.10566000000E+00 0.  1.
        994    1    1    2    0    0  0.44693003066E+01  0.36520943393E+01  0.20635381040E+01  0.17130969216E+03  0.17120000000E+03 0.  0.
        998    1    1    2    0    0 -0.13733055883E+02 -0.16255123943E+02  0.14293284832E+04  0.14295218567E+04  0.10000000000E+02 0.  1.
</event>
<event>
 5    1  0.1503263E-008  0.3858740E+03  0.7957747E-01  0.3425974E+00
         13   -1    0    0    0    0  0.00000000000E+00  0.00000000000E+00  0.14999999963E+04  0.15000000000E+04  0.10566000000E+00 0.  1.
        994   -1    0    0    0    0 -0.00000000000E+00 -0.00000000000E+00  0.11368683772E-12  0.17120000000E+03  0.17120000000E+03 0.  0.
         13    1    1    2    0    0 -0.99612190382E+01 -0.45899247564E+01  0.50024577663E+02  0.51212916616E+02  0.10566000000E+00 0.  1.
        994    1    1    2    0    0  0.87090985799E+01  0.40061826903E+01  0.14982414568E+01  0.17147472882E+03  0.17120000000E+03 0.  0.
        998    1    1    2    0    0  0.12521204582E+01  0.58374206613E+00  0.14484771772E+04  0.14485123546E+04  0.10000000000E+02 0.  1.
</event>
<event>
 5    1  0.1503263E-008  0.3716723E+03  0.7957747E-01  0.3488241E+00
         13   -1    0    0    0    0  0.00000000000E+00  0.00000000000E+00  0.14999999963E+04  0.15000000000E+04  0.10566000000E+00 0.  1.
        994   -1    0    0    0    0 -0.00000000000E+00 -0.00000000000E+00  0.11368683772E-12  0.17120000000E+03  0.17120000000E+03 0.  0.
         13    1    1    2    0    0 -0.23941190988E+02  0.44150139444E+01  0.31351994542E+02  0.39694227538E+02  0.10566000000E+00 0.  1.
        994    1    1    2    0    0  0.21121590470E+02 -0.11719652206E+02  0.10406077091E+02  0.17320853984E+03  0.17120000000E+03 0.  0.
        998    1    1    2    0    0  0.28196005182E+01  0.73046382621E+01  0.14582419246E+04  0.14582972326E+04  0.10000000000E+02 0.  1.
</event>
<event>
 5    1  0.1503263E-008  0.3800363E+03  0.7957747E-01  0.3451001E+00
         13   -1    0    0    0    0  0.00000000000E+00  0.00000000000E+00  0.14999999963E+04  0.15000000000E+04  0.10566000000E+00 0.  1.
        994   -1    0    0    0    0 -0.00000000000E+00 -0.00000000000E+00  0.11368683772E-12  0.17120000000E+03  0.17120000000E+03 0.  0.
         13    1    1    2    0    0  0.10328795318E+02  0.43228151114E+02  0.16602734300E+03  0.17187334537E+03  0.10566000000E+00 0.  1.
        994    1    1    2    0    0 -0.23906551476E+02 -0.79379887263E+02  0.27439836622E+02  0.19218500030E+03  0.17120000000E+03 0.  0.
        998    1    1    2    0    0  0.13577756158E+02  0.36151736149E+02  0.13065328167E+04  0.13071416543E+04  0.10000000000E+02 0.  1.
</event>
<event>
 5    1  0.1503263E-008  0.3765949E+03  0.7957747E-01  0.3466120E+00
         13   -1    0    0    0    0  0.00000000000E+00  0.00000000000E+00  0.14999999963E+04  0.15000000000E+04  0.10566000000E+00 0. -1.
        994   -1    0    0    0    0 -0.00000000000E+00 -0.00000000000E+00  0.11368683772E-12  0.17120000000E+03  0.17120000000E+03 0.  0.
         13    1    1    2    0    0  0.11013485895E+02 -0.53592201145E+01  0.10165306413E+02  0.15917371966E+02  0.10566000000E+00 0. -1.
        994    1    1    2    0    0 -0.68466197875E+01  0.63692234620E+01  0.61576882109E+01  0.17156573182E+03  0.17120000000E+03 0.  0.
        998    1    1    2    0    0 -0.41668661071E+01 -0.10100033475E+01  0.14836770017E+04  0.14837168962E+04  0.10000000000E+02 0. -1.
</event>
<event>
 5    1  0.1503263E-008  0.3793002E+03  0.7957747E-01  0.3454211E+00
         13   -1    0    0    0    0  0.00000000000E+00  0.00000000000E+00  0.14999999963E+04  0.15000000000E+04  0.10566000000E+00 0. -1.
        994   -1    0    0    0    0 -0.00000000000E+00 -0.00000000000E+00  0.11368683772E-12  0.17120000000E+03  0.17120000000E+03 0.  0.
         13    1    1    2    0    0 -0.19174606401E+02  0.37928347201E+02  0.17442577081E+03  0.17952878805E+03  0.10566000000E+00 0. -1.
        994    1    1    2    0    0  0.15882649252E+02 -0.43092162746E+02  0.11586648145E+02  0.17763131327E+03  0.17120000000E+03 0.  0.
        998    1    1    2    0    0  0.32919571489E+01  0.51638155454E+01  0.13139875773E+04  0.13140398987E+04  0.10000000000E+02 0.  0.
</event>
<event>
 5    1  0.1503263E-008  0.3723972E+03  0.7957747E-01  0.3484946E+00
         13   -1    0    0    0    0  0.00000000000E+00  0.00000000000E+00  0.14999999963E+04  0.15000000000E+04  0.10566000000E+00 0.  1.
        994   -1    0    0    0    0 -0.00000000000E+00 -0.00000000000E+00  0.11368683772E-12  0.17120000000E+03  0.17120000000E+03 0.  0.
         13    1    1    2    0    0  0.61837790431E+01  0.25487026644E+02  0.22738252139E+02  0.34711193076E+02  0.10566000000E+00 0.  1.
        994    1    1    2    0    0  0.10543457862E+01 -0.26170033024E+02  0.14634232368E+02  0.17380904185E+03  0.17120000000E+03 0.  0.
        998    1    1    2    0    0 -0.72381248292E+01  0.68300638019E+00  0.14626275118E+04  0.14626797651E+04  0.10000000000E+02 0.  1.
</event>
<event>
 5    1  0.1503263E-008  0.3752239E+03  0.7957747E-01  0.3472222E+00
         13   -1    0    0    0    0  0.00000000000E+00  0.00000000000E+00  0.14999999963E+04  0.15000000000E+04  0.10566000000E+00 0.  1.
        994   -1    0    0    0    0 -0.00000000000E+00 -0.00000000000E+00  0.11368683772E-12  0.17120000000E+03  0.17120000000E+03 0.  0.
         13    1    1    2    0    0  0.19532201754E+00 -0.12078128732E+03  0.37706051111E+03  0.39593281970E+03  0.10566000000E+00 0.  1.
        994    1    1    2    0    0  0.25501657936E+01  0.12303652120E+03  0.69829577278E+02  0.22210380176E+03  0.17120000000E+03 0.  0.
        998    1    1    2    0    0 -0.27454878112E+01 -0.22552338754E+01  0.10531099079E+04  0.10531633785E+04  0.10000000000E+02 0.  1.
</event>
<event>
 5    1  0.1503263E-008  0.3762444E+03  0.7957747E-01  0.3467676E+00
         13   -1    0    0    0    0  0.00000000000E+00  0.00000000000E+00  0.14999999963E+04  0.15000000000E+04  0.10566000000E+00 0.  1.
        994   -1    0    0    0    0 -0.00000000000E+00 -0.00000000000E+00  0.11368683772E-12  0.17120000000E+03  0.17120000000E+03 0.  0.
         13    1    1    2    0    0 -0.10161481484E+02 -0.17960620879E+02  0.35538198889E+02  0.41095186489E+02  0.10566000000E+00 0.  1.
        994    1    1    2    0    0  0.70673637274E+01 -0.20137506391E+02  0.75843514434E+01  0.17269171717E+03  0.17120000000E+03 0.  0.
        998    1    1    2    0    0  0.30941177565E+01  0.38098127270E+02  0.14568774459E+04  0.14574130963E+04  0.10000000000E+02 0.  1.
</event>
<event>
 5    1  0.1503263E-008  0.3852943E+03  0.7957747E-01  0.3428425E+00
         13   -1    0    0    0    0  0.00000000000E+00  0.00000000000E+00  0.14999999963E+04  0.15000000000E+04  0.10566000000E+00 0.  1.
        994   -1    0    0    0    0 -0.00000000000E+00 -0.00000000000E+00  0.11368683772E-12  0.17120000000E+03  0.17120000000E+03 0.  0.
         13    1    1    2    0    0 -0.10137540704E+02  0.94109929570E+01  0.67080068187E+02  0.68491482916E+02  0.10566000000E+00 0.  1.
        994    1    1    2    0    0 -0.37722004823E+00 -0.58735085494E+01  0.15979269633E+01  0.17130859222E+03  0.17120000000E+03 0.  0.
        998    1    1    2    0    0  0.10514760752E+02 -0.35374844077E+01  0.14313220011E+04  0.14313999249E+04  0.10000000000E+02 0. -1.
</event>
<event>
 5    1  0.1503263E-008  0.3842908E+03  0.7957747E-01  0.3432686E+00
         13   -1    0    0    0    0  0.00000000000E+00  0.00000000000E+00  0.14999999963E+04  0.15000000000E+04  0.10566000000E+00 0. -1.
        994   -1    0    0    0    0 -0.00000000000E+00 -0.00000000000E+00  0.11368683772E-12  0.17120000000E+03  0.17120000000E+03 0.  0.
         13    1    1    2    0    0 -0.18786631788E+02  0.14462133436E+02  0.12997028065E+03  0.13211500995E+03  0.10566000000E+00 0. -1.
        994    1    1    2    0    0  0.23645616754E+02 -0.10321288615E+02  0.41798399064E+01  0.17318358829E+03  0.17120000000E+03 0.  0.
        998    1    1    2    0    0 -0.48589849662E+01 -0.41408448217E+01  0.13658498757E+04  0.13659014018E+04  0.10000000000E+02 0. -1.
</event>
<event>
 5    1  0.1503263E-008  0.3765465E+03  0.7957747E-01  0.3466335E+00
         13   -1    0    0    0    0  0.00000000000E+00  0.00000000000E+00  0.14999999963E+04  0.15000000000E+04  0.10566000000E+00 0. -1.
        994   -1    0    0    0    0 -0.00000000000E+00 -0.00000000000E+00  0.11368683772E-12  0.17120000000E+03  0.17120000000E+03 0.  0.
         13    1    1    2    0    0  0.42470595250E+02 -0.40102981494E+02  0.24234261650E+03  0.24928288253E+03  0.10566000000E+00 0. -1.
        994    1    1    2    0    0 -0.46757606708E+02  0.35774148019E+02  0.17698676342E+02  0.18190312421E+03  0.17120000000E+03 0.  0.
        998    1    1    2    0    0  0.42870114584E+01  0.43288334753E+01  0.12399587034E+04  0.12400139933E+04  0.10000000000E+02 0. -1.
</event>
<event>
 5    1  0.1503263E-008  0.3771671E+03  0.7957747E-01  0.3463587E+00
         13   -1    0    0    0    0  0.00000000000E+00  0.00000000000E+00  0.14999999963E+04  0.15000000000E+04  0.10566000000E+00 0. -1.
        994   -1    0    0    0    0 -0.00000000000E+00 -0.00000000000E+00  0.11368683772E-12  0.17120000000E+03  0.17120000000E+03 0.  0.
         13    1    1    2    0    0 -0.12353206621E+02 -0.59413147821E+02  0.22763248693E+03  0.23558243593E+03  0.10566000000E+00 0. -1.
        994    1    1    2    0    0  0.34124367270E+02  0.85263788808E+02  0.34583447420E+02  0.19733180423E+03  0.17120000000E+03 0.  0.
        998    1    1    2    0    0 -0.21771160649E+02 -0.25850640987E+02  0.12377840619E+04  0.12382857598E+04  0.10000000000E+02 0. -1.
</event>
<event>
 5    1  0.1503263E-008  0.3820653E+03  0.7957747E-01  0.3442215E+00
         13   -1    0    0    0    0  0.00000000000E+00  0.00000000000E+00  0.14999999963E+04  0.15000000000E+04  0.10566000000E+00 0. -1.
        994   -1    0    0    0    0 -0.00000000000E+00 -0.00000000000E+00  0.11368683772E-12  0.17120000000E+03  0.17120000000E+03 0.  0.
         13    1    1    2    0    0  0.24812214715E+02  0.44624593188E+02  0.29148497900E+03  0.29592313945E+03  0.10566000000E+00 0. -1.
        994    1    1    2    0    0 -0.18319923619E+02 -0.66416209356E+02  0.19017993728E+02  0.18552050170E+03  0.17120000000E+03 0.  0.
        998    1    1    2    0    0 -0.64922910957E+01  0.21791616168E+02  0.11894970236E+04  0.11897563588E+04  0.10000000000E+02 0. -1.
</event>
<event>
 5    1  0.1503263E-008  0.3838588E+03  0.7957747E-01  0.3434527E+00
         13   -1    0    0    0    0  0.00000000000E+00  0.00000000000E+00  0.14999999963E+04  0.15000000000E+04  0.10566000000E+00 0.  1.
        994   -1    0    0    0    0 -0.00000000000E+00 -0.00000000000E+00  0.11368683772E-12  0.17120000000E+03  0.17120000000E+03 0.  0.
         13    1    1    2    0    0 -0.25418882947E+02 -0.13080839108E+02  0.15011440520E+03  0.15281221736E+03  0.10566000000E+00 0.  1.
        994    1    1    2    0    0  0.55397815267E+02 -0.92487273628E+01  0.12680646574E+02  0.18062307630E+03  0.17120000000E+03 0.  0.
        998    1    1    2    0    0 -0.29978932320E+02  0.22329566471E+02  0.13372049445E+04  0.13377647063E+04  0.10000000000E+02 0.  1.
</event>
<event>
 5    1  0.1503263E-008  0.3741947E+03  0.7957747E-01  0.3476832E+00
         13   -1    0    0    0    0  0.00000000000E+00  0.00000000000E+00  0.14999999963E+04  0.15000000000E+04  0.10566000000E+00 0. -1.
        994   -1    0    0    0    0 -0.00000000000E+00 -0.00000000000E+00  0.11368683772E-12  0.17120000000E+03  0.17120000000E+03 0.  0.
         13    1    1    2    0    0 -0.19545658326E+02 -0.60634645581E+02  0.35832173456E+03  0.36394102493E+03  0.10566000000E+00 0. -1.
        994    1    1    2    0    0  0.54866611112E+02 -0.28244860918E+01  0.17451269940E+02  0.18064415174E+03  0.17120000000E+03 0.  0.
        998    1    1    2    0    0 -0.35320952787E+02  0.63459131673E+02  0.11242269918E+04  0.11266148233E+04  0.10000000000E+02 0. -1.
</event>
<event>
 5    1  0.1503263E-008  0.3696527E+03  0.7957747E-01  0.3497488E+00
         13   -1    0    0    0    0  0.00000000000E+00  0.00000000000E+00  0.14999999963E+04  0.15000000000E+04  0.10566000000E+00 0.  1.
        994   -1    0    0    0    0 -0.00000000000E+00 -0.00000000000E+00  0.11368683772E-12  0.17120000000E+03  0.17120000000E+03 0.  0.
         13    1    1    2    0    0  0.53675055293E+02  0.36426828616E+02  0.18790484325E+03  0.19878673669E+03  0.10566000000E+00 0.  1.
        994    1    1    2    0    0 -0.41126971362E+02 -0.16912239033E+02  0.17692022578E+02  0.17776360501E+03  0.17120000000E+03 0.  0.
        998    1    1    2    0    0 -0.12548083931E+02 -0.19514589583E+02  0.12944031304E+04  0.12946496583E+04  0.10000000000E+02 0.  1.
</event>
<event>
 5    1  0.1503263E-008  0.3834569E+03  0.7957747E-01  0.3436243E+00
         13   -1    0    0    0    0  0.00000000000E+00  0.00000000000E+00  0.14999999963E+04  0.15000000000E+04  0.10566000000E+00 0. -1.
        994   -1    0    0    0    0 -0.00000000000E+00 -0.00000000000E+00  0.11368683772E-12  0.17120000000E+03  0.17120000000E+03 0.  0.
         13    1    1    2    0    0 -0.13303719589E+02 -0.74514661207E+01  0.46807804589E+02  0.49229006051E+02  0.10566000000E+00 0. -1.
        994    1    1    2    0    0  0.11190094968E+02  0.10349567145E+02  0.31664810934E+01  0.17190636512E+03  0.17120000000E+03 0.  0.
        998    1    1    2    0    0  0.21136246208E+01 -0.28981010239E+01  0.14500257106E+04  0.14500646288E+04  0.10000000000E+02 0. -1.
</event>
<event>
 5    1  0.1503263E-008  0.3831693E+03  0.7957747E-01  0.3437474E+00
         13   -1    0    0    0    0  0.00000000000E+00  0.00000000000E+00  0.14999999963E+04  0.15000000000E+04  0.10566000000E+00 0. -1.
        994   -1    0    0    0    0 -0.00000000000E+00 -0.00000000000E+00  0.11368683772E-12  0.17120000000E+03  0.17120000000E+03 0.  0.
         13    1    1    2    0    0  0.22617812902E+02  0.10041774548E+02  0.12075468657E+03  0.12326438329E+03  0.10566000000E+00 0. -1.
        994    1    1    2    0    0 -0.12940890311E+02 -0.51608919016E+01  0.31841691281E+01  0.17179546088E+03  0.17120000000E+03 0.  0.
        998    1    1    2    0    0 -0.96769225918E+01 -0.48808826464E+01  0.13760611406E+04  0.13761401558E+04  0.10000000000E+02 0. -1.
</event>
<event>
 5    1  0.1503263E-008  0.3767441E+03  0.7957747E-01  0.3465459E+00
         13   -1    0    0    0    0  0.00000000000E+00  0.00000000000E+00  0.14999999963E+04  0.15000000000E+04  0.10566000000E+00 0.  1.
        994   -1    0    0    0    0 -0.00000000000E+00 -0.00000000000E+00  0.11368683772E-12  0.17120000000E+03  0.17120000000E+03 0.  0.
         13    1    1    2    0    0  0.57436170381E+01  0.11471879502E+02  0.11881831298E+02  0.17486630179E+02  0.10566000000E+00 0.  1.
        994    1    1    2    0    0  0.45889446638E+01 -0.30340179081E+01  0.58880928660E+01  0.17138953677E+03  0.17120000000E+03 0.  0.
        998    1    1    2    0    0 -0.10332561702E+02 -0.84378615939E+01  0.14822300721E+04  0.14823238330E+04  0.10000000000E+02 0.  1.
</event>
<event>
 5    1  0.1503263E-008  0.3857317E+03  0.7957747E-01  0.3426575E+00
         13   -1    0    0    0    0  0.00000000000E+00  0.00000000000E+00  0.14999999963E+04  0.15000000000E+04  0.10566000000E+00 0. -1.
        994   -1    0    0    0    0 -0.00000000000E+00 -0.00000000000E+00  0.11368683772E-12  0.17120000000E+03  0.17120000000E+03 0.  0.
         13    1    1    2    0    0  0.65935641485E+01  0.11378880588E+02  0.72292469361E+02  0.73479019468E+02  0.10566000000E+00 0. -1.
        994    1    1    2    0    0 -0.17066580489E+01 -0.14767872862E+01  0.12840280822E+01  0.17121969020E+03  0.17120000000E+03 0.  0.
        998    1    1    2    0    0 -0.48869060996E+01 -0.99020933022E+01  0.14264234988E+04  0.14265012903E+04  0.10000000000E+02 0.  0.
</event>
<event>
 5    1  0.1503263E-008  0.3767663E+03  0.7957747E-01  0.3465361E+00
         13   -1    0    0    0    0  0.00000000000E+00  0.00000000000E+00  0.14999999963E+04  0.15000000000E+04  0.10566000000E+00 0. -1.
        994   -1    0    0    0    0 -0.00000000000E+00 -0.00000000000E+00  0.11368683772E-12  0.17120000000E+03  0.17120000000E+03 0.  0.
         13    1    1    2    0    0 -0.56930731615E+01 -0.29032762985E+02  0.22200835432E+02  0.36989196619E+02  0.10566000000E+00 0. -1.
        994    1    1    2    0    0 -0.11516015448E+02  0.56968181015E+02  0.26760046518E+02  0.18276633265E+03  0.17120000000E+03 0.  0.
        998    1    1    2    0    0  0.17209088609E+02 -0.27935418029E+02  0.14510391143E+04  0.14514444707E+04  0.10000000000E+02 0. -1.
</event>
<event>
 5    1  0.1503263E-008  0.3786396E+03  0.7957747E-01  0.3457104E+00
         13   -1    0    0    0    0  0.00000000000E+00  0.00000000000E+00  0.14999999963E+04  0.15000000000E+04  0.10566000000E+00 0.  1.
        994   -1    0    0    0    0 -0.00000000000E+00 -0.00000000000E+00  0.11368683772E-12  0.17120000000E+03  0.17120000000E+03 0.  0.
         13    1    1    2    0    0 -0.29285260348E+02 -0.13329141604E+02  0.98766230399E+02  0.10387527098E+03  0.10566000000E+00 0.  1.
        994    1    1    2    0    0  0.33178406749E+02  0.85663608414E+01  0.87744945170E+01  0.17481596313E+03  0.17120000000E+03 0.  0.
        998    1    1    2    0    0 -0.38931464009E+01  0.47627807629E+01  0.13924592714E+04  0.13925087659E+04  0.10000000000E+02 0.  1.
</event>
<event>
 5    1  0.1503263E-008  0.3842939E+03  0.7957747E-01  0.3432672E+00
         13   -1    0    0    0    0  0.00000000000E+00  0.00000000000E+00  0.14999999963E+04  0.15000000000E+04  0.10566000000E+00 0. -1.
        994   -1    0    0    0    0 -0.00000000000E+00 -0.00000000000E+00  0.11368683772E-12  0.17120000000E+03  0.17120000000E+03 0.  0.
         13    1    1    2    0    0 -0.13897003376E+02  0.10412161490E+02  0.85100861450E+02  0.86854519706E+02  0.10566000000E+00 0. -1.
        994    1    1    2    0    0 -0.44545548899E+01  0.40026190574E+01  0.20993265988E+01  0.17131757409E+03  0.17120000000E+03 0.  0.
        998    1    1    2    0    0  0.18351558266E+02 -0.14414780548E+02  0.14127998082E+04  0.14130279062E+04  0.10000000000E+02 0. -1.
</event>
<event>
 5    1  0.1503263E-008  0.3820872E+03  0.7957747E-01  0.3442120E+00
         13   -1    0    0    0    0  0.00000000000E+00  0.00000000000E+00  0.14999999963E+04  0.15000000000E+04  0.10566000000E+00 0.  1.
        994   -1    0    0    0    0 -0.00000000000E+00 -0.00000000000E+00  0.11368683772E-12  0.17120000000E+03  0.17120000000E+03 0.  0.
         13    1    1    2    0    0 -0.30722178271E+02  0.16875101066E+02  0.20220759598E+03  0.20522315734E+03  0.10566000000E+00 0.  1.
        994    1    1    2    0    0  0.13855322598E+02 -0.12297587701E+02  0.42234706449E+01  0.17225120705E+03  0.17120000000E+03 0.  0.
        998    1    1    2    0    0  0.16866855674E+02 -0.45775133655E+01  0.12935689297E+04  0.12937256356E+04  0.10000000000E+02 0.  1.
</event>
<event>
 5    1  0.1503263E-008  0.3922592E+03  0.7957747E-01  0.3399457E+00
         13   -1    0    0    0    0  0.00000000000E+00  0.00000000000E+00  0.14999999963E+04  0.15000000000E+04  0.10566000000E+00 0. -1.
        994   -1    0    0    0    0 -0.00000000000E+00 -0.00000000000E+00  0.11368683772E-12  0.17120000000E+03  0.17120000000E+03 0.  0.
         13    1    1    2    0    0 -0.95376572182E+02 -0.70082385850E+02  0.24465097908E+03  0.27177627575E+03  0.10566000000E+00 0. -1.
        994    1    1    2    0    0  0.10038178028E+03  0.60415393303E+02  0.77458166324E+02  0.22144012529E+03  0.17120000000E+03 0.  0.
        998    1    1    2    0    0 -0.50052080974E+01  0.96669925477E+01  0.11778908509E+04  0.11779835990E+04  0.10000000000E+02 0. -1.
</event>
<event>
 5    1  0.1503263E-008  0.3151421E+03  0.7957747E-01  0.3793517E+00
         13   -1    0    0    0    0  0.00000000000E+00  0.00000000000E+00  0.14999999963E+04  0.15000000000E+04  0.10566000000E+00 0.  1.
        994   -1    0    0    0    0 -0.00000000000E+00 -0.00000000000E+00  0.11368683772E-12  0.17120000000E+03  0.17120000000E+03 0.  0.
         13    1    1    2    0    0 -0.12303156175E+03 -0.14066575175E+03  0.81127982050E+03  0.83252542136E+03  0.10566000000E+00 0.  1.
        994    1    1    2    0    0  0.13554338141E+03  0.84690664721E+02  0.11304672312E+03  0.26006445075E+03  0.17120000000E+03 0.  0.
        998    1    1    2    0    0 -0.12511819667E+02  0.55975087027E+02  0.57567345266E+03  0.57861012789E+03  0.10000000000E+02 0. -1.
</event>
<event>
 5    1  0.1503263E-008  0.3723391E+03  0.7957747E-01  0.3485209E+00
         13   -1    0    0    0    0  0.00000000000E+00  0.00000000000E+00  0.14999999963E+04  0.15000000000E+04  0.10566000000E+00 0.  1.
        994   -1    0    0    0    0 -0.00000000000E+00 -0.00000000000E+00  0.11368683772E-12  0.17120000000E+03  0.17120000000E+03 0.  0.
         13    1    1    2    0    0  0.31309497028E+02 -0.20065729676E+02  0.51889403369E+02  0.63839168679E+02  0.10566000000E+00 0.  1.
        994    1    1    2    0    0 -0.27703010288E+02  0.73588336877E+01  0.15082523551E+02  0.17423699874E+03  0.17120000000E+03 0.  0.
        998    1    1    2    0    0 -0.36064867393E+01  0.12706895988E+02  0.14330280694E+04  0.14331238326E+04  0.10000000000E+02 0.  1.
</event>
<event>
 5    1  0.1503263E-008  0.3729404E+03  0.7957747E-01  0.3482486E+00
         13   -1    0    0    0    0  0.00000000000E+00  0.00000000000E+00  0.14999999963E+04  0.15000000000E+04  0.10566000000E+00 0.  1.
        994   -1    0    0    0    0 -0.00000000000E+00 -0.00000000000E+00  0.11368683772E-12  0.17120000000E+03  0.17120000000E+03 0.  0.
         13    1    1    2    0    0 -0.44383590089E+02  0.23626398576E+01  0.11981246504E+03  0.12779093505E+03  0.10566000000E+00 0.  1.
        994    1    1    2    0    0  0.36790289260E+02  0.18635920468E+01  0.12399408439E+02  0.17555678195E+03  0.17120000000E+03 0.  0.
        998    1    1    2    0    0  0.75933008290E+01 -0.42262319045E+01  0.13677881228E+04  0.13678522830E+04  0.10000000000E+02 0.  1.
</event>
<event>
 5    1  0.1503263E-008  0.3755802E+03  0.7957747E-01  0.3470632E+00
         13   -1    0    0    0    0  0.00000000000E+00  0.00000000000E+00  0.14999999963E+04  0.15000000000E+04  0.10566000000E+00 0.  1.
        994   -1    0    0    0    0 -0.00000000000E+00 -0.00000000000E+00  0.11368683772E-12  0.17120000000E+03  0.17120000000E+03 0.  0.
         13    1    1    2    0    0 -0.22135108267E+02  0.22730054649E+02  0.77438214160E+02  0.83685760907E+02  0.10566000000E+00 0.  1.
        994    1    1    2    0    0  0.13527961005E+02 -0.10356574277E+02  0.73664121274E+01  0.17220327635E+03  0.17120000000E+03 0.  0.
        998    1    1    2    0    0  0.86071472618E+01 -0.12373480372E+02  0.14151953700E+04  0.14153109627E+04  0.10000000000E+02 0.  1.
</event>
<event>
 5    1  0.1503263E-008  0.3817437E+03  0.7957747E-01  0.3443601E+00
         13   -1    0    0    0    0  0.00000000000E+00  0.00000000000E+00  0.14999999963E+04  0.15000000000E+04  0.10566000000E+00 0.  1.
        994   -1    0    0    0    0 -0.00000000000E+00 -0.00000000000E+00  0.11368683772E-12  0.17120000000E+03  0.17120000000E+03 0.  0.
         13    1    1    2    0    0 -0.75620769395E+01 -0.36182947811E+02  0.21456852106E+03  0.21772930927E+03  0.10566000000E+00 0.  1.
        994    1    1    2    0    0  0.68404123445E+01  0.17175461979E+02  0.43923474994E+01  0.17225132932E+03  0.17120000000E+03 0.  0.
        998    1    1    2    0    0  0.72166459504E+00  0.19007485832E+02  0.12810391277E+04  0.12812193614E+04  0.10000000000E+02 0.  1.
</event>
<event>
 5    1  0.1503263E-008  0.3799401E+03  0.7957747E-01  0.3451419E+00
         13   -1    0    0    0    0  0.00000000000E+00  0.00000000000E+00  0.14999999963E+04  0.15000000000E+04  0.10566000000E+00 0.  1.
        994   -1    0    0    0    0 -0.00000000000E+00 -0.00000000000E+00  0.11368683772E-12  0.17120000000E+03  0.17120000000E+03 0.  0.
         13    1    1    2    0    0 -0.22936787885E+02 -0.16804335820E+02  0.93804319986E+02  0.98019097899E+02  0.10566000000E+00 0.  1.
        994    1    1    2    0    0  0.18104918148E+02  0.11358917402E+02  0.56922653205E+01  0.17262286914E+03  0.17120000000E+03 0.  0.
        998    1    1    2    0    0  0.48318697372E+01  0.54454184179E+01  0.14005034110E+04  0.14005580330E+04  0.10000000000E+02 0.  1.
</event>
<event>
 5    1  0.1503263E-008  0.3819143E+03  0.7957747E-01  0.3442865E+00
         13   -1    0    0    0    0  0.00000000000E+00  0.00000000000E+00  0.14999999963E+04  0.15000000000E+04  0.10566000000E+00 0. -1.
        994   -1    0    0    0    0 -0.00000000000E+00 -0.00000000000E+00  0.11368683772E-12  0.17120000000E+03  0.17120000000E+03 0.  0.
         13    1    1    2    0    0 -0.21984712623E+02  0.52395696066E+01  0.79882353427E+02  0.83017963308E+02  0.10566000000E+00 0. -1.
        994    1    1    2    0    0  0.15132217660E+02  0.56652618994E+01  0.40376826561E+01  0.17200820354E+03  0.17120000000E+03 0.  0.
        998    1    1    2    0    0  0.68524949631E+01 -0.10904831506E+02  0.14160799602E+04  0.14161738332E+04  0.10000000000E+02 0. -1.
</event>
<event>
 5    1  0.1503263E-008  0.3819918E+03  0.7957747E-01  0.3442531E+00
         13   -1    0    0    0    0  0.00000000000E+00  0.00000000000E+00  0.14999999963E+04  0.15000000000E+04  0.10566000000E+00 0.  1.
        994   -1    0    0    0    0 -0.00000000000E+00 -0.00000000000E+00  0.11368683772E-12  0.17120000000E+03  0.17120000000E+03 0.  0.
         13    1    1    2    0    0  0.17777826069E+02  0.10758333102E+02  0.70793801790E+02  0.73780528372E+02  0.10566000000E+00 0.  1.
        994    1    1    2    0    0 -0.10870047148E+01 -0.76647433839E+01  0.33301184475E+01  0.17140729144E+03  0.17120000000E+03 0.  0.
        998    1    1    2    0    0 -0.16690821355E+02 -0.30935897185E+01  0.14258760760E+04  0.14260121802E+04  0.10000000000E+02 0.  1.
</event>
<event>
 5    1  0.1503263E-008  0.3848084E+03  0.7957747E-01  0.3430485E+00
         13   -1    0    0    0    0  0.00000000000E+00  0.00000000000E+00  0.14999999963E+04  0.15000000000E+04  0.10566000000E+00 0.  1.
        994   -1    0    0    0    0 -0.00000000000E+00 -0.00000000000E+00  0.11368683772E-12  0.17120000000E+03  0.17120000000E+03 0.  0.
         13    1    1    2    0    0  0.99160530021E+01  0.97723153276E+01  0.58718363994E+02  0.60346364333E+02  0.10566000000E+00 0.  1.
        994    1    1    2    0    0  0.68714823785E+01 -0.91576216529E+01  0.21567313926E+01  0.17159595215E+03  0.17120000000E+03 0.  0.
        998    1    1    2    0    0 -0.16787535381E+02 -0.61469367465E+00  0.14391249009E+04  0.14392576835E+04  0.10000000000E+02 0.  1.
</event>
<event>
 5    1  0.1503263E-008  0.3740948E+03  0.7957747E-01  0.3477281E+00
         13   -1    0    0    0    0  0.00000000000E+00  0.00000000000E+00  0.14999999963E+04  0.15000000000E+04  0.10566000000E+00 0. -1.
        994   -1    0    0    0    0 -0.00000000000E+00 -0.00000000000E+00  0.11368683772E-12  0.17120000000E+03  0.17120000000E+03 0.  0.
         13    1    1    2    0    0  0.15134605908E+02  0.14530722871E+02  0.27498415653E+02  0.34588614176E+02  0.10566000000E+00 0. -1.
        994    1    1    2    0    0 -0.13415093657E+02 -0.13875388563E+02  0.84153546451E+01  0.17248985286E+03  0.17120000000E+03 0.  0.
        998    1    1    2    0    0 -0.17195122513E+01 -0.65533430807E+00  0.14640862260E+04  0.14641215330E+04  0.10000000000E+02 0. -1.
</event>
<event>
 5    1  0.1503263E-008  0.3921809E+03  0.7957747E-01  0.3399776E+00
         13   -1    0    0    0    0  0.00000000000E+00  0.00000000000E+00  0.14999999963E+04  0.15000000000E+04  0.10566000000E+00 0. -1.
        994   -1    0    0    0    0 -0.00000000000E+00 -0.00000000000E+00  0.11368683772E-12  0.17120000000E+03  0.17120000000E+03 0.  0.
         13    1    1    2    0    0 -0.63938340370E+02 -0.73786983482E+02  0.17436015340E+03  0.19983519349E+03  0.10566000000E+00 0. -1.
        994    1    1    2    0    0  0.63888613243E+02  0.75213825426E+02  0.61174294325E+02  0.20685891019E+03  0.17120000000E+03 0.  0.
        998    1    1    2    0    0  0.49727126391E-01 -0.14268419437E+01  0.12644655486E+04  0.12645058963E+04  0.10000000000E+02 0. -1.
</event>
<event>
 5    1  0.1503263E-008  0.3845695E+03  0.7957747E-01  0.3431500E+00
         13   -1    0    0    0    0  0.00000000000E+00  0.00000000000E+00  0.14999999963E+04  0.15000000000E+04  0.10566000000E+00 0.  1.
        994   -1    0    0    0    0 -0.00000000000E+00 -0.00000000000E+00  0.11368683772E-12  0.17120000000E+03  0.17120000000E+03 0.  0.
         13    1    1    2    0    0 -0.12307262779E+02 -0.32205586329E+01  0.43791317824E+02  0.45601879301E+02  0.10566000000E+00 0.  1.
        994    1    1    2    0    0  0.71341911231E+01  0.29284793244E+01  0.20399177219E+01  0.17138574602E+03  0.17120000000E+03 0.  0.
        998    1    1    2    0    0  0.51730716558E+01  0.29207930846E+00  0.14541687607E+04  0.14542123747E+04  0.10000000000E+02 0.  1.
</event>
<event>
 5    1  0.1503263E-008  0.3783022E+03  0.7957747E-01  0.3458585E+00
         13   -1    0    0    0    0  0.00000000000E+00  0.00000000000E+00  0.14999999963E+04  0.15000000000E+04  0.10566000000E+00 0. -1.
        994   -1    0    0    0    0 -0.00000000000E+00 -0.00000000000E+00  0.11368683772E-12  0.17120000000E+03  0.17120000000E+03 0.  0.
         13    1    1    2    0    0 -0.38723097446E+01  0.21176773720E+02  0.45757000749E+02  0.50568417115E+02  0.10566000000E+00 0. -1.
        994    1    1    2    0    0  0.92364098945E+01 -0.41975478906E+01  0.53387594734E+01  0.17158342877E+03  0.17120000000E+03 0.  0.
        998    1    1    2    0    0 -0.53641001499E+01 -0.16979225829E+02  0.14489042361E+04  0.14490481541E+04  0.10000000000E+02 0. -1.
</event>
<event>
 5    1  0.1503263E-008  0.3405534E+03  0.7957747E-01  0.3643230E+00
         13   -1    0    0    0    0  0.00000000000E+00  0.00000000000E+00  0.14999999963E+04  0.15000000000E+04  0.10566000000E+00 0. -1.
        994   -1    0    0    0    0 -0.00000000000E+00 -0.00000000000E+00  0.11368683772E-12  0.17120000000E+03  0.17120000000E+03 0.  0.
         13    1    1    2    0    0  0.24393755459E+03 -0.10691087950E+03  0.71304508554E+03  0.76116277620E+03  0.10566000000E+00 0. -1.
        994    1    1    2    0    0 -0.25340230759E+03  0.12536369249E+03  0.38493688483E+03  0.50736045391E+03  0.17120000000E+03 0.  0.
        998    1    1    2    0    0  0.94647530015E+01 -0.18452812988E+02  0.40201802591E+03  0.40267676990E+03  0.10000000000E+02 0. -1.
</event>
<event>
 5    1  0.1503263E-008  0.3829039E+03  0.7957747E-01  0.3438611E+00
         13   -1    0    0    0    0  0.00000000000E+00  0.00000000000E+00  0.14999999963E+04  0.15000000000E+04  0.10566000000E+00 0.  1.
        994   -1    0    0    0    0 -0.00000000000E+00 -0.00000000000E+00  0.11368683772E-12  0.17120000000E+03  0.17120000000E+03 0.  0.
         13    1    1    2    0    0 -0.71971166724E+01 -0.27035679470E+02  0.14471990121E+03  0.14739941460E+03  0.10566000000E+00 0.  1.
        994    1    1    2    0    0 -0.25643795158E+01  0.18860739935E+02  0.38749437358E+01  0.17229845833E+03  0.17120000000E+03 0.  0.
        998    1    1    2    0    0  0.97614961882E+01  0.81749395344E+01  0.13514051513E+04  0.13515021271E+04  0.10000000000E+02 0.  1.
</event>
<event>
 5    1  0.1503263E-008  0.3855805E+03  0.7957747E-01  0.3427214E+00
         13   -1    0    0    0    0  0.00000000000E+00  0.00000000000E+00  0.14999999963E+04  0.15000000000E+04  0.10566000000E+00 0. -1.
        994   -1    0    0    0    0 -0.00000000000E+00 -0.00000000000E+00  0.11368683772E-12  0.17120000000E+03  0.17120000000E+03 0.  0.
         13    1    1    2    0    0  0.59006870536E+01  0.14366864538E+02  0.88862815002E+02  0.90209954875E+02  0.10566000000E+00 0. -1.
        994    1    1    2    0    0 -0.18847047667E+02 -0.58368970762E+01  0.26210545282E+01  0.17235309832E+03  0.17120000000E+03 0.  0.
        998    1    1    2    0    0  0.12946360613E+02 -0.85299674621E+01  0.14085161267E+04  0.14086369468E+04  0.10000000000E+02 0. -1.
</event>
<event>
 5    1  0.1503263E-008  0.3992654E+03  0.7957747E-01  0.3371336E+00
         13   -1    0    0    0    0  0.00000000000E+00  0.00000000000E+00  0.14999999963E+04  0.15000000000E+04  0.10566000000E+00 0.  1.
        994   -1    0    0    0    0 -0.00000000000E+00 -0.00000000000E+00  0.11368683772E-12  0.17120000000E+03  0.17120000000E+03 0.  0.
         13    1    1    2    0    0  0.66001394383E+02  0.99713017533E+02  0.30323824012E+03  0.32596366571E+03  0.10566000000E+00 0.  1.
        994    1    1    2    0    0  0.13849361305E+02 -0.53937063242E+02  0.39543878077E+02  0.18432083413E+03  0.17120000000E+03 0.  0.
        998    1    1    2    0    0 -0.79850755688E+02 -0.45775954290E+02  0.11572178781E+04  0.11609155002E+04  0.10000000000E+02 0.  1.
</event>
<event>
 5    1  0.1503263E-008  0.3730445E+03  0.7957747E-01  0.3482015E+00
         13   -1    0    0    0    0  0.00000000000E+00  0.00000000000E+00  0.14999999963E+04  0.15000000000E+04  0.10566000000E+00 0. -1.
        994   -1    0    0    0    0 -0.00000000000E+00 -0.00000000000E+00  0.11368683772E-12  0.17120000000E+03  0.17120000000E+03 0.  0.
         13    1    1    2    0    0 -0.28204709789E+02 -0.12364323119E+02  0.57576128933E+02  0.65294746553E+02  0.10566000000E+00 0. -1.
        994    1    1    2    0    0  0.24611828711E+02  0.98013936109E+01  0.10091553755E+02  0.17353123317E+03  0.17120000000E+03 0.  0.
        998    1    1    2    0    0  0.35928810780E+01  0.25629295077E+01  0.14323323136E+04  0.14323740203E+04  0.10000000000E+02 0. -1.
</event>
<event>
 5    1  0.1503263E-008  0.3795827E+03  0.7957747E-01  0.3452978E+00
         13   -1    0    0    0    0  0.00000000000E+00  0.00000000000E+00  0.14999999963E+04  0.15000000000E+04  0.10566000000E+00 0.  1.
        994   -1    0    0    0    0 -0.00000000000E+00 -0.00000000000E+00  0.11368683772E-12  0.17120000000E+03  0.17120000000E+03 0.  0.
         13    1    1    2    0    0 -0.12388129390E+02  0.29946145694E+02  0.11777792093E+03  0.12215517678E+03  0.10566000000E+00 0.  1.
        994    1    1    2    0    0  0.65535666252E+01 -0.21001463371E+02  0.59658786612E+01  0.17271086361E+03  0.17120000000E+03 0.  0.
        998    1    1    2    0    0  0.58345627645E+01 -0.89446823223E+01  0.13762561967E+04  0.13763339596E+04  0.10000000000E+02 0.  1.
</event>
<event>
 5    1  0.1503263E-008  0.3839323E+03  0.7957747E-01  0.3434213E+00
         13   -1    0    0    0    0  0.00000000000E+00  0.00000000000E+00  0.14999999963E+04  0.15000000000E+04  0.10566000000E+00 0.  1.
        994   -1    0    0    0    0 -0.00000000000E+00 -0.00000000000E+00  0.11368683772E-12  0.17120000000E+03  0.17120000000E+03 0.  0.
         13    1    1    2    0    0 -0.12736994256E+02  0.54007515884E+01  0.45998437496E+02  0.48034014579E+02  0.10566000000E+00 0.  1.
        994    1    1    2    0    0 -0.17192078658E+01 -0.94993687250E+00  0.21738701860E+01  0.17122506758E+03  0.17120000000E+03 0.  0.
        998    1    1    2    0    0  0.14456202121E+02 -0.44508147159E+01  0.14518276886E+04  0.14519409178E+04  0.10000000000E+02 0.  1.
</event>
<event>
 5    1  0.1503263E-008  0.3820188E+03  0.7957747E-01  0.3442415E+00
         13   -1    0    0    0    0  0.00000000000E+00  0.00000000000E+00  0.14999999963E+04  0.15000000000E+04  0.10566000000E+00 0.  1.
        994   -1    0    0    0    0 -0.00000000000E+00 -0.00000000000E+00  0.11368683772E-12  0.17120000000E+03  0.17120000000E+03 0.  0.
         13    1    1    2    0    0  0.26785346652E+02  0.18622980464E+02  0.15752788587E+03  0.16087049508E+03  0.10566000000E+00 0.  1.
        994    1    1    2    0    0 -0.33378202048E+02 -0.41328251596E+01  0.68830468746E+01  0.17460813541E+03  0.17120000000E+03 0.  0.
        998    1    1    2    0    0  0.65928553960E+01 -0.14490155305E+02  0.13355890635E+04  0.13357213695E+04  0.10000000000E+02 0.  1.
</event>
<event>
 5    1  0.1503263E-008  0.3868972E+03  0.7957747E-01  0.3421665E+00
         13   -1    0    0    0    0  0.00000000000E+00  0.00000000000E+00  0.14999999963E+04  0.15000000000E+04  0.10566000000E+00 0.  1.
        994   -1    0    0    0    0 -0.00000000000E+00 -0.00000000000E+00  0.11368683772E-12  0.17120000000E+03  0.17120000000E+03 0.  0.
         13    1    1    2    0    0  0.12387039930E+03  0.94406491129E+02  0.41877123240E+03  0.44679505105E+03  0.10566000000E+00 0.  1.
        994    1    1    2    0    0 -0.17084499185E+03 -0.28997754749E+02  0.14257805111E+03  0.28225311633E+03  0.17120000000E+03 0.  0.
        998    1    1    2    0    0  0.46974592546E+02 -0.65408736380E+02  0.93865071276E+03  0.94215183262E+03  0.10000000000E+02 0.  1.
</event>
<event>
 5    1  0.1503263E-008  0.3831917E+03  0.7957747E-01  0.3437378E+00
         13   -1    0    0    0    0  0.00000000000E+00  0.00000000000E+00  0.14999999963E+04  0.15000000000E+04  0.10566000000E+00 0. -1.
        994   -1    0    0    0    0 -0.00000000000E+00 -0.00000000000E+00  0.11368683772E-12  0.17120000000E+03  0.17120000000E+03 0.  0.
         13    1    1    2    0    0 -0.79901989412E+01  0.13228629510E+02  0.49838950235E+02  0.52180188217E+02  0.10566000000E+00 0. -1.
        994    1    1    2    0    0 -0.40804891754E+01  0.33820510096E+01  0.26235024153E+01  0.17130210573E+03  0.17120000000E+03 0.  0.
        998    1    1    2    0    0  0.12070688117E+02 -0.16610680519E+02  0.14475375436E+04  0.14477177061E+04  0.10000000000E+02 0.  0.
</event>
<event>
 5    1  0.1503263E-008  0.3851633E+03  0.7957747E-01  0.3428980E+00
         13   -1    0    0    0    0  0.00000000000E+00  0.00000000000E+00  0.14999999963E+04  0.15000000000E+04  0.10566000000E+00 0. -1.
        994   -1    0    0    0    0 -0.00000000000E+00 -0.00000000000E+00  0.11368683772E-12  0.17120000000E+03  0.17120000000E+03 0.  0.
         13    1    1    2    0    0 -0.12369636000E+01  0.11096831658E+02  0.41876999460E+02  0.43340096904E+02  0.10566000000E+00 0. -1.
        994    1    1    2    0    0  0.54515746105E+01  0.82734125853E+00  0.16490419606E+01  0.17129671187E+03  0.17120000000E+03 0.  0.
        998    1    1    2    0    0 -0.42146110105E+01 -0.11924172917E+02  0.14564739549E+04  0.14565631912E+04  0.10000000000E+02 0. -1.
</event>
<event>
 5    1  0.1503263E-008  0.3778299E+03  0.7957747E-01  0.3460662E+00
         13   -1    0    0    0    0  0.00000000000E+00  0.00000000000E+00  0.14999999963E+04  0.15000000000E+04  0.10566000000E+00 0.  1.
        994   -1    0    0    0    0 -0.00000000000E+00 -0.00000000000E+00  0.11368683772E-12  0.17120000000E+03  0.17120000000E+03 0.  0.
         13    1    1    2    0    0  0.56094927768E+02 -0.61571661637E+02  0.45963211450E+03  0.46711818878E+03  0.10566000000E+00 0.  1.
        994    1    1    2    0    0 -0.60912281570E+02  0.56252729307E+02  0.28741230898E+02  0.19238028473E+03  0.17120000000E+03 0.  0.
        998    1    1    2    0    0  0.48173538020E+01  0.53189323299E+01  0.10116266509E+04  0.10117015265E+04  0.10000000000E+02 0.  1.
</event>
<event>
 5    1  0.1503263E-008  0.3836370E+03  0.7957747E-01  0.3435473E+00
         13   -1    0    0    0    0  0.00000000000E+00  0.00000000000E+00  0.14999999963E+04  0.15000000000E+04  0.10566000000E+00 0.  1.
        994   -1    0    0    0    0 -0.00000000000E+00 -0.00000000000E+00  0.11368683772E-12  0.17120000000E+03  0.17120000000E+03 0.  0.
         13    1    1    2    0    0  0.94035903052E+01 -0.50937541688E+01  0.23534777731E+02  0.25850933621E+02  0.10566000000E+00 0.  1.
        994    1    1    2    0    0 -0.10618989255E+02  0.82387193025E+01  0.29052724198E+01  0.17175133198E+03  0.17120000000E+03 0.  0.
        998    1    1    2    0    0  0.12153989495E+01 -0.31449651337E+01  0.14735599461E+04  0.14735977344E+04  0.10000000000E+02 0.  1.
</event>
<event>
 5    1  0.1503263E-008  0.3787406E+03  0.7957747E-01  0.3456660E+00
         13   -1    0    0    0    0  0.00000000000E+00  0.00000000000E+00  0.14999999963E+04  0.15000000000E+04  0.10566000000E+00 0. -1.
        994   -1    0    0    0    0 -0.00000000000E+00 -0.00000000000E+00  0.11368683772E-12  0.17120000000E+03  0.17120000000E+03 0.  0.
         13    1    1    2    0    0  0.69141828202E+02 -0.28904637425E+01  0.34961679963E+03  0.35639986663E+03  0.10566000000E+00 0. -1.
        994    1    1    2    0    0 -0.81084664934E+02 -0.22370963370E+02  0.28900116064E+02  0.19292444013E+03  0.17120000000E+03 0.  0.
        998    1    1    2    0    0  0.11942836732E+02  0.25261427113E+02  0.11214830806E+04  0.11218756932E+04  0.10000000000E+02 0. -1.
</event>
<event>
 5    1  0.1503263E-008  0.3806233E+03  0.7957747E-01  0.3448449E+00
         13   -1    0    0    0    0  0.00000000000E+00  0.00000000000E+00  0.14999999963E+04  0.15000000000E+04  0.10566000000E+00 0.  1.
        994   -1    0    0    0    0 -0.00000000000E+00 -0.00000000000E+00  0.11368683772E-12  0.17120000000E+03  0.17120000000E+03 0.  0.
         13    1    1    2    0    0 -0.19316799278E+02  0.69770206428E+01  0.52529110850E+02  0.56401562054E+02  0.10566000000E+00 0.  1.
        994    1    1    2    0    0  0.18800827513E+02 -0.55915283558E+01  0.51034066665E+01  0.17239553667E+03  0.17120000000E+03 0.  0.
        998    1    1    2    0    0  0.51597176473E+00 -0.13854922870E+01  0.14423674788E+04  0.14424029013E+04  0.10000000000E+02 0.  1.
</event>
<event>
 5    1  0.1721368E-008  0.3861196E+03  0.7957747E-01  0.3424938E+00
         13   -1    0    0    0    0  0.00000000000E+00  0.00000000000E+00  0.14999999963E+04  0.15000000000E+04  0.10566000000E+00 0.  1.
        994   -1    0    0    0    0 -0.00000000000E+00 -0.00000000000E+00  0.11368683772E-12  0.17120000000E+03  0.17120000000E+03 0.  0.
         13    1    1    2    0    0 -0.84230666640E+01 -0.78365853493E+01  0.62266072490E+02  0.63320100042E+02  0.10566000000E+00 0.  1.
        994    1    1    2    0    0  0.26755680053E+01  0.88661108801E+01  0.13563694797E+01  0.17145566869E+03  0.17120000000E+03 0.  0.
        998    1    1    2    0    0  0.57474986587E+01 -0.10295255308E+01  0.14363775543E+04  0.14364242313E+04  0.10000000000E+02 0.  1.
</event>
<event>
 5    1  0.1503263E-008  0.3762842E+03  0.7957747E-01  0.3467499E+00
         13   -1    0    0    0    0  0.00000000000E+00  0.00000000000E+00  0.14999999963E+04  0.15000000000E+04  0.10566000000E+00 0. -1.
        994   -1    0    0    0    0 -0.00000000000E+00 -0.00000000000E+00  0.11368683772E-12  0.17120000000E+03  0.17120000000E+03 0.  0.
         13    1    1    2    0    0 -0.28163990989E+02  0.49443459548E+02  0.23964253117E+03  0.24630554194E+03  0.10566000000E+00 0. -1.
        994    1    1    2    0    0  0.38129745929E+02 -0.34377265004E+02  0.14993936421E+02  0.17935978368E+03  0.17120000000E+03 0.  0.
        998    1    1    2    0    0 -0.99657549407E+01 -0.15066194545E+02  0.12453635287E+04  0.12455346744E+04  0.10000000000E+02 0. -1.
</event>
<event>
 5    1  0.1503263E-008  0.3838050E+03  0.7957747E-01  0.3434756E+00
         13   -1    0    0    0    0  0.00000000000E+00  0.00000000000E+00  0.14999999963E+04  0.15000000000E+04  0.10566000000E+00 0. -1.
        994   -1    0    0    0    0 -0.00000000000E+00 -0.00000000000E+00  0.11368683772E-12  0.17120000000E+03  0.17120000000E+03 0.  0.
         13    1    1    2    0    0 -0.19991935824E+02 -0.57029505026E+01  0.92742226315E+02  0.95043846977E+02  0.10566000000E+00 0. -1.
        994    1    1    2    0    0  0.19936553798E+02  0.10283144750E+01  0.35413809288E+01  0.17239636013E+03  0.17120000000E+03 0.  0.
        998    1    1    2    0    0  0.55382026016E-01  0.46746360276E+01  0.14037163890E+04  0.14037597929E+04  0.10000000000E+02 0. -1.
</event>
<event>
 5    1  0.1503263E-008  0.3832141E+03  0.7957747E-01  0.3437282E+00
         13   -1    0    0    0    0  0.00000000000E+00  0.00000000000E+00  0.14999999963E+04  0.15000000000E+04  0.10566000000E+00 0. -1.
        994   -1    0    0    0    0 -0.00000000000E+00 -0.00000000000E+00  0.11368683772E-12  0.17120000000E+03  0.17120000000E+03 0.  0.
         13    1    1    2    0    0 -0.17793664296E+02  0.14411395181E+02  0.11712444702E+03  0.11934173643E+03  0.10566000000E+00 0. -1.
        994    1    1    2    0    0  0.33191144662E+00  0.58372841451E+01  0.26324977975E+01  0.17132003414E+03  0.17120000000E+03 0.  0.
        998    1    1    2    0    0  0.17461752849E+02 -0.20248679326E+02  0.13802430515E+04  0.13805382294E+04  0.10000000000E+02 0. -1.
</event>
<event>
 5    1  0.1503263E-008  0.3850165E+03  0.7957747E-01  0.3429602E+00
         13   -1    0    0    0    0  0.00000000000E+00  0.00000000000E+00  0.14999999963E+04  0.15000000000E+04  0.10566000000E+00 0.  1.
        994   -1    0    0    0    0 -0.00000000000E+00 -0.00000000000E+00  0.11368683772E-12  0.17120000000E+03  0.17120000000E+03 0.  0.
         13    1    1    2    0    0  0.12846551637E+02 -0.39113830940E+01  0.57035087052E+02  0.58594753398E+02  0.10566000000E+00 0.  1.
        994    1    1    2    0    0 -0.25908198433E+01  0.74431212575E+01  0.18262116319E+01  0.17139103667E+03  0.17120000000E+03 0.  0.
        998    1    1    2    0    0 -0.10255731793E+02 -0.35317381634E+01  0.14411386976E+04  0.14412142099E+04  0.10000000000E+02 0.  1.
</event>
<event>
 5    1  0.1503263E-008  0.3853060E+03  0.7957747E-01  0.3428375E+00
         13   -1    0    0    0    0  0.00000000000E+00  0.00000000000E+00  0.14999999963E+04  0.15000000000E+04  0.10566000000E+00 0. -1.
        994   -1    0    0    0    0 -0.00000000000E+00 -0.00000000000E+00  0.11368683772E-12  0.17120000000E+03  0.17120000000E+03 0.  0.
         13    1    1    2    0    0  0.15689903024E+02 -0.43477109284E+01  0.93525023892E+02  0.94931643330E+02  0.10566000000E+00 0. -1.
        994    1    1    2    0    0 -0.49223576405E+01  0.33480018749E+01  0.15947151770E+01  0.17131089235E+03  0.17120000000E+03 0.  0.
        998    1    1    2    0    0 -0.10767545383E+02  0.99970905353E+00  0.14048802572E+04  0.14049574643E+04  0.10000000000E+02 0. -1.
</event>
<event>
 5    1  0.1503263E-008  0.3731608E+03  0.7957747E-01  0.3481489E+00
         13   -1    0    0    0    0  0.00000000000E+00  0.00000000000E+00  0.14999999963E+04  0.15000000000E+04  0.10566000000E+00 0.  1.
        994   -1    0    0    0    0 -0.00000000000E+00 -0.00000000000E+00  0.11368683772E-12  0.17120000000E+03  0.17120000000E+03 0.  0.
         13    1    1    2    0    0 -0.14876069464E+03 -0.61803028448E+02  0.68323791893E+03  0.70197109885E+03  0.10566000000E+00 0.  1.
        994    1    1    2    0    0  0.15177629387E+03  0.93509273992E+02  0.12557057512E+03  0.27723173888E+03  0.17120000000E+03 0.  0.
        998    1    1    2    0    0 -0.30155992243E+01 -0.31706245545E+02  0.69119150223E+03  0.69199716228E+03  0.10000000000E+02 0.  1.
</event>
<event>
 5    1  0.1503263E-008  0.3820112E+03  0.7957747E-01  0.3442448E+00
         13   -1    0    0    0    0  0.00000000000E+00  0.00000000000E+00  0.14999999963E+04  0.15000000000E+04  0.10566000000E+00 0.  1.
        994   -1    0    0    0    0 -0.00000000000E+00 -0.00000000000E+00  0.11368683772E-12  0.17120000000E+03  0.17120000000E+03 0.  0.
         13    1    1    2    0    0 -0.30178179088E+01 -0.99311378423E+01  0.15917461541E+02  0.19002933188E+02  0.10566000000E+00 0.  1.
        994    1    1    2    0    0  0.42113440519E+01  0.80378832015E+01  0.33948551344E+01  0.17147392812E+03  0.17120000000E+03 0.  0.
        998    1    1    2    0    0 -0.11935261431E+01  0.18932546408E+01  0.14806876796E+04  0.14807231387E+04  0.10000000000E+02 0.  1.
</event>
<event>
 5    1  0.1503263E-008  0.3753414E+03  0.7957747E-01  0.3471697E+00
         13   -1    0    0    0    0  0.00000000000E+00  0.00000000000E+00  0.14999999963E+04  0.15000000000E+04  0.10566000000E+00 0. -1.
        994   -1    0    0    0    0 -0.00000000000E+00 -0.00000000000E+00  0.11368683772E-12  0.17120000000E+03  0.17120000000E+03 0.  0.
         13    1    1    2    0    0  0.75498695012E+02  0.15575505359E+02  0.33452903115E+03  0.34329627606E+03  0.10566000000E+00 0. -1.
        994    1    1    2    0    0 -0.85051650977E+02 -0.14966593206E+01  0.31482654025E+02  0.19374369881E+03  0.17120000000E+03 0.  0.
        998    1    1    2    0    0  0.95529559645E+01 -0.14078846038E+02  0.11339883111E+04  0.11341600251E+04  0.10000000000E+02 0. -1.
</event>
<event>
 5    1  0.1503263E-008  0.3796565E+03  0.7957747E-01  0.3452656E+00
         13   -1    0    0    0    0  0.00000000000E+00  0.00000000000E+00  0.14999999963E+04  0.15000000000E+04  0.10566000000E+00 0.  1.
        994   -1    0    0    0    0 -0.00000000000E+00 -0.00000000000E+00  0.11368683772E-12  0.17120000000E+03  0.17120000000E+03 0.  0.
         13    1    1    2    0    0  0.11680134296E+02 -0.16791463017E+01  0.14253923668E+02  0.18504879720E+02  0.10566000000E+00 0.  1.
        994    1    1    2    0    0 -0.11149096442E+02 -0.85995976703E+01  0.49704228395E+01  0.17184993609E+03  0.17120000000E+03 0.  0.
        998    1    1    2    0    0 -0.53103785421E+00  0.10278743972E+02  0.14807756498E+04  0.14808451842E+04  0.10000000000E+02 0.  1.
</event>
<event>
 5    1  0.1503263E-008  0.3847821E+03  0.7957747E-01  0.3430597E+00
         13   -1    0    0    0    0  0.00000000000E+00  0.00000000000E+00  0.14999999963E+04  0.15000000000E+04  0.10566000000E+00 0.  1.
        994   -1    0    0    0    0 -0.00000000000E+00 -0.00000000000E+00  0.11368683772E-12  0.17120000000E+03  0.17120000000E+03 0.  0.
         13    1    1    2    0    0 -0.51570847775E+01  0.11931523839E+02  0.48716142197E+02  0.50420536086E+02  0.10566000000E+00 0.  1.
        994    1    1    2    0    0  0.52717690537E+01 -0.59989895649E+01  0.19482781666E+01  0.17139724389E+03  0.17120000000E+03 0.  0.
        998    1    1    2    0    0 -0.11468427618E+00 -0.59325342741E+01  0.14493355759E+04  0.14493822200E+04  0.10000000000E+02 0.  1.
</event>
<event>
 5    1  0.1503263E-008  0.3823228E+03  0.7957747E-01  0.3441106E+00
         13   -1    0    0    0    0  0.00000000000E+00  0.00000000000E+00  0.14999999963E+04  0.15000000000E+04  0.10566000000E+00 0. -1.
        994   -1    0    0    0    0 -0.00000000000E+00 -0.00000000000E+00  0.11368683772E-12  0.17120000000E+03  0.17120000000E+03 0.  0.
         13    1    1    2    0    0  0.82978659183E+01  0.20435702320E+02  0.77622534863E+02  0.80695362883E+02  0.10566000000E+00 0. -1.
        994    1    1    2    0    0 -0.38509591543E+02 -0.93009690203E+01  0.81894313277E+01  0.17591476189E+03  0.17120000000E+03 0.  0.
        998    1    1    2    0    0  0.30211725625E+02 -0.11134733300E+02  0.14141880301E+04  0.14145898752E+04  0.10000000000E+02 0. -1.
</event>
<event>
 5    1  0.1503263E-008  0.3834253E+03  0.7957747E-01  0.3436378E+00
         13   -1    0    0    0    0  0.00000000000E+00  0.00000000000E+00  0.14999999963E+04  0.15000000000E+04  0.10566000000E+00 0.  1.
        994   -1    0    0    0    0 -0.00000000000E+00 -0.00000000000E+00  0.11368683772E-12  0.17120000000E+03  0.17120000000E+03 0.  0.
         13    1    1    2    0    0  0.11742320299E+02 -0.83618334274E+01  0.42750886858E+02  0.45115982040E+02  0.10566000000E+00 0.  1.
        994    1    1    2    0    0 -0.16625944324E+02 -0.10146051161E+02  0.36689638403E+01  0.17234345266E+03  0.17120000000E+03 0.  0.
        998    1    1    2    0    0  0.48836240249E+01  0.18507884589E+02  0.14535801456E+04  0.14537405653E+04  0.10000000000E+02 0.  1.
</event>
<event>
 5    1  0.1503263E-008  0.3806583E+03  0.7957747E-01  0.3448297E+00
         13   -1    0    0    0    0  0.00000000000E+00  0.00000000000E+00  0.14999999963E+04  0.15000000000E+04  0.10566000000E+00 0.  1.
        994   -1    0    0    0    0 -0.00000000000E+00 -0.00000000000E+00  0.11368683772E-12  0.17120000000E+03  0.17120000000E+03 0.  0.
         13    1    1    2    0    0 -0.31928500108E+02 -0.58696214254E+02  0.39374812584E+03  0.39937735596E+03  0.10566000000E+00 0.  1.
        994    1    1    2    0    0  0.34580200942E+02  0.66603930706E+02  0.22821389262E+02  0.18831391263E+03  0.17120000000E+03 0.  0.
        998    1    1    2    0    0 -0.26517008343E+01 -0.79077164526E+01  0.10834304812E+04  0.10835087314E+04  0.10000000000E+02 0.  1.
</event>
<event>
 5    1  0.1503263E-008  0.3831752E+03  0.7957747E-01  0.3437449E+00
         13   -1    0    0    0    0  0.00000000000E+00  0.00000000000E+00  0.14999999963E+04  0.15000000000E+04  0.10566000000E+00 0. -1.
        994   -1    0    0    0    0 -0.00000000000E+00 -0.00000000000E+00  0.11368683772E-12  0.17120000000E+03  0.17120000000E+03 0.  0.
         13    1    1    2    0    0 -0.13512335806E+02 -0.16662721837E+01  0.35401947644E+02  0.37929787014E+02  0.10566000000E+00 0. -1.
        994    1    1    2    0    0  0.11127834674E+02  0.25961554143E+01  0.29709132946E+01  0.17160662882E+03  0.17120000000E+03 0.  0.
        998    1    1    2    0    0  0.23845011319E+01 -0.92988323058E+00  0.14616271353E+04  0.14616635842E+04  0.10000000000E+02 0. -1.
</event>
<event>
 5    1  0.1503263E-008  0.3790153E+03  0.7957747E-01  0.3455457E+00
         13   -1    0    0    0    0  0.00000000000E+00  0.00000000000E+00  0.14999999963E+04  0.15000000000E+04  0.10566000000E+00 0. -1.
        994   -1    0    0    0    0 -0.00000000000E+00 -0.00000000000E+00  0.11368683772E-12  0.17120000000E+03  0.17120000000E+03 0.  0.
         13    1    1    2    0    0  0.11723320064E+02  0.75428698953E+01  0.18913227234E+02  0.23495796391E+02  0.10566000000E+00 0. -1.
        994    1    1    2    0    0 -0.10628185790E+02 -0.56206887917E+01  0.51159841040E+01  0.17169788516E+03  0.17120000000E+03 0.  0.
        998    1    1    2    0    0 -0.10951342743E+01 -0.19221811036E+01  0.14759707849E+04  0.14760063184E+04  0.10000000000E+02 0. -1.
</event>
<event>
 5    1  0.1503263E-008  0.3806636E+03  0.7957747E-01  0.3448274E+00
         13   -1    0    0    0    0  0.00000000000E+00  0.00000000000E+00  0.14999999963E+04  0.15000000000E+04  0.10566000000E+00 0. -1.
        994   -1    0    0    0    0 -0.00000000000E+00 -0.00000000000E+00  0.11368683772E-12  0.17120000000E+03  0.17120000000E+03 0.  0.
         13    1    1    2    0    0  0.23355778341E+02 -0.89769050076E+01  0.85963207215E+02  0.89530784450E+02  0.10566000000E+00 0. -1.
        994    1    1    2    0    0 -0.74858681909E+01 -0.84409424242E+01  0.42232571175E+01  0.17162331902E+03  0.17120000000E+03 0.  0.
        998    1    1    2    0    0 -0.15869910150E+02  0.17417847432E+02  0.14098135319E+04  0.14100458965E+04  0.10000000000E+02 0. -1.
</event>
<event>
 5    1  0.1503263E-008  0.3821492E+03  0.7957747E-01  0.3441853E+00
         13   -1    0    0    0    0  0.00000000000E+00  0.00000000000E+00  0.14999999963E+04  0.15000000000E+04  0.10566000000E+00 0.  1.
        994   -1    0    0    0    0 -0.00000000000E+00 -0.00000000000E+00  0.11368683772E-12  0.17120000000E+03  0.17120000000E+03 0.  0.
         13    1    1    2    0    0  0.14218688673E+02 -0.20164668844E+02  0.11124166045E+03  0.11394517611E+03  0.10566000000E+00 0.  1.
        994    1    1    2    0    0  0.13373678084E+02  0.52188898725E+01  0.37365226480E+01  0.17184147834E+03  0.17120000000E+03 0.  0.
        998    1    1    2    0    0 -0.27592366757E+02  0.14945778971E+02  0.13850218132E+04  0.13854133455E+04  0.10000000000E+02 0.  1.
</event>
<event>
 5    1  0.1503263E-008  0.3850742E+03  0.7957747E-01  0.3429358E+00
         13   -1    0    0    0    0  0.00000000000E+00  0.00000000000E+00  0.14999999963E+04  0.15000000000E+04  0.10566000000E+00 0. -1.
        994   -1    0    0    0    0 -0.00000000000E+00 -0.00000000000E+00  0.11368683772E-12  0.17120000000E+03  0.17120000000E+03 0.  0.
         13    1    1    2    0    0  0.94363863870E+01 -0.39993878303E+01  0.32950913693E+02  0.34508178282E+02  0.10566000000E+00 0. -1.
        994    1    1    2    0    0 -0.56693235107E+01  0.18162919383E+01  0.17098574984E+01  0.17131200705E+03  0.17120000000E+03 0.  0.
        998    1    1    2    0    0 -0.37670628763E+01  0.21830958919E+01  0.14653392251E+04  0.14653798147E+04  0.10000000000E+02 0. -1.
</event>
<event>
 5    1  0.1503263E-008  0.3837319E+03  0.7957747E-01  0.3435068E+00
         13   -1    0    0    0    0  0.00000000000E+00  0.00000000000E+00  0.14999999963E+04  0.15000000000E+04  0.10566000000E+00 0. -1.
        994   -1    0    0    0    0 -0.00000000000E+00 -0.00000000000E+00  0.11368683772E-12  0.17120000000E+03  0.17120000000E+03 0.  0.
         13    1    1    2    0    0  0.20004117190E+01  0.10466946505E+02  0.24885494639E+02  0.27071343218E+02  0.10566000000E+00 0. -1.
        994    1    1    2    0    0 -0.35587069327E+00 -0.16555204133E+01  0.22704959495E+01  0.17122342872E+03  0.17120000000E+03 0.  0.
        998    1    1    2    0    0 -0.16445410257E+01 -0.88114260918E+01  0.14728440057E+04  0.14729052281E+04  0.10000000000E+02 0. -1.
</event>
<event>
 5    1  0.1503263E-008  0.3776278E+03  0.7957747E-01  0.3461553E+00
         13   -1    0    0    0    0  0.00000000000E+00  0.00000000000E+00  0.14999999963E+04  0.15000000000E+04  0.10566000000E+00 0. -1.
        994   -1    0    0    0    0 -0.00000000000E+00 -0.00000000000E+00  0.11368683772E-12  0.17120000000E+03  0.17120000000E+03 0.  0.
         13    1    1    2    0    0 -0.34465662681E+02  0.14620114416E+02  0.12610510861E+03  0.13154519843E+03  0.10566000000E+00 0. -1.
        994    1    1    2    0    0  0.20069290691E+02 -0.23380770718E+02  0.85410502739E+01  0.17416034683E+03  0.17120000000E+03 0.  0.
        998    1    1    2    0    0  0.14396371990E+02  0.87606563017E+01  0.13653538374E+04  0.13654944547E+04  0.10000000000E+02 0. -1.
</event>
<event>
 5    1  0.1503263E-008  0.3838656E+03  0.7957747E-01  0.3434498E+00
         13   -1    0    0    0    0  0.00000000000E+00  0.00000000000E+00  0.14999999963E+04  0.15000000000E+04  0.10566000000E+00 0. -1.
        994   -1    0    0    0    0 -0.00000000000E+00 -0.00000000000E+00  0.11368683772E-12  0.17120000000E+03  0.17120000000E+03 0.  0.
         13    1    1    2    0    0  0.14128346435E+02 -0.74036493387E+01  0.55436060430E+02  0.57685285442E+02  0.10566000000E+00 0. -1.
        994    1    1    2    0    0 -0.32337954436E+02 -0.21861837011E+02  0.72400547608E+01  0.17574282804E+03  0.17120000000E+03 0.  0.
        998    1    1    2    0    0  0.18209608000E+02  0.29265486350E+02  0.14373238811E+04  0.14377718865E+04  0.10000000000E+02 0. -1.
</event>
<event>
 5    1  0.1503263E-008  0.3772552E+03  0.7957747E-01  0.3463198E+00
         13   -1    0    0    0    0  0.00000000000E+00  0.00000000000E+00  0.14999999963E+04  0.15000000000E+04  0.10566000000E+00 0.  1.
        994   -1    0    0    0    0 -0.00000000000E+00 -0.00000000000E+00  0.11368683772E-12  0.17120000000E+03  0.17120000000E+03 0.  0.
         13    1    1    2    0    0  0.32035472720E+02 -0.42805783586E+02  0.18155158610E+03  0.18926065677E+03  0.10566000000E+00 0.  1.
        994    1    1    2    0    0 -0.51591445319E+02  0.73109111215E+02  0.33031139035E+02  0.19597733420E+03  0.17120000000E+03 0.  0.
        998    1    1    2    0    0  0.19555972599E+02 -0.30303327629E+02  0.12854172711E+04  0.12859620090E+04  0.10000000000E+02 0.  1.
</event>
<event>
 5    1  0.1503263E-008  0.3776470E+03  0.7957747E-01  0.3461468E+00
         13   -1    0    0    0    0  0.00000000000E+00  0.00000000000E+00  0.14999999963E+04  0.15000000000E+04  0.10566000000E+00 0. -1.
        994   -1    0    0    0    0 -0.00000000000E+00 -0.00000000000E+00  0.11368683772E-12  0.17120000000E+03  0.17120000000E+03 0.  0.
         13    1    1    2    0    0 -0.22882827993E+02 -0.22847803262E+02  0.12965782704E+03  0.13362937254E+03  0.10566000000E+00 0. -1.
        994    1    1    2    0    0 -0.77854580499E+00 -0.46961565802E+02  0.12794271293E+02  0.17798631457E+03  0.17120000000E+03 0.  0.
        998    1    1    2    0    0  0.23661373798E+02  0.69809369064E+02  0.13575478979E+04  0.13595843129E+04  0.10000000000E+02 0. -1.
</event>
<event>
 5    1  0.1503263E-008  0.3754344E+03  0.7957747E-01  0.3471282E+00
         13   -1    0    0    0    0  0.00000000000E+00  0.00000000000E+00  0.14999999963E+04  0.15000000000E+04  0.10566000000E+00 0.  1.
        994   -1    0    0    0    0 -0.00000000000E+00 -0.00000000000E+00  0.11368683772E-12  0.17120000000E+03  0.17120000000E+03 0.  0.
         13    1    1    2    0    0 -0.15306826071E+02  0.74247502449E+02  0.33324173369E+03  0.34175584089E+03  0.10566000000E+00 0.  1.
        994    1    1    2    0    0  0.17723143852E+02 -0.77528400300E+02  0.28235551726E+02  0.19087024143E+03  0.17120000000E+03 0.  0.
        998    1    1    2    0    0 -0.24163177814E+01  0.32808978509E+01  0.11385227109E+04  0.11385739177E+04  0.10000000000E+02 0.  1.
</event>
<event>
 5    1  0.1503263E-008  0.3596878E+03  0.7957747E-01  0.3544669E+00
         13   -1    0    0    0    0  0.00000000000E+00  0.00000000000E+00  0.14999999963E+04  0.15000000000E+04  0.10566000000E+00 0. -1.
        994   -1    0    0    0    0 -0.00000000000E+00 -0.00000000000E+00  0.11368683772E-12  0.17120000000E+03  0.17120000000E+03 0.  0.
         13    1    1    2    0    0  0.77454645149E+02 -0.27516762625E+03  0.87080801291E+03  0.91652771431E+03  0.10566000000E+00 0. -1.
        994    1    1    2    0    0 -0.12330577971E+03  0.27117423690E+03  0.43220255825E+03  0.55213066699E+03  0.17120000000E+03 0.  0.
        998    1    1    2    0    0  0.45851134558E+02  0.39933893572E+01  0.19698942512E+03  0.20254161870E+03  0.10000000000E+02 0.  1.
</event>
<event>
 5    1  0.1503263E-008  0.3709911E+03  0.7957747E-01  0.3491348E+00
         13   -1    0    0    0    0  0.00000000000E+00  0.00000000000E+00  0.14999999963E+04  0.15000000000E+04  0.10566000000E+00 0. -1.
        994   -1    0    0    0    0 -0.00000000000E+00 -0.00000000000E+00  0.11368683772E-12  0.17120000000E+03  0.17120000000E+03 0.  0.
         13    1    1    2    0    0 -0.24343056728E+02 -0.15396911801E+02  0.43417855647E+02  0.52103461083E+02  0.10566000000E+00 0. -1.
        994    1    1    2    0    0  0.25205009808E+02  0.46278885261E+01  0.11018191242E+02  0.17345763290E+03  0.17120000000E+03 0.  0.
        998    1    1    2    0    0 -0.86195307953E+00  0.10769023274E+02  0.14455639494E+04  0.14456389060E+04  0.10000000000E+02 0. -1.
</event>
<event>
 5    1  0.1503263E-008  0.3739925E+03  0.7957747E-01  0.3477741E+00
         13   -1    0    0    0    0  0.00000000000E+00  0.00000000000E+00  0.14999999963E+04  0.15000000000E+04  0.10566000000E+00 0.  1.
        994   -1    0    0    0    0 -0.00000000000E+00 -0.00000000000E+00  0.11368683772E-12  0.17120000000E+03  0.17120000000E+03 0.  0.
         13    1    1    2    0    0 -0.16430797217E+02 -0.59753885086E+02  0.31448638403E+03  0.32053423340E+03  0.10566000000E+00 0.  1.
        994    1    1    2    0    0 -0.38742200404E+01  0.14704422197E+02  0.79860523343E+01  0.17205942765E+03  0.17120000000E+03 0.  0.
        998    1    1    2    0    0  0.20305017257E+02  0.45049462889E+02  0.11775275599E+04  0.11786063389E+04  0.10000000000E+02 0.  1.
</event>
<event>
 5    1  0.1503263E-008  0.3862923E+03  0.7957747E-01  0.3424210E+00
         13   -1    0    0    0    0  0.00000000000E+00  0.00000000000E+00  0.14999999963E+04  0.15000000000E+04  0.10566000000E+00 0.  1.
        994   -1    0    0    0    0 -0.00000000000E+00 -0.00000000000E+00  0.11368683772E-12  0.17120000000E+03  0.17120000000E+03 0.  0.
         13    1    1    2    0    0  0.77995846187E+01  0.87546669984E+01  0.70111908233E+02  0.71085642394E+02  0.10566000000E+00 0.  1.
        994    1    1    2    0    0 -0.89282889224E+01 -0.36571312667E+01  0.12948146952E+01  0.17147654504E+03  0.17120000000E+03 0.  0.
        998    1    1    2    0    0  0.11287043036E+01 -0.50975357317E+01  0.14285932734E+04  0.14286378126E+04  0.10000000000E+02 0.  1.
</event>
<event>
 5    1  0.1503263E-008  0.3848757E+03  0.7957747E-01  0.3430200E+00
         13   -1    0    0    0    0  0.00000000000E+00  0.00000000000E+00  0.14999999963E+04  0.15000000000E+04  0.10566000000E+00 0.  1.
        994   -1    0    0    0    0 -0.00000000000E+00 -0.00000000000E+00  0.11368683772E-12  0.17120000000E+03  0.17120000000E+03 0.  0.
         13    1    1    2    0    0 -0.70233490777E+01 -0.15767171703E+02  0.95715148134E+02  0.97259096655E+02  0.10566000000E+00 0.  1.
        994    1    1    2    0    0  0.38080903876E+01 -0.14652914635E+01  0.17466605700E+01  0.17125752379E+03  0.17120000000E+03 0.  0.
        998    1    1    2    0    0  0.32152586901E+01  0.17232463167E+02  0.14025381876E+04  0.14026833796E+04  0.10000000000E+02 0.  1.
</event>
<event>
 5    1  0.1503263E-008  0.3858793E+03  0.7957747E-01  0.3425952E+00
         13   -1    0    0    0    0  0.00000000000E+00  0.00000000000E+00  0.14999999963E+04  0.15000000000E+04  0.10566000000E+00 0.  1.
        994   -1    0    0    0    0 -0.00000000000E+00 -0.00000000000E+00  0.11368683772E-12  0.17120000000E+03  0.17120000000E+03 0.  0.
         13    1    1    2    0    0 -0.57357093219E+01  0.12078458767E+02  0.73976905598E+02  0.75175669292E+02  0.10566000000E+00 0.  1.
        994    1    1    2    0    0 -0.86764700381E+00 -0.13292753472E+02  0.17763501704E+01  0.17172665933E+03  0.17120000000E+03 0.  0.
        998    1    1    2    0    0  0.66033563257E+01  0.12142947054E+01  0.14242467405E+04  0.14242976714E+04  0.10000000000E+02 0.  1.
</event>
<event>
 5    1  0.1503263E-008  0.3782200E+03  0.7957747E-01  0.3458946E+00
         13   -1    0    0    0    0  0.00000000000E+00  0.00000000000E+00  0.14999999963E+04  0.15000000000E+04  0.10566000000E+00 0.  1.
        994   -1    0    0    0    0 -0.00000000000E+00 -0.00000000000E+00  0.11368683772E-12  0.17120000000E+03  0.17120000000E+03 0.  0.
         13    1    1    2    0    0 -0.10118831908E+02  0.87605612144E+01  0.15291252690E+02  0.20321706741E+02  0.10566000000E+00 0.  1.
        994    1    1    2    0    0  0.12912656599E+02 -0.12487888553E+02  0.61202055880E+01  0.17224860225E+03  0.17120000000E+03 0.  0.
        998    1    1    2    0    0 -0.27938246911E+01  0.37273273391E+01  0.14785885380E+04  0.14786296910E+04  0.10000000000E+02 0.  1.
</event>
<event>
 5    1  0.1503263E-008  0.3804407E+03  0.7957747E-01  0.3449242E+00
         13   -1    0    0    0    0  0.00000000000E+00  0.00000000000E+00  0.14999999963E+04  0.15000000000E+04  0.10566000000E+00 0. -1.
        994   -1    0    0    0    0 -0.00000000000E+00 -0.00000000000E+00  0.11368683772E-12  0.17120000000E+03  0.17120000000E+03 0.  0.
         13    1    1    2    0    0 -0.45554852527E+01  0.17695053060E+02  0.40605276725E+02  0.44527149141E+02  0.10566000000E+00 0. -1.
        994    1    1    2    0    0  0.68115032735E+01 -0.15119549702E+02  0.48293276086E+01  0.17206905522E+03  0.17120000000E+03 0.  0.
        998    1    1    2    0    0 -0.22560180208E+01 -0.25755033581E+01  0.14545653919E+04  0.14546037956E+04  0.10000000000E+02 0. -1.
</event>
<event>
 5    1  0.1503263E-008  0.3817297E+03  0.7957747E-01  0.3443662E+00
         13   -1    0    0    0    0  0.00000000000E+00  0.00000000000E+00  0.14999999963E+04  0.15000000000E+04  0.10566000000E+00 0.  1.
        994   -1    0    0    0    0 -0.00000000000E+00 -0.00000000000E+00  0.11368683772E-12  0.17120000000E+03  0.17120000000E+03 0.  0.
         13    1    1    2    0    0  0.44365547673E-01  0.12912207458E+02  0.25607903634E+02  0.28679312445E+02  0.10566000000E+00 0.  1.
        994    1    1    2    0    0  0.67639076365E+01  0.78905296901E+01  0.36216586626E+01  0.17155339494E+03  0.17120000000E+03 0.  0.
        998    1    1    2    0    0 -0.68082731841E+01 -0.20802737148E+02  0.14707704340E+04  0.14709672926E+04  0.10000000000E+02 0.  1.
</event>
<event>
 5    1  0.1503263E-008  0.3830057E+03  0.7957747E-01  0.3438174E+00
         13   -1    0    0    0    0  0.00000000000E+00  0.00000000000E+00  0.14999999963E+04  0.15000000000E+04  0.10566000000E+00 0. -1.
        994   -1    0    0    0    0 -0.00000000000E+00 -0.00000000000E+00  0.11368683772E-12  0.17120000000E+03  0.17120000000E+03 0.  0.
         13    1    1    2    0    0 -0.12577157255E+02  0.10192265532E+02  0.49617777972E+02  0.52191974634E+02  0.10566000000E+00 0. -1.
        994    1    1    2    0    0  0.26016149466E+01 -0.10508409346E+02  0.30115140627E+01  0.17156836621E+03  0.17120000000E+03 0.  0.
        998    1    1    2    0    0  0.99755423084E+01  0.31614381361E+00  0.14473707042E+04  0.14474396592E+04  0.10000000000E+02 0. -1.
</event>
<event>
 5    1  0.1503263E-008  0.3699149E+03  0.7957747E-01  0.3496282E+00
         13   -1    0    0    0    0  0.00000000000E+00  0.00000000000E+00  0.14999999963E+04  0.15000000000E+04  0.10566000000E+00 0.  1.
        994   -1    0    0    0    0 -0.00000000000E+00 -0.00000000000E+00  0.11368683772E-12  0.17120000000E+03  0.17120000000E+03 0.  0.
         13    1    1    2    0    0  0.61915438417E+02  0.71097685205E+02  0.53042471624E+03  0.53873814894E+03  0.10566000000E+00 0.  1.
        994    1    1    2    0    0 -0.23801459475E+02 -0.36788768830E+02  0.15983319687E+02  0.17743965029E+03  0.17120000000E+03 0.  0.
        998    1    1    2    0    0 -0.38113978942E+02 -0.34308916375E+02  0.95359196035E+03  0.95502220078E+03  0.10000000000E+02 0.  1.
</event>
<event>
 5    1  0.1503263E-008  0.3813145E+03  0.7957747E-01  0.3445455E+00
         13   -1    0    0    0    0  0.00000000000E+00  0.00000000000E+00  0.14999999963E+04  0.15000000000E+04  0.10566000000E+00 0.  1.
        994   -1    0    0    0    0 -0.00000000000E+00 -0.00000000000E+00  0.11368683772E-12  0.17120000000E+03  0.17120000000E+03 0.  0.
         13    1    1    2    0    0 -0.11203945730E+02 -0.41947724407E+01  0.19544890218E+02  0.22915898705E+02  0.10566000000E+00 0.  1.
        994    1    1    2    0    0  0.21273242038E+01  0.45582643004E+00  0.34868032196E+01  0.17124932433E+03  0.17120000000E+03 0.  0.
        998    1    1    2    0    0  0.90766215266E+01  0.37389460107E+01  0.14769683028E+04  0.14770347770E+04  0.10000000000E+02 0.  1.
</event>
<event>
 5    1  0.1503263E-008  0.3750699E+03  0.7957747E-01  0.3472910E+00
         13   -1    0    0    0    0  0.00000000000E+00  0.00000000000E+00  0.14999999963E+04  0.15000000000E+04  0.10566000000E+00 0. -1.
        994   -1    0    0    0    0 -0.00000000000E+00 -0.00000000000E+00  0.11368683772E-12  0.17120000000E+03  0.17120000000E+03 0.  0.
         13    1    1    2    0    0 -0.33313604315E+02  0.15954895284E+02  0.10695999554E+03  0.11315832592E+03  0.10566000000E+00 0. -1.
        994    1    1    2    0    0  0.58161851784E+01 -0.63982232576E+01  0.68969472536E+01  0.17155690937E+03  0.17120000000E+03 0.  0.
        998    1    1    2    0    0  0.27497419136E+02 -0.95566720259E+01  0.13861430535E+04  0.13864847647E+04  0.10000000000E+02 0. -1.
</event>
<event>
 5    1  0.1503263E-008  0.3815336E+03  0.7957747E-01  0.3444508E+00
         13   -1    0    0    0    0  0.00000000000E+00  0.00000000000E+00  0.14999999963E+04  0.15000000000E+04  0.10566000000E+00 0.  1.
        994   -1    0    0    0    0 -0.00000000000E+00 -0.00000000000E+00  0.11368683772E-12  0.17120000000E+03  0.17120000000E+03 0.  0.
         13    1    1    2    0    0 -0.19575086306E+02  0.34649336834E+01  0.61921479385E+02  0.65034379697E+02  0.10566000000E+00 0.  1.
        994    1    1    2    0    0 -0.34534471738E+01 -0.19458513584E+01  0.34132529633E+01  0.17127989646E+03  0.17120000000E+03 0.  0.
        998    1    1    2    0    0  0.23028533480E+02 -0.15190823250E+01  0.14346652639E+04  0.14348857238E+04  0.10000000000E+02 0.  1.
</event>
<event>
 5    1  0.1503263E-008  0.3851407E+03  0.7957747E-01  0.3429076E+00
         13   -1    0    0    0    0  0.00000000000E+00  0.00000000000E+00  0.14999999963E+04  0.15000000000E+04  0.10566000000E+00 0.  1.
        994   -1    0    0    0    0 -0.00000000000E+00 -0.00000000000E+00  0.11368683772E-12  0.17120000000E+03  0.17120000000E+03 0.  0.
         13    1    1    2    0    0  0.15078969448E+02 -0.66502018172E+01  0.86965935296E+02  0.88513759212E+02  0.10566000000E+00 0.  1.
        994    1    1    2    0    0 -0.10448195412E+02  0.35661198717E+01  0.19610244791E+01  0.17156680219E+03  0.17120000000E+03 0.  0.
        998    1    1    2    0    0 -0.46307740360E+01  0.30840819455E+01  0.14110730365E+04  0.14111194386E+04  0.10000000000E+02 0.  1.
</event>
<event>
 5    1  0.1503263E-008  0.3818103E+03  0.7957747E-01  0.3443314E+00
         13   -1    0    0    0    0  0.00000000000E+00  0.00000000000E+00  0.14999999963E+04  0.15000000000E+04  0.10566000000E+00 0.  1.
        994   -1    0    0    0    0 -0.00000000000E+00 -0.00000000000E+00  0.11368683772E-12  0.17120000000E+03  0.17120000000E+03 0.  0.
         13    1    1    2    0    0 -0.18030176068E+02  0.78624404830E+00  0.46838695377E+02  0.50195417892E+02  0.10566000000E+00 0.  1.
        994    1    1    2    0    0  0.25083815994E+02 -0.45575452211E+01  0.53849590872E+01  0.17317161092E+03  0.17120000000E+03 0.  0.
        998    1    1    2    0    0 -0.70536399257E+01  0.37713011728E+01  0.14477763418E+04  0.14478329712E+04  0.10000000000E+02 0.  1.
</event>
<event>
 5    1  0.1503263E-008  0.3917731E+03  0.7957747E-01  0.3401445E+00
         13   -1    0    0    0    0  0.00000000000E+00  0.00000000000E+00  0.14999999963E+04  0.15000000000E+04  0.10566000000E+00 0. -1.
        994   -1    0    0    0    0 -0.00000000000E+00 -0.00000000000E+00  0.11368683772E-12  0.17120000000E+03  0.17120000000E+03 0.  0.
         13    1    1    2    0    0  0.36796288167E+02 -0.61633850234E+02  0.12820302645E+03  0.14693102284E+03  0.10566000000E+00 0. -1.
        994    1    1    2    0    0  0.69487153511E+02  0.23886517100E+02  0.43706272520E+02  0.19136015379E+03  0.17120000000E+03 0.  0.
        998    1    1    2    0    0 -0.10628344168E+03  0.37747333134E+02  0.13280906973E+04  0.13329088234E+04  0.10000000000E+02 0. -1.
</event>
<event>
 5    1  0.1503263E-008  0.3848988E+03  0.7957747E-01  0.3430102E+00
         13   -1    0    0    0    0  0.00000000000E+00  0.00000000000E+00  0.14999999963E+04  0.15000000000E+04  0.10566000000E+00 0. -1.
        994   -1    0    0    0    0 -0.00000000000E+00 -0.00000000000E+00  0.11368683772E-12  0.17120000000E+03  0.17120000000E+03 0.  0.
         13    1    1    2    0    0 -0.81063499056E+01  0.61869195610E+01  0.31448936182E+02  0.33061119664E+02  0.10566000000E+00 0. -1.
        994    1    1    2    0    0 -0.42204359691E+01 -0.78695397486E+01  0.19427781591E+01  0.17144374040E+03  0.17120000000E+03 0.  0.
        998    1    1    2    0    0  0.12326785875E+02  0.16826201877E+01  0.14666082819E+04  0.14666951399E+04  0.10000000000E+02 0. -1.
</event>
<event>
 5    1  0.1503263E-008  0.3785529E+03  0.7957747E-01  0.3457484E+00
         13   -1    0    0    0    0  0.00000000000E+00  0.00000000000E+00  0.14999999963E+04  0.15000000000E+04  0.10566000000E+00 0. -1.
        994   -1    0    0    0    0 -0.00000000000E+00 -0.00000000000E+00  0.11368683772E-12  0.17120000000E+03  0.17120000000E+03 0.  0.
         13    1    1    2    0    0 -0.37997128501E+02  0.28480779433E+01  0.15402103778E+03  0.15866437711E+03  0.10566000000E+00 0. -1.
        994    1    1    2    0    0  0.15433137159E+02  0.21528361188E+01  0.56814383935E+01  0.17200155571E+03  0.17120000000E+03 0.  0.
        998    1    1    2    0    0  0.22563991342E+02 -0.50009140620E+01  0.13402975201E+04  0.13405340672E+04  0.10000000000E+02 0. -1.
</event>
<event>
 5    1  0.1503263E-008  0.3810721E+03  0.7957747E-01  0.3446503E+00
         13   -1    0    0    0    0  0.00000000000E+00  0.00000000000E+00  0.14999999963E+04  0.15000000000E+04  0.10566000000E+00 0.  1.
        994   -1    0    0    0    0 -0.00000000000E+00 -0.00000000000E+00  0.11368683772E-12  0.17120000000E+03  0.17120000000E+03 0.  0.
         13    1    1    2    0    0  0.25291353934E+02  0.43213482826E+02  0.29080166774E+03  0.29508080047E+03  0.10566000000E+00 0.  1.
        994    1    1    2    0    0 -0.15492422278E+02 -0.46029963121E+02  0.11490498165E+02  0.17832622971E+03  0.17120000000E+03 0.  0.
        998    1    1    2    0    0 -0.97989316556E+01  0.28164802950E+01  0.11977078304E+04  0.11977929698E+04  0.10000000000E+02 0.  1.
</event>
<event>
 5    1  0.1503263E-008  0.3696505E+03  0.7957747E-01  0.3497499E+00
         13   -1    0    0    0    0  0.00000000000E+00  0.00000000000E+00  0.14999999963E+04  0.15000000000E+04  0.10566000000E+00 0. -1.
        994   -1    0    0    0    0 -0.00000000000E+00 -0.00000000000E+00  0.11368683772E-12  0.17120000000E+03  0.17120000000E+03 0.  0.
         13    1    1    2    0    0 -0.25158299554E+01 -0.53872762080E+02  0.30321029368E+03  0.30796931219E+03  0.10566000000E+00 0. -1.
        994    1    1    2    0    0 -0.50811379262E+02 -0.57326085855E+02  0.30049974032E+02  0.18994872287E+03  0.17120000000E+03 0.  0.
        998    1    1    2    0    0  0.53327209217E+02  0.11119884793E+03  0.11667397286E+04  0.11732819649E+04  0.10000000000E+02 0. -1.
</event>
<event>
 5    1  0.2800884E-008  0.3865255E+03  0.7957747E-01  0.3423228E+00
         13   -1    0    0    0    0  0.00000000000E+00  0.00000000000E+00  0.14999999963E+04  0.15000000000E+04  0.10566000000E+00 0. -1.
        994   -1    0    0    0    0 -0.00000000000E+00 -0.00000000000E+00  0.11368683772E-12  0.17120000000E+03  0.17120000000E+03 0.  0.
         13    1    1    2    0    0  0.90311291167E+01  0.49402087774E+01  0.61482427716E+02  0.62338327197E+02  0.10566000000E+00 0. -1.
        994    1    1    2    0    0 -0.57638488430E+00 -0.15920453898E+02  0.17056027069E+01  0.17194807982E+03  0.17120000000E+03 0.  0.
        998    1    1    2    0    0 -0.84547442324E+01  0.10980245121E+02  0.14368119659E+04  0.14369135930E+04  0.10000000000E+02 0. -1.
</event>
<event>
 5    1  0.1503263E-008  0.3847144E+03  0.7957747E-01  0.3430884E+00
         13   -1    0    0    0    0  0.00000000000E+00  0.00000000000E+00  0.14999999963E+04  0.15000000000E+04  0.10566000000E+00 0.  1.
        994   -1    0    0    0    0 -0.00000000000E+00 -0.00000000000E+00  0.11368683772E-12  0.17120000000E+03  0.17120000000E+03 0.  0.
         13    1    1    2    0    0  0.10832118794E+02  0.12227174691E+02  0.79833090250E+02  0.81487250914E+02  0.10566000000E+00 0.  1.
        994    1    1    2    0    0  0.10815867152E+01 -0.33763005552E+01  0.18133626022E+01  0.17124630659E+03  0.17120000000E+03 0.  0.
        998    1    1    2    0    0 -0.11913705509E+02 -0.88508741360E+01  0.14183535434E+04  0.14184664425E+04  0.10000000000E+02 0.  1.
</event>
<event>
 5    1  0.1503263E-008  0.3833697E+03  0.7957747E-01  0.3436616E+00
         13   -1    0    0    0    0  0.00000000000E+00  0.00000000000E+00  0.14999999963E+04  0.15000000000E+04  0.10566000000E+00 0.  1.
        994   -1    0    0    0    0 -0.00000000000E+00 -0.00000000000E+00  0.11368683772E-12  0.17120000000E+03  0.17120000000E+03 0.  0.
         13    1    1    2    0    0  0.39775825822E+02  0.89247549570E+01  0.38286919302E+02  0.55925548049E+02  0.10566000000E+00 0.  1.
        994    1    1    2    0    0 -0.34165766946E+02 -0.69802179325E+01  0.22664970156E+02  0.17617935164E+03  0.17120000000E+03 0.  0.
        998    1    1    2    0    0 -0.56100588757E+01 -0.19445370245E+01  0.14390481068E+04  0.14390951003E+04  0.10000000000E+02 0.  1.
</event>
<event>
 5    1  0.1503263E-008  0.3859190E+03  0.7957747E-01  0.3425784E+00
         13   -1    0    0    0    0  0.00000000000E+00  0.00000000000E+00  0.14999999963E+04  0.15000000000E+04  0.10566000000E+00 0. -1.
        994   -1    0    0    0    0 -0.00000000000E+00 -0.00000000000E+00  0.11368683772E-12  0.17120000000E+03  0.17120000000E+03 0.  0.
         13    1    1    2    0    0 -0.12077477872E+01  0.13426270413E+02  0.79428374931E+02  0.80564268135E+02  0.10566000000E+00 0. -1.
        994    1    1    2    0    0  0.79570823440E+01 -0.62902828595E+01  0.15119925070E+01  0.17150687724E+03  0.17120000000E+03 0.  0.
        998    1    1    2    0    0 -0.67493345567E+01 -0.71359875535E+01  0.14190596288E+04  0.14191288546E+04  0.10000000000E+02 0. -1.
</event>
<event>
 5    1  0.1503263E-008  0.3778339E+03  0.7957747E-01  0.3460645E+00
         13   -1    0    0    0    0  0.00000000000E+00  0.00000000000E+00  0.14999999963E+04  0.15000000000E+04  0.10566000000E+00 0. -1.
        994   -1    0    0    0    0 -0.00000000000E+00 -0.00000000000E+00  0.11368683772E-12  0.17120000000E+03  0.17120000000E+03 0.  0.
         13    1    1    2    0    0  0.70665745864E+02  0.42389626177E+02  0.46412163780E+03  0.47138034949E+03  0.10566000000E+00 0. -1.
        994    1    1    2    0    0 -0.69706873463E+02 -0.36807278275E+02  0.26446734054E+02  0.19032260424E+03  0.17120000000E+03 0.  0.
        998    1    1    2    0    0 -0.95887240160E+00 -0.55823479020E+01  0.10094316244E+04  0.10094970463E+04  0.10000000000E+02 0. -1.
</event>
<event>
 5    1  0.1503263E-008  0.3772996E+03  0.7957747E-01  0.3463002E+00
         13   -1    0    0    0    0  0.00000000000E+00  0.00000000000E+00  0.14999999963E+04  0.15000000000E+04  0.10566000000E+00 0.  1.
        994   -1    0    0    0    0 -0.00000000000E+00 -0.00000000000E+00  0.11368683772E-12  0.17120000000E+03  0.17120000000E+03 0.  0.
         13    1    1    2    0    0  0.13239760480E+02 -0.23458685246E+02  0.60421180492E+02  0.66153846352E+02  0.10566000000E+00 0.  1.
        994    1    1    2    0    0 -0.20795836987E+02  0.25492277141E+02  0.91619379017E+01  0.17457291925E+03  0.17120000000E+03 0.  0.
        998    1    1    2    0    0  0.75560765072E+01 -0.20335918950E+01  0.14304168779E+04  0.14304732344E+04  0.10000000000E+02 0.  1.
</event>
<event>
 5    1  0.1503263E-008  0.3802827E+03  0.7957747E-01  0.3449928E+00
         13   -1    0    0    0    0  0.00000000000E+00  0.00000000000E+00  0.14999999963E+04  0.15000000000E+04  0.10566000000E+00 0.  1.
        994   -1    0    0    0    0 -0.00000000000E+00 -0.00000000000E+00  0.11368683772E-12  0.17120000000E+03  0.17120000000E+03 0.  0.
         13    1    1    2    0    0  0.36805560648E+02  0.27982854521E+01  0.13254817162E+03  0.13759181902E+03  0.10566000000E+00 0.  1.
        994    1    1    2    0    0 -0.64938057284E+02  0.10115798446E+02  0.18553355263E+02  0.18431751857E+03  0.17120000000E+03 0.  0.
        998    1    1    2    0    0  0.28132496635E+02 -0.12914083898E+02  0.13488984694E+04  0.13492906624E+04  0.10000000000E+02 0.  1.
</event>
<event>
 5    1  0.1503263E-008  0.3816412E+03  0.7957747E-01  0.3444043E+00
         13   -1    0    0    0    0  0.00000000000E+00  0.00000000000E+00  0.14999999963E+04  0.15000000000E+04  0.10566000000E+00 0. -1.
        994   -1    0    0    0    0 -0.00000000000E+00 -0.00000000000E+00  0.11368683772E-12  0.17120000000E+03  0.17120000000E+03 0.  0.
         13    1    1    2    0    0 -0.28055098843E+02  0.14213924529E+02  0.17480376239E+03  0.17761050288E+03  0.10566000000E+00 0. -1.
        994    1    1    2    0    0 -0.14037777051E+00  0.48854897505E+01  0.33864108429E+01  0.17130322675E+03  0.17120000000E+03 0.  0.
        998    1    1    2    0    0  0.28195476614E+02 -0.19099414280E+02  0.13218098230E+04  0.13222862704E+04  0.10000000000E+02 0. -1.
</event>
<event>
 5    1  0.1503263E-008  0.3815284E+03  0.7957747E-01  0.3444531E+00
         13   -1    0    0    0    0  0.00000000000E+00  0.00000000000E+00  0.14999999963E+04  0.15000000000E+04  0.10566000000E+00 0.  1.
        994   -1    0    0    0    0 -0.00000000000E+00 -0.00000000000E+00  0.11368683772E-12  0.17120000000E+03  0.17120000000E+03 0.  0.
         13    1    1    2    0    0  0.32158628235E+02  0.64005811408E+01  0.14579352370E+03  0.14943529545E+03  0.10566000000E+00 0.  1.
        994    1    1    2    0    0 -0.30468438319E+02 -0.10723124883E+02  0.68415610393E+01  0.17435469050E+03  0.17120000000E+03 0.  0.
        998    1    1    2    0    0 -0.16901899168E+01  0.43225437426E+01  0.13473649115E+04  0.13474100141E+04  0.10000000000E+02 0.  1.
</event>
<event>
 5    1  0.1503263E-008  0.3764626E+03  0.7957747E-01  0.3466707E+00
         13   -1    0    0    0    0  0.00000000000E+00  0.00000000000E+00  0.14999999963E+04  0.15000000000E+04  0.10566000000E+00 0. -1.
        994   -1    0    0    0    0 -0.00000000000E+00 -0.00000000000E+00  0.11368683772E-12  0.17120000000E+03  0.17120000000E+03 0.  0.
         13    1    1    2    0    0 -0.11088655300E+02  0.12703242049E+02  0.21083701118E+02  0.26997486027E+02  0.10566000000E+00 0. -1.
        994    1    1    2    0    0  0.11771245790E+02 -0.14625982967E+02  0.71227593869E+01  0.17237359225E+03  0.17120000000E+03 0.  0.
        998    1    1    2    0    0 -0.68259048941E+00  0.19227409181E+01  0.14717935358E+04  0.14718289217E+04  0.10000000000E+02 0. -1.
</event>
<event>
 5    1  0.1503263E-008  0.3780876E+03  0.7957747E-01  0.3459528E+00
         13   -1    0    0    0    0  0.00000000000E+00  0.00000000000E+00  0.14999999963E+04  0.15000000000E+04  0.10566000000E+00 0. -1.
        994   -1    0    0    0    0 -0.00000000000E+00 -0.00000000000E+00  0.11368683772E-12  0.17120000000E+03  0.17120000000E+03 0.  0.
         13    1    1    2    0    0  0.45361522146E+02  0.32962358673E+01  0.18465703562E+03  0.19017561576E+03  0.10566000000E+00 0. -1.
        994    1    1    2    0    0 -0.40521430478E+02  0.83129601422E+01  0.10879717474E+02  0.17646217693E+03  0.17120000000E+03 0.  0.
        998    1    1    2    0    0 -0.48400916682E+01 -0.11609196010E+02  0.13044632432E+04  0.13045622073E+04  0.10000000000E+02 0. -1.
</event>
<event>
 5    1  0.1503263E-008  0.2857906E+03  0.7957747E-01  0.4002992E+00
         13   -1    0    0    0    0  0.00000000000E+00  0.00000000000E+00  0.14999999963E+04  0.15000000000E+04  0.10566000000E+00 0. -1.
        994   -1    0    0    0    0 -0.00000000000E+00 -0.00000000000E+00  0.11368683772E-12  0.17120000000E+03  0.17120000000E+03 0.  0.
         13    1    1    2    0    0 -0.14521120867E+03 -0.15186521449E+03  0.45104905674E+03  0.49758878730E+03  0.10566000000E+00 0. -1.
        994    1    1    2    0    0  0.19483690745E+03  0.10902211928E+03  0.26384200337E+03  0.38570621688E+03  0.17120000000E+03 0.  0.
        998    1    1    2    0    0 -0.49625698786E+02  0.42843095214E+02  0.78510893617E+03  0.78790499582E+03  0.10000000000E+02 0. -1.
</event>
<event>
 5    1  0.1503263E-008  0.3692779E+03  0.7957747E-01  0.3499216E+00
         13   -1    0    0    0    0  0.00000000000E+00  0.00000000000E+00  0.14999999963E+04  0.15000000000E+04  0.10566000000E+00 0. -1.
        994   -1    0    0    0    0 -0.00000000000E+00 -0.00000000000E+00  0.11368683772E-12  0.17120000000E+03  0.17120000000E+03 0.  0.
         13    1    1    2    0    0 -0.79901935455E+02  0.15766847941E+03  0.66397007573E+03  0.68709529275E+03  0.10566000000E+00 0. -1.
        994    1    1    2    0    0  0.83523884668E+02 -0.16204630787E+03  0.13733792377E+03  0.28531805150E+03  0.17120000000E+03 0.  0.
        998    1    1    2    0    0 -0.36219492132E+01  0.43778284551E+01  0.69869199678E+03  0.69878665575E+03  0.10000000000E+02 0.  0.
</event>
<event>
 5    1  0.1503263E-008  0.3787787E+03  0.7957747E-01  0.3456493E+00
         13   -1    0    0    0    0  0.00000000000E+00  0.00000000000E+00  0.14999999963E+04  0.15000000000E+04  0.10566000000E+00 0.  1.
        994   -1    0    0    0    0 -0.00000000000E+00 -0.00000000000E+00  0.11368683772E-12  0.17120000000E+03  0.17120000000E+03 0.  0.
         13    1    1    2    0    0  0.10365096755E+02 -0.40648743286E+02  0.19947746221E+03  0.20384068450E+03  0.10566000000E+00 0.  1.
        994    1    1    2    0    0  0.75413005872E+01  0.14921453425E+02  0.56896639881E+01  0.17210849271E+03  0.17120000000E+03 0.  0.
        998    1    1    2    0    0 -0.17906397342E+02  0.25727289860E+02  0.12948328701E+04  0.12952508228E+04  0.10000000000E+02 0.  1.
</event>
<event>
 5    1  0.1503263E-008  0.3858375E+03  0.7957747E-01  0.3426128E+00
         13   -1    0    0    0    0  0.00000000000E+00  0.00000000000E+00  0.14999999963E+04  0.15000000000E+04  0.10566000000E+00 0. -1.
        994   -1    0    0    0    0 -0.00000000000E+00 -0.00000000000E+00  0.11368683772E-12  0.17120000000E+03  0.17120000000E+03 0.  0.
         13    1    1    2    0    0  0.31490175965E+01 -0.20079128212E+02  0.17293010591E+01  0.20398268254E+02  0.10566000000E+00 0. -1.
        994    1    1    2    0    0 -0.40659707469E+01  0.25690395172E+02  0.22080429221E+02  0.17456664595E+03  0.17120000000E+03 0.  0.
        998    1    1    2    0    0  0.91695315040E+00 -0.56112669608E+01  0.14761902660E+04  0.14762350858E+04  0.10000000000E+02 0. -1.
</event>
<event>
 5    1  0.1503263E-008  0.3712295E+03  0.7957747E-01  0.3490259E+00
         13   -1    0    0    0    0  0.00000000000E+00  0.00000000000E+00  0.14999999963E+04  0.15000000000E+04  0.10566000000E+00 0.  1.
        994   -1    0    0    0    0 -0.00000000000E+00 -0.00000000000E+00  0.11368683772E-12  0.17120000000E+03  0.17120000000E+03 0.  0.
         13    1    1    2    0    0  0.52650135962E+02 -0.43507909186E+02  0.20333711355E+03  0.21450167339E+03  0.10566000000E+00 0.  1.
        994    1    1    2    0    0 -0.37038091215E+02  0.10168576627E+03  0.50100800421E+02  0.20864166762E+03  0.17120000000E+03 0.  0.
        998    1    1    2    0    0 -0.15612044747E+02 -0.58177857086E+02  0.12465620823E+04  0.12480566590E+04  0.10000000000E+02 0.  1.
</event>
<event>
 5    1  0.1503263E-008  0.3743987E+03  0.7957747E-01  0.3475917E+00
         13   -1    0    0    0    0  0.00000000000E+00  0.00000000000E+00  0.14999999963E+04  0.15000000000E+04  0.10566000000E+00 0. -1.
        994   -1    0    0    0    0 -0.00000000000E+00 -0.00000000000E+00  0.11368683772E-12  0.17120000000E+03  0.17120000000E+03 0.  0.
         13    1    1    2    0    0  0.66894906842E+01  0.38267859113E+02  0.11344347988E+03  0.11991085279E+03  0.10566000000E+00 0. -1.
        994    1    1    2    0    0 -0.24957810926E+02 -0.33643369532E+01  0.91510513124E+01  0.17328413900E+03  0.17120000000E+03 0.  0.
        998    1    1    2    0    0  0.18268320242E+02 -0.34903522160E+02  0.13774054651E+04  0.13780050082E+04  0.10000000000E+02 0. -1.
</event>
<event>
 5    1  0.2025282E-008  0.3864225E+03  0.7957747E-01  0.3423662E+00
         13   -1    0    0    0    0  0.00000000000E+00  0.00000000000E+00  0.14999999963E+04  0.15000000000E+04  0.10566000000E+00 0.  1.
        994   -1    0    0    0    0 -0.00000000000E+00 -0.00000000000E+00  0.11368683772E-12  0.17120000000E+03  0.17120000000E+03 0.  0.
         13    1    1    2    0    0  0.60362915787E+01  0.80740061758E+01  0.57972452030E+02  0.58842525015E+02  0.10566000000E+00 0.  1.
        994    1    1    2    0    0 -0.74231355969E+00 -0.24910564234E+01  0.94765682178E+00  0.17122235381E+03  0.17120000000E+03 0.  0.
        998    1    1    2    0    0 -0.52939780190E+01 -0.55829497524E+01  0.14410798874E+04  0.14411351212E+04  0.10000000000E+02 0.  0.
</event>
<event>
 5    1  0.1503263E-008  0.3823959E+03  0.7957747E-01  0.3440792E+00
         13   -1    0    0    0    0  0.00000000000E+00  0.00000000000E+00  0.14999999963E+04  0.15000000000E+04  0.10566000000E+00 0.  1.
        994   -1    0    0    0    0 -0.00000000000E+00 -0.00000000000E+00  0.11368683772E-12  0.17120000000E+03  0.17120000000E+03 0.  0.
         13    1    1    2    0    0  0.98967965576E+01 -0.15433956432E+01  0.15961215477E+02  0.18844102944E+02  0.10566000000E+00 0.  1.
        994    1    1    2    0    0 -0.67004929734E+01  0.20396277369E+01  0.30912741946E+01  0.17137109635E+03  0.17120000000E+03 0.  0.
        998    1    1    2    0    0 -0.31963035842E+01 -0.49623209370E+00  0.14809475066E+04  0.14809848007E+04  0.10000000000E+02 0.  1.
</event>
<event>
 5    1  0.1503263E-008  0.3852243E+03  0.7957747E-01  0.3428721E+00
         13   -1    0    0    0    0  0.00000000000E+00  0.00000000000E+00  0.14999999963E+04  0.15000000000E+04  0.10566000000E+00 0.  1.
        994   -1    0    0    0    0 -0.00000000000E+00 -0.00000000000E+00  0.11368683772E-12  0.17120000000E+03  0.17120000000E+03 0.  0.
         13    1    1    2    0    0  0.10226751749E+02  0.79133015557E+01  0.58046605756E+02  0.59469541756E+02  0.10566000000E+00 0.  1.
        994    1    1    2    0    0  0.10100746035E+01 -0.19698091279E+01  0.15349247898E+01  0.17122119142E+03  0.17120000000E+03 0.  0.
        998    1    1    2    0    0 -0.11236826352E+02 -0.59434924277E+01  0.14404184657E+04  0.14405092668E+04  0.10000000000E+02 0.  1.
</event>
<event>
 5    1  0.1503263E-008  0.4218328E+03  0.7957747E-01  0.3287056E+00
         13   -1    0    0    0    0  0.00000000000E+00  0.00000000000E+00  0.14999999963E+04  0.15000000000E+04  0.10566000000E+00 0. -1.
        994   -1    0    0    0    0 -0.00000000000E+00 -0.00000000000E+00  0.11368683772E-12  0.17120000000E+03  0.17120000000E+03 0.  0.
         13    1    1    2    0    0  0.89866443792E+02 -0.26709820849E+02  0.92508163616E+02  0.13170863202E+03  0.10566000000E+00 0. -1.
        994    1    1    2    0    0 -0.68559691461E+02  0.42276136963E+02  0.70051235651E+02  0.20175311315E+03  0.17120000000E+03 0.  0.
        998    1    1    2    0    0 -0.21306752331E+02 -0.15566316114E+02  0.13374405970E+04  0.13377382548E+04  0.10000000000E+02 0. -1.
</event>
<event>
 5    1  0.1503263E-008  0.3798189E+03  0.7957747E-01  0.3451947E+00
         13   -1    0    0    0    0  0.00000000000E+00  0.00000000000E+00  0.14999999963E+04  0.15000000000E+04  0.10566000000E+00 0.  1.
        994   -1    0    0    0    0 -0.00000000000E+00 -0.00000000000E+00  0.11368683772E-12  0.17120000000E+03  0.17120000000E+03 0.  0.
         13    1    1    2    0    0 -0.11976970888E+02 -0.14922676231E+02  0.39128618810E+02  0.43556791337E+02  0.10566000000E+00 0.  1.
        994    1    1    2    0    0  0.21527184629E+02  0.23304904886E+02  0.75986985238E+01  0.17428057404E+03  0.17120000000E+03 0.  0.
        998    1    1    2    0    0 -0.95502137413E+01 -0.83822286548E+01  0.14532726789E+04  0.14533626346E+04  0.10000000000E+02 0.  1.
</event>
<event>
 5    1  0.1503263E-008  0.3788845E+03  0.7957747E-01  0.3456030E+00
         13   -1    0    0    0    0  0.00000000000E+00  0.00000000000E+00  0.14999999963E+04  0.15000000000E+04  0.10566000000E+00 0.  1.
        994   -1    0    0    0    0 -0.00000000000E+00 -0.00000000000E+00  0.11368683772E-12  0.17120000000E+03  0.17120000000E+03 0.  0.
         13    1    1    2    0    0  0.35898072287E+01 -0.29432034845E+02  0.89051716172E+02  0.93858141406E+02  0.10566000000E+00 0.  1.
        994    1    1    2    0    0 -0.55693073255E+01  0.24594422286E+02  0.68338733122E+01  0.17318211402E+03  0.17120000000E+03 0.  0.
        998    1    1    2    0    0  0.19795000968E+01  0.48376125591E+01  0.14041144068E+04  0.14041597446E+04  0.10000000000E+02 0.  1.
</event>
<event>
 5    1  0.1503263E-008  0.3811590E+03  0.7957747E-01  0.3446127E+00
         13   -1    0    0    0    0  0.00000000000E+00  0.00000000000E+00  0.14999999963E+04  0.15000000000E+04  0.10566000000E+00 0.  1.
        994   -1    0    0    0    0 -0.00000000000E+00 -0.00000000000E+00  0.11368683772E-12  0.17120000000E+03  0.17120000000E+03 0.  0.
         13    1    1    2    0    0 -0.49068917453E+01 -0.17127801111E+02  0.44069263712E+02  0.47534727576E+02  0.10566000000E+00 0.  1.
        994    1    1    2    0    0  0.28654105723E+01  0.73968770444E+01  0.37588183773E+01  0.17142489050E+03  0.17120000000E+03 0.  0.
        998    1    1    2    0    0  0.20414811730E+01  0.97309240670E+01  0.14521719142E+04  0.14522403819E+04  0.10000000000E+02 0.  1.
</event>
<event>
 5    1  0.1503263E-008  0.3854040E+03  0.7957747E-01  0.3427961E+00
         13   -1    0    0    0    0  0.00000000000E+00  0.00000000000E+00  0.14999999963E+04  0.15000000000E+04  0.10566000000E+00 0. -1.
        994   -1    0    0    0    0 -0.00000000000E+00 -0.00000000000E+00  0.11368683772E-12  0.17120000000E+03  0.17120000000E+03 0.  0.
         13    1    1    2    0    0 -0.59894931364E+01 -0.90737214732E+01  0.42518281766E+02  0.43886465998E+02  0.10566000000E+00 0. -1.
        994    1    1    2    0    0 -0.14605331249E+01  0.40937730802E+01  0.14917605752E+01  0.17126166379E+03  0.17120000000E+03 0.  0.
        998    1    1    2    0    0  0.74500262612E+01  0.49799483929E+01  0.14559899539E+04  0.14560518702E+04  0.10000000000E+02 0. -1.
</event>
<event>
 5    1  0.1503263E-008  0.3783544E+03  0.7957747E-01  0.3458355E+00
         13   -1    0    0    0    0  0.00000000000E+00  0.00000000000E+00  0.14999999963E+04  0.15000000000E+04  0.10566000000E+00 0.  1.
        994   -1    0    0    0    0 -0.00000000000E+00 -0.00000000000E+00  0.11368683772E-12  0.17120000000E+03  0.17120000000E+03 0.  0.
         13    1    1    2    0    0 -0.45681436279E+02  0.10623544585E+03  0.65845723874E+03  0.66853474853E+03  0.10566000000E+00 0.  1.
        994    1    1    2    0    0  0.53178350128E+02 -0.10962686476E+03  0.56607468168E+02  0.21762314181E+03  0.17120000000E+03 0.  0.
        998    1    1    2    0    0 -0.74969138494E+01  0.33914189183E+01  0.78493528937E+03  0.78504210966E+03  0.10000000000E+02 0.  0.
</event>
<event>
 5    1  0.1503263E-008  0.3859846E+03  0.7957747E-01  0.3425507E+00
         13   -1    0    0    0    0  0.00000000000E+00  0.00000000000E+00  0.14999999963E+04  0.15000000000E+04  0.10566000000E+00 0. -1.
        994   -1    0    0    0    0 -0.00000000000E+00 -0.00000000000E+00  0.11368683772E-12  0.17120000000E+03  0.17120000000E+03 0.  0.
         13    1    1    2    0    0  0.82340644325E+01 -0.84720058755E+01  0.65103742080E+02  0.66167084698E+02  0.10566000000E+00 0. -1.
        994    1    1    2    0    0 -0.25546377293E+02 -0.20956459099E+02  0.47294050798E+01  0.17442361607E+03  0.17120000000E+03 0.  0.
        998    1    1    2    0    0  0.17312312860E+02  0.29428464974E+02  0.14301668491E+04  0.14306092992E+04  0.10000000000E+02 0. -1.
</event>
<event>
 5    1  0.1503263E-008  0.3793037E+03  0.7957747E-01  0.3454196E+00
         13   -1    0    0    0    0  0.00000000000E+00  0.00000000000E+00  0.14999999963E+04  0.15000000000E+04  0.10566000000E+00 0. -1.
        994   -1    0    0    0    0 -0.00000000000E+00 -0.00000000000E+00  0.11368683772E-12  0.17120000000E+03  0.17120000000E+03 0.  0.
         13    1    1    2    0    0 -0.11265480354E+02 -0.17299526240E+02  0.45337815065E+02  0.49816797314E+02  0.10566000000E+00 0. -1.
        994    1    1    2    0    0  0.16426314859E+02  0.89666536675E+01  0.56594127068E+01  0.17231277855E+03  0.17120000000E+03 0.  0.
        998    1    1    2    0    0 -0.51608345051E+01  0.83328725722E+01  0.14490027685E+04  0.14490704241E+04  0.10000000000E+02 0. -1.
</event>
<event>
 5    1  0.1503263E-008  0.3821580E+03  0.7957747E-01  0.3441816E+00
         13   -1    0    0    0    0  0.00000000000E+00  0.00000000000E+00  0.14999999963E+04  0.15000000000E+04  0.10566000000E+00 0.  1.
        994   -1    0    0    0    0 -0.00000000000E+00 -0.00000000000E+00  0.11368683772E-12  0.17120000000E+03  0.17120000000E+03 0.  0.
         13    1    1    2    0    0  0.18323719250E+02 -0.96767288553E+01  0.71828164173E+02  0.74757568854E+02  0.10566000000E+00 0.  1.
        994    1    1    2    0    0 -0.78227453411E+01 -0.79440693100E+00  0.32529965799E+01  0.17141134272E+03  0.17120000000E+03 0.  0.
        998    1    1    2    0    0 -0.10500973909E+02  0.10471135786E+02  0.14249188355E+04  0.14250310884E+04  0.10000000000E+02 0.  1.
</event>
<event>
 5    1  0.1503263E-008  0.3826969E+03  0.7957747E-01  0.3439499E+00
         13   -1    0    0    0    0  0.00000000000E+00  0.00000000000E+00  0.14999999963E+04  0.15000000000E+04  0.10566000000E+00 0.  1.
        994   -1    0    0    0    0 -0.00000000000E+00 -0.00000000000E+00  0.11368683772E-12  0.17120000000E+03  0.17120000000E+03 0.  0.
         13    1    1    2    0    0 -0.13022932399E+03  0.10169909461E+03  0.96407756744E+03  0.97813493439E+03  0.10566000000E+00 0.  1.
        994    1    1    2    0    0  0.13528887192E+03 -0.11715028838E+03  0.11735043916E+03  0.27405808601E+03  0.17120000000E+03 0.  0.
        998    1    1    2    0    0 -0.50595479327E+01  0.15451193773E+02  0.41857198968E+03  0.41900697960E+03  0.10000000000E+02 0.  1.
</event>
<event>
 5    1  0.1503263E-008  0.3762242E+03  0.7957747E-01  0.3467766E+00
         13   -1    0    0    0    0  0.00000000000E+00  0.00000000000E+00  0.14999999963E+04  0.15000000000E+04  0.10566000000E+00 0. -1.
        994   -1    0    0    0    0 -0.00000000000E+00 -0.00000000000E+00  0.11368683772E-12  0.17120000000E+03  0.17120000000E+03 0.  0.
         13    1    1    2    0    0 -0.14461250220E+02  0.19279898217E+02  0.44480517329E+02  0.50590214657E+02  0.10566000000E+00 0. -1.
        994    1    1    2    0    0  0.14024595813E+02 -0.19461358939E+02  0.80018258717E+01  0.17305751355E+03  0.17120000000E+03 0.  0.
        998    1    1    2    0    0  0.43665440726E+00  0.18146072218E+00  0.14475176531E+04  0.14475522718E+04  0.10000000000E+02 0.  0.
</event>
<event>
 5    1  0.1503263E-008  0.3810525E+03  0.7957747E-01  0.3446588E+00
         13   -1    0    0    0    0  0.00000000000E+00  0.00000000000E+00  0.14999999963E+04  0.15000000000E+04  0.10566000000E+00 0.  1.
        994   -1    0    0    0    0 -0.00000000000E+00 -0.00000000000E+00  0.11368683772E-12  0.17120000000E+03  0.17120000000E+03 0.  0.
         13    1    1    2    0    0  0.38254957450E+02  0.26018387641E+02  0.25018792680E+03  0.25442957404E+03  0.10566000000E+00 0.  1.
        994    1    1    2    0    0 -0.45590266749E+02 -0.14887403202E+02  0.11303450136E+02  0.17814969880E+03  0.17120000000E+03 0.  0.
        998    1    1    2    0    0  0.73353092989E+01 -0.11130984439E+02  0.12385086193E+04  0.12386207272E+04  0.10000000000E+02 0.  1.
</event>
<event>
 5    1  0.1503263E-008  0.3816028E+03  0.7957747E-01  0.3444209E+00
         13   -1    0    0    0    0  0.00000000000E+00  0.00000000000E+00  0.14999999963E+04  0.15000000000E+04  0.10566000000E+00 0.  1.
        994   -1    0    0    0    0 -0.00000000000E+00 -0.00000000000E+00  0.11368683772E-12  0.17120000000E+03  0.17120000000E+03 0.  0.
         13    1    1    2    0    0  0.16952296274E+02 -0.47401997907E+01  0.43378271184E+02  0.46813837890E+02  0.10566000000E+00 0.  1.
        994    1    1    2    0    0 -0.26603839679E+02 -0.77585756332E+01  0.58841310737E+01  0.17352816135E+03  0.17120000000E+03 0.  0.
        998    1    1    2    0    0  0.96515434056E+01  0.12498775424E+02  0.14507375940E+04  0.14508580008E+04  0.10000000000E+02 0.  1.
</event>
<event>
 5    1  0.1503263E-008  0.3828996E+03  0.7957747E-01  0.3438629E+00
         13   -1    0    0    0    0  0.00000000000E+00  0.00000000000E+00  0.14999999963E+04  0.15000000000E+04  0.10566000000E+00 0.  1.
        994   -1    0    0    0    0 -0.00000000000E+00 -0.00000000000E+00  0.11368683772E-12  0.17120000000E+03  0.17120000000E+03 0.  0.
         13    1    1    2    0    0 -0.17588098753E+02  0.24746836347E+02  0.16461676879E+03  0.16739306694E+03  0.10566000000E+00 0.  1.
        994    1    1    2    0    0  0.15465447435E+02 -0.17178659707E+02  0.44476849519E+01  0.17281061401E+03  0.17120000000E+03 0.  0.
        998    1    1    2    0    0  0.21226513177E+01 -0.75681766399E+01  0.13309355425E+04  0.13309963191E+04  0.10000000000E+02 0.  0.
</event>
<event>
 5    1  0.1503263E-008  0.3823340E+03  0.7957747E-01  0.3441058E+00
         13   -1    0    0    0    0  0.00000000000E+00  0.00000000000E+00  0.14999999963E+04  0.15000000000E+04  0.10566000000E+00 0.  1.
        994   -1    0    0    0    0 -0.00000000000E+00 -0.00000000000E+00  0.11368683772E-12  0.17120000000E+03  0.17120000000E+03 0.  0.
         13    1    1    2    0    0  0.44938114797E+02 -0.18856594406E+02  0.28959649308E+03  0.29366842745E+03  0.10566000000E+00 0.  1.
        994    1    1    2    0    0 -0.58850594766E+02  0.15257448321E+02  0.15319405112E+02  0.18231924311E+03  0.17120000000E+03 0.  0.
        998    1    1    2    0    0  0.13912479969E+02  0.35991460855E+01  0.11950840981E+04  0.11952123294E+04  0.10000000000E+02 0.  1.
</event>
<event>
 5    1  0.1503263E-008  0.3763826E+03  0.7957747E-01  0.3467062E+00
         13   -1    0    0    0    0  0.00000000000E+00  0.00000000000E+00  0.14999999963E+04  0.15000000000E+04  0.10566000000E+00 0.  1.
        994   -1    0    0    0    0 -0.00000000000E+00 -0.00000000000E+00  0.11368683772E-12  0.17120000000E+03  0.17120000000E+03 0.  0.
         13    1    1    2    0    0 -0.48127615783E+02 -0.14395457893E+03  0.81176167774E+03  0.82583062477E+03  0.10566000000E+00 0.  1.
        994    1    1    2    0    0  0.50975475649E+02  0.14165111934E+03  0.86961928643E+02  0.24399867984E+03  0.17120000000E+03 0.  0.
        998    1    1    2    0    0 -0.28478598660E+01  0.23034595855E+01  0.60127638989E+03  0.60137069539E+03  0.10000000000E+02 0.  0.
</event>
<event>
 5    1  0.1503263E-008  0.3808726E+03  0.7957747E-01  0.3447368E+00
         13   -1    0    0    0    0  0.00000000000E+00  0.00000000000E+00  0.14999999963E+04  0.15000000000E+04  0.10566000000E+00 0.  1.
        994   -1    0    0    0    0 -0.00000000000E+00 -0.00000000000E+00  0.11368683772E-12  0.17120000000E+03  0.17120000000E+03 0.  0.
         13    1    1    2    0    0 -0.26877809066E+02 -0.83427577419E+01  0.10479212839E+03  0.10850538956E+03  0.10566000000E+00 0.  1.
        994    1    1    2    0    0  0.19963019968E+02  0.29715992563E+00  0.50231142253E+01  0.17243341366E+03  0.17120000000E+03 0.  0.
        998    1    1    2    0    0  0.69147890977E+01  0.80455978162E+01  0.13901847537E+04  0.13902611968E+04  0.10000000000E+02 0.  1.
</event>
<event>
 5    1  0.1503263E-008  0.3804941E+03  0.7957747E-01  0.3449010E+00
         13   -1    0    0    0    0  0.00000000000E+00  0.00000000000E+00  0.14999999963E+04  0.15000000000E+04  0.10566000000E+00 0.  1.
        994   -1    0    0    0    0 -0.00000000000E+00 -0.00000000000E+00  0.11368683772E-12  0.17120000000E+03  0.17120000000E+03 0.  0.
         13    1    1    2    0    0 -0.21030404932E+02  0.25421394264E+01  0.54781324588E+02  0.58734530662E+02  0.10566000000E+00 0.  1.
        994    1    1    2    0    0  0.20652905946E+02 -0.25028541656E+01  0.53297187752E+01  0.17254174192E+03  0.17120000000E+03 0.  0.
        998    1    1    2    0    0  0.37749898610E+00 -0.39285260775E-01  0.14398889529E+04  0.14399237274E+04  0.10000000000E+02 0.  0.
</event>
<event>
 5    1  0.1503263E-008  0.3838604E+03  0.7957747E-01  0.3434520E+00
         13   -1    0    0    0    0  0.00000000000E+00  0.00000000000E+00  0.14999999963E+04  0.15000000000E+04  0.10566000000E+00 0. -1.
        994   -1    0    0    0    0 -0.00000000000E+00 -0.00000000000E+00  0.11368683772E-12  0.17120000000E+03  0.17120000000E+03 0.  0.
         13    1    1    2    0    0 -0.30865092180E+01 -0.13181258148E+02  0.41108617315E+02  0.43280500080E+02  0.10566000000E+00 0. -1.
        994    1    1    2    0    0  0.55617055632E+01  0.82808922485E+01  0.25255199818E+01  0.17150896185E+03  0.17120000000E+03 0.  0.
        998    1    1    2    0    0 -0.24751963453E+01  0.49003658996E+01  0.14563658590E+04  0.14564105381E+04  0.10000000000E+02 0. -1.
</event>
<event>
 5    1  0.1503263E-008  0.3842661E+03  0.7957747E-01  0.3432791E+00
         13   -1    0    0    0    0  0.00000000000E+00  0.00000000000E+00  0.14999999963E+04  0.15000000000E+04  0.10566000000E+00 0.  1.
        994   -1    0    0    0    0 -0.00000000000E+00 -0.00000000000E+00  0.11368683772E-12  0.17120000000E+03  0.17120000000E+03 0.  0.
         13    1    1    2    0    0  0.14897042213E+02  0.29767600190E+01  0.58696643658E+02  0.60630768655E+02  0.10566000000E+00 0.  1.
        994    1    1    2    0    0 -0.43366639854E+01 -0.10700795994E+02  0.24345316340E+01  0.17160617889E+03  0.17120000000E+03 0.  0.
        998    1    1    2    0    0 -0.10560378228E+02  0.77240359746E+01  0.14388688210E+04  0.14389630525E+04  0.10000000000E+02 0.  1.
</event>
<event>
 5    1  0.1503263E-008  0.3831902E+03  0.7957747E-01  0.3437384E+00
         13   -1    0    0    0    0  0.00000000000E+00  0.00000000000E+00  0.14999999963E+04  0.15000000000E+04  0.10566000000E+00 0.  1.
        994   -1    0    0    0    0 -0.00000000000E+00 -0.00000000000E+00  0.11368683772E-12  0.17120000000E+03  0.17120000000E+03 0.  0.
         13    1    1    2    0    0  0.11817730986E+02 -0.11549200314E+02  0.52329440054E+02  0.54876445347E+02  0.10566000000E+00 0.  1.
        994    1    1    2    0    0 -0.17109717259E+02  0.32079005789E+01  0.35344527517E+01  0.17211904429E+03  0.17120000000E+03 0.  0.
        998    1    1    2    0    0  0.52919862730E+01  0.83412997355E+01  0.14441361035E+04  0.14442045104E+04  0.10000000000E+02 0.  1.
</event>
<event>
 5    1  0.1503263E-008  0.3860524E+03  0.7957747E-01  0.3425221E+00
         13   -1    0    0    0    0  0.00000000000E+00  0.00000000000E+00  0.14999999963E+04  0.15000000000E+04  0.10566000000E+00 0. -1.
        994   -1    0    0    0    0 -0.00000000000E+00 -0.00000000000E+00  0.11368683772E-12  0.17120000000E+03  0.17120000000E+03 0.  0.
         13    1    1    2    0    0 -0.67287049033E+01 -0.92184515703E+01  0.67180066673E+02  0.68142702040E+02  0.10566000000E+00 0. -1.
        994    1    1    2    0    0 -0.48716152008E+00 -0.90803912120E+01  0.13795848653E+01  0.17144688415E+03  0.17120000000E+03 0.  0.
        998    1    1    2    0    0  0.72158664234E+01  0.18298842782E+02  0.14314403447E+04  0.14316104138E+04  0.10000000000E+02 0. -1.
</event>
<event>
 5    1  0.1503263E-008  0.3692040E+03  0.7957747E-01  0.3499557E+00
         13   -1    0    0    0    0  0.00000000000E+00  0.00000000000E+00  0.14999999963E+04  0.15000000000E+04  0.10566000000E+00 0. -1.
        994   -1    0    0    0    0 -0.00000000000E+00 -0.00000000000E+00  0.11368683772E-12  0.17120000000E+03  0.17120000000E+03 0.  0.
         13    1    1    2    0    0  0.31279171654E+02 -0.25968873976E+01  0.42625116586E+02  0.52934319033E+02  0.10566000000E+00 0. -1.
        994    1    1    2    0    0 -0.23925872862E+02 -0.23401600981E+02  0.14433478006E+02  0.17503670360E+03  0.17120000000E+03 0.  0.
        998    1    1    2    0    0 -0.73532987920E+01  0.25998488378E+02  0.14429414017E+04  0.14432289774E+04  0.10000000000E+02 0. -1.
</event>
<event>
 5    1  0.1503263E-008  0.3975160E+03  0.7957747E-01  0.3378265E+00
         13   -1    0    0    0    0  0.00000000000E+00  0.00000000000E+00  0.14999999963E+04  0.15000000000E+04  0.10566000000E+00 0. -1.
        994   -1    0    0    0    0 -0.00000000000E+00 -0.00000000000E+00  0.11368683772E-12  0.17120000000E+03  0.17120000000E+03 0.  0.
         13    1    1    2    0    0  0.39915065901E+02 -0.64604650103E+02  0.94342689163E+02  0.12110956801E+03  0.10566000000E+00 0. -1.
        994    1    1    2    0    0 -0.99563582261E+02  0.27144268015E+02  0.68896194020E+02  0.21143756466E+03  0.17120000000E+03 0.  0.
        998    1    1    2    0    0  0.59648516359E+02  0.37460382088E+02  0.13367611131E+04  0.13386528673E+04  0.10000000000E+02 0. -1.
</event>
<event>
 5    1  0.1503263E-008  0.3746069E+03  0.7957747E-01  0.3474983E+00
         13   -1    0    0    0    0  0.00000000000E+00  0.00000000000E+00  0.14999999963E+04  0.15000000000E+04  0.10566000000E+00 0.  1.
        994   -1    0    0    0    0 -0.00000000000E+00 -0.00000000000E+00  0.11368683772E-12  0.17120000000E+03  0.17120000000E+03 0.  0.
         13    1    1    2    0    0 -0.97314297569E+01 -0.18923168157E+02  0.29777786029E+02  0.36599381457E+02  0.10566000000E+00 0.  1.
        994    1    1    2    0    0  0.52863484663E+01  0.17811567404E+02  0.80565429162E+01  0.17239357673E+03  0.17120000000E+03 0.  0.
        998    1    1    2    0    0  0.44450812906E+01  0.11116007528E+01  0.14621656673E+04  0.14622070418E+04  0.10000000000E+02 0.  1.
</event>
<event>
 5    1  0.1503263E-008  0.3704523E+03  0.7957747E-01  0.3493815E+00
         13   -1    0    0    0    0  0.00000000000E+00  0.00000000000E+00  0.14999999963E+04  0.15000000000E+04  0.10566000000E+00 0. -1.
        994   -1    0    0    0    0 -0.00000000000E+00 -0.00000000000E+00  0.11368683772E-12  0.17120000000E+03  0.17120000000E+03 0.  0.
         13    1    1    2    0    0 -0.21634354629E+02  0.47101534251E+02  0.12890521374E+03  0.13893583095E+03  0.10566000000E+00 0. -1.
        994    1    1    2    0    0  0.10599679756E+02 -0.21337330893E+01  0.11587632702E+02  0.17193201930E+03  0.17120000000E+03 0.  0.
        998    1    1    2    0    0  0.11034674873E+02 -0.44967801161E+02  0.13595071498E+04  0.13603321497E+04  0.10000000000E+02 0. -1.
</event>
<event>
 5    1  0.1503263E-008  0.3854453E+03  0.7957747E-01  0.3427786E+00
         13   -1    0    0    0    0  0.00000000000E+00  0.00000000000E+00  0.14999999963E+04  0.15000000000E+04  0.10566000000E+00 0. -1.
        994   -1    0    0    0    0 -0.00000000000E+00 -0.00000000000E+00  0.11368683772E-12  0.17120000000E+03  0.17120000000E+03 0.  0.
         13    1    1    2    0    0 -0.15084824413E+02 -0.68284577846E+01  0.92555384744E+02  0.94024944416E+02  0.10566000000E+00 0. -1.
        994    1    1    2    0    0  0.11183920585E+02  0.18089106803E+02  0.28959133642E+01  0.17254020453E+03  0.17120000000E+03 0.  0.
        998    1    1    2    0    0  0.39009038277E+01 -0.11260649019E+02  0.14045486982E+04  0.14046348511E+04  0.10000000000E+02 0. -1.
</event>
<event>
 5    1  0.1503263E-008  0.3696379E+03  0.7957747E-01  0.3497557E+00
         13   -1    0    0    0    0  0.00000000000E+00  0.00000000000E+00  0.14999999963E+04  0.15000000000E+04  0.10566000000E+00 0. -1.
        994   -1    0    0    0    0 -0.00000000000E+00 -0.00000000000E+00  0.11368683772E-12  0.17120000000E+03  0.17120000000E+03 0.  0.
         13    1    1    2    0    0  0.11600816001E+03 -0.12474680407E+02  0.49644315663E+03  0.50996993026E+03  0.10566000000E+00 0. -1.
        994    1    1    2    0    0 -0.10142201748E+03 -0.24646926905E+02  0.49816211308E+02  0.20660346450E+03  0.17120000000E+03 0.  0.
        998    1    1    2    0    0 -0.14586142529E+02  0.37121607312E+02  0.95374062834E+03  0.95462660523E+03  0.10000000000E+02 0.  1.
</event>
<event>
 5    1  0.1503263E-008  0.3760014E+03  0.7957747E-01  0.3468756E+00
         13   -1    0    0    0    0  0.00000000000E+00  0.00000000000E+00  0.14999999963E+04  0.15000000000E+04  0.10566000000E+00 0. -1.
        994   -1    0    0    0    0 -0.00000000000E+00 -0.00000000000E+00  0.11368683772E-12  0.17120000000E+03  0.17120000000E+03 0.  0.
         13    1    1    2    0    0 -0.11424774587E+02  0.25094530988E+02  0.62582683741E+02  0.68387604345E+02  0.10566000000E+00 0. -1.
        994    1    1    2    0    0  0.65259127972E+01  0.54944160754E-01  0.63096897810E+01  0.17144049330E+03  0.17120000000E+03 0.  0.
        998    1    1    2    0    0  0.48988617894E+01 -0.25149475148E+02  0.14311076228E+04  0.14313719024E+04  0.10000000000E+02 0. -1.
</event>
<event>
 5    1  0.1503263E-008  0.3967041E+03  0.7957747E-01  0.3381501E+00
         13   -1    0    0    0    0  0.00000000000E+00  0.00000000000E+00  0.14999999963E+04  0.15000000000E+04  0.10566000000E+00 0.  1.
        994   -1    0    0    0    0 -0.00000000000E+00 -0.00000000000E+00  0.11368683772E-12  0.17120000000E+03  0.17120000000E+03 0.  0.
         13    1    1    2    0    0 -0.21856170553E+02 -0.27925673364E+02  0.13940565700E+02  0.38103621352E+02  0.10566000000E+00 0.  1.
        994    1    1    2    0    0  0.87399645183E+01  0.29214715931E+02  0.29423246806E+02  0.17636624977E+03  0.17120000000E+03 0.  0.
        998    1    1    2    0    0  0.13116206035E+02 -0.12890425665E+01  0.14566361838E+04  0.14567301289E+04  0.10000000000E+02 0.  1.
</event>
<event>
 5    1  0.1503263E-008  0.3860174E+03  0.7957747E-01  0.3425369E+00
         13   -1    0    0    0    0  0.00000000000E+00  0.00000000000E+00  0.14999999963E+04  0.15000000000E+04  0.10566000000E+00 0. -1.
        994   -1    0    0    0    0 -0.00000000000E+00 -0.00000000000E+00  0.11368683772E-12  0.17120000000E+03  0.17120000000E+03 0.  0.
         13    1    1    2    0    0  0.99299353289E+02  0.20752838639E+02  0.27287663934E+03  0.29112319272E+03  0.10566000000E+00 0. -1.
        994    1    1    2    0    0 -0.47401602497E+02 -0.11012949667E+02  0.28500326068E+02  0.18024956468E+03  0.17120000000E+03 0.  0.
        998    1    1    2    0    0 -0.51897750792E+02 -0.97398889716E+01  0.11986230309E+04  0.11998272426E+04  0.10000000000E+02 0. -1.
</event>
<event>
 5    1  0.1503263E-008  0.3859888E+03  0.7957747E-01  0.3425489E+00
         13   -1    0    0    0    0  0.00000000000E+00  0.00000000000E+00  0.14999999963E+04  0.15000000000E+04  0.10566000000E+00 0.  1.
        994   -1    0    0    0    0 -0.00000000000E+00 -0.00000000000E+00  0.11368683772E-12  0.17120000000E+03  0.17120000000E+03 0.  0.
         13    1    1    2    0    0 -0.45063754166E+01  0.10021295921E+02  0.55422267236E+02  0.56501085485E+02  0.10566000000E+00 0.  1.
        994    1    1    2    0    0 -0.26086189693E+01 -0.39556110129E+01  0.12135951730E+01  0.17126985889E+03  0.17120000000E+03 0.  0.
        998    1    1    2    0    0  0.71149943859E+01 -0.60656849079E+01  0.14433641339E+04  0.14434290556E+04  0.10000000000E+02 0.  1.
</event>
<event>
 5    1  0.1503263E-008  0.3851631E+03  0.7957747E-01  0.3428981E+00
         13   -1    0    0    0    0  0.00000000000E+00  0.00000000000E+00  0.14999999963E+04  0.15000000000E+04  0.10566000000E+00 0. -1.
        994   -1    0    0    0    0 -0.00000000000E+00 -0.00000000000E+00  0.11368683772E-12  0.17120000000E+03  0.17120000000E+03 0.  0.
         13    1    1    2    0    0 -0.13412542536E+02 -0.95601458057E+01  0.85868362298E+02  0.87433857818E+02  0.10566000000E+00 0. -1.
        994    1    1    2    0    0  0.84740081179E+01  0.11496416614E+02  0.22199032721E+01  0.17180903463E+03  0.17120000000E+03 0.  0.
        998    1    1    2    0    0  0.49385344176E+01 -0.19362708085E+01  0.14119117307E+04  0.14119571076E+04  0.10000000000E+02 0. -1.
</event>
<event>
 5    1  0.1503263E-008  0.3841670E+03  0.7957747E-01  0.3433213E+00
         13   -1    0    0    0    0  0.00000000000E+00  0.00000000000E+00  0.14999999963E+04  0.15000000000E+04  0.10566000000E+00 0. -1.
        994   -1    0    0    0    0 -0.00000000000E+00 -0.00000000000E+00  0.11368683772E-12  0.17120000000E+03  0.17120000000E+03 0.  0.
         13    1    1    2    0    0  0.21113522133E+02  0.51530335073E+01  0.10767887903E+03  0.10985029232E+03  0.10566000000E+00 0. -1.
        994    1    1    2    0    0 -0.25224750728E+02  0.62890671396E+01  0.42760492897E+01  0.17321537176E+03  0.17120000000E+03 0.  0.
        998    1    1    2    0    0  0.41112285952E+01 -0.11442100647E+02  0.13880450680E+04  0.13881343359E+04  0.10000000000E+02 0. -1.
</event>
<event>
 5    1  0.1503263E-008  0.3774785E+03  0.7957747E-01  0.3462212E+00
         13   -1    0    0    0    0  0.00000000000E+00  0.00000000000E+00  0.14999999963E+04  0.15000000000E+04  0.10566000000E+00 0.  1.
        994   -1    0    0    0    0 -0.00000000000E+00 -0.00000000000E+00  0.11368683772E-12  0.17120000000E+03  0.17120000000E+03 0.  0.
         13    1    1    2    0    0  0.15879304429E+02  0.74016333037E+00  0.21375879374E+02  0.26639060305E+02  0.10566000000E+00 0.  1.
        994    1    1    2    0    0 -0.56169844759E+01  0.83243438528E+01  0.57514544318E+01  0.17159068868E+03  0.17120000000E+03 0.  0.
        998    1    1    2    0    0 -0.10262319953E+02 -0.90645071832E+01  0.14728726625E+04  0.14729702510E+04  0.10000000000E+02 0.  1.
</event>
<event>
 5    1  0.1503263E-008  0.3775474E+03  0.7957747E-01  0.3461908E+00
         13   -1    0    0    0    0  0.00000000000E+00  0.00000000000E+00  0.14999999963E+04  0.15000000000E+04  0.10566000000E+00 0.  1.
        994   -1    0    0    0    0 -0.00000000000E+00 -0.00000000000E+00  0.11368683772E-12  0.17120000000E+03  0.17120000000E+03 0.  0.
         13    1    1    2    0    0 -0.48170436139E+02 -0.25161826760E+02  0.28781433504E+03  0.29290034323E+03  0.10566000000E+00 0.  1.
        994    1    1    2    0    0  0.45886645573E+02 -0.27445791718E+02  0.15072733419E+02  0.17998745239E+03  0.17120000000E+03 0.  0.
        998    1    1    2    0    0  0.22837905655E+01  0.52607618478E+02  0.11971129278E+04  0.11983122044E+04  0.10000000000E+02 0.  1.
</event>
<event>
 5    1  0.1503263E-008  0.3851115E+03  0.7957747E-01  0.3429199E+00
         13   -1    0    0    0    0  0.00000000000E+00  0.00000000000E+00  0.14999999963E+04  0.15000000000E+04  0.10566000000E+00 0. -1.
        994   -1    0    0    0    0 -0.00000000000E+00 -0.00000000000E+00  0.11368683772E-12  0.17120000000E+03  0.17120000000E+03 0.  0.
         13    1    1    2    0    0 -0.14165011558E+02 -0.10267718165E+01  0.64782093465E+02  0.66320680112E+02  0.10566000000E+00 0. -1.
        994    1    1    2    0    0  0.74738727679E+01  0.46730435020E+01  0.18302555021E+01  0.17143653620E+03  0.17120000000E+03 0.  0.
        998    1    1    2    0    0  0.66911387903E+01 -0.36462716855E+01  0.14333876473E+04  0.14334427837E+04  0.10000000000E+02 0. -1.
</event>
<event>
 5    1  0.1503263E-008  0.3766119E+03  0.7957747E-01  0.3466045E+00
         13   -1    0    0    0    0  0.00000000000E+00  0.00000000000E+00  0.14999999963E+04  0.15000000000E+04  0.10566000000E+00 0.  1.
        994   -1    0    0    0    0 -0.00000000000E+00 -0.00000000000E+00  0.11368683772E-12  0.17120000000E+03  0.17120000000E+03 0.  0.
         13    1    1    2    0    0  0.18826333739E+01  0.26959193695E+02  0.65918375157E+02  0.71243145498E+02  0.10566000000E+00 0.  1.
        994    1    1    2    0    0 -0.16540747474E+01  0.74061776625E+01  0.60480229291E+01  0.17147479702E+03  0.17120000000E+03 0.  0.
        998    1    1    2    0    0 -0.22855862650E+00 -0.34365371358E+02  0.14280335982E+04  0.14284820575E+04  0.10000000000E+02 0.  1.
</event>
<event>
 5    1  0.1503263E-008  0.3789811E+03  0.7957747E-01  0.3455607E+00
         13   -1    0    0    0    0  0.00000000000E+00  0.00000000000E+00  0.14999999963E+04  0.15000000000E+04  0.10566000000E+00 0.  1.
        994   -1    0    0    0    0 -0.00000000000E+00 -0.00000000000E+00  0.11368683772E-12  0.17120000000E+03  0.17120000000E+03 0.  0.
         13    1    1    2    0    0  0.49961228206E+01 -0.16347076747E+02  0.28764866843E+02  0.33460676771E+02  0.10566000000E+00 0.  1.
        994    1    1    2    0    0  0.20549264227E+01  0.22408111043E+02  0.63485971584E+01  0.17278915142E+03  0.17120000000E+03 0.  0.
        998    1    1    2    0    0 -0.70510492433E+01 -0.60610342959E+01  0.14648865323E+04  0.14649501718E+04  0.10000000000E+02 0.  1.
</event>
<event>
 5    1  0.1503263E-008  0.3833001E+03  0.7957747E-01  0.3436914E+00
         13   -1    0    0    0    0  0.00000000000E+00  0.00000000000E+00  0.14999999963E+04  0.15000000000E+04  0.10566000000E+00 0. -1.
        994   -1    0    0    0    0 -0.00000000000E+00 -0.00000000000E+00  0.11368683772E-12  0.17120000000E+03  0.17120000000E+03 0.  0.
         13    1    1    2    0    0 -0.11836398151E+01 -0.10679471608E+02  0.23095952914E+02  0.25473247184E+02  0.10566000000E+00 0. -1.
        994    1    1    2    0    0 -0.23547092561E+01 -0.87139905253E+00  0.24973136562E+01  0.17123662157E+03  0.17120000000E+03 0.  0.
        998    1    1    2    0    0  0.35383490713E+01  0.11550870660E+02  0.14744067297E+04  0.14744901312E+04  0.10000000000E+02 0. -1.
</event>
<event>
 5    1  0.1503263E-008  0.3820972E+03  0.7957747E-01  0.3442077E+00
         13   -1    0    0    0    0  0.00000000000E+00  0.00000000000E+00  0.14999999963E+04  0.15000000000E+04  0.10566000000E+00 0.  1.
        994   -1    0    0    0    0 -0.00000000000E+00 -0.00000000000E+00  0.11368683772E-12  0.17120000000E+03  0.17120000000E+03 0.  0.
         13    1    1    2    0    0 -0.16363835310E+01  0.20520563643E+02  0.71008948300E+02  0.73932761250E+02  0.10566000000E+00 0.  1.
        994    1    1    2    0    0  0.13698038766E+01 -0.38591436332E+01  0.31338823730E+01  0.17127764177E+03  0.17120000000E+03 0.  0.
        998    1    1    2    0    0  0.26657965436E+00 -0.16661420010E+02  0.14258571656E+04  0.14259895970E+04  0.10000000000E+02 0.  1.
</event>
<event>
 5    1  0.1979219E-008  0.3860033E+03  0.7957747E-01  0.3425428E+00
         13   -1    0    0    0    0  0.00000000000E+00  0.00000000000E+00  0.14999999963E+04  0.15000000000E+04  0.10566000000E+00 0.  1.
        994   -1    0    0    0    0 -0.00000000000E+00 -0.00000000000E+00  0.11368683772E-12  0.17120000000E+03  0.17120000000E+03 0.  0.
         13    1    1    2    0    0 -0.94495926413E+01 -0.89190813365E+01  0.71638780940E+02  0.72807766836E+02  0.10566000000E+00 0.  1.
        994    1    1    2    0    0  0.15749495264E+02  0.54128223706E+01  0.20424816973E+01  0.17202022259E+03  0.17120000000E+03 0.  0.
        998    1    1    2    0    0 -0.62999026230E+01  0.35062589659E+01  0.14263187336E+04  0.14263720106E+04  0.10000000000E+02 0.  1.
</event>
<event>
 5    1  0.1503263E-008  0.3764664E+03  0.7957747E-01  0.3466690E+00
         13   -1    0    0    0    0  0.00000000000E+00  0.00000000000E+00  0.14999999963E+04  0.15000000000E+04  0.10566000000E+00 0. -1.
        994   -1    0    0    0    0 -0.00000000000E+00 -0.00000000000E+00  0.11368683772E-12  0.17120000000E+03  0.17120000000E+03 0.  0.
         13    1    1    2    0    0  0.43951319106E+02 -0.16882610148E+02  0.18367651757E+03  0.18961491304E+03  0.10566000000E+00 0. -1.
        994    1    1    2    0    0 -0.34307368197E+02 -0.85187951975E+01  0.10165916718E+02  0.17510668533E+03  0.17120000000E+03 0.  0.
        998    1    1    2    0    0 -0.96439509092E+01  0.25401405346E+02  0.13061575620E+04  0.13064784016E+04  0.10000000000E+02 0. -1.
</event>
<event>
 5    1  0.1651247E-008  0.3860722E+03  0.7957747E-01  0.3425137E+00
         13   -1    0    0    0    0  0.00000000000E+00  0.00000000000E+00  0.14999999963E+04  0.15000000000E+04  0.10566000000E+00 0.  1.
        994   -1    0    0    0    0 -0.00000000000E+00 -0.00000000000E+00  0.11368683772E-12  0.17120000000E+03  0.17120000000E+03 0.  0.
         13    1    1    2    0    0  0.30568699734E+00  0.12914613939E+02  0.74213857386E+02  0.75329864528E+02  0.10566000000E+00 0.  1.
        994    1    1    2    0    0  0.13751422183E+01 -0.12944237404E+02  0.16542323438E+01  0.17170212807E+03  0.17120000000E+03 0.  0.
        998    1    1    2    0    0 -0.16808292156E+01  0.29623465340E-01  0.14241319065E+04  0.14241680074E+04  0.10000000000E+02 0.  1.
</event>
<event>
 5    1  0.1503263E-008  0.3710610E+03  0.7957747E-01  0.3491029E+00
         13   -1    0    0    0    0  0.00000000000E+00  0.00000000000E+00  0.14999999963E+04  0.15000000000E+04  0.10566000000E+00 0.  1.
        994   -1    0    0    0    0 -0.00000000000E+00 -0.00000000000E+00  0.11368683772E-12  0.17120000000E+03  0.17120000000E+03 0.  0.
         13    1    1    2    0    0  0.87027406995E+02  0.33865804339E+01  0.33091232608E+03  0.34218155592E+03  0.10566000000E+00 0.  1.
        994    1    1    2    0    0 -0.49788335597E+02 -0.60038582177E+02  0.33165655588E+02  0.19103117657E+03  0.17120000000E+03 0.  0.
        998    1    1    2    0    0 -0.37239071397E+02  0.56652001743E+02  0.11359220146E+04  0.11379872675E+04  0.10000000000E+02 0.  1.
</event>
<event>
 5    1  0.1503263E-008  0.3764290E+03  0.7957747E-01  0.3466856E+00
         13   -1    0    0    0    0  0.00000000000E+00  0.00000000000E+00  0.14999999963E+04  0.15000000000E+04  0.10566000000E+00 0. -1.
        994   -1    0    0    0    0 -0.00000000000E+00 -0.00000000000E+00  0.11368683772E-12  0.17120000000E+03  0.17120000000E+03 0.  0.
         13    1    1    2    0    0  0.54232042713E+01 -0.19045782926E+02  0.30859550826E+02  0.36667097418E+02  0.10566000000E+00 0. -1.
        994    1    1    2    0    0 -0.61805893202E+00  0.99460134681E+01  0.62827466829E+01  0.17160483119E+03  0.17120000000E+03 0.  0.
        998    1    1    2    0    0 -0.48051453393E+01  0.90997694583E+01  0.14628576988E+04  0.14629280714E+04  0.10000000000E+02 0. -1.
</event>
<event>
 5    1  0.1503263E-008  0.3852740E+03  0.7957747E-01  0.3428511E+00
         13   -1    0    0    0    0  0.00000000000E+00  0.00000000000E+00  0.14999999963E+04  0.15000000000E+04  0.10566000000E+00 0. -1.
        994   -1    0    0    0    0 -0.00000000000E+00 -0.00000000000E+00  0.11368683772E-12  0.17120000000E+03  0.17120000000E+03 0.  0.
         13    1    1    2    0    0 -0.51818487867E+01  0.14617959842E+02  0.89730869227E+02  0.91061387883E+02  0.10566000000E+00 0. -1.
        994    1    1    2    0    0  0.44130809956E+01  0.49787282846E+01  0.16395923135E+01  0.17133706920E+03  0.17120000000E+03 0.  0.
        998    1    1    2    0    0  0.76876779113E+00 -0.19596688127E+02  0.14086295347E+04  0.14088015429E+04  0.10000000000E+02 0. -1.
</event>
<event>
 5    1  0.1503263E-008  0.3727385E+03  0.7957747E-01  0.3483399E+00
         13   -1    0    0    0    0  0.00000000000E+00  0.00000000000E+00  0.14999999963E+04  0.15000000000E+04  0.10566000000E+00 0.  1.
        994   -1    0    0    0    0 -0.00000000000E+00 -0.00000000000E+00  0.11368683772E-12  0.17120000000E+03  0.17120000000E+03 0.  0.
         13    1    1    2    0    0  0.34731093185E+01 -0.13881338036E+02  0.94253395759E+01  0.17134824895E+02  0.10566000000E+00 0.  1.
        994    1    1    2    0    0 -0.34088982247E+01  0.14542247037E+02  0.86092172714E+01  0.17206584832E+03  0.17120000000E+03 0.  0.
        998    1    1    2    0    0 -0.64211093762E-01 -0.66090900043E+00  0.14819654394E+04  0.14819993268E+04  0.10000000000E+02 0.  1.
</event>
<event>
 5    1  0.1503263E-008  0.3714193E+03  0.7957747E-01  0.3489393E+00
         13   -1    0    0    0    0  0.00000000000E+00  0.00000000000E+00  0.14999999963E+04  0.15000000000E+04  0.10566000000E+00 0.  1.
        994   -1    0    0    0    0 -0.00000000000E+00 -0.00000000000E+00  0.11368683772E-12  0.17120000000E+03  0.17120000000E+03 0.  0.
         13    1    1    2    0    0  0.23880757135E+02 -0.87242077965E+00  0.19182392298E+02  0.30643547734E+02  0.10566000000E+00 0.  1.
        994    1    1    2    0    0 -0.23426677946E+02  0.70839704276E+01  0.13798607983E+02  0.17349015378E+03  0.17120000000E+03 0.  0.
        998    1    1    2    0    0 -0.45407918976E+00 -0.62115496480E+01  0.14670189960E+04  0.14670662985E+04  0.10000000000E+02 0.  1.
</event>
<event>
 5    1  0.1503263E-008  0.3831142E+03  0.7957747E-01  0.3437710E+00
         13   -1    0    0    0    0  0.00000000000E+00  0.00000000000E+00  0.14999999963E+04  0.15000000000E+04  0.10566000000E+00 0. -1.
        994   -1    0    0    0    0 -0.00000000000E+00 -0.00000000000E+00  0.11368683772E-12  0.17120000000E+03  0.17120000000E+03 0.  0.
         13    1    1    2    0    0  0.12871834088E+02 -0.26510734046E+01  0.32264978698E+02  0.34838948282E+02  0.10566000000E+00 0. -1.
        994    1    1    2    0    0 -0.12328281278E+02  0.50224103626E+01  0.31558993503E+01  0.17174577382E+03  0.17120000000E+03 0.  0.
        998    1    1    2    0    0 -0.54355280964E+00 -0.23713369580E+01  0.14645791182E+04  0.14646152779E+04  0.10000000000E+02 0. -1.
</event>
<event>
 5    1  0.1503263E-008  0.3843046E+03  0.7957747E-01  0.3432627E+00
         13   -1    0    0    0    0  0.00000000000E+00  0.00000000000E+00  0.14999999963E+04  0.15000000000E+04  0.10566000000E+00 0. -1.
        994   -1    0    0    0    0 -0.00000000000E+00 -0.00000000000E+00  0.11368683772E-12  0.17120000000E+03  0.17120000000E+03 0.  0.
         13    1    1    2    0    0 -0.40595252466E+01  0.12269760452E+02  0.43295537908E+02  0.45183421004E+02  0.10566000000E+00 0. -1.
        994    1    1    2    0    0 -0.74424515788E-01 -0.18401296416E+01  0.19869441089E+01  0.17122143430E+03  0.17120000000E+03 0.  0.
        998    1    1    2    0    0  0.41339497624E+01 -0.10429630811E+02  0.14547175143E+04  0.14547951447E+04  0.10000000000E+02 0. -1.
</event>
<event>
 5    1  0.1503263E-008  0.3766602E+03  0.7957747E-01  0.3465831E+00
         13   -1    0    0    0    0  0.00000000000E+00  0.00000000000E+00  0.14999999963E+04  0.15000000000E+04  0.10566000000E+00 0. -1.
        994   -1    0    0    0    0 -0.00000000000E+00 -0.00000000000E+00  0.11368683772E-12  0.17120000000E+03  0.17120000000E+03 0.  0.
         13    1    1    2    0    0  0.43816611847E+02 -0.35306148489E+02  0.32394997322E+03  0.32880087577E+03  0.10566000000E+00 0. -1.
        994    1    1    2    0    0 -0.78535341324E+01  0.77162870065E+01  0.62384850502E+01  0.17166705502E+03  0.17120000000E+03 0.  0.
        998    1    1    2    0    0 -0.35963077715E+02  0.27589861482E+02  0.11698115380E+04  0.11707320692E+04  0.10000000000E+02 0. -1.
</event>
<event>
 5    1  0.1503263E-008  0.3748877E+03  0.7957747E-01  0.3473725E+00
         13   -1    0    0    0    0  0.00000000000E+00  0.00000000000E+00  0.14999999963E+04  0.15000000000E+04  0.10566000000E+00 0.  1.
        994   -1    0    0    0    0 -0.00000000000E+00 -0.00000000000E+00  0.11368683772E-12  0.17120000000E+03  0.17120000000E+03 0.  0.
         13    1    1    2    0    0 -0.11108441048E+02 -0.43202590212E+01  0.73936902896E+01  0.14026400845E+02  0.10566000000E+00 0.  1.
        994    1    1    2    0    0  0.11663028150E+02  0.71577117119E+01  0.73734212178E+01  0.17190423614E+03  0.17120000000E+03 0.  0.
        998    1    1    2    0    0 -0.55458710199E+00 -0.28374526907E+01  0.14852328848E+04  0.14852693630E+04  0.10000000000E+02 0.  1.
</event>
<event>
 5    1  0.1503263E-008  0.3843039E+03  0.7957747E-01  0.3432630E+00
         13   -1    0    0    0    0  0.00000000000E+00  0.00000000000E+00  0.14999999963E+04  0.15000000000E+04  0.10566000000E+00 0. -1.
        994   -1    0    0    0    0 -0.00000000000E+00 -0.00000000000E+00  0.11368683772E-12  0.17120000000E+03  0.17120000000E+03 0.  0.
         13    1    1    2    0    0 -0.17496419776E+02  0.10911646389E+02  0.11299128660E+03  0.11485743660E+03  0.10566000000E+00 0. -1.
        994    1    1    2    0    0  0.45457335867E+01 -0.43786936734E+01  0.21074755033E+01  0.17132926809E+03  0.17120000000E+03 0.  0.
        998    1    1    2    0    0  0.12950686190E+02 -0.65329527160E+01  0.13849012342E+04  0.13850132953E+04  0.10000000000E+02 0. -1.
</event>
<event>
 5    1  0.1503263E-008  0.3815900E+03  0.7957747E-01  0.3444264E+00
         13   -1    0    0    0    0  0.00000000000E+00  0.00000000000E+00  0.14999999963E+04  0.15000000000E+04  0.10566000000E+00 0. -1.
        994   -1    0    0    0    0 -0.00000000000E+00 -0.00000000000E+00  0.11368683772E-12  0.17120000000E+03  0.17120000000E+03 0.  0.
         13    1    1    2    0    0 -0.18016446248E+02 -0.89218017410E+01  0.64109285576E+02  0.67187815434E+02  0.10566000000E+00 0. -1.
        994    1    1    2    0    0 -0.32332947171E+00 -0.66322811648E+01  0.34793162078E+01  0.17136404914E+03  0.17120000000E+03 0.  0.
        998    1    1    2    0    0  0.18339775720E+02  0.15554082906E+02  0.14324113945E+04  0.14326481354E+04  0.10000000000E+02 0. -1.
</event>
<event>
 5    1  0.1503263E-008  0.3773248E+03  0.7957747E-01  0.3462890E+00
         13   -1    0    0    0    0  0.00000000000E+00  0.00000000000E+00  0.14999999963E+04  0.15000000000E+04  0.10566000000E+00 0.  1.
        994   -1    0    0    0    0 -0.00000000000E+00 -0.00000000000E+00  0.11368683772E-12  0.17120000000E+03  0.17120000000E+03 0.  0.
         13    1    1    2    0    0  0.78024076983E+02  0.69779997107E+02  0.56560686687E+03  0.57521139036E+03  0.10566000000E+00 0.  1.
        994    1    1    2    0    0 -0.74441263898E+02 -0.81812126695E+02  0.47934294737E+02  0.20938448476E+03  0.17120000000E+03 0.  0.
        998    1    1    2    0    0 -0.35828130856E+01  0.12032129589E+02  0.88645883467E+03  0.88660412489E+03  0.10000000000E+02 0.  1.
</event>
<event>
 5    1  0.1503263E-008  0.3781676E+03  0.7957747E-01  0.3459176E+00
         13   -1    0    0    0    0  0.00000000000E+00  0.00000000000E+00  0.14999999963E+04  0.15000000000E+04  0.10566000000E+00 0. -1.
        994   -1    0    0    0    0 -0.00000000000E+00 -0.00000000000E+00  0.11368683772E-12  0.17120000000E+03  0.17120000000E+03 0.  0.
         13    1    1    2    0    0  0.11531683725E+02 -0.18626974148E+02  0.44644533326E+02  0.49730166050E+02  0.10566000000E+00 0. -1.
        994    1    1    2    0    0 -0.93260801584E+01  0.17532677901E+02  0.63885254214E+01  0.17246629764E+03  0.17120000000E+03 0.  0.
        998    1    1    2    0    0 -0.22056035671E+01  0.10942962476E+01  0.14489669375E+04  0.14490035363E+04  0.10000000000E+02 0.  0.
</event>
<event>
 5    1  0.1503263E-008  0.3829076E+03  0.7957747E-01  0.3438595E+00
         13   -1    0    0    0    0  0.00000000000E+00  0.00000000000E+00  0.14999999963E+04  0.15000000000E+04  0.10566000000E+00 0.  1.
        994   -1    0    0    0    0 -0.00000000000E+00 -0.00000000000E+00  0.11368683772E-12  0.17120000000E+03  0.17120000000E+03 0.  0.
         13    1    1    2    0    0  0.56903320523E+01 -0.20292446534E+02  0.86112362877E+02  0.88653897091E+02  0.10566000000E+00 0.  1.
        994    1    1    2    0    0 -0.26503970647E+01  0.50388885038E+01  0.27798746795E+01  0.17131719909E+03  0.17120000000E+03 0.  0.
        998    1    1    2    0    0 -0.30399349876E+01  0.15253558031E+02  0.14111077587E+04  0.14112289038E+04  0.10000000000E+02 0.  1.
</event>
<event>
 5    1  0.1503263E-008  0.3776459E+03  0.7957747E-01  0.3461473E+00
         13   -1    0    0    0    0  0.00000000000E+00  0.00000000000E+00  0.14999999963E+04  0.15000000000E+04  0.10566000000E+00 0.  1.
        994   -1    0    0    0    0 -0.00000000000E+00 -0.00000000000E+00  0.11368683772E-12  0.17120000000E+03  0.17120000000E+03 0.  0.
         13    1    1    2    0    0 -0.50226712056E+02  0.22706358461E+02  0.25370456420E+03  0.25962341647E+03  0.10566000000E+00 0.  1.
        994    1    1    2    0    0  0.36361749789E+02 -0.33020398764E+02  0.13497853666E+02  0.17861734416E+03  0.17120000000E+03 0.  0.
        998    1    1    2    0    0  0.13864962267E+02  0.10314040303E+02  0.12327975784E+04  0.12329592394E+04  0.10000000000E+02 0.  1.
</event>
<event>
 5    1  0.1503263E-008  0.3843824E+03  0.7957747E-01  0.3432296E+00
         13   -1    0    0    0    0  0.00000000000E+00  0.00000000000E+00  0.14999999963E+04  0.15000000000E+04  0.10566000000E+00 0. -1.
        994   -1    0    0    0    0 -0.00000000000E+00 -0.00000000000E+00  0.11368683772E-12  0.17120000000E+03  0.17120000000E+03 0.  0.
         13    1    1    2    0    0  0.55582681145E+01 -0.10274416869E+02  0.34222052667E+02  0.36161001635E+02  0.10566000000E+00 0. -1.
        994    1    1    2    0    0  0.38948123012E+01  0.15591160821E+02  0.27885222415E+01  0.17197520087E+03  0.17120000000E+03 0.  0.
        998    1    1    2    0    0 -0.94530804157E+01 -0.53167439520E+01  0.14629894214E+04  0.14630637975E+04  0.10000000000E+02 0. -1.
</event>
<event>
 5    1  0.1503263E-008  0.3784258E+03  0.7957747E-01  0.3458042E+00
         13   -1    0    0    0    0  0.00000000000E+00  0.00000000000E+00  0.14999999963E+04  0.15000000000E+04  0.10566000000E+00 0. -1.
        994   -1    0    0    0    0 -0.00000000000E+00 -0.00000000000E+00  0.11368683772E-12  0.17120000000E+03  0.17120000000E+03 0.  0.
         13    1    1    2    0    0  0.23356060902E+02 -0.18100725060E+02  0.85696541295E+02  0.90647946378E+02  0.10566000000E+00 0. -1.
        994    1    1    2    0    0 -0.18867328180E+02  0.10103134770E+02  0.64706576081E+01  0.17265386997E+03  0.17120000000E+03 0.  0.
        998    1    1    2    0    0 -0.44887327227E+01  0.79975902899E+01  0.14078327974E+04  0.14078981837E+04  0.10000000000E+02 0. -1.
</event>
<event>
 5    1  0.1503263E-008  0.3736775E+03  0.7957747E-01  0.3479159E+00
         13   -1    0    0    0    0  0.00000000000E+00  0.00000000000E+00  0.14999999963E+04  0.15000000000E+04  0.10566000000E+00 0.  1.
        994   -1    0    0    0    0 -0.00000000000E+00 -0.00000000000E+00  0.11368683772E-12  0.17120000000E+03  0.17120000000E+03 0.  0.
         13    1    1    2    0    0 -0.32303194410E+02  0.19578900223E+02  0.10033544920E+03  0.10721027578E+03  0.10566000000E+00 0.  1.
        994    1    1    2    0    0  0.18802400768E+01 -0.12788616300E+02  0.79301108625E+01  0.17187033097E+03  0.17120000000E+03 0.  0.
        998    1    1    2    0    0  0.30422954333E+02 -0.67902839237E+01  0.13917344362E+04  0.13921193933E+04  0.10000000000E+02 0.  1.
</event>
<event>
 5    1  0.1503263E-008  0.4102695E+03  0.7957747E-01  0.3329096E+00
         13   -1    0    0    0    0  0.00000000000E+00  0.00000000000E+00  0.14999999963E+04  0.15000000000E+04  0.10566000000E+00 0.  1.
        994   -1    0    0    0    0 -0.00000000000E+00 -0.00000000000E+00  0.11368683772E-12  0.17120000000E+03  0.17120000000E+03 0.  0.
         13    1    1    2    0    0  0.21262766893E+02  0.11698530630E+03  0.18027843239E+03  0.21595830962E+03  0.10566000000E+00 0.  1.
        994    1    1    2    0    0 -0.37220950941E+02 -0.10268136598E+03  0.84756013149E+02  0.22004973046E+03  0.17120000000E+03 0.  0.
        998    1    1    2    0    0  0.15958184048E+02 -0.14303940314E+02  0.12349655507E+04  0.12351919599E+04  0.10000000000E+02 0.  1.
</event>
<event>
 5    1  0.1503263E-008  0.3800389E+03  0.7957747E-01  0.3450989E+00
         13   -1    0    0    0    0  0.00000000000E+00  0.00000000000E+00  0.14999999963E+04  0.15000000000E+04  0.10566000000E+00 0. -1.
        994   -1    0    0    0    0 -0.00000000000E+00 -0.00000000000E+00  0.11368683772E-12  0.17120000000E+03  0.17120000000E+03 0.  0.
         13    1    1    2    0    0  0.17749124811E+02  0.19457831161E+02  0.82270664801E+02  0.86383517385E+02  0.10566000000E+00 0. -1.
        994    1    1    2    0    0 -0.38223418936E+02  0.96629422671E+01  0.93266176481E+01  0.17592847412E+03  0.17120000000E+03 0.  0.
        998    1    1    2    0    0  0.20474294125E+02 -0.29120773428E+02  0.14084027138E+04  0.14088880085E+04  0.10000000000E+02 0. -1.
</event>
<event>
 5    1  0.1503263E-008  0.2720973E+03  0.7957747E-01  0.4117838E+00
         13   -1    0    0    0    0  0.00000000000E+00  0.00000000000E+00  0.14999999963E+04  0.15000000000E+04  0.10566000000E+00 0.  1.
        994   -1    0    0    0    0 -0.00000000000E+00 -0.00000000000E+00  0.11368683772E-12  0.17120000000E+03  0.17120000000E+03 0.  0.
         13    1    1    2    0    0 -0.16418466542E+03 -0.61854822738E+02  0.43320682670E+03  0.46738719422E+03  0.10566000000E+00 0.  1.
        994    1    1    2    0    0  0.17507238584E+03  0.63084496759E+02  0.16508129660E+03  0.30197892063E+03  0.17120000000E+03 0.  0.
        998    1    1    2    0    0 -0.10887720418E+02 -0.12296740216E+01  0.90171187297E+03  0.90183388516E+03  0.10000000000E+02 0.  0.
</event>
<event>
 5    1  0.1503263E-008  0.3838341E+03  0.7957747E-01  0.3434632E+00
         13   -1    0    0    0    0  0.00000000000E+00  0.00000000000E+00  0.14999999963E+04  0.15000000000E+04  0.10566000000E+00 0. -1.
        994   -1    0    0    0    0 -0.00000000000E+00 -0.00000000000E+00  0.11368683772E-12  0.17120000000E+03  0.17120000000E+03 0.  0.
         13    1    1    2    0    0  0.80450453771E+01 -0.19663692942E+02  0.10069844275E+03  0.10291535897E+03  0.10566000000E+00 0. -1.
        994    1    1    2    0    0  0.46038638795E+01  0.17880105423E+02  0.33362113747E+01  0.17222503894E+03  0.17120000000E+03 0.  0.
        998    1    1    2    0    0 -0.12648909257E+02  0.17835875185E+01  0.13959653422E+04  0.13960596021E+04  0.10000000000E+02 0. -1.
</event>
<event>
 5    1  0.1503263E-008  0.3725491E+03  0.7957747E-01  0.3484257E+00
         13   -1    0    0    0    0  0.00000000000E+00  0.00000000000E+00  0.14999999963E+04  0.15000000000E+04  0.10566000000E+00 0.  1.
        994   -1    0    0    0    0 -0.00000000000E+00 -0.00000000000E+00  0.11368683772E-12  0.17120000000E+03  0.17120000000E+03 0.  0.
         13    1    1    2    0    0  0.90450730794E+02 -0.60004135736E+02  0.60652786060E+03  0.61616384823E+03  0.10566000000E+00 0.  1.
        994    1    1    2    0    0 -0.16825393524E+02  0.49802759922E+02  0.22105656759E+02  0.18044807792E+03  0.17120000000E+03 0.  0.
        998    1    1    2    0    0 -0.73625337269E+02  0.10201375814E+02  0.87136647892E+03  0.87458807386E+03  0.10000000000E+02 0.  1.
</event>
<event>
 5    1  0.1503263E-008  0.3839810E+03  0.7957747E-01  0.3434006E+00
         13   -1    0    0    0    0  0.00000000000E+00  0.00000000000E+00  0.14999999963E+04  0.15000000000E+04  0.10566000000E+00 0. -1.
        994   -1    0    0    0    0 -0.00000000000E+00 -0.00000000000E+00  0.11368683772E-12  0.17120000000E+03  0.17120000000E+03 0.  0.
         13    1    1    2    0    0 -0.11791968769E+02 -0.50674831831E+01  0.39922111957E+02  0.41934664663E+02  0.10566000000E+00 0. -1.
        994    1    1    2    0    0 -0.39662391330E+00 -0.48682076293E+01  0.22156416688E+01  0.17128399173E+03  0.17120000000E+03 0.  0.
        998    1    1    2    0    0  0.12188592683E+02  0.99356908124E+01  0.14578622427E+04  0.14579813436E+04  0.10000000000E+02 0. -1.
</event>
<event>
 5    1  0.1503263E-008  0.3836187E+03  0.7957747E-01  0.3435552E+00
         13   -1    0    0    0    0  0.00000000000E+00  0.00000000000E+00  0.14999999963E+04  0.15000000000E+04  0.10566000000E+00 0. -1.
        994   -1    0    0    0    0 -0.00000000000E+00 -0.00000000000E+00  0.11368683772E-12  0.17120000000E+03  0.17120000000E+03 0.  0.
         13    1    1    2    0    0 -0.17835012376E+02 -0.14973164178E+01  0.72948749887E+02  0.75112321872E+02  0.10566000000E+00 0. -1.
        994    1    1    2    0    0  0.11307332647E+00  0.83301273571E+01  0.25467813278E+01  0.17142149778E+03  0.17120000000E+03 0.  0.
        998    1    1    2    0    0  0.17721939049E+02 -0.68328109394E+01  0.14245044651E+04  0.14246661803E+04  0.10000000000E+02 0. -1.
</event>
<event>
 5    1  0.1503263E-008  0.3829608E+03  0.7957747E-01  0.3438367E+00
         13   -1    0    0    0    0  0.00000000000E+00  0.00000000000E+00  0.14999999963E+04  0.15000000000E+04  0.10566000000E+00 0.  1.
        994   -1    0    0    0    0 -0.00000000000E+00 -0.00000000000E+00  0.11368683772E-12  0.17120000000E+03  0.17120000000E+03 0.  0.
         13    1    1    2    0    0  0.18145677443E+02  0.16495305383E+02  0.10333611161E+03  0.10620604425E+03  0.10566000000E+00 0.  1.
        994    1    1    2    0    0 -0.21653149726E+02 -0.19460230044E+02  0.54568717310E+01  0.17374342260E+03  0.17120000000E+03 0.  0.
        998    1    1    2    0    0  0.35074722829E+01  0.29649246605E+01  0.13912070129E+04  0.13912505331E+04  0.10000000000E+02 0.  1.
</event>
<event>
 5    1  0.1562323E-008  0.3860354E+03  0.7957747E-01  0.3425293E+00
         13   -1    0    0    0    0  0.00000000000E+00  0.00000000000E+00  0.14999999963E+04  0.15000000000E+04  0.10566000000E+00 0.  1.
        994   -1    0    0    0    0 -0.00000000000E+00 -0.00000000000E+00  0.11368683772E-12  0.17120000000E+03  0.17120000000E+03 0.  0.
         13    1    1    2    0    0 -0.63416642638E+01  0.99518549147E+01  0.66511790792E+02  0.67550615100E+02  0.10566000000E+00 0.  1.
        994    1    1    2    0    0 -0.20275661950E+01 -0.26107116186E+01  0.11527801247E+01  0.17123578990E+03  0.17120000000E+03 0.  0.
        998    1    1    2    0    0  0.83692304588E+01 -0.73411432961E+01  0.14323354254E+04  0.14324135950E+04  0.10000000000E+02 0.  1.
</event>
<event>
 5    1  0.1503263E-008  0.3745300E+03  0.7957747E-01  0.3475328E+00
         13   -1    0    0    0    0  0.00000000000E+00  0.00000000000E+00  0.14999999963E+04  0.15000000000E+04  0.10566000000E+00 0.  1.
        994   -1    0    0    0    0 -0.00000000000E+00 -0.00000000000E+00  0.11368683772E-12  0.17120000000E+03  0.17120000000E+03 0.  0.
         13    1    1    2    0    0 -0.34920769225E+02  0.44501500459E+02  0.20913615588E+03  0.21665130169E+03  0.10566000000E+00 0.  1.
        994    1    1    2    0    0  0.23841800736E+02 -0.42209653007E+02  0.14963839770E+02  0.17855935363E+03  0.17120000000E+03 0.  0.
        998    1    1    2    0    0  0.11078968490E+02 -0.22918474520E+01  0.12759000006E+04  0.12759893447E+04  0.10000000000E+02 0.  1.
</event>
<event>
 5    1  0.1503263E-008  0.3855010E+03  0.7957747E-01  0.3427550E+00
         13   -1    0    0    0    0  0.00000000000E+00  0.00000000000E+00  0.14999999963E+04  0.15000000000E+04  0.10566000000E+00 0. -1.
        994   -1    0    0    0    0 -0.00000000000E+00 -0.00000000000E+00  0.11368683772E-12  0.17120000000E+03  0.17120000000E+03 0.  0.
         13    1    1    2    0    0 -0.80657142961E+01 -0.12611178991E+02  0.74863829407E+02  0.76345934405E+02  0.10566000000E+00 0. -1.
        994    1    1    2    0    0  0.32566655615E+01  0.23688273327E+02  0.32610381431E+01  0.17289249415E+03  0.17120000000E+03 0.  0.
        998    1    1    2    0    0  0.48090487347E+01 -0.11077094336E+02  0.14218751287E+04  0.14219615714E+04  0.10000000000E+02 0. -1.
</event>
<event>
 5    1  0.1503263E-008  0.3796982E+03  0.7957747E-01  0.3452474E+00
         13   -1    0    0    0    0  0.00000000000E+00  0.00000000000E+00  0.14999999963E+04  0.15000000000E+04  0.10566000000E+00 0. -1.
        994   -1    0    0    0    0 -0.00000000000E+00 -0.00000000000E+00  0.11368683772E-12  0.17120000000E+03  0.17120000000E+03 0.  0.
         13    1    1    2    0    0  0.52075904644E+01  0.21300496244E+02  0.80688101555E+01  0.23365508769E+02  0.10566000000E+00 0. -1.
        994    1    1    2    0    0 -0.18507067592E+02 -0.11524295265E+01  0.17407057306E+02  0.17307884125E+03  0.17120000000E+03 0.  0.
        998    1    1    2    0    0  0.13299477127E+02 -0.20148066717E+02  0.14745241288E+04  0.14747556500E+04  0.10000000000E+02 0. -1.
</event>
<event>
 5    1  0.1503263E-008  0.3781801E+03  0.7957747E-01  0.3459121E+00
         13   -1    0    0    0    0  0.00000000000E+00  0.00000000000E+00  0.14999999963E+04  0.15000000000E+04  0.10566000000E+00 0.  1.
        994   -1    0    0    0    0 -0.00000000000E+00 -0.00000000000E+00  0.11368683772E-12  0.17120000000E+03  0.17120000000E+03 0.  0.
         13    1    1    2    0    0 -0.12146497833E+02  0.58535869476E+02  0.25819015501E+03  0.26502104205E+03  0.10566000000E+00 0.  1.
        994    1    1    2    0    0 -0.44733675106E+02 -0.92325324769E+02  0.41310329522E+02  0.20381621772E+03  0.17120000000E+03 0.  0.
        998    1    1    2    0    0  0.56880172940E+02  0.33789455293E+02  0.12004995118E+04  0.12023627402E+04  0.10000000000E+02 0.  1.
</event>
<event>
 5    1  0.1503263E-008  0.3853485E+03  0.7957747E-01  0.3428195E+00
         13   -1    0    0    0    0  0.00000000000E+00  0.00000000000E+00  0.14999999963E+04  0.15000000000E+04  0.10566000000E+00 0.  1.
        994   -1    0    0    0    0 -0.00000000000E+00 -0.00000000000E+00  0.11368683772E-12  0.17120000000E+03  0.17120000000E+03 0.  0.
         13    1    1    2    0    0 -0.94980674983E+01 -0.83922307014E+01  0.56764071796E+02  0.58161962082E+02  0.10566000000E+00 0.  1.
        994    1    1    2    0    0  0.65626821832E+01 -0.94466236088E+00  0.16016211647E+01  0.17133582922E+03  0.17120000000E+03 0.  0.
        998    1    1    2    0    0  0.29353853151E+01  0.93368930623E+01  0.14416343033E+04  0.14417022087E+04  0.10000000000E+02 0.  1.
</event>
<event>
 5    1  0.1503263E-008  0.3794646E+03  0.7957747E-01  0.3453493E+00
         13   -1    0    0    0    0  0.00000000000E+00  0.00000000000E+00  0.14999999963E+04  0.15000000000E+04  0.10566000000E+00 0.  1.
        994   -1    0    0    0    0 -0.00000000000E+00 -0.00000000000E+00  0.11368683772E-12  0.17120000000E+03  0.17120000000E+03 0.  0.
         13    1    1    2    0    0 -0.21531073972E+02 -0.36693585774E+02  0.18138683343E+03  0.18630942244E+03  0.10566000000E+00 0.  1.
        994    1    1    2    0    0  0.23771088006E+02  0.35010414864E+02  0.10424208783E+02  0.17666040276E+03  0.17120000000E+03 0.  0.
        998    1    1    2    0    0 -0.22400140342E+01  0.16831709094E+01  0.13081889541E+04  0.13082301748E+04  0.10000000000E+02 0.  1.
</event>
<event>
 5    1  0.1503263E-008  0.3845043E+03  0.7957747E-01  0.3431777E+00
         13   -1    0    0    0    0  0.00000000000E+00  0.00000000000E+00  0.14999999963E+04  0.15000000000E+04  0.10566000000E+00 0.  1.
        994   -1    0    0    0    0 -0.00000000000E+00 -0.00000000000E+00  0.11368683772E-12  0.17120000000E+03  0.17120000000E+03 0.  0.
         13    1    1    2    0    0 -0.10590390262E+02 -0.13219045416E+02  0.76932330678E+02  0.78774959189E+02  0.10566000000E+00 0.  1.
        994    1    1    2    0    0  0.17322993262E+01  0.10906834551E+02  0.22782584045E+01  0.17157094848E+03  0.17120000000E+03 0.  0.
        998    1    1    2    0    0  0.88580909357E+01  0.23122108649E+01  0.14207894072E+04  0.14208540923E+04  0.10000000000E+02 0.  1.
</event>
<event>
 5    1  0.1503263E-008  0.3812046E+03  0.7957747E-01  0.3445930E+00
         13   -1    0    0    0    0  0.00000000000E+00  0.00000000000E+00  0.14999999963E+04  0.15000000000E+04  0.10566000000E+00 0.  1.
        994   -1    0    0    0    0 -0.00000000000E+00 -0.00000000000E+00  0.11368683772E-12  0.17120000000E+03  0.17120000000E+03 0.  0.
         13    1    1    2    0    0  0.91100406540E+01  0.10866436804E+02  0.26766918777E+02  0.30291110815E+02  0.10566000000E+00 0.  1.
        994    1    1    2    0    0 -0.12595424861E+02 -0.78911118775E+01  0.42622049400E+01  0.17189683175E+03  0.17120000000E+03 0.  0.
        998    1    1    2    0    0  0.34853842074E+01 -0.29753249265E+01  0.14689708726E+04  0.14690120574E+04  0.10000000000E+02 0.  1.
</event>
<event>
 5    1  0.1503263E-008  0.3775295E+03  0.7957747E-01  0.3461986E+00
         13   -1    0    0    0    0  0.00000000000E+00  0.00000000000E+00  0.14999999963E+04  0.15000000000E+04  0.10566000000E+00 0.  1.
        994   -1    0    0    0    0 -0.00000000000E+00 -0.00000000000E+00  0.11368683772E-12  0.17120000000E+03  0.17120000000E+03 0.  0.
         13    1    1    2    0    0 -0.21746316442E+02 -0.61995840309E+02  0.35002385170E+03  0.35613634246E+03  0.10566000000E+00 0.  1.
        994    1    1    2    0    0  0.15080866640E+02  0.49808066531E+02  0.14568535532E+02  0.17952704046E+03  0.17120000000E+03 0.  0.
        998    1    1    2    0    0  0.66654498017E+01  0.12187773779E+02  0.11354076090E+04  0.11355366171E+04  0.10000000000E+02 0.  1.
</event>
<event>
 5    1  0.1503263E-008  0.3710496E+03  0.7957747E-01  0.3491081E+00
         13   -1    0    0    0    0  0.00000000000E+00  0.00000000000E+00  0.14999999963E+04  0.15000000000E+04  0.10566000000E+00 0.  1.
        994   -1    0    0    0    0 -0.00000000000E+00 -0.00000000000E+00  0.11368683772E-12  0.17120000000E+03  0.17120000000E+03 0.  0.
         13    1    1    2    0    0 -0.59742205930E+02  0.81205200695E+01  0.15852171094E+03  0.16960017105E+03  0.10566000000E+00 0.  1.
        994    1    1    2    0    0  0.28767956571E+02 -0.16228346728E+02  0.15332548083E+02  0.17502994485E+03  0.17120000000E+03 0.  0.
        998    1    1    2    0    0  0.30974249359E+02  0.81078266581E+01  0.13261457373E+04  0.13265698841E+04  0.10000000000E+02 0.  1.
</event>
<event>
 5    1  0.1503263E-008  0.3856453E+03  0.7957747E-01  0.3426940E+00
         13   -1    0    0    0    0  0.00000000000E+00  0.00000000000E+00  0.14999999963E+04  0.15000000000E+04  0.10566000000E+00 0.  1.
        994   -1    0    0    0    0 -0.00000000000E+00 -0.00000000000E+00  0.11368683772E-12  0.17120000000E+03  0.17120000000E+03 0.  0.
         13    1    1    2    0    0  0.15192799274E+02  0.70100029911E+01  0.99459856279E+02  0.10085750080E+03  0.10566000000E+00 0.  1.
        994    1    1    2    0    0 -0.16401017116E+02 -0.11728884838E+02  0.26454875870E+01  0.17240359250E+03  0.17120000000E+03 0.  0.
        998    1    1    2    0    0  0.12082178420E+01  0.47188818474E+01  0.13978946524E+04  0.13979389067E+04  0.10000000000E+02 0.  1.
</event>
<event>
 5    1  0.1503263E-008  0.2771383E+03  0.7957747E-01  0.4074083E+00
         13   -1    0    0    0    0  0.00000000000E+00  0.00000000000E+00  0.14999999963E+04  0.15000000000E+04  0.10566000000E+00 0. -1.
        994   -1    0    0    0    0 -0.00000000000E+00 -0.00000000000E+00  0.11368683772E-12  0.17120000000E+03  0.17120000000E+03 0.  0.
         13    1    1    2    0    0 -0.13009400711E+03 -0.14093132090E+03  0.43754949058E+03  0.47774015507E+03  0.10566000000E+00 0. -1.
        994    1    1    2    0    0  0.12909427347E+03  0.14749673779E+03  0.19319366435E+03  0.32412011824E+03  0.17120000000E+03 0.  0.
        998    1    1    2    0    0  0.99973364220E+00 -0.65654168916E+01  0.86925684135E+03  0.86933972669E+03  0.10000000000E+02 0.  0.
</event>
<event>
 5    1  0.1503263E-008  0.3821135E+03  0.7957747E-01  0.3442007E+00
         13   -1    0    0    0    0  0.00000000000E+00  0.00000000000E+00  0.14999999963E+04  0.15000000000E+04  0.10566000000E+00 0. -1.
        994   -1    0    0    0    0 -0.00000000000E+00 -0.00000000000E+00  0.11368683772E-12  0.17120000000E+03  0.17120000000E+03 0.  0.
         13    1    1    2    0    0  0.26962090138E+02 -0.16512334702E+02  0.14283651613E+03  0.14629385840E+03  0.10566000000E+00 0. -1.
        994    1    1    2    0    0 -0.26774337273E+02  0.26944296472E+02  0.78747929161E+01  0.17554005985E+03  0.17120000000E+03 0.  0.
        998    1    1    2    0    0 -0.18775286437E+00 -0.10431961770E+02  0.13492886872E+04  0.13493660817E+04  0.10000000000E+02 0. -1.
</event>
<event>
 5    1  0.1503263E-008  0.3825779E+03  0.7957747E-01  0.3440010E+00
         13   -1    0    0    0    0  0.00000000000E+00  0.00000000000E+00  0.14999999963E+04  0.15000000000E+04  0.10566000000E+00 0. -1.
        994   -1    0    0    0    0 -0.00000000000E+00 -0.00000000000E+00  0.11368683772E-12  0.17120000000E+03  0.17120000000E+03 0.  0.
         13    1    1    2    0    0  0.91751281819E+01  0.52363358207E+01  0.18600090763E+02  0.21391043228E+02  0.10566000000E+00 0. -1.
        994    1    1    2    0    0 -0.57145900503E+01 -0.36829347011E+01  0.29906705388E+01  0.17136103600E+03  0.17120000000E+03 0.  0.
        998    1    1    2    0    0 -0.34605381317E+01 -0.15534011196E+01  0.14784092350E+04  0.14784479208E+04  0.10000000000E+02 0. -1.
</event>
<event>
 5    1  0.1503263E-008  0.3812682E+03  0.7957747E-01  0.3445655E+00
         13   -1    0    0    0    0  0.00000000000E+00  0.00000000000E+00  0.14999999963E+04  0.15000000000E+04  0.10566000000E+00 0. -1.
        994   -1    0    0    0    0 -0.00000000000E+00 -0.00000000000E+00  0.11368683772E-12  0.17120000000E+03  0.17120000000E+03 0.  0.
         13    1    1    2    0    0  0.23398040680E+02 -0.11551575509E+02  0.90504513572E+02  0.94191216922E+02  0.10566000000E+00 0. -1.
        994    1    1    2    0    0 -0.23973176934E+02  0.14335405119E+02  0.60959930132E+01  0.17357078724E+03  0.17120000000E+03 0.  0.
        998    1    1    2    0    0  0.57513625398E+00 -0.27838296106E+01  0.14033994897E+04  0.14034379958E+04  0.10000000000E+02 0. -1.
</event>
<event>
 5    1  0.1503263E-008  0.3850396E+03  0.7957747E-01  0.3429504E+00
         13   -1    0    0    0    0  0.00000000000E+00  0.00000000000E+00  0.14999999963E+04  0.15000000000E+04  0.10566000000E+00 0. -1.
        994   -1    0    0    0    0 -0.00000000000E+00 -0.00000000000E+00  0.11368683772E-12  0.17120000000E+03  0.17120000000E+03 0.  0.
         13    1    1    2    0    0 -0.16411306628E+02 -0.24427102445E+01  0.82898893763E+02  0.84543098889E+02  0.10566000000E+00 0. -1.
        994    1    1    2    0    0  0.15581019210E+02 -0.16254406945E+01  0.24178808933E+01  0.17193224353E+03  0.17120000000E+03 0.  0.
        998    1    1    2    0    0  0.83028741777E+00  0.40681509390E+01  0.14146832216E+04  0.14147246576E+04  0.10000000000E+02 0. -1.
</event>
<event>
 5    1  0.1503263E-008  0.3793308E+03  0.7957747E-01  0.3454077E+00
         13   -1    0    0    0    0  0.00000000000E+00  0.00000000000E+00  0.14999999963E+04  0.15000000000E+04  0.10566000000E+00 0.  1.
        994   -1    0    0    0    0 -0.00000000000E+00 -0.00000000000E+00  0.11368683772E-12  0.17120000000E+03  0.17120000000E+03 0.  0.
         13    1    1    2    0    0 -0.18449373476E+03  0.24769789105E+02  0.97040711201E+03  0.98809992148E+03  0.10566000000E+00 0.  1.
        994    1    1    2    0    0  0.19784143301E+03  0.54643248850E+01  0.14937884393E+03  0.30132137408E+03  0.17120000000E+03 0.  0.
        998    1    1    2    0    0 -0.13347698248E+02 -0.30234113990E+02  0.38021404033E+03  0.38177870444E+03  0.10000000000E+02 0.  1.
</event>
<event>
 5    1  0.1503263E-008  0.3820581E+03  0.7957747E-01  0.3442246E+00
         13   -1    0    0    0    0  0.00000000000E+00  0.00000000000E+00  0.14999999963E+04  0.15000000000E+04  0.10566000000E+00 0. -1.
        994   -1    0    0    0    0 -0.00000000000E+00 -0.00000000000E+00  0.11368683772E-12  0.17120000000E+03  0.17120000000E+03 0.  0.
         13    1    1    2    0    0  0.10304641589E+02  0.16535128127E+02  0.61814288251E+02  0.64812140039E+02  0.10566000000E+00 0. -1.
        994    1    1    2    0    0 -0.10993583331E+02 -0.14941711014E+01  0.35066570152E+01  0.17159495350E+03  0.17120000000E+03 0.  0.
        998    1    1    2    0    0  0.68894174207E+00 -0.15040957025E+02  0.14346790510E+04  0.14347929065E+04  0.10000000000E+02 0. -1.
</event>
<event>
 5    1  0.1503263E-008  0.3735916E+03  0.7957747E-01  0.3479546E+00
         13   -1    0    0    0    0  0.00000000000E+00  0.00000000000E+00  0.14999999963E+04  0.15000000000E+04  0.10566000000E+00 0.  1.
        994   -1    0    0    0    0 -0.00000000000E+00 -0.00000000000E+00  0.11368683772E-12  0.17120000000E+03  0.17120000000E+03 0.  0.
         13    1    1    2    0    0 -0.30076763842E+02 -0.16474969881E+02  0.71871645398E+02  0.79634043801E+02  0.10566000000E+00 0.  1.
        994    1    1    2    0    0  0.30187236471E+02  0.28476553256E+02  0.13308601987E+02  0.17665996212E+03  0.17120000000E+03 0.  0.
        998    1    1    2    0    0 -0.11047262843E+00 -0.12001583375E+02  0.14148197489E+04  0.14149059941E+04  0.10000000000E+02 0.  1.
</event>
<event>
 5    1  0.1503263E-008  0.3852166E+03  0.7957747E-01  0.3428754E+00
         13   -1    0    0    0    0  0.00000000000E+00  0.00000000000E+00  0.14999999963E+04  0.15000000000E+04  0.10566000000E+00 0. -1.
        994   -1    0    0    0    0 -0.00000000000E+00 -0.00000000000E+00  0.11368683772E-12  0.17120000000E+03  0.17120000000E+03 0.  0.
         13    1    1    2    0    0 -0.14682996052E+02 -0.38525487523E+01  0.76700666250E+02  0.78188463804E+02  0.10566000000E+00 0. -1.
        994    1    1    2    0    0  0.89360618533E+01 -0.10818696124E+01  0.17889527033E+01  0.17144580483E+03  0.17120000000E+03 0.  0.
        998    1    1    2    0    0  0.57469341984E+01  0.49344183647E+01  0.14215103773E+04  0.14215657314E+04  0.10000000000E+02 0. -1.
</event>
<event>
 5    1  0.1503263E-008  0.3842725E+03  0.7957747E-01  0.3432764E+00
         13   -1    0    0    0    0  0.00000000000E+00  0.00000000000E+00  0.14999999963E+04  0.15000000000E+04  0.10566000000E+00 0. -1.
        994   -1    0    0    0    0 -0.00000000000E+00 -0.00000000000E+00  0.11368683772E-12  0.17120000000E+03  0.17120000000E+03 0.  0.
         13    1    1    2    0    0 -0.60480553712E+01 -0.11402578204E+02  0.40148123734E+02  0.42172037736E+02  0.10566000000E+00 0. -1.
        994    1    1    2    0    0  0.71155034728E+01  0.13663908139E+02  0.27745083452E+01  0.17191413750E+03  0.17120000000E+03 0.  0.
        998    1    1    2    0    0 -0.10674481016E+01 -0.22613299354E+01  0.14570773642E+04  0.14571138248E+04  0.10000000000E+02 0. -1.
</event>
<event>
 5    1  0.1503263E-008  0.3817352E+03  0.7957747E-01  0.3443638E+00
         13   -1    0    0    0    0  0.00000000000E+00  0.00000000000E+00  0.14999999963E+04  0.15000000000E+04  0.10566000000E+00 0. -1.
        994   -1    0    0    0    0 -0.00000000000E+00 -0.00000000000E+00  0.11368683772E-12  0.17120000000E+03  0.17120000000E+03 0.  0.
         13    1    1    2    0    0 -0.71419205659E+02 -0.12098870120E+02  0.13568194007E+03  0.15380730028E+03  0.10566000000E+00 0. -1.
        994    1    1    2    0    0  0.70156549882E+02 -0.63016351811E+01  0.35609167373E+02  0.18851818188E+03  0.17120000000E+03 0.  0.
        998    1    1    2    0    0  0.12626557769E+01  0.18400505302E+02  0.13287088888E+04  0.13288745178E+04  0.10000000000E+02 0. -1.
</event>
<event>
 5    1  0.1503263E-008  0.3837201E+03  0.7957747E-01  0.3435119E+00
         13   -1    0    0    0    0  0.00000000000E+00  0.00000000000E+00  0.14999999963E+04  0.15000000000E+04  0.10566000000E+00 0.  1.
        994   -1    0    0    0    0 -0.00000000000E+00 -0.00000000000E+00  0.11368683772E-12  0.17120000000E+03  0.17120000000E+03 0.  0.
         13    1    1    2    0    0 -0.19954873829E+02 -0.18225895901E+01  0.87474900752E+02  0.89740672206E+02  0.10566000000E+00 0.  1.
        994    1    1    2    0    0  0.14193203204E+02 -0.43203857262E+01  0.29941339659E+01  0.17186773283E+03  0.17120000000E+03 0.  0.
        998    1    1    2    0    0  0.57616706255E+01  0.61429753163E+01  0.14095309616E+04  0.14095915950E+04  0.10000000000E+02 0.  1.
</event>
<event>
 5    1  0.1503263E-008  0.3802692E+03  0.7957747E-01  0.3449987E+00
         13   -1    0    0    0    0  0.00000000000E+00  0.00000000000E+00  0.14999999963E+04  0.15000000000E+04  0.10566000000E+00 0.  1.
        994   -1    0    0    0    0 -0.00000000000E+00 -0.00000000000E+00  0.11368683772E-12  0.17120000000E+03  0.17120000000E+03 0.  0.
         13    1    1    2    0    0  0.15245313400E+02 -0.45569935990E+01  0.29364974951E+02  0.33399082162E+02  0.10566000000E+00 0.  1.
        994    1    1    2    0    0 -0.17375258976E+02  0.73131979286E+01  0.51851839913E+01  0.17231282199E+03  0.17120000000E+03 0.  0.
        998    1    1    2    0    0  0.21299455755E+01 -0.27562043296E+01  0.14654498373E+04  0.14654880959E+04  0.10000000000E+02 0.  1.
</event>
<event>
 5    1  0.1503263E-008  0.3716710E+03  0.7957747E-01  0.3488247E+00
         13   -1    0    0    0    0  0.00000000000E+00  0.00000000000E+00  0.14999999963E+04  0.15000000000E+04  0.10566000000E+00 0.  1.
        994   -1    0    0    0    0 -0.00000000000E+00 -0.00000000000E+00  0.11368683772E-12  0.17120000000E+03  0.17120000000E+03 0.  0.
         13    1    1    2    0    0 -0.58277450159E+02 -0.64301144797E+02  0.34065719199E+03  0.35153695686E+03  0.10566000000E+00 0.  1.
        994    1    1    2    0    0  0.30670210512E+02  0.24040657462E+02  0.17184384852E+02  0.17641813429E+03  0.17120000000E+03 0.  0.
        998    1    1    2    0    0  0.27607239647E+02  0.40260487335E+02  0.11421584194E+04  0.11432449088E+04  0.10000000000E+02 0.  1.
</event>
<event>
 5    1  0.1503263E-008  0.3847638E+03  0.7957747E-01  0.3430675E+00
         13   -1    0    0    0    0  0.00000000000E+00  0.00000000000E+00  0.14999999963E+04  0.15000000000E+04  0.10566000000E+00 0. -1.
        994   -1    0    0    0    0 -0.00000000000E+00 -0.00000000000E+00  0.11368683772E-12  0.17120000000E+03  0.17120000000E+03 0.  0.
         13    1    1    2    0    0  0.55096198628E+01 -0.10971580071E+02  0.41612978612E+02  0.43386433747E+02  0.10566000000E+00 0. -1.
        994    1    1    2    0    0 -0.10846330448E+02  0.10801085413E+02  0.25189866500E+01  0.17190140088E+03  0.17120000000E+03 0.  0.
        998    1    1    2    0    0  0.53367105856E+01  0.17049465827E+00  0.14558680310E+04  0.14559121654E+04  0.10000000000E+02 0. -1.
</event>
<event>
 5    1  0.1503263E-008  0.3709277E+03  0.7957747E-01  0.3491638E+00
         13   -1    0    0    0    0  0.00000000000E+00  0.00000000000E+00  0.14999999963E+04  0.15000000000E+04  0.10566000000E+00 0. -1.
        994   -1    0    0    0    0 -0.00000000000E+00 -0.00000000000E+00  0.11368683772E-12  0.17120000000E+03  0.17120000000E+03 0.  0.
         13    1    1    2    0    0 -0.56176851964E+02  0.36532139705E+02  0.21542121793E+03  0.22560307673E+03  0.10566000000E+00 0. -1.
        994    1    1    2    0    0  0.56393733592E+02 -0.38467449227E+02  0.25021786584E+02  0.18599873022E+03  0.17120000000E+03 0.  0.
        998    1    1    2    0    0 -0.21688162828E+00  0.19353095227E+01  0.12595569918E+04  0.12595981931E+04  0.10000000000E+02 0. -1.
</event>
<event>
 5    1  0.1503263E-008  0.3848049E+03  0.7957747E-01  0.3430500E+00
         13   -1    0    0    0    0  0.00000000000E+00  0.00000000000E+00  0.14999999963E+04  0.15000000000E+04  0.10566000000E+00 0.  1.
        994   -1    0    0    0    0 -0.00000000000E+00 -0.00000000000E+00  0.11368683772E-12  0.17120000000E+03  0.17120000000E+03 0.  0.
         13    1    1    2    0    0  0.10714015000E+02  0.77088802964E+01  0.50769883092E+02  0.52457689103E+02  0.10566000000E+00 0.  1.
        994    1    1    2    0    0 -0.86616066327E+01 -0.13343266785E+00  0.19740190882E+01  0.17143038816E+03  0.17120000000E+03 0.  0.
        998    1    1    2    0    0 -0.20524083678E+01 -0.75754476285E+01  0.14472560941E+04  0.14473119227E+04  0.10000000000E+02 0.  1.
</event>
<event>
 5    1  0.1503263E-008  0.3823853E+03  0.7957747E-01  0.3440838E+00
         13   -1    0    0    0    0  0.00000000000E+00  0.00000000000E+00  0.14999999963E+04  0.15000000000E+04  0.10566000000E+00 0. -1.
        994   -1    0    0    0    0 -0.00000000000E+00 -0.00000000000E+00  0.11368683772E-12  0.17120000000E+03  0.17120000000E+03 0.  0.
         13    1    1    2    0    0 -0.42030987465E+01 -0.28946433074E+02  0.15651972286E+03  0.15922938434E+03  0.10566000000E+00 0. -1.
        994    1    1    2    0    0  0.24675300999E+02  0.46871189721E+01  0.50290284708E+01  0.17310566337E+03  0.17120000000E+03 0.  0.
        998    1    1    2    0    0 -0.20472202253E+02  0.24259314102E+02  0.13384512449E+04  0.13388649523E+04  0.10000000000E+02 0. -1.
</event>
<event>
 5    1  0.1503263E-008  0.3853407E+03  0.7957747E-01  0.3428228E+00
         13   -1    0    0    0    0  0.00000000000E+00  0.00000000000E+00  0.14999999963E+04  0.15000000000E+04  0.10566000000E+00 0. -1.
        994   -1    0    0    0    0 -0.00000000000E+00 -0.00000000000E+00  0.11368683772E-12  0.17120000000E+03  0.17120000000E+03 0.  0.
         13    1    1    2    0    0  0.98888313111E+01  0.67442065893E+01  0.49424273972E+02  0.50853154562E+02  0.10566000000E+00 0. -1.
        994    1    1    2    0    0 -0.21579218850E+01 -0.94694098731E+01  0.17709858970E+01  0.17148440962E+03  0.17120000000E+03 0.  0.
        998    1    1    2    0    0 -0.77309094261E+01  0.27252032838E+01  0.14488047364E+04  0.14488624358E+04  0.10000000000E+02 0. -1.
</event>
<event>
 5    1  0.1503263E-008  0.3699052E+03  0.7957747E-01  0.3496326E+00
         13   -1    0    0    0    0  0.00000000000E+00  0.00000000000E+00  0.14999999963E+04  0.15000000000E+04  0.10566000000E+00 0.  1.
        994   -1    0    0    0    0 -0.00000000000E+00 -0.00000000000E+00  0.11368683772E-12  0.17120000000E+03  0.17120000000E+03 0.  0.
         13    1    1    2    0    0  0.47761780775E+02  0.24999379423E+02  0.16608748003E+03  0.17461734983E+03  0.10566000000E+00 0.  1.
        994    1    1    2    0    0 -0.22663747179E+02  0.10730076708E+02  0.11496455619E+02  0.17340815573E+03  0.17120000000E+03 0.  0.
        998    1    1    2    0    0 -0.25098033596E+02 -0.35729456130E+02  0.13224160606E+04  0.13231744944E+04  0.10000000000E+02 0.  1.
</event>
<event>
 5    1  0.1503263E-008  0.3844824E+03  0.7957747E-01  0.3431871E+00
         13   -1    0    0    0    0  0.00000000000E+00  0.00000000000E+00  0.14999999963E+04  0.15000000000E+04  0.10566000000E+00 0. -1.
        994   -1    0    0    0    0 -0.00000000000E+00 -0.00000000000E+00  0.11368683772E-12  0.17120000000E+03  0.17120000000E+03 0.  0.
         13    1    1    2    0    0 -0.13526893354E+02  0.15718433400E+02  0.12088029836E+03  0.12264625428E+03  0.10566000000E+00 0. -1.
        994    1    1    2    0    0  0.44010513080E+00 -0.68625919130E+01  0.20431504204E+01  0.17135023584E+03  0.17120000000E+03 0.  0.
        998    1    1    2    0    0  0.13086788224E+02 -0.88558414865E+01  0.13770765475E+04  0.13772035099E+04  0.10000000000E+02 0. -1.
</event>
<event>
 5    1  0.1503263E-008  0.3769160E+03  0.7957747E-01  0.3464698E+00
         13   -1    0    0    0    0  0.00000000000E+00  0.00000000000E+00  0.14999999963E+04  0.15000000000E+04  0.10566000000E+00 0. -1.
        994   -1    0    0    0    0 -0.00000000000E+00 -0.00000000000E+00  0.11368683772E-12  0.17120000000E+03  0.17120000000E+03 0.  0.
         13    1    1    2    0    0 -0.10381838623E+02  0.83278238689E+01  0.13115503161E+02  0.18685898715E+02  0.10566000000E+00 0. -1.
        994    1    1    2    0    0  0.11874227470E+02  0.42501180760E+01  0.62354625947E+01  0.17177712821E+03  0.17120000000E+03 0.  0.
        998    1    1    2    0    0 -0.14923888464E+01 -0.12577941945E+02  0.14806490305E+04  0.14807369731E+04  0.10000000000E+02 0. -1.
</event>
<event>
 5    1  0.1503263E-008  0.3801414E+03  0.7957747E-01  0.3450543E+00
         13   -1    0    0    0    0  0.00000000000E+00  0.00000000000E+00  0.14999999963E+04  0.15000000000E+04  0.10566000000E+00 0.  1.
        994   -1    0    0    0    0 -0.00000000000E+00 -0.00000000000E+00  0.11368683772E-12  0.17120000000E+03  0.17120000000E+03 0.  0.
         13    1    1    2    0    0  0.35842446829E+02  0.16278866487E+02  0.15316031868E+03  0.15813847372E+03  0.10566000000E+00 0.  1.
        994    1    1    2    0    0 -0.45963430297E+02 -0.37098585340E+02  0.15808928543E+02  0.18179192551E+03  0.17120000000E+03 0.  0.
        998    1    1    2    0    0  0.10120983468E+02  0.20819718853E+02  0.13310307491E+04  0.13312696008E+04  0.10000000000E+02 0.  1.
</event>
<event>
 5    1  0.1503263E-008  0.3812706E+03  0.7957747E-01  0.3445645E+00
         13   -1    0    0    0    0  0.00000000000E+00  0.00000000000E+00  0.14999999963E+04  0.15000000000E+04  0.10566000000E+00 0.  1.
        994   -1    0    0    0    0 -0.00000000000E+00 -0.00000000000E+00  0.11368683772E-12  0.17120000000E+03  0.17120000000E+03 0.  0.
         13    1    1    2    0    0  0.35951432092E+01 -0.12341995589E+02  0.21451665179E+02  0.25008698743E+02  0.10566000000E+00 0.  1.
        994    1    1    2    0    0 -0.95427428783E+01  0.19729607090E+02  0.50937407179E+01  0.17267225467E+03  0.17120000000E+03 0.  0.
        998    1    1    2    0    0  0.59475996691E+01 -0.73876115007E+01  0.14734545904E+04  0.14735190466E+04  0.10000000000E+02 0.  1.
</event>
<event>
 5    1  0.1503263E-008  0.3859702E+03  0.7957747E-01  0.3425568E+00
         13   -1    0    0    0    0  0.00000000000E+00  0.00000000000E+00  0.14999999963E+04  0.15000000000E+04  0.10566000000E+00 0. -1.
        994   -1    0    0    0    0 -0.00000000000E+00 -0.00000000000E+00  0.11368683772E-12  0.17120000000E+03  0.17120000000E+03 0.  0.
         13    1    1    2    0    0  0.42097332800E+01 -0.12334773892E+02  0.78046648537E+02  0.79127485826E+02  0.10566000000E+00 0. -1.
        994    1    1    2    0    0 -0.37924793708E+00  0.33988759155E+01  0.11875630051E+01  0.17123827403E+03  0.17120000000E+03 0.  0.
        998    1    1    2    0    0 -0.38304853429E+01  0.89358979767E+01  0.14207657847E+04  0.14208342401E+04  0.10000000000E+02 0. -1.
</event>
<event>
 5    1  0.1503263E-008  0.3816066E+03  0.7957747E-01  0.3444193E+00
         13   -1    0    0    0    0  0.00000000000E+00  0.00000000000E+00  0.14999999963E+04  0.15000000000E+04  0.10566000000E+00 0.  1.
        994   -1    0    0    0    0 -0.00000000000E+00 -0.00000000000E+00  0.11368683772E-12  0.17120000000E+03  0.17120000000E+03 0.  0.
         13    1    1    2    0    0  0.62600107613E+01  0.37327632689E+02  0.19861335948E+03  0.20218758029E+03  0.10566000000E+00 0.  1.
        994    1    1    2    0    0 -0.17253150939E+02 -0.29206294367E+02  0.71601007883E+01  0.17467508664E+03  0.17120000000E+03 0.  0.
        998    1    1    2    0    0  0.10993140178E+02 -0.81213383219E+01  0.12942265360E+04  0.12943373331E+04  0.10000000000E+02 0.  1.
</event>
<event>
 5    1  0.1503263E-008  0.3801060E+03  0.7957747E-01  0.3450697E+00
         13   -1    0    0    0    0  0.00000000000E+00  0.00000000000E+00  0.14999999963E+04  0.15000000000E+04  0.10566000000E+00 0.  1.
        994   -1    0    0    0    0 -0.00000000000E+00 -0.00000000000E+00  0.11368683772E-12  0.17120000000E+03  0.17120000000E+03 0.  0.
         13    1    1    2    0    0  0.13984234346E+02  0.27572697989E+02  0.12997163909E+03  0.13359809361E+03  0.10566000000E+00 0.  1.
        994    1    1    2    0    0 -0.68077316646E+01  0.42740296722E+01  0.42955807621E+01  0.17144242344E+03  0.17120000000E+03 0.  0.
        998    1    1    2    0    0 -0.71765026816E+01 -0.31846727661E+02  0.13657327764E+04  0.13661594829E+04  0.10000000000E+02 0.  1.
</event>
<event>
 5    1  0.1582710E-008  0.3860465E+03  0.7957747E-01  0.3425246E+00
         13   -1    0    0    0    0  0.00000000000E+00  0.00000000000E+00  0.14999999963E+04  0.15000000000E+04  0.10566000000E+00 0. -1.
        994   -1    0    0    0    0 -0.00000000000E+00 -0.00000000000E+00  0.11368683772E-12  0.17120000000E+03  0.17120000000E+03 0.  0.
         13    1    1    2    0    0  0.10334617048E+02  0.59631112104E+01  0.68778047804E+02  0.69805401142E+02  0.10566000000E+00 0. -1.
        994    1    1    2    0    0  0.21530790140E+01 -0.48453505401E+01  0.12035881477E+01  0.17128631526E+03  0.17120000000E+03 0.  0.
        998    1    1    2    0    0 -0.12487696062E+02 -0.11177606702E+01  0.14300183603E+04  0.14301082836E+04  0.10000000000E+02 0. -1.
</event>
<event>
 5    1  0.1503263E-008  0.3743268E+03  0.7957747E-01  0.3476239E+00
         13   -1    0    0    0    0  0.00000000000E+00  0.00000000000E+00  0.14999999963E+04  0.15000000000E+04  0.10566000000E+00 0.  1.
        994   -1    0    0    0    0 -0.00000000000E+00 -0.00000000000E+00  0.11368683772E-12  0.17120000000E+03  0.17120000000E+03 0.  0.
         13    1    1    2    0    0 -0.13198800210E+02  0.58420549930E+01  0.11610391401E+02  0.18524316074E+02  0.10566000000E+00 0.  1.
        994    1    1    2    0    0  0.10809264380E+02 -0.97502569468E+01  0.77471170871E+01  0.17199234149E+03  0.17120000000E+03 0.  0.
        998    1    1    2    0    0  0.23895358300E+01  0.39082019537E+01  0.14806424878E+04  0.14806833424E+04  0.10000000000E+02 0.  1.
</event>
<event>
 5    1  0.1503263E-008  0.3685307E+03  0.7957747E-01  0.3502671E+00
         13   -1    0    0    0    0  0.00000000000E+00  0.00000000000E+00  0.14999999963E+04  0.15000000000E+04  0.10566000000E+00 0. -1.
        994   -1    0    0    0    0 -0.00000000000E+00 -0.00000000000E+00  0.11368683772E-12  0.17120000000E+03  0.17120000000E+03 0.  0.
         13    1    1    2    0    0  0.35692273105E+02  0.47704399191E+02  0.15691929175E+03  0.16784910887E+03  0.10566000000E+00 0. -1.
        994    1    1    2    0    0 -0.41087116013E+02 -0.42200434325E+02  0.22193615235E+02  0.18240346575E+03  0.17120000000E+03 0.  0.
        998    1    1    2    0    0  0.53948429081E+01 -0.55039648657E+01  0.13208870893E+04  0.13209474254E+04  0.10000000000E+02 0. -1.
</event>
<event>
 5    1  0.1503263E-008  0.3847698E+03  0.7957747E-01  0.3430649E+00
         13   -1    0    0    0    0  0.00000000000E+00  0.00000000000E+00  0.14999999963E+04  0.15000000000E+04  0.10566000000E+00 0. -1.
        994   -1    0    0    0    0 -0.00000000000E+00 -0.00000000000E+00  0.11368683772E-12  0.17120000000E+03  0.17120000000E+03 0.  0.
         13    1    1    2    0    0 -0.12684562723E+03  0.26761205607E+02  0.61740137786E+03  0.63086484117E+03  0.10566000000E+00 0. -1.
        994    1    1    2    0    0  0.34850441733E+02 -0.16969312294E+02  0.24533934358E+02  0.17723956890E+03  0.17120000000E+03 0.  0.
        998    1    1    2    0    0  0.91995185499E+02 -0.97918933124E+01  0.85806468406E+03  0.86309558993E+03  0.10000000000E+02 0. -1.
</event>
<event>
 5    1  0.1503263E-008  0.3791935E+03  0.7957747E-01  0.3454678E+00
         13   -1    0    0    0    0  0.00000000000E+00  0.00000000000E+00  0.14999999963E+04  0.15000000000E+04  0.10566000000E+00 0. -1.
        994   -1    0    0    0    0 -0.00000000000E+00 -0.00000000000E+00  0.11368683772E-12  0.17120000000E+03  0.17120000000E+03 0.  0.
         13    1    1    2    0    0 -0.10974904368E+02 -0.22741616762E+02  0.65688572005E+02  0.70374919644E+02  0.10566000000E+00 0. -1.
        994    1    1    2    0    0  0.62861900802E+01  0.26391161941E+02  0.70117343903E+01  0.17347799294E+03  0.17120000000E+03 0.  0.
        998    1    1    2    0    0  0.46887142880E+01 -0.36495451794E+01  0.14272996899E+04  0.14273470874E+04  0.10000000000E+02 0. -1.
</event>
<event>
 5    1  0.1503263E-008  0.3855829E+03  0.7957747E-01  0.3427204E+00
         13   -1    0    0    0    0  0.00000000000E+00  0.00000000000E+00  0.14999999963E+04  0.15000000000E+04  0.10566000000E+00 0. -1.
        994   -1    0    0    0    0 -0.00000000000E+00 -0.00000000000E+00  0.11368683772E-12  0.17120000000E+03  0.17120000000E+03 0.  0.
         13    1    1    2    0    0 -0.14964144688E+02  0.31105563953E+01  0.88154098269E+02  0.89469309782E+02  0.10566000000E+00 0. -1.
        994    1    1    2    0    0  0.93976444877E+01  0.17074642026E+00  0.16310464008E+01  0.17146558019E+03  0.17120000000E+03 0.  0.
        998    1    1    2    0    0  0.55665002002E+01 -0.32813028155E+01  0.14102148516E+04  0.14102651100E+04  0.10000000000E+02 0. -1.
</event>
<event>
 5    1  0.1503263E-008  0.3827760E+03  0.7957747E-01  0.3439160E+00
         13   -1    0    0    0    0  0.00000000000E+00  0.00000000000E+00  0.14999999963E+04  0.15000000000E+04  0.10566000000E+00 0.  1.
        994   -1    0    0    0    0 -0.00000000000E+00 -0.00000000000E+00  0.11368683772E-12  0.17120000000E+03  0.17120000000E+03 0.  0.
         13    1    1    2    0    0  0.20785784543E+02 -0.21501954691E+02  0.14596695455E+03  0.14899914724E+03  0.10566000000E+00 0.  1.
        994    1    1    2    0    0 -0.15148816044E+02  0.30510247487E+02  0.65916237205E+01  0.17468042630E+03  0.17120000000E+03 0.  0.
        998    1    1    2    0    0 -0.56369684987E+01 -0.90082927958E+01  0.13474414180E+04  0.13475204265E+04  0.10000000000E+02 0.  1.
</event>
<event>
 5    1  0.1798909E-008  0.3863892E+03  0.7957747E-01  0.3423802E+00
         13   -1    0    0    0    0  0.00000000000E+00  0.00000000000E+00  0.14999999963E+04  0.15000000000E+04  0.10566000000E+00 0. -1.
        994   -1    0    0    0    0 -0.00000000000E+00 -0.00000000000E+00  0.11368683772E-12  0.17120000000E+03  0.17120000000E+03 0.  0.
         13    1    1    2    0    0  0.60650783248E+01 -0.91982473647E+01  0.59589066072E+02  0.60599182247E+02  0.10566000000E+00 0. -1.
        994    1    1    2    0    0 -0.13793289743E+02  0.14758317382E+02  0.22791090519E+01  0.17240271782E+03  0.17120000000E+03 0.  0.
        998    1    1    2    0    0  0.77282114177E+01 -0.55600700177E+01  0.14381318212E+04  0.14381980999E+04  0.10000000000E+02 0. -1.
</event>
<event>
 5    1  0.1503263E-008  0.3800438E+03  0.7957747E-01  0.3450968E+00
         13   -1    0    0    0    0  0.00000000000E+00  0.00000000000E+00  0.14999999963E+04  0.15000000000E+04  0.10566000000E+00 0.  1.
        994   -1    0    0    0    0 -0.00000000000E+00 -0.00000000000E+00  0.11368683772E-12  0.17120000000E+03  0.17120000000E+03 0.  0.
         13    1    1    2    0    0  0.36835711739E+02 -0.11584669596E+02  0.17658070067E+03  0.18075350410E+03  0.10566000000E+00 0.  1.
        994    1    1    2    0    0 -0.28208032482E+02 -0.49695949316E+01  0.68579988156E+01  0.17371488744E+03  0.17120000000E+03 0.  0.
        998    1    1    2    0    0 -0.86276792568E+01  0.16554264528E+02  0.13165612968E+04  0.13167316085E+04  0.10000000000E+02 0.  1.
</event>
<event>
 5    1  0.1503263E-008  0.3787892E+03  0.7957747E-01  0.3456448E+00
         13   -1    0    0    0    0  0.00000000000E+00  0.00000000000E+00  0.14999999963E+04  0.15000000000E+04  0.10566000000E+00 0.  1.
        994   -1    0    0    0    0 -0.00000000000E+00 -0.00000000000E+00  0.11368683772E-12  0.17120000000E+03  0.17120000000E+03 0.  0.
         13    1    1    2    0    0  0.71712369606E+01  0.34410260999E+02  0.14441590096E+03  0.14863194918E+03  0.10566000000E+00 0.  1.
        994    1    1    2    0    0  0.14851608257E+02 -0.45487788482E+01  0.55557845811E+01  0.17199293125E+03  0.17120000000E+03 0.  0.
        998    1    1    2    0    0 -0.22022845218E+02 -0.29861482151E+02  0.13500283107E+04  0.13505751196E+04  0.10000000000E+02 0.  1.
</event>
<event>
 5    1  0.1503263E-008  0.3740943E+03  0.7957747E-01  0.3477283E+00
         13   -1    0    0    0    0  0.00000000000E+00  0.00000000000E+00  0.14999999963E+04  0.15000000000E+04  0.10566000000E+00 0. -1.
        994   -1    0    0    0    0 -0.00000000000E+00 -0.00000000000E+00  0.11368683772E-12  0.17120000000E+03  0.17120000000E+03 0.  0.
         13    1    1    2    0    0  0.61179172163E+02  0.85691235690E+02  0.34641089441E+03  0.36205855591E+03  0.10566000000E+00 0. -1.
        994    1    1    2    0    0 -0.37277712588E+02 -0.87058474388E+02  0.45656189159E+02  0.20090478697E+03  0.17120000000E+03 0.  0.
        998    1    1    2    0    0 -0.23901459575E+02  0.13672386980E+01  0.11079329127E+04  0.11082366571E+04  0.10000000000E+02 0. -1.
</event>
<event>
 5    1  0.1503263E-008  0.3690612E+03  0.7957747E-01  0.3500216E+00
         13   -1    0    0    0    0  0.00000000000E+00  0.00000000000E+00  0.14999999963E+04  0.15000000000E+04  0.10566000000E+00 0. -1.
        994   -1    0    0    0    0 -0.00000000000E+00 -0.00000000000E+00  0.11368683772E-12  0.17120000000E+03  0.17120000000E+03 0.  0.
         13    1    1    2    0    0 -0.23811715292E+02  0.28964273320E+02  0.66798646228E+02  0.76602853838E+02  0.10566000000E+00 0. -1.
        994    1    1    2    0    0  0.23998423495E+02 -0.21823408050E+02  0.13419230964E+02  0.17476184146E+03  0.17120000000E+03 0.  0.
        998    1    1    2    0    0 -0.18670820319E+00 -0.71408652698E+01  0.14197821191E+04  0.14198353047E+04  0.10000000000E+02 0. -1.
</event>
<event>
 5    1  0.1503263E-008  0.3763286E+03  0.7957747E-01  0.3467302E+00
         13   -1    0    0    0    0  0.00000000000E+00  0.00000000000E+00  0.14999999963E+04  0.15000000000E+04  0.10566000000E+00 0. -1.
        994   -1    0    0    0    0 -0.00000000000E+00 -0.00000000000E+00  0.11368683772E-12  0.17120000000E+03  0.17120000000E+03 0.  0.
         13    1    1    2    0    0  0.84311103478E+02 -0.99796444890E+01  0.47259728890E+03  0.48016264339E+03  0.10566000000E+00 0. -1.
        994    1    1    2    0    0 -0.70507515493E+02  0.16282744338E+02  0.23929158318E+02  0.18739925860E+03  0.17120000000E+03 0.  0.
        998    1    1    2    0    0 -0.13803587984E+02 -0.63030998492E+01  0.10034735491E+04  0.10036380980E+04  0.10000000000E+02 0. -1.
</event>
<event>
 5    1  0.1503263E-008  0.3701232E+03  0.7957747E-01  0.3495325E+00
         13   -1    0    0    0    0  0.00000000000E+00  0.00000000000E+00  0.14999999963E+04  0.15000000000E+04  0.10566000000E+00 0. -1.
        994   -1    0    0    0    0 -0.00000000000E+00 -0.00000000000E+00  0.11368683772E-12  0.17120000000E+03  0.17120000000E+03 0.  0.
         13    1    1    2    0    0  0.41149866409E+01  0.34651473068E+02  0.59527424473E+02  0.69001327011E+02  0.10566000000E+00 0. -1.
        994    1    1    2    0    0 -0.22835751673E+01 -0.39690703024E+02  0.14687185769E+02  0.17636813785E+03  0.17120000000E+03 0.  0.
        998    1    1    2    0    0 -0.18314114736E+01  0.50392299569E+01  0.14257853860E+04  0.14258305351E+04  0.10000000000E+02 0. -1.
</event>
<event>
 5    1  0.1503263E-008  0.3848693E+03  0.7957747E-01  0.3430227E+00
         13   -1    0    0    0    0  0.00000000000E+00  0.00000000000E+00  0.14999999963E+04  0.15000000000E+04  0.10566000000E+00 0. -1.
        994   -1    0    0    0    0 -0.00000000000E+00 -0.00000000000E+00  0.11368683772E-12  0.17120000000E+03  0.17120000000E+03 0.  0.
         13    1    1    2    0    0 -0.91877634293E+01  0.40479543114E+01  0.29646194750E+02  0.31300302844E+02  0.10566000000E+00 0. -1.
        994    1    1    2    0    0  0.37705891810E+01 -0.44693681676E+01  0.18075719002E+01  0.17130936901E+03  0.17120000000E+03 0.  0.
        998    1    1    2    0    0  0.54171742483E+01  0.42141385626E+00  0.14685462296E+04  0.14685903281E+04  0.10000000000E+02 0. -1.
</event>
<event>
 5    1  0.1503263E-008  0.3718428E+03  0.7957747E-01  0.3487464E+00
         13   -1    0    0    0    0  0.00000000000E+00  0.00000000000E+00  0.14999999963E+04  0.15000000000E+04  0.10566000000E+00 0.  1.
        994   -1    0    0    0    0 -0.00000000000E+00 -0.00000000000E+00  0.11368683772E-12  0.17120000000E+03  0.17120000000E+03 0.  0.
         13    1    1    2    0    0 -0.45336313933E+02 -0.40414889640E+02  0.19172009099E+03  0.20111029094E+03  0.10566000000E+00 0.  1.
        994    1    1    2    0    0  0.39517035617E+02  0.47447736354E+02  0.21525349928E+02  0.18326392029E+03  0.17120000000E+03 0.  0.
        998    1    1    2    0    0  0.58192783163E+01 -0.70328467138E+01  0.12867545554E+04  0.12868257888E+04  0.10000000000E+02 0.  1.
</event>
<event>
 5    1  0.1503263E-008  0.3848770E+03  0.7957747E-01  0.3430194E+00
         13   -1    0    0    0    0  0.00000000000E+00  0.00000000000E+00  0.14999999963E+04  0.15000000000E+04  0.10566000000E+00 0.  1.
        994   -1    0    0    0    0 -0.00000000000E+00 -0.00000000000E+00  0.11368683772E-12  0.17120000000E+03  0.17120000000E+03 0.  0.
         13    1    1    2    0    0  0.36333152620E+01  0.17604526890E+02  0.87436478019E+02  0.89265162293E+02  0.10566000000E+00 0.  1.
        994    1    1    2    0    0 -0.66483870527E+01 -0.23123431352E+02  0.35980679383E+01  0.17291986647E+03  0.17120000000E+03 0.  0.
        998    1    1    2    0    0  0.30150717907E+01  0.55189044618E+01  0.14089654503E+04  0.14090149712E+04  0.10000000000E+02 0.  1.
</event>
<event>
 5    1  0.1503263E-008  0.3840453E+03  0.7957747E-01  0.3433731E+00
         13   -1    0    0    0    0  0.00000000000E+00  0.00000000000E+00  0.14999999963E+04  0.15000000000E+04  0.10566000000E+00 0.  1.
        994   -1    0    0    0    0 -0.00000000000E+00 -0.00000000000E+00  0.11368683772E-12  0.17120000000E+03  0.17120000000E+03 0.  0.
         13    1    1    2    0    0  0.12474560306E+02 -0.11806782220E+02  0.69583244229E+02  0.71671848049E+02  0.10566000000E+00 0.  1.
        994    1    1    2    0    0 -0.71161961928E+01  0.89989009032E+01  0.25391933456E+01  0.17160276212E+03  0.17120000000E+03 0.  0.
        998    1    1    2    0    0 -0.53583641133E+01  0.28078813170E+01  0.14278775587E+04  0.14279253898E+04  0.10000000000E+02 0.  1.
</event>
<event>
 5    1  0.1503263E-008  0.3815636E+03  0.7957747E-01  0.3444378E+00
         13   -1    0    0    0    0  0.00000000000E+00  0.00000000000E+00  0.14999999963E+04  0.15000000000E+04  0.10566000000E+00 0. -1.
        994   -1    0    0    0    0 -0.00000000000E+00 -0.00000000000E+00  0.11368683772E-12  0.17120000000E+03  0.17120000000E+03 0.  0.
         13    1    1    2    0    0  0.17099766475E+02 -0.82412920190E+01  0.50598990504E+02  0.54042482472E+02  0.10566000000E+00 0. -1.
        994    1    1    2    0    0 -0.18639983909E+02  0.12529936393E+02  0.50253949923E+01  0.17274010218E+03  0.17120000000E+03 0.  0.
        998    1    1    2    0    0  0.15402174339E+01 -0.42886443742E+01  0.14443756108E+04  0.14444174153E+04  0.10000000000E+02 0. -1.
</event>
<event>
 5    1  0.1503263E-008  0.3810387E+03  0.7957747E-01  0.3446648E+00
         13   -1    0    0    0    0  0.00000000000E+00  0.00000000000E+00  0.14999999963E+04  0.15000000000E+04  0.10566000000E+00 0. -1.
        994   -1    0    0    0    0 -0.00000000000E+00 -0.00000000000E+00  0.11368683772E-12  0.17120000000E+03  0.17120000000E+03 0.  0.
         13    1    1    2    0    0 -0.16565423804E+02  0.17500016722E+02  0.74825259749E+02  0.78609760918E+02  0.10566000000E+00 0. -1.
        994    1    1    2    0    0  0.21461662954E+02 -0.17029467838E+02  0.61143687910E+01  0.17348611258E+03  0.17120000000E+03 0.  0.
        998    1    1    2    0    0 -0.48962391500E+01 -0.47054888430E+00  0.14190603677E+04  0.14191041265E+04  0.10000000000E+02 0. -1.
</event>
<event>
 5    1  0.1503263E-008  0.3821831E+03  0.7957747E-01  0.3441708E+00
         13   -1    0    0    0    0  0.00000000000E+00  0.00000000000E+00  0.14999999963E+04  0.15000000000E+04  0.10566000000E+00 0.  1.
        994   -1    0    0    0    0 -0.00000000000E+00 -0.00000000000E+00  0.11368683772E-12  0.17120000000E+03  0.17120000000E+03 0.  0.
         13    1    1    2    0    0 -0.15601944385E+02  0.67034317756E+01  0.48118876626E+02  0.51027385960E+02  0.10566000000E+00 0.  1.
        994    1    1    2    0    0  0.14847923083E+01 -0.39682751118E+01  0.30947570952E+01  0.17128038223E+03  0.17120000000E+03 0.  0.
        998    1    1    2    0    0  0.14117152076E+02 -0.27351566638E+01  0.14487863626E+04  0.14488922318E+04  0.10000000000E+02 0.  1.
</event>
<event>
 5    1  0.1503263E-008  0.3844132E+03  0.7957747E-01  0.3432165E+00
         13   -1    0    0    0    0  0.00000000000E+00  0.00000000000E+00  0.14999999963E+04  0.15000000000E+04  0.10566000000E+00 0.  1.
        994   -1    0    0    0    0 -0.00000000000E+00 -0.00000000000E+00  0.11368683772E-12  0.17120000000E+03  0.17120000000E+03 0.  0.
         13    1    1    2    0    0  0.21251361088E+02 -0.76284921722E+00  0.10788393949E+03  0.10995980107E+03  0.10566000000E+00 0.  1.
        994    1    1    2    0    0 -0.24705534168E+02 -0.15027712312E+01  0.39428995019E+01  0.17302487739E+03  0.17120000000E+03 0.  0.
        998    1    1    2    0    0  0.34541730797E+01  0.22656204484E+01  0.13881731573E+04  0.13882153215E+04  0.10000000000E+02 0.  1.
</event>
<event>
 5    1  0.1503263E-008  0.3729179E+03  0.7957747E-01  0.3482587E+00
         13   -1    0    0    0    0  0.00000000000E+00  0.00000000000E+00  0.14999999963E+04  0.15000000000E+04  0.10566000000E+00 0.  1.
        994   -1    0    0    0    0 -0.00000000000E+00 -0.00000000000E+00  0.11368683772E-12  0.17120000000E+03  0.17120000000E+03 0.  0.
         13    1    1    2    0    0 -0.39161011889E+02 -0.26382580772E+02  0.13380831638E+03  0.14189539145E+03  0.10566000000E+00 0.  1.
        994    1    1    2    0    0  0.45158956404E+02  0.51430984926E+01  0.14856766278E+02  0.17775248609E+03  0.17120000000E+03 0.  0.
        998    1    1    2    0    0 -0.59979445159E+01  0.21239482279E+02  0.13513349136E+04  0.13515521225E+04  0.10000000000E+02 0.  1.
</event>
<event>
 5    1  0.1503263E-008  0.3786920E+03  0.7957747E-01  0.3456874E+00
         13   -1    0    0    0    0  0.00000000000E+00  0.00000000000E+00  0.14999999963E+04  0.15000000000E+04  0.10566000000E+00 0.  1.
        994   -1    0    0    0    0 -0.00000000000E+00 -0.00000000000E+00  0.11368683772E-12  0.17120000000E+03  0.17120000000E+03 0.  0.
         13    1    1    2    0    0 -0.28420033985E+02  0.45948303247E+02  0.28598174220E+03  0.29104039743E+03  0.10566000000E+00 0.  1.
        994    1    1    2    0    0  0.33590661129E+02 -0.23864756927E+02  0.10516542561E+02  0.17640265532E+03  0.17120000000E+03 0.  0.
        998    1    1    2    0    0 -0.51706271437E+01 -0.22083546320E+02  0.12035017115E+04  0.12037569472E+04  0.10000000000E+02 0.  1.
</event>
<event>
 5    1  0.1503263E-008  0.3791788E+03  0.7957747E-01  0.3454742E+00
         13   -1    0    0    0    0  0.00000000000E+00  0.00000000000E+00  0.14999999963E+04  0.15000000000E+04  0.10566000000E+00 0.  1.
        994   -1    0    0    0    0 -0.00000000000E+00 -0.00000000000E+00  0.11368683772E-12  0.17120000000E+03  0.17120000000E+03 0.  0.
         13    1    1    2    0    0  0.23301521453E+02  0.35836024646E+01  0.57920238201E+02  0.62534536586E+02  0.10566000000E+00 0.  1.
        994    1    1    2    0    0 -0.21697335178E+02 -0.19316799348E+01  0.61404236228E+01  0.17268946275E+03  0.17120000000E+03 0.  0.
        998    1    1    2    0    0 -0.16041862748E+01 -0.16519225298E+01  0.14359393345E+04  0.14359760007E+04  0.10000000000E+02 0.  1.
</event>
<event>
 5    1  0.1503263E-008  0.3829151E+03  0.7957747E-01  0.3438563E+00
         13   -1    0    0    0    0  0.00000000000E+00  0.00000000000E+00  0.14999999963E+04  0.15000000000E+04  0.10566000000E+00 0.  1.
        994   -1    0    0    0    0 -0.00000000000E+00 -0.00000000000E+00  0.11368683772E-12  0.17120000000E+03  0.17120000000E+03 0.  0.
         13    1    1    2    0    0 -0.24584817650E+02  0.17960033641E+02  0.15054538002E+03  0.15359328982E+03  0.10566000000E+00 0.  1.
        994    1    1    2    0    0  0.36409034754E+02 -0.12195831347E+02  0.75658039869E+01  0.17561616527E+03  0.17120000000E+03 0.  0.
        998    1    1    2    0    0 -0.11824217104E+02 -0.57642022941E+01  0.13418888123E+04  0.13419905449E+04  0.10000000000E+02 0.  1.
</event>
<event>
 5    1  0.1503263E-008  0.3790730E+03  0.7957747E-01  0.3455205E+00
         13   -1    0    0    0    0  0.00000000000E+00  0.00000000000E+00  0.14999999963E+04  0.15000000000E+04  0.10566000000E+00 0.  1.
        994   -1    0    0    0    0 -0.00000000000E+00 -0.00000000000E+00  0.11368683772E-12  0.17120000000E+03  0.17120000000E+03 0.  0.
         13    1    1    2    0    0  0.18796522290E+02  0.88679436970E+01  0.45918479257E+02  0.50403051266E+02  0.10566000000E+00 0.  1.
        994    1    1    2    0    0 -0.23613838322E+02  0.28764125873E+02  0.92599921608E+01  0.17544279909E+03  0.17120000000E+03 0.  0.
        998    1    1    2    0    0  0.48173160322E+01 -0.37632069570E+02  0.14448215249E+04  0.14453541496E+04  0.10000000000E+02 0.  1.
</event>
<event>
 5    1  0.1503263E-008  0.3854654E+03  0.7957747E-01  0.3427701E+00
         13   -1    0    0    0    0  0.00000000000E+00  0.00000000000E+00  0.14999999963E+04  0.15000000000E+04  0.10566000000E+00 0.  1.
        994   -1    0    0    0    0 -0.00000000000E+00 -0.00000000000E+00  0.11368683772E-12  0.17120000000E+03  0.17120000000E+03 0.  0.
         13    1    1    2    0    0 -0.45291065397E+01 -0.12566992831E+02  0.62203727152E+02  0.63621984805E+02  0.10566000000E+00 0.  1.
        994    1    1    2    0    0  0.32621187063E+00  0.14046523853E+02  0.20477819028E+01  0.17178778960E+03  0.17120000000E+03 0.  0.
        998    1    1    2    0    0  0.42028946690E+01 -0.14795310214E+01  0.14357484872E+04  0.14357902256E+04  0.10000000000E+02 0.  1.
</event>
<event>
 5    1  0.1503263E-008  0.3839705E+03  0.7957747E-01  0.3434050E+00
         13   -1    0    0    0    0  0.00000000000E+00  0.00000000000E+00  0.14999999963E+04  0.15000000000E+04  0.10566000000E+00 0. -1.
        994   -1    0    0    0    0 -0.00000000000E+00 -0.00000000000E+00  0.11368683772E-12  0.17120000000E+03  0.17120000000E+03 0.  0.
         13    1    1    2    0    0  0.91668848977E+01 -0.60532760028E+01  0.28162083879E+02  0.30228927562E+02  0.10566000000E+00 0. -1.
        994    1    1    2    0    0 -0.20255292283E+01  0.13687133405E+00  0.21557260211E+01  0.17122560748E+03  0.17120000000E+03 0.  0.
        998    1    1    2    0    0 -0.71413556694E+01  0.59164046688E+01  0.14696821864E+04  0.14697454650E+04  0.10000000000E+02 0. -1.
</event>
<event>
 5    1  0.1503263E-008  0.3846570E+03  0.7957747E-01  0.3431128E+00
         13   -1    0    0    0    0  0.00000000000E+00  0.00000000000E+00  0.14999999963E+04  0.15000000000E+04  0.10566000000E+00 0. -1.
        994   -1    0    0    0    0 -0.00000000000E+00 -0.00000000000E+00  0.11368683772E-12  0.17120000000E+03  0.17120000000E+03 0.  0.
         13    1    1    2    0    0  0.13737138456E+03 -0.14393697719E+03  0.10926864157E+04  0.11106540258E+04  0.10566000000E+00 0. -1.
        994    1    1    2    0    0 -0.14433043018E+03  0.15296964809E+03  0.16432672057E+03  0.31708626177E+03  0.17120000000E+03 0.  0.
        998    1    1    2    0    0  0.69590456220E+01 -0.90326708998E+01  0.24298685999E+03  0.24345971245E+03  0.10000000000E+02 0.  0.
</event>
<event>
 5    1  0.1503263E-008  0.3847280E+03  0.7957747E-01  0.3430827E+00
         13   -1    0    0    0    0  0.00000000000E+00  0.00000000000E+00  0.14999999963E+04  0.15000000000E+04  0.10566000000E+00 0. -1.
        994   -1    0    0    0    0 -0.00000000000E+00 -0.00000000000E+00  0.11368683772E-12  0.17120000000E+03  0.17120000000E+03 0.  0.
         13    1    1    2    0    0  0.31789478000E+01  0.15242681057E+02  0.64682671852E+02  0.66530476001E+02  0.10566000000E+00 0. -1.
        994    1    1    2    0    0 -0.17593313972E+01 -0.19912966604E+02  0.30817433330E+01  0.17239071503E+03  0.17120000000E+03 0.  0.
        998    1    1    2    0    0 -0.14196164028E+01  0.46702855470E+01  0.14322355811E+04  0.14322788090E+04  0.10000000000E+02 0. -1.
</event>
<event>
 5    1  0.1503263E-008  0.3828562E+03  0.7957747E-01  0.3438815E+00
         13   -1    0    0    0    0  0.00000000000E+00  0.00000000000E+00  0.14999999963E+04  0.15000000000E+04  0.10566000000E+00 0. -1.
        994   -1    0    0    0    0 -0.00000000000E+00 -0.00000000000E+00  0.11368683772E-12  0.17120000000E+03  0.17120000000E+03 0.  0.
         13    1    1    2    0    0 -0.18641451332E+02  0.22123953658E+02  0.12506879416E+03  0.12837128756E+03  0.10566000000E+00 0. -1.
        994    1    1    2    0    0  0.40696446813E+02 -0.29410423612E+02  0.11092802194E+02  0.17875587840E+03  0.17120000000E+03 0.  0.
        998    1    1    2    0    0 -0.22054995481E+02  0.72864699544E+01  0.13638383999E+04  0.13640728340E+04  0.10000000000E+02 0. -1.
</event>
<event>
 5    1  0.1503263E-008  0.3812774E+03  0.7957747E-01  0.3445615E+00
         13   -1    0    0    0    0  0.00000000000E+00  0.00000000000E+00  0.14999999963E+04  0.15000000000E+04  0.10566000000E+00 0.  1.
        994   -1    0    0    0    0 -0.00000000000E+00 -0.00000000000E+00  0.11368683772E-12  0.17120000000E+03  0.17120000000E+03 0.  0.
         13    1    1    2    0    0 -0.28813675218E+02 -0.30093537636E+02  0.22933182818E+03  0.23308570841E+03  0.10566000000E+00 0.  1.
        994    1    1    2    0    0  0.28671402333E+02  0.18247858001E+02  0.73441889786E+01  0.17469519382E+03  0.17120000000E+03 0.  0.
        998    1    1    2    0    0  0.14227288476E+00  0.11845679635E+02  0.12633239791E+04  0.12634190978E+04  0.10000000000E+02 0.  1.
</event>
<event>
 5    1  0.1503263E-008  0.3794588E+03  0.7957747E-01  0.3453519E+00
         13   -1    0    0    0    0  0.00000000000E+00  0.00000000000E+00  0.14999999963E+04  0.15000000000E+04  0.10566000000E+00 0. -1.
        994   -1    0    0    0    0 -0.00000000000E+00 -0.00000000000E+00  0.11368683772E-12  0.17120000000E+03  0.17120000000E+03 0.  0.
         13    1    1    2    0    0 -0.35034295159E+02  0.99204427600E+00  0.16973059531E+03  0.17331148876E+03  0.10566000000E+00 0. -1.
        994    1    1    2    0    0 -0.10146149672E+02 -0.70537792283E+01  0.49181466160E+01  0.17171583596E+03  0.17120000000E+03 0.  0.
        998    1    1    2    0    0  0.45180444831E+02  0.60617349523E+01  0.13253512544E+04  0.13261726753E+04  0.10000000000E+02 0. -1.
</event>
<event>
 5    1  0.1503263E-008  0.3696220E+03  0.7957747E-01  0.3497630E+00
         13   -1    0    0    0    0  0.00000000000E+00  0.00000000000E+00  0.14999999963E+04  0.15000000000E+04  0.10566000000E+00 0. -1.
        994   -1    0    0    0    0 -0.00000000000E+00 -0.00000000000E+00  0.11368683772E-12  0.17120000000E+03  0.17120000000E+03 0.  0.
         13    1    1    2    0    0  0.28164757933E+02  0.62755560303E+01  0.36175183025E+02  0.46274088039E+02  0.10566000000E+00 0. -1.
        994    1    1    2    0    0 -0.50971863918E+01  0.20199306088E+02  0.12255762294E+02  0.17289776455E+03  0.17120000000E+03 0.  0.
        998    1    1    2    0    0 -0.23067571541E+02 -0.26474862119E+02  0.14515690510E+04  0.14520281474E+04  0.10000000000E+02 0. -1.
</event>
<event>
 5    1  0.1503263E-008  0.3856468E+03  0.7957747E-01  0.3426934E+00
         13   -1    0    0    0    0  0.00000000000E+00  0.00000000000E+00  0.14999999963E+04  0.15000000000E+04  0.10566000000E+00 0. -1.
        994   -1    0    0    0    0 -0.00000000000E+00 -0.00000000000E+00  0.11368683772E-12  0.17120000000E+03  0.17120000000E+03 0.  0.
         13    1    1    2    0    0 -0.13867416727E+02 -0.15087002075E+01  0.74605851978E+02  0.75898786133E+02  0.10566000000E+00 0. -1.
        994    1    1    2    0    0  0.79070698984E+01  0.21732551783E+02  0.30664824738E+01  0.17278214282E+03  0.17120000000E+03 0.  0.
        998    1    1    2    0    0  0.59603468285E+01 -0.20223851576E+02  0.14223276618E+04  0.14225190711E+04  0.10000000000E+02 0. -1.
</event>
<event>
 5    1  0.1503263E-008  0.3771657E+03  0.7957747E-01  0.3463593E+00
         13   -1    0    0    0    0  0.00000000000E+00  0.00000000000E+00  0.14999999963E+04  0.15000000000E+04  0.10566000000E+00 0. -1.
        994   -1    0    0    0    0 -0.00000000000E+00 -0.00000000000E+00  0.11368683772E-12  0.17120000000E+03  0.17120000000E+03 0.  0.
         13    1    1    2    0    0 -0.21638660743E+00  0.20003576706E+02  0.33366658933E+02  0.38904177110E+02  0.10566000000E+00 0. -1.
        994    1    1    2    0    0 -0.78037193147E+00 -0.16626659235E+02  0.65062622275E+01  0.17213025947E+03  0.17120000000E+03 0.  0.
        998    1    1    2    0    0  0.99675853891E+00 -0.33769174710E+01  0.14601270751E+04  0.14601655634E+04  0.10000000000E+02 0. -1.
</event>
<event>
 5    1  0.1503263E-008  0.3734050E+03  0.7957747E-01  0.3480387E+00
         13   -1    0    0    0    0  0.00000000000E+00  0.00000000000E+00  0.14999999963E+04  0.15000000000E+04  0.10566000000E+00 0.  1.
        994   -1    0    0    0    0 -0.00000000000E+00 -0.00000000000E+00  0.11368683772E-12  0.17120000000E+03  0.17120000000E+03 0.  0.
         13    1    1    2    0    0 -0.10952991164E+03  0.14007157867E+02  0.49758150729E+03  0.50968654051E+03  0.10566000000E+00 0.  1.
        994    1    1    2    0    0  0.11530807953E+03 -0.10538646627E+02  0.54803943795E+02  0.21382218906E+03  0.17120000000E+03 0.  0.
        998    1    1    2    0    0 -0.57781678886E+01 -0.34685112395E+01  0.94761454519E+03  0.94769127043E+03  0.10000000000E+02 0.  1.
</event>
<event>
 5    1  0.1503263E-008  0.3795104E+03  0.7957747E-01  0.3453293E+00
         13   -1    0    0    0    0  0.00000000000E+00  0.00000000000E+00  0.14999999963E+04  0.15000000000E+04  0.10566000000E+00 0. -1.
        994   -1    0    0    0    0 -0.00000000000E+00 -0.00000000000E+00  0.11368683772E-12  0.17120000000E+03  0.17120000000E+03 0.  0.
         13    1    1    2    0    0 -0.92597699028E+02 -0.21776315892E+02  0.22040903967E+03  0.24005977950E+03  0.10566000000E+00 0. -1.
        994    1    1    2    0    0  0.10195908237E+03  0.38123618093E+02  0.60278444404E+02  0.21164119541E+03  0.17120000000E+03 0.  0.
        998    1    1    2    0    0 -0.93613833447E+01 -0.16347302201E+02  0.12193125122E+04  0.12194990251E+04  0.10000000000E+02 0. -1.
</event>
<event>
 5    1  0.1503263E-008  0.3718680E+03  0.7957747E-01  0.3487350E+00
         13   -1    0    0    0    0  0.00000000000E+00  0.00000000000E+00  0.14999999963E+04  0.15000000000E+04  0.10566000000E+00 0. -1.
        994   -1    0    0    0    0 -0.00000000000E+00 -0.00000000000E+00  0.11368683772E-12  0.17120000000E+03  0.17120000000E+03 0.  0.
         13    1    1    2    0    0  0.50478934086E+02  0.14355963228E+02  0.14474572128E+03  0.15396607243E+03  0.10566000000E+00 0. -1.
        994    1    1    2    0    0  0.22835952944E+02  0.32626726436E+02  0.17531851329E+02  0.17664311432E+03  0.17120000000E+03 0.  0.
        998    1    1    2    0    0 -0.73314887030E+02 -0.46982689664E+02  0.13377224237E+04  0.13405908132E+04  0.10000000000E+02 0. -1.
</event>
<event>
 5    1  0.1503263E-008  0.3783010E+03  0.7957747E-01  0.3458590E+00
         13   -1    0    0    0    0  0.00000000000E+00  0.00000000000E+00  0.14999999963E+04  0.15000000000E+04  0.10566000000E+00 0. -1.
        994   -1    0    0    0    0 -0.00000000000E+00 -0.00000000000E+00  0.11368683772E-12  0.17120000000E+03  0.17120000000E+03 0.  0.
         13    1    1    2    0    0 -0.25747259962E+02 -0.19259143999E+02  0.94597730133E+02  0.99912850692E+02  0.10566000000E+00 0. -1.
        994    1    1    2    0    0  0.35375276959E+02  0.12038207388E+02  0.97018117463E+01  0.17549898521E+03  0.17120000000E+03 0.  0.
        998    1    1    2    0    0 -0.96280169973E+01  0.72209366107E+01  0.13957004544E+04  0.13957881641E+04  0.10000000000E+02 0. -1.
</event>
<event>
 5    1  0.1503263E-008  0.3804135E+03  0.7957747E-01  0.3449360E+00
         13   -1    0    0    0    0  0.00000000000E+00  0.00000000000E+00  0.14999999963E+04  0.15000000000E+04  0.10566000000E+00 0. -1.
        994   -1    0    0    0    0 -0.00000000000E+00 -0.00000000000E+00  0.11368683772E-12  0.17120000000E+03  0.17120000000E+03 0.  0.
         13    1    1    2    0    0  0.32020262589E+02 -0.46769647345E+01  0.13840273076E+03  0.14213549261E+03  0.10566000000E+00 0. -1.
        994    1    1    2    0    0 -0.11199383482E+02  0.44688593484E+01  0.44100761185E+01  0.17168076673E+03  0.17120000000E+03 0.  0.
        998    1    1    2    0    0 -0.20820879107E+02  0.20810538607E+00  0.13571871894E+04  0.13573837407E+04  0.10000000000E+02 0. -1.
</event>
<event>
 5    1  0.1503263E-008  0.3695690E+03  0.7957747E-01  0.3497874E+00
         13   -1    0    0    0    0  0.00000000000E+00  0.00000000000E+00  0.14999999963E+04  0.15000000000E+04  0.10566000000E+00 0.  1.
        994   -1    0    0    0    0 -0.00000000000E+00 -0.00000000000E+00  0.11368683772E-12  0.17120000000E+03  0.17120000000E+03 0.  0.
         13    1    1    2    0    0 -0.56975051904E+02 -0.27509243224E+02  0.20510311521E+03  0.21463973080E+03  0.10566000000E+00 0.  1.
        994    1    1    2    0    0  0.39224898493E+02  0.10173457318E+02  0.15202248672E+02  0.17658607040E+03  0.17120000000E+03 0.  0.
        998    1    1    2    0    0  0.17750153411E+02  0.17335785906E+02  0.12796946324E+04  0.12799741988E+04  0.10000000000E+02 0.  1.
</event>
<event>
 5    1  0.1503263E-008  0.3806208E+03  0.7957747E-01  0.3448460E+00
         13   -1    0    0    0    0  0.00000000000E+00  0.00000000000E+00  0.14999999963E+04  0.15000000000E+04  0.10566000000E+00 0.  1.
        994   -1    0    0    0    0 -0.00000000000E+00 -0.00000000000E+00  0.11368683772E-12  0.17120000000E+03  0.17120000000E+03 0.  0.
         13    1    1    2    0    0  0.10721194237E+02 -0.23176364751E+01  0.14329247380E+02  0.18045884273E+02  0.10566000000E+00 0.  1.
        994    1    1    2    0    0 -0.37410962328E+01 -0.89286619853E+01  0.41327905003E+01  0.17152328344E+03  0.17120000000E+03 0.  0.
        998    1    1    2    0    0 -0.69800980040E+01  0.11246298460E+02  0.14815379584E+04  0.14816308323E+04  0.10000000000E+02 0.  1.
</event>
<event>
 5    1  0.1503263E-008  0.3812832E+03  0.7957747E-01  0.3445590E+00
         13   -1    0    0    0    0  0.00000000000E+00  0.00000000000E+00  0.14999999963E+04  0.15000000000E+04  0.10566000000E+00 0. -1.
        994   -1    0    0    0    0 -0.00000000000E+00 -0.00000000000E+00  0.11368683772E-12  0.17120000000E+03  0.17120000000E+03 0.  0.
         13    1    1    2    0    0  0.26252432132E+01 -0.21891893065E+02  0.68419166721E+02  0.71884215394E+02  0.10566000000E+00 0. -1.
        994    1    1    2    0    0 -0.74734296507E+01  0.13529895165E+02  0.42824758257E+01  0.17194967233E+03  0.17120000000E+03 0.  0.
        998    1    1    2    0    0  0.48481864375E+01  0.83619978996E+01  0.14272983537E+04  0.14273661123E+04  0.10000000000E+02 0. -1.
</event>
<event>
 5    1  0.1503263E-008  0.3859967E+03  0.7957747E-01  0.3425456E+00
         13   -1    0    0    0    0  0.00000000000E+00  0.00000000000E+00  0.14999999963E+04  0.15000000000E+04  0.10566000000E+00 0.  1.
        994   -1    0    0    0    0 -0.00000000000E+00 -0.00000000000E+00  0.11368683772E-12  0.17120000000E+03  0.17120000000E+03 0.  0.
         13    1    1    2    0    0 -0.25850332485E+01  0.12373532017E+02  0.70444212685E+02  0.71569441498E+02  0.10566000000E+00 0.  1.
        994    1    1    2    0    0  0.17227731441E+01 -0.94701863956E+01  0.14398760470E+01  0.17147642876E+03  0.17120000000E+03 0.  0.
        998    1    1    2    0    0  0.86226010442E+00 -0.29033456214E+01  0.14281159075E+04  0.14281541297E+04  0.10000000000E+02 0.  1.
</event>
<event>
 5    1  0.1503263E-008  0.3793481E+03  0.7957747E-01  0.3454002E+00
         13   -1    0    0    0    0  0.00000000000E+00  0.00000000000E+00  0.14999999963E+04  0.15000000000E+04  0.10566000000E+00 0.  1.
        994   -1    0    0    0    0 -0.00000000000E+00 -0.00000000000E+00  0.11368683772E-12  0.17120000000E+03  0.17120000000E+03 0.  0.
         13    1    1    2    0    0  0.19167961416E+02  0.12297887692E+02  0.53762616424E+02  0.58387317762E+02  0.10566000000E+00 0.  1.
        994    1    1    2    0    0 -0.26613180889E+02 -0.97916131996E+01  0.71612218967E+01  0.17368033909E+03  0.17120000000E+03 0.  0.
        998    1    1    2    0    0  0.74452194724E+01 -0.25062744926E+01  0.14390761580E+04  0.14391323432E+04  0.10000000000E+02 0.  1.
</event>
<event>
 5    1  0.1503263E-008  0.3823794E+03  0.7957747E-01  0.3440863E+00
         13   -1    0    0    0    0  0.00000000000E+00  0.00000000000E+00  0.14999999963E+04  0.15000000000E+04  0.10566000000E+00 0. -1.
        994   -1    0    0    0    0 -0.00000000000E+00 -0.00000000000E+00  0.11368683772E-12  0.17120000000E+03  0.17120000000E+03 0.  0.
         13    1    1    2    0    0  0.17888098274E+02 -0.14205486798E+02  0.84627985263E+02  0.87656642468E+02  0.10566000000E+00 0. -1.
        994    1    1    2    0    0 -0.27878797900E+02 -0.50667065144E+00  0.55199073784E+01  0.17354363562E+03  0.17120000000E+03 0.  0.
        998    1    1    2    0    0  0.99906996251E+01  0.14712157449E+02  0.14098521036E+04  0.14099997219E+04  0.10000000000E+02 0. -1.
</event>
<event>
 5    1  0.1503263E-008  0.3794197E+03  0.7957747E-01  0.3453689E+00
         13   -1    0    0    0    0  0.00000000000E+00  0.00000000000E+00  0.14999999963E+04  0.15000000000E+04  0.10566000000E+00 0. -1.
        994   -1    0    0    0    0 -0.00000000000E+00 -0.00000000000E+00  0.11368683772E-12  0.17120000000E+03  0.17120000000E+03 0.  0.
         13    1    1    2    0    0 -0.58002767603E+01 -0.26431332568E+02  0.78543338842E+02  0.83074218577E+02  0.10566000000E+00 0. -1.
        994    1    1    2    0    0  0.40723060840E+02  0.16453046127E+02  0.10914734383E+02  0.17708089066E+03  0.17120000000E+03 0.  0.
        998    1    1    2    0    0 -0.34922784080E+02  0.99782864413E+01  0.14105419231E+04  0.14110448908E+04  0.10000000000E+02 0. -1.
</event>
<event>
 5    1  0.1503263E-008  0.3831854E+03  0.7957747E-01  0.3437405E+00
         13   -1    0    0    0    0  0.00000000000E+00  0.00000000000E+00  0.14999999963E+04  0.15000000000E+04  0.10566000000E+00 0. -1.
        994   -1    0    0    0    0 -0.00000000000E+00 -0.00000000000E+00  0.11368683772E-12  0.17120000000E+03  0.17120000000E+03 0.  0.
         13    1    1    2    0    0 -0.11558930569E+02  0.25816950217E+02  0.14881132137E+03  0.15147588695E+03  0.10566000000E+00 0. -1.
        994    1    1    2    0    0  0.19436505631E+02 -0.17681319632E+02  0.48210432463E+01  0.17327172093E+03  0.17120000000E+03 0.  0.
        998    1    1    2    0    0 -0.78775750628E+01 -0.81356305848E+01  0.13463676317E+04  0.13464523921E+04  0.10000000000E+02 0. -1.
</event>
<event>
 5    1  0.1503263E-008  0.3836488E+03  0.7957747E-01  0.3435423E+00
         13   -1    0    0    0    0  0.00000000000E+00  0.00000000000E+00  0.14999999963E+04  0.15000000000E+04  0.10566000000E+00 0.  1.
        994   -1    0    0    0    0 -0.00000000000E+00 -0.00000000000E+00  0.11368683772E-12  0.17120000000E+03  0.17120000000E+03 0.  0.
         13    1    1    2    0    0  0.92521179231E+01  0.55254231078E+01  0.24067627493E+02  0.26370321268E+02  0.10566000000E+00 0.  1.
        994    1    1    2    0    0 -0.99582734310E+01 -0.71108504371E+01  0.27971873835E+01  0.17165953414E+03  0.17120000000E+03 0.  0.
        998    1    1    2    0    0  0.70615550793E+00  0.15854273293E+01  0.14731351814E+04  0.14731701446E+04  0.10000000000E+02 0.  1.
</event>
<event>
 5    1  0.1503263E-008  0.3845901E+03  0.7957747E-01  0.3431413E+00
         13   -1    0    0    0    0  0.00000000000E+00  0.00000000000E+00  0.14999999963E+04  0.15000000000E+04  0.10566000000E+00 0. -1.
        994   -1    0    0    0    0 -0.00000000000E+00 -0.00000000000E+00  0.11368683772E-12  0.17120000000E+03  0.17120000000E+03 0.  0.
         13    1    1    2    0    0  0.50533571761E+01  0.11117543056E+02  0.38359354463E+02  0.40256520232E+02  0.10566000000E+00 0. -1.
        994    1    1    2    0    0 -0.77765531602E+01 -0.17521849618E+02  0.30448832893E+01  0.17229684068E+03  0.17120000000E+03 0.  0.
        998    1    1    2    0    0  0.27231959841E+01  0.64043065617E+01  0.14585957585E+04  0.14586466391E+04  0.10000000000E+02 0. -1.
</event>
<event>
 5    1  0.1503263E-008  0.3855742E+03  0.7957747E-01  0.3427241E+00
         13   -1    0    0    0    0  0.00000000000E+00  0.00000000000E+00  0.14999999963E+04  0.15000000000E+04  0.10566000000E+00 0. -1.
        994   -1    0    0    0    0 -0.00000000000E+00 -0.00000000000E+00  0.11368683772E-12  0.17120000000E+03  0.17120000000E+03 0.  0.
         13    1    1    2    0    0 -0.14263828797E+02  0.33900280456E+01  0.86560887367E+02  0.87793778185E+02  0.10566000000E+00 0. -1.
        994    1    1    2    0    0 -0.18310302933E+00 -0.26385258629E+01  0.13682915837E+01  0.17122589631E+03  0.17120000000E+03 0.  0.
        998    1    1    2    0    0  0.14446931826E+02 -0.75150218272E+00  0.14120708173E+04  0.14121803255E+04  0.10000000000E+02 0. -1.
</event>
<event>
 5    1  0.1503263E-008  0.3866788E+03  0.7957747E-01  0.3422583E+00
         13   -1    0    0    0    0  0.00000000000E+00  0.00000000000E+00  0.14999999963E+04  0.15000000000E+04  0.10566000000E+00 0.  1.
        994   -1    0    0    0    0 -0.00000000000E+00 -0.00000000000E+00  0.11368683772E-12  0.17120000000E+03  0.17120000000E+03 0.  0.
         13    1    1    2    0    0  0.70518133914E+02  0.61476971551E+02  0.19447048767E+03  0.21580316722E+03  0.10566000000E+00 0.  1.
        994    1    1    2    0    0 -0.52763363598E+02 -0.63110170868E+02  0.45643404211E+02  0.19534489129E+03  0.17120000000E+03 0.  0.
        998    1    1    2    0    0 -0.17754770316E+02  0.16331993175E+01  0.12598861044E+04  0.12600519415E+04  0.10000000000E+02 0.  1.
</event>
<event>
 5    1  0.1503263E-008  0.3776713E+03  0.7957747E-01  0.3461361E+00
         13   -1    0    0    0    0  0.00000000000E+00  0.00000000000E+00  0.14999999963E+04  0.15000000000E+04  0.10566000000E+00 0. -1.
        994   -1    0    0    0    0 -0.00000000000E+00 -0.00000000000E+00  0.11368683772E-12  0.17120000000E+03  0.17120000000E+03 0.  0.
         13    1    1    2    0    0 -0.86897685439E+02  0.49289599355E+02  0.52469585801E+03  0.53412210862E+03  0.10566000000E+00 0. -1.
        994    1    1    2    0    0  0.95290916613E+02 -0.55273457484E+02  0.47352160067E+02  0.20901478645E+03  0.17120000000E+03 0.  0.
        998    1    1    2    0    0 -0.83932311743E+01  0.59838581295E+01  0.92795197820E+03  0.92806310493E+03  0.10000000000E+02 0. -1.
</event>
<event>
 5    1  0.1503263E-008  0.3701121E+03  0.7957747E-01  0.3495376E+00
         13   -1    0    0    0    0  0.00000000000E+00  0.00000000000E+00  0.14999999963E+04  0.15000000000E+04  0.10566000000E+00 0.  1.
        994   -1    0    0    0    0 -0.00000000000E+00 -0.00000000000E+00  0.11368683772E-12  0.17120000000E+03  0.17120000000E+03 0.  0.
         13    1    1    2    0    0 -0.10288047171E+02  0.83013057634E+01  0.52969378817E+01  0.14241639896E+02  0.10566000000E+00 0.  1.
        994    1    1    2    0    0  0.13111549293E+02  0.35397594576E+01  0.98482384044E+01  0.17201997100E+03  0.17120000000E+03 0.  0.
        998    1    1    2    0    0 -0.28235021212E+01 -0.11841065221E+02  0.14848548200E+04  0.14849383891E+04  0.10000000000E+02 0.  1.
</event>
<event>
 5    1  0.1503263E-008  0.3850698E+03  0.7957747E-01  0.3429376E+00
         13   -1    0    0    0    0  0.00000000000E+00  0.00000000000E+00  0.14999999963E+04  0.15000000000E+04  0.10566000000E+00 0.  1.
        994   -1    0    0    0    0 -0.00000000000E+00 -0.00000000000E+00  0.11368683772E-12  0.17120000000E+03  0.17120000000E+03 0.  0.
         13    1    1    2    0    0  0.78034702193E+01  0.17859217567E+02  0.11292288359E+03  0.11459247184E+03  0.10566000000E+00 0.  1.
        994    1    1    2    0    0 -0.56507851256E+01 -0.17944723864E+02  0.27601084241E+01  0.17225272911E+03  0.17120000000E+03 0.  0.
        998    1    1    2    0    0 -0.21526850937E+01  0.85506297144E-01  0.13843170043E+04  0.13843547991E+04  0.10000000000E+02 0.  0.
</event>
<event>
 5    1  0.1503263E-008  0.3808718E+03  0.7957747E-01  0.3447371E+00
         13   -1    0    0    0    0  0.00000000000E+00  0.00000000000E+00  0.14999999963E+04  0.15000000000E+04  0.10566000000E+00 0. -1.
        994   -1    0    0    0    0 -0.00000000000E+00 -0.00000000000E+00  0.11368683772E-12  0.17120000000E+03  0.17120000000E+03 0.  0.
         13    1    1    2    0    0  0.82794309954E+01 -0.22719395345E+02  0.77145599856E+02  0.80846611825E+02  0.10566000000E+00 0. -1.
        994    1    1    2    0    0 -0.23822229629E+02  0.97763865291E+01  0.59071149712E+01  0.17322647132E+03  0.17120000000E+03 0.  0.
        998    1    1    2    0    0  0.15542798634E+02  0.12943008816E+02  0.14169472815E+04  0.14171269169E+04  0.10000000000E+02 0. -1.
</event>
<event>
 5    1  0.1503263E-008  0.3693929E+03  0.7957747E-01  0.3498686E+00
         13   -1    0    0    0    0  0.00000000000E+00  0.00000000000E+00  0.14999999963E+04  0.15000000000E+04  0.10566000000E+00 0. -1.
        994   -1    0    0    0    0 -0.00000000000E+00 -0.00000000000E+00  0.11368683772E-12  0.17120000000E+03  0.17120000000E+03 0.  0.
         13    1    1    2    0    0  0.16460484859E+02 -0.10142161127E+02  0.15300225338E+02  0.24656014551E+02  0.10566000000E+00 0. -1.
        994    1    1    2    0    0 -0.12014449644E+02  0.87567538993E+01  0.10352945052E+02  0.17215589217E+03  0.17120000000E+03 0.  0.
        998    1    1    2    0    0 -0.44460352146E+01  0.13854072275E+01  0.14743468259E+04  0.14743880933E+04  0.10000000000E+02 0. -1.
</event>
<event>
 5    1  0.1503263E-008  0.3847517E+03  0.7957747E-01  0.3430726E+00
         13   -1    0    0    0    0  0.00000000000E+00  0.00000000000E+00  0.14999999963E+04  0.15000000000E+04  0.10566000000E+00 0. -1.
        994   -1    0    0    0    0 -0.00000000000E+00 -0.00000000000E+00  0.11368683772E-12  0.17120000000E+03  0.17120000000E+03 0.  0.
         13    1    1    2    0    0  0.11377938399E+02  0.61041912853E+01  0.47243435699E+02  0.48976239281E+02  0.10566000000E+00 0. -1.
        994    1    1    2    0    0 -0.13339698736E+01 -0.17106094133E+02  0.27230057396E+01  0.17207920471E+03  0.17120000000E+03 0.  0.
        998    1    1    2    0    0 -0.10043968525E+02  0.11001902848E+02  0.14500335548E+04  0.14501445560E+04  0.10000000000E+02 0. -1.
</event>
<event>
 5    1  0.1503263E-008  0.3851679E+03  0.7957747E-01  0.3428960E+00
         13   -1    0    0    0    0  0.00000000000E+00  0.00000000000E+00  0.14999999963E+04  0.15000000000E+04  0.10566000000E+00 0. -1.
        994   -1    0    0    0    0 -0.00000000000E+00 -0.00000000000E+00  0.11368683772E-12  0.17120000000E+03  0.17120000000E+03 0.  0.
         13    1    1    2    0    0 -0.41180378052E+01  0.93797441702E+01  0.34020514068E+02  0.35529486030E+02  0.10566000000E+00 0. -1.
        994    1    1    2    0    0  0.61125584749E-01 -0.61094711686E+01  0.16695080464E+01  0.17131712300E+03  0.17120000000E+03 0.  0.
        998    1    1    2    0    0  0.40569122205E+01 -0.32702730016E+01  0.14643099742E+04  0.14643533910E+04  0.10000000000E+02 0. -1.
</event>
<event>
 5    1  0.1503263E-008  0.3808603E+03  0.7957747E-01  0.3447421E+00
         13   -1    0    0    0    0  0.00000000000E+00  0.00000000000E+00  0.14999999963E+04  0.15000000000E+04  0.10566000000E+00 0. -1.
        994   -1    0    0    0    0 -0.00000000000E+00 -0.00000000000E+00  0.11368683772E-12  0.17120000000E+03  0.17120000000E+03 0.  0.
         13    1    1    2    0    0 -0.59162577228E+01  0.92135570873E+01  0.14483876645E+02  0.18157246111E+02  0.10566000000E+00 0. -1.
        994    1    1    2    0    0  0.46335602807E+01 -0.11084239181E+02  0.41807781750E+01  0.17167192300E+03  0.17120000000E+03 0.  0.
        998    1    1    2    0    0  0.12826974421E+01  0.18706820942E+01  0.14813353415E+04  0.14813708309E+04  0.10000000000E+02 0. -1.
</event>
<event>
 5    1  0.1503263E-008  0.3807492E+03  0.7957747E-01  0.3447903E+00
         13   -1    0    0    0    0  0.00000000000E+00  0.00000000000E+00  0.14999999963E+04  0.15000000000E+04  0.10566000000E+00 0.  1.
        994   -1    0    0    0    0 -0.00000000000E+00 -0.00000000000E+00  0.11368683772E-12  0.17120000000E+03  0.17120000000E+03 0.  0.
         13    1    1    2    0    0  0.24420676206E+02  0.40314117863E+02  0.26275703337E+03  0.26695105783E+03  0.10566000000E+00 0.  1.
        994    1    1    2    0    0 -0.31393065106E+02 -0.27838413728E+02  0.96484889114E+01  0.17653055020E+03  0.17120000000E+03 0.  0.
        998    1    1    2    0    0  0.69723889004E+01 -0.12475704134E+02  0.12275944740E+04  0.12277183920E+04  0.10000000000E+02 0.  1.
</event>
<event>
 5    1  0.1503263E-008  0.3705981E+03  0.7957747E-01  0.3493147E+00
         13   -1    0    0    0    0  0.00000000000E+00  0.00000000000E+00  0.14999999963E+04  0.15000000000E+04  0.10566000000E+00 0.  1.
        994   -1    0    0    0    0 -0.00000000000E+00 -0.00000000000E+00  0.11368683772E-12  0.17120000000E+03  0.17120000000E+03 0.  0.
         13    1    1    2    0    0  0.88952754712E+02 -0.51848151238E+02  0.46973103021E+03  0.48088260029E+03  0.10566000000E+00 0.  1.
        994    1    1    2    0    0 -0.70480849926E+02  0.49106974560E+02  0.34866916582E+02  0.19468997670E+03  0.17120000000E+03 0.  0.
        998    1    1    2    0    0 -0.18471904786E+02  0.27411766780E+01  0.99540204949E+03  0.99562742301E+03  0.10000000000E+02 0.  1.
</event>
<event>
 5    1  0.1503263E-008  0.3830879E+03  0.7957747E-01  0.3437822E+00
         13   -1    0    0    0    0  0.00000000000E+00  0.00000000000E+00  0.14999999963E+04  0.15000000000E+04  0.10566000000E+00 0.  1.
        994   -1    0    0    0    0 -0.00000000000E+00 -0.00000000000E+00  0.11368683772E-12  0.17120000000E+03  0.17120000000E+03 0.  0.
         13    1    1    2    0    0 -0.95285932687E+01 -0.89164656919E+01  0.32831101332E+02  0.35329730098E+02  0.10566000000E+00 0.  1.
        994    1    1    2    0    0  0.16189388761E+02 -0.12537660464E+02  0.39711652765E+01  0.17246593690E+03  0.17120000000E+03 0.  0.
        998    1    1    2    0    0 -0.66607954923E+01  0.21454126156E+02  0.14631977297E+04  0.14634043330E+04  0.10000000000E+02 0.  1.
</event>
<event>
 5    1  0.1503263E-008  0.3846497E+03  0.7957747E-01  0.3431159E+00
         13   -1    0    0    0    0  0.00000000000E+00  0.00000000000E+00  0.14999999963E+04  0.15000000000E+04  0.10566000000E+00 0. -1.
        994   -1    0    0    0    0 -0.00000000000E+00 -0.00000000000E+00  0.11368683772E-12  0.17120000000E+03  0.17120000000E+03 0.  0.
         13    1    1    2    0    0 -0.17470102107E+02 -0.48886335261E+01  0.87582272168E+02  0.89441426462E+02  0.10566000000E+00 0. -1.
        994    1    1    2    0    0  0.17543078028E+02  0.13330250954E+01  0.28239199682E+01  0.17212481247E+03  0.17120000000E+03 0.  0.
        998    1    1    2    0    0 -0.72975921322E-01  0.35556084307E+01  0.14095938041E+04  0.14096337611E+04  0.10000000000E+02 0. -1.
</event>
<event>
 5    1  0.1503263E-008  0.3725043E+03  0.7957747E-01  0.3484460E+00
         13   -1    0    0    0    0  0.00000000000E+00  0.00000000000E+00  0.14999999963E+04  0.15000000000E+04  0.10566000000E+00 0. -1.
        994   -1    0    0    0    0 -0.00000000000E+00 -0.00000000000E+00  0.11368683772E-12  0.17120000000E+03  0.17120000000E+03 0.  0.
         13    1    1    2    0    0 -0.19137629413E+02  0.31203015137E+02  0.47922488778E+02  0.60303010770E+02  0.10566000000E+00 0. -1.
        994    1    1    2    0    0  0.22004322739E+02 -0.33822458547E+02  0.18033529028E+02  0.17681288723E+03  0.17120000000E+03 0.  0.
        998    1    1    2    0    0 -0.28666933258E+01  0.26194434094E+01  0.14340439785E+04  0.14340841020E+04  0.10000000000E+02 0. -1.
</event>
<event>
 5    1  0.1503263E-008  0.3844546E+03  0.7957747E-01  0.3431989E+00
         13   -1    0    0    0    0  0.00000000000E+00  0.00000000000E+00  0.14999999963E+04  0.15000000000E+04  0.10566000000E+00 0. -1.
        994   -1    0    0    0    0 -0.00000000000E+00 -0.00000000000E+00  0.11368683772E-12  0.17120000000E+03  0.17120000000E+03 0.  0.
         13    1    1    2    0    0  0.34572562556E+01 -0.17843687789E+02  0.92431226324E+02  0.94201340641E+02  0.10566000000E+00 0. -1.
        994    1    1    2    0    0 -0.13263255187E+01  0.23183734575E+01  0.19246809972E+01  0.17123165126E+03  0.17120000000E+03 0.  0.
        998    1    1    2    0    0 -0.21309307368E+01  0.15525314331E+02  0.14056440890E+04  0.14057670081E+04  0.10000000000E+02 0. -1.
</event>
<event>
 5    1  0.1503263E-008  0.3749473E+03  0.7957747E-01  0.3473458E+00
         13   -1    0    0    0    0  0.00000000000E+00  0.00000000000E+00  0.14999999963E+04  0.15000000000E+04  0.10566000000E+00 0.  1.
        994   -1    0    0    0    0 -0.00000000000E+00 -0.00000000000E+00  0.11368683772E-12  0.17120000000E+03  0.17120000000E+03 0.  0.
         13    1    1    2    0    0  0.62360301032E+02 -0.11527465797E+03  0.68623331183E+03  0.69863668909E+03  0.10566000000E+00 0.  1.
        994    1    1    2    0    0 -0.55498468972E+02  0.11527331355E+03  0.64563481780E+02  0.22326195389E+03  0.17120000000E+03 0.  0.
        998    1    1    2    0    0 -0.68618320597E+01  0.13444228323E-02  0.74920320267E+03  0.74930135702E+03  0.10000000000E+02 0.  1.
</event>
<event>
 5    1  0.1503263E-008  0.3791812E+03  0.7957747E-01  0.3454732E+00
         13   -1    0    0    0    0  0.00000000000E+00  0.00000000000E+00  0.14999999963E+04  0.15000000000E+04  0.10566000000E+00 0.  1.
        994   -1    0    0    0    0 -0.00000000000E+00 -0.00000000000E+00  0.11368683772E-12  0.17120000000E+03  0.17120000000E+03 0.  0.
         13    1    1    2    0    0 -0.33234085896E+02  0.27578727862E+01  0.13689846497E+03  0.14090177857E+03  0.10566000000E+00 0.  1.
        994    1    1    2    0    0 -0.94095709589E+00  0.65178761006E+01  0.46924464864E+01  0.17139086079E+03  0.17120000000E+03 0.  0.
        998    1    1    2    0    0  0.34175042992E+02 -0.92757488868E+01  0.13584090848E+04  0.13589073606E+04  0.10000000000E+02 0.  1.
</event>
<event>
 5    1  0.1503263E-008  0.3798831E+03  0.7957747E-01  0.3451668E+00
         13   -1    0    0    0    0  0.00000000000E+00  0.00000000000E+00  0.14999999963E+04  0.15000000000E+04  0.10566000000E+00 0.  1.
        994   -1    0    0    0    0 -0.00000000000E+00 -0.00000000000E+00  0.11368683772E-12  0.17120000000E+03  0.17120000000E+03 0.  0.
         13    1    1    2    0    0  0.28315080255E+02 -0.17509318073E+02  0.11716527294E+03  0.12180325257E+03  0.10566000000E+00 0.  1.
        994    1    1    2    0    0 -0.35843644776E+02  0.18097447296E+02  0.96028998521E+01  0.17610775155E+03  0.17120000000E+03 0.  0.
        998    1    1    2    0    0  0.75285645213E+01 -0.58812922248E+00  0.13732318235E+04  0.13732889959E+04  0.10000000000E+02 0.  1.
</event>
<event>
 5    1  0.1503263E-008  0.3830888E+03  0.7957747E-01  0.3437818E+00
         13   -1    0    0    0    0  0.00000000000E+00  0.00000000000E+00  0.14999999963E+04  0.15000000000E+04  0.10566000000E+00 0.  1.
        994   -1    0    0    0    0 -0.00000000000E+00 -0.00000000000E+00  0.11368683772E-12  0.17120000000E+03  0.17120000000E+03 0.  0.
         13    1    1    2    0    0  0.42622039446E+00 -0.14105685741E+02  0.36820751533E+02  0.39432612664E+02  0.10566000000E+00 0.  1.
        994    1    1    2    0    0 -0.66472757804E+01  0.15608216489E+02  0.35349471447E+01  0.17207480510E+03  0.17120000000E+03 0.  0.
        998    1    1    2    0    0  0.62210553859E+01 -0.15025307481E+01  0.14596442976E+04  0.14596925822E+04  0.10000000000E+02 0.  1.
</event>
<event>
 5    1  0.1503263E-008  0.3846213E+03  0.7957747E-01  0.3431280E+00
         13   -1    0    0    0    0  0.00000000000E+00  0.00000000000E+00  0.14999999963E+04  0.15000000000E+04  0.10566000000E+00 0. -1.
        994   -1    0    0    0    0 -0.00000000000E+00 -0.00000000000E+00  0.11368683772E-12  0.17120000000E+03  0.17120000000E+03 0.  0.
         13    1    1    2    0    0  0.14569547240E+02 -0.10560233467E+03  0.35607134859E+03  0.37168661698E+03  0.10566000000E+00 0. -1.
        994    1    1    2    0    0  0.50293124274E+02  0.40696920851E+02  0.34485673268E+02  0.18623732004E+03  0.17120000000E+03 0.  0.
        998    1    1    2    0    0 -0.64862671514E+02  0.64905413817E+02  0.11094429744E+04  0.11132760630E+04  0.10000000000E+02 0. -1.
</event>
<event>
 5    1  0.1503263E-008  0.4002493E+03  0.7957747E-01  0.3367465E+00
         13   -1    0    0    0    0  0.00000000000E+00  0.00000000000E+00  0.14999999963E+04  0.15000000000E+04  0.10566000000E+00 0. -1.
        994   -1    0    0    0    0 -0.00000000000E+00 -0.00000000000E+00  0.11368683772E-12  0.17120000000E+03  0.17120000000E+03 0.  0.
         13    1    1    2    0    0  0.17023490549E+02  0.15271903751E+03  0.28248615669E+03  0.32157634168E+03  0.10566000000E+00 0. -1.
        994    1    1    2    0    0  0.38918259928E+02 -0.17991691992E+03  0.17757361037E+03  0.30777679596E+03  0.17120000000E+03 0.  0.
        998    1    1    2    0    0 -0.55941750478E+02  0.27197882414E+02  0.10399402292E+04  0.10418468624E+04  0.10000000000E+02 0. -1.
</event>
<event>
 5    1  0.1503263E-008  0.3857320E+03  0.7957747E-01  0.3426574E+00
         13   -1    0    0    0    0  0.00000000000E+00  0.00000000000E+00  0.14999999963E+04  0.15000000000E+04  0.10566000000E+00 0. -1.
        994   -1    0    0    0    0 -0.00000000000E+00 -0.00000000000E+00  0.11368683772E-12  0.17120000000E+03  0.17120000000E+03 0.  0.
         13    1    1    2    0    0 -0.62021955493E+01  0.11965986268E+02  0.69677148189E+02  0.70968783284E+02  0.10566000000E+00 0. -1.
        994    1    1    2    0    0  0.10370805948E+02 -0.10226052444E+02  0.19634056783E+01  0.17182962703E+03  0.17120000000E+03 0.  0.
        998    1    1    2    0    0 -0.41686103983E+01 -0.17399338238E+01  0.14283594424E+04  0.14284015897E+04  0.10000000000E+02 0. -1.
</event>
<event>
 5    1  0.1503263E-008  0.3785400E+03  0.7957747E-01  0.3457540E+00
         13   -1    0    0    0    0  0.00000000000E+00  0.00000000000E+00  0.14999999963E+04  0.15000000000E+04  0.10566000000E+00 0. -1.
        994   -1    0    0    0    0 -0.00000000000E+00 -0.00000000000E+00  0.11368683772E-12  0.17120000000E+03  0.17120000000E+03 0.  0.
         13    1    1    2    0    0  0.15646044383E+02 -0.15053401871E+02  0.51093176172E+02  0.55515109908E+02  0.10566000000E+00 0. -1.
        994    1    1    2    0    0  0.64642970501E+01 -0.10782721029E+02  0.54030417826E+01  0.17174599579E+03  0.17120000000E+03 0.  0.
        998    1    1    2    0    0 -0.22110341433E+02  0.25836122900E+02  0.14435037783E+04  0.14439388943E+04  0.10000000000E+02 0. -1.
</event>
<event>
 5    1  0.1503263E-008  0.3764849E+03  0.7957747E-01  0.3466608E+00
         13   -1    0    0    0    0  0.00000000000E+00  0.00000000000E+00  0.14999999963E+04  0.15000000000E+04  0.10566000000E+00 0. -1.
        994   -1    0    0    0    0 -0.00000000000E+00 -0.00000000000E+00  0.11368683772E-12  0.17120000000E+03  0.17120000000E+03 0.  0.
         13    1    1    2    0    0  0.14921774905E+02  0.10236883097E+02  0.26707784415E+02  0.32260967968E+02  0.10566000000E+00 0. -1.
        994    1    1    2    0    0  0.65017924348E+01  0.73847185064E+01  0.62456907278E+01  0.17159620050E+03  0.17120000000E+03 0.  0.
        998    1    1    2    0    0 -0.21423567340E+02 -0.17621601603E+02  0.14670465211E+04  0.14673428315E+04  0.10000000000E+02 0. -1.
</event>
<event>
 5    1  0.1503263E-008  0.3751295E+03  0.7957747E-01  0.3472644E+00
         13   -1    0    0    0    0  0.00000000000E+00  0.00000000000E+00  0.14999999963E+04  0.15000000000E+04  0.10566000000E+00 0.  1.
        994   -1    0    0    0    0 -0.00000000000E+00 -0.00000000000E+00  0.11368683772E-12  0.17120000000E+03  0.17120000000E+03 0.  0.
         13    1    1    2    0    0 -0.16488194830E+02  0.14043616513E+00  0.17931425726E+02  0.24360367068E+02  0.10566000000E+00 0.  1.
        994    1    1    2    0    0  0.62322381545E+01  0.13440406188E+02  0.73583310615E+01  0.17199729750E+03  0.17120000000E+03 0.  0.
        998    1    1    2    0    0  0.10255956676E+02 -0.13580842353E+02  0.14747102395E+04  0.14748423354E+04  0.10000000000E+02 0.  1.
</event>
<event>
 5    1  0.1503263E-008  0.3776577E+03  0.7957747E-01  0.3461421E+00
         13   -1    0    0    0    0  0.00000000000E+00  0.00000000000E+00  0.14999999963E+04  0.15000000000E+04  0.10566000000E+00 0.  1.
        994   -1    0    0    0    0 -0.00000000000E+00 -0.00000000000E+00  0.11368683772E-12  0.17120000000E+03  0.17120000000E+03 0.  0.
         13    1    1    2    0    0  0.60091677879E+01 -0.29316255414E+02  0.92398054060E+02  0.97123449728E+02  0.10566000000E+00 0.  1.
        994    1    1    2    0    0 -0.15707088741E+02 -0.10529582462E+02  0.65258580007E+01  0.17236476312E+03  0.17120000000E+03 0.  0.
        998    1    1    2    0    0  0.96979209527E+01  0.39845837876E+02  0.14010760842E+04  0.14017117872E+04  0.10000000000E+02 0.  1.
</event>
<event>
 5    1  0.1503263E-008  0.3857613E+03  0.7957747E-01  0.3426450E+00
         13   -1    0    0    0    0  0.00000000000E+00  0.00000000000E+00  0.14999999963E+04  0.15000000000E+04  0.10566000000E+00 0.  1.
        994   -1    0    0    0    0 -0.00000000000E+00 -0.00000000000E+00  0.11368683772E-12  0.17120000000E+03  0.17120000000E+03 0.  0.
         13    1    1    2    0    0  0.91452495370E+01  0.72105193020E+01  0.56512617256E+02  0.57700210145E+02  0.10566000000E+00 0.  1.
        994    1    1    2    0    0 -0.57523405377E+00 -0.35448095145E+01  0.12949361493E+01  0.17124255729E+03  0.17120000000E+03 0.  0.
        998    1    1    2    0    0 -0.85700154832E+01 -0.36657097875E+01  0.14421924429E+04  0.14422572326E+04  0.10000000000E+02 0.  1.
</event>
<event>
 5    1  0.1503263E-008  0.3785960E+03  0.7957747E-01  0.3457295E+00
         13   -1    0    0    0    0  0.00000000000E+00  0.00000000000E+00  0.14999999963E+04  0.15000000000E+04  0.10566000000E+00 0.  1.
        994   -1    0    0    0    0 -0.00000000000E+00 -0.00000000000E+00  0.11368683772E-12  0.17120000000E+03  0.17120000000E+03 0.  0.
         13    1    1    2    0    0 -0.39817230440E+02 -0.70544104701E+01  0.15368428316E+03  0.15891521828E+03  0.10566000000E+00 0.  1.
        994    1    1    2    0    0  0.38149350148E+02  0.20328208177E+01  0.97609758358E+01  0.17568216166E+03  0.17120000000E+03 0.  0.
        998    1    1    2    0    0  0.16678802925E+01  0.50215896524E+01  0.13365547373E+04  0.13366026201E+04  0.10000000000E+02 0.  1.
</event>
<event>
 5    1  0.1503263E-008  0.3847856E+03  0.7957747E-01  0.3430582E+00
         13   -1    0    0    0    0  0.00000000000E+00  0.00000000000E+00  0.14999999963E+04  0.15000000000E+04  0.10566000000E+00 0. -1.
        994   -1    0    0    0    0 -0.00000000000E+00 -0.00000000000E+00  0.11368683772E-12  0.17120000000E+03  0.17120000000E+03 0.  0.
         13    1    1    2    0    0  0.12045729794E+02 -0.75522414364E+01  0.59669463727E+02  0.61339970839E+02  0.10566000000E+00 0. -1.
        994    1    1    2    0    0 -0.10498021641E+02 -0.73249732058E+01  0.22760499608E+01  0.17169299373E+03  0.17120000000E+03 0.  0.
        998    1    1    2    0    0 -0.15477081525E+01  0.14877214642E+02  0.14380544826E+04  0.14381670354E+04  0.10000000000E+02 0. -1.
</event>
<event>
 5    1  0.1503263E-008  0.3860969E+03  0.7957747E-01  0.3425034E+00
         13   -1    0    0    0    0  0.00000000000E+00  0.00000000000E+00  0.14999999963E+04  0.15000000000E+04  0.10566000000E+00 0.  1.
        994   -1    0    0    0    0 -0.00000000000E+00 -0.00000000000E+00  0.11368683772E-12  0.17120000000E+03  0.17120000000E+03 0.  0.
         13    1    1    2    0    0 -0.10954045851E+02  0.50189872066E+01  0.67244486504E+02  0.68315543490E+02  0.10566000000E+00 0.  1.
        994    1    1    2    0    0  0.89333270809E+01 -0.18158442168E+01  0.13589109726E+01  0.17144791705E+03  0.17120000000E+03 0.  0.
        998    1    1    2    0    0  0.20207187705E+01 -0.32031429898E+01  0.14313965988E+04  0.14314365395E+04  0.10000000000E+02 0.  1.
</event>
<event>
 5    1  0.1503263E-008  0.3824316E+03  0.7957747E-01  0.3440639E+00
         13   -1    0    0    0    0  0.00000000000E+00  0.00000000000E+00  0.14999999963E+04  0.15000000000E+04  0.10566000000E+00 0. -1.
        994   -1    0    0    0    0 -0.00000000000E+00 -0.00000000000E+00  0.11368683772E-12  0.17120000000E+03  0.17120000000E+03 0.  0.
         13    1    1    2    0    0  0.73182576935E+01 -0.77889842006E+01  0.18626233306E+02  0.21474936594E+02  0.10566000000E+00 0. -1.
        994    1    1    2    0    0  0.49795469218E+01  0.11318446997E+02  0.34179139437E+01  0.17168000835E+03  0.17120000000E+03 0.  0.
        998    1    1    2    0    0 -0.12297804615E+02 -0.35294627962E+01  0.14779558490E+04  0.14780450551E+04  0.10000000000E+02 0. -1.
</event>
<event>
 5    1  0.1503263E-008  0.3745307E+03  0.7957747E-01  0.3475324E+00
         13   -1    0    0    0    0  0.00000000000E+00  0.00000000000E+00  0.14999999963E+04  0.15000000000E+04  0.10566000000E+00 0. -1.
        994   -1    0    0    0    0 -0.00000000000E+00 -0.00000000000E+00  0.11368683772E-12  0.17120000000E+03  0.17120000000E+03 0.  0.
         13    1    1    2    0    0  0.44730427930E+02 -0.34838514738E+02  0.21944644234E+03  0.22665234504E+03  0.10566000000E+00 0. -1.
        994    1    1    2    0    0 -0.24328607653E+02  0.34721030954E+02  0.13064111581E+02  0.17685457911E+03  0.17120000000E+03 0.  0.
        998    1    1    2    0    0 -0.20401820277E+02  0.11748378415E+00  0.12674894424E+04  0.12676930758E+04  0.10000000000E+02 0. -1.
</event>
<event>
 5    1  0.1503263E-008  0.3848340E+03  0.7957747E-01  0.3430377E+00
         13   -1    0    0    0    0  0.00000000000E+00  0.00000000000E+00  0.14999999963E+04  0.15000000000E+04  0.10566000000E+00 0.  1.
        994   -1    0    0    0    0 -0.00000000000E+00 -0.00000000000E+00  0.11368683772E-12  0.17120000000E+03  0.17120000000E+03 0.  0.
         13    1    1    2    0    0 -0.10635266840E+02  0.24180609794E+01  0.34014420650E+02  0.35720412873E+02  0.10566000000E+00 0.  1.
        994    1    1    2    0    0  0.98321134700E+01 -0.35132268225E+01  0.20713644145E+01  0.17153059135E+03  0.17120000000E+03 0.  0.
        998    1    1    2    0    0  0.80315336971E+00  0.10951658430E+01  0.14639142112E+04  0.14639489958E+04  0.10000000000E+02 0.  1.
</event>
<event>
 5    1  0.1503263E-008  0.3812033E+03  0.7957747E-01  0.3445936E+00
         13   -1    0    0    0    0  0.00000000000E+00  0.00000000000E+00  0.14999999963E+04  0.15000000000E+04  0.10566000000E+00 0.  1.
        994   -1    0    0    0    0 -0.00000000000E+00 -0.00000000000E+00  0.11368683772E-12  0.17120000000E+03  0.17120000000E+03 0.  0.
         13    1    1    2    0    0 -0.24729115149E+02 -0.10647222115E+02  0.10115213008E+03  0.10467405150E+03  0.10566000000E+00 0.  1.
        994    1    1    2    0    0  0.13420902554E+02  0.12419488052E+02  0.46410662251E+01  0.17223630223E+03  0.17120000000E+03 0.  0.
        998    1    1    2    0    0  0.11308212595E+02 -0.17722659367E+01  0.13942068000E+04  0.13942896463E+04  0.10000000000E+02 0.  1.
</event>
<event>
 5    1  0.1503263E-008  0.3787845E+03  0.7957747E-01  0.3456468E+00
         13   -1    0    0    0    0  0.00000000000E+00  0.00000000000E+00  0.14999999963E+04  0.15000000000E+04  0.10566000000E+00 0.  1.
        994   -1    0    0    0    0 -0.00000000000E+00 -0.00000000000E+00  0.11368683772E-12  0.17120000000E+03  0.17120000000E+03 0.  0.
         13    1    1    2    0    0 -0.13203342408E+02 -0.50831987631E+00  0.16235180101E+02  0.20932722632E+02  0.10566000000E+00 0.  1.
        994    1    1    2    0    0  0.12075950074E+02 -0.12567707840E+01  0.52428733359E+01  0.17171003396E+03  0.17120000000E+03 0.  0.
        998    1    1    2    0    0  0.11273923341E+01  0.17650906603E+01  0.14785219428E+04  0.14785572434E+04  0.10000000000E+02 0.  1.
</event>
<event>
 5    1  0.1503263E-008  0.3746285E+03  0.7957747E-01  0.3474886E+00
         13   -1    0    0    0    0  0.00000000000E+00  0.00000000000E+00  0.14999999963E+04  0.15000000000E+04  0.10566000000E+00 0. -1.
        994   -1    0    0    0    0 -0.00000000000E+00 -0.00000000000E+00  0.11368683772E-12  0.17120000000E+03  0.17120000000E+03 0.  0.
         13    1    1    2    0    0 -0.20364575912E+02 -0.15633310683E+02  0.18734295014E+02  0.31782091320E+02  0.10566000000E+00 0. -1.
        994    1    1    2    0    0  0.20066560694E+02  0.12346508602E+02  0.15382486730E+02  0.17349687038E+03  0.17120000000E+03 0.  0.
        998    1    1    2    0    0  0.29801521866E+00  0.32868020811E+01  0.14658832145E+04  0.14659210383E+04  0.10000000000E+02 0. -1.
</event>
<event>
 5    1  0.1503263E-008  0.3854509E+03  0.7957747E-01  0.3427762E+00
         13   -1    0    0    0    0  0.00000000000E+00  0.00000000000E+00  0.14999999963E+04  0.15000000000E+04  0.10566000000E+00 0.  1.
        994   -1    0    0    0    0 -0.00000000000E+00 -0.00000000000E+00  0.11368683772E-12  0.17120000000E+03  0.17120000000E+03 0.  0.
         13    1    1    2    0    0  0.13245505582E+02 -0.82489390711E+01  0.91569464749E+02  0.92889538982E+02  0.10566000000E+00 0.  1.
        994    1    1    2    0    0 -0.65687615478E+01 -0.32983505254E+01  0.15838792060E+01  0.17136503849E+03  0.17120000000E+03 0.  0.
        998    1    1    2    0    0 -0.66767440337E+01  0.11547289597E+02  0.14068466523E+04  0.14069454225E+04  0.10000000000E+02 0.  1.
</event>
<event>
 5    1  0.1503263E-008  0.3839753E+03  0.7957747E-01  0.3434030E+00
         13   -1    0    0    0    0  0.00000000000E+00  0.00000000000E+00  0.14999999963E+04  0.15000000000E+04  0.10566000000E+00 0. -1.
        994   -1    0    0    0    0 -0.00000000000E+00 -0.00000000000E+00  0.11368683772E-12  0.17120000000E+03  0.17120000000E+03 0.  0.
         13    1    1    2    0    0 -0.75545839063E+01  0.79618305749E+01  0.28154435480E+02  0.30218303813E+02  0.10566000000E+00 0. -1.
        994    1    1    2    0    0  0.54680194393E+00 -0.17912546647E+01  0.21513039909E+01  0.17122375914E+03  0.17120000000E+03 0.  0.
        998    1    1    2    0    0  0.70077819624E+01 -0.61705759102E+01  0.14696942568E+04  0.14697579370E+04  0.10000000000E+02 0. -1.
</event>
<event>
 5    1  0.1503263E-008  0.3844077E+03  0.7957747E-01  0.3432188E+00
         13   -1    0    0    0    0  0.00000000000E+00  0.00000000000E+00  0.14999999963E+04  0.15000000000E+04  0.10566000000E+00 0.  1.
        994   -1    0    0    0    0 -0.00000000000E+00 -0.00000000000E+00  0.11368683772E-12  0.17120000000E+03  0.17120000000E+03 0.  0.
         13    1    1    2    0    0 -0.52784322586E+01 -0.14146034695E+02  0.61808090045E+02  0.63625649731E+02  0.10566000000E+00 0.  1.
        994    1    1    2    0    0 -0.17709171220E+01  0.25019413596E+01  0.19554717068E+01  0.17123860466E+03  0.17120000000E+03 0.  0.
        998    1    1    2    0    0  0.70493493806E+01  0.11644093335E+02  0.14362364345E+04  0.14363357456E+04  0.10000000000E+02 0.  1.
</event>
<event>
 5    1  0.1503263E-008  0.3858980E+03  0.7957747E-01  0.3425873E+00
         13   -1    0    0    0    0  0.00000000000E+00  0.00000000000E+00  0.14999999963E+04  0.15000000000E+04  0.10566000000E+00 0. -1.
        994   -1    0    0    0    0 -0.00000000000E+00 -0.00000000000E+00  0.11368683772E-12  0.17120000000E+03  0.17120000000E+03 0.  0.
         13    1    1    2    0    0 -0.27140007938E+01  0.13626752824E+02  0.80217518430E+02  0.81412011521E+02  0.10566000000E+00 0. -1.
        994    1    1    2    0    0  0.18110337648E+02 -0.92761631539E+01  0.25438006516E+01  0.17242372938E+03  0.17120000000E+03 0.  0.
        998    1    1    2    0    0 -0.15396336854E+02 -0.43505896698E+01  0.14172386772E+04  0.14173642591E+04  0.10000000000E+02 0. -1.
</event>
<event>
 5    1  0.1503263E-008  0.3818499E+03  0.7957747E-01  0.3443143E+00
         13   -1    0    0    0    0  0.00000000000E+00  0.00000000000E+00  0.14999999963E+04  0.15000000000E+04  0.10566000000E+00 0. -1.
        994   -1    0    0    0    0 -0.00000000000E+00 -0.00000000000E+00  0.11368683772E-12  0.17120000000E+03  0.17120000000E+03 0.  0.
         13    1    1    2    0    0  0.10432364388E+02  0.33706082316E+01  0.17960544182E+02  0.21042517385E+02  0.10566000000E+00 0. -1.
        994    1    1    2    0    0  0.85464848485E+00  0.43356211598E+01  0.32671170851E+01  0.17128818432E+03  0.17120000000E+03 0.  0.
        998    1    1    2    0    0 -0.11287012873E+02 -0.77062293914E+01  0.14787723350E+04  0.14788692983E+04  0.10000000000E+02 0. -1.
</event>
<event>
 5    1  0.1503263E-008  0.3844101E+03  0.7957747E-01  0.3432178E+00
         13   -1    0    0    0    0  0.00000000000E+00  0.00000000000E+00  0.14999999963E+04  0.15000000000E+04  0.10566000000E+00 0.  1.
        994   -1    0    0    0    0 -0.00000000000E+00 -0.00000000000E+00  0.11368683772E-12  0.17120000000E+03  0.17120000000E+03 0.  0.
         13    1    1    2    0    0 -0.17143041680E+02  0.39854600939E+01  0.74678570849E+02  0.76724623677E+02  0.10566000000E+00 0.  1.
        994    1    1    2    0    0  0.22952789734E+02 -0.29575486160E+01  0.36899711140E+01  0.17279650904E+03  0.17120000000E+03 0.  0.
        998    1    1    2    0    0 -0.58097480546E+01 -0.10279114778E+01  0.14216314543E+04  0.14216788673E+04  0.10000000000E+02 0.  1.
</event>
<event>
 5    1  0.1503263E-008  0.3740478E+03  0.7957747E-01  0.3477492E+00
         13   -1    0    0    0    0  0.00000000000E+00  0.00000000000E+00  0.14999999963E+04  0.15000000000E+04  0.10566000000E+00 0. -1.
        994   -1    0    0    0    0 -0.00000000000E+00 -0.00000000000E+00  0.11368683772E-12  0.17120000000E+03  0.17120000000E+03 0.  0.
         13    1    1    2    0    0  0.90708921029E+01  0.12980715639E+02  0.14157071666E+02  0.21241796163E+02  0.10566000000E+00 0. -1.
        994    1    1    2    0    0 -0.13896375239E+02 -0.10940070575E+02  0.82358980497E+01  0.17230805090E+03  0.17120000000E+03 0.  0.
        998    1    1    2    0    0  0.48254831366E+01 -0.20406450636E+01  0.14776070266E+04  0.14776501529E+04  0.10000000000E+02 0. -1.
</event>
<event>
 5    1  0.1503263E-008  0.3842176E+03  0.7957747E-01  0.3432997E+00
         13   -1    0    0    0    0  0.00000000000E+00  0.00000000000E+00  0.14999999963E+04  0.15000000000E+04  0.10566000000E+00 0.  1.
        994   -1    0    0    0    0 -0.00000000000E+00 -0.00000000000E+00  0.11368683772E-12  0.17120000000E+03  0.17120000000E+03 0.  0.
         13    1    1    2    0    0 -0.55846730515E+01 -0.21173977348E+02  0.11389331382E+03  0.11597941191E+03  0.10566000000E+00 0.  1.
        994    1    1    2    0    0  0.12774279937E+02  0.16119788394E+02  0.34150565498E+01  0.17246487299E+03  0.17120000000E+03 0.  0.
        998    1    1    2    0    0 -0.71896068854E+01  0.50541889545E+01  0.13826916259E+04  0.13827557151E+04  0.10000000000E+02 0.  1.
</event>
<event>
 5    1  0.1503263E-008  0.3805683E+03  0.7957747E-01  0.3448688E+00
         13   -1    0    0    0    0  0.00000000000E+00  0.00000000000E+00  0.14999999963E+04  0.15000000000E+04  0.10566000000E+00 0.  1.
        994   -1    0    0    0    0 -0.00000000000E+00 -0.00000000000E+00  0.11368683772E-12  0.17120000000E+03  0.17120000000E+03 0.  0.
         13    1    1    2    0    0 -0.47672683009E+02 -0.28696422180E+02  0.30568733251E+03  0.31071035672E+03  0.10566000000E+00 0.  1.
        994    1    1    2    0    0  0.47845631152E+02  0.38669896656E+02  0.16579210321E+02  0.18267149625E+03  0.17120000000E+03 0.  0.
        998    1    1    2    0    0 -0.17294814295E+00 -0.99734744755E+01  0.11777334534E+04  0.11778181470E+04  0.10000000000E+02 0.  1.
</event>
<event>
 5    1  0.1503263E-008  0.3829353E+03  0.7957747E-01  0.3438476E+00
         13   -1    0    0    0    0  0.00000000000E+00  0.00000000000E+00  0.14999999963E+04  0.15000000000E+04  0.10566000000E+00 0.  1.
        994   -1    0    0    0    0 -0.00000000000E+00 -0.00000000000E+00  0.11368683772E-12  0.17120000000E+03  0.17120000000E+03 0.  0.
         13    1    1    2    0    0  0.23626323108E+02  0.90792284022E+01  0.13736423172E+03  0.13967669402E+03  0.10566000000E+00 0.  1.
        994    1    1    2    0    0  0.28691452550E+01  0.49089296861E+00  0.26867821922E+01  0.17124582263E+03  0.17120000000E+03 0.  0.
        998    1    1    2    0    0 -0.26495468363E+02 -0.95701213708E+01  0.13599489824E+04  0.13602774834E+04  0.10000000000E+02 0.  1.
</event>
<event>
 5    1  0.1503263E-008  0.3832142E+03  0.7957747E-01  0.3437281E+00
         13   -1    0    0    0    0  0.00000000000E+00  0.00000000000E+00  0.14999999963E+04  0.15000000000E+04  0.10566000000E+00 0. -1.
        994   -1    0    0    0    0 -0.00000000000E+00 -0.00000000000E+00  0.11368683772E-12  0.17120000000E+03  0.17120000000E+03 0.  0.
         13    1    1    2    0    0 -0.10191177329E+02 -0.54481529333E+01  0.25761293803E+02  0.28234692989E+02  0.10566000000E+00 0. -1.
        994    1    1    2    0    0  0.68122997029E+01  0.12988205784E+01  0.26784401168E+01  0.17136133871E+03  0.17120000000E+03 0.  0.
        998    1    1    2    0    0  0.33788776266E+01  0.41493323549E+01  0.14715602624E+04  0.14716039683E+04  0.10000000000E+02 0. -1.
</event>
<event>
 5    1  0.1503263E-008  0.3711154E+03  0.7957747E-01  0.3490780E+00
         13   -1    0    0    0    0  0.00000000000E+00  0.00000000000E+00  0.14999999963E+04  0.15000000000E+04  0.10566000000E+00 0. -1.
        994   -1    0    0    0    0 -0.00000000000E+00 -0.00000000000E+00  0.11368683772E-12  0.17120000000E+03  0.17120000000E+03 0.  0.
         13    1    1    2    0    0  0.28487753186E+02  0.56978175507E+01  0.44754400752E+02  0.53357143450E+02  0.10566000000E+00 0. -1.
        994    1    1    2    0    0 -0.26628982204E+02  0.17774486221E+02  0.12226004944E+02  0.17459653562E+03  0.17120000000E+03 0.  0.
        998    1    1    2    0    0 -0.18587709817E+01 -0.23472303772E+02  0.14430195906E+04  0.14432463209E+04  0.10000000000E+02 0. -1.
</event>
<event>
 5    1  0.1503263E-008  0.3850554E+03  0.7957747E-01  0.3429437E+00
         13   -1    0    0    0    0  0.00000000000E+00  0.00000000000E+00  0.14999999963E+04  0.15000000000E+04  0.10566000000E+00 0.  1.
        994   -1    0    0    0    0 -0.00000000000E+00 -0.00000000000E+00  0.11368683772E-12  0.17120000000E+03  0.17120000000E+03 0.  0.
         13    1    1    2    0    0  0.39722241826E+01 -0.14530630315E+02  0.70344477606E+02  0.71939380565E+02  0.10566000000E+00 0.  1.
        994    1    1    2    0    0 -0.11073503803E+00  0.11363428813E+02  0.20273808030E+01  0.17158872355E+03  0.17120000000E+03 0.  0.
        998    1    1    2    0    0 -0.38614891446E+01  0.31672015014E+01  0.14276281379E+04  0.14276718959E+04  0.10000000000E+02 0.  1.
</event>
<event>
 5    1  0.1503263E-008  0.3830532E+03  0.7957747E-01  0.3437971E+00
         13   -1    0    0    0    0  0.00000000000E+00  0.00000000000E+00  0.14999999963E+04  0.15000000000E+04  0.10566000000E+00 0. -1.
        994   -1    0    0    0    0 -0.00000000000E+00 -0.00000000000E+00  0.11368683772E-12  0.17120000000E+03  0.17120000000E+03 0.  0.
         13    1    1    2    0    0 -0.11913496778E+02  0.63281751005E-02  0.26155454973E+02  0.28741093132E+02  0.10566000000E+00 0. -1.
        994    1    1    2    0    0  0.10857018727E+02  0.14978570371E+01  0.29974152427E+01  0.17157663865E+03  0.17120000000E+03 0.  0.
        998    1    1    2    0    0  0.10564780514E+01 -0.15041852122E+01  0.14708471261E+04  0.14708822682E+04  0.10000000000E+02 0. -1.
</event>
<event>
 5    1  0.1503263E-008  0.3852743E+03  0.7957747E-01  0.3428510E+00
         13   -1    0    0    0    0  0.00000000000E+00  0.00000000000E+00  0.14999999963E+04  0.15000000000E+04  0.10566000000E+00 0.  1.
        994   -1    0    0    0    0 -0.00000000000E+00 -0.00000000000E+00  0.11368683772E-12  0.17120000000E+03  0.17120000000E+03 0.  0.
         13    1    1    2    0    0 -0.18107448937E+02 -0.16359423132E+01  0.10583785041E+03  0.10738816395E+03  0.10566000000E+00 0.  1.
        994    1    1    2    0    0  0.17714980367E+02 -0.46307065362E+01  0.25963548587E+01  0.17219594952E+03  0.17120000000E+03 0.  0.
        998    1    1    2    0    0  0.39246856998E+00  0.62666488494E+01  0.13915657910E+04  0.13916158865E+04  0.10000000000E+02 0.  1.
</event>
<event>
 5    1  0.1503263E-008  0.3757937E+03  0.7957747E-01  0.3469681E+00
         13   -1    0    0    0    0  0.00000000000E+00  0.00000000000E+00  0.14999999963E+04  0.15000000000E+04  0.10566000000E+00 0.  1.
        994   -1    0    0    0    0 -0.00000000000E+00 -0.00000000000E+00  0.11368683772E-12  0.17120000000E+03  0.17120000000E+03 0.  0.
         13    1    1    2    0    0  0.11328053563E+02 -0.69837830336E+01  0.11268550495E+02  0.17438159802E+02  0.10566000000E+00 0.  1.
        994    1    1    2    0    0 -0.12561841238E+02  0.18158733128E+01  0.68180594402E+01  0.17180518964E+03  0.17120000000E+03 0.  0.
        998    1    1    2    0    0  0.12337876752E+01  0.51679097208E+01  0.14819133863E+04  0.14819566506E+04  0.10000000000E+02 0.  1.
</event>
<event>
 5    1  0.1503263E-008  0.3749771E+03  0.7957747E-01  0.3473325E+00
         13   -1    0    0    0    0  0.00000000000E+00  0.00000000000E+00  0.14999999963E+04  0.15000000000E+04  0.10566000000E+00 0. -1.
        994   -1    0    0    0    0 -0.00000000000E+00 -0.00000000000E+00  0.11368683772E-12  0.17120000000E+03  0.17120000000E+03 0.  0.
         13    1    1    2    0    0 -0.91986678852E+01  0.34872831842E+02  0.90412099340E+02  0.97340067611E+02  0.10566000000E+00 0. -1.
        994    1    1    2    0    0  0.31091686086E+01 -0.34427540231E+02  0.10763353711E+02  0.17498632015E+03  0.17120000000E+03 0.  0.
        998    1    1    2    0    0  0.60894992766E+01 -0.44529161115E+00  0.13988245432E+04  0.13988736122E+04  0.10000000000E+02 0. -1.
</event>
<event>
 5    1  0.1503263E-008  0.3805104E+03  0.7957747E-01  0.3448939E+00
         13   -1    0    0    0    0  0.00000000000E+00  0.00000000000E+00  0.14999999963E+04  0.15000000000E+04  0.10566000000E+00 0.  1.
        994   -1    0    0    0    0 -0.00000000000E+00 -0.00000000000E+00  0.11368683772E-12  0.17120000000E+03  0.17120000000E+03 0.  0.
         13    1    1    2    0    0  0.14992226323E+02  0.82778484081E+01  0.36906600847E+02  0.40686582241E+02  0.10566000000E+00 0.  1.
        994    1    1    2    0    0 -0.38452943003E+01 -0.76531611860E+01  0.41205929054E+01  0.17146363011E+03  0.17120000000E+03 0.  0.
        998    1    1    2    0    0 -0.11146932022E+02 -0.62468722217E+00  0.14589728025E+04  0.14590497876E+04  0.10000000000E+02 0.  1.
</event>
<event>
 5    1  0.1503263E-008  0.3859191E+03  0.7957747E-01  0.3425783E+00
         13   -1    0    0    0    0  0.00000000000E+00  0.00000000000E+00  0.14999999963E+04  0.15000000000E+04  0.10566000000E+00 0. -1.
        994   -1    0    0    0    0 -0.00000000000E+00 -0.00000000000E+00  0.11368683772E-12  0.17120000000E+03  0.17120000000E+03 0.  0.
         13    1    1    2    0    0  0.27126300146E+02  0.36851720897E+02  0.50046363834E+02  0.67812500247E+02  0.10566000000E+00 0. -1.
        994    1    1    2    0    0  0.21432115809E+02 -0.16357459236E+02  0.22314289829E+02  0.17474057798E+03  0.17120000000E+03 0.  0.
        998    1    1    2    0    0 -0.48558415956E+02 -0.20494261661E+02  0.14276393426E+04  0.14286469218E+04  0.10000000000E+02 0. -1.
</event>
<event>
 5    1  0.1503263E-008  0.3822057E+03  0.7957747E-01  0.3441610E+00
         13   -1    0    0    0    0  0.00000000000E+00  0.00000000000E+00  0.14999999963E+04  0.15000000000E+04  0.10566000000E+00 0. -1.
        994   -1    0    0    0    0 -0.00000000000E+00 -0.00000000000E+00  0.11368683772E-12  0.17120000000E+03  0.17120000000E+03 0.  0.
         13    1    1    2    0    0  0.47641468104E+00  0.12899493977E+02  0.26165504980E+02  0.29176509913E+02  0.10566000000E+00 0. -1.
        994    1    1    2    0    0  0.16107942247E+01 -0.11974631666E+02  0.35084691830E+01  0.17166169001E+03  0.17120000000E+03 0.  0.
        998    1    1    2    0    0 -0.20872089057E+01 -0.92486231027E+00  0.14703260221E+04  0.14703618001E+04  0.10000000000E+02 0. -1.
</event>
<event>
 5    1  0.1503263E-008  0.3763493E+03  0.7957747E-01  0.3467210E+00
         13   -1    0    0    0    0  0.00000000000E+00  0.00000000000E+00  0.14999999963E+04  0.15000000000E+04  0.10566000000E+00 0.  1.
        994   -1    0    0    0    0 -0.00000000000E+00 -0.00000000000E+00  0.11368683772E-12  0.17120000000E+03  0.17120000000E+03 0.  0.
         13    1    1    2    0    0 -0.24610623843E+02 -0.32193987082E+02  0.13941461932E+03  0.14518465089E+03  0.10566000000E+00 0.  1.
        994    1    1    2    0    0  0.11280142237E+02  0.13997425337E+02  0.70817698026E+01  0.17228685669E+03  0.17120000000E+03 0.  0.
        998    1    1    2    0    0  0.13330481606E+02  0.18196561744E+02  0.13535036072E+04  0.13537284924E+04  0.10000000000E+02 0.  1.
</event>
<event>
 5    1  0.1503263E-008  0.3861067E+03  0.7957747E-01  0.3424992E+00
         13   -1    0    0    0    0  0.00000000000E+00  0.00000000000E+00  0.14999999963E+04  0.15000000000E+04  0.10566000000E+00 0. -1.
        994   -1    0    0    0    0 -0.00000000000E+00 -0.00000000000E+00  0.11368683772E-12  0.17120000000E+03  0.17120000000E+03 0.  0.
         13    1    1    2    0    0  0.75435752222E+01  0.70457568783E+01  0.49287346833E+02  0.50356746707E+02  0.10566000000E+00 0. -1.
        994    1    1    2    0    0 -0.74611363794E+01 -0.50030624176E+01  0.13461452322E+01  0.17144080989E+03  0.17120000000E+03 0.  0.
        998    1    1    2    0    0 -0.82438842807E-01 -0.20426944607E+01  0.14493665042E+04  0.14494024434E+04  0.10000000000E+02 0. -1.
</event>
<event>
 5    1  0.1503263E-008  0.3827561E+03  0.7957747E-01  0.3439245E+00
         13   -1    0    0    0    0  0.00000000000E+00  0.00000000000E+00  0.14999999963E+04  0.15000000000E+04  0.10566000000E+00 0.  1.
        994   -1    0    0    0    0 -0.00000000000E+00 -0.00000000000E+00  0.11368683772E-12  0.17120000000E+03  0.17120000000E+03 0.  0.
         13    1    1    2    0    0 -0.25464417288E+02  0.18505743322E+02  0.16923575893E+03  0.17213846853E+03  0.10566000000E+00 0.  1.
        994    1    1    2    0    0  0.15808836882E+02 -0.22365907095E+02  0.52373240748E+01  0.17345611170E+03  0.17120000000E+03 0.  0.
        998    1    1    2    0    0  0.96555804058E+01  0.38601637726E+01  0.13255269133E+04  0.13256054198E+04  0.10000000000E+02 0.  1.
</event>
<event>
 5    1  0.1503263E-008  0.3845768E+03  0.7957747E-01  0.3431469E+00
         13   -1    0    0    0    0  0.00000000000E+00  0.00000000000E+00  0.14999999963E+04  0.15000000000E+04  0.10566000000E+00 0. -1.
        994   -1    0    0    0    0 -0.00000000000E+00 -0.00000000000E+00  0.11368683772E-12  0.17120000000E+03  0.17120000000E+03 0.  0.
         13    1    1    2    0    0 -0.60998939781E+02  0.53713035872E+00  0.96842922696E+02  0.11445401698E+03  0.10566000000E+00 0. -1.
        994    1    1    2    0    0  0.26154981855E+02  0.14179281129E+01  0.21396811278E+02  0.17450890272E+03  0.17120000000E+03 0.  0.
        998    1    1    2    0    0  0.34843957926E+02 -0.19550584716E+01  0.13817602623E+04  0.13822370803E+04  0.10000000000E+02 0. -1.
</event>
<event>
 5    1  0.1503263E-008  0.3802752E+03  0.7957747E-01  0.3449961E+00
         13   -1    0    0    0    0  0.00000000000E+00  0.00000000000E+00  0.14999999963E+04  0.15000000000E+04  0.10566000000E+00 0.  1.
        994   -1    0    0    0    0 -0.00000000000E+00 -0.00000000000E+00  0.11368683772E-12  0.17120000000E+03  0.17120000000E+03 0.  0.
         13    1    1    2    0    0  0.47983031350E+02 -0.28420055389E+01  0.25371223795E+03  0.25822540375E+03  0.10566000000E+00 0.  1.
        994    1    1    2    0    0 -0.42078558209E+02  0.84110509957E+01  0.10168818324E+02  0.17678856215E+03  0.17120000000E+03 0.  0.
        998    1    1    2    0    0 -0.59044731413E+01 -0.55690454568E+01  0.12361189400E+04  0.12361860341E+04  0.10000000000E+02 0.  1.
</event>
<event>
 5    1  0.1503263E-008  0.3840720E+03  0.7957747E-01  0.3433617E+00
         13   -1    0    0    0    0  0.00000000000E+00  0.00000000000E+00  0.14999999963E+04  0.15000000000E+04  0.10566000000E+00 0.  1.
        994   -1    0    0    0    0 -0.00000000000E+00 -0.00000000000E+00  0.11368683772E-12  0.17120000000E+03  0.17120000000E+03 0.  0.
         13    1    1    2    0    0  0.22405876415E+01  0.21587812048E+02  0.10962943214E+03  0.11175722534E+03  0.10566000000E+00 0.  1.
        994    1    1    2    0    0 -0.43651113988E+01 -0.16331496571E+02  0.30347686593E+01  0.17205935545E+03  0.17120000000E+03 0.  0.
        998    1    1    2    0    0  0.21245237574E+01 -0.52563154775E+01  0.13873357955E+04  0.13873834192E+04  0.10000000000E+02 0.  1.
</event>
<event>
 5    1  0.3381858E-008  0.3864919E+03  0.7957747E-01  0.3423369E+00
         13   -1    0    0    0    0  0.00000000000E+00  0.00000000000E+00  0.14999999963E+04  0.15000000000E+04  0.10566000000E+00 0. -1.
        994   -1    0    0    0    0 -0.00000000000E+00 -0.00000000000E+00  0.11368683772E-12  0.17120000000E+03  0.17120000000E+03 0.  0.
         13    1    1    2    0    0  0.74918772440E+01 -0.69074705675E+01  0.57121631798E+02  0.58023558643E+02  0.10566000000E+00 0. -1.
        994    1    1    2    0    0 -0.10383155500E+02  0.65696053095E+01  0.13854895261E+01  0.17164594144E+03  0.17120000000E+03 0.  0.
        998    1    1    2    0    0  0.28912782558E+01  0.33786525802E+00  0.14414928750E+04  0.14415304999E+04  0.10000000000E+02 0. -1.
</event>
<event>
 5    1  0.1503263E-008  0.3751106E+03  0.7957747E-01  0.3472728E+00
         13   -1    0    0    0    0  0.00000000000E+00  0.00000000000E+00  0.14999999963E+04  0.15000000000E+04  0.10566000000E+00 0. -1.
        994   -1    0    0    0    0 -0.00000000000E+00 -0.00000000000E+00  0.11368683772E-12  0.17120000000E+03  0.17120000000E+03 0.  0.
         13    1    1    2    0    0  0.46873873835E+02 -0.83653570847E+01  0.14887766280E+03  0.15630645826E+03  0.10566000000E+00 0. -1.
        994    1    1    2    0    0 -0.52449631419E+02  0.76524359639E+01  0.16229034263E+02  0.17995095211E+03  0.17120000000E+03 0.  0.
        998    1    1    2    0    0  0.55757575836E+01  0.71292112075E+00  0.13348932992E+04  0.13349425896E+04  0.10000000000E+02 0. -1.
</event>
<event>
 5    1  0.1503263E-008  0.3826187E+03  0.7957747E-01  0.3439835E+00
         13   -1    0    0    0    0  0.00000000000E+00  0.00000000000E+00  0.14999999963E+04  0.15000000000E+04  0.10566000000E+00 0.  1.
        994   -1    0    0    0    0 -0.00000000000E+00 -0.00000000000E+00  0.11368683772E-12  0.17120000000E+03  0.17120000000E+03 0.  0.
         13    1    1    2    0    0  0.17509022647E+02  0.48696393631E+01  0.57843394381E+02  0.60631251836E+02  0.10566000000E+00 0.  1.
        994    1    1    2    0    0 -0.11319387329E+02 -0.20121296977E+01  0.32552243553E+01  0.17161647264E+03  0.17120000000E+03 0.  0.
        998    1    1    2    0    0 -0.61896353184E+01 -0.28575096655E+01  0.14389013775E+04  0.14389522755E+04  0.10000000000E+02 0.  1.
</event>
<event>
 5    1  0.1503263E-008  0.3816061E+03  0.7957747E-01  0.3444195E+00
         13   -1    0    0    0    0  0.00000000000E+00  0.00000000000E+00  0.14999999963E+04  0.15000000000E+04  0.10566000000E+00 0.  1.
        994   -1    0    0    0    0 -0.00000000000E+00 -0.00000000000E+00  0.11368683772E-12  0.17120000000E+03  0.17120000000E+03 0.  0.
         13    1    1    2    0    0 -0.29606487869E+02 -0.16516729592E+02  0.15248132092E+03  0.15620470823E+03  0.10566000000E+00 0.  1.
        994    1    1    2    0    0  0.31657083664E+02  0.19585937269E+02  0.79464243080E+01  0.17538063047E+03  0.17120000000E+03 0.  0.
        998    1    1    2    0    0 -0.20505957947E+01 -0.30692076766E+01  0.13395722511E+04  0.13396146613E+04  0.10000000000E+02 0.  1.
</event>
<event>
 5    1  0.1503263E-008  0.3714414E+03  0.7957747E-01  0.3489293E+00
         13   -1    0    0    0    0  0.00000000000E+00  0.00000000000E+00  0.14999999963E+04  0.15000000000E+04  0.10566000000E+00 0.  1.
        994   -1    0    0    0    0 -0.00000000000E+00 -0.00000000000E+00  0.11368683772E-12  0.17120000000E+03  0.17120000000E+03 0.  0.
         13    1    1    2    0    0  0.95744858911E+01  0.21637697331E+02  0.29025396626E+02  0.37447904336E+02  0.10566000000E+00 0.  1.
        994    1    1    2    0    0  0.11119263842E+01 -0.23228575851E+02  0.10380482212E+02  0.17308378759E+03  0.17120000000E+03 0.  0.
        998    1    1    2    0    0 -0.10686412275E+02  0.15908785199E+01  0.14605941174E+04  0.14606683081E+04  0.10000000000E+02 0.  1.
</event>
<event>
 5    1  0.1503263E-008  0.3725939E+03  0.7957747E-01  0.3484054E+00
         13   -1    0    0    0    0  0.00000000000E+00  0.00000000000E+00  0.14999999963E+04  0.15000000000E+04  0.10566000000E+00 0. -1.
        994   -1    0    0    0    0 -0.00000000000E+00 -0.00000000000E+00  0.11368683772E-12  0.17120000000E+03  0.17120000000E+03 0.  0.
         13    1    1    2    0    0  0.60886298804E+01 -0.96129742904E+02  0.40422758065E+03  0.41554536095E+03  0.10566000000E+00 0. -1.
        994    1    1    2    0    0 -0.51602283890E+01  0.10045796281E+03  0.43433994949E+02  0.20325939626E+03  0.17120000000E+03 0.  0.
        998    1    1    2    0    0 -0.92840149145E+00 -0.43282199070E+01  0.10523384207E+04  0.10523952428E+04  0.10000000000E+02 0.  0.
</event>
<event>
 5    1  0.1503263E-008  0.3825685E+03  0.7957747E-01  0.3440050E+00
         13   -1    0    0    0    0  0.00000000000E+00  0.00000000000E+00  0.14999999963E+04  0.15000000000E+04  0.10566000000E+00 0. -1.
        994   -1    0    0    0    0 -0.00000000000E+00 -0.00000000000E+00  0.11368683772E-12  0.17120000000E+03  0.17120000000E+03 0.  0.
         13    1    1    2    0    0  0.12027757199E+02  0.49653986345E+01  0.29275097020E+02  0.32036925514E+02  0.10566000000E+00 0. -1.
        994    1    1    2    0    0 -0.23482652829E+01 -0.46671082214E+01  0.29326407270E+01  0.17130480621E+03  0.17120000000E+03 0.  0.
        998    1    1    2    0    0 -0.96794919157E+01 -0.29829041305E+00  0.14677922585E+04  0.14678582683E+04  0.10000000000E+02 0. -1.
</event>
<event>
 5    1  0.1503263E-008  0.3859980E+03  0.7957747E-01  0.3425451E+00
         13   -1    0    0    0    0  0.00000000000E+00  0.00000000000E+00  0.14999999963E+04  0.15000000000E+04  0.10566000000E+00 0. -1.
        994   -1    0    0    0    0 -0.00000000000E+00 -0.00000000000E+00  0.11368683772E-12  0.17120000000E+03  0.17120000000E+03 0.  0.
         13    1    1    2    0    0  0.10672400480E+02  0.73679493328E+00  0.51448495829E+02  0.52549042673E+02  0.10566000000E+00 0. -1.
        994    1    1    2    0    0 -0.58898783601E+01  0.30720161129E+00  0.12494864053E+01  0.17130611856E+03  0.17120000000E+03 0.  0.
        998    1    1    2    0    0 -0.47825221200E+01 -0.10439965446E+01  0.14473020140E+04  0.14473448388E+04  0.10000000000E+02 0. -1.
</event>
<event>
 5    1  0.1503263E-008  0.3734914E+03  0.7957747E-01  0.3479997E+00
         13   -1    0    0    0    0  0.00000000000E+00  0.00000000000E+00  0.14999999963E+04  0.15000000000E+04  0.10566000000E+00 0.  1.
        994   -1    0    0    0    0 -0.00000000000E+00 -0.00000000000E+00  0.11368683772E-12  0.17120000000E+03  0.17120000000E+03 0.  0.
         13    1    1    2    0    0  0.38542462609E+01  0.21790774790E+02  0.31961629715E+02  0.38874799270E+02  0.10566000000E+00 0.  1.
        994    1    1    2    0    0  0.13962497717E+02  0.96099147340E+01  0.84376758871E+01  0.17224382769E+03  0.17120000000E+03 0.  0.
        998    1    1    2    0    0 -0.17816743978E+02 -0.31400689524E+02  0.14596006907E+04  0.14600813730E+04  0.10000000000E+02 0.  1.
</event>
<event>
 5    1  0.1503263E-008  0.3821067E+03  0.7957747E-01  0.3442037E+00
         13   -1    0    0    0    0  0.00000000000E+00  0.00000000000E+00  0.14999999963E+04  0.15000000000E+04  0.10566000000E+00 0.  1.
        994   -1    0    0    0    0 -0.00000000000E+00 -0.00000000000E+00  0.11368683772E-12  0.17120000000E+03  0.17120000000E+03 0.  0.
         13    1    1    2    0    0 -0.95406881031E+01  0.11001166056E+02  0.32631955236E+02  0.35733822223E+02  0.10566000000E+00 0.  1.
        994    1    1    2    0    0  0.12245917860E+02 -0.11057572165E+02  0.39777566233E+01  0.17203922505E+03  0.17120000000E+03 0.  0.
        998    1    1    2    0    0 -0.27052297570E+01  0.56406108546E-01  0.14633902844E+04  0.14634269527E+04  0.10000000000E+02 0.  1.
</event>
<event>
 5    1  0.1503263E-008  0.3837871E+03  0.7957747E-01  0.3434833E+00
         13   -1    0    0    0    0  0.00000000000E+00  0.00000000000E+00  0.14999999963E+04  0.15000000000E+04  0.10566000000E+00 0.  1.
        994   -1    0    0    0    0 -0.00000000000E+00 -0.00000000000E+00  0.11368683772E-12  0.17120000000E+03  0.17120000000E+03 0.  0.
         13    1    1    2    0    0  0.20247354108E+02  0.65188460193E+01  0.98918692471E+02  0.10117988726E+03  0.10566000000E+00 0.  1.
        994    1    1    2    0    0 -0.16244066091E+02 -0.20856317257E+01  0.31195760556E+01  0.17200985814E+03  0.17120000000E+03 0.  0.
        998    1    1    2    0    0 -0.40032880179E+01 -0.44332142936E+01  0.13979617278E+04  0.13980102546E+04  0.10000000000E+02 0.  1.
</event>
<event>
 5    1  0.1503263E-008  0.3827356E+03  0.7957747E-01  0.3439333E+00
         13   -1    0    0    0    0  0.00000000000E+00  0.00000000000E+00  0.14999999963E+04  0.15000000000E+04  0.10566000000E+00 0.  1.
        994   -1    0    0    0    0 -0.00000000000E+00 -0.00000000000E+00  0.11368683772E-12  0.17120000000E+03  0.17120000000E+03 0.  0.
         13    1    1    2    0    0 -0.67798566043E+01 -0.10063481603E+02  0.25449269459E+02  0.28194265331E+02  0.10566000000E+00 0.  1.
        994    1    1    2    0    0  0.80352670872E+01  0.81444206928E+01  0.31923224568E+01  0.17161156146E+03  0.17120000000E+03 0.  0.
        998    1    1    2    0    0 -0.12554104829E+01  0.19190609098E+01  0.14713584044E+04  0.14713941732E+04  0.10000000000E+02 0.  1.
</event>
<event>
 5    1  0.1503263E-008  0.3787760E+03  0.7957747E-01  0.3456506E+00
         13   -1    0    0    0    0  0.00000000000E+00  0.00000000000E+00  0.14999999963E+04  0.15000000000E+04  0.10566000000E+00 0.  1.
        994   -1    0    0    0    0 -0.00000000000E+00 -0.00000000000E+00  0.11368683772E-12  0.17120000000E+03  0.17120000000E+03 0.  0.
         13    1    1    2    0    0  0.15153871480E+02  0.87277796708E+01  0.31266558644E+02  0.35824890960E+02  0.10566000000E+00 0.  1.
        994    1    1    2    0    0 -0.37234913238E+01  0.47068975069E+01  0.48732191740E+01  0.17137446583E+03  0.17120000000E+03 0.  0.
        998    1    1    2    0    0 -0.11430380157E+02 -0.13434677178E+02  0.14638602185E+04  0.14640006432E+04  0.10000000000E+02 0.  1.
</event>
<event>
 5    1  0.1503263E-008  0.3739900E+03  0.7957747E-01  0.3477752E+00
         13   -1    0    0    0    0  0.00000000000E+00  0.00000000000E+00  0.14999999963E+04  0.15000000000E+04  0.10566000000E+00 0. -1.
        994   -1    0    0    0    0 -0.00000000000E+00 -0.00000000000E+00  0.11368683772E-12  0.17120000000E+03  0.17120000000E+03 0.  0.
         13    1    1    2    0    0  0.85852126650E+02  0.55707850028E+01  0.40470799427E+03  0.41375136627E+03  0.10566000000E+00 0. -1.
        994    1    1    2    0    0 -0.76206874169E+02 -0.11232126224E+02  0.27714973323E+02  0.18976619319E+03  0.17120000000E+03 0.  0.
        998    1    1    2    0    0 -0.96452524818E+01  0.56613412211E+01  0.10675770287E+04  0.10676824405E+04  0.10000000000E+02 0. -1.
</event>
<event>
 5    1  0.1503263E-008  0.3811526E+03  0.7957747E-01  0.3446155E+00
         13   -1    0    0    0    0  0.00000000000E+00  0.00000000000E+00  0.14999999963E+04  0.15000000000E+04  0.10566000000E+00 0.  1.
        994   -1    0    0    0    0 -0.00000000000E+00 -0.00000000000E+00  0.11368683772E-12  0.17120000000E+03  0.17120000000E+03 0.  0.
         13    1    1    2    0    0  0.31824228001E+02 -0.70218641893E+01  0.14089937285E+03  0.14461926738E+03  0.10566000000E+00 0.  1.
        994    1    1    2    0    0 -0.26236180692E+02  0.71775598247E+01  0.60202213749E+01  0.17345183080E+03  0.17120000000E+03 0.  0.
        998    1    1    2    0    0 -0.55880473097E+01 -0.15569563548E+00  0.13530804021E+04  0.13531289018E+04  0.10000000000E+02 0.  1.
</event>
<event>
 5    1  0.1503263E-008  0.3855844E+03  0.7957747E-01  0.3427198E+00
         13   -1    0    0    0    0  0.00000000000E+00  0.00000000000E+00  0.14999999963E+04  0.15000000000E+04  0.10566000000E+00 0. -1.
        994   -1    0    0    0    0 -0.00000000000E+00 -0.00000000000E+00  0.11368683772E-12  0.17120000000E+03  0.17120000000E+03 0.  0.
         13    1    1    2    0    0  0.10158706912E+02 -0.30869023072E+00  0.38207536524E+02  0.39536332999E+02  0.10566000000E+00 0. -1.
        994    1    1    2    0    0 -0.91213169838E+01  0.20786125218E+01  0.16276156745E+01  0.17146313944E+03  0.17120000000E+03 0.  0.
        998    1    1    2    0    0 -0.10373899280E+01 -0.17699222911E+01  0.14601648441E+04  0.14602005276E+04  0.10000000000E+02 0. -1.
</event>
<event>
 5    1  0.1503263E-008  0.3801807E+03  0.7957747E-01  0.3450372E+00
         13   -1    0    0    0    0  0.00000000000E+00  0.00000000000E+00  0.14999999963E+04  0.15000000000E+04  0.10566000000E+00 0.  1.
        994   -1    0    0    0    0 -0.00000000000E+00 -0.00000000000E+00  0.11368683772E-12  0.17120000000E+03  0.17120000000E+03 0.  0.
         13    1    1    2    0    0 -0.19190236610E+02  0.49621473902E+01  0.45830169294E+02  0.49932991793E+02  0.10566000000E+00 0.  1.
        994    1    1    2    0    0  0.20520677319E+02 -0.23186053459E+01  0.54680741987E+01  0.17252771941E+03  0.17120000000E+03 0.  0.
        998    1    1    2    0    0 -0.13304407089E+01 -0.26435420442E+01  0.14487017528E+04  0.14487392888E+04  0.10000000000E+02 0.  1.
</event>
<event>
 5    1  0.1503263E-008  0.3831008E+03  0.7957747E-01  0.3437767E+00
         13   -1    0    0    0    0  0.00000000000E+00  0.00000000000E+00  0.14999999963E+04  0.15000000000E+04  0.10566000000E+00 0.  1.
        994   -1    0    0    0    0 -0.00000000000E+00 -0.00000000000E+00  0.11368683772E-12  0.17120000000E+03  0.17120000000E+03 0.  0.
         13    1    1    2    0    0 -0.17617220112E+02 -0.13783696615E+02  0.92035500209E+02  0.94714841496E+02  0.10566000000E+00 0.  1.
        994    1    1    2    0    0  0.60214393614E+01  0.27976325924E+02  0.52905828987E+01  0.17365587468E+03  0.17120000000E+03 0.  0.
        998    1    1    2    0    0  0.11595780751E+02 -0.14192629308E+02  0.14026739132E+04  0.14028292838E+04  0.10000000000E+02 0.  1.
</event>
<event>
 5    1  0.1503263E-008  0.3832884E+03  0.7957747E-01  0.3436964E+00
         13   -1    0    0    0    0  0.00000000000E+00  0.00000000000E+00  0.14999999963E+04  0.15000000000E+04  0.10566000000E+00 0.  1.
        994   -1    0    0    0    0 -0.00000000000E+00 -0.00000000000E+00  0.11368683772E-12  0.17120000000E+03  0.17120000000E+03 0.  0.
         13    1    1    2    0    0 -0.57683332364E+00  0.30066344051E+02  0.17749244605E+03  0.18002193574E+03  0.10566000000E+00 0.  1.
        994    1    1    2    0    0  0.68531480241E+01 -0.20230623520E+02  0.39925612467E+01  0.17257353306E+03  0.17120000000E+03 0.  0.
        998    1    1    2    0    0 -0.62763147005E+01 -0.98357205309E+01  0.13185149890E+04  0.13186045312E+04  0.10000000000E+02 0.  1.
</event>
<event>
 5    1  0.1503263E-008  0.3791428E+03  0.7957747E-01  0.3454900E+00
         13   -1    0    0    0    0  0.00000000000E+00  0.00000000000E+00  0.14999999963E+04  0.15000000000E+04  0.10566000000E+00 0.  1.
        994   -1    0    0    0    0 -0.00000000000E+00 -0.00000000000E+00  0.11368683772E-12  0.17120000000E+03  0.17120000000E+03 0.  0.
         13    1    1    2    0    0  0.30222234291E+01 -0.10211996730E+02  0.10380483027E+02  0.14872266256E+02  0.10566000000E+00 0.  1.
        994    1    1    2    0    0 -0.15203310579E+01  0.79248221499E+01  0.47848159761E+01  0.17145684202E+03  0.17120000000E+03 0.  0.
        998    1    1    2    0    0 -0.15018923712E+01  0.22871745798E+01  0.14848346973E+04  0.14848708917E+04  0.10000000000E+02 0.  1.
</event>
<event>
 5    1  0.1503263E-008  0.3775558E+03  0.7957747E-01  0.3461871E+00
         13   -1    0    0    0    0  0.00000000000E+00  0.00000000000E+00  0.14999999963E+04  0.15000000000E+04  0.10566000000E+00 0.  1.
        994   -1    0    0    0    0 -0.00000000000E+00 -0.00000000000E+00  0.11368683772E-12  0.17120000000E+03  0.17120000000E+03 0.  0.
         13    1    1    2    0    0 -0.30260496217E+01  0.14840274688E+02  0.16678894880E+02  0.22529701009E+02  0.10566000000E+00 0.  1.
        994    1    1    2    0    0 -0.26368833783E+01 -0.64326948535E+02  0.19470867306E+02  0.18393875104E+03  0.17120000000E+03 0.  0.
        998    1    1    2    0    0  0.56629330000E+01  0.49486673847E+02  0.14638502341E+04  0.14647315479E+04  0.10000000000E+02 0.  1.
</event>
<event>
 5    1  0.1503263E-008  0.3785274E+03  0.7957747E-01  0.3457595E+00
         13   -1    0    0    0    0  0.00000000000E+00  0.00000000000E+00  0.14999999963E+04  0.15000000000E+04  0.10566000000E+00 0. -1.
        994   -1    0    0    0    0 -0.00000000000E+00 -0.00000000000E+00  0.11368683772E-12  0.17120000000E+03  0.17120000000E+03 0.  0.
         13    1    1    2    0    0  0.17380633214E+02 -0.85371235644E+00  0.30734974643E+02  0.35319471486E+02  0.10566000000E+00 0. -1.
        994    1    1    2    0    0  0.72859867316E+01 -0.81865836605E+00  0.50589340986E+01  0.17143158582E+03  0.17120000000E+03 0.  0.
        998    1    1    2    0    0 -0.24666619945E+02  0.16723707225E+01  0.14642060875E+04  0.14644489427E+04  0.10000000000E+02 0. -1.
</event>
<event>
 5    1  0.1503263E-008  0.3822380E+03  0.7957747E-01  0.3441471E+00
         13   -1    0    0    0    0  0.00000000000E+00  0.00000000000E+00  0.14999999963E+04  0.15000000000E+04  0.10566000000E+00 0. -1.
        994   -1    0    0    0    0 -0.00000000000E+00 -0.00000000000E+00  0.11368683772E-12  0.17120000000E+03  0.17120000000E+03 0.  0.
         13    1    1    2    0    0  0.11344344589E+03 -0.33935436854E+02  0.45927291706E+03  0.47429173807E+03  0.10566000000E+00 0. -1.
        994    1    1    2    0    0 -0.29046455135E+02  0.10844157005E+03  0.65202526697E+02  0.21485827924E+03  0.17120000000E+03 0.  0.
        998    1    1    2    0    0 -0.84396990753E+02 -0.74506133197E+02  0.97552455252E+03  0.98204998269E+03  0.10000000000E+02 0. -1.
</event>
<event>
 5    1  0.1503263E-008  0.3789242E+03  0.7957747E-01  0.3455856E+00
         13   -1    0    0    0    0  0.00000000000E+00  0.00000000000E+00  0.14999999963E+04  0.15000000000E+04  0.10566000000E+00 0. -1.
        994   -1    0    0    0    0 -0.00000000000E+00 -0.00000000000E+00  0.11368683772E-12  0.17120000000E+03  0.17120000000E+03 0.  0.
         13    1    1    2    0    0 -0.44912355666E+02  0.25534866592E+02  0.25603324460E+03  0.26119376449E+03  0.10566000000E+00 0. -1.
        994    1    1    2    0    0  0.40874041254E+02 -0.14218896376E+02  0.10986142308E+02  0.17692653726E+03  0.17120000000E+03 0.  0.
        998    1    1    2    0    0  0.40383144114E+01 -0.11315970216E+02  0.12329806094E+04  0.12330796983E+04  0.10000000000E+02 0. -1.
</event>
<event>
 5    1  0.1503263E-008  0.3850527E+03  0.7957747E-01  0.3429449E+00
         13   -1    0    0    0    0  0.00000000000E+00  0.00000000000E+00  0.14999999963E+04  0.15000000000E+04  0.10566000000E+00 0.  1.
        994   -1    0    0    0    0 -0.00000000000E+00 -0.00000000000E+00  0.11368683772E-12  0.17120000000E+03  0.17120000000E+03 0.  0.
         13    1    1    2    0    0 -0.10441022193E+02  0.72166084091E+01  0.52853058026E+02  0.54355784311E+02  0.10566000000E+00 0.  1.
        994    1    1    2    0    0 -0.17623501602E+01 -0.18757991828E+01  0.16257513845E+01  0.17122706436E+03  0.17120000000E+03 0.  0.
        998    1    1    2    0    0  0.12203372354E+02 -0.53408092263E+01  0.14455211869E+04  0.14456171513E+04  0.10000000000E+02 0.  1.
</event>
<event>
 5    1  0.1503263E-008  0.3822724E+03  0.7957747E-01  0.3441323E+00
         13   -1    0    0    0    0  0.00000000000E+00  0.00000000000E+00  0.14999999963E+04  0.15000000000E+04  0.10566000000E+00 0.  1.
        994   -1    0    0    0    0 -0.00000000000E+00 -0.00000000000E+00  0.11368683772E-12  0.17120000000E+03  0.17120000000E+03 0.  0.
         13    1    1    2    0    0  0.21868034429E+02  0.16153651196E+02  0.11695887692E+03  0.12007723111E+03  0.10566000000E+00 0.  1.
        994    1    1    2    0    0 -0.23290934725E+02 -0.87720877310E+01  0.50483699441E+01  0.17307323075E+03  0.17120000000E+03 0.  0.
        998    1    1    2    0    0  0.14229002969E+01 -0.73815634649E+01  0.13779927494E+04  0.13780495381E+04  0.10000000000E+02 0.  1.
</event>
<event>
 5    1  0.1503263E-008  0.3728239E+03  0.7957747E-01  0.3483013E+00
         13   -1    0    0    0    0  0.00000000000E+00  0.00000000000E+00  0.14999999963E+04  0.15000000000E+04  0.10566000000E+00 0. -1.
        994   -1    0    0    0    0 -0.00000000000E+00 -0.00000000000E+00  0.11368683772E-12  0.17120000000E+03  0.17120000000E+03 0.  0.
         13    1    1    2    0    0  0.25561057850E+02 -0.11653130982E+03  0.58356571451E+03  0.59563568409E+03  0.10566000000E+00 0. -1.
        994    1    1    2    0    0 -0.31848945445E+02  0.10784701762E+03  0.52425741049E+02  0.21143139043E+03  0.17120000000E+03 0.  0.
        998    1    1    2    0    0  0.62878875956E+01  0.86842921996E+01  0.86400854072E+03  0.86413292548E+03  0.10000000000E+02 0.  1.
</event>
<event>
 5    1  0.1503263E-008  0.3858479E+03  0.7957747E-01  0.3426084E+00
         13   -1    0    0    0    0  0.00000000000E+00  0.00000000000E+00  0.14999999963E+04  0.15000000000E+04  0.10566000000E+00 0. -1.
        994   -1    0    0    0    0 -0.00000000000E+00 -0.00000000000E+00  0.11368683772E-12  0.17120000000E+03  0.17120000000E+03 0.  0.
         13    1    1    2    0    0 -0.10047892179E-01  0.16850623426E+02  0.98846609977E+02  0.10027266367E+03  0.10566000000E+00 0. -1.
        994    1    1    2    0    0 -0.22396704971E+02 -0.32410258199E+02  0.63164906930E+01  0.17578787013E+03  0.17120000000E+03 0.  0.
        998    1    1    2    0    0  0.22406752863E+02  0.15559634772E+02  0.13948368956E+04  0.13951394662E+04  0.10000000000E+02 0. -1.
</event>
<event>
 5    1  0.1503263E-008  0.3826662E+03  0.7957747E-01  0.3439631E+00
         13   -1    0    0    0    0  0.00000000000E+00  0.00000000000E+00  0.14999999963E+04  0.15000000000E+04  0.10566000000E+00 0.  1.
        994   -1    0    0    0    0 -0.00000000000E+00 -0.00000000000E+00  0.11368683772E-12  0.17120000000E+03  0.17120000000E+03 0.  0.
         13    1    1    2    0    0 -0.28258978632E+01 -0.11143524380E+02  0.22179152107E+02  0.24981789099E+02  0.10566000000E+00 0.  1.
        994    1    1    2    0    0 -0.91699183331E+01  0.16972346938E+02  0.40274221195E+01  0.17233051991E+03  0.17120000000E+03 0.  0.
        998    1    1    2    0    0  0.11995816196E+02 -0.58288225587E+01  0.14737934221E+04  0.14738876910E+04  0.10000000000E+02 0.  1.
</event>
<event>
 5    1  0.1503263E-008  0.3809048E+03  0.7957747E-01  0.3447228E+00
         13   -1    0    0    0    0  0.00000000000E+00  0.00000000000E+00  0.14999999963E+04  0.15000000000E+04  0.10566000000E+00 0. -1.
        994   -1    0    0    0    0 -0.00000000000E+00 -0.00000000000E+00  0.11368683772E-12  0.17120000000E+03  0.17120000000E+03 0.  0.
         13    1    1    2    0    0  0.62908131989E+01  0.20998722500E+02  0.68477353760E+02  0.71900485530E+02  0.10566000000E+00 0. -1.
        994    1    1    2    0    0  0.74749139823E+01 -0.15116435999E+01  0.38709823595E+01  0.17141348812E+03  0.17120000000E+03 0.  0.
        998    1    1    2    0    0 -0.13765727181E+02 -0.19487078901E+02  0.14276516602E+04  0.14278860263E+04  0.10000000000E+02 0. -1.
</event>
<event>
 5    1  0.1503263E-008  0.3758273E+03  0.7957747E-01  0.3469531E+00
         13   -1    0    0    0    0  0.00000000000E+00  0.00000000000E+00  0.14999999963E+04  0.15000000000E+04  0.10566000000E+00 0.  1.
        994   -1    0    0    0    0 -0.00000000000E+00 -0.00000000000E+00  0.11368683772E-12  0.17120000000E+03  0.17120000000E+03 0.  0.
         13    1    1    2    0    0 -0.12182569542E+01  0.42769608741E+02  0.15418329725E+03  0.16001007436E+03  0.10566000000E+00 0.  1.
        994    1    1    2    0    0 -0.11726702031E+02 -0.13349388386E+02  0.73254186174E+01  0.17227542909E+03  0.17120000000E+03 0.  0.
        998    1    1    2    0    0  0.12944958985E+02 -0.29420220355E+02  0.13384912804E+04  0.13389144966E+04  0.10000000000E+02 0.  1.
</event>
<event>
 5    1  0.1503263E-008  0.3704066E+03  0.7957747E-01  0.3494024E+00
         13   -1    0    0    0    0  0.00000000000E+00  0.00000000000E+00  0.14999999963E+04  0.15000000000E+04  0.10566000000E+00 0.  1.
        994   -1    0    0    0    0 -0.00000000000E+00 -0.00000000000E+00  0.11368683772E-12  0.17120000000E+03  0.17120000000E+03 0.  0.
         13    1    1    2    0    0  0.45078839098E+02 -0.31500644628E+02  0.16175112366E+03  0.17084446001E+03  0.10566000000E+00 0.  1.
        994    1    1    2    0    0 -0.14033196757E+02  0.43054428330E+02  0.16170539261E+02  0.17782446612E+03  0.17120000000E+03 0.  0.
        998    1    1    2    0    0 -0.31045642341E+02 -0.11553783702E+02  0.13220783334E+04  0.13225310739E+04  0.10000000000E+02 0.  1.
</event>
<event>
 5    1  0.1503263E-008  0.3813670E+03  0.7957747E-01  0.3445228E+00
         13   -1    0    0    0    0  0.00000000000E+00  0.00000000000E+00  0.14999999963E+04  0.15000000000E+04  0.10566000000E+00 0. -1.
        994   -1    0    0    0    0 -0.00000000000E+00 -0.00000000000E+00  0.11368683772E-12  0.17120000000E+03  0.17120000000E+03 0.  0.
         13    1    1    2    0    0  0.14400309662E+02  0.23589988984E+02  0.11097695993E+03  0.11436674909E+03  0.10566000000E+00 0. -1.
        994    1    1    2    0    0 -0.32269649828E+01 -0.15443249497E+02  0.42734464505E+01  0.17197851494E+03  0.17120000000E+03 0.  0.
        998    1    1    2    0    0 -0.11173344679E+02 -0.81467394867E+01  0.13847495899E+04  0.13848547360E+04  0.10000000000E+02 0. -1.
</event>
<event>
 5    1  0.1503263E-008  0.3834538E+03  0.7957747E-01  0.3436256E+00
         13   -1    0    0    0    0  0.00000000000E+00  0.00000000000E+00  0.14999999963E+04  0.15000000000E+04  0.10566000000E+00 0.  1.
        994   -1    0    0    0    0 -0.00000000000E+00 -0.00000000000E+00  0.11368683772E-12  0.17120000000E+03  0.17120000000E+03 0.  0.
         13    1    1    2    0    0  0.99595435986E+01 -0.52565639703E+01  0.25535781241E+02  0.27908981728E+02  0.10566000000E+00 0.  1.
        994    1    1    2    0    0 -0.94295613901E+01  0.10079201030E+01  0.26970597808E+01  0.17148366296E+03  0.17120000000E+03 0.  0.
        998    1    1    2    0    0 -0.52998220850E+00  0.42486438673E+01  0.14717671553E+04  0.14718073553E+04  0.10000000000E+02 0.  1.
</event>
<event>
 5    1  0.1503263E-008  0.3836228E+03  0.7957747E-01  0.3435534E+00
         13   -1    0    0    0    0  0.00000000000E+00  0.00000000000E+00  0.14999999963E+04  0.15000000000E+04  0.10566000000E+00 0. -1.
        994   -1    0    0    0    0 -0.00000000000E+00 -0.00000000000E+00  0.11368683772E-12  0.17120000000E+03  0.17120000000E+03 0.  0.
         13    1    1    2    0    0 -0.20458433163E+02 -0.53430234946E+01  0.12388368330E+03  0.12567527020E+03  0.10566000000E+00 0. -1.
        994    1    1    2    0    0 -0.21625278023E+02  0.68302478826E+01  0.40162571611E+01  0.17274222199E+03  0.17120000000E+03 0.  0.
        998    1    1    2    0    0  0.42083711186E+02 -0.14872243880E+01  0.13721000558E+04  0.13727825078E+04  0.10000000000E+02 0. -1.
</event>
<event>
 5    1  0.1503263E-008  0.3827124E+03  0.7957747E-01  0.3439432E+00
         13   -1    0    0    0    0  0.00000000000E+00  0.00000000000E+00  0.14999999963E+04  0.15000000000E+04  0.10566000000E+00 0. -1.
        994   -1    0    0    0    0 -0.00000000000E+00 -0.00000000000E+00  0.11368683772E-12  0.17120000000E+03  0.17120000000E+03 0.  0.
         13    1    1    2    0    0  0.48326626686E+01  0.11505383176E+02  0.26285443621E+02  0.29097494409E+02  0.10566000000E+00 0. -1.
        994    1    1    2    0    0 -0.10534216208E+02 -0.14926067471E+02  0.38767412943E+01  0.17221563902E+03  0.17120000000E+03 0.  0.
        998    1    1    2    0    0  0.57015535390E+01  0.34206842953E+01  0.14698378114E+04  0.14698868666E+04  0.10000000000E+02 0. -1.
</event>
<event>
 5    1  0.1503263E-008  0.3792745E+03  0.7957747E-01  0.3454324E+00
         13   -1    0    0    0    0  0.00000000000E+00  0.00000000000E+00  0.14999999963E+04  0.15000000000E+04  0.10566000000E+00 0.  1.
        994   -1    0    0    0    0 -0.00000000000E+00 -0.00000000000E+00  0.11368683772E-12  0.17120000000E+03  0.17120000000E+03 0.  0.
         13    1    1    2    0    0  0.13571422114E+02 -0.70124621933E+01  0.25405935100E+02  0.29645080984E+02  0.10566000000E+00 0.  1.
        994    1    1    2    0    0 -0.25172948196E+01 -0.23684714296E+02  0.64031295412E+01  0.17296746091E+03  0.17120000000E+03 0.  0.
        998    1    1    2    0    0 -0.11054127294E+02  0.30697176489E+02  0.14681909316E+04  0.14685874581E+04  0.10000000000E+02 0.  1.
</event>
<event>
 5    1  0.1503263E-008  0.3762791E+03  0.7957747E-01  0.3467522E+00
         13   -1    0    0    0    0  0.00000000000E+00  0.00000000000E+00  0.14999999963E+04  0.15000000000E+04  0.10566000000E+00 0. -1.
        994   -1    0    0    0    0 -0.00000000000E+00 -0.00000000000E+00  0.11368683772E-12  0.17120000000E+03  0.17120000000E+03 0.  0.
         13    1    1    2    0    0  0.52506157179E+02 -0.26392173990E+02  0.34608442722E+03  0.35103829608E+03  0.10566000000E+00 0. -1.
        994    1    1    2    0    0  0.94000643365E+00  0.31127828197E+02  0.93128273858E+01  0.17425841172E+03  0.17120000000E+03 0.  0.
        998    1    1    2    0    0 -0.53446163612E+02 -0.47356542072E+01  0.11446027417E+04  0.11459032922E+04  0.10000000000E+02 0. -1.
</event>
<event>
 5    1  0.1503263E-008  0.3830238E+03  0.7957747E-01  0.3438097E+00
         13   -1    0    0    0    0  0.00000000000E+00  0.00000000000E+00  0.14999999963E+04  0.15000000000E+04  0.10566000000E+00 0.  1.
        994   -1    0    0    0    0 -0.00000000000E+00 -0.00000000000E+00  0.11368683772E-12  0.17120000000E+03  0.17120000000E+03 0.  0.
         13    1    1    2    0    0  0.13311797612E+02  0.26324524947E+02  0.14102858622E+03  0.14408073384E+03  0.10566000000E+00 0.  1.
        994    1    1    2    0    0 -0.25207067187E+02 -0.31675758460E+02  0.80575267658E+01  0.17610540494E+03  0.17120000000E+03 0.  0.
        998    1    1    2    0    0  0.11895269575E+02  0.53512335132E+01  0.13509138833E+04  0.13510138612E+04  0.10000000000E+02 0.  1.
</event>
<event>
 5    1  0.1503263E-008  0.3711221E+03  0.7957747E-01  0.3490750E+00
         13   -1    0    0    0    0  0.00000000000E+00  0.00000000000E+00  0.14999999963E+04  0.15000000000E+04  0.10566000000E+00 0.  1.
        994   -1    0    0    0    0 -0.00000000000E+00 -0.00000000000E+00  0.11368683772E-12  0.17120000000E+03  0.17120000000E+03 0.  0.
         13    1    1    2    0    0  0.19145307723E+02  0.76918664607E+01  0.20003748560E+02  0.28737932040E+02  0.10566000000E+00 0.  1.
        994    1    1    2    0    0 -0.29176338415E+02 -0.10782831946E+02  0.12023458358E+02  0.17441769331E+03  0.17120000000E+03 0.  0.
        998    1    1    2    0    0  0.10031030692E+02  0.30909654850E+01  0.14679727894E+04  0.14680443747E+04  0.10000000000E+02 0.  1.
</event>
<event>
 5    1  0.1503263E-008  0.3719751E+03  0.7957747E-01  0.3486863E+00
         13   -1    0    0    0    0  0.00000000000E+00  0.00000000000E+00  0.14999999963E+04  0.15000000000E+04  0.10566000000E+00 0. -1.
        994   -1    0    0    0    0 -0.00000000000E+00 -0.00000000000E+00  0.11368683772E-12  0.17120000000E+03  0.17120000000E+03 0.  0.
         13    1    1    2    0    0 -0.14846251575E+02  0.32813531430E+02  0.47687925817E+02  0.59760258228E+02  0.10566000000E+00 0. -1.
        994    1    1    2    0    0  0.14291567447E+02 -0.35998778953E+02  0.17286629210E+02  0.17637581619E+03  0.17120000000E+03 0.  0.
        998    1    1    2    0    0  0.55468412741E+00  0.31852475227E+01  0.14350254413E+04  0.14350639256E+04  0.10000000000E+02 0. -1.
</event>
<event>
 5    1  0.1503263E-008  0.3740117E+03  0.7957747E-01  0.3477655E+00
         13   -1    0    0    0    0  0.00000000000E+00  0.00000000000E+00  0.14999999963E+04  0.15000000000E+04  0.10566000000E+00 0. -1.
        994   -1    0    0    0    0 -0.00000000000E+00 -0.00000000000E+00  0.11368683772E-12  0.17120000000E+03  0.17120000000E+03 0.  0.
         13    1    1    2    0    0  0.10005492900E+03  0.69054736050E+02  0.61641352875E+03  0.62828750981E+03  0.10566000000E+00 0. -1.
        994    1    1    2    0    0 -0.10645498143E+03 -0.52478946403E+02  0.56864512348E+02  0.21593914803E+03  0.17120000000E+03 0.  0.
        998    1    1    2    0    0  0.64000524291E+01 -0.16575789647E+02  0.82672195518E+03  0.82697334216E+03  0.10000000000E+02 0. -1.
</event>
<event>
 5    1  0.1503263E-008  0.3849652E+03  0.7957747E-01  0.3429820E+00
         13   -1    0    0    0    0  0.00000000000E+00  0.00000000000E+00  0.14999999963E+04  0.15000000000E+04  0.10566000000E+00 0. -1.
        994   -1    0    0    0    0 -0.00000000000E+00 -0.00000000000E+00  0.11368683772E-12  0.17120000000E+03  0.17120000000E+03 0.  0.
         13    1    1    2    0    0 -0.13625771771E+02 -0.11703077979E+02  0.96754081606E+02  0.98407251573E+02  0.10566000000E+00 0. -1.
        994    1    1    2    0    0  0.19859772666E+02 -0.24803786427E+01  0.29659921137E+01  0.17239141498E+03  0.17120000000E+03 0.  0.
        998    1    1    2    0    0 -0.62340008952E+01  0.14183456621E+02  0.14002799226E+04  0.14004013335E+04  0.10000000000E+02 0. -1.
</event>
<event>
 5    1  0.1503263E-008  0.3817250E+03  0.7957747E-01  0.3443682E+00
         13   -1    0    0    0    0  0.00000000000E+00  0.00000000000E+00  0.14999999963E+04  0.15000000000E+04  0.10566000000E+00 0. -1.
        994   -1    0    0    0    0 -0.00000000000E+00 -0.00000000000E+00  0.11368683772E-12  0.17120000000E+03  0.17120000000E+03 0.  0.
         13    1    1    2    0    0 -0.19898755874E+02  0.69867590582E+01  0.68913915122E+02  0.72068815371E+02  0.10566000000E+00 0. -1.
        994    1    1    2    0    0  0.11357081433E+02  0.90525673872E+01  0.39663299884E+01  0.17186071118E+03  0.17120000000E+03 0.  0.
        998    1    1    2    0    0  0.85416744408E+01 -0.16039326445E+02  0.14271197512E+04  0.14272704734E+04  0.10000000000E+02 0. -1.
</event>
<event>
 5    1  0.1503263E-008  0.3844278E+03  0.7957747E-01  0.3432103E+00
         13   -1    0    0    0    0  0.00000000000E+00  0.00000000000E+00  0.14999999963E+04  0.15000000000E+04  0.10566000000E+00 0.  1.
        994   -1    0    0    0    0 -0.00000000000E+00 -0.00000000000E+00  0.11368683772E-12  0.17120000000E+03  0.17120000000E+03 0.  0.
         13    1    1    2    0    0 -0.81666967049E+01  0.95465268194E+01  0.42057164033E+02  0.43893590875E+02  0.10566000000E+00 0.  1.
        994    1    1    2    0    0 -0.23896619456E+00 -0.34434581948E+01  0.19537561763E+01  0.17124593914E+03  0.17120000000E+03 0.  0.
        998    1    1    2    0    0  0.84056628995E+01 -0.61030686246E+01  0.14559890761E+04  0.14560604700E+04  0.10000000000E+02 0.  1.
</event>
<event>
 5    1  0.1503263E-008  0.3743024E+03  0.7957747E-01  0.3476348E+00
         13   -1    0    0    0    0  0.00000000000E+00  0.00000000000E+00  0.14999999963E+04  0.15000000000E+04  0.10566000000E+00 0.  1.
        994   -1    0    0    0    0 -0.00000000000E+00 -0.00000000000E+00  0.11368683772E-12  0.17120000000E+03  0.17120000000E+03 0.  0.
         13    1    1    2    0    0 -0.83441988477E+01  0.59589192327E+02  0.12985770904E+03  0.14312069472E+03  0.10566000000E+00 0.  1.
        994    1    1    2    0    0 -0.68804223539E+00 -0.43800645298E+02  0.20074742681E+02  0.17785220050E+03  0.17120000000E+03 0.  0.
        998    1    1    2    0    0  0.90322410831E+01 -0.15788547029E+02  0.13500675446E+04  0.13502271048E+04  0.10000000000E+02 0.  1.
</event>
<event>
 5    1  0.1815344E-008  0.3859367E+03  0.7957747E-01  0.3425709E+00
         13   -1    0    0    0    0  0.00000000000E+00  0.00000000000E+00  0.14999999963E+04  0.15000000000E+04  0.10566000000E+00 0.  1.
        994   -1    0    0    0    0 -0.00000000000E+00 -0.00000000000E+00  0.11368683772E-12  0.17120000000E+03  0.17120000000E+03 0.  0.
         13    1    1    2    0    0  0.11560729405E+02 -0.46769669175E+01  0.72179688556E+02  0.73249184896E+02  0.10566000000E+00 0.  1.
        994    1    1    2    0    0 -0.68856842030E+00 -0.25238486057E+01  0.11882475131E+01  0.17122411007E+03  0.17120000000E+03 0.  0.
        998    1    1    2    0    0 -0.10872160984E+02  0.72008155232E+01  0.14266320602E+04  0.14267267050E+04  0.10000000000E+02 0.  1.
</event>
<event>
 5    1  0.1503263E-008  0.3797607E+03  0.7957747E-01  0.3452201E+00
         13   -1    0    0    0    0  0.00000000000E+00  0.00000000000E+00  0.14999999963E+04  0.15000000000E+04  0.10566000000E+00 0. -1.
        994   -1    0    0    0    0 -0.00000000000E+00 -0.00000000000E+00  0.11368683772E-12  0.17120000000E+03  0.17120000000E+03 0.  0.
         13    1    1    2    0    0 -0.22954167472E+02 -0.64747314009E+01  0.62962705525E+02  0.67328518491E+02  0.10566000000E+00 0. -1.
        994    1    1    2    0    0  0.22771753350E+02  0.81140188863E+01  0.62115701166E+01  0.17300986578E+03  0.17120000000E+03 0.  0.
        998    1    1    2    0    0  0.18241412150E+00 -0.16392874854E+01  0.14308257206E+04  0.14308616157E+04  0.10000000000E+02 0. -1.
</event>
<event>
 5    1  0.1503263E-008  0.3858858E+03  0.7957747E-01  0.3425924E+00
         13   -1    0    0    0    0  0.00000000000E+00  0.00000000000E+00  0.14999999963E+04  0.15000000000E+04  0.10566000000E+00 0. -1.
        994   -1    0    0    0    0 -0.00000000000E+00 -0.00000000000E+00  0.11368683772E-12  0.17120000000E+03  0.17120000000E+03 0.  0.
         13    1    1    2    0    0 -0.12474010691E+02 -0.15144434943E+01  0.65517477868E+02  0.66711659790E+02  0.10566000000E+00 0. -1.
        994    1    1    2    0    0  0.12609963466E+02 -0.88741425751E+01  0.19710505678E+01  0.17190429496E+03  0.17120000000E+03 0.  0.
        998    1    1    2    0    0 -0.13595277468E+00  0.10388586069E+02  0.14325114678E+04  0.14325840453E+04  0.10000000000E+02 0. -1.
</event>
<event>
 5    1  0.1503263E-008  0.3773840E+03  0.7957747E-01  0.3462629E+00
         13   -1    0    0    0    0  0.00000000000E+00  0.00000000000E+00  0.14999999963E+04  0.15000000000E+04  0.10566000000E+00 0.  1.
        994   -1    0    0    0    0 -0.00000000000E+00 -0.00000000000E+00  0.11368683772E-12  0.17120000000E+03  0.17120000000E+03 0.  0.
         13    1    1    2    0    0  0.68466736121E+02 -0.37306457807E+02  0.39870150668E+03  0.40625406871E+03  0.10566000000E+00 0.  1.
        994    1    1    2    0    0 -0.69705785620E+02  0.38725959393E+02  0.27210779049E+02  0.19081001802E+03  0.17120000000E+03 0.  0.
        998    1    1    2    0    0  0.12390494989E+01 -0.14195015863E+01  0.10740877106E+04  0.10741359133E+04  0.10000000000E+02 0.  1.
</event>
<event>
 5    1  0.1503263E-008  0.3776244E+03  0.7957747E-01  0.3461568E+00
         13   -1    0    0    0    0  0.00000000000E+00  0.00000000000E+00  0.14999999963E+04  0.15000000000E+04  0.10566000000E+00 0. -1.
        994   -1    0    0    0    0 -0.00000000000E+00 -0.00000000000E+00  0.11368683772E-12  0.17120000000E+03  0.17120000000E+03 0.  0.
         13    1    1    2    0    0  0.15994082319E+02  0.44902327492E+02  0.17601304287E+03  0.18235304250E+03  0.10566000000E+00 0. -1.
        994    1    1    2    0    0 -0.26124071427E+02 -0.52162609758E+02  0.16891654838E+02  0.18165399244E+03  0.17120000000E+03 0.  0.
        998    1    1    2    0    0  0.10129989108E+02  0.72602822662E+01  0.13070952986E+04  0.13071929651E+04  0.10000000000E+02 0. -1.
</event>
<event>
 5    1  0.1618036E-008  0.3849508E+03  0.7957747E-01  0.3429881E+00
         13   -1    0    0    0    0  0.00000000000E+00  0.00000000000E+00  0.14999999963E+04  0.15000000000E+04  0.10566000000E+00 0.  1.
        994   -1    0    0    0    0 -0.00000000000E+00 -0.00000000000E+00  0.11368683772E-12  0.17120000000E+03  0.17120000000E+03 0.  0.
         13    1    1    2    0    0 -0.12670462693E+02  0.10308239399E+02  0.74959122689E+02  0.76718196425E+02  0.10566000000E+00 0.  1.
        994    1    1    2    0    0  0.15757595811E+02 -0.14868392681E+02  0.31999470643E+01  0.17259504798E+03  0.17120000000E+03 0.  0.
        998    1    1    2    0    0 -0.30871331175E+01  0.45601532824E+01  0.14218409265E+04  0.14218867556E+04  0.10000000000E+02 0.  1.
</event>
<event>
 5    1  0.1503263E-008  0.3830582E+03  0.7957747E-01  0.3437950E+00
         13   -1    0    0    0    0  0.00000000000E+00  0.00000000000E+00  0.14999999963E+04  0.15000000000E+04  0.10566000000E+00 0.  1.
        994   -1    0    0    0    0 -0.00000000000E+00 -0.00000000000E+00  0.11368683772E-12  0.17120000000E+03  0.17120000000E+03 0.  0.
         13    1    1    2    0    0  0.87028535667E+01 -0.15778370669E+02  0.65196037908E+02  0.67640455085E+02  0.10566000000E+00 0.  1.
        994    1    1    2    0    0  0.11319100582E+02  0.77886133941E+01  0.32223317558E+01  0.17178069728E+03  0.17120000000E+03 0.  0.
        998    1    1    2    0    0 -0.20021954149E+02  0.79897572748E+01  0.14315816266E+04  0.14317788476E+04  0.10000000000E+02 0.  1.
</event>
<event>
 5    1  0.1503263E-008  0.4224871E+03  0.7957747E-01  0.3284745E+00
         13   -1    0    0    0    0  0.00000000000E+00  0.00000000000E+00  0.14999999963E+04  0.15000000000E+04  0.10566000000E+00 0. -1.
        994   -1    0    0    0    0 -0.00000000000E+00 -0.00000000000E+00  0.11368683772E-12  0.17120000000E+03  0.17120000000E+03 0.  0.
         13    1    1    2    0    0 -0.66684210958E+02 -0.23808338307E+02  0.53848893118E+02  0.88956930130E+02  0.10566000000E+00 0. -1.
        994    1    1    2    0    0 -0.13452248606E+02  0.32734159114E+02  0.47396640291E+02  0.18113080819E+03  0.17120000000E+03 0.  0.
        998    1    1    2    0    0  0.80136459564E+02 -0.89258208070E+01  0.13987544629E+04  0.14011122617E+04  0.10000000000E+02 0. -1.
</event>
<event>
 5    1  0.1503263E-008  0.3897225E+03  0.7957747E-01  0.3409887E+00
         13   -1    0    0    0    0  0.00000000000E+00  0.00000000000E+00  0.14999999963E+04  0.15000000000E+04  0.10566000000E+00 0. -1.
        994   -1    0    0    0    0 -0.00000000000E+00 -0.00000000000E+00  0.11368683772E-12  0.17120000000E+03  0.17120000000E+03 0.  0.
         13    1    1    2    0    0 -0.28805481774E+02  0.69868432361E+02  0.11719692728E+03  0.13945065274E+03  0.10566000000E+00 0. -1.
        994    1    1    2    0    0  0.30453978848E+02 -0.63078517641E+02  0.40456819043E+02  0.18934766548E+03  0.17120000000E+03 0.  0.
        998    1    1    2    0    0 -0.16484970740E+01 -0.67899147201E+01  0.13423462500E+04  0.13424016818E+04  0.10000000000E+02 0. -1.
</event>
<event>
 5    1  0.1503263E-008  0.3812426E+03  0.7957747E-01  0.3445766E+00
         13   -1    0    0    0    0  0.00000000000E+00  0.00000000000E+00  0.14999999963E+04  0.15000000000E+04  0.10566000000E+00 0. -1.
        994   -1    0    0    0    0 -0.00000000000E+00 -0.00000000000E+00  0.11368683772E-12  0.17120000000E+03  0.17120000000E+03 0.  0.
         13    1    1    2    0    0  0.24610734251E+02 -0.17515486911E+02  0.12492146912E+03  0.12852184691E+03  0.10566000000E+00 0. -1.
        994    1    1    2    0    0 -0.19445851485E+02  0.12667371993E+02  0.53024049733E+01  0.17284721274E+03  0.17120000000E+03 0.  0.
        998    1    1    2    0    0 -0.51648827658E+01  0.48481149177E+01  0.13697761222E+04  0.13698309404E+04  0.10000000000E+02 0. -1.
</event>
<event>
 5    1  0.1503263E-008  0.3732417E+03  0.7957747E-01  0.3481124E+00
         13   -1    0    0    0    0  0.00000000000E+00  0.00000000000E+00  0.14999999963E+04  0.15000000000E+04  0.10566000000E+00 0.  1.
        994   -1    0    0    0    0 -0.00000000000E+00 -0.00000000000E+00  0.11368683772E-12  0.17120000000E+03  0.17120000000E+03 0.  0.
         13    1    1    2    0    0  0.61790809094E+02 -0.44318176345E+02  0.23594529071E+03  0.24789593828E+03  0.10566000000E+00 0.  1.
        994    1    1    2    0    0 -0.26963970092E+02  0.23212417945E+02  0.17152807266E+02  0.17569727040E+03  0.17120000000E+03 0.  0.
        998    1    1    2    0    0 -0.34826839003E+02  0.21105758399E+02  0.12469018983E+04  0.12476067913E+04  0.10000000000E+02 0.  1.
</event>
<event>
 5    1  0.2071896E-008  0.3861877E+03  0.7957747E-01  0.3424651E+00
         13   -1    0    0    0    0  0.00000000000E+00  0.00000000000E+00  0.14999999963E+04  0.15000000000E+04  0.10566000000E+00 0.  1.
        994   -1    0    0    0    0 -0.00000000000E+00 -0.00000000000E+00  0.11368683772E-12  0.17120000000E+03  0.17120000000E+03 0.  0.
         13    1    1    2    0    0  0.10497838456E+02  0.49273868520E+01  0.66193841202E+02  0.67202079808E+02  0.10566000000E+00 0.  1.
        994    1    1    2    0    0 -0.41809811858E+01 -0.63298178496E+01  0.12301524429E+01  0.17137240289E+03  0.17120000000E+03 0.  0.
        998    1    1    2    0    0 -0.63168572706E+01  0.14024309977E+01  0.14325760026E+04  0.14326255173E+04  0.10000000000E+02 0.  1.
</event>
<event>
 5    1  0.1503263E-008  0.3722962E+03  0.7957747E-01  0.3485404E+00
         13   -1    0    0    0    0  0.00000000000E+00  0.00000000000E+00  0.14999999963E+04  0.15000000000E+04  0.10566000000E+00 0. -1.
        994   -1    0    0    0    0 -0.00000000000E+00 -0.00000000000E+00  0.11368683772E-12  0.17120000000E+03  0.17120000000E+03 0.  0.
         13    1    1    2    0    0  0.34357544701E+02  0.12596967456E+02  0.79931000718E+02  0.87909615553E+02  0.10566000000E+00 0. -1.
        994    1    1    2    0    0 -0.24542877066E+02 -0.10112890264E+01  0.10146416221E+02  0.17325058523E+03  0.17120000000E+03 0.  0.
        998    1    1    2    0    0 -0.98146676350E+01 -0.11585678430E+02  0.14099225793E+04  0.14100397992E+04  0.10000000000E+02 0. -1.
</event>
<event>
 5    1  0.1503263E-008  0.3859606E+03  0.7957747E-01  0.3425609E+00
         13   -1    0    0    0    0  0.00000000000E+00  0.00000000000E+00  0.14999999963E+04  0.15000000000E+04  0.10566000000E+00 0. -1.
        994   -1    0    0    0    0 -0.00000000000E+00 -0.00000000000E+00  0.11368683772E-12  0.17120000000E+03  0.17120000000E+03 0.  0.
         13    1    1    2    0    0  0.49705478587E+00 -0.10608512363E+02  0.49398525694E+02  0.50527350047E+02  0.10566000000E+00 0. -1.
        994    1    1    2    0    0 -0.20403099203E+01  0.70946214092E+01  0.13326703250E+01  0.17136426853E+03  0.17120000000E+03 0.  0.
        998    1    1    2    0    0  0.15432551344E+01  0.35138909533E+01  0.14492688003E+04  0.14493083814E+04  0.10000000000E+02 0. -1.
</event>
<event>
 5    1  0.1503263E-008  0.3755665E+03  0.7957747E-01  0.3470693E+00
         13   -1    0    0    0    0  0.00000000000E+00  0.00000000000E+00  0.14999999963E+04  0.15000000000E+04  0.10566000000E+00 0.  1.
        994   -1    0    0    0    0 -0.00000000000E+00 -0.00000000000E+00  0.11368683772E-12  0.17120000000E+03  0.17120000000E+03 0.  0.
         13    1    1    2    0    0  0.12433481035E+02 -0.22225823327E+01  0.95086736188E+01  0.15810039877E+02  0.10566000000E+00 0.  1.
        994    1    1    2    0    0 -0.14105121452E+02 -0.33250545003E+00  0.70637812950E+01  0.17192557116E+03  0.17120000000E+03 0.  0.
        998    1    1    2    0    0  0.16716404172E+01  0.25550877827E+01  0.14834275414E+04  0.14834643890E+04  0.10000000000E+02 0.  1.
</event>
<event>
 5    1  0.1503263E-008  0.3837220E+03  0.7957747E-01  0.3435110E+00
         13   -1    0    0    0    0  0.00000000000E+00  0.00000000000E+00  0.14999999963E+04  0.15000000000E+04  0.10566000000E+00 0.  1.
        994   -1    0    0    0    0 -0.00000000000E+00 -0.00000000000E+00  0.11368683772E-12  0.17120000000E+03  0.17120000000E+03 0.  0.
         13    1    1    2    0    0 -0.60714860564E+01  0.13009787100E+02  0.42898010178E+02  0.45236798567E+02  0.10566000000E+00 0.  1.
        994    1    1    2    0    0  0.40850340384E+01 -0.19918742239E+02  0.36324848823E+01  0.17244152267E+03  0.17120000000E+03 0.  0.
        998    1    1    2    0    0  0.19864520179E+01  0.69089551389E+01  0.14534695012E+04  0.14535216788E+04  0.10000000000E+02 0.  1.
</event>
<event>
 5    1  0.1503263E-008  0.3704438E+03  0.7957747E-01  0.3493854E+00
         13   -1    0    0    0    0  0.00000000000E+00  0.00000000000E+00  0.14999999963E+04  0.15000000000E+04  0.10566000000E+00 0. -1.
        994   -1    0    0    0    0 -0.00000000000E+00 -0.00000000000E+00  0.11368683772E-12  0.17120000000E+03  0.17120000000E+03 0.  0.
         13    1    1    2    0    0 -0.29039746683E+02 -0.12934922077E+02  0.52728610195E+02  0.61570582210E+02  0.10566000000E+00 0. -1.
        994    1    1    2    0    0  0.18705845202E+02  0.54637280890E+01  0.10349425599E+02  0.17261608146E+03  0.17120000000E+03 0.  0.
        998    1    1    2    0    0  0.10333901481E+02  0.74711939884E+01  0.14369219605E+04  0.14370133363E+04  0.10000000000E+02 0. -1.
</event>
<event>
 5    1  0.1503263E-008  0.3831530E+03  0.7957747E-01  0.3437544E+00
         13   -1    0    0    0    0  0.00000000000E+00  0.00000000000E+00  0.14999999963E+04  0.15000000000E+04  0.10566000000E+00 0. -1.
        994   -1    0    0    0    0 -0.00000000000E+00 -0.00000000000E+00  0.11368683772E-12  0.17120000000E+03  0.17120000000E+03 0.  0.
         13    1    1    2    0    0 -0.16727998265E+02  0.17482712356E+02  0.12108546428E+03  0.12347943950E+03  0.10566000000E+00 0. -1.
        994    1    1    2    0    0 -0.25980385017E+01 -0.11579434169E+02  0.30160103167E+01  0.17163731942E+03  0.17120000000E+03 0.  0.
        998    1    1    2    0    0  0.19326036766E+02 -0.59032781872E+01  0.13758985217E+04  0.13760832411E+04  0.10000000000E+02 0. -1.
</event>
<event>
 5    1  0.1503263E-008  0.3920669E+03  0.7957747E-01  0.3400243E+00
         13   -1    0    0    0    0  0.00000000000E+00  0.00000000000E+00  0.14999999963E+04  0.15000000000E+04  0.10566000000E+00 0.  1.
        994   -1    0    0    0    0 -0.00000000000E+00 -0.00000000000E+00  0.11368683772E-12  0.17120000000E+03  0.17120000000E+03 0.  0.
         13    1    1    2    0    0  0.40607552018E+02  0.11457218258E+03  0.45412292907E+03  0.47010999157E+03  0.10566000000E+00 0.  1.
        994    1    1    2    0    0 -0.63726085421E+02  0.32301187929E+01  0.38730253192E+02  0.18676434387E+03  0.17120000000E+03 0.  0.
        998    1    1    2    0    0  0.23118533404E+02 -0.11780230137E+03  0.10071468140E+04  0.10143256646E+04  0.10000000000E+02 0.  1.
</event>
<event>
 5    1  0.1503263E-008  0.3842149E+03  0.7957747E-01  0.3433009E+00
         13   -1    0    0    0    0  0.00000000000E+00  0.00000000000E+00  0.14999999963E+04  0.15000000000E+04  0.10566000000E+00 0. -1.
        994   -1    0    0    0    0 -0.00000000000E+00 -0.00000000000E+00  0.11368683772E-12  0.17120000000E+03  0.17120000000E+03 0.  0.
         13    1    1    2    0    0  0.21025199550E+02 -0.77148431776E+01  0.53238758601E+01  0.23020265845E+02  0.10566000000E+00 0. -1.
        994    1    1    2    0    0 -0.10738292017E+02  0.16178407459E+02  0.20050918647E+02  0.17346045982E+03  0.17120000000E+03 0.  0.
        998    1    1    2    0    0 -0.10286907533E+02 -0.84635642814E+01  0.14746252018E+04  0.14747192743E+04  0.10000000000E+02 0. -1.
</event>
<event>
 5    1  0.1503263E-008  0.3835959E+03  0.7957747E-01  0.3435649E+00
         13   -1    0    0    0    0  0.00000000000E+00  0.00000000000E+00  0.14999999963E+04  0.15000000000E+04  0.10566000000E+00 0.  1.
        994   -1    0    0    0    0 -0.00000000000E+00 -0.00000000000E+00  0.11368683772E-12  0.17120000000E+03  0.17120000000E+03 0.  0.
         13    1    1    2    0    0  0.18080552083E+02 -0.25768703009E+01  0.74194465673E+02  0.76409269887E+02  0.10566000000E+00 0.  1.
        994    1    1    2    0    0 -0.39680651616E+01  0.21637950958E+01  0.23963573375E+01  0.17127641425E+03  0.17120000000E+03 0.  0.
        998    1    1    2    0    0 -0.14112486921E+02  0.41307520512E+00  0.14234091733E+04  0.14235143159E+04  0.10000000000E+02 0.  1.
</event>
<event>
 5    1  0.1503263E-008  0.3824064E+03  0.7957747E-01  0.3440747E+00
         13   -1    0    0    0    0  0.00000000000E+00  0.00000000000E+00  0.14999999963E+04  0.15000000000E+04  0.10566000000E+00 0.  1.
        994   -1    0    0    0    0 -0.00000000000E+00 -0.00000000000E+00  0.11368683772E-12  0.17120000000E+03  0.17120000000E+03 0.  0.
         13    1    1    2    0    0 -0.14426524475E+02  0.44367580505E+01  0.38405081446E+02  0.41264644374E+02  0.10566000000E+00 0.  1.
        994    1    1    2    0    0  0.57046875952E+01 -0.57022981004E+01  0.31391194325E+01  0.17141865049E+03  0.17120000000E+03 0.  0.
        998    1    1    2    0    0  0.87218368802E+01  0.12655400498E+01  0.14584557954E+04  0.14585167051E+04  0.10000000000E+02 0.  1.
</event>
<event>
 5    1  0.1503263E-008  0.3852914E+03  0.7957747E-01  0.3428437E+00
         13   -1    0    0    0    0  0.00000000000E+00  0.00000000000E+00  0.14999999963E+04  0.15000000000E+04  0.10566000000E+00 0. -1.
        994   -1    0    0    0    0 -0.00000000000E+00 -0.00000000000E+00  0.11368683772E-12  0.17120000000E+03  0.17120000000E+03 0.  0.
         13    1    1    2    0    0 -0.56153383105E+01 -0.17504978596E+02  0.10838073870E+03  0.10992884965E+03  0.10566000000E+00 0. -1.
        994    1    1    2    0    0  0.75068828338E+01  0.16159774078E+02  0.25293802799E+01  0.17214333955E+03  0.17120000000E+03 0.  0.
        998    1    1    2    0    0 -0.18915445234E+01  0.13452045179E+01  0.13890898773E+04  0.13891278108E+04  0.10000000000E+02 0. -1.
</event>
<event>
 5    1  0.1503263E-008  0.3850528E+03  0.7957747E-01  0.3429448E+00
         13   -1    0    0    0    0  0.00000000000E+00  0.00000000000E+00  0.14999999963E+04  0.15000000000E+04  0.10566000000E+00 0.  1.
        994   -1    0    0    0    0 -0.00000000000E+00 -0.00000000000E+00  0.11368683772E-12  0.17120000000E+03  0.17120000000E+03 0.  0.
         13    1    1    2    0    0  0.67059973261E+01  0.10086837498E+02  0.49817361904E+02  0.51268854112E+02  0.10566000000E+00 0.  1.
        994    1    1    2    0    0  0.71041487003E+01  0.37802385867E+01  0.18168827147E+01  0.17139865867E+03  0.17120000000E+03 0.  0.
        998    1    1    2    0    0 -0.13810146026E+02 -0.13867076085E+02  0.14483657517E+04  0.14485324872E+04  0.10000000000E+02 0.  1.
</event>
<event>
 5    1  0.1503263E-008  0.3846325E+03  0.7957747E-01  0.3431232E+00
         13   -1    0    0    0    0  0.00000000000E+00  0.00000000000E+00  0.14999999963E+04  0.15000000000E+04  0.10566000000E+00 0.  1.
        994   -1    0    0    0    0 -0.00000000000E+00 -0.00000000000E+00  0.11368683772E-12  0.17120000000E+03  0.17120000000E+03 0.  0.
         13    1    1    2    0    0 -0.59203939139E+01 -0.11035859019E+02  0.43081112276E+02  0.44864625791E+02  0.10566000000E+00 0.  1.
        994    1    1    2    0    0  0.57161212587E+01  0.60413865103E+01  0.20405121057E+01  0.17141404867E+03  0.17120000000E+03 0.  0.
        998    1    1    2    0    0  0.20427265522E+00  0.49944725087E+01  0.14548783719E+04  0.14549213255E+04  0.10000000000E+02 0.  1.
</event>
<event>
 5    1  0.1503263E-008  0.3715697E+03  0.7957747E-01  0.3488708E+00
         13   -1    0    0    0    0  0.00000000000E+00  0.00000000000E+00  0.14999999963E+04  0.15000000000E+04  0.10566000000E+00 0. -1.
        994   -1    0    0    0    0 -0.00000000000E+00 -0.00000000000E+00  0.11368683772E-12  0.17120000000E+03  0.17120000000E+03 0.  0.
         13    1    1    2    0    0  0.94887399920E+02 -0.56913706114E+02  0.53932049849E+03  0.55055372114E+03  0.10566000000E+00 0. -1.
        994    1    1    2    0    0 -0.98835714678E+02  0.22327171683E+02  0.44632510506E+02  0.20388355031E+03  0.17120000000E+03 0.  0.
        998    1    1    2    0    0  0.39483147581E+01  0.34586534431E+02  0.91604698729E+03  0.91676272856E+03  0.10000000000E+02 0. -1.
</event>
<event>
 5    1  0.1503263E-008  0.3773696E+03  0.7957747E-01  0.3462692E+00
         13   -1    0    0    0    0  0.00000000000E+00  0.00000000000E+00  0.14999999963E+04  0.15000000000E+04  0.10566000000E+00 0.  1.
        994   -1    0    0    0    0 -0.00000000000E+00 -0.00000000000E+00  0.11368683772E-12  0.17120000000E+03  0.17120000000E+03 0.  0.
         13    1    1    2    0    0 -0.22868926967E+02 -0.20346871653E+02  0.80898489145E+02  0.86496009830E+02  0.10566000000E+00 0.  1.
        994    1    1    2    0    0  0.19593922776E+02  0.19001489017E+02  0.79832062646E+01  0.17354581521E+03  0.17120000000E+03 0.  0.
        998    1    1    2    0    0  0.32750041910E+01  0.13453826366E+01  0.14111183009E+04  0.14111581750E+04  0.10000000000E+02 0.  1.
</event>
<event>
 5    1  0.1503263E-008  0.3861149E+03  0.7957747E-01  0.3424958E+00
         13   -1    0    0    0    0  0.00000000000E+00  0.00000000000E+00  0.14999999963E+04  0.15000000000E+04  0.10566000000E+00 0.  1.
        994   -1    0    0    0    0 -0.00000000000E+00 -0.00000000000E+00  0.11368683772E-12  0.17120000000E+03  0.17120000000E+03 0.  0.
         13    1    1    2    0    0 -0.98048912347E+01  0.65805105093E+01  0.62554793142E+02  0.63659660066E+02  0.10566000000E+00 0.  1.
        994    1    1    2    0    0  0.14499025525E+02 -0.38846470356E+01  0.18162715342E+01  0.17186637561E+03  0.17120000000E+03 0.  0.
        998    1    1    2    0    0 -0.46941342905E+01 -0.26958634737E+01  0.14356289316E+04  0.14356739643E+04  0.10000000000E+02 0.  1.
</event>
<event>
 5    1  0.1503263E-008  0.3844201E+03  0.7957747E-01  0.3432135E+00
         13   -1    0    0    0    0  0.00000000000E+00  0.00000000000E+00  0.14999999963E+04  0.15000000000E+04  0.10566000000E+00 0. -1.
        994   -1    0    0    0    0 -0.00000000000E+00 -0.00000000000E+00  0.11368683772E-12  0.17120000000E+03  0.17120000000E+03 0.  0.
         13    1    1    2    0    0 -0.70869297497E+00  0.20890524404E+02  0.10657127469E+03  0.10860186006E+03  0.10566000000E+00 0. -1.
        994    1    1    2    0    0 -0.76813772759E+01 -0.22089997474E+02  0.37225776671E+01  0.17283017425E+03  0.17120000000E+03 0.  0.
        998    1    1    2    0    0  0.83900702509E+01  0.11994730693E+01  0.13897061439E+04  0.13897679657E+04  0.10000000000E+02 0. -1.
</event>
<event>
 5    1  0.1503263E-008  0.3831399E+03  0.7957747E-01  0.3437600E+00
         13   -1    0    0    0    0  0.00000000000E+00  0.00000000000E+00  0.14999999963E+04  0.15000000000E+04  0.10566000000E+00 0. -1.
        994   -1    0    0    0    0 -0.00000000000E+00 -0.00000000000E+00  0.11368683772E-12  0.17120000000E+03  0.17120000000E+03 0.  0.
         13    1    1    2    0    0  0.11875238516E+01 -0.12550984804E+02  0.29937546472E+02  0.32483923489E+02  0.10566000000E+00 0. -1.
        994    1    1    2    0    0  0.24773439425E+00  0.11417189060E+02  0.29880691196E+01  0.17160647463E+03  0.17120000000E+03 0.  0.
        998    1    1    2    0    0 -0.14352582459E+01  0.11337957440E+01  0.14670743807E+04  0.14671096019E+04  0.10000000000E+02 0. -1.
</event>
<event>
 5    1  0.1503263E-008  0.3838038E+03  0.7957747E-01  0.3434761E+00
         13   -1    0    0    0    0  0.00000000000E+00  0.00000000000E+00  0.14999999963E+04  0.15000000000E+04  0.10566000000E+00 0.  1.
        994   -1    0    0    0    0 -0.00000000000E+00 -0.00000000000E+00  0.11368683772E-12  0.17120000000E+03  0.17120000000E+03 0.  0.
         13    1    1    2    0    0 -0.21344421008E+02 -0.29705598169E+01  0.10683577304E+03  0.10898762360E+03  0.10566000000E+00 0.  1.
        994    1    1    2    0    0  0.94144353617E+01  0.67848670687E+00  0.25193689040E+01  0.17147850932E+03  0.17120000000E+03 0.  0.
        998    1    1    2    0    0  0.11929985647E+02  0.22920731100E+01  0.13906448543E+04  0.13907338671E+04  0.10000000000E+02 0.  1.
</event>
<event>
 5    1  0.1503263E-008  0.3867546E+03  0.7957747E-01  0.3422265E+00
         13   -1    0    0    0    0  0.00000000000E+00  0.00000000000E+00  0.14999999963E+04  0.15000000000E+04  0.10566000000E+00 0.  1.
        994   -1    0    0    0    0 -0.00000000000E+00 -0.00000000000E+00  0.11368683772E-12  0.17120000000E+03  0.17120000000E+03 0.  0.
         13    1    1    2    0    0 -0.17052429873E+02  0.14944231015E+02  0.38922628678E+01  0.23006005291E+02  0.10566000000E+00 0.  1.
        994    1    1    2    0    0  0.14557047490E+02 -0.20943812401E+02  0.22508963452E+02  0.17454696888E+03  0.17120000000E+03 0.  0.
        998    1    1    2    0    0  0.24953823828E+01  0.59995813858E+01  0.14735987700E+04  0.14736470258E+04  0.10000000000E+02 0.  1.
</event>
<event>
 5    1  0.1503263E-008  0.3724436E+03  0.7957747E-01  0.3484735E+00
         13   -1    0    0    0    0  0.00000000000E+00  0.00000000000E+00  0.14999999963E+04  0.15000000000E+04  0.10566000000E+00 0.  1.
        994   -1    0    0    0    0 -0.00000000000E+00 -0.00000000000E+00  0.11368683772E-12  0.17120000000E+03  0.17120000000E+03 0.  0.
         13    1    1    2    0    0  0.70446815837E+02 -0.45664777891E+01  0.17398622702E+03  0.18776268249E+03  0.10566000000E+00 0.  1.
        994    1    1    2    0    0 -0.74991083715E+02 -0.77892849296E+01  0.32560993493E+02  0.18987889270E+03  0.17120000000E+03 0.  0.
        998    1    1    2    0    0  0.45442678783E+01  0.12355762719E+02  0.12934527758E+04  0.12935584248E+04  0.10000000000E+02 0.  1.
</event>
<event>
 5    1  0.1503263E-008  0.3842557E+03  0.7957747E-01  0.3432835E+00
         13   -1    0    0    0    0  0.00000000000E+00  0.00000000000E+00  0.14999999963E+04  0.15000000000E+04  0.10566000000E+00 0. -1.
        994   -1    0    0    0    0 -0.00000000000E+00 -0.00000000000E+00  0.11368683772E-12  0.17120000000E+03  0.17120000000E+03 0.  0.
         13    1    1    2    0    0 -0.15242076940E+02  0.12836699204E+02  0.10532886998E+03  0.10719740561E+03  0.10566000000E+00 0. -1.
        994    1    1    2    0    0  0.24073346143E+01 -0.35386862100E+01  0.20604990188E+01  0.17126588457E+03  0.17120000000E+03 0.  0.
        998    1    1    2    0    0  0.12834742325E+02 -0.92980129940E+01  0.13926106273E+04  0.13927367098E+04  0.10000000000E+02 0. -1.
</event>
<event>
 5    1  0.1503263E-008  0.3792906E+03  0.7957747E-01  0.3454253E+00
         13   -1    0    0    0    0  0.00000000000E+00  0.00000000000E+00  0.14999999963E+04  0.15000000000E+04  0.10566000000E+00 0. -1.
        994   -1    0    0    0    0 -0.00000000000E+00 -0.00000000000E+00  0.11368683772E-12  0.17120000000E+03  0.17120000000E+03 0.  0.
         13    1    1    2    0    0  0.13031378728E+02 -0.15342300500E+02  0.41860102671E+02  0.46448706934E+02  0.10566000000E+00 0. -1.
        994    1    1    2    0    0 -0.16434605400E+02  0.17291230160E+02  0.64008622772E+01  0.17297252364E+03  0.17120000000E+03 0.  0.
        998    1    1    2    0    0  0.34032266716E+01 -0.19489296597E+01  0.14517390313E+04  0.14517787694E+04  0.10000000000E+02 0. -1.
</event>
<event>
 5    1  0.1503263E-008  0.3808339E+03  0.7957747E-01  0.3447536E+00
         13   -1    0    0    0    0  0.00000000000E+00  0.00000000000E+00  0.14999999963E+04  0.15000000000E+04  0.10566000000E+00 0. -1.
        994   -1    0    0    0    0 -0.00000000000E+00 -0.00000000000E+00  0.11368683772E-12  0.17120000000E+03  0.17120000000E+03 0.  0.
         13    1    1    2    0    0  0.12592453929E+03 -0.11106770082E+03  0.40752354162E+03  0.44075897256E+03  0.10566000000E+00 0. -1.
        994    1    1    2    0    0 -0.13699247933E+03  0.15744556401E+03  0.19831702787E+03  0.33495541280E+03  0.17120000000E+03 0.  0.
        998    1    1    2    0    0  0.11067940043E+02 -0.46377863192E+02  0.89415942680E+03  0.89548561463E+03  0.10000000000E+02 0. -1.
</event>
<event>
 5    1  0.1503263E-008  0.3852835E+03  0.7957747E-01  0.3428471E+00
         13   -1    0    0    0    0  0.00000000000E+00  0.00000000000E+00  0.14999999963E+04  0.15000000000E+04  0.10566000000E+00 0. -1.
        994   -1    0    0    0    0 -0.00000000000E+00 -0.00000000000E+00  0.11368683772E-12  0.17120000000E+03  0.17120000000E+03 0.  0.
         13    1    1    2    0    0  0.11900146042E+02 -0.47936075696E+01  0.57398938749E+02  0.58815316737E+02  0.10566000000E+00 0. -1.
        994    1    1    2    0    0 -0.30199823689E+01  0.10789563133E+00  0.15194570102E+01  0.17123340995E+03  0.17120000000E+03 0.  0.
        998    1    1    2    0    0 -0.88801636728E+01  0.46857119382E+01  0.14410816005E+04  0.14411512733E+04  0.10000000000E+02 0. -1.
</event>
<event>
 5    1  0.1503263E-008  0.3861356E+03  0.7957747E-01  0.3424870E+00
         13   -1    0    0    0    0  0.00000000000E+00  0.00000000000E+00  0.14999999963E+04  0.15000000000E+04  0.10566000000E+00 0. -1.
        994   -1    0    0    0    0 -0.00000000000E+00 -0.00000000000E+00  0.11368683772E-12  0.17120000000E+03  0.17120000000E+03 0.  0.
         13    1    1    2    0    0  0.60450693846E+01  0.92323516891E+01  0.59605332980E+02  0.60618364092E+02  0.10566000000E+00 0. -1.
        994    1    1    2    0    0 -0.33660943293E+01 -0.18821334156E+01  0.11160966284E+01  0.17124706914E+03  0.17120000000E+03 0.  0.
        998    1    1    2    0    0 -0.26789750553E+01 -0.73502182734E+01  0.14392785667E+04  0.14393345668E+04  0.10000000000E+02 0. -1.
</event>
<event>
 5    1  0.1503263E-008  0.3781087E+03  0.7957747E-01  0.3459435E+00
         13   -1    0    0    0    0  0.00000000000E+00  0.00000000000E+00  0.14999999963E+04  0.15000000000E+04  0.10566000000E+00 0.  1.
        994   -1    0    0    0    0 -0.00000000000E+00 -0.00000000000E+00  0.11368683772E-12  0.17120000000E+03  0.17120000000E+03 0.  0.
         13    1    1    2    0    0 -0.18695210240E+02 -0.29398497711E+02  0.11071399136E+03  0.11606628107E+03  0.10566000000E+00 0.  1.
        994    1    1    2    0    0  0.24884152802E+02  0.23256435576E+02  0.90032981762E+01  0.17478724849E+03  0.17120000000E+03 0.  0.
        998    1    1    2    0    0 -0.61889425618E+01  0.61420621354E+01  0.13802827067E+04  0.13803464704E+04  0.10000000000E+02 0.  1.
</event>
<event>
 5    1  0.1503263E-008  0.3785187E+03  0.7957747E-01  0.3457634E+00
         13   -1    0    0    0    0  0.00000000000E+00  0.00000000000E+00  0.14999999963E+04  0.15000000000E+04  0.10566000000E+00 0. -1.
        994   -1    0    0    0    0 -0.00000000000E+00 -0.00000000000E+00  0.11368683772E-12  0.17120000000E+03  0.17120000000E+03 0.  0.
         13    1    1    2    0    0 -0.45474687030E+01 -0.21593321141E+02  0.48624907802E+02  0.53397975732E+02  0.10566000000E+00 0. -1.
        994    1    1    2    0    0 -0.10082323989E+02  0.13058594066E+02  0.57976393760E+01  0.17209076895E+03  0.17120000000E+03 0.  0.
        998    1    1    2    0    0  0.14629792692E+02  0.85347270747E+01  0.14455774491E+04  0.14457112553E+04  0.10000000000E+02 0. -1.
</event>
<event>
 5    1  0.1503263E-008  0.3859559E+03  0.7957747E-01  0.3425628E+00
         13   -1    0    0    0    0  0.00000000000E+00  0.00000000000E+00  0.14999999963E+04  0.15000000000E+04  0.10566000000E+00 0.  1.
        994   -1    0    0    0    0 -0.00000000000E+00 -0.00000000000E+00  0.11368683772E-12  0.17120000000E+03  0.17120000000E+03 0.  0.
         13    1    1    2    0    0  0.90402661145E+01 -0.76122454942E+01  0.60904331655E+02  0.62040482520E+02  0.10566000000E+00 0.  1.
        994    1    1    2    0    0 -0.48441125504E+01  0.70918252731E+01  0.13981273728E+01  0.17142098522E+03  0.17120000000E+03 0.  0.
        998    1    1    2    0    0 -0.41961535641E+01  0.52042022112E+00  0.14376975373E+04  0.14377385323E+04  0.10000000000E+02 0.  1.
</event>
<event>
 5    1  0.1503263E-008  0.3794215E+03  0.7957747E-01  0.3453681E+00
         13   -1    0    0    0    0  0.00000000000E+00  0.00000000000E+00  0.14999999963E+04  0.15000000000E+04  0.10566000000E+00 0.  1.
        994   -1    0    0    0    0 -0.00000000000E+00 -0.00000000000E+00  0.11368683772E-12  0.17120000000E+03  0.17120000000E+03 0.  0.
         13    1    1    2    0    0 -0.89334025272E+01  0.96161288278E+01  0.17837847500E+02  0.22146683314E+02  0.10566000000E+00 0.  1.
        994    1    1    2    0    0 -0.13279878172E+01 -0.62314781865E+01  0.45614086666E+01  0.17137923247E+03  0.17120000000E+03 0.  0.
        998    1    1    2    0    0  0.10261390344E+02 -0.33846506413E+01  0.14776007401E+04  0.14776740842E+04  0.10000000000E+02 0.  1.
</event>
<event>
 5    1  0.1503263E-008  0.3789980E+03  0.7957747E-01  0.3455533E+00
         13   -1    0    0    0    0  0.00000000000E+00  0.00000000000E+00  0.14999999963E+04  0.15000000000E+04  0.10566000000E+00 0.  1.
        994   -1    0    0    0    0 -0.00000000000E+00 -0.00000000000E+00  0.11368683772E-12  0.17120000000E+03  0.17120000000E+03 0.  0.
         13    1    1    2    0    0  0.12066563655E+02  0.64739345215E+02  0.36060153364E+03  0.36656549484E+03  0.10566000000E+00 0.  1.
        994    1    1    2    0    0 -0.71952802453E+01 -0.64092344257E+02  0.18720086047E+02  0.18390074027E+03  0.17120000000E+03 0.  0.
        998    1    1    2    0    0 -0.48712834096E+01 -0.64700095730E+00  0.11206783766E+04  0.11207337649E+04  0.10000000000E+02 0.  0.
</event>
<event>
 5    1  0.1503263E-008  0.3808645E+03  0.7957747E-01  0.3447403E+00
         13   -1    0    0    0    0  0.00000000000E+00  0.00000000000E+00  0.14999999963E+04  0.15000000000E+04  0.10566000000E+00 0. -1.
        994   -1    0    0    0    0 -0.00000000000E+00 -0.00000000000E+00  0.11368683772E-12  0.17120000000E+03  0.17120000000E+03 0.  0.
         13    1    1    2    0    0  0.57694388882E+00 -0.16883349732E+02  0.40060975120E+02  0.43477272845E+02  0.10566000000E+00 0. -1.
        994    1    1    2    0    0  0.12910451753E+02 -0.88989822137E+01  0.45173929098E+01  0.17197592415E+03  0.17120000000E+03 0.  0.
        998    1    1    2    0    0 -0.13487395642E+02  0.25782331946E+02  0.14554216282E+04  0.14557468030E+04  0.10000000000E+02 0. -1.
</event>
<event>
 5    1  0.1503263E-008  0.3774852E+03  0.7957747E-01  0.3462182E+00
         13   -1    0    0    0    0  0.00000000000E+00  0.00000000000E+00  0.14999999963E+04  0.15000000000E+04  0.10566000000E+00 0. -1.
        994   -1    0    0    0    0 -0.00000000000E+00 -0.00000000000E+00  0.11368683772E-12  0.17120000000E+03  0.17120000000E+03 0.  0.
         13    1    1    2    0    0  0.13908659852E+02 -0.24862580125E+02  0.72134122737E+02  0.77556054157E+02  0.10566000000E+00 0. -1.
        994    1    1    2    0    0 -0.37976690145E+01  0.22060715491E+02  0.70990228639E+01  0.17280316428E+03  0.17120000000E+03 0.  0.
        998    1    1    2    0    0 -0.10110990837E+02  0.28018646345E+01  0.14207668507E+04  0.14208407816E+04  0.10000000000E+02 0. -1.
</event>
<event>
 5    1  0.1503263E-008  0.3766257E+03  0.7957747E-01  0.3465984E+00
         13   -1    0    0    0    0  0.00000000000E+00  0.00000000000E+00  0.14999999963E+04  0.15000000000E+04  0.10566000000E+00 0.  1.
        994   -1    0    0    0    0 -0.00000000000E+00 -0.00000000000E+00  0.11368683772E-12  0.17120000000E+03  0.17120000000E+03 0.  0.
         13    1    1    2    0    0 -0.23198523878E+02  0.14012255962E+02  0.59181712505E+02  0.65092250586E+02  0.10566000000E+00 0.  1.
        994    1    1    2    0    0  0.26442238314E+02 -0.29298303030E+01  0.82427103621E+01  0.17345073695E+03  0.17120000000E+03 0.  0.
        998    1    1    2    0    0 -0.32437144365E+01 -0.11082425659E+02  0.14325755734E+04  0.14326570125E+04  0.10000000000E+02 0.  1.
</event>
<event>
 5    1  0.1503263E-008  0.3851952E+03  0.7957747E-01  0.3428845E+00
         13   -1    0    0    0    0  0.00000000000E+00  0.00000000000E+00  0.14999999963E+04  0.15000000000E+04  0.10566000000E+00 0.  1.
        994   -1    0    0    0    0 -0.00000000000E+00 -0.00000000000E+00  0.11368683772E-12  0.17120000000E+03  0.17120000000E+03 0.  0.
         13    1    1    2    0    0 -0.14239956043E+01 -0.16423951627E+02  0.91382787495E+02  0.92857950467E+02  0.10566000000E+00 0.  1.
        994    1    1    2    0    0  0.29155124443E+01  0.67639145320E+01  0.17115677274E+01  0.17136691693E+03  0.17120000000E+03 0.  0.
        998    1    1    2    0    0 -0.14915168399E+01  0.96600370948E+01  0.14069056411E+04  0.14069751326E+04  0.10000000000E+02 0.  1.
</event>
<event>
 5    1  0.1503263E-008  0.3774469E+03  0.7957747E-01  0.3462351E+00
         13   -1    0    0    0    0  0.00000000000E+00  0.00000000000E+00  0.14999999963E+04  0.15000000000E+04  0.10566000000E+00 0.  1.
        994   -1    0    0    0    0 -0.00000000000E+00 -0.00000000000E+00  0.11368683772E-12  0.17120000000E+03  0.17120000000E+03 0.  0.
         13    1    1    2    0    0  0.33662952503E+02 -0.28232894055E+02  0.17380837419E+03  0.17927535464E+03  0.10566000000E+00 0.  1.
        994    1    1    2    0    0 -0.18504572741E+02  0.20967406902E+02  0.80686262155E+01  0.17365654060E+03  0.17120000000E+03 0.  0.
        998    1    1    2    0    0 -0.15158379762E+02  0.72654871533E+01  0.13181229959E+04  0.13182681048E+04  0.10000000000E+02 0.  1.
</event>
<event>
 5    1  0.1503263E-008  0.3708194E+03  0.7957747E-01  0.3492133E+00
         13   -1    0    0    0    0  0.00000000000E+00  0.00000000000E+00  0.14999999963E+04  0.15000000000E+04  0.10566000000E+00 0.  1.
        994   -1    0    0    0    0 -0.00000000000E+00 -0.00000000000E+00  0.11368683772E-12  0.17120000000E+03  0.17120000000E+03 0.  0.
         13    1    1    2    0    0  0.26081463812E+01  0.96931084250E+01 -0.82344115742E+00  0.10072139686E+02  0.10566000000E+00 0.  1.
        994    1    1    2    0    0  0.29371044631E+02  0.17600366551E+00  0.14403329623E+02  0.17429740430E+03  0.17120000000E+03 0.  0.
        998    1    1    2    0    0 -0.31979191012E+02 -0.98691120905E+01  0.14864201078E+04  0.14868304560E+04  0.10000000000E+02 0.  1.
</event>
<event>
 5    1  0.1503263E-008  0.3684929E+03  0.7957747E-01  0.3502846E+00
         13   -1    0    0    0    0  0.00000000000E+00  0.00000000000E+00  0.14999999963E+04  0.15000000000E+04  0.10566000000E+00 0.  1.
        994   -1    0    0    0    0 -0.00000000000E+00 -0.00000000000E+00  0.11368683772E-12  0.17120000000E+03  0.17120000000E+03 0.  0.
         13    1    1    2    0    0 -0.12168969598E+02 -0.34404766496E+02  0.58021171954E+02  0.68543703851E+02  0.10566000000E+00 0.  1.
        994    1    1    2    0    0  0.20989045910E+02  0.44108415326E+02  0.18398603028E+02  0.17898056024E+03  0.17120000000E+03 0.  0.
        998    1    1    2    0    0 -0.88200763120E+01 -0.97036488302E+01  0.14235802213E+04  0.14236757359E+04  0.10000000000E+02 0.  1.
</event>
<event>
 5    1  0.1503263E-008  0.3836235E+03  0.7957747E-01  0.3435531E+00
         13   -1    0    0    0    0  0.00000000000E+00  0.00000000000E+00  0.14999999963E+04  0.15000000000E+04  0.10566000000E+00 0.  1.
        994   -1    0    0    0    0 -0.00000000000E+00 -0.00000000000E+00  0.11368683772E-12  0.17120000000E+03  0.17120000000E+03 0.  0.
         13    1    1    2    0    0  0.10572568942E+02  0.46616176074E+01  0.28839583275E+02  0.31068354000E+02  0.10566000000E+00 0.  1.
        994    1    1    2    0    0 -0.80898358506E+01  0.15364376397E+02  0.33117166506E+01  0.17211018846E+03  0.17120000000E+03 0.  0.
        998    1    1    2    0    0 -0.24827330913E+01 -0.20025994004E+02  0.14678486964E+04  0.14680214575E+04  0.10000000000E+02 0.  1.
</event>
<event>
 5    1  0.1503263E-008  0.3796468E+03  0.7957747E-01  0.3452698E+00
         13   -1    0    0    0    0  0.00000000000E+00  0.00000000000E+00  0.14999999963E+04  0.15000000000E+04  0.10566000000E+00 0. -1.
        994   -1    0    0    0    0 -0.00000000000E+00 -0.00000000000E+00  0.11368683772E-12  0.17120000000E+03  0.17120000000E+03 0.  0.
         13    1    1    2    0    0 -0.14858087208E+02  0.20394968082E+02  0.76705807245E+02  0.80749671873E+02  0.10566000000E+00 0. -1.
        994    1    1    2    0    0 -0.96702378417E+01 -0.10397361111E+02  0.49866098369E+01  0.17186018997E+03  0.17120000000E+03 0.  0.
        998    1    1    2    0    0  0.24528325050E+02 -0.99976069714E+01  0.14183075792E+04  0.14185901382E+04  0.10000000000E+02 0. -1.
</event>
<event>
 5    1  0.1503263E-008  0.3877173E+03  0.7957747E-01  0.3418229E+00
         13   -1    0    0    0    0  0.00000000000E+00  0.00000000000E+00  0.14999999963E+04  0.15000000000E+04  0.10566000000E+00 0.  1.
        994   -1    0    0    0    0 -0.00000000000E+00 -0.00000000000E+00  0.11368683772E-12  0.17120000000E+03  0.17120000000E+03 0.  0.
         13    1    1    2    0    0  0.81972995535E+02  0.85179119427E+01  0.15176007398E+03  0.17269411698E+03  0.10566000000E+00 0.  1.
        994    1    1    2    0    0 -0.66832100449E+02  0.52071062953E+01  0.37591253771E+02  0.18765976118E+03  0.17120000000E+03 0.  0.
        998    1    1    2    0    0 -0.15140895086E+02 -0.13725018238E+02  0.13106486685E+04  0.13108461218E+04  0.10000000000E+02 0.  1.
</event>
<event>
 5    1  0.1503263E-008  0.3748795E+03  0.7957747E-01  0.3473762E+00
         13   -1    0    0    0    0  0.00000000000E+00  0.00000000000E+00  0.14999999963E+04  0.15000000000E+04  0.10566000000E+00 0.  1.
        994   -1    0    0    0    0 -0.00000000000E+00 -0.00000000000E+00  0.11368683772E-12  0.17120000000E+03  0.17120000000E+03 0.  0.
         13    1    1    2    0    0  0.89307186982E+01  0.15097058641E+03  0.48435107533E+03  0.50741289995E+03  0.10566000000E+00 0.  1.
        994    1    1    2    0    0  0.23509392338E+02 -0.16405108970E+03  0.11888679427E+03  0.26628736623E+03  0.17120000000E+03 0.  0.
        998    1    1    2    0    0 -0.32440111037E+02  0.13080503293E+02  0.89676212668E+03  0.89749973382E+03  0.10000000000E+02 0.  1.
</event>
<event>
 5    1  0.1503263E-008  0.3827062E+03  0.7957747E-01  0.3439459E+00
         13   -1    0    0    0    0  0.00000000000E+00  0.00000000000E+00  0.14999999963E+04  0.15000000000E+04  0.10566000000E+00 0.  1.
        994   -1    0    0    0    0 -0.00000000000E+00 -0.00000000000E+00  0.11368683772E-12  0.17120000000E+03  0.17120000000E+03 0.  0.
         13    1    1    2    0    0  0.49754584068E+01 -0.33649314244E+02  0.17253925383E+03  0.17586027639E+03  0.10566000000E+00 0.  1.
        994    1    1    2    0    0 -0.20882396316E+02  0.41125549577E+02  0.98541397621E+01  0.17757795295E+03  0.17120000000E+03 0.  0.
        998    1    1    2    0    0  0.15906937909E+02 -0.74762353336E+01  0.13176066027E+04  0.13177617707E+04  0.10000000000E+02 0.  1.
</event>
<event>
 5    1  0.1503263E-008  0.3719599E+03  0.7957747E-01  0.3486932E+00
         13   -1    0    0    0    0  0.00000000000E+00  0.00000000000E+00  0.14999999963E+04  0.15000000000E+04  0.10566000000E+00 0.  1.
        994   -1    0    0    0    0 -0.00000000000E+00 -0.00000000000E+00  0.11368683772E-12  0.17120000000E+03  0.17120000000E+03 0.  0.
         13    1    1    2    0    0  0.11652886120E+03  0.21089703424E+03  0.70813138405E+03  0.74800173983E+03  0.10566000000E+00 0.  1.
        994    1    1    2    0    0 -0.13560425801E+03 -0.23482913386E+03  0.32980839104E+03  0.46001766456E+03  0.17120000000E+03 0.  0.
        998    1    1    2    0    0  0.19075396812E+02  0.23932099627E+02  0.46206022118E+03  0.46318059562E+03  0.10000000000E+02 0. -1.
</event>
<event>
 5    1  0.1503263E-008  0.3256219E+03  0.7957747E-01  0.3728537E+00
         13   -1    0    0    0    0  0.00000000000E+00  0.00000000000E+00  0.14999999963E+04  0.15000000000E+04  0.10566000000E+00 0.  1.
        994   -1    0    0    0    0 -0.00000000000E+00 -0.00000000000E+00  0.11368683772E-12  0.17120000000E+03  0.17120000000E+03 0.  0.
         13    1    1    2    0    0 -0.22671285848E+03  0.16217140426E+03  0.38129670130E+03  0.47231924601E+03  0.10566000000E+00 0.  1.
        994    1    1    2    0    0  0.21497034741E+03 -0.16156912101E+03  0.59558822140E+03  0.67553800826E+03  0.17120000000E+03 0.  0.
        998    1    1    2    0    0  0.11742511073E+02 -0.60228325321E+00  0.52311507358E+03  0.52334274573E+03  0.10000000000E+02 0.  1.
</event>
<event>
 5    1  0.1503263E-008  0.3802146E+03  0.7957747E-01  0.3450224E+00
         13   -1    0    0    0    0  0.00000000000E+00  0.00000000000E+00  0.14999999963E+04  0.15000000000E+04  0.10566000000E+00 0. -1.
        994   -1    0    0    0    0 -0.00000000000E+00 -0.00000000000E+00  0.11368683772E-12  0.17120000000E+03  0.17120000000E+03 0.  0.
         13    1    1    2    0    0  0.69847745519E+01 -0.88545785650E+01  0.14190534398E+02  0.18126584555E+02  0.10566000000E+00 0. -1.
        994    1    1    2    0    0 -0.43585322721E+01  0.24271358431E+01  0.41079877570E+01  0.17132192900E+03  0.17120000000E+03 0.  0.
        998    1    1    2    0    0 -0.26262422797E+01  0.64274427219E+01  0.14817014741E+04  0.14817514864E+04  0.10000000000E+02 0. -1.
</event>
<event>
 5    1  0.1503263E-008  0.3849996E+03  0.7957747E-01  0.3429674E+00
         13   -1    0    0    0    0  0.00000000000E+00  0.00000000000E+00  0.14999999963E+04  0.15000000000E+04  0.10566000000E+00 0. -1.
        994   -1    0    0    0    0 -0.00000000000E+00 -0.00000000000E+00  0.11368683772E-12  0.17120000000E+03  0.17120000000E+03 0.  0.
         13    1    1    2    0    0 -0.17432814679E+01 -0.11139997858E+02  0.39742677145E+02  0.41311380191E+02  0.10566000000E+00 0. -1.
        994    1    1    2    0    0 -0.56023113019E+01  0.40567876890E+01  0.17876766596E+01  0.17134899826E+03  0.17120000000E+03 0.  0.
        998    1    1    2    0    0  0.73455927698E+01  0.70832101693E+01  0.14584696425E+04  0.14585396215E+04  0.10000000000E+02 0. -1.
</event>
<event>
 5    1  0.1503263E-008  0.3815080E+03  0.7957747E-01  0.3444618E+00
         13   -1    0    0    0    0  0.00000000000E+00  0.00000000000E+00  0.14999999963E+04  0.15000000000E+04  0.10566000000E+00 0. -1.
        994   -1    0    0    0    0 -0.00000000000E+00 -0.00000000000E+00  0.11368683772E-12  0.17120000000E+03  0.17120000000E+03 0.  0.
         13    1    1    2    0    0 -0.54571264832E+01  0.26931649680E+02  0.10141251881E+03  0.10506952041E+03  0.10566000000E+00 0. -1.
        994    1    1    2    0    0  0.38094003895E+01 -0.32430312640E+02  0.69286227105E+01  0.17442385881E+03  0.17120000000E+03 0.  0.
        998    1    1    2    0    0  0.16477260937E+01  0.54986629593E+01  0.13916588548E+04  0.13917066208E+04  0.10000000000E+02 0. -1.
</event>
<event>
 5    1  0.1503263E-008  0.3817085E+03  0.7957747E-01  0.3443753E+00
         13   -1    0    0    0    0  0.00000000000E+00  0.00000000000E+00  0.14999999963E+04  0.15000000000E+04  0.10566000000E+00 0.  1.
        994   -1    0    0    0    0 -0.00000000000E+00 -0.00000000000E+00  0.11368683772E-12  0.17120000000E+03  0.17120000000E+03 0.  0.
         13    1    1    2    0    0 -0.11197387201E+02  0.69978116645E+01  0.25744395989E+02  0.28933301525E+02  0.10566000000E+00 0.  1.
        994    1    1    2    0    0  0.81488847746E+01  0.45887818015E+01  0.35639813392E+01  0.17149228322E+03  0.17120000000E+03 0.  0.
        998    1    1    2    0    0  0.30485024269E+01 -0.11586593466E+02  0.14706916190E+04  0.14707744153E+04  0.10000000000E+02 0.  1.
</event>
<event>
 5    1  0.1503263E-008  0.3808443E+03  0.7957747E-01  0.3447490E+00
         13   -1    0    0    0    0  0.00000000000E+00  0.00000000000E+00  0.14999999963E+04  0.15000000000E+04  0.10566000000E+00 0. -1.
        994   -1    0    0    0    0 -0.00000000000E+00 -0.00000000000E+00  0.11368683772E-12  0.17120000000E+03  0.17120000000E+03 0.  0.
         13    1    1    2    0    0 -0.19503685755E+02  0.98967781305E+01  0.62235464260E+02  0.65966689708E+02  0.10566000000E+00 0. -1.
        994    1    1    2    0    0  0.19669995264E+02 -0.97325959429E-01  0.49984281819E+01  0.17239878906E+03  0.17120000000E+03 0.  0.
        998    1    1    2    0    0 -0.16630950882E+00 -0.97994521711E+01  0.14327661038E+04  0.14328345212E+04  0.10000000000E+02 0. -1.
</event>
<event>
 5    1  0.3067429E-008  0.3858568E+03  0.7957747E-01  0.3426046E+00
         13   -1    0    0    0    0  0.00000000000E+00  0.00000000000E+00  0.14999999963E+04  0.15000000000E+04  0.10566000000E+00 0.  1.
        994   -1    0    0    0    0 -0.00000000000E+00 -0.00000000000E+00  0.11368683772E-12  0.17120000000E+03  0.17120000000E+03 0.  0.
         13    1    1    2    0    0 -0.97446751960E+01  0.32184429050E+01  0.44554772069E+02  0.45721504214E+02  0.10566000000E+00 0.  1.
        994    1    1    2    0    0  0.38086521023E+01 -0.49795812788E+01  0.13342367204E+01  0.17131994119E+03  0.17120000000E+03 0.  0.
        998    1    1    2    0    0  0.59360230937E+01  0.17611383738E+01  0.14541109875E+04  0.14541585546E+04  0.10000000000E+02 0.  1.
</event>
<event>
 5    1  0.1503263E-008  0.3828484E+03  0.7957747E-01  0.3438849E+00
         13   -1    0    0    0    0  0.00000000000E+00  0.00000000000E+00  0.14999999963E+04  0.15000000000E+04  0.10566000000E+00 0. -1.
        994   -1    0    0    0    0 -0.00000000000E+00 -0.00000000000E+00  0.11368683772E-12  0.17120000000E+03  0.17120000000E+03 0.  0.
         13    1    1    2    0    0 -0.43604775138E+01 -0.13503634911E+02  0.35594593266E+02  0.38319031222E+02  0.10566000000E+00 0. -1.
        994    1    1    2    0    0 -0.16037216197E+01  0.16479043062E+02  0.36105100985E+01  0.17203664309E+03  0.17120000000E+03 0.  0.
        998    1    1    2    0    0  0.59641991335E+01 -0.29754081511E+01  0.14607948929E+04  0.14608443257E+04  0.10000000000E+02 0. -1.
</event>
<event>
 5    1  0.1503263E-008  0.3806805E+03  0.7957747E-01  0.3448201E+00
         13   -1    0    0    0    0  0.00000000000E+00  0.00000000000E+00  0.14999999963E+04  0.15000000000E+04  0.10566000000E+00 0.  1.
        994   -1    0    0    0    0 -0.00000000000E+00 -0.00000000000E+00  0.11368683772E-12  0.17120000000E+03  0.17120000000E+03 0.  0.
         13    1    1    2    0    0  0.99781024704E+01 -0.12086557498E+02  0.30931365759E+02  0.34675754539E+02  0.10566000000E+00 0.  1.
        994    1    1    2    0    0 -0.34484711244E+01  0.10993393189E+02  0.42329394172E+01  0.17163946056E+03  0.17120000000E+03 0.  0.
        998    1    1    2    0    0 -0.65296313460E+01  0.10931643095E+01  0.14648356911E+04  0.14648847849E+04  0.10000000000E+02 0.  1.
</event>
<event>
 5    1  0.1503263E-008  0.3846008E+03  0.7957747E-01  0.3431367E+00
         13   -1    0    0    0    0  0.00000000000E+00  0.00000000000E+00  0.14999999963E+04  0.15000000000E+04  0.10566000000E+00 0. -1.
        994   -1    0    0    0    0 -0.00000000000E+00 -0.00000000000E+00  0.11368683772E-12  0.17120000000E+03  0.17120000000E+03 0.  0.
         13    1    1    2    0    0  0.29927367195E+01  0.10568642037E+02  0.34118885777E+02  0.35843579596E+02  0.10566000000E+00 0. -1.
        994    1    1    2    0    0  0.17664920521E+01  0.20799436852E+01  0.18529874872E+01  0.17123177340E+03  0.17120000000E+03 0.  0.
        998    1    1    2    0    0 -0.47592287716E+01 -0.12648585722E+02  0.14640281230E+04  0.14641246470E+04  0.10000000000E+02 0. -1.
</event>
<event>
 5    1  0.1503263E-008  0.3713165E+03  0.7957747E-01  0.3489862E+00
         13   -1    0    0    0    0  0.00000000000E+00  0.00000000000E+00  0.14999999963E+04  0.15000000000E+04  0.10566000000E+00 0.  1.
        994   -1    0    0    0    0 -0.00000000000E+00 -0.00000000000E+00  0.11368683772E-12  0.17120000000E+03  0.17120000000E+03 0.  0.
         13    1    1    2    0    0  0.53730361826E+02  0.88220921833E+01  0.17257257424E+03  0.18095879541E+03  0.10566000000E+00 0.  1.
        994    1    1    2    0    0 -0.27242939122E+02 -0.14323905884E+02  0.11850326661E+02  0.17434799183E+03  0.17120000000E+03 0.  0.
        998    1    1    2    0    0 -0.26487422704E+02  0.55018137006E+01  0.13155770954E+04  0.13158932128E+04  0.10000000000E+02 0.  1.
</event>
<event>
 5    1  0.1503263E-008  0.3827393E+03  0.7957747E-01  0.3439317E+00
         13   -1    0    0    0    0  0.00000000000E+00  0.00000000000E+00  0.14999999963E+04  0.15000000000E+04  0.10566000000E+00 0. -1.
        994   -1    0    0    0    0 -0.00000000000E+00 -0.00000000000E+00  0.11368683772E-12  0.17120000000E+03  0.17120000000E+03 0.  0.
         13    1    1    2    0    0  0.16378291396E+02 -0.15829998784E+03  0.44148778722E+03  0.46929586830E+03  0.10566000000E+00 0. -1.
        994    1    1    2    0    0 -0.15330370045E+01  0.16526479312E+03  0.12612139313E+03  0.26931551729E+03  0.17120000000E+03 0.  0.
        998    1    1    2    0    0 -0.14845254392E+02 -0.69648052798E+01  0.93239081593E+03  0.93258861440E+03  0.10000000000E+02 0. -1.
</event>
<event>
 5    1  0.1503263E-008  0.3712530E+03  0.7957747E-01  0.3490152E+00
         13   -1    0    0    0    0  0.00000000000E+00  0.00000000000E+00  0.14999999963E+04  0.15000000000E+04  0.10566000000E+00 0. -1.
        994   -1    0    0    0    0 -0.00000000000E+00 -0.00000000000E+00  0.11368683772E-12  0.17120000000E+03  0.17120000000E+03 0.  0.
         13    1    1    2    0    0 -0.26853120149E+02 -0.43846529278E+01  0.39032615343E+02  0.47580158340E+02  0.10566000000E+00 0. -1.
        994    1    1    2    0    0  0.22630798805E+02  0.48855021286E+01  0.10463195215E+02  0.17307495382E+03  0.17120000000E+03 0.  0.
        998    1    1    2    0    0  0.42223213442E+01 -0.50084920081E+00  0.14505041857E+04  0.14505448878E+04  0.10000000000E+02 0. -1.
</event>
<event>
 5    1  0.1503263E-008  0.3759788E+03  0.7957747E-01  0.3468857E+00
         13   -1    0    0    0    0  0.00000000000E+00  0.00000000000E+00  0.14999999963E+04  0.15000000000E+04  0.10566000000E+00 0.  1.
        994   -1    0    0    0    0 -0.00000000000E+00 -0.00000000000E+00  0.11368683772E-12  0.17120000000E+03  0.17120000000E+03 0.  0.
         13    1    1    2    0    0 -0.23776839310E+02 -0.37432913983E+02  0.15310298774E+03  0.15939603871E+03  0.10566000000E+00 0.  1.
        994    1    1    2    0    0  0.10070633266E+02  0.30279894338E+02  0.96347017769E+01  0.17441489940E+03  0.17120000000E+03 0.  0.
        998    1    1    2    0    0  0.13706206044E+02  0.71530196454E+01  0.13372623068E+04  0.13373890619E+04  0.10000000000E+02 0.  1.
</event>
<event>
 5    1  0.1503263E-008  0.3814513E+03  0.7957747E-01  0.3444864E+00
         13   -1    0    0    0    0  0.00000000000E+00  0.00000000000E+00  0.14999999963E+04  0.15000000000E+04  0.10566000000E+00 0. -1.
        994   -1    0    0    0    0 -0.00000000000E+00 -0.00000000000E+00  0.11368683772E-12  0.17120000000E+03  0.17120000000E+03 0.  0.
         13    1    1    2    0    0  0.26820077361E+02  0.13092319690E+02  0.13140758148E+03  0.13475417997E+03  0.10566000000E+00 0. -1.
        994    1    1    2    0    0 -0.77922028865E+01 -0.20908631425E+02  0.50605620904E+01  0.17272214271E+03  0.17120000000E+03 0.  0.
        998    1    1    2    0    0 -0.19027874474E+02  0.78163117349E+01  0.13635318527E+04  0.13637236773E+04  0.10000000000E+02 0. -1.
</event>
<event>
 5    1  0.1503263E-008  0.3786270E+03  0.7957747E-01  0.3457159E+00
         13   -1    0    0    0    0  0.00000000000E+00  0.00000000000E+00  0.14999999963E+04  0.15000000000E+04  0.10566000000E+00 0.  1.
        994   -1    0    0    0    0 -0.00000000000E+00 -0.00000000000E+00  0.11368683772E-12  0.17120000000E+03  0.17120000000E+03 0.  0.
         13    1    1    2    0    0 -0.86477595211E+02  0.15751700786E+03  0.10584758851E+04  0.10736206000E+04  0.10566000000E+00 0.  1.
        994    1    1    2    0    0  0.54060458675E+02 -0.17700696041E+03  0.13009876140E+03  0.28370605376E+03  0.17120000000E+03 0.  0.
        998    1    1    2    0    0  0.32417136536E+02  0.19489952548E+02  0.31142534982E+03  0.31387334628E+03  0.10000000000E+02 0.  1.
</event>
<event>
 5    1  0.1503263E-008  0.3840748E+03  0.7957747E-01  0.3433606E+00
         13   -1    0    0    0    0  0.00000000000E+00  0.00000000000E+00  0.14999999963E+04  0.15000000000E+04  0.10566000000E+00 0.  1.
        994   -1    0    0    0    0 -0.00000000000E+00 -0.00000000000E+00  0.11368683772E-12  0.17120000000E+03  0.17120000000E+03 0.  0.
         13    1    1    2    0    0 -0.71884002339E+01  0.11102213360E+02  0.39718479066E+02  0.41862883115E+02  0.10566000000E+00 0.  1.
        994    1    1    2    0    0  0.93470943944E+01 -0.15332396320E+02  0.31545149956E+01  0.17216806183E+03  0.17120000000E+03 0.  0.
        998    1    1    2    0    0 -0.21586941606E+01  0.42301829602E+01  0.14571270022E+04  0.14571690551E+04  0.10000000000E+02 0.  1.
</event>
<event>
 5    1  0.1503263E-008  0.3823362E+03  0.7957747E-01  0.3441049E+00
         13   -1    0    0    0    0  0.00000000000E+00  0.00000000000E+00  0.14999999963E+04  0.15000000000E+04  0.10566000000E+00 0.  1.
        994   -1    0    0    0    0 -0.00000000000E+00 -0.00000000000E+00  0.11368683772E-12  0.17120000000E+03  0.17120000000E+03 0.  0.
         13    1    1    2    0    0 -0.37854690100E+02  0.11123726332E+02  0.22695307189E+03  0.23035716367E+03  0.10566000000E+00 0.  1.
        994    1    1    2    0    0  0.36029990366E+02 -0.14809198492E+02  0.80088053128E+01  0.17575850912E+03  0.17120000000E+03 0.  0.
        998    1    1    2    0    0  0.18246997335E+01  0.36854721600E+01  0.12650381191E+04  0.12650843272E+04  0.10000000000E+02 0.  1.
</event>
<event>
 5    1  0.1503263E-008  0.3808802E+03  0.7957747E-01  0.3447335E+00
         13   -1    0    0    0    0  0.00000000000E+00  0.00000000000E+00  0.14999999963E+04  0.15000000000E+04  0.10566000000E+00 0. -1.
        994   -1    0    0    0    0 -0.00000000000E+00 -0.00000000000E+00  0.11368683772E-12  0.17120000000E+03  0.17120000000E+03 0.  0.
         13    1    1    2    0    0  0.11558699792E+02 -0.12844589195E+01  0.16590069134E+02  0.20260674557E+02  0.10566000000E+00 0. -1.
        994    1    1    2    0    0 -0.12859546891E+02 -0.78134818638E+00  0.42429048447E+01  0.17173648620E+03  0.17120000000E+03 0.  0.
        998    1    1    2    0    0  0.13008470991E+01  0.20658071059E+01  0.14791670223E+04  0.14792028392E+04  0.10000000000E+02 0. -1.
</event>
<event>
 5    1  0.1503263E-008  0.3843493E+03  0.7957747E-01  0.3432437E+00
         13   -1    0    0    0    0  0.00000000000E+00  0.00000000000E+00  0.14999999963E+04  0.15000000000E+04  0.10566000000E+00 0.  1.
        994   -1    0    0    0    0 -0.00000000000E+00 -0.00000000000E+00  0.11368683772E-12  0.17120000000E+03  0.17120000000E+03 0.  0.
         13    1    1    2    0    0  0.69245698953E+01  0.14042672590E+02  0.67766466959E+02  0.69551790271E+02  0.10566000000E+00 0.  1.
        994    1    1    2    0    0  0.15516480885E+01  0.29332935111E+01  0.19898517937E+01  0.17124371910E+03  0.17120000000E+03 0.  0.
        998    1    1    2    0    0 -0.84762179838E+01 -0.16975966102E+02  0.14302436775E+04  0.14304044906E+04  0.10000000000E+02 0.  1.
</event>
<event>
 5    1  0.1503263E-008  0.3765507E+03  0.7957747E-01  0.3466317E+00
         13   -1    0    0    0    0  0.00000000000E+00  0.00000000000E+00  0.14999999963E+04  0.15000000000E+04  0.10566000000E+00 0.  1.
        994   -1    0    0    0    0 -0.00000000000E+00 -0.00000000000E+00  0.11368683772E-12  0.17120000000E+03  0.17120000000E+03 0.  0.
         13    1    1    2    0    0 -0.78642689498E+02 -0.10523760710E+03  0.49539249274E+03  0.51251669201E+03  0.10566000000E+00 0.  1.
        994    1    1    2    0    0  0.48647593769E+02  0.89915556259E+02  0.52861578643E+02  0.20628907420E+03  0.17120000000E+03 0.  0.
        998    1    1    2    0    0  0.29995095730E+02  0.15322050837E+02  0.95174592490E+03  0.95239423379E+03  0.10000000000E+02 0.  1.
</event>
<event>
 5    1  0.1503263E-008  0.3859093E+03  0.7957747E-01  0.3425825E+00
         13   -1    0    0    0    0  0.00000000000E+00  0.00000000000E+00  0.14999999963E+04  0.15000000000E+04  0.10566000000E+00 0. -1.
        994   -1    0    0    0    0 -0.00000000000E+00 -0.00000000000E+00  0.11368683772E-12  0.17120000000E+03  0.17120000000E+03 0.  0.
         13    1    1    2    0    0 -0.11075889322E+02 -0.68000125865E+00  0.57590549693E+02  0.58649981278E+02  0.10566000000E+00 0. -1.
        994    1    1    2    0    0 -0.49176362744E+01 -0.79180277283E+00  0.12606986538E+01  0.17127708387E+03  0.17120000000E+03 0.  0.
        998    1    1    2    0    0  0.15993525596E+02  0.14718040315E+01  0.14411487479E+04  0.14412729349E+04  0.10000000000E+02 0. -1.
</event>
<event>
 5    1  0.1503263E-008  0.3758072E+03  0.7957747E-01  0.3469621E+00
         13   -1    0    0    0    0  0.00000000000E+00  0.00000000000E+00  0.14999999963E+04  0.15000000000E+04  0.10566000000E+00 0.  1.
        994   -1    0    0    0    0 -0.00000000000E+00 -0.00000000000E+00  0.11368683772E-12  0.17120000000E+03  0.17120000000E+03 0.  0.
         13    1    1    2    0    0 -0.26129954987E+02  0.16367602278E+02  0.72721996288E+02  0.78988434977E+02  0.10566000000E+00 0.  1.
        994    1    1    2    0    0  0.19342836305E+02 -0.11497161007E+02  0.79831254101E+01  0.17285687814E+03  0.17120000000E+03 0.  0.
        998    1    1    2    0    0  0.67871186821E+01 -0.48704412707E+01  0.14192948746E+04  0.14193546869E+04  0.10000000000E+02 0.  1.
</event>
<event>
 5    1  0.1503263E-008  0.3727320E+03  0.7957747E-01  0.3483429E+00
         13   -1    0    0    0    0  0.00000000000E+00  0.00000000000E+00  0.14999999963E+04  0.15000000000E+04  0.10566000000E+00 0. -1.
        994   -1    0    0    0    0 -0.00000000000E+00 -0.00000000000E+00  0.11368683772E-12  0.17120000000E+03  0.17120000000E+03 0.  0.
         13    1    1    2    0    0  0.10186292474E+03  0.25797301816E+02  0.43473932224E+03  0.44725814211E+03  0.10566000000E+00 0. -1.
        994    1    1    2    0    0 -0.11311025042E+03 -0.30345288915E+02  0.56393470383E+02  0.21495215470E+03  0.17120000000E+03 0.  0.
        998    1    1    2    0    0  0.11247325681E+02  0.45479870982E+01  0.10088672037E+04  0.10089897032E+04  0.10000000000E+02 0.  0.
</event>
<event>
 5    1  0.1503263E-008  0.3852745E+03  0.7957747E-01  0.3428509E+00
         13   -1    0    0    0    0  0.00000000000E+00  0.00000000000E+00  0.14999999963E+04  0.15000000000E+04  0.10566000000E+00 0. -1.
        994   -1    0    0    0    0 -0.00000000000E+00 -0.00000000000E+00  0.11368683772E-12  0.17120000000E+03  0.17120000000E+03 0.  0.
         13    1    1    2    0    0  0.88976290674E+01  0.49519939582E+01  0.35817580451E+02  0.37237082063E+02  0.10566000000E+00 0. -1.
        994    1    1    2    0    0  0.11405209371E+01 -0.25663558941E+01  0.15198496124E+01  0.17122977812E+03  0.17120000000E+03 0.  0.
        998    1    1    2    0    0 -0.10038150004E+02 -0.23856380641E+01  0.14626625662E+04  0.14627331398E+04  0.10000000000E+02 0. -1.
</event>
<event>
 5    1  0.1503263E-008  0.3725906E+03  0.7957747E-01  0.3484069E+00
         13   -1    0    0    0    0  0.00000000000E+00  0.00000000000E+00  0.14999999963E+04  0.15000000000E+04  0.10566000000E+00 0.  1.
        994   -1    0    0    0    0 -0.00000000000E+00 -0.00000000000E+00  0.11368683772E-12  0.17120000000E+03  0.17120000000E+03 0.  0.
         13    1    1    2    0    0 -0.66696634140E+02  0.34977876412E+02  0.41108214092E+03  0.41792395312E+03  0.10566000000E+00 0.  1.
        994    1    1    2    0    0  0.11491023421E+02 -0.38631684596E+02  0.13508837736E+02  0.17639835422E+03  0.17120000000E+03 0.  0.
        998    1    1    2    0    0  0.55205610719E+02  0.36538081839E+01  0.10754090176E+04  0.10768776927E+04  0.10000000000E+02 0.  1.
</event>
<event>
 5    1  0.1503263E-008  0.3774369E+03  0.7957747E-01  0.3462395E+00
         13   -1    0    0    0    0  0.00000000000E+00  0.00000000000E+00  0.14999999963E+04  0.15000000000E+04  0.10566000000E+00 0. -1.
        994   -1    0    0    0    0 -0.00000000000E+00 -0.00000000000E+00  0.11368683772E-12  0.17120000000E+03  0.17120000000E+03 0.  0.
         13    1    1    2    0    0  0.68902556634E+02  0.20297467141E+02  0.41602609771E+03  0.42218156594E+03  0.10566000000E+00 0. -1.
        994    1    1    2    0    0 -0.58684879248E+02  0.51332503525E+01  0.17223367653E+02  0.18186904548E+03  0.17120000000E+03 0.  0.
        998    1    1    2    0    0 -0.10217677386E+02 -0.25430717494E+02  0.10667505309E+04  0.10671493886E+04  0.10000000000E+02 0.  0.
</event>
<event>
 5    1  0.1503263E-008  0.3788742E+03  0.7957747E-01  0.3456075E+00
         13   -1    0    0    0    0  0.00000000000E+00  0.00000000000E+00  0.14999999963E+04  0.15000000000E+04  0.10566000000E+00 0.  1.
        994   -1    0    0    0    0 -0.00000000000E+00 -0.00000000000E+00  0.11368683772E-12  0.17120000000E+03  0.17120000000E+03 0.  0.
         13    1    1    2    0    0  0.64579471233E+01 -0.27625844991E+02  0.93528935396E+02  0.97737225830E+02  0.10566000000E+00 0.  1.
        994    1    1    2    0    0 -0.16047639690E+02 -0.89405977602E+01  0.58356456575E+01  0.17228161767E+03  0.17120000000E+03 0.  0.
        998    1    1    2    0    0  0.95896925664E+01  0.36566442752E+02  0.14006354152E+04  0.14011811565E+04  0.10000000000E+02 0.  1.
</event>
<event>
 5    1  0.1503263E-008  0.3777341E+03  0.7957747E-01  0.3461084E+00
         13   -1    0    0    0    0  0.00000000000E+00  0.00000000000E+00  0.14999999963E+04  0.15000000000E+04  0.10566000000E+00 0. -1.
        994   -1    0    0    0    0 -0.00000000000E+00 -0.00000000000E+00  0.11368683772E-12  0.17120000000E+03  0.17120000000E+03 0.  0.
         13    1    1    2    0    0 -0.25076460668E+02 -0.15533618153E+01  0.56669660836E+02  0.61989542956E+02  0.10566000000E+00 0. -1.
        994    1    1    2    0    0  0.21431689573E+02  0.15022655944E+01  0.68375244293E+01  0.17267821478E+03  0.17120000000E+03 0.  0.
        998    1    1    2    0    0  0.36447710942E+01  0.51096220943E-01  0.14364928110E+04  0.14365322423E+04  0.10000000000E+02 0. -1.
</event>
<event>
 5    1  0.1503263E-008  0.3844317E+03  0.7957747E-01  0.3432086E+00
         13   -1    0    0    0    0  0.00000000000E+00  0.00000000000E+00  0.14999999963E+04  0.15000000000E+04  0.10566000000E+00 0. -1.
        994   -1    0    0    0    0 -0.00000000000E+00 -0.00000000000E+00  0.11368683772E-12  0.17120000000E+03  0.17120000000E+03 0.  0.
         13    1    1    2    0    0  0.87623725315E+02 -0.15914819946E+02  0.18141912692E+03  0.20209925657E+03  0.10566000000E+00 0. -1.
        994    1    1    2    0    0 -0.87206949222E+02  0.10749456304E+02  0.47812975345E+02  0.19828293778E+03  0.17120000000E+03 0.  0.
        998    1    1    2    0    0 -0.41677609267E+00  0.51653636415E+01  0.12707678940E+04  0.12708178056E+04  0.10000000000E+02 0. -1.
</event>
<event>
 5    1  0.1503263E-008  0.3859238E+03  0.7957747E-01  0.3425764E+00
         13   -1    0    0    0    0  0.00000000000E+00  0.00000000000E+00  0.14999999963E+04  0.15000000000E+04  0.10566000000E+00 0.  1.
        994   -1    0    0    0    0 -0.00000000000E+00 -0.00000000000E+00  0.11368683772E-12  0.17120000000E+03  0.17120000000E+03 0.  0.
         13    1    1    2    0    0  0.11853761460E+02  0.27859521995E-02  0.50076679384E+02  0.51460632047E+02  0.10566000000E+00 0.  1.
        994    1    1    2    0    0 -0.38080378886E+02  0.85741765948E+00  0.59437852101E+01  0.17548680578E+03  0.17120000000E+03 0.  0.
        998    1    1    2    0    0  0.26226617426E+02 -0.86020361168E+00  0.14439795317E+04  0.14442525622E+04  0.10000000000E+02 0.  1.
</event>
<event>
 5    1  0.1503263E-008  0.3778391E+03  0.7957747E-01  0.3460622E+00
         13   -1    0    0    0    0  0.00000000000E+00  0.00000000000E+00  0.14999999963E+04  0.15000000000E+04  0.10566000000E+00 0. -1.
        994   -1    0    0    0    0 -0.00000000000E+00 -0.00000000000E+00  0.11368683772E-12  0.17120000000E+03  0.17120000000E+03 0.  0.
         13    1    1    2    0    0 -0.32211881620E+02 -0.28409876954E+02  0.21689148735E+03  0.22110326745E+03  0.10566000000E+00 0. -1.
        994    1    1    2    0    0  0.14632746526E+01 -0.93696612624E+01  0.55307964898E+01  0.17155162906E+03  0.17120000000E+03 0.  0.
        998    1    1    2    0    0  0.30748606968E+02  0.37779538216E+02  0.12775777124E+04  0.12785451035E+04  0.10000000000E+02 0. -1.
</event>
<event>
 5    1  0.1503263E-008  0.3843529E+03  0.7957747E-01  0.3432421E+00
         13   -1    0    0    0    0  0.00000000000E+00  0.00000000000E+00  0.14999999963E+04  0.15000000000E+04  0.10566000000E+00 0. -1.
        994   -1    0    0    0    0 -0.00000000000E+00 -0.00000000000E+00  0.11368683772E-12  0.17120000000E+03  0.17120000000E+03 0.  0.
         13    1    1    2    0    0 -0.31307036382E+02 -0.23400638081E+02  0.23377096897E+03  0.23701602791E+03  0.10566000000E+00 0. -1.
        994    1    1    2    0    0  0.73097639871E+02  0.25392076366E+02  0.21941489395E+02  0.18915308999E+03  0.17120000000E+03 0.  0.
        998    1    1    2    0    0 -0.41790603489E+02 -0.19914382849E+01  0.12442875379E+04  0.12450308821E+04  0.10000000000E+02 0. -1.
</event>
<event>
 5    1  0.1503263E-008  0.3798460E+03  0.7957747E-01  0.3451829E+00
         13   -1    0    0    0    0  0.00000000000E+00  0.00000000000E+00  0.14999999963E+04  0.15000000000E+04  0.10566000000E+00 0. -1.
        994   -1    0    0    0    0 -0.00000000000E+00 -0.00000000000E+00  0.11368683772E-12  0.17120000000E+03  0.17120000000E+03 0.  0.
         13    1    1    2    0    0  0.64645788967E+02 -0.24305391152E+02  0.38724429125E+03  0.39335477923E+03  0.10566000000E+00 0. -1.
        994    1    1    2    0    0 -0.72857437394E+02  0.23174715629E+02  0.24015643277E+02  0.18902768250E+03  0.17120000000E+03 0.  0.
        998    1    1    2    0    0  0.82116484263E+01  0.11306755227E+01  0.10887400617E+04  0.10888175383E+04  0.10000000000E+02 0. -1.
</event>
<event>
 5    1  0.1503263E-008  0.3840989E+03  0.7957747E-01  0.3433503E+00
         13   -1    0    0    0    0  0.00000000000E+00  0.00000000000E+00  0.14999999963E+04  0.15000000000E+04  0.10566000000E+00 0.  1.
        994   -1    0    0    0    0 -0.00000000000E+00 -0.00000000000E+00  0.11368683772E-12  0.17120000000E+03  0.17120000000E+03 0.  0.
         13    1    1    2    0    0 -0.26887586317E+02  0.59427417459E+01  0.16530368951E+03  0.16758156046E+03  0.10566000000E+00 0.  1.
        994    1    1    2    0    0  0.27146515943E+02 -0.31679136813E+01  0.45458054757E+01  0.17342742964E+03  0.17120000000E+03 0.  0.
        998    1    1    2    0    0 -0.25892962613E+00 -0.27748280646E+01  0.13301505013E+04  0.13301910099E+04  0.10000000000E+02 0.  1.
</event>
<event>
 5    1  0.1503263E-008  0.3750848E+03  0.7957747E-01  0.3472844E+00
         13   -1    0    0    0    0  0.00000000000E+00  0.00000000000E+00  0.14999999963E+04  0.15000000000E+04  0.10566000000E+00 0.  1.
        994   -1    0    0    0    0 -0.00000000000E+00 -0.00000000000E+00  0.11368683772E-12  0.17120000000E+03  0.17120000000E+03 0.  0.
         13    1    1    2    0    0  0.41167765893E+02  0.12734054913E+02  0.15299900489E+03  0.15895171520E+03  0.10566000000E+00 0.  1.
        994    1    1    2    0    0 -0.82837511407E+01  0.79011460035E+01  0.70806423720E+01  0.17172834401E+03  0.17120000000E+03 0.  0.
        998    1    1    2    0    0 -0.32884014752E+02 -0.20635200916E+02  0.13399203490E+04  0.13405199408E+04  0.10000000000E+02 0.  1.
</event>
<event>
 5    1  0.1503263E-008  0.3281774E+03  0.7957747E-01  0.3713357E+00
         13   -1    0    0    0    0  0.00000000000E+00  0.00000000000E+00  0.14999999963E+04  0.15000000000E+04  0.10566000000E+00 0.  1.
        994   -1    0    0    0    0 -0.00000000000E+00 -0.00000000000E+00  0.11368683772E-12  0.17120000000E+03  0.17120000000E+03 0.  0.
         13    1    1    2    0    0  0.16143165042E+03 -0.22301125099E+03  0.50651759711E+03  0.57650176338E+03  0.10566000000E+00 0.  1.
        994    1    1    2    0    0 -0.16461272926E+03  0.22957053165E+03  0.48927161235E+03  0.59033560819E+03  0.17120000000E+03 0.  0.
        998    1    1    2    0    0  0.31810788383E+01 -0.65592806627E+01  0.50421078681E+03  0.50436262844E+03  0.10000000000E+02 0.  0.
</event>
<event>
 5    1  0.1503263E-008  0.3850548E+03  0.7957747E-01  0.3429440E+00
         13   -1    0    0    0    0  0.00000000000E+00  0.00000000000E+00  0.14999999963E+04  0.15000000000E+04  0.10566000000E+00 0.  1.
        994   -1    0    0    0    0 -0.00000000000E+00 -0.00000000000E+00  0.11368683772E-12  0.17120000000E+03  0.17120000000E+03 0.  0.
         13    1    1    2    0    0  0.14343598015E+02 -0.26626640611E+01  0.66021250941E+02  0.67613943264E+02  0.10566000000E+00 0.  1.
        994    1    1    2    0    0 -0.10823814884E+02 -0.27903378245E+00  0.19885207144E+01  0.17155356902E+03  0.17120000000E+03 0.  0.
        998    1    1    2    0    0 -0.35197831302E+01  0.29416978436E+01  0.14319902246E+04  0.14320324877E+04  0.10000000000E+02 0.  1.
</event>
<event>
 5    1  0.1503263E-008  0.3811911E+03  0.7957747E-01  0.3445989E+00
         13   -1    0    0    0    0  0.00000000000E+00  0.00000000000E+00  0.14999999963E+04  0.15000000000E+04  0.10566000000E+00 0. -1.
        994   -1    0    0    0    0 -0.00000000000E+00 -0.00000000000E+00  0.11368683772E-12  0.17120000000E+03  0.17120000000E+03 0.  0.
         13    1    1    2    0    0  0.31850963196E+02 -0.12775459392E+01  0.14566031923E+03  0.14910753080E+03  0.10566000000E+00 0. -1.
        994    1    1    2    0    0 -0.15565325333E+02  0.45948144225E+01  0.44106347434E+01  0.17202408370E+03  0.17120000000E+03 0.  0.
        998    1    1    2    0    0 -0.16285637864E+02 -0.33172684834E+01  0.13499290423E+04  0.13500683855E+04  0.10000000000E+02 0. -1.
</event>
<event>
 5    1  0.1503263E-008  0.3126533E+03  0.7957747E-01  0.3809632E+00
         13   -1    0    0    0    0  0.00000000000E+00  0.00000000000E+00  0.14999999963E+04  0.15000000000E+04  0.10566000000E+00 0. -1.
        994   -1    0    0    0    0 -0.00000000000E+00 -0.00000000000E+00  0.11368683772E-12  0.17120000000E+03  0.17120000000E+03 0.  0.
         13    1    1    2    0    0 -0.14914576921E+03  0.10730451770E+03  0.78560435940E+03  0.80680415261E+03  0.10566000000E+00 0. -1.
        994    1    1    2    0    0  0.99043371147E+02 -0.13142712985E+03  0.11771302747E+03  0.26504429190E+03  0.17120000000E+03 0.  0.
        998    1    1    2    0    0  0.50102398066E+02  0.24122612151E+02  0.59668260940E+03  0.59935155549E+03  0.10000000000E+02 0. -1.
</event>
<event>
 5    1  0.1503263E-008  0.3764868E+03  0.7957747E-01  0.3466600E+00
         13   -1    0    0    0    0  0.00000000000E+00  0.00000000000E+00  0.14999999963E+04  0.15000000000E+04  0.10566000000E+00 0. -1.
        994   -1    0    0    0    0 -0.00000000000E+00 -0.00000000000E+00  0.11368683772E-12  0.17120000000E+03  0.17120000000E+03 0.  0.
         13    1    1    2    0    0 -0.25594476295E+02  0.19141901113E+02  0.98170324761E+02  0.10324201385E+03  0.10566000000E+00 0. -1.
        994    1    1    2    0    0 -0.39226238164E+02 -0.29902440991E+02  0.14190408483E+02  0.17872789774E+03  0.17120000000E+03 0.  0.
        998    1    1    2    0    0  0.64820714459E+02  0.10760539878E+02  0.13876392630E+04  0.13892300884E+04  0.10000000000E+02 0. -1.
</event>
<event>
 5    1  0.1503263E-008  0.3708972E+03  0.7957747E-01  0.3491778E+00
         13   -1    0    0    0    0  0.00000000000E+00  0.00000000000E+00  0.14999999963E+04  0.15000000000E+04  0.10566000000E+00 0. -1.
        994   -1    0    0    0    0 -0.00000000000E+00 -0.00000000000E+00  0.11368683772E-12  0.17120000000E+03  0.17120000000E+03 0.  0.
         13    1    1    2    0    0  0.25462171533E+02  0.60021407322E+02  0.23453278500E+03  0.24342664176E+03  0.10566000000E+00 0. -1.
        994    1    1    2    0    0  0.29124341360E+02 -0.46638946293E+01  0.14471073025E+02  0.17432392586E+03  0.17120000000E+03 0.  0.
        998    1    1    2    0    0 -0.54586512893E+02 -0.55357512692E+02  0.12509961383E+04  0.12534494324E+04  0.10000000000E+02 0.  1.
</event>
<event>
 5    1  0.1503263E-008  0.3713777E+03  0.7957747E-01  0.3489583E+00
         13   -1    0    0    0    0  0.00000000000E+00  0.00000000000E+00  0.14999999963E+04  0.15000000000E+04  0.10566000000E+00 0.  1.
        994   -1    0    0    0    0 -0.00000000000E+00 -0.00000000000E+00  0.11368683772E-12  0.17120000000E+03  0.17120000000E+03 0.  0.
         13    1    1    2    0    0 -0.11047986496E+02  0.23499237346E+01  0.35581492079E+01  0.11842792618E+02  0.10566000000E+00 0.  1.
        994    1    1    2    0    0  0.98647471801E+00 -0.94716164839E+01  0.88628728676E+01  0.17169355016E+03  0.17120000000E+03 0.  0.
        998    1    1    2    0    0  0.10061511778E+02  0.71216927492E+01  0.14875789742E+04  0.14876636572E+04  0.10000000000E+02 0.  1.
</event>
<event>
 5    1  0.1503263E-008  0.3822152E+03  0.7957747E-01  0.3441569E+00
         13   -1    0    0    0    0  0.00000000000E+00  0.00000000000E+00  0.14999999963E+04  0.15000000000E+04  0.10566000000E+00 0. -1.
        994   -1    0    0    0    0 -0.00000000000E+00 -0.00000000000E+00  0.11368683772E-12  0.17120000000E+03  0.17120000000E+03 0.  0.
         13    1    1    2    0    0 -0.10821811752E+02 -0.86315509946E+01 -0.25267584054E+01  0.14071636516E+02  0.10566000000E+00 0. -1.
        994    1    1    2    0    0  0.97858697849E+01 -0.55111298526E+01  0.18010536895E+02  0.17251073949E+03  0.17120000000E+03 0.  0.
        998    1    1    2    0    0  0.10359419675E+01  0.14142680847E+02  0.14845162178E+04  0.14846176240E+04  0.10000000000E+02 0. -1.
</event>
<event>
 5    1  0.1503263E-008  0.3799423E+03  0.7957747E-01  0.3451410E+00
         13   -1    0    0    0    0  0.00000000000E+00  0.00000000000E+00  0.14999999963E+04  0.15000000000E+04  0.10566000000E+00 0. -1.
        994   -1    0    0    0    0 -0.00000000000E+00 -0.00000000000E+00  0.11368683772E-12  0.17120000000E+03  0.17120000000E+03 0.  0.
         13    1    1    2    0    0 -0.21041096468E+02 -0.38022663147E+01  0.56502396039E+02  0.60412886803E+02  0.10566000000E+00 0. -1.
        994    1    1    2    0    0  0.10306624472E+02 -0.53863833096E+02  0.14284475032E+02  0.18033586790E+03  0.17120000000E+03 0.  0.
        998    1    1    2    0    0  0.10734471996E+02  0.57666099411E+02  0.14292131252E+04  0.14304512453E+04  0.10000000000E+02 0. -1.
</event>
<event>
 5    1  0.1503263E-008  0.3832821E+03  0.7957747E-01  0.3436991E+00
         13   -1    0    0    0    0  0.00000000000E+00  0.00000000000E+00  0.14999999963E+04  0.15000000000E+04  0.10566000000E+00 0.  1.
        994   -1    0    0    0    0 -0.00000000000E+00 -0.00000000000E+00  0.11368683772E-12  0.17120000000E+03  0.17120000000E+03 0.  0.
         13    1    1    2    0    0 -0.13815439336E+02 -0.57373808533E+01  0.41884432110E+02  0.44475844234E+02  0.10566000000E+00 0.  1.
        994    1    1    2    0    0  0.21040384524E+02  0.96186110173E+01  0.42574417792E+01  0.17280851041E+03  0.17120000000E+03 0.  0.
        998    1    1    2    0    0 -0.72249451887E+01 -0.38812301640E+01  0.14538581224E+04  0.14539156454E+04  0.10000000000E+02 0.  1.
</event>
<event>
 5    1  0.1503263E-008  0.3775732E+03  0.7957747E-01  0.3461794E+00
         13   -1    0    0    0    0  0.00000000000E+00  0.00000000000E+00  0.14999999963E+04  0.15000000000E+04  0.10566000000E+00 0.  1.
        994   -1    0    0    0    0 -0.00000000000E+00 -0.00000000000E+00  0.11368683772E-12  0.17120000000E+03  0.17120000000E+03 0.  0.
         13    1    1    2    0    0 -0.11078653326E+02 -0.33851299295E+01  0.10133181638E+02  0.15391172739E+02  0.10566000000E+00 0.  1.
        994    1    1    2    0    0  0.45531471240E+01  0.99227511658E+01  0.57650187679E+01  0.17164459671E+03  0.17120000000E+03 0.  0.
        998    1    1    2    0    0  0.65255062020E+01 -0.65376212364E+01  0.14841017959E+04  0.14841642305E+04  0.10000000000E+02 0.  1.
</event>
<event>
 5    1  0.1503263E-008  0.4265699E+03  0.7957747E-01  0.3270480E+00
         13   -1    0    0    0    0  0.00000000000E+00  0.00000000000E+00  0.14999999963E+04  0.15000000000E+04  0.10566000000E+00 0.  1.
        994   -1    0    0    0    0 -0.00000000000E+00 -0.00000000000E+00  0.11368683772E-12  0.17120000000E+03  0.17120000000E+03 0.  0.
         13    1    1    2    0    0  0.21559601952E+02 -0.77597326451E+01 -0.12745488691E+02  0.26220002538E+02  0.10566000000E+00 0.  1.
        994    1    1    2    0    0 -0.77458317776E+01  0.10018137615E+02  0.45448263338E+02  0.17758194061E+03  0.17120000000E+03 0.  0.
        998    1    1    2    0    0 -0.13813770174E+02 -0.22584049695E+01  0.14672972216E+04  0.14673980569E+04  0.10000000000E+02 0.  1.
</event>
<event>
 5    1  0.1503263E-008  0.3735111E+03  0.7957747E-01  0.3479908E+00
         13   -1    0    0    0    0  0.00000000000E+00  0.00000000000E+00  0.14999999963E+04  0.15000000000E+04  0.10566000000E+00 0.  1.
        994   -1    0    0    0    0 -0.00000000000E+00 -0.00000000000E+00  0.11368683772E-12  0.17120000000E+03  0.17120000000E+03 0.  0.
         13    1    1    2    0    0 -0.29714194509E+02 -0.27374014398E+01  0.29116506144E+02  0.41691831527E+02  0.10566000000E+00 0.  1.
        994    1    1    2    0    0  0.28386451551E+02 -0.50906822572E+01  0.15756982102E+02  0.17432563828E+03  0.17120000000E+03 0.  0.
        998    1    1    2    0    0  0.13277429581E+01  0.78280836970E+01  0.14551265080E+04  0.14551825302E+04  0.10000000000E+02 0.  1.
</event>
<event>
 5    1  0.1503263E-008  0.3810130E+03  0.7957747E-01  0.3446760E+00
         13   -1    0    0    0    0  0.00000000000E+00  0.00000000000E+00  0.14999999963E+04  0.15000000000E+04  0.10566000000E+00 0. -1.
        994   -1    0    0    0    0 -0.00000000000E+00 -0.00000000000E+00  0.11368683772E-12  0.17120000000E+03  0.17120000000E+03 0.  0.
         13    1    1    2    0    0  0.11819077963E+02 -0.95857010365E+01  0.30267871478E+02  0.33878185844E+02  0.10566000000E+00 0. -1.
        994    1    1    2    0    0 -0.11555263033E+02  0.70083915910E+01  0.42314284236E+01  0.17178471015E+03  0.17120000000E+03 0.  0.
        998    1    1    2    0    0 -0.26381492916E+00  0.25773094455E+01  0.14655006964E+04  0.14655371040E+04  0.10000000000E+02 0. -1.
</event>
<event>
 5    1  0.1503263E-008  0.3844125E+03  0.7957747E-01  0.3432168E+00
         13   -1    0    0    0    0  0.00000000000E+00  0.00000000000E+00  0.14999999963E+04  0.15000000000E+04  0.10566000000E+00 0. -1.
        994   -1    0    0    0    0 -0.00000000000E+00 -0.00000000000E+00  0.11368683772E-12  0.17120000000E+03  0.17120000000E+03 0.  0.
         13    1    1    2    0    0  0.23017533972E+00 -0.16454508070E+02  0.76768131226E+02  0.78512170728E+02  0.10566000000E+00 0. -1.
        994    1    1    2    0    0 -0.18739443855E+01 -0.31909874377E+01  0.19672203734E+01  0.17125128912E+03  0.17120000000E+03 0.  0.
        998    1    1    2    0    0  0.16437690457E+01  0.19645495507E+02  0.14212646447E+04  0.14214365402E+04  0.10000000000E+02 0. -1.
</event>
<event>
 5    1  0.1503263E-008  0.3967218E+03  0.7957747E-01  0.3381430E+00
         13   -1    0    0    0    0  0.00000000000E+00  0.00000000000E+00  0.14999999963E+04  0.15000000000E+04  0.10566000000E+00 0. -1.
        994   -1    0    0    0    0 -0.00000000000E+00 -0.00000000000E+00  0.11368683772E-12  0.17120000000E+03  0.17120000000E+03 0.  0.
         13    1    1    2    0    0  0.19999731956E+01  0.53806954988E+02  0.45640514523E+02  0.70585097774E+02  0.10566000000E+00 0. -1.
        994    1    1    2    0    0 -0.11186656260E+00 -0.52173264656E+02  0.36424424753E+02  0.18264238494E+03  0.17120000000E+03 0.  0.
        998    1    1    2    0    0 -0.18881066330E+01 -0.16336903325E+01  0.14179350570E+04  0.14179725173E+04  0.10000000000E+02 0. -1.
</event>
<event>
 5    1  0.1503263E-008  0.3846642E+03  0.7957747E-01  0.3431098E+00
         13   -1    0    0    0    0  0.00000000000E+00  0.00000000000E+00  0.14999999963E+04  0.15000000000E+04  0.10566000000E+00 0. -1.
        994   -1    0    0    0    0 -0.00000000000E+00 -0.00000000000E+00  0.11368683772E-12  0.17120000000E+03  0.17120000000E+03 0.  0.
         13    1    1    2    0    0 -0.22465472124E+02 -0.13651568418E+02  0.99466572290E+01  0.28107114972E+02  0.10566000000E+00 0. -1.
        994    1    1    2    0    0  0.26424600624E+02  0.12980798609E+02  0.22115042975E+02  0.17511503584E+03  0.17120000000E+03 0.  0.
        998    1    1    2    0    0 -0.39591285003E+01  0.67076980940E+00  0.14679382961E+04  0.14679778492E+04  0.10000000000E+02 0. -1.
</event>
<event>
 5    1  0.1503263E-008  0.3800961E+03  0.7957747E-01  0.3450740E+00
         13   -1    0    0    0    0  0.00000000000E+00  0.00000000000E+00  0.14999999963E+04  0.15000000000E+04  0.10566000000E+00 0. -1.
        994   -1    0    0    0    0 -0.00000000000E+00 -0.00000000000E+00  0.11368683772E-12  0.17120000000E+03  0.17120000000E+03 0.  0.
         13    1    1    2    0    0  0.30827505251E+02 -0.17443417952E+02  0.13844682386E+03  0.14290606044E+03  0.10566000000E+00 0. -1.
        994    1    1    2    0    0 -0.29250384507E+02  0.22758736176E+02  0.86884941689E+01  0.17538094251E+03  0.17120000000E+03 0.  0.
        998    1    1    2    0    0 -0.15771207433E+01 -0.53153182243E+01  0.13528646782E+04  0.13529129970E+04  0.10000000000E+02 0. -1.
</event>
