<event>
 5    1  0.1271464E-008  0.3708133E+03  0.7957747E-01  0.3492161E+00
         13   -1    0    0    0    0  0.00000000000E+00  0.00000000000E+00  0.14999999963E+04  0.15000000000E+04  0.10566000000E+00 0.  1.
        994   -1    0    0    0    0 -0.00000000000E+00 -0.00000000000E+00  0.11368683772E-12  0.17120000000E+03  0.17120000000E+03 0.  0.
         13    1    1    2    0    0  0.89191815552E+02 -0.13026622409E+02  0.28329530763E+03  0.29728961526E+03  0.10566000000E+00 0.  1.
        994    1    1    2    0    0 -0.12772025788E+03  0.13604581369E+02  0.68075177277E+02  0.22459122572E+03  0.17120000000E+03 0.  0.
        998    1    1    2    0    0  0.38528442329E+02 -0.57795896028E+00  0.11486295114E+04  0.11493191590E+04  0.10000000000E+02 0.  1.
</event>
<event>
 5    1  0.1271464E-008  0.3852192E+03  0.7957747E-01  0.3428743E+00
         13   -1    0    0    0    0  0.00000000000E+00  0.00000000000E+00  0.14999999963E+04  0.15000000000E+04  0.10566000000E+00 0.  1.
        994   -1    0    0    0    0 -0.00000000000E+00 -0.00000000000E+00  0.11368683772E-12  0.17120000000E+03  0.17120000000E+03 0.  0.
         13    1    1    2    0    0 -0.12283608427E+02  0.68739695927E+00  0.51835908242E+02  0.53275999267E+02  0.10566000000E+00 0.  1.
        994    1    1    2    0    0  0.12197993906E+01 -0.46832903810E+01  0.15983253824E+01  0.17127584699E+03  0.17120000000E+03 0.  0.
        998    1    1    2    0    0  0.11063809037E+02  0.39958934217E+01  0.14465657627E+04  0.14466481537E+04  0.10000000000E+02 0.  1.
</event>
<event>
 5    1  0.1271464E-008  0.3848367E+03  0.7957747E-01  0.3430365E+00
         13   -1    0    0    0    0  0.00000000000E+00  0.00000000000E+00  0.14999999963E+04  0.15000000000E+04  0.10566000000E+00 0.  1.
        994   -1    0    0    0    0 -0.00000000000E+00 -0.00000000000E+00  0.11368683772E-12  0.17120000000E+03  0.17120000000E+03 0.  0.
         13    1    1    2    0    0 -0.17766016813E+03 -0.43283879746E+02  0.10654038453E+04  0.10809819584E+04  0.10566000000E+00 0.  1.
        994    1    1    2    0    0  0.19227502396E+03  0.44057060183E+02  0.14240237929E+03  0.29748712076E+03  0.17120000000E+03 0.  0.
        998    1    1    2    0    0 -0.14614855823E+02 -0.77318043733E+00  0.29219377166E+03  0.29273092084E+03  0.10000000000E+02 0.  1.
</event>
<event>
 5    1  0.1271464E-008  0.3839692E+03  0.7957747E-01  0.3434056E+00
         13   -1    0    0    0    0  0.00000000000E+00  0.00000000000E+00  0.14999999963E+04  0.15000000000E+04  0.10566000000E+00 0.  1.
        994   -1    0    0    0    0 -0.00000000000E+00 -0.00000000000E+00  0.11368683772E-12  0.17120000000E+03  0.17120000000E+03 0.  0.
         13    1    1    2    0    0 -0.53391272813E+00  0.23010336848E+02  0.13154685703E+03  0.13354530101E+03  0.10566000000E+00 0.  1.
        994    1    1    2    0    0  0.27317799259E+01 -0.59187609658E+01  0.22829845825E+01  0.17133927271E+03  0.17120000000E+03 0.  0.
        998    1    1    2    0    0 -0.21978671977E+01 -0.17091575883E+02  0.13661701547E+04  0.13663154263E+04  0.10000000000E+02 0.  1.
</event>
<event>
 5    1  0.1271464E-008  0.3796577E+03  0.7957747E-01  0.3452650E+00
         13   -1    0    0    0    0  0.00000000000E+00  0.00000000000E+00  0.14999999963E+04  0.15000000000E+04  0.10566000000E+00 0. -1.
        994   -1    0    0    0    0 -0.00000000000E+00 -0.00000000000E+00  0.11368683772E-12  0.17120000000E+03  0.17120000000E+03 0.  0.
         13    1    1    2    0    0 -0.12310828923E+02 -0.39314562298E+02  0.20204557653E+03  0.20620285516E+03  0.10566000000E+00 0. -1.
        994    1    1    2    0    0 -0.38677121915E+01  0.21654119131E+02  0.59270282149E+01  0.17270908991E+03  0.17120000000E+03 0.  0.
        998    1    1    2    0    0  0.16178541114E+02  0.17660443167E+02  0.12920273915E+04  0.12922880549E+04  0.10000000000E+02 0. -1.
</event>
<event>
 5    1  0.1271464E-008  0.3739487E+03  0.7957747E-01  0.3477938E+00
         13   -1    0    0    0    0  0.00000000000E+00  0.00000000000E+00  0.14999999963E+04  0.15000000000E+04  0.10566000000E+00 0.  1.
        994   -1    0    0    0    0 -0.00000000000E+00 -0.00000000000E+00  0.11368683772E-12  0.17120000000E+03  0.17120000000E+03 0.  0.
         13    1    1    2    0    0 -0.17928706016E+02  0.17319376587E+02  0.39988587665E+02  0.47122156278E+02  0.10566000000E+00 0.  1.
        994    1    1    2    0    0  0.15573823569E+02 -0.10094440148E+02  0.83954541738E+01  0.17240755596E+03  0.17120000000E+03 0.  0.
        998    1    1    2    0    0  0.23548824464E+01 -0.72249364396E+01  0.14516159544E+04  0.14516702878E+04  0.10000000000E+02 0.  1.
</event>
<event>
 5    1  0.1271464E-008  0.3698531E+03  0.7957747E-01  0.3496566E+00
         13   -1    0    0    0    0  0.00000000000E+00  0.00000000000E+00  0.14999999963E+04  0.15000000000E+04  0.10566000000E+00 0. -1.
        994   -1    0    0    0    0 -0.00000000000E+00 -0.00000000000E+00  0.11368683772E-12  0.17120000000E+03  0.17120000000E+03 0.  0.
         13    1    1    2    0    0 -0.13327458709E+03  0.25015141974E+01  0.54733460425E+03  0.56333254238E+03  0.10566000000E+00 0. -1.
        994    1    1    2    0    0  0.13713073010E+03  0.23347107363E+01  0.77540235219E+02  0.23266331058E+03  0.17120000000E+03 0.  0.
        998    1    1    2    0    0 -0.38561430119E+01 -0.48362249337E+01  0.87512515681E+03  0.87520414704E+03  0.10000000000E+02 0.  0.
</event>
<event>
 5    1  0.1271464E-008  0.3728446E+03  0.7957747E-01  0.3482919E+00
         13   -1    0    0    0    0  0.00000000000E+00  0.00000000000E+00  0.14999999963E+04  0.15000000000E+04  0.10566000000E+00 0.  1.
        994   -1    0    0    0    0 -0.00000000000E+00 -0.00000000000E+00  0.11368683772E-12  0.17120000000E+03  0.17120000000E+03 0.  0.
         13    1    1    2    0    0 -0.10740155546E+02 -0.54685792949E+01  0.57433109560E+01  0.13351145472E+02  0.10566000000E+00 0.  1.
        994    1    1    2    0    0  0.65874536193E+01  0.77723657459E+01  0.81452763170E+01  0.17169621353E+03  0.17120000000E+03 0.  0.
        998    1    1    2    0    0  0.41527019265E+01 -0.23037864509E+01  0.14861114090E+04  0.14861526410E+04  0.10000000000E+02 0.  1.
</event>
<event>
 5    1  0.1271464E-008  0.3817337E+03  0.7957747E-01  0.3443644E+00
         13   -1    0    0    0    0  0.00000000000E+00  0.00000000000E+00  0.14999999963E+04  0.15000000000E+04  0.10566000000E+00 0. -1.
        994   -1    0    0    0    0 -0.00000000000E+00 -0.00000000000E+00  0.11368683772E-12  0.17120000000E+03  0.17120000000E+03 0.  0.
         13    1    1    2    0    0  0.15365203170E+02 -0.20483386536E+02  0.92860881987E+02  0.96326596327E+02  0.10566000000E+00 0. -1.
        994    1    1    2    0    0  0.18352829670E+02  0.51527787829E+02  0.13269963698E+02  0.18021506933E+03  0.17120000000E+03 0.  0.
        998    1    1    2    0    0 -0.33718032840E+02 -0.31044401293E+02  0.13938691506E+04  0.13946583343E+04  0.10000000000E+02 0. -1.
</event>
<event>
 5    1  0.1271464E-008  0.3830170E+03  0.7957747E-01  0.3438126E+00
         13   -1    0    0    0    0  0.00000000000E+00  0.00000000000E+00  0.14999999963E+04  0.15000000000E+04  0.10566000000E+00 0. -1.
        994   -1    0    0    0    0 -0.00000000000E+00 -0.00000000000E+00  0.11368683772E-12  0.17120000000E+03  0.17120000000E+03 0.  0.
         13    1    1    2    0    0 -0.15316566807E+02 -0.15313997486E+02  0.95346752734E+02  0.97775918092E+02  0.10566000000E+00 0. -1.
        994    1    1    2    0    0  0.37660643108E+01 -0.60685222426E+00  0.26660383603E+01  0.17126324553E+03  0.17120000000E+03 0.  0.
        998    1    1    2    0    0  0.11550502496E+02  0.15920849710E+02  0.14019872052E+04  0.14021608364E+04  0.10000000000E+02 0. -1.
</event>
<event>
 5    1  0.1271464E-008  0.3765338E+03  0.7957747E-01  0.3466391E+00
         13   -1    0    0    0    0  0.00000000000E+00  0.00000000000E+00  0.14999999963E+04  0.15000000000E+04  0.10566000000E+00 0.  1.
        994   -1    0    0    0    0 -0.00000000000E+00 -0.00000000000E+00  0.11368683772E-12  0.17120000000E+03  0.17120000000E+03 0.  0.
         13    1    1    2    0    0 -0.20333023766E+02  0.27983808438E+02  0.10647145227E+03  0.11194957214E+03  0.10566000000E+00 0.  1.
        994    1    1    2    0    0  0.19020645768E+01 -0.62575783882E+01  0.60378735108E+01  0.17143124293E+03  0.17120000000E+03 0.  0.
        998    1    1    2    0    0  0.18430959190E+02 -0.21726230050E+02  0.13874906705E+04  0.13878191849E+04  0.10000000000E+02 0.  1.
</event>
<event>
 5    1  0.1271464E-008  0.3717151E+03  0.7957747E-01  0.3488045E+00
         13   -1    0    0    0    0  0.00000000000E+00  0.00000000000E+00  0.14999999963E+04  0.15000000000E+04  0.10566000000E+00 0. -1.
        994   -1    0    0    0    0 -0.00000000000E+00 -0.00000000000E+00  0.11368683772E-12  0.17120000000E+03  0.17120000000E+03 0.  0.
         13    1    1    2    0    0 -0.10438162503E+02 -0.16357909884E+03  0.89497475481E+03  0.90986092329E+03  0.10566000000E+00 0. -1.
        994    1    1    2    0    0 -0.84528873679E+01  0.14270013075E+03  0.82259480067E+02  0.23772008893E+03  0.17120000000E+03 0.  0.
        998    1    1    2    0    0  0.18891049871E+02  0.20878968091E+02  0.52276576140E+03  0.52361898778E+03  0.10000000000E+02 0. -1.
</event>
<event>
 5    1  0.1271464E-008  0.3708807E+03  0.7957747E-01  0.3491853E+00
         13   -1    0    0    0    0  0.00000000000E+00  0.00000000000E+00  0.14999999963E+04  0.15000000000E+04  0.10566000000E+00 0. -1.
        994   -1    0    0    0    0 -0.00000000000E+00 -0.00000000000E+00  0.11368683772E-12  0.17120000000E+03  0.17120000000E+03 0.  0.
         13    1    1    2    0    0  0.11570367506E+01 -0.28066246450E+02  0.40888087737E+02  0.49607457168E+02  0.10566000000E+00 0. -1.
        994    1    1    2    0    0  0.20847492191E+01  0.22739880546E+02  0.10609032687E+02  0.17304172884E+03  0.17120000000E+03 0.  0.
        998    1    1    2    0    0 -0.32417859698E+01  0.53263659040E+01  0.14485028759E+04  0.14485508140E+04  0.10000000000E+02 0. -1.
</event>
<event>
 5    1  0.1271464E-008  0.3823667E+03  0.7957747E-01  0.3440918E+00
         13   -1    0    0    0    0  0.00000000000E+00  0.00000000000E+00  0.14999999963E+04  0.15000000000E+04  0.10566000000E+00 0.  1.
        994   -1    0    0    0    0 -0.00000000000E+00 -0.00000000000E+00  0.11368683772E-12  0.17120000000E+03  0.17120000000E+03 0.  0.
         13    1    1    2    0    0  0.97280700380E+01 -0.15301268406E+02  0.53607408503E+02  0.56590896546E+02  0.10566000000E+00 0.  1.
        994    1    1    2    0    0 -0.72276882852E+01  0.15786140442E+02  0.39437077478E+01  0.17212331201E+03  0.17120000000E+03 0.  0.
        998    1    1    2    0    0 -0.25003817528E+01 -0.48487203598E+00  0.14424488800E+04  0.14424857914E+04  0.10000000000E+02 0.  1.
</event>
<event>
 5    1  0.1271464E-008  0.3847901E+03  0.7957747E-01  0.3430563E+00
         13   -1    0    0    0    0  0.00000000000E+00  0.00000000000E+00  0.14999999963E+04  0.15000000000E+04  0.10566000000E+00 0. -1.
        994   -1    0    0    0    0 -0.00000000000E+00 -0.00000000000E+00  0.11368683772E-12  0.17120000000E+03  0.17120000000E+03 0.  0.
         13    1    1    2    0    0 -0.12898694188E+02  0.70318813887E+01  0.62757618272E+02  0.64454274356E+02  0.10566000000E+00 0. -1.
        994    1    1    2    0    0  0.60777300394E+01 -0.55498845797E+01  0.19573614376E+01  0.17140890083E+03  0.17120000000E+03 0.  0.
        998    1    1    2    0    0  0.68209641490E+01 -0.14819968090E+01  0.14352850166E+04  0.14353368248E+04  0.10000000000E+02 0. -1.
</event>
<event>
 5    1  0.1271464E-008  0.3836549E+03  0.7957747E-01  0.3435397E+00
         13   -1    0    0    0    0  0.00000000000E+00  0.00000000000E+00  0.14999999963E+04  0.15000000000E+04  0.10566000000E+00 0. -1.
        994   -1    0    0    0    0 -0.00000000000E+00 -0.00000000000E+00  0.11368683772E-12  0.17120000000E+03  0.17120000000E+03 0.  0.
         13    1    1    2    0    0 -0.18010601236E+02 -0.11382361230E+02  0.93937364286E+02  0.96323307029E+02  0.10566000000E+00 0. -1.
        994    1    1    2    0    0  0.15948905828E+02  0.12567898651E+02  0.36625064963E+01  0.17243889824E+03  0.17120000000E+03 0.  0.
        998    1    1    2    0    0  0.20616954078E+01 -0.11855374210E+01  0.14024001255E+04  0.14024377947E+04  0.10000000000E+02 0. -1.
</event>
<event>
 5    1  0.1271464E-008  0.3833551E+03  0.7957747E-01  0.3436678E+00
         13   -1    0    0    0    0  0.00000000000E+00  0.00000000000E+00  0.14999999963E+04  0.15000000000E+04  0.10566000000E+00 0. -1.
        994   -1    0    0    0    0 -0.00000000000E+00 -0.00000000000E+00  0.11368683772E-12  0.17120000000E+03  0.17120000000E+03 0.  0.
         13    1    1    2    0    0 -0.11264888429E+02 -0.24870631925E+01  0.26324936540E+02  0.28741896989E+02  0.10566000000E+00 0. -1.
        994    1    1    2    0    0  0.72341012086E+01  0.55599629521E+01  0.27242744044E+01  0.17146459424E+03  0.17120000000E+03 0.  0.
        998    1    1    2    0    0  0.40307872208E+01 -0.30728997596E+01  0.14709507853E+04  0.14709935088E+04  0.10000000000E+02 0. -1.
</event>
<event>
 5    1  0.1271464E-008  0.3717250E+03  0.7957747E-01  0.3488000E+00
         13   -1    0    0    0    0  0.00000000000E+00  0.00000000000E+00  0.14999999963E+04  0.15000000000E+04  0.10566000000E+00 0. -1.
        994   -1    0    0    0    0 -0.00000000000E+00 -0.00000000000E+00  0.11368683772E-12  0.17120000000E+03  0.17120000000E+03 0.  0.
         13    1    1    2    0    0 -0.49080389845E+02  0.26953499522E+02  0.23282947094E+03  0.23946805529E+03  0.10566000000E+00 0. -1.
        994    1    1    2    0    0  0.41152656278E+01  0.18056749971E+02  0.95499585383E+01  0.17246339710E+03  0.17120000000E+03 0.  0.
        998    1    1    2    0    0  0.44965124217E+02 -0.45010249493E+02  0.12576205668E+04  0.12592685476E+04  0.10000000000E+02 0.  1.
</event>
<event>
 5    1  0.1271464E-008  0.3749019E+03  0.7957747E-01  0.3473661E+00
         13   -1    0    0    0    0  0.00000000000E+00  0.00000000000E+00  0.14999999963E+04  0.15000000000E+04  0.10566000000E+00 0. -1.
        994   -1    0    0    0    0 -0.00000000000E+00 -0.00000000000E+00  0.11368683772E-12  0.17120000000E+03  0.17120000000E+03 0.  0.
         13    1    1    2    0    0  0.11730020585E+02  0.19640946849E+02  0.35914425220E+02  0.42581889096E+02  0.10566000000E+00 0. -1.
        994    1    1    2    0    0 -0.44730622356E+01 -0.18290156463E+02  0.79355610885E+01  0.17241505514E+03  0.17120000000E+03 0.  0.
        998    1    1    2    0    0 -0.72569583498E+01 -0.13507903861E+01  0.14561500100E+04  0.14562030558E+04  0.10000000000E+02 0. -1.
</event>
<event>
 5    1  0.1271464E-008  0.3810366E+03  0.7957747E-01  0.3446657E+00
         13   -1    0    0    0    0  0.00000000000E+00  0.00000000000E+00  0.14999999963E+04  0.15000000000E+04  0.10566000000E+00 0. -1.
        994   -1    0    0    0    0 -0.00000000000E+00 -0.00000000000E+00  0.11368683772E-12  0.17120000000E+03  0.17120000000E+03 0.  0.
         13    1    1    2    0    0  0.47799250702E+01 -0.19964351712E+02  0.61731387876E+02  0.65055349020E+02  0.10566000000E+00 0. -1.
        994    1    1    2    0    0  0.50371007501E+01 -0.35918966027E+01  0.37383148099E+01  0.17135252873E+03  0.17120000000E+03 0.  0.
        998    1    1    2    0    0 -0.98170258203E+01  0.23556248315E+02  0.14345302936E+04  0.14347921222E+04  0.10000000000E+02 0. -1.
</event>
<event>
 5    1  0.1271464E-008  0.3705143E+03  0.7957747E-01  0.3493531E+00
         13   -1    0    0    0    0  0.00000000000E+00  0.00000000000E+00  0.14999999963E+04  0.15000000000E+04  0.10566000000E+00 0.  1.
        994   -1    0    0    0    0 -0.00000000000E+00 -0.00000000000E+00  0.11368683772E-12  0.17120000000E+03  0.17120000000E+03 0.  0.
         13    1    1    2    0    0 -0.61013799661E+02  0.50153572626E+02  0.45825196027E+03  0.46500853202E+03  0.10566000000E+00 0.  1.
        994    1    1    2    0    0  0.11644396185E+02 -0.82139872042E+01  0.97016584989E+01  0.17206575408E+03  0.17120000000E+03 0.  0.
        998    1    1    2    0    0  0.49369403476E+02 -0.41939585422E+02  0.10320463775E+04  0.10341257139E+04  0.10000000000E+02 0.  1.
</event>
<event>
 5    1  0.1271464E-008  0.3790973E+03  0.7957747E-01  0.3455098E+00
         13   -1    0    0    0    0  0.00000000000E+00  0.00000000000E+00  0.14999999963E+04  0.15000000000E+04  0.10566000000E+00 0. -1.
        994   -1    0    0    0    0 -0.00000000000E+00 -0.00000000000E+00  0.11368683772E-12  0.17120000000E+03  0.17120000000E+03 0.  0.
         13    1    1    2    0    0  0.10781403182E+02  0.43563376931E+01  0.12892146810E+02  0.17361881985E+02  0.10566000000E+00 0. -1.
        994    1    1    2    0    0 -0.25457329454E+01 -0.85217575019E+00  0.46136693074E+01  0.17128319504E+03  0.17120000000E+03 0.  0.
        998    1    1    2    0    0 -0.82356702363E+01 -0.35041619429E+01  0.14824941802E+04  0.14825549230E+04  0.10000000000E+02 0. -1.
</event>
<event>
 5    1  0.1271464E-008  0.3695226E+03  0.7957747E-01  0.3498088E+00
         13   -1    0    0    0    0  0.00000000000E+00  0.00000000000E+00  0.14999999963E+04  0.15000000000E+04  0.10566000000E+00 0. -1.
        994   -1    0    0    0    0 -0.00000000000E+00 -0.00000000000E+00  0.11368683772E-12  0.17120000000E+03  0.17120000000E+03 0.  0.
         13    1    1    2    0    0 -0.43848319023E+02 -0.59847740530E+02  0.24743887769E+03  0.25832234995E+03  0.10566000000E+00 0. -1.
        994    1    1    2    0    0 -0.86429873559E+01  0.95431099321E+02  0.42027450015E+02  0.20064282320E+03  0.17120000000E+03 0.  0.
        998    1    1    2    0    0  0.52491306379E+02 -0.35583358791E+02  0.12105336686E+04  0.12122348269E+04  0.10000000000E+02 0. -1.
</event>
<event>
 5    1  0.1271464E-008  0.3781784E+03  0.7957747E-01  0.3459129E+00
         13   -1    0    0    0    0  0.00000000000E+00  0.00000000000E+00  0.14999999963E+04  0.15000000000E+04  0.10566000000E+00 0.  1.
        994   -1    0    0    0    0 -0.00000000000E+00 -0.00000000000E+00  0.11368683772E-12  0.17120000000E+03  0.17120000000E+03 0.  0.
         13    1    1    2    0    0 -0.50939072389E+02  0.17924060612E+02  0.86235428639E+02  0.10174783222E+03  0.10566000000E+00 0.  1.
        994    1    1    2    0    0  0.44243580976E+02 -0.23439717010E+02  0.24409261607E+02  0.18003379361E+03  0.17120000000E+03 0.  0.
        998    1    1    2    0    0  0.66954914130E+01  0.55156563976E+01  0.13893553060E+04  0.13894183742E+04  0.10000000000E+02 0.  1.
</event>
<event>
 5    1  0.1271464E-008  0.3711671E+03  0.7957747E-01  0.3490544E+00
         13   -1    0    0    0    0  0.00000000000E+00  0.00000000000E+00  0.14999999963E+04  0.15000000000E+04  0.10566000000E+00 0.  1.
        994   -1    0    0    0    0 -0.00000000000E+00 -0.00000000000E+00  0.11368683772E-12  0.17120000000E+03  0.17120000000E+03 0.  0.
         13    1    1    2    0    0  0.36948508540E+02 -0.53353290845E+01  0.54001468283E+02  0.65649278446E+02  0.10566000000E+00 0.  1.
        994    1    1    2    0    0 -0.36862565623E+02  0.90764945015E+01  0.16633489615E+02  0.17614580459E+03  0.17120000000E+03 0.  0.
        998    1    1    2    0    0 -0.85942917187E-01 -0.37411654170E+01  0.14293650384E+04  0.14294049170E+04  0.10000000000E+02 0.  1.
</event>
<event>
 5    1  0.1271464E-008  0.3761484E+03  0.7957747E-01  0.3468103E+00
         13   -1    0    0    0    0  0.00000000000E+00  0.00000000000E+00  0.14999999963E+04  0.15000000000E+04  0.10566000000E+00 0.  1.
        994   -1    0    0    0    0 -0.00000000000E+00 -0.00000000000E+00  0.11368683772E-12  0.17120000000E+03  0.17120000000E+03 0.  0.
         13    1    1    2    0    0 -0.20439663181E+02 -0.11459175217E+02  0.44307002039E+02  0.50121992392E+02  0.10566000000E+00 0.  1.
        994    1    1    2    0    0  0.76046681444E+01 -0.63773647874E+01  0.64237785044E+01  0.17160771163E+03  0.17120000000E+03 0.  0.
        998    1    1    2    0    0  0.12834995037E+02  0.17836540004E+02  0.14492692157E+04  0.14494702960E+04  0.10000000000E+02 0.  1.
</event>
<event>
 5    1  0.1271464E-008  0.3765031E+03  0.7957747E-01  0.3466527E+00
         13   -1    0    0    0    0  0.00000000000E+00  0.00000000000E+00  0.14999999963E+04  0.15000000000E+04  0.10566000000E+00 0.  1.
        994   -1    0    0    0    0 -0.00000000000E+00 -0.00000000000E+00  0.11368683772E-12  0.17120000000E+03  0.17120000000E+03 0.  0.
         13    1    1    2    0    0 -0.10033444721E+01 -0.50560656115E+02  0.20118803116E+03  0.20744643090E+03  0.10566000000E+00 0.  1.
        994    1    1    2    0    0  0.11832501001E+02  0.39281351522E+02  0.11622215475E+02  0.17643001034E+03  0.17120000000E+03 0.  0.
        998    1    1    2    0    0 -0.10829156529E+02  0.11279304593E+02  0.12871897496E+04  0.12873235588E+04  0.10000000000E+02 0.  1.
</event>
<event>
 5    1  0.1271464E-008  0.3849490E+03  0.7957747E-01  0.3429888E+00
         13   -1    0    0    0    0  0.00000000000E+00  0.00000000000E+00  0.14999999963E+04  0.15000000000E+04  0.10566000000E+00 0. -1.
        994   -1    0    0    0    0 -0.00000000000E+00 -0.00000000000E+00  0.11368683772E-12  0.17120000000E+03  0.17120000000E+03 0.  0.
         13    1    1    2    0    0  0.75741886366E+01 -0.16144097626E+02  0.10416254338E+03  0.10567803380E+03  0.10566000000E+00 0. -1.
        994    1    1    2    0    0  0.69600879497E+01  0.49537391030E+01  0.18955345190E+01  0.17142349724E+03  0.17120000000E+03 0.  0.
        998    1    1    2    0    0 -0.14534276586E+02  0.11190358523E+02  0.13939419184E+04  0.13940984690E+04  0.10000000000E+02 0. -1.
</event>
<event>
 5    1  0.1271464E-008  0.3820849E+03  0.7957747E-01  0.3442130E+00
         13   -1    0    0    0    0  0.00000000000E+00  0.00000000000E+00  0.14999999963E+04  0.15000000000E+04  0.10566000000E+00 0.  1.
        994   -1    0    0    0    0 -0.00000000000E+00 -0.00000000000E+00  0.11368683772E-12  0.17120000000E+03  0.17120000000E+03 0.  0.
         13    1    1    2    0    0 -0.44449412631E+02  0.38142846387E+01  0.26183795902E+03  0.26561142106E+03  0.10566000000E+00 0.  1.
        994    1    1    2    0    0  0.48254572436E+02  0.74068765697E+01  0.11038001848E+02  0.17836659740E+03  0.17120000000E+03 0.  0.
        998    1    1    2    0    0 -0.38051598049E+01 -0.11221161208E+02  0.12271240354E+04  0.12272219815E+04  0.10000000000E+02 0.  1.
</event>
<event>
 5    1  0.1271464E-008  0.3779402E+03  0.7957747E-01  0.3460177E+00
         13   -1    0    0    0    0  0.00000000000E+00  0.00000000000E+00  0.14999999963E+04  0.15000000000E+04  0.10566000000E+00 0. -1.
        994   -1    0    0    0    0 -0.00000000000E+00 -0.00000000000E+00  0.11368683772E-12  0.17120000000E+03  0.17120000000E+03 0.  0.
         13    1    1    2    0    0  0.27793207590E+01  0.31981405298E+02  0.92852535027E+02  0.98245301840E+02  0.10566000000E+00 0. -1.
        994    1    1    2    0    0  0.29525165439E+01 -0.31325346400E+02  0.85159270401E+01  0.17427551662E+03  0.17120000000E+03 0.  0.
        998    1    1    2    0    0 -0.57318373029E+01 -0.65605889753E+00  0.13986315342E+04  0.13986791815E+04  0.10000000000E+02 0. -1.
</event>
<event>
 5    1  0.1271464E-008  0.3819365E+03  0.7957747E-01  0.3442770E+00
         13   -1    0    0    0    0  0.00000000000E+00  0.00000000000E+00  0.14999999963E+04  0.15000000000E+04  0.10566000000E+00 0.  1.
        994   -1    0    0    0    0 -0.00000000000E+00 -0.00000000000E+00  0.11368683772E-12  0.17120000000E+03  0.17120000000E+03 0.  0.
         13    1    1    2    0    0  0.12348688416E+02  0.19125059720E+02  0.73545649180E+02  0.76988516625E+02  0.10566000000E+00 0.  1.
        994    1    1    2    0    0 -0.12438211421E+02 -0.32368856057E+02  0.71632332756E+01  0.17482335043E+03  0.17120000000E+03 0.  0.
        998    1    1    2    0    0  0.89523005026E-01  0.13243796337E+02  0.14192911138E+04  0.14193881329E+04  0.10000000000E+02 0.  1.
</event>
<event>
 5    1  0.1271464E-008  0.3837482E+03  0.7957747E-01  0.3434999E+00
         13   -1    0    0    0    0  0.00000000000E+00  0.00000000000E+00  0.14999999963E+04  0.15000000000E+04  0.10566000000E+00 0. -1.
        994   -1    0    0    0    0 -0.00000000000E+00 -0.00000000000E+00  0.11368683772E-12  0.17120000000E+03  0.17120000000E+03 0.  0.
         13    1    1    2    0    0  0.22189031816E+02  0.12057842275E+02  0.14632203793E+03  0.14848533477E+03  0.10566000000E+00 0. -1.
        994    1    1    2    0    0 -0.74265129467E+01 -0.90289384249E+01  0.27043624910E+01  0.17162001165E+03  0.17120000000E+03 0.  0.
        998    1    1    2    0    0 -0.14762518869E+02 -0.30289038500E+01  0.13509735959E+04  0.13510946536E+04  0.10000000000E+02 0. -1.
</event>
<event>
 5    1  0.1271464E-008  0.3782944E+03  0.7957747E-01  0.3458619E+00
         13   -1    0    0    0    0  0.00000000000E+00  0.00000000000E+00  0.14999999963E+04  0.15000000000E+04  0.10566000000E+00 0.  1.
        994   -1    0    0    0    0 -0.00000000000E+00 -0.00000000000E+00  0.11368683772E-12  0.17120000000E+03  0.17120000000E+03 0.  0.
         13    1    1    2    0    0 -0.25283342372E+01  0.29211014942E+02  0.98866290223E+02  0.10312240481E+03  0.10566000000E+00 0.  1.
        994    1    1    2    0    0 -0.19580546148E+02  0.13386014502E+02  0.68902508142E+01  0.17297253750E+03  0.17120000000E+03 0.  0.
        998    1    1    2    0    0  0.22108880386E+02 -0.42597029444E+02  0.13942434552E+04  0.13951050577E+04  0.10000000000E+02 0.  1.
</event>
<event>
 5    1  0.1271464E-008  0.3780589E+03  0.7957747E-01  0.3459654E+00
         13   -1    0    0    0    0  0.00000000000E+00  0.00000000000E+00  0.14999999963E+04  0.15000000000E+04  0.10566000000E+00 0.  1.
        994   -1    0    0    0    0 -0.00000000000E+00 -0.00000000000E+00  0.11368683772E-12  0.17120000000E+03  0.17120000000E+03 0.  0.
         13    1    1    2    0    0 -0.49377882934E+01 -0.10906528798E+02  0.11672811896E+02  0.16721238747E+02  0.10566000000E+00 0.  1.
        994    1    1    2    0    0  0.35568760023E+01  0.10590517595E+02  0.55362509985E+01  0.17165343138E+03  0.17120000000E+03 0.  0.
        998    1    1    2    0    0  0.13809122911E+01  0.31601120277E+00  0.14827909334E+04  0.14828253299E+04  0.10000000000E+02 0.  0.
</event>
<event>
 5    1  0.1271464E-008  0.3706233E+03  0.7957747E-01  0.3493031E+00
         13   -1    0    0    0    0  0.00000000000E+00  0.00000000000E+00  0.14999999963E+04  0.15000000000E+04  0.10566000000E+00 0.  1.
        994   -1    0    0    0    0 -0.00000000000E+00 -0.00000000000E+00  0.11368683772E-12  0.17120000000E+03  0.17120000000E+03 0.  0.
         13    1    1    2    0    0 -0.58203904857E+02 -0.75751384056E+02  0.37130090037E+03  0.38339318787E+03  0.10566000000E+00 0.  1.
        994    1    1    2    0    0  0.54381320327E+02  0.81108669670E+02  0.42602364455E+02  0.20164410667E+03  0.17120000000E+03 0.  0.
        998    1    1    2    0    0  0.38225845303E+01 -0.53572856134E+01  0.10860967315E+04  0.10861627055E+04  0.10000000000E+02 0.  0.
</event>
<event>
 5    1  0.1271464E-008  0.3766365E+03  0.7957747E-01  0.3465936E+00
         13   -1    0    0    0    0  0.00000000000E+00  0.00000000000E+00  0.14999999963E+04  0.15000000000E+04  0.10566000000E+00 0. -1.
        994   -1    0    0    0    0 -0.00000000000E+00 -0.00000000000E+00  0.11368683772E-12  0.17120000000E+03  0.17120000000E+03 0.  0.
         13    1    1    2    0    0  0.33295373629E+01 -0.15574599976E+02  0.19478555115E+02  0.25161066290E+02  0.10566000000E+00 0. -1.
        994    1    1    2    0    0 -0.87198867941E+01  0.38741700336E+01  0.61486018607E+01  0.17157590426E+03  0.17120000000E+03 0.  0.
        998    1    1    2    0    0  0.53903494311E+01  0.11700429942E+02  0.14743728393E+04  0.14744630294E+04  0.10000000000E+02 0. -1.
</event>
<event>
 5    1  0.1271464E-008  0.3815492E+03  0.7957747E-01  0.3444440E+00
         13   -1    0    0    0    0  0.00000000000E+00  0.00000000000E+00  0.14999999963E+04  0.15000000000E+04  0.10566000000E+00 0.  1.
        994   -1    0    0    0    0 -0.00000000000E+00 -0.00000000000E+00  0.11368683772E-12  0.17120000000E+03  0.17120000000E+03 0.  0.
         13    1    1    2    0    0  0.19616323222E+02 -0.13173849135E+01  0.62050758893E+02  0.65091039960E+02  0.10566000000E+00 0.  1.
        994    1    1    2    0    0  0.87541343859E+01  0.12074090910E+02  0.40932231130E+01  0.17189710008E+03  0.17120000000E+03 0.  0.
        998    1    1    2    0    0 -0.28370457608E+02 -0.10756705997E+02  0.14338560143E+04  0.14342118600E+04  0.10000000000E+02 0.  1.
</event>
<event>
 5    1  0.1271464E-008  0.3826481E+03  0.7957747E-01  0.3439709E+00
         13   -1    0    0    0    0  0.00000000000E+00  0.00000000000E+00  0.14999999963E+04  0.15000000000E+04  0.10566000000E+00 0. -1.
        994   -1    0    0    0    0 -0.00000000000E+00 -0.00000000000E+00  0.11368683772E-12  0.17120000000E+03  0.17120000000E+03 0.  0.
         13    1    1    2    0    0  0.52170146691E+02 -0.32853801660E+02  0.11150691046E+03  0.12741624204E+03  0.10566000000E+00 0. -1.
        994    1    1    2    0    0  0.17464026340E+02  0.46306144470E+02  0.26806165054E+02  0.18021448809E+03  0.17120000000E+03 0.  0.
        998    1    1    2    0    0 -0.69634173031E+02 -0.13452342810E+02  0.13616869208E+04  0.13635692699E+04  0.10000000000E+02 0. -1.
</event>
<event>
 5    1  0.1271464E-008  0.3821846E+03  0.7957747E-01  0.3441701E+00
         13   -1    0    0    0    0  0.00000000000E+00  0.00000000000E+00  0.14999999963E+04  0.15000000000E+04  0.10566000000E+00 0.  1.
        994   -1    0    0    0    0 -0.00000000000E+00 -0.00000000000E+00  0.11368683772E-12  0.17120000000E+03  0.17120000000E+03 0.  0.
         13    1    1    2    0    0 -0.10936199930E+02 -0.49768582983E+01  0.22069271184E+02  0.25128340217E+02  0.10566000000E+00 0.  1.
        994    1    1    2    0    0  0.16102135742E+02  0.43520994298E+01  0.39583488127E+01  0.17205617708E+03  0.17120000000E+03 0.  0.
        998    1    1    2    0    0 -0.51659358122E+01  0.62475886847E+00  0.14739723763E+04  0.14740154827E+04  0.10000000000E+02 0.  1.
</event>
<event>
 5    1  0.1271464E-008  0.3854923E+03  0.7957747E-01  0.3427587E+00
         13   -1    0    0    0    0  0.00000000000E+00  0.00000000000E+00  0.14999999963E+04  0.15000000000E+04  0.10566000000E+00 0. -1.
        994   -1    0    0    0    0 -0.00000000000E+00 -0.00000000000E+00  0.11368683772E-12  0.17120000000E+03  0.17120000000E+03 0.  0.
         13    1    1    2    0    0  0.71966287890E+01  0.12016265925E+02  0.73396714204E+02  0.74721288350E+02  0.10566000000E+00 0. -1.
        994    1    1    2    0    0 -0.43765887266E+01 -0.31424616159E+01  0.14812373552E+01  0.17129116632E+03  0.17120000000E+03 0.  0.
        998    1    1    2    0    0 -0.28200400624E+01 -0.88738043093E+01  0.14251220447E+04  0.14251875453E+04  0.10000000000E+02 0. -1.
</event>
<event>
 5    1  0.1271464E-008  0.3721871E+03  0.7957747E-01  0.3485899E+00
         13   -1    0    0    0    0  0.00000000000E+00  0.00000000000E+00  0.14999999963E+04  0.15000000000E+04  0.10566000000E+00 0. -1.
        994   -1    0    0    0    0 -0.00000000000E+00 -0.00000000000E+00  0.11368683772E-12  0.17120000000E+03  0.17120000000E+03 0.  0.
         13    1    1    2    0    0 -0.17799501839E+02  0.48750529662E+02  0.14664194465E+03  0.15555483760E+03  0.10566000000E+00 0. -1.
        994    1    1    2    0    0  0.15632285444E+02 -0.51280376635E+02  0.18058679582E+02  0.18030419098E+03  0.17120000000E+03 0.  0.
        998    1    1    2    0    0  0.21672163951E+01  0.25298469729E+01  0.13352993721E+04  0.13353409714E+04  0.10000000000E+02 0.  0.
</event>
<event>
 5    1  0.1271464E-008  0.3703479E+03  0.7957747E-01  0.3494293E+00
         13   -1    0    0    0    0  0.00000000000E+00  0.00000000000E+00  0.14999999963E+04  0.15000000000E+04  0.10566000000E+00 0. -1.
        994   -1    0    0    0    0 -0.00000000000E+00 -0.00000000000E+00  0.11368683772E-12  0.17120000000E+03  0.17120000000E+03 0.  0.
         13    1    1    2    0    0 -0.72726142355E+02 -0.51200854081E+02  0.39966079883E+03  0.40943788849E+03  0.10566000000E+00 0. -1.
        994    1    1    2    0    0  0.58108488652E+02  0.24194094934E+02  0.22896978665E+02  0.18383596578E+03  0.17120000000E+03 0.  0.
        998    1    1    2    0    0  0.14617653703E+02  0.27006759147E+02  0.10774422188E+04  0.10779261457E+04  0.10000000000E+02 0. -1.
</event>
<event>
 5    1  0.1271464E-008  0.3853203E+03  0.7957747E-01  0.3428315E+00
         13   -1    0    0    0    0  0.00000000000E+00  0.00000000000E+00  0.14999999963E+04  0.15000000000E+04  0.10566000000E+00 0. -1.
        994   -1    0    0    0    0 -0.00000000000E+00 -0.00000000000E+00  0.11368683772E-12  0.17120000000E+03  0.17120000000E+03 0.  0.
         13    1    1    2    0    0 -0.12604430909E+02 -0.11866602136E+02  0.98262031635E+02  0.99775377473E+02  0.10566000000E+00 0. -1.
        994    1    1    2    0    0  0.16959779233E+02  0.53046070684E+01  0.25092939379E+01  0.17213805368E+03  0.17120000000E+03 0.  0.
        998    1    1    2    0    0 -0.43553483241E+01  0.65619950676E+01  0.13992286707E+04  0.13992865688E+04  0.10000000000E+02 0. -1.
</event>
<event>
 5    1  0.1271464E-008  0.3847633E+03  0.7957747E-01  0.3430677E+00
         13   -1    0    0    0    0  0.00000000000E+00  0.00000000000E+00  0.14999999963E+04  0.15000000000E+04  0.10566000000E+00 0.  1.
        994   -1    0    0    0    0 -0.00000000000E+00 -0.00000000000E+00  0.11368683772E-12  0.17120000000E+03  0.17120000000E+03 0.  0.
         13    1    1    2    0    0  0.14657835721E+02  0.11372004166E+02  0.86985923533E+02  0.88942322230E+02  0.10566000000E+00 0.  1.
        994    1    1    2    0    0 -0.24145195839E+02 -0.17237987964E+02  0.46497569709E+01  0.17381369034E+03  0.17120000000E+03 0.  0.
        998    1    1    2    0    0  0.94873601184E+01  0.58659837976E+01  0.14083643158E+04  0.14084439874E+04  0.10000000000E+02 0.  1.
</event>
<event>
 5    1  0.1271464E-008  0.3829965E+03  0.7957747E-01  0.3438214E+00
         13   -1    0    0    0    0  0.00000000000E+00  0.00000000000E+00  0.14999999963E+04  0.15000000000E+04  0.10566000000E+00 0.  1.
        994   -1    0    0    0    0 -0.00000000000E+00 -0.00000000000E+00  0.11368683772E-12  0.17120000000E+03  0.17120000000E+03 0.  0.
         13    1    1    2    0    0  0.28500547415E+02  0.16341713070E+01  0.16798548762E+03  0.17039391695E+03  0.10566000000E+00 0.  1.
        994    1    1    2    0    0 -0.88152837180E+01  0.20682174926E+02  0.43030417872E+01  0.17272352983E+03  0.17120000000E+03 0.  0.
        998    1    1    2    0    0 -0.19685263697E+02 -0.22316346233E+02  0.13277114669E+04  0.13280825532E+04  0.10000000000E+02 0.  1.
</event>
<event>
 5    1  0.1271464E-008  0.3837444E+03  0.7957747E-01  0.3435015E+00
         13   -1    0    0    0    0  0.00000000000E+00  0.00000000000E+00  0.14999999963E+04  0.15000000000E+04  0.10566000000E+00 0. -1.
        994   -1    0    0    0    0 -0.00000000000E+00 -0.00000000000E+00  0.11368683772E-12  0.17120000000E+03  0.17120000000E+03 0.  0.
         13    1    1    2    0    0 -0.10993224777E+02 -0.75049146620E+01  0.39252280845E+02  0.41447888374E+02  0.10566000000E+00 0. -1.
        994    1    1    2    0    0  0.90914630214E+01 -0.33841619059E+01  0.25656066284E+01  0.17149381793E+03  0.17120000000E+03 0.  0.
        998    1    1    2    0    0  0.19017617561E+01  0.10889076568E+02  0.14581821088E+04  0.14582582937E+04  0.10000000000E+02 0. -1.
</event>
<event>
 5    1  0.1271464E-008  0.3855675E+03  0.7957747E-01  0.3427269E+00
         13   -1    0    0    0    0  0.00000000000E+00  0.00000000000E+00  0.14999999963E+04  0.15000000000E+04  0.10566000000E+00 0. -1.
        994   -1    0    0    0    0 -0.00000000000E+00 -0.00000000000E+00  0.11368683772E-12  0.17120000000E+03  0.17120000000E+03 0.  0.
         13    1    1    2    0    0 -0.10578012606E+02 -0.32761172775E+01  0.46353245493E+02  0.47657757259E+02  0.10566000000E+00 0. -1.
        994    1    1    2    0    0  0.33171480814E+01  0.62256078386E+01  0.15120287165E+01  0.17135194161E+03  0.17120000000E+03 0.  0.
        998    1    1    2    0    0  0.72608645249E+01 -0.29494905612E+01  0.14521347221E+04  0.14521903011E+04  0.10000000000E+02 0. -1.
</event>
<event>
 5    1  0.1271464E-008  0.3849732E+03  0.7957747E-01  0.3429786E+00
         13   -1    0    0    0    0  0.00000000000E+00  0.00000000000E+00  0.14999999963E+04  0.15000000000E+04  0.10566000000E+00 0.  1.
        994   -1    0    0    0    0 -0.00000000000E+00 -0.00000000000E+00  0.11368683772E-12  0.17120000000E+03  0.17120000000E+03 0.  0.
         13    1    1    2    0    0  0.11463121538E+02 -0.73788577882E+01  0.54571829392E+02  0.56248968212E+02  0.10566000000E+00 0.  1.
        994    1    1    2    0    0 -0.10238352576E+02  0.12056384921E+02  0.24666948241E+01  0.17194680824E+03  0.17120000000E+03 0.  0.
        998    1    1    2    0    0 -0.12247689619E+01 -0.46775271331E+01  0.14429614721E+04  0.14430042235E+04  0.10000000000E+02 0.  1.
</event>
<event>
 5    1  0.1271464E-008  0.3847393E+03  0.7957747E-01  0.3430779E+00
         13   -1    0    0    0    0  0.00000000000E+00  0.00000000000E+00  0.14999999963E+04  0.15000000000E+04  0.10566000000E+00 0.  1.
        994   -1    0    0    0    0 -0.00000000000E+00 -0.00000000000E+00  0.11368683772E-12  0.17120000000E+03  0.17120000000E+03 0.  0.
         13    1    1    2    0    0 -0.22271129456E+02 -0.66336753807E+01  0.13091105378E+03  0.13295760235E+03  0.10566000000E+00 0.  1.
        994    1    1    2    0    0  0.27466760743E+02  0.24955822987E+02  0.63058260378E+01  0.17528953046E+03  0.17120000000E+03 0.  0.
        998    1    1    2    0    0 -0.51956312869E+01 -0.18322147607E+02  0.13627831165E+04  0.13629528672E+04  0.10000000000E+02 0.  1.
</event>
<event>
 5    1  0.1271464E-008  0.3853420E+03  0.7957747E-01  0.3428223E+00
         13   -1    0    0    0    0  0.00000000000E+00  0.00000000000E+00  0.14999999963E+04  0.15000000000E+04  0.10566000000E+00 0. -1.
        994   -1    0    0    0    0 -0.00000000000E+00 -0.00000000000E+00  0.11368683772E-12  0.17120000000E+03  0.17120000000E+03 0.  0.
         13    1    1    2    0    0  0.10402417666E+02 -0.92173748886E+00  0.36617220280E+02  0.38077445796E+02  0.10566000000E+00 0. -1.
        994    1    1    2    0    0 -0.94473303527E+01  0.20940870346E+02  0.31960762498E+01  0.17276407904E+03  0.17120000000E+03 0.  0.
        998    1    1    2    0    0 -0.95508731307E+00 -0.20019132857E+02  0.14601866997E+04  0.14603584752E+04  0.10000000000E+02 0. -1.
</event>
<event>
 5    1  0.1271464E-008  0.3825402E+03  0.7957747E-01  0.3440172E+00
         13   -1    0    0    0    0  0.00000000000E+00  0.00000000000E+00  0.14999999963E+04  0.15000000000E+04  0.10566000000E+00 0. -1.
        994   -1    0    0    0    0 -0.00000000000E+00 -0.00000000000E+00  0.11368683772E-12  0.17120000000E+03  0.17120000000E+03 0.  0.
         13    1    1    2    0    0 -0.20502440362E+02 -0.18911091989E+02  0.15796486556E+03  0.16040850780E+03  0.10566000000E+00 0. -1.
        994    1    1    2    0    0 -0.48883000740E+01  0.10321368083E+01  0.29390919159E+01  0.17129809995E+03  0.17120000000E+03 0.  0.
        998    1    1    2    0    0  0.25390740436E+02  0.17878955181E+02  0.13390960388E+04  0.13394933922E+04  0.10000000000E+02 0. -1.
</event>
<event>
 5    1  0.1271464E-008  0.3794134E+03  0.7957747E-01  0.3453717E+00
         13   -1    0    0    0    0  0.00000000000E+00  0.00000000000E+00  0.14999999963E+04  0.15000000000E+04  0.10566000000E+00 0. -1.
        994   -1    0    0    0    0 -0.00000000000E+00 -0.00000000000E+00  0.11368683772E-12  0.17120000000E+03  0.17120000000E+03 0.  0.
         13    1    1    2    0    0  0.20037285030E+02 -0.30081550346E+02  0.20388600655E+03  0.20706498326E+03  0.10566000000E+00 0. -1.
        994    1    1    2    0    0  0.18050053289E+02 -0.14769870834E+02  0.62535980515E+01  0.17289447937E+03  0.17120000000E+03 0.  0.
        998    1    1    2    0    0 -0.38087338319E+02  0.44851421180E+02  0.12898603917E+04  0.12912405374E+04  0.10000000000E+02 0. -1.
</event>
<event>
 5    1  0.1271464E-008  0.3857838E+03  0.7957747E-01  0.3426355E+00
         13   -1    0    0    0    0  0.00000000000E+00  0.00000000000E+00  0.14999999963E+04  0.15000000000E+04  0.10566000000E+00 0.  1.
        994   -1    0    0    0    0 -0.00000000000E+00 -0.00000000000E+00  0.11368683772E-12  0.17120000000E+03  0.17120000000E+03 0.  0.
         13    1    1    2    0    0  0.14341492783E+02  0.16564827582E+01  0.81679561261E+02  0.82945670425E+02  0.10566000000E+00 0.  1.
        994    1    1    2    0    0 -0.13112539631E+02 -0.78391370363E+01  0.20074379664E+01  0.17189200264E+03  0.17120000000E+03 0.  0.
        998    1    1    2    0    0 -0.12289531525E+01  0.61826542781E+01  0.14163129971E+04  0.14163623269E+04  0.10000000000E+02 0.  1.
</event>
<event>
 5    1  0.1271464E-008  0.3813000E+03  0.7957747E-01  0.3445517E+00
         13   -1    0    0    0    0  0.00000000000E+00  0.00000000000E+00  0.14999999963E+04  0.15000000000E+04  0.10566000000E+00 0. -1.
        994   -1    0    0    0    0 -0.00000000000E+00 -0.00000000000E+00  0.11368683772E-12  0.17120000000E+03  0.17120000000E+03 0.  0.
         13    1    1    2    0    0 -0.11631389019E+02  0.19816643064E+02  0.83278934936E+02  0.86390860170E+02  0.10566000000E+00 0. -1.
        994    1    1    2    0    0 -0.32625871776E+01  0.58125562178E+01  0.36262543170E+01  0.17136808339E+03  0.17120000000E+03 0.  0.
        998    1    1    2    0    0  0.14893976196E+02 -0.25629199282E+02  0.14130948070E+04  0.14134410564E+04  0.10000000000E+02 0. -1.
</event>
<event>
 5    1  0.1271464E-008  0.3744967E+03  0.7957747E-01  0.3475477E+00
         13   -1    0    0    0    0  0.00000000000E+00  0.00000000000E+00  0.14999999963E+04  0.15000000000E+04  0.10566000000E+00 0.  1.
        994   -1    0    0    0    0 -0.00000000000E+00 -0.00000000000E+00  0.11368683772E-12  0.17120000000E+03  0.17120000000E+03 0.  0.
         13    1    1    2    0    0 -0.67255936831E+02 -0.22389346855E+02  0.31088535390E+03  0.31886416908E+03  0.10566000000E+00 0.  1.
        994    1    1    2    0    0 -0.27146667981E+02 -0.47028287840E+02  0.23884969918E+02  0.18118645984E+03  0.17120000000E+03 0.  0.
        998    1    1    2    0    0  0.94402604812E+02  0.69417634695E+02  0.11652296725E+04  0.11711493711E+04  0.10000000000E+02 0.  1.
</event>
<event>
 5    1  0.1271464E-008  0.3851944E+03  0.7957747E-01  0.3428848E+00
         13   -1    0    0    0    0  0.00000000000E+00  0.00000000000E+00  0.14999999963E+04  0.15000000000E+04  0.10566000000E+00 0. -1.
        994   -1    0    0    0    0 -0.00000000000E+00 -0.00000000000E+00  0.11368683772E-12  0.17120000000E+03  0.17120000000E+03 0.  0.
         13    1    1    2    0    0  0.88439019737E+01  0.10753211015E+02  0.61121752179E+02  0.62687525894E+02  0.10566000000E+00 0. -1.
        994    1    1    2    0    0 -0.50848547000E+01 -0.15065179199E+02  0.23650076005E+01  0.17195304194E+03  0.17120000000E+03 0.  0.
        998    1    1    2    0    0 -0.37590472737E+01  0.43119681843E+01  0.14365132365E+04  0.14365594322E+04  0.10000000000E+02 0. -1.
</event>
<event>
 5    1  0.1271464E-008  0.3767481E+03  0.7957747E-01  0.3465441E+00
         13   -1    0    0    0    0  0.00000000000E+00  0.00000000000E+00  0.14999999963E+04  0.15000000000E+04  0.10566000000E+00 0. -1.
        994   -1    0    0    0    0 -0.00000000000E+00 -0.00000000000E+00  0.11368683772E-12  0.17120000000E+03  0.17120000000E+03 0.  0.
         13    1    1    2    0    0 -0.10996764487E+02  0.50316056122E+02  0.21970011091E+03  0.22565634099E+03  0.10566000000E+00 0. -1.
        994    1    1    2    0    0 -0.81275714025E+01 -0.37690512939E+02  0.10824013866E+02  0.17582158985E+03  0.17120000000E+03 0.  0.
        998    1    1    2    0    0  0.19124335889E+02 -0.12625543183E+02  0.12694758715E+04  0.12697220692E+04  0.10000000000E+02 0. -1.
</event>
<event>
 5    1  0.1271464E-008  0.3770349E+03  0.7957747E-01  0.3464172E+00
         13   -1    0    0    0    0  0.00000000000E+00  0.00000000000E+00  0.14999999963E+04  0.15000000000E+04  0.10566000000E+00 0.  1.
        994   -1    0    0    0    0 -0.00000000000E+00 -0.00000000000E+00  0.11368683772E-12  0.17120000000E+03  0.17120000000E+03 0.  0.
         13    1    1    2    0    0  0.33686567463E+02 -0.74706023885E+02  0.46335599862E+03  0.47054709377E+03  0.10566000000E+00 0.  1.
        994    1    1    2    0    0 -0.21433103750E+02  0.68250981090E+02  0.23114427885E+02  0.18697938692E+03  0.17120000000E+03 0.  0.
        998    1    1    2    0    0 -0.12253463713E+02  0.64550427950E+01  0.10135295698E+04  0.10136735193E+04  0.10000000000E+02 0.  0.
</event>
<event>
 5    1  0.1271464E-008  0.3358702E+03  0.7957747E-01  0.3669130E+00
         13   -1    0    0    0    0  0.00000000000E+00  0.00000000000E+00  0.14999999963E+04  0.15000000000E+04  0.10566000000E+00 0.  1.
        994   -1    0    0    0    0 -0.00000000000E+00 -0.00000000000E+00  0.11368683772E-12  0.17120000000E+03  0.17120000000E+03 0.  0.
         13    1    1    2    0    0 -0.21057682948E+03 -0.20161323822E+02  0.93400539060E+03  0.95766129760E+03  0.10566000000E+00 0.  1.
        994    1    1    2    0    0  0.17607962569E+03  0.20676410841E+02  0.13492077650E+03  0.28097082496E+03  0.17120000000E+03 0.  0.
        998    1    1    2    0    0  0.34497203795E+02 -0.51508701953E+00  0.43107382919E+03  0.43256787744E+03  0.10000000000E+02 0. -1.
</event>
<event>
 5    1  0.1271464E-008  0.3847009E+03  0.7957747E-01  0.3430942E+00
         13   -1    0    0    0    0  0.00000000000E+00  0.00000000000E+00  0.14999999963E+04  0.15000000000E+04  0.10566000000E+00 0. -1.
        994   -1    0    0    0    0 -0.00000000000E+00 -0.00000000000E+00  0.11368683772E-12  0.17120000000E+03  0.17120000000E+03 0.  0.
         13    1    1    2    0    0  0.42504245763E+01 -0.10612139020E+02  0.37252997608E+02  0.38967686594E+02  0.10566000000E+00 0. -1.
        994    1    1    2    0    0  0.61866546915E+01  0.58588585924E+01  0.20177125834E+01  0.17142377923E+03  0.17120000000E+03 0.  0.
        998    1    1    2    0    0 -0.10437079268E+02  0.47532804279E+01  0.14607292861E+04  0.14608085342E+04  0.10000000000E+02 0. -1.
</event>
<event>
 5    1  0.1271464E-008  0.3770068E+03  0.7957747E-01  0.3464296E+00
         13   -1    0    0    0    0  0.00000000000E+00  0.00000000000E+00  0.14999999963E+04  0.15000000000E+04  0.10566000000E+00 0.  1.
        994   -1    0    0    0    0 -0.00000000000E+00 -0.00000000000E+00  0.11368683772E-12  0.17120000000E+03  0.17120000000E+03 0.  0.
         13    1    1    2    0    0  0.18490992702E+01  0.45526924052E+02  0.17718323918E+03  0.18294816586E+03  0.10566000000E+00 0.  1.
        994    1    1    2    0    0 -0.55410890663E+00 -0.30761065141E+02  0.88542770424E+01  0.17416770191E+03  0.17120000000E+03 0.  0.
        998    1    1    2    0    0 -0.12949903636E+01 -0.14765858911E+02  0.13139624801E+04  0.13140841322E+04  0.10000000000E+02 0.  1.
</event>
<event>
 5    1  0.1271464E-008  0.3807995E+03  0.7957747E-01  0.3447685E+00
         13   -1    0    0    0    0  0.00000000000E+00  0.00000000000E+00  0.14999999963E+04  0.15000000000E+04  0.10566000000E+00 0. -1.
        994   -1    0    0    0    0 -0.00000000000E+00 -0.00000000000E+00  0.11368683772E-12  0.17120000000E+03  0.17120000000E+03 0.  0.
         13    1    1    2    0    0 -0.19028551622E+01 -0.13929108107E+02  0.25384358577E+02  0.29017541847E+02  0.10566000000E+00 0. -1.
        994    1    1    2    0    0  0.51108620315E+02 -0.26600885470E+01  0.12512500576E+02  0.17912333687E+03  0.17120000000E+03 0.  0.
        998    1    1    2    0    0 -0.49205765153E+02  0.16589196654E+02  0.14621031371E+04  0.14630591213E+04  0.10000000000E+02 0. -1.
</event>
<event>
 5    1  0.1271464E-008  0.3837833E+03  0.7957747E-01  0.3434849E+00
         13   -1    0    0    0    0  0.00000000000E+00  0.00000000000E+00  0.14999999963E+04  0.15000000000E+04  0.10566000000E+00 0. -1.
        994   -1    0    0    0    0 -0.00000000000E+00 -0.00000000000E+00  0.11368683772E-12  0.17120000000E+03  0.17120000000E+03 0.  0.
         13    1    1    2    0    0  0.89970182665E+01  0.16862131240E+02  0.83124864764E+02  0.85293798800E+02  0.10566000000E+00 0. -1.
        994    1    1    2    0    0 -0.58243400587E+01 -0.64313418300E+01  0.24840304292E+01  0.17143773068E+03  0.17120000000E+03 0.  0.
        998    1    1    2    0    0 -0.31726782077E+01 -0.10430789410E+02  0.14143911011E+04  0.14144684705E+04  0.10000000000E+02 0. -1.
</event>
<event>
 5    1  0.1271464E-008  0.3848069E+03  0.7957747E-01  0.3430492E+00
         13   -1    0    0    0    0  0.00000000000E+00  0.00000000000E+00  0.14999999963E+04  0.15000000000E+04  0.10566000000E+00 0. -1.
        994   -1    0    0    0    0 -0.00000000000E+00 -0.00000000000E+00  0.11368683772E-12  0.17120000000E+03  0.17120000000E+03 0.  0.
         13    1    1    2    0    0  0.18494315999E+02  0.20204616274E+01  0.10438411927E+03  0.10602913519E+03  0.10566000000E+00 0. -1.
        994    1    1    2    0    0 -0.69182263375E+01  0.20573114369E+01  0.18975081187E+01  0.17136258321E+03  0.17120000000E+03 0.  0.
        998    1    1    2    0    0 -0.11576089661E+02 -0.40777730644E+01  0.13937183689E+04  0.13938082816E+04  0.10000000000E+02 0. -1.
</event>
<event>
 5    1  0.1271464E-008  0.3845327E+03  0.7957747E-01  0.3431656E+00
         13   -1    0    0    0    0  0.00000000000E+00  0.00000000000E+00  0.14999999963E+04  0.15000000000E+04  0.10566000000E+00 0. -1.
        994   -1    0    0    0    0 -0.00000000000E+00 -0.00000000000E+00  0.11368683772E-12  0.17120000000E+03  0.17120000000E+03 0.  0.
         13    1    1    2    0    0 -0.85697073932E+00  0.14813057574E+02  0.59901125751E+02  0.61711563777E+02  0.10566000000E+00 0. -1.
        994    1    1    2    0    0 -0.26021174678E-01 -0.68011543434E+01  0.20146766906E+01  0.17134688588E+03  0.17120000000E+03 0.  0.
        998    1    1    2    0    0  0.88299191399E+00 -0.80119032304E+01  0.14380841938E+04  0.14381415503E+04  0.10000000000E+02 0. -1.
</event>
<event>
 5    1  0.1271464E-008  0.3806629E+03  0.7957747E-01  0.3448277E+00
         13   -1    0    0    0    0  0.00000000000E+00  0.00000000000E+00  0.14999999963E+04  0.15000000000E+04  0.10566000000E+00 0.  1.
        994   -1    0    0    0    0 -0.00000000000E+00 -0.00000000000E+00  0.11368683772E-12  0.17120000000E+03  0.17120000000E+03 0.  0.
         13    1    1    2    0    0  0.85827827769E+01 -0.13595639927E+02  0.32762708748E+02  0.36495367292E+02  0.10566000000E+00 0.  1.
        994    1    1    2    0    0 -0.13854094357E+01  0.97150895199E+01  0.41201932539E+01  0.17153051716E+03  0.17120000000E+03 0.  0.
        998    1    1    2    0    0 -0.71973733411E+01  0.38805504071E+01  0.14631170943E+04  0.14631741156E+04  0.10000000000E+02 0.  1.
</event>
<event>
 5    1  0.1271464E-008  0.3848219E+03  0.7957747E-01  0.3430428E+00
         13   -1    0    0    0    0  0.00000000000E+00  0.00000000000E+00  0.14999999963E+04  0.15000000000E+04  0.10566000000E+00 0.  1.
        994   -1    0    0    0    0 -0.00000000000E+00 -0.00000000000E+00  0.11368683772E-12  0.17120000000E+03  0.17120000000E+03 0.  0.
         13    1    1    2    0    0  0.43164186443E+01 -0.15653709610E+02  0.91868880634E+02  0.93292939108E+02  0.10566000000E+00 0.  1.
        994    1    1    2    0    0  0.18204071838E+02 -0.83675578363E+01  0.30405397341E+01  0.17239515404E+03  0.17120000000E+03 0.  0.
        998    1    1    2    0    0 -0.22520490482E+02  0.24021267446E+02  0.14050905759E+04  0.14055119068E+04  0.10000000000E+02 0.  1.
</event>
<event>
 5    1  0.1271464E-008  0.3831563E+03  0.7957747E-01  0.3437529E+00
         13   -1    0    0    0    0  0.00000000000E+00  0.00000000000E+00  0.14999999963E+04  0.15000000000E+04  0.10566000000E+00 0.  1.
        994   -1    0    0    0    0 -0.00000000000E+00 -0.00000000000E+00  0.11368683772E-12  0.17120000000E+03  0.17120000000E+03 0.  0.
         13    1    1    2    0    0  0.14470518880E+02  0.28159544649E+02  0.17649521982E+03  0.17931238009E+03  0.10566000000E+00 0.  1.
        994    1    1    2    0    0 -0.18728634532E+02 -0.25262037261E+02  0.58269470042E+01  0.17416177993E+03  0.17120000000E+03 0.  0.
        998    1    1    2    0    0  0.42581156515E+01 -0.28975073877E+01  0.13176778295E+04  0.13177258400E+04  0.10000000000E+02 0.  1.
</event>
<event>
 5    1  0.1271464E-008  0.3729542E+03  0.7957747E-01  0.3482423E+00
         13   -1    0    0    0    0  0.00000000000E+00  0.00000000000E+00  0.14999999963E+04  0.15000000000E+04  0.10566000000E+00 0. -1.
        994   -1    0    0    0    0 -0.00000000000E+00 -0.00000000000E+00  0.11368683772E-12  0.17120000000E+03  0.17120000000E+03 0.  0.
         13    1    1    2    0    0  0.54924811425E+01  0.38660083919E+02  0.88556166644E+02  0.96783135165E+02  0.10566000000E+00 0. -1.
        994    1    1    2    0    0  0.88401151168E+01 -0.46877275738E+02  0.15562502830E+02  0.17840195658E+03  0.17120000000E+03 0.  0.
        998    1    1    2    0    0 -0.14332596259E+02  0.82171918192E+01  0.13958813268E+04  0.13960149083E+04  0.10000000000E+02 0. -1.
</event>
<event>
 5    1  0.1271464E-008  0.3804787E+03  0.7957747E-01  0.3449077E+00
         13   -1    0    0    0    0  0.00000000000E+00  0.00000000000E+00  0.14999999963E+04  0.15000000000E+04  0.10566000000E+00 0. -1.
        994   -1    0    0    0    0 -0.00000000000E+00 -0.00000000000E+00  0.11368683772E-12  0.17120000000E+03  0.17120000000E+03 0.  0.
         13    1    1    2    0    0  0.26299567348E+02  0.73433154500E+01  0.15076755718E+02  0.31191525315E+02  0.10566000000E+00 0. -1.
        994    1    1    2    0    0 -0.34036092376E+02  0.68529902998E+01  0.20978383891E+02  0.17594019339E+03  0.17120000000E+03 0.  0.
        998    1    1    2    0    0  0.77365250283E+01 -0.14196305750E+02  0.14639448567E+04  0.14640682813E+04  0.10000000000E+02 0. -1.
</event>
<event>
 5    1  0.1271464E-008  0.3829142E+03  0.7957747E-01  0.3438567E+00
         13   -1    0    0    0    0  0.00000000000E+00  0.00000000000E+00  0.14999999963E+04  0.15000000000E+04  0.10566000000E+00 0.  1.
        994   -1    0    0    0    0 -0.00000000000E+00 -0.00000000000E+00  0.11368683772E-12  0.17120000000E+03  0.17120000000E+03 0.  0.
         13    1    1    2    0    0 -0.16043675371E+02  0.14763935370E+02  0.82716113072E+02  0.85541450963E+02  0.10566000000E+00 0.  1.
        994    1    1    2    0    0  0.19186906978E+02 -0.16436628297E+02  0.47855287353E+01  0.17312030913E+03  0.17120000000E+03 0.  0.
        998    1    1    2    0    0 -0.31432316065E+01  0.16726929269E+01  0.14124983545E+04  0.14125382399E+04  0.10000000000E+02 0.  1.
</event>
<event>
 5    1  0.1271464E-008  0.3704273E+03  0.7957747E-01  0.3493929E+00
         13   -1    0    0    0    0  0.00000000000E+00  0.00000000000E+00  0.14999999963E+04  0.15000000000E+04  0.10566000000E+00 0.  1.
        994   -1    0    0    0    0 -0.00000000000E+00 -0.00000000000E+00  0.11368683772E-12  0.17120000000E+03  0.17120000000E+03 0.  0.
         13    1    1    2    0    0 -0.46935498516E+02 -0.74198575708E+02  0.35235114647E+03  0.36312492512E+03  0.10566000000E+00 0.  1.
        994    1    1    2    0    0  0.43915757131E+02  0.62221802602E+02  0.29346376634E+02  0.18965968540E+03  0.17120000000E+03 0.  0.
        998    1    1    2    0    0  0.30197413855E+01  0.11976773106E+02  0.11183024732E+04  0.11184153895E+04  0.10000000000E+02 0.  1.
</event>
<event>
 5    1  0.1271464E-008  0.3849005E+03  0.7957747E-01  0.3430094E+00
         13   -1    0    0    0    0  0.00000000000E+00  0.00000000000E+00  0.14999999963E+04  0.15000000000E+04  0.10566000000E+00 0.  1.
        994   -1    0    0    0    0 -0.00000000000E+00 -0.00000000000E+00  0.11368683772E-12  0.17120000000E+03  0.17120000000E+03 0.  0.
         13    1    1    2    0    0 -0.14532246575E+02 -0.45203671295E+01  0.72776897096E+02  0.74351246287E+02  0.10566000000E+00 0.  1.
        994    1    1    2    0    0  0.56228393146E+01 -0.11277038258E+02  0.22020858867E+01  0.17167724688E+03  0.17120000000E+03 0.  0.
        998    1    1    2    0    0  0.89094072605E+01  0.15797405388E+02  0.14250210133E+04  0.14251715068E+04  0.10000000000E+02 0.  1.
</event>
<event>
 5    1  0.1271464E-008  0.3834722E+03  0.7957747E-01  0.3436178E+00
         13   -1    0    0    0    0  0.00000000000E+00  0.00000000000E+00  0.14999999963E+04  0.15000000000E+04  0.10566000000E+00 0. -1.
        994   -1    0    0    0    0 -0.00000000000E+00 -0.00000000000E+00  0.11368683772E-12  0.17120000000E+03  0.17120000000E+03 0.  0.
         13    1    1    2    0    0 -0.12548800748E+02  0.16898898403E+01  0.30130178358E+02  0.32682823315E+02  0.10566000000E+00 0. -1.
        994    1    1    2    0    0  0.34557896911E+02  0.21773909909E+02  0.79241337185E+01  0.17618337971E+03  0.17120000000E+03 0.  0.
        998    1    1    2    0    0 -0.22009096163E+02 -0.23463799750E+02  0.14619456842E+04  0.14623337970E+04  0.10000000000E+02 0. -1.
</event>
<event>
 5    1  0.1271464E-008  0.3794581E+03  0.7957747E-01  0.3453521E+00
         13   -1    0    0    0    0  0.00000000000E+00  0.00000000000E+00  0.14999999963E+04  0.15000000000E+04  0.10566000000E+00 0.  1.
        994   -1    0    0    0    0 -0.00000000000E+00 -0.00000000000E+00  0.11368683772E-12  0.17120000000E+03  0.17120000000E+03 0.  0.
         13    1    1    2    0    0 -0.62849600913E+01 -0.11190738743E+02  0.16974192711E+02  0.21280689350E+02  0.10566000000E+00 0.  1.
        994    1    1    2    0    0  0.63946414770E+01  0.24298055370E+01  0.45636533924E+01  0.17139738133E+03  0.17120000000E+03 0.  0.
        998    1    1    2    0    0 -0.10968138565E+00  0.87609332059E+01  0.14784621502E+04  0.14785219293E+04  0.10000000000E+02 0.  1.
</event>
<event>
 5    1  0.2272646E-008  0.3859666E+03  0.7957747E-01  0.3425583E+00
         13   -1    0    0    0    0  0.00000000000E+00  0.00000000000E+00  0.14999999963E+04  0.15000000000E+04  0.10566000000E+00 0.  1.
        994   -1    0    0    0    0 -0.00000000000E+00 -0.00000000000E+00  0.11368683772E-12  0.17120000000E+03  0.17120000000E+03 0.  0.
         13    1    1    2    0    0  0.10144169621E+02 -0.10531050929E+01  0.44376479761E+02  0.45533463823E+02  0.10566000000E+00 0.  1.
        994    1    1    2    0    0 -0.11344865270E+02  0.26590491130E+01  0.15962595065E+01  0.17160350974E+03  0.17120000000E+03 0.  0.
        998    1    1    2    0    0  0.12006956482E+01 -0.16059440201E+01  0.14540272570E+04  0.14540630264E+04  0.10000000000E+02 0.  1.
</event>
<event>
 5    1  0.1271464E-008  0.3849724E+03  0.7957747E-01  0.3429789E+00
         13   -1    0    0    0    0  0.00000000000E+00  0.00000000000E+00  0.14999999963E+04  0.15000000000E+04  0.10566000000E+00 0. -1.
        994   -1    0    0    0    0 -0.00000000000E+00 -0.00000000000E+00  0.11368683772E-12  0.17120000000E+03  0.17120000000E+03 0.  0.
         13    1    1    2    0    0 -0.18411760344E+02  0.96681822916E+00  0.10052007122E+03  0.10219698400E+03  0.10566000000E+00 0. -1.
        994    1    1    2    0    0  0.14987629928E+02 -0.13276637055E+02  0.29635052022E+01  0.17239234468E+03  0.17120000000E+03 0.  0.
        998    1    1    2    0    0  0.34241304157E+01  0.12309818826E+02  0.13965164199E+04  0.13966106713E+04  0.10000000000E+02 0. -1.
</event>
<event>
 5    1  0.1271464E-008  0.3822170E+03  0.7957747E-01  0.3441562E+00
         13   -1    0    0    0    0  0.00000000000E+00  0.00000000000E+00  0.14999999963E+04  0.15000000000E+04  0.10566000000E+00 0. -1.
        994   -1    0    0    0    0 -0.00000000000E+00 -0.00000000000E+00  0.11368683772E-12  0.17120000000E+03  0.17120000000E+03 0.  0.
         13    1    1    2    0    0 -0.93521904572E+01 -0.41602349117E+01  0.16505511212E+02  0.19422000033E+02  0.10566000000E+00 0. -1.
        994    1    1    2    0    0  0.11036387325E+01 -0.46206372215E+01  0.30931069931E+01  0.17129382831E+03  0.17120000000E+03 0.  0.
        998    1    1    2    0    0  0.82485517247E+01  0.87808721332E+01  0.14804013781E+04  0.14804841717E+04  0.10000000000E+02 0. -1.
</event>
<event>
 5    1  0.1271464E-008  0.3839886E+03  0.7957747E-01  0.3433973E+00
         13   -1    0    0    0    0  0.00000000000E+00  0.00000000000E+00  0.14999999963E+04  0.15000000000E+04  0.10566000000E+00 0.  1.
        994   -1    0    0    0    0 -0.00000000000E+00 -0.00000000000E+00  0.11368683772E-12  0.17120000000E+03  0.17120000000E+03 0.  0.
         13    1    1    2    0    0  0.99944453767E+01 -0.66166183526E+00  0.22798844050E+02  0.24902312921E+02  0.10566000000E+00 0.  1.
        994    1    1    2    0    0 -0.72963524806E+01  0.48446963212E+01  0.23862586478E+01  0.17144049134E+03  0.17120000000E+03 0.  0.
        998    1    1    2    0    0 -0.26980928961E+01 -0.41830344859E+01  0.14748148936E+04  0.14748571957E+04  0.10000000000E+02 0.  1.
</event>
<event>
 5    1  0.1271464E-008  0.3791524E+03  0.7957747E-01  0.3454857E+00
         13   -1    0    0    0    0  0.00000000000E+00  0.00000000000E+00  0.14999999963E+04  0.15000000000E+04  0.10566000000E+00 0. -1.
        994   -1    0    0    0    0 -0.00000000000E+00 -0.00000000000E+00  0.11368683772E-12  0.17120000000E+03  0.17120000000E+03 0.  0.
         13    1    1    2    0    0 -0.13831724588E+01  0.17703072633E+02  0.32584922881E+02  0.37109302202E+02  0.10566000000E+00 0. -1.
        994    1    1    2    0    0 -0.40761493008E+00 -0.13679959802E+02  0.51897655361E+01  0.17182456494E+03  0.17120000000E+03 0.  0.
        998    1    1    2    0    0  0.17907873889E+01 -0.40231128314E+01  0.14622253079E+04  0.14622661329E+04  0.10000000000E+02 0. -1.
</event>
<event>
 5    1  0.1271464E-008  0.3780029E+03  0.7957747E-01  0.3459901E+00
         13   -1    0    0    0    0  0.00000000000E+00  0.00000000000E+00  0.14999999963E+04  0.15000000000E+04  0.10566000000E+00 0.  1.
        994   -1    0    0    0    0 -0.00000000000E+00 -0.00000000000E+00  0.11368683772E-12  0.17120000000E+03  0.17120000000E+03 0.  0.
         13    1    1    2    0    0  0.44536068647E+02 -0.69443194864E+01  0.22413916015E+03  0.22862646229E+03  0.10566000000E+00 0.  1.
        994    1    1    2    0    0 -0.92318544183E+01 -0.10165290519E+02  0.57794502682E+01  0.17184703173E+03  0.17120000000E+03 0.  0.
        998    1    1    2    0    0 -0.35304214228E+02  0.17109610006E+02  0.12700813859E+04  0.12707265060E+04  0.10000000000E+02 0.  1.
</event>
<event>
 5    1  0.1271464E-008  0.3842129E+03  0.7957747E-01  0.3433017E+00
         13   -1    0    0    0    0  0.00000000000E+00  0.00000000000E+00  0.14999999963E+04  0.15000000000E+04  0.10566000000E+00 0.  1.
        994   -1    0    0    0    0 -0.00000000000E+00 -0.00000000000E+00  0.11368683772E-12  0.17120000000E+03  0.17120000000E+03 0.  0.
         13    1    1    2    0    0  0.69189160665E+02  0.28644543806E+02  0.17644779019E+03  0.19168068152E+03  0.10566000000E+00 0.  1.
        994    1    1    2    0    0 -0.18239856001E+02  0.52739246736E+02  0.30213213912E+02  0.18258258074E+03  0.17120000000E+03 0.  0.
        998    1    1    2    0    0 -0.50949304665E+02 -0.81383790543E+02  0.12933389922E+04  0.12969367377E+04  0.10000000000E+02 0.  1.
</event>
<event>
 5    1  0.1271464E-008  0.3684236E+03  0.7957747E-01  0.3503167E+00
         13   -1    0    0    0    0  0.00000000000E+00  0.00000000000E+00  0.14999999963E+04  0.15000000000E+04  0.10566000000E+00 0. -1.
        994   -1    0    0    0    0 -0.00000000000E+00 -0.00000000000E+00  0.11368683772E-12  0.17120000000E+03  0.17120000000E+03 0.  0.
         13    1    1    2    0    0  0.22593184910E+02 -0.92315059490E+01  0.25025798437E+02  0.34956751249E+02  0.10566000000E+00 0. -1.
        994    1    1    2    0    0 -0.18172618027E+02  0.13095676807E+02  0.11841645524E+02  0.17306474328E+03  0.17120000000E+03 0.  0.
        998    1    1    2    0    0 -0.44205668827E+01 -0.38641708577E+01  0.14631325523E+04  0.14631785055E+04  0.10000000000E+02 0. -1.
</event>
<event>
 5    1  0.1271464E-008  0.3693064E+03  0.7957747E-01  0.3499085E+00
         13   -1    0    0    0    0  0.00000000000E+00  0.00000000000E+00  0.14999999963E+04  0.15000000000E+04  0.10566000000E+00 0. -1.
        994   -1    0    0    0    0 -0.00000000000E+00 -0.00000000000E+00  0.11368683772E-12  0.17120000000E+03  0.17120000000E+03 0.  0.
         13    1    1    2    0    0 -0.35153421617E+02  0.34333373895E+02  0.10671519049E+03  0.11748483588E+03  0.10566000000E+00 0. -1.
        994    1    1    2    0    0  0.37848495012E+02 -0.19167931791E+02  0.16876125818E+02  0.17718397728E+03  0.17120000000E+03 0.  0.
        998    1    1    2    0    0 -0.26950733950E+01 -0.15165442104E+02  0.13764086800E+04  0.13765311868E+04  0.10000000000E+02 0. -1.
</event>
<event>
 5    1  0.1271464E-008  0.3697018E+03  0.7957747E-01  0.3497263E+00
         13   -1    0    0    0    0  0.00000000000E+00  0.00000000000E+00  0.14999999963E+04  0.15000000000E+04  0.10566000000E+00 0. -1.
        994   -1    0    0    0    0 -0.00000000000E+00 -0.00000000000E+00  0.11368683772E-12  0.17120000000E+03  0.17120000000E+03 0.  0.
         13    1    1    2    0    0 -0.43267250182E+02  0.27056162828E+02  0.14900278348E+03  0.15749898899E+03  0.10566000000E+00 0. -1.
        994    1    1    2    0    0  0.12059187015E+02  0.23757674658E+01  0.99480729415E+01  0.17192868410E+03  0.17120000000E+03 0.  0.
        998    1    1    2    0    0  0.31208063168E+02 -0.29431930294E+02  0.13410491399E+04  0.13417723269E+04  0.10000000000E+02 0. -1.
</event>
<event>
 5    1  0.1271464E-008  0.3835080E+03  0.7957747E-01  0.3436025E+00
         13   -1    0    0    0    0  0.00000000000E+00  0.00000000000E+00  0.14999999963E+04  0.15000000000E+04  0.10566000000E+00 0.  1.
        994   -1    0    0    0    0 -0.00000000000E+00 -0.00000000000E+00  0.11368683772E-12  0.17120000000E+03  0.17120000000E+03 0.  0.
         13    1    1    2    0    0  0.14433291570E+02  0.10078060342E+02  0.67490099260E+02  0.69748203331E+02  0.10566000000E+00 0.  1.
        994    1    1    2    0    0 -0.23388818224E+01 -0.30787806194E+01  0.24221129594E+01  0.17126078328E+03  0.17120000000E+03 0.  0.
        998    1    1    2    0    0 -0.12094409748E+02 -0.69992797222E+01  0.14300877841E+04  0.14301910134E+04  0.10000000000E+02 0.  1.
</event>
<event>
 5    1  0.1271464E-008  0.3854435E+03  0.7957747E-01  0.3427793E+00
         13   -1    0    0    0    0  0.00000000000E+00  0.00000000000E+00  0.14999999963E+04  0.15000000000E+04  0.10566000000E+00 0.  1.
        994   -1    0    0    0    0 -0.00000000000E+00 -0.00000000000E+00  0.11368683772E-12  0.17120000000E+03  0.17120000000E+03 0.  0.
         13    1    1    2    0    0 -0.10426627618E+02  0.45383333260E+01  0.46030732907E+02  0.47414666179E+02  0.10566000000E+00 0.  1.
        994    1    1    2    0    0  0.52159200608E+01 -0.69565413241E+01  0.16583895366E+01  0.17142867189E+03  0.17120000000E+03 0.  0.
        998    1    1    2    0    0  0.52107075574E+01  0.24182079981E+01  0.14523108738E+04  0.14523566619E+04  0.10000000000E+02 0.  1.
</event>
<event>
 5    1  0.1271464E-008  0.3712732E+03  0.7957747E-01  0.3490060E+00
         13   -1    0    0    0    0  0.00000000000E+00  0.00000000000E+00  0.14999999963E+04  0.15000000000E+04  0.10566000000E+00 0.  1.
        994   -1    0    0    0    0 -0.00000000000E+00 -0.00000000000E+00  0.11368683772E-12  0.17120000000E+03  0.17120000000E+03 0.  0.
         13    1    1    2    0    0 -0.49693570631E+02 -0.53818874788E+01  0.15098276449E+03  0.15904157322E+03  0.10566000000E+00 0.  1.
        994    1    1    2    0    0  0.16175353117E+02  0.11928210613E+02  0.99968642891E+01  0.17266528763E+03  0.17120000000E+03 0.  0.
        998    1    1    2    0    0  0.33518217514E+02 -0.65463231345E+01  0.13390203675E+04  0.13394931392E+04  0.10000000000E+02 0.  1.
</event>
<event>
 5    1  0.1271464E-008  0.3769313E+03  0.7957747E-01  0.3464630E+00
         13   -1    0    0    0    0  0.00000000000E+00  0.00000000000E+00  0.14999999963E+04  0.15000000000E+04  0.10566000000E+00 0. -1.
        994   -1    0    0    0    0 -0.00000000000E+00 -0.00000000000E+00  0.11368683772E-12  0.17120000000E+03  0.17120000000E+03 0.  0.
         13    1    1    2    0    0  0.41317551699E+01  0.31982785797E+02  0.91058726370E+02  0.96600583851E+02  0.10566000000E+00 0. -1.
        994    1    1    2    0    0 -0.54157103518E+01 -0.14872092333E+02  0.65367597838E+01  0.17205428875E+03  0.17120000000E+03 0.  0.
        998    1    1    2    0    0  0.12839551820E+01 -0.17110693464E+02  0.14024045101E+04  0.14025451274E+04  0.10000000000E+02 0. -1.
</event>
<event>
 5    1  0.1271464E-008  0.3758560E+03  0.7957747E-01  0.3469403E+00
         13   -1    0    0    0    0  0.00000000000E+00  0.00000000000E+00  0.14999999963E+04  0.15000000000E+04  0.10566000000E+00 0.  1.
        994   -1    0    0    0    0 -0.00000000000E+00 -0.00000000000E+00  0.11368683772E-12  0.17120000000E+03  0.17120000000E+03 0.  0.
         13    1    1    2    0    0 -0.28051170909E+02  0.78949248836E+02  0.45660580701E+03  0.46422917426E+03  0.10566000000E+00 0.  1.
        994    1    1    2    0    0 -0.29997925610E+01 -0.75809846973E+02  0.26006345193E+02  0.18905528727E+03  0.17120000000E+03 0.  0.
        998    1    1    2    0    0  0.31050963470E+02 -0.31394018635E+01  0.10173878441E+04  0.10179155385E+04  0.10000000000E+02 0. -1.
</event>
<event>
 5    1  0.1271464E-008  0.3846346E+03  0.7957747E-01  0.3431223E+00
         13   -1    0    0    0    0  0.00000000000E+00  0.00000000000E+00  0.14999999963E+04  0.15000000000E+04  0.10566000000E+00 0. -1.
        994   -1    0    0    0    0 -0.00000000000E+00 -0.00000000000E+00  0.11368683772E-12  0.17120000000E+03  0.17120000000E+03 0.  0.
         13    1    1    2    0    0  0.10851644791E+01 -0.22041427900E+02  0.12612338502E+03  0.12803953116E+03  0.10566000000E+00 0. -1.
        994    1    1    2    0    0  0.27755427702E+02  0.24045593487E+02  0.62645010968E+01  0.17520627359E+03  0.17120000000E+03 0.  0.
        998    1    1    2    0    0 -0.28840592181E+02 -0.20041655868E+01  0.13676121102E+04  0.13679541952E+04  0.10000000000E+02 0. -1.
</event>
<event>
 5    1  0.1271464E-008  0.3789392E+03  0.7957747E-01  0.3455791E+00
         13   -1    0    0    0    0  0.00000000000E+00  0.00000000000E+00  0.14999999963E+04  0.15000000000E+04  0.10566000000E+00 0. -1.
        994   -1    0    0    0    0 -0.00000000000E+00 -0.00000000000E+00  0.11368683772E-12  0.17120000000E+03  0.17120000000E+03 0.  0.
         13    1    1    2    0    0 -0.63784507709E+00 -0.19855701688E+02  0.39775216289E+02  0.44460485048E+02  0.10566000000E+00 0. -1.
        994    1    1    2    0    0  0.43387319947E+01  0.18124006066E+02  0.58355623732E+01  0.17231017956E+03  0.17120000000E+03 0.  0.
        998    1    1    2    0    0 -0.37008869176E+01  0.17316956218E+01  0.14543892176E+04  0.14544293354E+04  0.10000000000E+02 0. -1.
</event>
<event>
 5    1  0.1271464E-008  0.3727359E+03  0.7957747E-01  0.3483411E+00
         13   -1    0    0    0    0  0.00000000000E+00  0.00000000000E+00  0.14999999963E+04  0.15000000000E+04  0.10566000000E+00 0. -1.
        994   -1    0    0    0    0 -0.00000000000E+00 -0.00000000000E+00  0.11368683772E-12  0.17120000000E+03  0.17120000000E+03 0.  0.
         13    1    1    2    0    0 -0.30483436640E+02  0.98047790794E+01  0.59992053782E+02  0.68003171126E+02  0.10566000000E+00 0. -1.
        994    1    1    2    0    0  0.30011367083E+02 -0.14040324804E+02  0.11615677331E+02  0.17476320218E+03  0.17120000000E+03 0.  0.
        998    1    1    2    0    0  0.47206955683E+00  0.42355457243E+01  0.14283922652E+04  0.14284336267E+04  0.10000000000E+02 0. -1.
</event>
<event>
 5    1  0.1271464E-008  0.3841155E+03  0.7957747E-01  0.3433432E+00
         13   -1    0    0    0    0  0.00000000000E+00  0.00000000000E+00  0.14999999963E+04  0.15000000000E+04  0.10566000000E+00 0. -1.
        994   -1    0    0    0    0 -0.00000000000E+00 -0.00000000000E+00  0.11368683772E-12  0.17120000000E+03  0.17120000000E+03 0.  0.
         13    1    1    2    0    0 -0.63573361971E+01  0.16974237220E+02  0.80198553785E+02  0.82221406252E+02  0.10566000000E+00 0. -1.
        994    1    1    2    0    0 -0.75581881924E+00 -0.10148896041E+02  0.24115793198E+01  0.17151917405E+03  0.17120000000E+03 0.  0.
        998    1    1    2    0    0  0.71131550164E+01 -0.68253411784E+01  0.14173898632E+04  0.14174594197E+04  0.10000000000E+02 0. -1.
</event>
<event>
 5    1  0.1271464E-008  0.3858250E+03  0.7957747E-01  0.3426181E+00
         13   -1    0    0    0    0  0.00000000000E+00  0.00000000000E+00  0.14999999963E+04  0.15000000000E+04  0.10566000000E+00 0.  1.
        994   -1    0    0    0    0 -0.00000000000E+00 -0.00000000000E+00  0.11368683772E-12  0.17120000000E+03  0.17120000000E+03 0.  0.
         13    1    1    2    0    0  0.42867261614E+01  0.95351465723E+01  0.46068148717E+02  0.47239607657E+02  0.10566000000E+00 0.  1.
        994    1    1    2    0    0 -0.19367680581E+02  0.41370405110E+01  0.25085955844E+01  0.17235995825E+03  0.17120000000E+03 0.  0.
        998    1    1    2    0    0  0.15080954420E+02 -0.13672187083E+02  0.14514232520E+04  0.14516004341E+04  0.10000000000E+02 0.  1.
</event>
<event>
 5    1  0.1271464E-008  0.3713296E+03  0.7957747E-01  0.3489802E+00
         13   -1    0    0    0    0  0.00000000000E+00  0.00000000000E+00  0.14999999963E+04  0.15000000000E+04  0.10566000000E+00 0.  1.
        994   -1    0    0    0    0 -0.00000000000E+00 -0.00000000000E+00  0.11368683772E-12  0.17120000000E+03  0.17120000000E+03 0.  0.
         13    1    1    2    0    0 -0.15952304787E+02 -0.59034812706E+02  0.24499983377E+03  0.25251636551E+03  0.10566000000E+00 0.  1.
        994    1    1    2    0    0 -0.14991893393E+02  0.19376151349E+02  0.10644261196E+02  0.17327126826E+03  0.17120000000E+03 0.  0.
        998    1    1    2    0    0  0.30944198181E+02  0.39658661356E+02  0.12443559013E+04  0.12454123662E+04  0.10000000000E+02 0.  1.
</event>
<event>
 5    1  0.1271464E-008  0.3749787E+03  0.7957747E-01  0.3473318E+00
         13   -1    0    0    0    0  0.00000000000E+00  0.00000000000E+00  0.14999999963E+04  0.15000000000E+04  0.10566000000E+00 0. -1.
        994   -1    0    0    0    0 -0.00000000000E+00 -0.00000000000E+00  0.11368683772E-12  0.17120000000E+03  0.17120000000E+03 0.  0.
         13    1    1    2    0    0  0.96614741317E+01 -0.57626705786E+01  0.69565509319E+01  0.13227139506E+02  0.10566000000E+00 0. -1.
        994    1    1    2    0    0  0.15965906324E+02 -0.31628643275E+02  0.10968834279E+02  0.17517144906E+03  0.17120000000E+03 0.  0.
        998    1    1    2    0    0 -0.25627380456E+02  0.37391313853E+02  0.14820746111E+04  0.14828014114E+04  0.10000000000E+02 0. -1.
</event>
<event>
 5    1  0.1271464E-008  0.3790613E+03  0.7957747E-01  0.3455256E+00
         13   -1    0    0    0    0  0.00000000000E+00  0.00000000000E+00  0.14999999963E+04  0.15000000000E+04  0.10566000000E+00 0. -1.
        994   -1    0    0    0    0 -0.00000000000E+00 -0.00000000000E+00  0.11368683772E-12  0.17120000000E+03  0.17120000000E+03 0.  0.
         13    1    1    2    0    0 -0.29374791979E+01  0.33812371607E+02  0.11641704057E+03  0.12126353020E+03  0.10566000000E+00 0. -1.
        994    1    1    2    0    0  0.14460962476E+01 -0.31394433309E+02  0.79269128178E+01  0.17424114779E+03  0.17120000000E+03 0.  0.
        998    1    1    2    0    0  0.14913829502E+01 -0.24179382983E+01  0.13756560429E+04  0.13756953220E+04  0.10000000000E+02 0. -1.
</event>
<event>
 5    1  0.1271464E-008  0.3724397E+03  0.7957747E-01  0.3484753E+00
         13   -1    0    0    0    0  0.00000000000E+00  0.00000000000E+00  0.14999999963E+04  0.15000000000E+04  0.10566000000E+00 0.  1.
        994   -1    0    0    0    0 -0.00000000000E+00 -0.00000000000E+00  0.11368683772E-12  0.17120000000E+03  0.17120000000E+03 0.  0.
         13    1    1    2    0    0  0.24670702259E+02  0.45439727225E+02  0.15258972098E+03  0.16111190667E+03  0.10566000000E+00 0.  1.
        994    1    1    2    0    0 -0.28019741025E+02 -0.37543056176E+02  0.15561982797E+02  0.17817463979E+03  0.17120000000E+03 0.  0.
        998    1    1    2    0    0  0.33490387660E+01 -0.78966710492E+01  0.13318482925E+04  0.13319134535E+04  0.10000000000E+02 0.  1.
</event>
<event>
 5    1  0.1271464E-008  0.3738918E+03  0.7957747E-01  0.3478194E+00
         13   -1    0    0    0    0  0.00000000000E+00  0.00000000000E+00  0.14999999963E+04  0.15000000000E+04  0.10566000000E+00 0. -1.
        994   -1    0    0    0    0 -0.00000000000E+00 -0.00000000000E+00  0.11368683772E-12  0.17120000000E+03  0.17120000000E+03 0.  0.
         13    1    1    2    0    0 -0.23117382568E+02 -0.25008038501E+02  0.77842608328E+02  0.84966453391E+02  0.10566000000E+00 0. -1.
        994    1    1    2    0    0  0.10599899969E+02  0.17078143286E+02  0.86286325962E+01  0.17259175576E+03  0.17120000000E+03 0.  0.
        998    1    1    2    0    0  0.12517482599E+02  0.79298952146E+01  0.14135287554E+04  0.14136417908E+04  0.10000000000E+02 0. -1.
</event>
<event>
 5    1  0.1271464E-008  0.3722394E+03  0.7957747E-01  0.3485662E+00
         13   -1    0    0    0    0  0.00000000000E+00  0.00000000000E+00  0.14999999963E+04  0.15000000000E+04  0.10566000000E+00 0. -1.
        994   -1    0    0    0    0 -0.00000000000E+00 -0.00000000000E+00  0.11368683772E-12  0.17120000000E+03  0.17120000000E+03 0.  0.
         13    1    1    2    0    0 -0.77418742602E+01 -0.12199680642E+02  0.92317294136E+01  0.17146568661E+02  0.10566000000E+00 0. -1.
        994    1    1    2    0    0  0.17130144714E+02  0.16664991188E+01  0.91202552800E+01  0.17230449249E+03  0.17120000000E+03 0.  0.
        998    1    1    2    0    0 -0.93882704539E+01  0.10533181524E+02  0.14816480116E+04  0.14817489388E+04  0.10000000000E+02 0. -1.
</event>
<event>
 5    1  0.1271464E-008  0.3795373E+03  0.7957747E-01  0.3453176E+00
         13   -1    0    0    0    0  0.00000000000E+00  0.00000000000E+00  0.14999999963E+04  0.15000000000E+04  0.10566000000E+00 0.  1.
        994   -1    0    0    0    0 -0.00000000000E+00 -0.00000000000E+00  0.11368683772E-12  0.17120000000E+03  0.17120000000E+03 0.  0.
         13    1    1    2    0    0 -0.12601704699E+02 -0.97746112565E+01  0.26966905093E+02  0.31330035443E+02  0.10566000000E+00 0.  1.
        994    1    1    2    0    0  0.13395904687E+02  0.85535175637E+01  0.52131144463E+01  0.17201520133E+03  0.17120000000E+03 0.  0.
        998    1    1    2    0    0 -0.79419998833E+00  0.12210936928E+01  0.14678199767E+04  0.14678547632E+04  0.10000000000E+02 0.  1.
</event>
<event>
 5    1  0.1271464E-008  0.3735736E+03  0.7957747E-01  0.3479627E+00
         13   -1    0    0    0    0  0.00000000000E+00  0.00000000000E+00  0.14999999963E+04  0.15000000000E+04  0.10566000000E+00 0. -1.
        994   -1    0    0    0    0 -0.00000000000E+00 -0.00000000000E+00  0.11368683772E-12  0.17120000000E+03  0.17120000000E+03 0.  0.
         13    1    1    2    0    0 -0.49300188489E+01  0.80530470304E+02  0.21047805999E+03  0.22541181565E+03  0.10566000000E+00 0. -1.
        994    1    1    2    0    0 -0.23879815436E+01 -0.84553682534E+02  0.38625640310E+02  0.19482404311E+03  0.17120000000E+03 0.  0.
        998    1    1    2    0    0  0.73180003924E+01  0.40232122299E+01  0.12508962960E+04  0.12509641412E+04  0.10000000000E+02 0. -1.
</event>
<event>
 5    1  0.1271464E-008  0.3854744E+03  0.7957747E-01  0.3427663E+00
         13   -1    0    0    0    0  0.00000000000E+00  0.00000000000E+00  0.14999999963E+04  0.15000000000E+04  0.10566000000E+00 0. -1.
        994   -1    0    0    0    0 -0.00000000000E+00 -0.00000000000E+00  0.11368683772E-12  0.17120000000E+03  0.17120000000E+03 0.  0.
         13    1    1    2    0    0  0.85444556160E+01 -0.12129701865E+02  0.87979979602E+02  0.89222336687E+02  0.10566000000E+00 0. -1.
        994    1    1    2    0    0  0.85496259262E+01  0.23170929465E+01  0.16524958998E+01  0.17143697316E+03  0.17120000000E+03 0.  0.
        998    1    1    2    0    0 -0.17094081542E+02  0.98126089189E+01  0.14103675208E+04  0.14105406902E+04  0.10000000000E+02 0. -1.
</event>
<event>
 5    1  0.1271464E-008  0.3834383E+03  0.7957747E-01  0.3436323E+00
         13   -1    0    0    0    0  0.00000000000E+00  0.00000000000E+00  0.14999999963E+04  0.15000000000E+04  0.10566000000E+00 0. -1.
        994   -1    0    0    0    0 -0.00000000000E+00 -0.00000000000E+00  0.11368683772E-12  0.17120000000E+03  0.17120000000E+03 0.  0.
         13    1    1    2    0    0 -0.32004760684E+01  0.15755047213E+02  0.55347421092E+02  0.57635169344E+02  0.10566000000E+00 0. -1.
        994    1    1    2    0    0  0.16414649944E+02  0.11653936741E+01  0.33030930391E+01  0.17202078159E+03  0.17120000000E+03 0.  0.
        998    1    1    2    0    0 -0.13214173876E+02 -0.16920440887E+02  0.14413494821E+04  0.14415440491E+04  0.10000000000E+02 0. -1.
</event>
<event>
 5    1  0.1271464E-008  0.3701534E+03  0.7957747E-01  0.3495186E+00
         13   -1    0    0    0    0  0.00000000000E+00  0.00000000000E+00  0.14999999963E+04  0.15000000000E+04  0.10566000000E+00 0.  1.
        994   -1    0    0    0    0 -0.00000000000E+00 -0.00000000000E+00  0.11368683772E-12  0.17120000000E+03  0.17120000000E+03 0.  0.
         13    1    1    2    0    0 -0.61609908639E+02 -0.91295045237E+02  0.52352565026E+03  0.53498568558E+03  0.10566000000E+00 0.  1.
        994    1    1    2    0    0  0.44707079132E+02  0.76603379249E+02  0.36888534441E+02  0.19630844253E+03  0.17120000000E+03 0.  0.
        998    1    1    2    0    0  0.16902829507E+02  0.14691665988E+02  0.93958581157E+03  0.93990587189E+03  0.10000000000E+02 0.  1.
</event>
<event>
 5    1  0.1271464E-008  0.3774459E+03  0.7957747E-01  0.3462355E+00
         13   -1    0    0    0    0  0.00000000000E+00  0.00000000000E+00  0.14999999963E+04  0.15000000000E+04  0.10566000000E+00 0. -1.
        994   -1    0    0    0    0 -0.00000000000E+00 -0.00000000000E+00  0.11368683772E-12  0.17120000000E+03  0.17120000000E+03 0.  0.
         13    1    1    2    0    0 -0.32111366014E+02  0.17224450549E+02  0.11165029638E+03  0.11744624886E+03  0.10566000000E+00 0. -1.
        994    1    1    2    0    0  0.36658395117E+02 -0.11350975834E+02  0.10409108951E+02  0.17575685516E+03  0.17120000000E+03 0.  0.
        998    1    1    2    0    0 -0.45470291027E+01 -0.58734747154E+01  0.13779405909E+04  0.13779968960E+04  0.10000000000E+02 0. -1.
</event>
<event>
 5    1  0.1271464E-008  0.3842493E+03  0.7957747E-01  0.3432862E+00
         13   -1    0    0    0    0  0.00000000000E+00  0.00000000000E+00  0.14999999963E+04  0.15000000000E+04  0.10566000000E+00 0. -1.
        994   -1    0    0    0    0 -0.00000000000E+00 -0.00000000000E+00  0.11368683772E-12  0.17120000000E+03  0.17120000000E+03 0.  0.
         13    1    1    2    0    0 -0.59962918489E+01 -0.13518701907E+02  0.56339604493E+02  0.58248373503E+02  0.10566000000E+00 0. -1.
        994    1    1    2    0    0  0.99770836094E+01 -0.13674670006E+01  0.23376777599E+01  0.17151185644E+03  0.17120000000E+03 0.  0.
        998    1    1    2    0    0 -0.39807917605E+01  0.14886168908E+02  0.14413227140E+04  0.14414397701E+04  0.10000000000E+02 0. -1.
</event>
<event>
 5    1  0.1271464E-008  0.3746708E+03  0.7957747E-01  0.3474697E+00
         13   -1    0    0    0    0  0.00000000000E+00  0.00000000000E+00  0.14999999963E+04  0.15000000000E+04  0.10566000000E+00 0.  1.
        994   -1    0    0    0    0 -0.00000000000E+00 -0.00000000000E+00  0.11368683772E-12  0.17120000000E+03  0.17120000000E+03 0.  0.
         13    1    1    2    0    0 -0.11910665881E+02 -0.42512043473E+02  0.12904529711E+03  0.13638855403E+03  0.10566000000E+00 0.  1.
        994    1    1    2    0    0  0.46848914928E+02  0.33013219332E+02  0.18109010935E+02  0.18144439853E+03  0.17120000000E+03 0.  0.
        998    1    1    2    0    0 -0.34938249047E+02  0.94988241413E+01  0.13528456882E+04  0.13533670474E+04  0.10000000000E+02 0.  1.
</event>
<event>
 5    1  0.1271464E-008  0.3805787E+03  0.7957747E-01  0.3448642E+00
         13   -1    0    0    0    0  0.00000000000E+00  0.00000000000E+00  0.14999999963E+04  0.15000000000E+04  0.10566000000E+00 0.  1.
        994   -1    0    0    0    0 -0.00000000000E+00 -0.00000000000E+00  0.11368683772E-12  0.17120000000E+03  0.17120000000E+03 0.  0.
         13    1    1    2    0    0  0.50158700800E+01  0.18794644774E+02  0.48461172779E+02  0.52219671159E+02  0.10566000000E+00 0.  1.
        994    1    1    2    0    0 -0.66662242511E-01 -0.96760172605E+01  0.41537598414E+01  0.17152353621E+03  0.17120000000E+03 0.  0.
        998    1    1    2    0    0 -0.49492078375E+01 -0.91186275130E+01  0.14473850637E+04  0.14474567926E+04  0.10000000000E+02 0.  1.
</event>
<event>
 5    1  0.1271464E-008  0.3822771E+03  0.7957747E-01  0.3441303E+00
         13   -1    0    0    0    0  0.00000000000E+00  0.00000000000E+00  0.14999999963E+04  0.15000000000E+04  0.10566000000E+00 0.  1.
        994   -1    0    0    0    0 -0.00000000000E+00 -0.00000000000E+00  0.11368683772E-12  0.17120000000E+03  0.17120000000E+03 0.  0.
         13    1    1    2    0    0 -0.62335350874E+01  0.20929495852E+02  0.82539611878E+02  0.85379736761E+02  0.10566000000E+00 0.  1.
        994    1    1    2    0    0  0.47986459676E+01 -0.41543645636E+01  0.31217338344E+01  0.17134605619E+03  0.17120000000E+03 0.  0.
        998    1    1    2    0    0  0.14348891198E+01 -0.16775131288E+02  0.14143386506E+04  0.14144742071E+04  0.10000000000E+02 0.  1.
</event>
<event>
 5    1  0.1271464E-008  0.3820434E+03  0.7957747E-01  0.3442309E+00
         13   -1    0    0    0    0  0.00000000000E+00  0.00000000000E+00  0.14999999963E+04  0.15000000000E+04  0.10566000000E+00 0.  1.
        994   -1    0    0    0    0 -0.00000000000E+00 -0.00000000000E+00  0.11368683772E-12  0.17120000000E+03  0.17120000000E+03 0.  0.
         13    1    1    2    0    0  0.50206273568E+01 -0.12635142789E+02  0.27632968490E+02  0.30796844708E+02  0.10566000000E+00 0.  1.
        994    1    1    2    0    0 -0.73514192517E+01  0.18448882785E+02  0.44158917637E+01  0.17240459606E+03  0.17120000000E+03 0.  0.
        998    1    1    2    0    0  0.23307918949E+01 -0.58137399964E+01  0.14679511360E+04  0.14679985592E+04  0.10000000000E+02 0.  1.
</event>
<event>
 5    1  0.1271464E-008  0.3833826E+03  0.7957747E-01  0.3436561E+00
         13   -1    0    0    0    0  0.00000000000E+00  0.00000000000E+00  0.14999999963E+04  0.15000000000E+04  0.10566000000E+00 0. -1.
        994   -1    0    0    0    0 -0.00000000000E+00 -0.00000000000E+00  0.11368683772E-12  0.17120000000E+03  0.17120000000E+03 0.  0.
         13    1    1    2    0    0  0.66519363630E+02 -0.19851210646E+03  0.11873565346E+04  0.12056730210E+04  0.10566000000E+00 0. -1.
        994    1    1    2    0    0 -0.77158833068E+02  0.19516752285E+03  0.16503207978E+03  0.31715749219E+03  0.17120000000E+03 0.  0.
        998    1    1    2    0    0  0.10639469438E+02  0.33445836111E+01  0.14761138192E+03  0.14836948682E+03  0.10000000000E+02 0. -1.
</event>
<event>
 5    1  0.1271464E-008  0.3695701E+03  0.7957747E-01  0.3497869E+00
         13   -1    0    0    0    0  0.00000000000E+00  0.00000000000E+00  0.14999999963E+04  0.15000000000E+04  0.10566000000E+00 0.  1.
        994   -1    0    0    0    0 -0.00000000000E+00 -0.00000000000E+00  0.11368683772E-12  0.17120000000E+03  0.17120000000E+03 0.  0.
         13    1    1    2    0    0 -0.12416990022E+02 -0.65617724642E+02  0.25958798242E+03  0.26804066708E+03  0.10566000000E+00 0.  1.
        994    1    1    2    0    0  0.59944028972E+01  0.19422210777E+02  0.10925915508E+02  0.17274828731E+03  0.17120000000E+03 0.  0.
        998    1    1    2    0    0  0.64225871245E+01  0.46195513865E+02  0.12294860984E+04  0.12304110456E+04  0.10000000000E+02 0.  1.
</event>
<event>
 5    1  0.1271464E-008  0.3864006E+03  0.7957747E-01  0.3423754E+00
         13   -1    0    0    0    0  0.00000000000E+00  0.00000000000E+00  0.14999999963E+04  0.15000000000E+04  0.10566000000E+00 0. -1.
        994   -1    0    0    0    0 -0.00000000000E+00 -0.00000000000E+00  0.11368683772E-12  0.17120000000E+03  0.17120000000E+03 0.  0.
         13    1    1    2    0    0  0.53863223497E+02  0.59730134068E+02  0.14159939926E+03  0.16284758763E+03  0.10566000000E+00 0. -1.
        994    1    1    2    0    0 -0.57961060136E+02 -0.57021179443E+02  0.44858408625E+02  0.19476297446E+03  0.17120000000E+03 0.  0.
        998    1    1    2    0    0  0.40978366386E+01 -0.27089546248E+01  0.13135421884E+04  0.13135894379E+04  0.10000000000E+02 0.  0.
</event>
<event>
 5    1  0.1271464E-008  0.4008759E+03  0.7957747E-01  0.3365010E+00
         13   -1    0    0    0    0  0.00000000000E+00  0.00000000000E+00  0.14999999963E+04  0.15000000000E+04  0.10566000000E+00 0.  1.
        994   -1    0    0    0    0 -0.00000000000E+00 -0.00000000000E+00  0.11368683772E-12  0.17120000000E+03  0.17120000000E+03 0.  0.
         13    1    1    2    0    0  0.36587554668E+02 -0.33952548534E+02  0.35963966170E+02  0.61521075537E+02  0.10566000000E+00 0.  1.
        994    1    1    2    0    0 -0.49572001806E+02 -0.42913610587E+02  0.45395250641E+02  0.18886272824E+03  0.17120000000E+03 0.  0.
        998    1    1    2    0    0  0.12984447138E+02  0.76866159121E+02  0.14186407795E+04  0.14208161962E+04  0.10000000000E+02 0.  1.
</event>
<event>
 5    1  0.1271464E-008  0.3824557E+03  0.7957747E-01  0.3440535E+00
         13   -1    0    0    0    0  0.00000000000E+00  0.00000000000E+00  0.14999999963E+04  0.15000000000E+04  0.10566000000E+00 0.  1.
        994   -1    0    0    0    0 -0.00000000000E+00 -0.00000000000E+00  0.11368683772E-12  0.17120000000E+03  0.17120000000E+03 0.  0.
         13    1    1    2    0    0  0.91300076266E+01 -0.16789456672E+02  0.64314833785E+02  0.67094350756E+02  0.10566000000E+00 0.  1.
        994    1    1    2    0    0 -0.46913517287E+01  0.32576033364E+01  0.30068224294E+01  0.17132163244E+03  0.17120000000E+03 0.  0.
        998    1    1    2    0    0 -0.44386558979E+01  0.13531853335E+02  0.14326783401E+04  0.14327840168E+04  0.10000000000E+02 0.  1.
</event>
<event>
 5    1  0.1271464E-008  0.3855604E+03  0.7957747E-01  0.3427299E+00
         13   -1    0    0    0    0  0.00000000000E+00  0.00000000000E+00  0.14999999963E+04  0.15000000000E+04  0.10566000000E+00 0. -1.
        994   -1    0    0    0    0 -0.00000000000E+00 -0.00000000000E+00  0.11368683772E-12  0.17120000000E+03  0.17120000000E+03 0.  0.
         13    1    1    2    0    0  0.49035796123E+01  0.14097275667E+02  0.81574277194E+02  0.82928596624E+02  0.10566000000E+00 0. -1.
        994    1    1    2    0    0  0.10241639911E+01 -0.12835150579E+02  0.18965698719E+01  0.17169399226E+03  0.17120000000E+03 0.  0.
        998    1    1    2    0    0 -0.59277436034E+01 -0.12621250881E+01  0.14165291492E+04  0.14165774111E+04  0.10000000000E+02 0. -1.
</event>
<event>
 5    1  0.1271464E-008  0.3861605E+03  0.7957747E-01  0.3424765E+00
         13   -1    0    0    0    0  0.00000000000E+00  0.00000000000E+00  0.14999999963E+04  0.15000000000E+04  0.10566000000E+00 0. -1.
        994   -1    0    0    0    0 -0.00000000000E+00 -0.00000000000E+00  0.11368683772E-12  0.17120000000E+03  0.17120000000E+03 0.  0.
         13    1    1    2    0    0  0.11925937085E+02  0.72720727136E+00  0.68681824262E+02  0.69713420184E+02  0.10566000000E+00 0. -1.
        994    1    1    2    0    0 -0.77903285148E+01 -0.11403459865E+01  0.12581617742E+01  0.17138556701E+03  0.17120000000E+03 0.  0.
        998    1    1    2    0    0 -0.41356085703E+01  0.41313871511E+00  0.14300600102E+04  0.14301010128E+04  0.10000000000E+02 0. -1.
</event>
<event>
 5    1  0.1271464E-008  0.3758216E+03  0.7957747E-01  0.3469557E+00
         13   -1    0    0    0    0  0.00000000000E+00  0.00000000000E+00  0.14999999963E+04  0.15000000000E+04  0.10566000000E+00 0.  1.
        994   -1    0    0    0    0 -0.00000000000E+00 -0.00000000000E+00  0.11368683772E-12  0.17120000000E+03  0.17120000000E+03 0.  0.
         13    1    1    2    0    0 -0.29762209732E+02 -0.18932573686E+01  0.72069701180E+02  0.77996323912E+02  0.10566000000E+00 0.  1.
        994    1    1    2    0    0  0.50055372773E+01  0.21858927823E+02  0.79639336762E+01  0.17284597875E+03  0.17120000000E+03 0.  0.
        998    1    1    2    0    0  0.24756672454E+02 -0.19965670454E+02  0.14199663614E+04  0.14203576973E+04  0.10000000000E+02 0.  1.
</event>
<event>
 5    1  0.1271464E-008  0.3754984E+03  0.7957747E-01  0.3470997E+00
         13   -1    0    0    0    0  0.00000000000E+00  0.00000000000E+00  0.14999999963E+04  0.15000000000E+04  0.10566000000E+00 0.  1.
        994   -1    0    0    0    0 -0.00000000000E+00 -0.00000000000E+00  0.11368683772E-12  0.17120000000E+03  0.17120000000E+03 0.  0.
         13    1    1    2    0    0  0.67418005091E+02 -0.36085834100E+02  0.19458206388E+03  0.20906832754E+03  0.10566000000E+00 0.  1.
        994    1    1    2    0    0 -0.53650874640E+02  0.26552687231E+02  0.26763021548E+02  0.18332801442E+03  0.17120000000E+03 0.  0.
        998    1    1    2    0    0 -0.13767130452E+02  0.95331468691E+01  0.12786549109E+04  0.12788036580E+04  0.10000000000E+02 0.  1.
</event>
<event>
 5    1  0.1271464E-008  0.3828076E+03  0.7957747E-01  0.3439024E+00
         13   -1    0    0    0    0  0.00000000000E+00  0.00000000000E+00  0.14999999963E+04  0.15000000000E+04  0.10566000000E+00 0.  1.
        994   -1    0    0    0    0 -0.00000000000E+00 -0.00000000000E+00  0.11368683772E-12  0.17120000000E+03  0.17120000000E+03 0.  0.
         13    1    1    2    0    0 -0.19534851950E+02 -0.15552069238E+02  0.12821282681E+03  0.13062165755E+03  0.10566000000E+00 0.  1.
        994    1    1    2    0    0 -0.36152734329E+01  0.21273149309E+01  0.27808346561E+01  0.17127395807E+03  0.17120000000E+03 0.  0.
        998    1    1    2    0    0  0.23150125383E+02  0.13424754307E+02  0.13690063348E+04  0.13693043844E+04  0.10000000000E+02 0.  1.
</event>
<event>
 5    1  0.1271464E-008  0.3820162E+03  0.7957747E-01  0.3442426E+00
         13   -1    0    0    0    0  0.00000000000E+00  0.00000000000E+00  0.14999999963E+04  0.15000000000E+04  0.10566000000E+00 0. -1.
        994   -1    0    0    0    0 -0.00000000000E+00 -0.00000000000E+00  0.11368683772E-12  0.17120000000E+03  0.17120000000E+03 0.  0.
         13    1    1    2    0    0 -0.21936932079E+02  0.90123491172E+01  0.83639084576E+02  0.86936523155E+02  0.10566000000E+00 0. -1.
        994    1    1    2    0    0  0.24911229175E+02 -0.10071290578E+02  0.55201198180E+01  0.17338371306E+03  0.17120000000E+03 0.  0.
        998    1    1    2    0    0 -0.29742970960E+01  0.10589414606E+01  0.14108407919E+04  0.14108797638E+04  0.10000000000E+02 0. -1.
</event>
<event>
 5    1  0.1271464E-008  0.3764848E+03  0.7957747E-01  0.3466609E+00
         13   -1    0    0    0    0  0.00000000000E+00  0.00000000000E+00  0.14999999963E+04  0.15000000000E+04  0.10566000000E+00 0.  1.
        994   -1    0    0    0    0 -0.00000000000E+00 -0.00000000000E+00  0.11368683772E-12  0.17120000000E+03  0.17120000000E+03 0.  0.
         13    1    1    2    0    0 -0.83911845965E+02  0.31323755880E+02  0.37218156389E+03  0.38280739705E+03  0.10566000000E+00 0.  1.
        994    1    1    2    0    0  0.89821288928E+02  0.13340740449E+03  0.11378758420E+03  0.26100278511E+03  0.17120000000E+03 0.  0.
        998    1    1    2    0    0 -0.59094429627E+01 -0.16473116037E+03  0.10140308482E+04  0.10273898178E+04  0.10000000000E+02 0.  1.
</event>
<event>
 5    1  0.1271464E-008  0.3768219E+03  0.7957747E-01  0.3465115E+00
         13   -1    0    0    0    0  0.00000000000E+00  0.00000000000E+00  0.14999999963E+04  0.15000000000E+04  0.10566000000E+00 0. -1.
        994   -1    0    0    0    0 -0.00000000000E+00 -0.00000000000E+00  0.11368683772E-12  0.17120000000E+03  0.17120000000E+03 0.  0.
         13    1    1    2    0    0  0.51822201951E+02 -0.69370677669E+01  0.27564133642E+03  0.28055627070E+03  0.10566000000E+00 0. -1.
        994    1    1    2    0    0 -0.11792300445E+02 -0.10157247712E+02  0.65648921066E+01  0.17203129320E+03  0.17120000000E+03 0.  0.
        998    1    1    2    0    0 -0.40029901505E+02  0.17094315479E+02  0.12177937678E+04  0.12186124361E+04  0.10000000000E+02 0. -1.
</event>
<event>
 5    1  0.1271464E-008  0.3818568E+03  0.7957747E-01  0.3443113E+00
         13   -1    0    0    0    0  0.00000000000E+00  0.00000000000E+00  0.14999999963E+04  0.15000000000E+04  0.10566000000E+00 0. -1.
        994   -1    0    0    0    0 -0.00000000000E+00 -0.00000000000E+00  0.11368683772E-12  0.17120000000E+03  0.17120000000E+03 0.  0.
         13    1    1    2    0    0 -0.27305534538E+02  0.16444628334E+01  0.12292116439E+03  0.12592823469E+03  0.10566000000E+00 0. -1.
        994    1    1    2    0    0  0.71903935903E+01 -0.48387466619E+01  0.34483679588E+01  0.17145391938E+03  0.17120000000E+03 0.  0.
        998    1    1    2    0    0  0.20115140948E+02  0.31942838286E+01  0.13736304639E+04  0.13738178459E+04  0.10000000000E+02 0. -1.
</event>
<event>
 5    1  0.1271464E-008  0.3833854E+03  0.7957747E-01  0.3436549E+00
         13   -1    0    0    0    0  0.00000000000E+00  0.00000000000E+00  0.14999999963E+04  0.15000000000E+04  0.10566000000E+00 0.  1.
        994   -1    0    0    0    0 -0.00000000000E+00 -0.00000000000E+00  0.11368683772E-12  0.17120000000E+03  0.17120000000E+03 0.  0.
         13    1    1    2    0    0 -0.10846823554E+02  0.50623191678E+01  0.29087434653E+02  0.31454263230E+02  0.10566000000E+00 0.  1.
        994    1    1    2    0    0  0.21086608508E+01 -0.50953207132E+01  0.25344113875E+01  0.17130753628E+03  0.17120000000E+03 0.  0.
        998    1    1    2    0    0  0.87381627031E+01  0.33001545329E-01  0.14683781502E+04  0.14684382005E+04  0.10000000000E+02 0.  1.
</event>
<event>
 5    1  0.1271464E-008  0.3843564E+03  0.7957747E-01  0.3432407E+00
         13   -1    0    0    0    0  0.00000000000E+00  0.00000000000E+00  0.14999999963E+04  0.15000000000E+04  0.10566000000E+00 0. -1.
        994   -1    0    0    0    0 -0.00000000000E+00 -0.00000000000E+00  0.11368683772E-12  0.17120000000E+03  0.17120000000E+03 0.  0.
         13    1    1    2    0    0  0.37163133526E+02 -0.16828173083E+01  0.21297455996E+03  0.21619922461E+03  0.10566000000E+00 0. -1.
        994    1    1    2    0    0 -0.75449328807E+02  0.44233108799E+02  0.27578654605E+02  0.19421429227E+03  0.17120000000E+03 0.  0.
        998    1    1    2    0    0  0.38286195282E+02 -0.42550291491E+02  0.12594467817E+04  0.12607864831E+04  0.10000000000E+02 0. -1.
</event>
<event>
 5    1  0.1271464E-008  0.3776479E+03  0.7957747E-01  0.3461464E+00
         13   -1    0    0    0    0  0.00000000000E+00  0.00000000000E+00  0.14999999963E+04  0.15000000000E+04  0.10566000000E+00 0.  1.
        994   -1    0    0    0    0 -0.00000000000E+00 -0.00000000000E+00  0.11368683772E-12  0.17120000000E+03  0.17120000000E+03 0.  0.
         13    1    1    2    0    0 -0.69536223129E+01 -0.42131859162E+02  0.20324192411E+03  0.20767940991E+03  0.10566000000E+00 0.  1.
        994    1    1    2    0    0 -0.35065144597E+01 -0.12560089449E+01  0.53719328649E+01  0.17132475263E+03  0.17120000000E+03 0.  0.
        998    1    1    2    0    0  0.10460136773E+02  0.43387868107E+02  0.12913861393E+04  0.12921958375E+04  0.10000000000E+02 0.  1.
</event>
<event>
 5    1  0.1271464E-008  0.3703540E+03  0.7957747E-01  0.3494265E+00
         13   -1    0    0    0    0  0.00000000000E+00  0.00000000000E+00  0.14999999963E+04  0.15000000000E+04  0.10566000000E+00 0.  1.
        994   -1    0    0    0    0 -0.00000000000E+00 -0.00000000000E+00  0.11368683772E-12  0.17120000000E+03  0.17120000000E+03 0.  0.
         13    1    1    2    0    0 -0.11172738090E+02 -0.39072051926E+02  0.82522443731E+02  0.91985978288E+02  0.10566000000E+00 0.  1.
        994    1    1    2    0    0  0.90752533177E+01  0.42162728379E+02  0.15535202017E+02  0.17723103111E+03  0.17120000000E+03 0.  0.
        998    1    1    2    0    0  0.20974847727E+01 -0.30906764524E+01  0.14019423505E+04  0.14019829906E+04  0.10000000000E+02 0.  0.
</event>
<event>
 5    1  0.1377278E-008  0.3862686E+03  0.7957747E-01  0.3424310E+00
         13   -1    0    0    0    0  0.00000000000E+00  0.00000000000E+00  0.14999999963E+04  0.15000000000E+04  0.10566000000E+00 0.  1.
        994   -1    0    0    0    0 -0.00000000000E+00 -0.00000000000E+00  0.11368683772E-12  0.17120000000E+03  0.17120000000E+03 0.  0.
         13    1    1    2    0    0  0.11035676751E+02  0.25437915560E+01  0.65034786836E+02  0.66013572087E+02  0.10566000000E+00 0.  1.
        994    1    1    2    0    0 -0.73857951907E+01 -0.20500821394E+01  0.11940497403E+01  0.17137566502E+03  0.17120000000E+03 0.  0.
        998    1    1    2    0    0 -0.36498815606E+01 -0.49370941657E+00  0.14337711597E+04  0.14338107629E+04  0.10000000000E+02 0.  1.
</event>
<event>
 5    1  0.1271464E-008  0.3840962E+03  0.7957747E-01  0.3433514E+00
         13   -1    0    0    0    0  0.00000000000E+00  0.00000000000E+00  0.14999999963E+04  0.15000000000E+04  0.10566000000E+00 0.  1.
        994   -1    0    0    0    0 -0.00000000000E+00 -0.00000000000E+00  0.11368683772E-12  0.17120000000E+03  0.17120000000E+03 0.  0.
         13    1    1    2    0    0  0.19994602788E+02 -0.15354783052E+02  0.13694712479E+03  0.13924826626E+03  0.10566000000E+00 0.  1.
        994    1    1    2    0    0 -0.26762255115E+02  0.12084015293E+02  0.49286381656E+01  0.17376988576E+03  0.17120000000E+03 0.  0.
        998    1    1    2    0    0  0.67676523275E+01  0.32707677593E+01  0.13581242333E+04  0.13581818480E+04  0.10000000000E+02 0.  1.
</event>
<event>
 5    1  0.1271464E-008  0.3971560E+03  0.7957747E-01  0.3379698E+00
         13   -1    0    0    0    0  0.00000000000E+00  0.00000000000E+00  0.14999999963E+04  0.15000000000E+04  0.10566000000E+00 0.  1.
        994   -1    0    0    0    0 -0.00000000000E+00 -0.00000000000E+00  0.11368683772E-12  0.17120000000E+03  0.17120000000E+03 0.  0.
         13    1    1    2    0    0 -0.29662077965E+02 -0.52677548819E+02  0.64060022148E+02  0.88082124296E+02  0.10566000000E+00 0.  1.
        994    1    1    2    0    0 -0.10877609292E+02  0.37585526509E+02  0.32036674399E+02  0.17851269617E+03  0.17120000000E+03 0.  0.
        998    1    1    2    0    0  0.40539687257E+02  0.15092022310E+02  0.14039032997E+04  0.14046051795E+04  0.10000000000E+02 0.  1.
</event>
<event>
 5    1  0.1271464E-008  0.3814931E+03  0.7957747E-01  0.3444683E+00
         13   -1    0    0    0    0  0.00000000000E+00  0.00000000000E+00  0.14999999963E+04  0.15000000000E+04  0.10566000000E+00 0. -1.
        994   -1    0    0    0    0 -0.00000000000E+00 -0.00000000000E+00  0.11368683772E-12  0.17120000000E+03  0.17120000000E+03 0.  0.
         13    1    1    2    0    0 -0.14749742703E+02 -0.21779168353E+02  0.90601695884E+02  0.94342808656E+02  0.10566000000E+00 0. -1.
        994    1    1    2    0    0  0.18418012264E+02  0.32341218115E+02  0.80028683812E+01  0.17538147983E+03  0.17120000000E+03 0.  0.
        998    1    1    2    0    0 -0.36682695608E+01 -0.10562049762E+02  0.14013954320E+04  0.14014757115E+04  0.10000000000E+02 0. -1.
</event>
<event>
 5    1  0.1271464E-008  0.3789097E+03  0.7957747E-01  0.3455920E+00
         13   -1    0    0    0    0  0.00000000000E+00  0.00000000000E+00  0.14999999963E+04  0.15000000000E+04  0.10566000000E+00 0.  1.
        994   -1    0    0    0    0 -0.00000000000E+00 -0.00000000000E+00  0.11368683772E-12  0.17120000000E+03  0.17120000000E+03 0.  0.
         13    1    1    2    0    0 -0.16209750940E+01 -0.16732049458E+02  0.27596165478E+02  0.32313287552E+02  0.10566000000E+00 0.  1.
        994    1    1    2    0    0 -0.31758431242E+01  0.20100058628E+02  0.60750894674E+01  0.17251215913E+03  0.17120000000E+03 0.  0.
        998    1    1    2    0    0  0.47968182182E+01 -0.33680091701E+01  0.14663287413E+04  0.14663745533E+04  0.10000000000E+02 0.  1.
</event>
<event>
 5    1  0.1271464E-008  0.3701185E+03  0.7957747E-01  0.3495346E+00
         13   -1    0    0    0    0  0.00000000000E+00  0.00000000000E+00  0.14999999963E+04  0.15000000000E+04  0.10566000000E+00 0.  1.
        994   -1    0    0    0    0 -0.00000000000E+00 -0.00000000000E+00  0.11368683772E-12  0.17120000000E+03  0.17120000000E+03 0.  0.
         13    1    1    2    0    0  0.93658380192E+00  0.48941019801E+02  0.12064677647E+03  0.13019891107E+03  0.10566000000E+00 0.  1.
        994    1    1    2    0    0 -0.57528549244E+01 -0.42464390080E+02  0.15580728622E+02  0.17716805262E+03  0.17120000000E+03 0.  0.
        998    1    1    2    0    0  0.48162711224E+01 -0.64766297214E+01  0.13637724912E+04  0.13638330363E+04  0.10000000000E+02 0.  1.
</event>
<event>
 5    1  0.1271464E-008  0.3774067E+03  0.7957747E-01  0.3462529E+00
         13   -1    0    0    0    0  0.00000000000E+00  0.00000000000E+00  0.14999999963E+04  0.15000000000E+04  0.10566000000E+00 0. -1.
        994   -1    0    0    0    0 -0.00000000000E+00 -0.00000000000E+00  0.11368683772E-12  0.17120000000E+03  0.17120000000E+03 0.  0.
         13    1    1    2    0    0 -0.17343854371E+02 -0.23204873500E+02  0.71782163449E+02  0.77407787671E+02  0.10566000000E+00 0. -1.
        994    1    1    2    0    0  0.23084908198E+02  0.19492517108E+02  0.85322048205E+01  0.17405490435E+03  0.17120000000E+03 0.  0.
        998    1    1    2    0    0 -0.57410538269E+01  0.37123563927E+01  0.14196856280E+04  0.14197373080E+04  0.10000000000E+02 0. -1.
</event>
<event>
 5    1  0.1271464E-008  0.3802745E+03  0.7957747E-01  0.3449964E+00
         13   -1    0    0    0    0  0.00000000000E+00  0.00000000000E+00  0.14999999963E+04  0.15000000000E+04  0.10566000000E+00 0.  1.
        994   -1    0    0    0    0 -0.00000000000E+00 -0.00000000000E+00  0.11368683772E-12  0.17120000000E+03  0.17120000000E+03 0.  0.
         13    1    1    2    0    0  0.26188257268E+02  0.41160585160E+02  0.24905808997E+03  0.25379117781E+03  0.10566000000E+00 0.  1.
        994    1    1    2    0    0 -0.27068638164E+02 -0.40843249709E+02  0.12055315341E+02  0.17848151962E+03  0.17120000000E+03 0.  0.
        998    1    1    2    0    0  0.88038089587E+00 -0.31733545031E+00  0.12388865910E+04  0.12389273026E+04  0.10000000000E+02 0.  0.
</event>
<event>
 5    1  0.1271464E-008  0.3818816E+03  0.7957747E-01  0.3443006E+00
         13   -1    0    0    0    0  0.00000000000E+00  0.00000000000E+00  0.14999999963E+04  0.15000000000E+04  0.10566000000E+00 0. -1.
        994   -1    0    0    0    0 -0.00000000000E+00 -0.00000000000E+00  0.11368683772E-12  0.17120000000E+03  0.17120000000E+03 0.  0.
         13    1    1    2    0    0  0.10954236800E+02 -0.60963880782E+01  0.23079741070E+02  0.26264936006E+02  0.10566000000E+00 0. -1.
        994    1    1    2    0    0 -0.10521132908E+02  0.90311594809E+01  0.38252890681E+01  0.17180316911E+03  0.17120000000E+03 0.  0.
        998    1    1    2    0    0 -0.43310389237E+00 -0.29347714027E+01  0.14730949661E+04  0.14731318949E+04  0.10000000000E+02 0. -1.
</event>
<event>
 5    1  0.1271464E-008  0.3853120E+03  0.7957747E-01  0.3428350E+00
         13   -1    0    0    0    0  0.00000000000E+00  0.00000000000E+00  0.14999999963E+04  0.15000000000E+04  0.10566000000E+00 0.  1.
        994   -1    0    0    0    0 -0.00000000000E+00 -0.00000000000E+00  0.11368683772E-12  0.17120000000E+03  0.17120000000E+03 0.  0.
         13    1    1    2    0    0  0.11741969425E+02 -0.72595930877E+01  0.68964049698E+02  0.70332260397E+02  0.10566000000E+00 0.  1.
        994    1    1    2    0    0  0.34666779101E+01  0.58981858106E+01  0.16291303695E+01  0.17134439155E+03  0.17120000000E+03 0.  0.
        998    1    1    2    0    0 -0.15208647335E+02  0.13614072771E+01  0.14294068162E+04  0.14295233480E+04  0.10000000000E+02 0.  1.
</event>
<event>
 5    1  0.1489495E-008  0.3860430E+03  0.7957747E-01  0.3425261E+00
         13   -1    0    0    0    0  0.00000000000E+00  0.00000000000E+00  0.14999999963E+04  0.15000000000E+04  0.10566000000E+00 0. -1.
        994   -1    0    0    0    0 -0.00000000000E+00 -0.00000000000E+00  0.11368683772E-12  0.17120000000E+03  0.17120000000E+03 0.  0.
         13    1    1    2    0    0 -0.10947591553E+02 -0.40530503206E+01  0.59525994520E+02  0.60659971690E+02  0.10566000000E+00 0. -1.
        994    1    1    2    0    0  0.12765092635E+02  0.40811497432E+01  0.17020493029E+01  0.17173217621E+03  0.17120000000E+03 0.  0.
        998    1    1    2    0    0 -0.18175010818E+01 -0.28099422620E-01  0.14387719525E+04  0.14388078521E+04  0.10000000000E+02 0. -1.
</event>
<event>
 5    1  0.1271464E-008  0.3715923E+03  0.7957747E-01  0.3488605E+00
         13   -1    0    0    0    0  0.00000000000E+00  0.00000000000E+00  0.14999999963E+04  0.15000000000E+04  0.10566000000E+00 0.  1.
        994   -1    0    0    0    0 -0.00000000000E+00 -0.00000000000E+00  0.11368683772E-12  0.17120000000E+03  0.17120000000E+03 0.  0.
         13    1    1    2    0    0  0.47160206917E+02 -0.50369993286E+02  0.24869729101E+03  0.25809218326E+03  0.10566000000E+00 0.  1.
        994    1    1    2    0    0 -0.22286611757E+02  0.61049710095E+02  0.23106653656E+02  0.18457279759E+03  0.17120000000E+03 0.  0.
        998    1    1    2    0    0 -0.24873595160E+02 -0.10679716809E+02  0.12281960516E+04  0.12285350192E+04  0.10000000000E+02 0.  1.
</event>
<event>
 5    1  0.1271464E-008  0.3968134E+03  0.7957747E-01  0.3381065E+00
         13   -1    0    0    0    0  0.00000000000E+00  0.00000000000E+00  0.14999999963E+04  0.15000000000E+04  0.10566000000E+00 0.  1.
        994   -1    0    0    0    0 -0.00000000000E+00 -0.00000000000E+00  0.11368683772E-12  0.17120000000E+03  0.17120000000E+03 0.  0.
         13    1    1    2    0    0  0.19110316406E+02  0.21063982648E+02  0.45115167130E+01  0.28796883602E+02  0.10566000000E+00 0.  1.
        994    1    1    2    0    0 -0.19340949147E+02 -0.24142859082E+02  0.29594283254E+02  0.17647156020E+03  0.17120000000E+03 0.  0.
        998    1    1    2    0    0  0.23063274045E+00  0.30788764347E+01  0.14658941963E+04  0.14659315562E+04  0.10000000000E+02 0.  1.
</event>
<event>
 5    1  0.1271464E-008  0.3760001E+03  0.7957747E-01  0.3468762E+00
         13   -1    0    0    0    0  0.00000000000E+00  0.00000000000E+00  0.14999999963E+04  0.15000000000E+04  0.10566000000E+00 0. -1.
        994   -1    0    0    0    0 -0.00000000000E+00 -0.00000000000E+00  0.11368683772E-12  0.17120000000E+03  0.17120000000E+03 0.  0.
         13    1    1    2    0    0 -0.38561073813E+02 -0.22035490232E+02  0.20571154911E+03  0.21045135268E+03  0.10566000000E+00 0. -1.
        994    1    1    2    0    0 -0.98244714832E+01 -0.12079052948E+02  0.69877595763E+01  0.17204851799E+03  0.17120000000E+03 0.  0.
        998    1    1    2    0    0  0.48385545296E+02  0.34114543180E+02  0.12873006876E+04  0.12887001293E+04  0.10000000000E+02 0. -1.
</event>
<event>
 5    1  0.1271464E-008  0.3843504E+03  0.7957747E-01  0.3432432E+00
         13   -1    0    0    0    0  0.00000000000E+00  0.00000000000E+00  0.14999999963E+04  0.15000000000E+04  0.10566000000E+00 0.  1.
        994   -1    0    0    0    0 -0.00000000000E+00 -0.00000000000E+00  0.11368683772E-12  0.17120000000E+03  0.17120000000E+03 0.  0.
         13    1    1    2    0    0  0.54996539516E+00  0.13648137614E+02  0.46277254464E+02  0.48251109490E+02  0.10566000000E+00 0.  1.
        994    1    1    2    0    0  0.19519599416E+01 -0.14124379275E+02  0.26233186011E+01  0.17181277612E+03  0.17120000000E+03 0.  0.
        998    1    1    2    0    0 -0.25019253368E+01  0.47624166083E+00  0.14510994232E+04  0.14511361144E+04  0.10000000000E+02 0.  1.
</event>
<event>
 5    1  0.1271464E-008  0.2807275E+03  0.7957747E-01  0.4044001E+00
         13   -1    0    0    0    0  0.00000000000E+00  0.00000000000E+00  0.14999999963E+04  0.15000000000E+04  0.10566000000E+00 0.  1.
        994   -1    0    0    0    0 -0.00000000000E+00 -0.00000000000E+00  0.11368683772E-12  0.17120000000E+03  0.17120000000E+03 0.  0.
         13    1    1    2    0    0 -0.17468727993E+03 -0.62206023551E+02  0.49005698016E+03  0.52396668797E+03  0.10566000000E+00 0.  1.
        994    1    1    2    0    0  0.18350351308E+03  0.40077537605E+02  0.16746182734E+03  0.30435612685E+03  0.17120000000E+03 0.  0.
        998    1    1    2    0    0 -0.88162331529E+01  0.22128485946E+02  0.84248118877E+03  0.84287718518E+03  0.10000000000E+02 0.  1.
</event>
<event>
 5    1  0.1271464E-008  0.3777177E+03  0.7957747E-01  0.3461157E+00
         13   -1    0    0    0    0  0.00000000000E+00  0.00000000000E+00  0.14999999963E+04  0.15000000000E+04  0.10566000000E+00 0.  1.
        994   -1    0    0    0    0 -0.00000000000E+00 -0.00000000000E+00  0.11368683772E-12  0.17120000000E+03  0.17120000000E+03 0.  0.
         13    1    1    2    0    0 -0.38226053781E+02 -0.16253543774E+02  0.48385841570E+02  0.63769974920E+02  0.10566000000E+00 0.  1.
        994    1    1    2    0    0  0.64073475254E+02 -0.17801092060E+02  0.31146897889E+02  0.18628434813E+03  0.17120000000E+03 0.  0.
        998    1    1    2    0    0 -0.25847421472E+02  0.34054635833E+02  0.14204672568E+04  0.14211456770E+04  0.10000000000E+02 0.  1.
</event>
<event>
 5    1  0.1271464E-008  0.3822279E+03  0.7957747E-01  0.3441515E+00
         13   -1    0    0    0    0  0.00000000000E+00  0.00000000000E+00  0.14999999963E+04  0.15000000000E+04  0.10566000000E+00 0.  1.
        994   -1    0    0    0    0 -0.00000000000E+00 -0.00000000000E+00  0.11368683772E-12  0.17120000000E+03  0.17120000000E+03 0.  0.
         13    1    1    2    0    0  0.10192049775E+02  0.15765808980E+02  0.90746942780E+02  0.92668535110E+02  0.10566000000E+00 0.  1.
        994    1    1    2    0    0  0.35801958747E+02  0.51226174474E+02  0.16084468736E+02  0.18295915210E+03  0.17120000000E+03 0.  0.
        998    1    1    2    0    0 -0.45994008522E+02 -0.66991983454E+02  0.13931685848E+04  0.13955723128E+04  0.10000000000E+02 0.  1.
</event>
<event>
 5    1  0.1271464E-008  0.3786824E+03  0.7957747E-01  0.3456916E+00
         13   -1    0    0    0    0  0.00000000000E+00  0.00000000000E+00  0.14999999963E+04  0.15000000000E+04  0.10566000000E+00 0. -1.
        994   -1    0    0    0    0 -0.00000000000E+00 -0.00000000000E+00  0.11368683772E-12  0.17120000000E+03  0.17120000000E+03 0.  0.
         13    1    1    2    0    0  0.19735114090E+02  0.17033335557E+02  0.69539438179E+02  0.74265428529E+02  0.10566000000E+00 0. -1.
        994    1    1    2    0    0 -0.11944687878E+02 -0.86240819349E+01  0.55288472711E+01  0.17192166388E+03  0.17120000000E+03 0.  0.
        998    1    1    2    0    0 -0.77904262125E+01 -0.84092536222E+01  0.14249317108E+04  0.14250129076E+04  0.10000000000E+02 0. -1.
</event>
<event>
 5    1  0.1271464E-008  0.3837375E+03  0.7957747E-01  0.3435044E+00
         13   -1    0    0    0    0  0.00000000000E+00  0.00000000000E+00  0.14999999963E+04  0.15000000000E+04  0.10566000000E+00 0.  1.
        994   -1    0    0    0    0 -0.00000000000E+00 -0.00000000000E+00  0.11368683772E-12  0.17120000000E+03  0.17120000000E+03 0.  0.
         13    1    1    2    0    0  0.11780315712E+02  0.15099710736E+02  0.72964798047E+02  0.75436397188E+02  0.10566000000E+00 0.  1.
        994    1    1    2    0    0 -0.15474816063E+02 -0.25971121745E+02  0.52821633938E+01  0.17392903825E+03  0.17120000000E+03 0.  0.
        998    1    1    2    0    0  0.36945003510E+01  0.10871411009E+02  0.14217530348E+04  0.14218345646E+04  0.10000000000E+02 0.  1.
</event>
<event>
 5    1  0.1271464E-008  0.3798012E+03  0.7957747E-01  0.3452024E+00
         13   -1    0    0    0    0  0.00000000000E+00  0.00000000000E+00  0.14999999963E+04  0.15000000000E+04  0.10566000000E+00 0. -1.
        994   -1    0    0    0    0 -0.00000000000E+00 -0.00000000000E+00  0.11368683772E-12  0.17120000000E+03  0.17120000000E+03 0.  0.
         13    1    1    2    0    0  0.14818244664E+01  0.59238512773E+02  0.35543626240E+03  0.36034198339E+03  0.10566000000E+00 0. -1.
        994    1    1    2    0    0  0.59177750284E+01 -0.48998932339E+02  0.12425360276E+02  0.17860499716E+03  0.17120000000E+03 0.  0.
        998    1    1    2    0    0 -0.73995994948E+01 -0.10239580433E+02  0.11321383736E+04  0.11322530195E+04  0.10000000000E+02 0. -1.
</event>
<event>
 5    1  0.1271464E-008  0.3836544E+03  0.7957747E-01  0.3435399E+00
         13   -1    0    0    0    0  0.00000000000E+00  0.00000000000E+00  0.14999999963E+04  0.15000000000E+04  0.10566000000E+00 0. -1.
        994   -1    0    0    0    0 -0.00000000000E+00 -0.00000000000E+00  0.11368683772E-12  0.17120000000E+03  0.17120000000E+03 0.  0.
         13    1    1    2    0    0  0.14410792348E+02 -0.33489321516E+00  0.41803528884E+02  0.44219105381E+02  0.10566000000E+00 0. -1.
        994    1    1    2    0    0 -0.24167395216E+02  0.29993349841E+01  0.42610182905E+01  0.17297588063E+03  0.17120000000E+03 0.  0.
        998    1    1    2    0    0  0.97566028683E+01 -0.26644417690E+01  0.14539354491E+04  0.14540050140E+04  0.10000000000E+02 0. -1.
</event>
<event>
 5    1  0.1271464E-008  0.3847022E+03  0.7957747E-01  0.3430936E+00
         13   -1    0    0    0    0  0.00000000000E+00  0.00000000000E+00  0.14999999963E+04  0.15000000000E+04  0.10566000000E+00 0.  1.
        994   -1    0    0    0    0 -0.00000000000E+00 -0.00000000000E+00  0.11368683772E-12  0.17120000000E+03  0.17120000000E+03 0.  0.
         13    1    1    2    0    0 -0.18266579866E+02  0.82187383865E-01  0.93930920926E+02  0.95690667073E+02  0.10566000000E+00 0.  1.
        994    1    1    2    0    0  0.11397966493E+02  0.38174436110E+01  0.22538398921E+01  0.17163626164E+03  0.17120000000E+03 0.  0.
        998    1    1    2    0    0  0.68686133723E+01 -0.38996309949E+01  0.14038152355E+04  0.14038730713E+04  0.10000000000E+02 0.  1.
</event>
<event>
 5    1  0.1271464E-008  0.3798265E+03  0.7957747E-01  0.3451914E+00
         13   -1    0    0    0    0  0.00000000000E+00  0.00000000000E+00  0.14999999963E+04  0.15000000000E+04  0.10566000000E+00 0.  1.
        994   -1    0    0    0    0 -0.00000000000E+00 -0.00000000000E+00  0.11368683772E-12  0.17120000000E+03  0.17120000000E+03 0.  0.
         13    1    1    2    0    0 -0.32218758650E+02  0.20987965040E+02  0.17826484497E+03  0.18236476963E+03  0.10566000000E+00 0.  1.
        994    1    1    2    0    0  0.58366354482E+01 -0.25976225466E+02  0.65952784729E+01  0.17338329879E+03  0.17120000000E+03 0.  0.
        998    1    1    2    0    0  0.26382123202E+02  0.49882604256E+01  0.13151398728E+04  0.13154519316E+04  0.10000000000E+02 0.  1.
</event>
<event>
 5    1  0.1271464E-008  0.3843202E+03  0.7957747E-01  0.3432560E+00
         13   -1    0    0    0    0  0.00000000000E+00  0.00000000000E+00  0.14999999963E+04  0.15000000000E+04  0.10566000000E+00 0. -1.
        994   -1    0    0    0    0 -0.00000000000E+00 -0.00000000000E+00  0.11368683772E-12  0.17120000000E+03  0.17120000000E+03 0.  0.
         13    1    1    2    0    0 -0.16172587883E+02  0.85365552749E+01  0.79079272414E+02  0.81166297589E+02  0.10566000000E+00 0. -1.
        994    1    1    2    0    0  0.22630525704E+02 -0.55406982506E+01  0.37591970867E+01  0.17281901398E+03  0.17120000000E+03 0.  0.
        998    1    1    2    0    0 -0.64579378209E+01 -0.29958570244E+01  0.14171615268E+04  0.14172146884E+04  0.10000000000E+02 0. -1.
</event>
<event>
 5    1  0.1271464E-008  0.3855082E+03  0.7957747E-01  0.3427520E+00
         13   -1    0    0    0    0  0.00000000000E+00  0.00000000000E+00  0.14999999963E+04  0.15000000000E+04  0.10566000000E+00 0. -1.
        994   -1    0    0    0    0 -0.00000000000E+00 -0.00000000000E+00  0.11368683772E-12  0.17120000000E+03  0.17120000000E+03 0.  0.
         13    1    1    2    0    0  0.11965346494E+02  0.89082654526E+00  0.51949789344E+02  0.53317491178E+02  0.10566000000E+00 0. -1.
        994    1    1    2    0    0 -0.99549410037E+01  0.29074263726E+01  0.17312200185E+01  0.17152256732E+03  0.17120000000E+03 0.  0.
        998    1    1    2    0    0 -0.20104054904E+01 -0.37982529178E+01  0.14463189869E+04  0.14463599415E+04  0.10000000000E+02 0. -1.
</event>
<event>
 5    1  0.1271464E-008  0.3791699E+03  0.7957747E-01  0.3454781E+00
         13   -1    0    0    0    0  0.00000000000E+00  0.00000000000E+00  0.14999999963E+04  0.15000000000E+04  0.10566000000E+00 0. -1.
        994   -1    0    0    0    0 -0.00000000000E+00 -0.00000000000E+00  0.11368683772E-12  0.17120000000E+03  0.17120000000E+03 0.  0.
         13    1    1    2    0    0  0.47748136258E+02  0.41458744641E+02  0.35592973691E+03  0.36150338976E+03  0.10566000000E+00 0. -1.
        994    1    1    2    0    0 -0.50509378881E+02 -0.29779261842E+02  0.16164917656E+02  0.18168309320E+03  0.17120000000E+03 0.  0.
        998    1    1    2    0    0  0.27612426226E+01 -0.11679482799E+02  0.11279053417E+04  0.11280135170E+04  0.10000000000E+02 0. -1.
</event>
<event>
 5    1  0.1271464E-008  0.3849201E+03  0.7957747E-01  0.3430011E+00
         13   -1    0    0    0    0  0.00000000000E+00  0.00000000000E+00  0.14999999963E+04  0.15000000000E+04  0.10566000000E+00 0.  1.
        994   -1    0    0    0    0 -0.00000000000E+00 -0.00000000000E+00  0.11368683772E-12  0.17120000000E+03  0.17120000000E+03 0.  0.
         13    1    1    2    0    0  0.11405186159E+02 -0.38824971646E+01  0.46625699418E+02  0.48157232746E+02  0.10566000000E+00 0.  1.
        994    1    1    2    0    0  0.84656610356E+01  0.81678245652E+01  0.21251693387E+01  0.17161683227E+03  0.17120000000E+03 0.  0.
        998    1    1    2    0    0 -0.19870847194E+02 -0.42853274006E+01  0.14512491275E+04  0.14514259350E+04  0.10000000000E+02 0.  1.
</event>
<event>
 5    1  0.1271464E-008  0.4034682E+03  0.7957747E-01  0.3354934E+00
         13   -1    0    0    0    0  0.00000000000E+00  0.00000000000E+00  0.14999999963E+04  0.15000000000E+04  0.10566000000E+00 0.  1.
        994   -1    0    0    0    0 -0.00000000000E+00 -0.00000000000E+00  0.11368683772E-12  0.17120000000E+03  0.17120000000E+03 0.  0.
         13    1    1    2    0    0  0.93963088354E+02 -0.70189822640E+02  0.19058719894E+03  0.22378374547E+03  0.10566000000E+00 0.  1.
        994    1    1    2    0    0 -0.92519199316E+02  0.73846802210E+02  0.88037662525E+02  0.22599385492E+03  0.17120000000E+03 0.  0.
        998    1    1    2    0    0 -0.14438890384E+01 -0.36569795701E+01  0.12213751348E+04  0.12214223996E+04  0.10000000000E+02 0.  1.
</event>
<event>
 5    1  0.1271464E-008  0.3743843E+03  0.7957747E-01  0.3475981E+00
         13   -1    0    0    0    0  0.00000000000E+00  0.00000000000E+00  0.14999999963E+04  0.15000000000E+04  0.10566000000E+00 0.  1.
        994   -1    0    0    0    0 -0.00000000000E+00 -0.00000000000E+00  0.11368683772E-12  0.17120000000E+03  0.17120000000E+03 0.  0.
         13    1    1    2    0    0  0.23951348346E+01  0.13173497122E+02  0.96010534498E+01  0.16476319027E+02  0.10566000000E+00 0.  1.
        994    1    1    2    0    0 -0.17238679627E+01 -0.12642466389E+02  0.75499848968E+01  0.17184075753E+03  0.17120000000E+03 0.  0.
        998    1    1    2    0    0 -0.67126687186E+00 -0.53103073290E+00  0.14828489579E+04  0.14828829234E+04  0.10000000000E+02 0.  1.
</event>
<event>
 5    1  0.1271464E-008  0.3830969E+03  0.7957747E-01  0.3437784E+00
         13   -1    0    0    0    0  0.00000000000E+00  0.00000000000E+00  0.14999999963E+04  0.15000000000E+04  0.10566000000E+00 0. -1.
        994   -1    0    0    0    0 -0.00000000000E+00 -0.00000000000E+00  0.11368683772E-12  0.17120000000E+03  0.17120000000E+03 0.  0.
         13    1    1    2    0    0 -0.65360153709E+01 -0.21761886279E+02  0.94286938947E+02  0.96986273314E+02  0.10566000000E+00 0. -1.
        994    1    1    2    0    0  0.87437249653E+01  0.21189934453E+02  0.43186838796E+01  0.17278181929E+03  0.17120000000E+03 0.  0.
        998    1    1    2    0    0 -0.22077095944E+01  0.57195182607E+00  0.14013943735E+04  0.14014319074E+04  0.10000000000E+02 0. -1.
</event>
<event>
 5    1  0.1271464E-008  0.3803398E+03  0.7957747E-01  0.3449680E+00
         13   -1    0    0    0    0  0.00000000000E+00  0.00000000000E+00  0.14999999963E+04  0.15000000000E+04  0.10566000000E+00 0.  1.
        994   -1    0    0    0    0 -0.00000000000E+00 -0.00000000000E+00  0.11368683772E-12  0.17120000000E+03  0.17120000000E+03 0.  0.
         13    1    1    2    0    0  0.33177330914E+02  0.18858726051E+02  0.19856320127E+03  0.20219728706E+03  0.10566000000E+00 0.  1.
        994    1    1    2    0    0 -0.22615315578E+02  0.15622786915E+02  0.64886150552E+01  0.17351387868E+03  0.17120000000E+03 0.  0.
        998    1    1    2    0    0 -0.10562015336E+02 -0.34481512967E+02  0.12949481800E+04  0.12954888343E+04  0.10000000000E+02 0.  1.
</event>
<event>
 5    1  0.1271464E-008  0.3775590E+03  0.7957747E-01  0.3461856E+00
         13   -1    0    0    0    0  0.00000000000E+00  0.00000000000E+00  0.14999999963E+04  0.15000000000E+04  0.10566000000E+00 0.  1.
        994   -1    0    0    0    0 -0.00000000000E+00 -0.00000000000E+00  0.11368683772E-12  0.17120000000E+03  0.17120000000E+03 0.  0.
         13    1    1    2    0    0  0.36863417611E+02 -0.49789013825E+02  0.28528575271E+03  0.29193463193E+03  0.10566000000E+00 0.  1.
        994    1    1    2    0    0 -0.34787240161E+02  0.53304047782E+02  0.19148347020E+02  0.18365068141E+03  0.17120000000E+03 0.  0.
        998    1    1    2    0    0 -0.20761774503E+01 -0.35150339571E+01  0.11955658965E+04  0.11956146867E+04  0.10000000000E+02 0.  1.
</event>
<event>
 5    1  0.1271464E-008  0.3698683E+03  0.7957747E-01  0.3496497E+00
         13   -1    0    0    0    0  0.00000000000E+00  0.00000000000E+00  0.14999999963E+04  0.15000000000E+04  0.10566000000E+00 0. -1.
        994   -1    0    0    0    0 -0.00000000000E+00 -0.00000000000E+00  0.11368683772E-12  0.17120000000E+03  0.17120000000E+03 0.  0.
         13    1    1    2    0    0 -0.95721930522E+01 -0.34931387231E+02  0.78356730067E+02  0.86322749056E+02  0.10566000000E+00 0. -1.
        994    1    1    2    0    0 -0.16214660608E+02 -0.20487001951E+02  0.11702918306E+02  0.17357716084E+03  0.17120000000E+03 0.  0.
        998    1    1    2    0    0  0.25786853660E+02  0.55418389182E+02  0.14099403479E+04  0.14113000901E+04  0.10000000000E+02 0. -1.
</event>
<event>
 5    1  0.1271464E-008  0.3830029E+03  0.7957747E-01  0.3438186E+00
         13   -1    0    0    0    0  0.00000000000E+00  0.00000000000E+00  0.14999999963E+04  0.15000000000E+04  0.10566000000E+00 0. -1.
        994   -1    0    0    0    0 -0.00000000000E+00 -0.00000000000E+00  0.11368683772E-12  0.17120000000E+03  0.17120000000E+03 0.  0.
         13    1    1    2    0    0  0.10933769709E+02  0.12616204597E+02  0.54785180904E+02  0.57272533986E+02  0.10566000000E+00 0. -1.
        994    1    1    2    0    0  0.27568853103E+01 -0.39900065791E+01  0.27027700407E+01  0.17129000419E+03  0.17120000000E+03 0.  0.
        998    1    1    2    0    0 -0.13690655019E+02 -0.86261980180E+01  0.14425120453E+04  0.14426374618E+04  0.10000000000E+02 0. -1.
</event>
<event>
 5    1  0.1271464E-008  0.3822007E+03  0.7957747E-01  0.3441632E+00
         13   -1    0    0    0    0  0.00000000000E+00  0.00000000000E+00  0.14999999963E+04  0.15000000000E+04  0.10566000000E+00 0.  1.
        994   -1    0    0    0    0 -0.00000000000E+00 -0.00000000000E+00  0.11368683772E-12  0.17120000000E+03  0.17120000000E+03 0.  0.
         13    1    1    2    0    0 -0.25006958829E+02 -0.40718430138E+01  0.10343978482E+03  0.10649754994E+03  0.10566000000E+00 0.  1.
        994    1    1    2    0    0  0.17107470772E+02  0.82455647885E+01  0.42242185945E+01  0.17230188309E+03  0.17120000000E+03 0.  0.
        998    1    1    2    0    0  0.78994880565E+01 -0.41737217747E+01  0.13923359929E+04  0.13924005670E+04  0.10000000000E+02 0.  1.
</event>
<event>
 5    1  0.1271464E-008  0.3836416E+03  0.7957747E-01  0.3435454E+00
         13   -1    0    0    0    0  0.00000000000E+00  0.00000000000E+00  0.14999999963E+04  0.15000000000E+04  0.10566000000E+00 0. -1.
        994   -1    0    0    0    0 -0.00000000000E+00 -0.00000000000E+00  0.11368683772E-12  0.17120000000E+03  0.17120000000E+03 0.  0.
         13    1    1    2    0    0 -0.16018880065E+02 -0.86556419414E+01  0.69384434833E+02  0.71733782956E+02  0.10566000000E+00 0. -1.
        994    1    1    2    0    0  0.16204771109E+02  0.51961000337E+01  0.32632211290E+01  0.17207464274E+03  0.17120000000E+03 0.  0.
        998    1    1    2    0    0 -0.18589104348E+00  0.34595419077E+01  0.14273523403E+04  0.14273915743E+04  0.10000000000E+02 0. -1.
</event>
<event>
 5    1  0.1271464E-008  0.3800765E+03  0.7957747E-01  0.3450826E+00
         13   -1    0    0    0    0  0.00000000000E+00  0.00000000000E+00  0.14999999963E+04  0.15000000000E+04  0.10566000000E+00 0.  1.
        994   -1    0    0    0    0 -0.00000000000E+00 -0.00000000000E+00  0.11368683772E-12  0.17120000000E+03  0.17120000000E+03 0.  0.
         13    1    1    2    0    0 -0.22405310953E+02  0.23641597035E+02  0.11826284023E+03  0.12266635078E+03  0.10566000000E+00 0.  1.
        994    1    1    2    0    0  0.25086459005E+02 -0.22969479217E+02  0.79707589286E+01  0.17472807559E+03  0.17120000000E+03 0.  0.
        998    1    1    2    0    0 -0.26811480526E+01 -0.67211781786E+00  0.13737663971E+04  0.13738055736E+04  0.10000000000E+02 0.  1.
</event>
<event>
 5    1  0.1271464E-008  0.3842551E+03  0.7957747E-01  0.3432838E+00
         13   -1    0    0    0    0  0.00000000000E+00  0.00000000000E+00  0.14999999963E+04  0.15000000000E+04  0.10566000000E+00 0. -1.
        994   -1    0    0    0    0 -0.00000000000E+00 -0.00000000000E+00  0.11368683772E-12  0.17120000000E+03  0.17120000000E+03 0.  0.
         13    1    1    2    0    0  0.13425088855E+02 -0.24484598766E+02  0.16323326287E+03  0.16560446208E+03  0.10566000000E+00 0. -1.
        994    1    1    2    0    0 -0.14100836281E+02  0.33709869495E+02  0.64144910263E+01  0.17517355560E+03  0.17120000000E+03 0.  0.
        998    1    1    2    0    0  0.67574742588E+00 -0.92252707296E+01  0.13303522424E+04  0.13304219823E+04  0.10000000000E+02 0. -1.
</event>
<event>
 5    1  0.1271464E-008  0.3739970E+03  0.7957747E-01  0.3477721E+00
         13   -1    0    0    0    0  0.00000000000E+00  0.00000000000E+00  0.14999999963E+04  0.15000000000E+04  0.10566000000E+00 0.  1.
        994   -1    0    0    0    0 -0.00000000000E+00 -0.00000000000E+00  0.11368683772E-12  0.17120000000E+03  0.17120000000E+03 0.  0.
         13    1    1    2    0    0  0.49260037833E+02 -0.10449071630E+02  0.15257054622E+03  0.16066585563E+03  0.10566000000E+00 0.  1.
        994    1    1    2    0    0 -0.53968372780E+02  0.15188585148E+02  0.17992356218E+02  0.18104265592E+03  0.17120000000E+03 0.  0.
        998    1    1    2    0    0  0.47083349466E+01 -0.47395135176E+01  0.13294370938E+04  0.13294914885E+04  0.10000000000E+02 0.  1.
</event>
<event>
 5    1  0.1271464E-008  0.3721976E+03  0.7957747E-01  0.3485852E+00
         13   -1    0    0    0    0  0.00000000000E+00  0.00000000000E+00  0.14999999963E+04  0.15000000000E+04  0.10566000000E+00 0. -1.
        994   -1    0    0    0    0 -0.00000000000E+00 -0.00000000000E+00  0.11368683772E-12  0.17120000000E+03  0.17120000000E+03 0.  0.
         13    1    1    2    0    0  0.59776158292E+02  0.90332383820E+01  0.20887814291E+03  0.21745086398E+03  0.10566000000E+00 0. -1.
        994    1    1    2    0    0 -0.61377341499E+02  0.64989854500E+02  0.36066076592E+02  0.19647152750E+03  0.17120000000E+03 0.  0.
        998    1    1    2    0    0  0.16011832077E+01 -0.74023092882E+02  0.12550557768E+04  0.12572776085E+04  0.10000000000E+02 0. -1.
</event>
<event>
 5    1  0.1271464E-008  0.3851146E+03  0.7957747E-01  0.3429186E+00
         13   -1    0    0    0    0  0.00000000000E+00  0.00000000000E+00  0.14999999963E+04  0.15000000000E+04  0.10566000000E+00 0.  1.
        994   -1    0    0    0    0 -0.00000000000E+00 -0.00000000000E+00  0.11368683772E-12  0.17120000000E+03  0.17120000000E+03 0.  0.
         13    1    1    2    0    0 -0.82971496835E+01 -0.59903970776E+01  0.31173292778E+02  0.32810255967E+02  0.10566000000E+00 0.  1.
        994    1    1    2    0    0  0.19825233286E+02  0.74247881782E+01  0.30479631846E+01  0.17253085937E+03  0.17120000000E+03 0.  0.
        998    1    1    2    0    0 -0.11528083602E+02 -0.14343911006E+01  0.14657787403E+04  0.14658588847E+04  0.10000000000E+02 0.  1.
</event>
<event>
 5    1  0.1271464E-008  0.3746582E+03  0.7957747E-01  0.3474753E+00
         13   -1    0    0    0    0  0.00000000000E+00  0.00000000000E+00  0.14999999963E+04  0.15000000000E+04  0.10566000000E+00 0.  1.
        994   -1    0    0    0    0 -0.00000000000E+00 -0.00000000000E+00  0.11368683772E-12  0.17120000000E+03  0.17120000000E+03 0.  0.
         13    1    1    2    0    0  0.61467493616E+02 -0.67717670858E+02  0.37718076993E+03  0.38810988146E+03  0.10566000000E+00 0.  1.
        994    1    1    2    0    0 -0.33784451097E+02  0.12730879421E+03  0.68397531028E+02  0.22657577203E+03  0.17120000000E+03 0.  0.
        998    1    1    2    0    0 -0.27683042519E+02 -0.59591123351E+02  0.10544216953E+04  0.10565143465E+04  0.10000000000E+02 0.  1.
</event>
<event>
 5    1  0.1271464E-008  0.3760927E+03  0.7957747E-01  0.3468350E+00
         13   -1    0    0    0    0  0.00000000000E+00  0.00000000000E+00  0.14999999963E+04  0.15000000000E+04  0.10566000000E+00 0. -1.
        994   -1    0    0    0    0 -0.00000000000E+00 -0.00000000000E+00  0.11368683772E-12  0.17120000000E+03  0.17120000000E+03 0.  0.
         13    1    1    2    0    0 -0.30314841953E+02  0.13688698179E+00  0.76475627442E+02  0.82265066325E+02  0.10566000000E+00 0. -1.
        994    1    1    2    0    0  0.66788203999E+01  0.15722187576E+02  0.71075298644E+01  0.17219683738E+03  0.17120000000E+03 0.  0.
        998    1    1    2    0    0  0.23636021553E+02 -0.15859074558E+02  0.14164168390E+04  0.14167380963E+04  0.10000000000E+02 0. -1.
</event>
<event>
 5    1  0.1271464E-008  0.3833811E+03  0.7957747E-01  0.3436567E+00
         13   -1    0    0    0    0  0.00000000000E+00  0.00000000000E+00  0.14999999963E+04  0.15000000000E+04  0.10566000000E+00 0.  1.
        994   -1    0    0    0    0 -0.00000000000E+00 -0.00000000000E+00  0.11368683772E-12  0.17120000000E+03  0.17120000000E+03 0.  0.
         13    1    1    2    0    0  0.20276670049E+02 -0.44331119506E+01  0.92855062723E+02  0.95146569392E+02  0.10566000000E+00 0.  1.
        994    1    1    2    0    0 -0.31901072074E+01  0.51817187904E+01  0.25584298032E+01  0.17132720904E+03  0.17120000000E+03 0.  0.
        998    1    1    2    0    0 -0.17086562841E+02 -0.74860683975E+00  0.14045865038E+04  0.14047262216E+04  0.10000000000E+02 0.  1.
</event>
<event>
 5    1  0.1271464E-008  0.3851698E+03  0.7957747E-01  0.3428952E+00
         13   -1    0    0    0    0  0.00000000000E+00  0.00000000000E+00  0.14999999963E+04  0.15000000000E+04  0.10566000000E+00 0.  1.
        994   -1    0    0    0    0 -0.00000000000E+00 -0.00000000000E+00  0.11368683772E-12  0.17120000000E+03  0.17120000000E+03 0.  0.
         13    1    1    2    0    0 -0.21411774100E+01 -0.12768737288E+02  0.56205866957E+02  0.57677863493E+02  0.10566000000E+00 0.  1.
        994    1    1    2    0    0  0.60925381059E+01  0.19498392834E+01  0.16803684250E+01  0.17132771093E+03  0.17120000000E+03 0.  0.
        998    1    1    2    0    0 -0.39513606958E+01  0.10818898004E+02  0.14421137609E+04  0.14421944256E+04  0.10000000000E+02 0.  1.
</event>
<event>
 5    1  0.1271464E-008  0.3810625E+03  0.7957747E-01  0.3446545E+00
         13   -1    0    0    0    0  0.00000000000E+00  0.00000000000E+00  0.14999999963E+04  0.15000000000E+04  0.10566000000E+00 0. -1.
        994   -1    0    0    0    0 -0.00000000000E+00 -0.00000000000E+00  0.11368683772E-12  0.17120000000E+03  0.17120000000E+03 0.  0.
         13    1    1    2    0    0 -0.33962396659E+01  0.10677092878E+02  0.15831807690E+02  0.19395671037E+02  0.10566000000E+00 0. -1.
        994    1    1    2    0    0 -0.19642834027E+01 -0.11653987833E+02  0.40632072262E+01  0.17165553733E+03  0.17120000000E+03 0.  0.
        998    1    1    2    0    0  0.53605230687E+01  0.97689495423E+00  0.14801049814E+04  0.14801487916E+04  0.10000000000E+02 0. -1.
</event>
<event>
 5    1  0.1271464E-008  0.3816286E+03  0.7957747E-01  0.3444098E+00
         13   -1    0    0    0    0  0.00000000000E+00  0.00000000000E+00  0.14999999963E+04  0.15000000000E+04  0.10566000000E+00 0. -1.
        994   -1    0    0    0    0 -0.00000000000E+00 -0.00000000000E+00  0.11368683772E-12  0.17120000000E+03  0.17120000000E+03 0.  0.
         13    1    1    2    0    0  0.84905911855E+01  0.22104915879E+02  0.88613674592E+02  0.91723017468E+02  0.10566000000E+00 0. -1.
        994    1    1    2    0    0 -0.60922080243E+01 -0.16919718101E+01  0.34462373468E+01  0.17135137676E+03  0.17120000000E+03 0.  0.
        998    1    1    2    0    0 -0.23983831612E+01 -0.20412944069E+02  0.14079400843E+04  0.14081256058E+04  0.10000000000E+02 0. -1.
</event>
<event>
 5    1  0.1271464E-008  0.3821801E+03  0.7957747E-01  0.3441720E+00
         13   -1    0    0    0    0  0.00000000000E+00  0.00000000000E+00  0.14999999963E+04  0.15000000000E+04  0.10566000000E+00 0.  1.
        994   -1    0    0    0    0 -0.00000000000E+00 -0.00000000000E+00  0.11368683772E-12  0.17120000000E+03  0.17120000000E+03 0.  0.
         13    1    1    2    0    0  0.16994262118E+02  0.16186020610E+02  0.93413868805E+02  0.96316946885E+02  0.10566000000E+00 0.  1.
        994    1    1    2    0    0 -0.41727248021E+02  0.29228592480E+02  0.11699342941E+02  0.17900220242E+03  0.17120000000E+03 0.  0.
        998    1    1    2    0    0  0.24732985903E+02 -0.45414613090E+02  0.13948867845E+04  0.13958808507E+04  0.10000000000E+02 0.  1.
</event>
<event>
 5    1  0.1271464E-008  0.3862857E+03  0.7957747E-01  0.3424238E+00
         13   -1    0    0    0    0  0.00000000000E+00  0.00000000000E+00  0.14999999963E+04  0.15000000000E+04  0.10566000000E+00 0. -1.
        994   -1    0    0    0    0 -0.00000000000E+00 -0.00000000000E+00  0.11368683772E-12  0.17120000000E+03  0.17120000000E+03 0.  0.
         13    1    1    2    0    0 -0.98492698120E+00 -0.10286231707E+02  0.52513550272E+02  0.53520657415E+02  0.10566000000E+00 0. -1.
        994    1    1    2    0    0  0.58197850638E+01  0.12116269199E+02  0.15850985608E+01  0.17173417370E+03  0.17120000000E+03 0.  0.
        998    1    1    2    0    0 -0.48348580826E+01 -0.18300374926E+01  0.14459013474E+04  0.14459451689E+04  0.10000000000E+02 0. -1.
</event>
<event>
 5    1  0.1271464E-008  0.3685570E+03  0.7957747E-01  0.3502549E+00
         13   -1    0    0    0    0  0.00000000000E+00  0.00000000000E+00  0.14999999963E+04  0.15000000000E+04  0.10566000000E+00 0.  1.
        994   -1    0    0    0    0 -0.00000000000E+00 -0.00000000000E+00  0.11368683772E-12  0.17120000000E+03  0.17120000000E+03 0.  0.
         13    1    1    2    0    0 -0.21540028612E+02  0.59623451049E+01  0.22038273580E+02  0.31388199346E+02  0.10566000000E+00 0.  1.
        994    1    1    2    0    0 -0.25217031384E+01  0.40658496422E+02  0.15814014405E+02  0.17668897920E+03  0.17120000000E+03 0.  0.
        998    1    1    2    0    0  0.24061731751E+02 -0.46620841527E+02  0.14621477083E+04  0.14631228215E+04  0.10000000000E+02 0.  1.
</event>
<event>
 5    1  0.1271464E-008  0.3849305E+03  0.7957747E-01  0.3429967E+00
         13   -1    0    0    0    0  0.00000000000E+00  0.00000000000E+00  0.14999999963E+04  0.15000000000E+04  0.10566000000E+00 0. -1.
        994   -1    0    0    0    0 -0.00000000000E+00 -0.00000000000E+00  0.11368683772E-12  0.17120000000E+03  0.17120000000E+03 0.  0.
         13    1    1    2    0    0 -0.76280798100E+01  0.18023802262E+02  0.11032900750E+03  0.11205153328E+03  0.10566000000E+00 0. -1.
        994    1    1    2    0    0  0.10364088306E+02 -0.14666743337E+02  0.27263057695E+01  0.17216097243E+03  0.17120000000E+03 0.  0.
        998    1    1    2    0    0 -0.27360084958E+01 -0.33570589251E+01  0.13869446830E+04  0.13869874943E+04  0.10000000000E+02 0. -1.
</event>
<event>
 5    1  0.1271464E-008  0.3912456E+03  0.7957747E-01  0.3403608E+00
         13   -1    0    0    0    0  0.00000000000E+00  0.00000000000E+00  0.14999999963E+04  0.15000000000E+04  0.10566000000E+00 0.  1.
        994   -1    0    0    0    0 -0.00000000000E+00 -0.00000000000E+00  0.11368683772E-12  0.17120000000E+03  0.17120000000E+03 0.  0.
         13    1    1    2    0    0 -0.47489341758E+02 -0.25979150583E+02  0.58487916769E+02  0.79693170458E+02  0.10566000000E+00 0.  1.
        994    1    1    2    0    0  0.28802258076E+02  0.66813321919E+01  0.25958431757E+02  0.17566300251E+03  0.17120000000E+03 0.  0.
        998    1    1    2    0    0  0.18687083683E+02  0.19297818391E+02  0.14155536478E+04  0.14158438270E+04  0.10000000000E+02 0.  1.
</event>
<event>
 5    1  0.1271464E-008  0.3853339E+03  0.7957747E-01  0.3428257E+00
         13   -1    0    0    0    0  0.00000000000E+00  0.00000000000E+00  0.14999999963E+04  0.15000000000E+04  0.10566000000E+00 0.  1.
        994   -1    0    0    0    0 -0.00000000000E+00 -0.00000000000E+00  0.11368683772E-12  0.17120000000E+03  0.17120000000E+03 0.  0.
         13    1    1    2    0    0 -0.11295462694E+02 -0.55213999964E+01  0.54923395674E+02  0.56344155791E+02  0.10566000000E+00 0.  1.
        994    1    1    2    0    0  0.76475965349E+01 -0.19047021557E+01  0.16685407863E+01  0.17138943273E+03  0.17120000000E+03 0.  0.
        998    1    1    2    0    0  0.36478661590E+01  0.74261021522E+01  0.14434080598E+04  0.14434664115E+04  0.10000000000E+02 0.  1.
</event>
<event>
 5    1  0.1271464E-008  0.3786075E+03  0.7957747E-01  0.3457244E+00
         13   -1    0    0    0    0  0.00000000000E+00  0.00000000000E+00  0.14999999963E+04  0.15000000000E+04  0.10566000000E+00 0. -1.
        994   -1    0    0    0    0 -0.00000000000E+00 -0.00000000000E+00  0.11368683772E-12  0.17120000000E+03  0.17120000000E+03 0.  0.
         13    1    1    2    0    0  0.21279269866E+02 -0.43635804557E+02  0.20769791707E+03  0.21329633537E+03  0.10566000000E+00 0. -1.
        994    1    1    2    0    0 -0.29701955114E+02  0.41383885561E+02  0.13602070779E+02  0.17913483316E+03  0.17120000000E+03 0.  0.
        998    1    1    2    0    0  0.84226852479E+01  0.22519189956E+01  0.12787000084E+04  0.12787688315E+04  0.10000000000E+02 0. -1.
</event>
<event>
 5    1  0.1271464E-008  0.3788516E+03  0.7957747E-01  0.3456174E+00
         13   -1    0    0    0    0  0.00000000000E+00  0.00000000000E+00  0.14999999963E+04  0.15000000000E+04  0.10566000000E+00 0. -1.
        994   -1    0    0    0    0 -0.00000000000E+00 -0.00000000000E+00  0.11368683772E-12  0.17120000000E+03  0.17120000000E+03 0.  0.
         13    1    1    2    0    0  0.12745151458E+03 -0.35642043776E+02  0.79523338738E+03  0.80617020252E+03  0.10566000000E+00 0. -1.
        994    1    1    2    0    0 -0.12962763516E+03  0.31740709503E+02  0.67010656325E+02  0.22717980654E+03  0.17120000000E+03 0.  0.
        998    1    1    2    0    0  0.21761205759E+01  0.39013342730E+01  0.63775595257E+03  0.63784999095E+03  0.10000000000E+02 0.  0.
</event>
<event>
 5    1  0.1580952E-008  0.3857228E+03  0.7957747E-01  0.3426613E+00
         13   -1    0    0    0    0  0.00000000000E+00  0.00000000000E+00  0.14999999963E+04  0.15000000000E+04  0.10566000000E+00 0. -1.
        994   -1    0    0    0    0 -0.00000000000E+00 -0.00000000000E+00  0.11368683772E-12  0.17120000000E+03  0.17120000000E+03 0.  0.
         13    1    1    2    0    0  0.85005329479E+01  0.58191883393E+01  0.43476878641E+02  0.44680780586E+02  0.10566000000E+00 0. -1.
        994    1    1    2    0    0  0.15911957067E+01 -0.42982070404E+01  0.13406314392E+01  0.17126658688E+03  0.17120000000E+03 0.  0.
        998    1    1    2    0    0 -0.10091728655E+02 -0.15209812989E+01  0.14551824862E+04  0.14552526325E+04  0.10000000000E+02 0. -1.
</event>
<event>
 5    1  0.1271464E-008  0.3830789E+03  0.7957747E-01  0.3437861E+00
         13   -1    0    0    0    0  0.00000000000E+00  0.00000000000E+00  0.14999999963E+04  0.15000000000E+04  0.10566000000E+00 0.  1.
        994   -1    0    0    0    0 -0.00000000000E+00 -0.00000000000E+00  0.11368683772E-12  0.17120000000E+03  0.17120000000E+03 0.  0.
         13    1    1    2    0    0  0.30240248293E+01 -0.98882774170E+01  0.20061256350E+02  0.22569623985E+02  0.10566000000E+00 0.  1.
        994    1    1    2    0    0  0.10152723774E+02  0.47365494126E+01  0.30024237423E+01  0.17159244520E+03  0.17120000000E+03 0.  0.
        998    1    1    2    0    0 -0.13176748603E+02  0.51517280044E+01  0.14769363162E+04  0.14770379308E+04  0.10000000000E+02 0.  1.
</event>
<event>
 5    1  0.1271464E-008  0.3818046E+03  0.7957747E-01  0.3443338E+00
         13   -1    0    0    0    0  0.00000000000E+00  0.00000000000E+00  0.14999999963E+04  0.15000000000E+04  0.10566000000E+00 0. -1.
        994   -1    0    0    0    0 -0.00000000000E+00 -0.00000000000E+00  0.11368683772E-12  0.17120000000E+03  0.17120000000E+03 0.  0.
         13    1    1    2    0    0  0.18353404440E+02  0.16584723280E+01  0.55277102826E+02  0.58268063688E+02  0.10566000000E+00 0. -1.
        994    1    1    2    0    0  0.32111621778E+01  0.84515825176E+01  0.34966409000E+01  0.17147421762E+03  0.17120000000E+03 0.  0.
        998    1    1    2    0    0 -0.21564566617E+02 -0.10110054846E+02  0.14412262526E+04  0.14414577187E+04  0.10000000000E+02 0. -1.
</event>
<event>
 5    1  0.1271464E-008  0.3826594E+03  0.7957747E-01  0.3439660E+00
         13   -1    0    0    0    0  0.00000000000E+00  0.00000000000E+00  0.14999999963E+04  0.15000000000E+04  0.10566000000E+00 0.  1.
        994   -1    0    0    0    0 -0.00000000000E+00 -0.00000000000E+00  0.11368683772E-12  0.17120000000E+03  0.17120000000E+03 0.  0.
         13    1    1    2    0    0  0.78606149628E+01 -0.86992729636E+01  0.24824331077E+02  0.27454056078E+02  0.10566000000E+00 0.  1.
        994    1    1    2    0    0  0.10715917623E+02 -0.10509269952E+01  0.31809392567E+01  0.17156775254E+03  0.17120000000E+03 0.  0.
        998    1    1    2    0    0 -0.18576532586E+02  0.97501999588E+01  0.14719947259E+04  0.14721781914E+04  0.10000000000E+02 0.  1.
</event>
<event>
 5    1  0.1271464E-008  0.3821660E+03  0.7957747E-01  0.3441781E+00
         13   -1    0    0    0    0  0.00000000000E+00  0.00000000000E+00  0.14999999963E+04  0.15000000000E+04  0.10566000000E+00 0. -1.
        994   -1    0    0    0    0 -0.00000000000E+00 -0.00000000000E+00  0.11368683772E-12  0.17120000000E+03  0.17120000000E+03 0.  0.
         13    1    1    2    0    0  0.59890629733E+02  0.14397684322E+03  0.68031633695E+03  0.69795884434E+03  0.10566000000E+00 0. -1.
        994    1    1    2    0    0 -0.89809242077E+02 -0.19245025769E+03  0.17093070034E+03  0.32191543294E+03  0.17120000000E+03 0.  0.
        998    1    1    2    0    0  0.29918612344E+02  0.48473414471E+02  0.64875295899E+03  0.65132572272E+03  0.10000000000E+02 0. -1.
</event>
<event>
 5    1  0.1271464E-008  0.3748637E+03  0.7957747E-01  0.3473833E+00
         13   -1    0    0    0    0  0.00000000000E+00  0.00000000000E+00  0.14999999963E+04  0.15000000000E+04  0.10566000000E+00 0.  1.
        994   -1    0    0    0    0 -0.00000000000E+00 -0.00000000000E+00  0.11368683772E-12  0.17120000000E+03  0.17120000000E+03 0.  0.
         13    1    1    2    0    0  0.37767735396E+02 -0.12722360603E+02  0.94661027925E+02  0.10270823564E+03  0.10566000000E+00 0.  1.
        994    1    1    2    0    0 -0.75190655713E+02  0.42141297588E+01  0.26287300701E+02  0.18886994407E+03  0.17120000000E+03 0.  0.
        998    1    1    2    0    0  0.37422920317E+02  0.85082308443E+01  0.13790516677E+04  0.13796218203E+04  0.10000000000E+02 0.  1.
</event>
<event>
 5    1  0.1271464E-008  0.3774812E+03  0.7957747E-01  0.3462200E+00
         13   -1    0    0    0    0  0.00000000000E+00  0.00000000000E+00  0.14999999963E+04  0.15000000000E+04  0.10566000000E+00 0.  1.
        994   -1    0    0    0    0 -0.00000000000E+00 -0.00000000000E+00  0.11368683772E-12  0.17120000000E+03  0.17120000000E+03 0.  0.
         13    1    1    2    0    0  0.63519160204E+02 -0.49122451643E+02  0.42438547335E+03  0.43191520015E+03  0.10566000000E+00 0.  1.
        994    1    1    2    0    0 -0.62731545930E+02  0.49963661814E+02  0.27407429425E+02  0.19102937351E+03  0.17120000000E+03 0.  0.
        998    1    1    2    0    0 -0.78761427396E+00 -0.84121017028E+00  0.10482070935E+04  0.10482554263E+04  0.10000000000E+02 0.  0.
</event>
<event>
 5    1  0.1271464E-008  0.3785491E+03  0.7957747E-01  0.3457500E+00
         13   -1    0    0    0    0  0.00000000000E+00  0.00000000000E+00  0.14999999963E+04  0.15000000000E+04  0.10566000000E+00 0.  1.
        994   -1    0    0    0    0 -0.00000000000E+00 -0.00000000000E+00  0.11368683772E-12  0.17120000000E+03  0.17120000000E+03 0.  0.
         13    1    1    2    0    0 -0.11420187137E+02  0.89360246658E+01  0.19403477201E+02  0.24223527872E+02  0.10566000000E+00 0.  1.
        994    1    1    2    0    0  0.12795704994E+02 -0.44595265128E+01  0.54843532309E+01  0.17182297743E+03  0.17120000000E+03 0.  0.
        998    1    1    2    0    0 -0.13755178568E+01 -0.44764981529E+01  0.14751121658E+04  0.14751534947E+04  0.10000000000E+02 0.  1.
</event>
<event>
 5    1  0.1271464E-008  0.3822707E+03  0.7957747E-01  0.3441330E+00
         13   -1    0    0    0    0  0.00000000000E+00  0.00000000000E+00  0.14999999963E+04  0.15000000000E+04  0.10566000000E+00 0. -1.
        994   -1    0    0    0    0 -0.00000000000E+00 -0.00000000000E+00  0.11368683772E-12  0.17120000000E+03  0.17120000000E+03 0.  0.
         13    1    1    2    0    0  0.23833451722E+02 -0.77861990406E+01  0.11703268727E+03  0.11968842622E+03  0.10566000000E+00 0. -1.
        994    1    1    2    0    0 -0.71531205713E+01 -0.26792977610E+02  0.55471038670E+01  0.17352014622E+03  0.17120000000E+03 0.  0.
        998    1    1    2    0    0 -0.16680331151E+02  0.34579176650E+02  0.13774202051E+04  0.13779914276E+04  0.10000000000E+02 0. -1.
</event>
<event>
 5    1  0.1271464E-008  0.3777991E+03  0.7957747E-01  0.3460798E+00
         13   -1    0    0    0    0  0.00000000000E+00  0.00000000000E+00  0.14999999963E+04  0.15000000000E+04  0.10566000000E+00 0.  1.
        994   -1    0    0    0    0 -0.00000000000E+00 -0.00000000000E+00  0.11368683772E-12  0.17120000000E+03  0.17120000000E+03 0.  0.
         13    1    1    2    0    0  0.20651927453E+02  0.69650840086E+01  0.44845088811E+02  0.49860883037E+02  0.10566000000E+00 0.  1.
        994    1    1    2    0    0 -0.23171547103E+01 -0.27514629897E+01  0.52918567116E+01  0.17131953625E+03  0.17120000000E+03 0.  0.
        998    1    1    2    0    0 -0.18334772742E+02 -0.42136210189E+01  0.14498630508E+04  0.14500195807E+04  0.10000000000E+02 0.  1.
</event>
<event>
 5    1  0.1271464E-008  0.3894002E+03  0.7957747E-01  0.3411222E+00
         13   -1    0    0    0    0  0.00000000000E+00  0.00000000000E+00  0.14999999963E+04  0.15000000000E+04  0.10566000000E+00 0.  1.
        994   -1    0    0    0    0 -0.00000000000E+00 -0.00000000000E+00  0.11368683772E-12  0.17120000000E+03  0.17120000000E+03 0.  0.
         13    1    1    2    0    0  0.16940517816E+02  0.41803321966E+02  0.41664733062E+02  0.61404071660E+02  0.10566000000E+00 0.  1.
        994    1    1    2    0    0 -0.77174872314E+01 -0.52816321374E+01  0.21918508966E+02  0.17285056055E+03  0.17120000000E+03 0.  0.
        998    1    1    2    0    0 -0.92230305846E+01 -0.36521689829E+02  0.14364167543E+04  0.14369453678E+04  0.10000000000E+02 0.  1.
</event>
<event>
 5    1  0.1271464E-008  0.3851493E+03  0.7957747E-01  0.3429039E+00
         13   -1    0    0    0    0  0.00000000000E+00  0.00000000000E+00  0.14999999963E+04  0.15000000000E+04  0.10566000000E+00 0. -1.
        994   -1    0    0    0    0 -0.00000000000E+00 -0.00000000000E+00  0.11368683772E-12  0.17120000000E+03  0.17120000000E+03 0.  0.
         13    1    1    2    0    0  0.50529953745E+01  0.16406096241E+02  0.99878697683E+02  0.10134326900E+03  0.10566000000E+00 0. -1.
        994    1    1    2    0    0 -0.11182237834E+01 -0.45302115251E+01  0.16275891346E+01  0.17127131192E+03  0.17120000000E+03 0.  0.
        998    1    1    2    0    0 -0.39347715911E+01 -0.11875884716E+02  0.13984937095E+04  0.13985854191E+04  0.10000000000E+02 0. -1.
</event>
<event>
 5    1  0.1271464E-008  0.3841638E+03  0.7957747E-01  0.3433226E+00
         13   -1    0    0    0    0  0.00000000000E+00  0.00000000000E+00  0.14999999963E+04  0.15000000000E+04  0.10566000000E+00 0.  1.
        994   -1    0    0    0    0 -0.00000000000E+00 -0.00000000000E+00  0.11368683772E-12  0.17120000000E+03  0.17120000000E+03 0.  0.
         13    1    1    2    0    0 -0.20628221985E+01 -0.23215962209E+02  0.13067713790E+03  0.13273945032E+03  0.10566000000E+00 0.  1.
        994    1    1    2    0    0  0.78422400335E+01  0.15330056274E+02  0.30242590728E+01  0.17209037596E+03  0.17120000000E+03 0.  0.
        998    1    1    2    0    0 -0.57794178350E+01  0.78859059346E+01  0.13662985993E+04  0.13663701737E+04  0.10000000000E+02 0.  1.
</event>
<event>
 5    1  0.1271464E-008  0.3752961E+03  0.7957747E-01  0.3471900E+00
         13   -1    0    0    0    0  0.00000000000E+00  0.00000000000E+00  0.14999999963E+04  0.15000000000E+04  0.10566000000E+00 0. -1.
        994   -1    0    0    0    0 -0.00000000000E+00 -0.00000000000E+00  0.11368683772E-12  0.17120000000E+03  0.17120000000E+03 0.  0.
         13    1    1    2    0    0 -0.50539176914E+02  0.19922837780E+02  0.30193378223E+03  0.30678192235E+03  0.10566000000E+00 0. -1.
        994    1    1    2    0    0 -0.91096516517E+00  0.13324249556E+02  0.71326689149E+01  0.17186820663E+03  0.17120000000E+03 0.  0.
        998    1    1    2    0    0  0.51450142079E+02 -0.33247087336E+02  0.11909335451E+04  0.11925498710E+04  0.10000000000E+02 0. -1.
</event>
<event>
 5    1  0.1271464E-008  0.3826884E+03  0.7957747E-01  0.3439536E+00
         13   -1    0    0    0    0  0.00000000000E+00  0.00000000000E+00  0.14999999963E+04  0.15000000000E+04  0.10566000000E+00 0. -1.
        994   -1    0    0    0    0 -0.00000000000E+00 -0.00000000000E+00  0.11368683772E-12  0.17120000000E+03  0.17120000000E+03 0.  0.
         13    1    1    2    0    0 -0.48793134418E+02  0.51732041345E+02  0.16534889648E+03  0.17999234094E+03  0.10566000000E+00 0. -1.
        994    1    1    2    0    0 -0.92949187541E+01 -0.14474644871E+01  0.18136010651E+02  0.17241474865E+03  0.17120000000E+03 0.  0.
        998    1    1    2    0    0  0.58088053172E+02 -0.50284576858E+02  0.13165150892E+04  0.13187929104E+04  0.10000000000E+02 0. -1.
</event>
<event>
 5    1  0.1271464E-008  0.3701005E+03  0.7957747E-01  0.3495429E+00
         13   -1    0    0    0    0  0.00000000000E+00  0.00000000000E+00  0.14999999963E+04  0.15000000000E+04  0.10566000000E+00 0. -1.
        994   -1    0    0    0    0 -0.00000000000E+00 -0.00000000000E+00  0.11368683772E-12  0.17120000000E+03  0.17120000000E+03 0.  0.
         13    1    1    2    0    0 -0.61033338293E+02 -0.17049211792E+02  0.26367495443E+03  0.27118303185E+03  0.10566000000E+00 0. -1.
        994    1    1    2    0    0  0.56832367980E+01 -0.46113272494E+01  0.94017282512E+01  0.17161409037E+03  0.17120000000E+03 0.  0.
        998    1    1    2    0    0  0.55350101495E+02  0.21660539042E+02  0.12269233136E+04  0.12284028778E+04  0.10000000000E+02 0. -1.
</event>
<event>
 5    1  0.1271464E-008  0.3687117E+03  0.7957747E-01  0.3501833E+00
         13   -1    0    0    0    0  0.00000000000E+00  0.00000000000E+00  0.14999999963E+04  0.15000000000E+04  0.10566000000E+00 0.  1.
        994   -1    0    0    0    0 -0.00000000000E+00 -0.00000000000E+00  0.11368683772E-12  0.17120000000E+03  0.17120000000E+03 0.  0.
         13    1    1    2    0    0 -0.16846143596E+02 -0.65640767300E+02  0.23704258895E+03  0.24653945531E+03  0.10566000000E+00 0.  1.
        994    1    1    2    0    0 -0.18844858473E+02  0.33107502496E+02  0.15326874599E+02  0.17605564035E+03  0.17120000000E+03 0.  0.
        998    1    1    2    0    0  0.35691002068E+02  0.32533264804E+02  0.12476305327E+04  0.12486049043E+04  0.10000000000E+02 0.  1.
</event>
<event>
 5    1  0.1271464E-008  0.3836011E+03  0.7957747E-01  0.3435627E+00
         13   -1    0    0    0    0  0.00000000000E+00  0.00000000000E+00  0.14999999963E+04  0.15000000000E+04  0.10566000000E+00 0. -1.
        994   -1    0    0    0    0 -0.00000000000E+00 -0.00000000000E+00  0.11368683772E-12  0.17120000000E+03  0.17120000000E+03 0.  0.
         13    1    1    2    0    0  0.56195530915E+01  0.84823188208E+01  0.21346827187E+02  0.23647987325E+02  0.10566000000E+00 0. -1.
        994    1    1    2    0    0 -0.28044382511E+01 -0.85199264282E+01  0.25921201771E+01  0.17145440533E+03  0.17120000000E+03 0.  0.
        998    1    1    2    0    0 -0.28151148405E+01  0.37607607378E-01  0.14760610489E+04  0.14760976073E+04  0.10000000000E+02 0. -1.
</event>
<event>
 5    1  0.1271464E-008  0.3780469E+03  0.7957747E-01  0.3459707E+00
         13   -1    0    0    0    0  0.00000000000E+00  0.00000000000E+00  0.14999999963E+04  0.15000000000E+04  0.10566000000E+00 0.  1.
        994   -1    0    0    0    0 -0.00000000000E+00 -0.00000000000E+00  0.11368683772E-12  0.17120000000E+03  0.17120000000E+03 0.  0.
         13    1    1    2    0    0 -0.24583637934E+01  0.10042038762E+02  0.80493812858E+01  0.13103045378E+02  0.10566000000E+00 0.  1.
        994    1    1    2    0    0  0.41619050284E+01 -0.10301912228E+02  0.55378185609E+01  0.17164952165E+03  0.17120000000E+03 0.  0.
        998    1    1    2    0    0 -0.17035412349E+01  0.25987346600E+00  0.14864127964E+04  0.14864474330E+04  0.10000000000E+02 0.  1.
</event>
<event>
 5    1  0.1271464E-008  0.3795788E+03  0.7957747E-01  0.3452994E+00
         13   -1    0    0    0    0  0.00000000000E+00  0.00000000000E+00  0.14999999963E+04  0.15000000000E+04  0.10566000000E+00 0.  1.
        994   -1    0    0    0    0 -0.00000000000E+00 -0.00000000000E+00  0.11368683772E-12  0.17120000000E+03  0.17120000000E+03 0.  0.
         13    1    1    2    0    0  0.15991257176E+02  0.66238862986E+01  0.32242058805E+02  0.36594503628E+02  0.10566000000E+00 0.  1.
        994    1    1    2    0    0 -0.20561943024E+02  0.59876017173E+01  0.58827459046E+01  0.17263456078E+03  0.17120000000E+03 0.  0.
        998    1    1    2    0    0  0.45706858483E+01 -0.12611488016E+02  0.14618751916E+04  0.14619709356E+04  0.10000000000E+02 0.  1.
</event>
<event>
 5    1  0.1271464E-008  0.3832225E+03  0.7957747E-01  0.3437246E+00
         13   -1    0    0    0    0  0.00000000000E+00  0.00000000000E+00  0.14999999963E+04  0.15000000000E+04  0.10566000000E+00 0.  1.
        994   -1    0    0    0    0 -0.00000000000E+00 -0.00000000000E+00  0.11368683772E-12  0.17120000000E+03  0.17120000000E+03 0.  0.
         13    1    1    2    0    0  0.14164772113E+02 -0.31484938388E+01  0.42838865285E+02  0.45229783610E+02  0.10566000000E+00 0.  1.
        994    1    1    2    0    0 -0.12980792409E+01 -0.53415302262E+01  0.26151612147E+01  0.17130819018E+03  0.17120000000E+03 0.  0.
        998    1    1    2    0    0 -0.12866692873E+02  0.84900240651E+01  0.14545459698E+04  0.14546620262E+04  0.10000000000E+02 0.  1.
</event>
<event>
 5    1  0.1271464E-008  0.3750707E+03  0.7957747E-01  0.3472907E+00
         13   -1    0    0    0    0  0.00000000000E+00  0.00000000000E+00  0.14999999963E+04  0.15000000000E+04  0.10566000000E+00 0.  1.
        994   -1    0    0    0    0 -0.00000000000E+00 -0.00000000000E+00  0.11368683772E-12  0.17120000000E+03  0.17120000000E+03 0.  0.
         13    1    1    2    0    0 -0.28894634952E+02 -0.41907437908E+02  0.16992516033E+03  0.17738575072E+03  0.10566000000E+00 0.  1.
        994    1    1    2    0    0  0.32399315493E+02  0.42132434452E+02  0.16303633044E+02  0.18000029480E+03  0.17120000000E+03 0.  0.
        998    1    1    2    0    0 -0.35046805409E+01 -0.22499654445E+00  0.13137712029E+04  0.13138139545E+04  0.10000000000E+02 0.  1.
</event>
<event>
 5    1  0.1271464E-008  0.3882882E+03  0.7957747E-01  0.3415845E+00
         13   -1    0    0    0    0  0.00000000000E+00  0.00000000000E+00  0.14999999963E+04  0.15000000000E+04  0.10566000000E+00 0. -1.
        994   -1    0    0    0    0 -0.00000000000E+00 -0.00000000000E+00  0.11368683772E-12  0.17120000000E+03  0.17120000000E+03 0.  0.
         13    1    1    2    0    0  0.16915215352E+02  0.22265050285E+02  0.96460292687E+01  0.29578945540E+02  0.10566000000E+00 0. -1.
        994    1    1    2    0    0 -0.19207239795E+02 -0.19792158777E+02  0.23804414952E+02  0.17503353330E+03  0.17120000000E+03 0.  0.
        998    1    1    2    0    0  0.22920244435E+01 -0.24728915076E+01  0.14665495521E+04  0.14665875212E+04  0.10000000000E+02 0. -1.
</event>
<event>
 5    1  0.1271464E-008  0.3865286E+03  0.7957747E-01  0.3423215E+00
         13   -1    0    0    0    0  0.00000000000E+00  0.00000000000E+00  0.14999999963E+04  0.15000000000E+04  0.10566000000E+00 0.  1.
        994   -1    0    0    0    0 -0.00000000000E+00 -0.00000000000E+00  0.11368683772E-12  0.17120000000E+03  0.17120000000E+03 0.  0.
         13    1    1    2    0    0  0.89020819487E+01  0.12529283622E+02 -0.31755055829E+01  0.15694744689E+02  0.10566000000E+00 0.  1.
        994    1    1    2    0    0 -0.98229918807E+01 -0.13206315039E+02  0.20967103404E+02  0.17326268309E+03  0.17120000000E+03 0.  0.
        998    1    1    2    0    0  0.92090993198E+00  0.67703141616E+00  0.14822083985E+04  0.14822425722E+04  0.10000000000E+02 0.  1.
</event>
<event>
 5    1  0.1271464E-008  0.3724319E+03  0.7957747E-01  0.3484788E+00
         13   -1    0    0    0    0  0.00000000000E+00  0.00000000000E+00  0.14999999963E+04  0.15000000000E+04  0.10566000000E+00 0. -1.
        994   -1    0    0    0    0 -0.00000000000E+00 -0.00000000000E+00  0.11368683772E-12  0.17120000000E+03  0.17120000000E+03 0.  0.
         13    1    1    2    0    0  0.49312225515E+02  0.33456360390E+02  0.13088199851E+03  0.14380936108E+03  0.10566000000E+00 0. -1.
        994    1    1    2    0    0 -0.46414994642E+02 -0.32704251190E+02  0.23686547670E+02  0.18191869699E+03  0.17120000000E+03 0.  0.
        998    1    1    2    0    0 -0.28972308726E+01 -0.75210920006E+00  0.13454314501E+04  0.13454719419E+04  0.10000000000E+02 0. -1.
</event>
<event>
 5    1  0.1271464E-008  0.3827164E+03  0.7957747E-01  0.3439415E+00
         13   -1    0    0    0    0  0.00000000000E+00  0.00000000000E+00  0.14999999963E+04  0.15000000000E+04  0.10566000000E+00 0.  1.
        994   -1    0    0    0    0 -0.00000000000E+00 -0.00000000000E+00  0.11368683772E-12  0.17120000000E+03  0.17120000000E+03 0.  0.
         13    1    1    2    0    0 -0.99431921620E+01 -0.28739271597E+01  0.17974189927E+02  0.20741484885E+02  0.10566000000E+00 0.  1.
        994    1    1    2    0    0  0.12882726082E+02  0.24113296405E+01  0.33374908631E+01  0.17173339217E+03  0.17120000000E+03 0.  0.
        998    1    1    2    0    0 -0.29395339203E+01  0.46259751915E+00  0.14786883155E+04  0.14787251229E+04  0.10000000000E+02 0.  1.
</event>
<event>
 5    1  0.1271464E-008  0.3857441E+03  0.7957747E-01  0.3426523E+00
         13   -1    0    0    0    0  0.00000000000E+00  0.00000000000E+00  0.14999999963E+04  0.15000000000E+04  0.10566000000E+00 0. -1.
        994   -1    0    0    0    0 -0.00000000000E+00 -0.00000000000E+00  0.11368683772E-12  0.17120000000E+03  0.17120000000E+03 0.  0.
         13    1    1    2    0    0  0.42576605851E+01 -0.13965856671E+02  0.84866897245E+02  0.86113728512E+02  0.10566000000E+00 0. -1.
        994    1    1    2    0    0 -0.46801888735E+01  0.89852660024E+01  0.15979834449E+01  0.17150694658E+03  0.17120000000E+03 0.  0.
        998    1    1    2    0    0  0.42252828840E+00  0.49805906691E+01  0.14135351156E+04  0.14135793249E+04  0.10000000000E+02 0. -1.
</event>
<event>
 5    1  0.1271464E-008  0.3855262E+03  0.7957747E-01  0.3427444E+00
         13   -1    0    0    0    0  0.00000000000E+00  0.00000000000E+00  0.14999999963E+04  0.15000000000E+04  0.10566000000E+00 0.  1.
        994   -1    0    0    0    0 -0.00000000000E+00 -0.00000000000E+00  0.11368683772E-12  0.17120000000E+03  0.17120000000E+03 0.  0.
         13    1    1    2    0    0  0.79242132352E+01  0.78351813029E+01  0.45069020057E+02  0.46426403634E+02  0.10566000000E+00 0.  1.
        994    1    1    2    0    0 -0.25699804362E+01 -0.10715154325E+02  0.17678592309E+01  0.17156335465E+03  0.17120000000E+03 0.  0.
        998    1    1    2    0    0 -0.53542327990E+01  0.28799730217E+01  0.14531631170E+04  0.14532102417E+04  0.10000000000E+02 0.  1.
</event>
<event>
 5    1  0.1271464E-008  0.3801961E+03  0.7957747E-01  0.3450305E+00
         13   -1    0    0    0    0  0.00000000000E+00  0.00000000000E+00  0.14999999963E+04  0.15000000000E+04  0.10566000000E+00 0. -1.
        994   -1    0    0    0    0 -0.00000000000E+00 -0.00000000000E+00  0.11368683772E-12  0.17120000000E+03  0.17120000000E+03 0.  0.
         13    1    1    2    0    0 -0.21007229103E+02 -0.23799306431E+02  0.11785329503E+03  0.12205376264E+03  0.10566000000E+00 0. -1.
        994    1    1    2    0    0  0.14638423296E+02  0.23633001602E+02  0.66201964295E+01  0.17356862966E+03  0.17120000000E+03 0.  0.
        998    1    1    2    0    0  0.63688058067E+01  0.16630482901E+00  0.13755265048E+04  0.13755776077E+04  0.10000000000E+02 0. -1.
</event>
<event>
 5    1  0.1271464E-008  0.3830219E+03  0.7957747E-01  0.3438105E+00
         13   -1    0    0    0    0  0.00000000000E+00  0.00000000000E+00  0.14999999963E+04  0.15000000000E+04  0.10566000000E+00 0.  1.
        994   -1    0    0    0    0 -0.00000000000E+00 -0.00000000000E+00  0.11368683772E-12  0.17120000000E+03  0.17120000000E+03 0.  0.
         13    1    1    2    0    0  0.53911299295E+01  0.23814227114E+02  0.13115543633E+03  0.13340892526E+03  0.10566000000E+00 0.  1.
        994    1    1    2    0    0  0.92044967423E+01  0.27727438543E+01  0.29213339656E+01  0.17149456277E+03  0.17120000000E+03 0.  0.
        998    1    1    2    0    0 -0.14595626672E+02 -0.26586970968E+02  0.13659232260E+04  0.13662965120E+04  0.10000000000E+02 0.  1.
</event>
<event>
 5    1  0.1271464E-008  0.3832762E+03  0.7957747E-01  0.3437016E+00
         13   -1    0    0    0    0  0.00000000000E+00  0.00000000000E+00  0.14999999963E+04  0.15000000000E+04  0.10566000000E+00 0.  1.
        994   -1    0    0    0    0 -0.00000000000E+00 -0.00000000000E+00  0.11368683772E-12  0.17120000000E+03  0.17120000000E+03 0.  0.
         13    1    1    2    0    0  0.11820239652E+01  0.12366399560E+02  0.32699087935E+02  0.34979515928E+02  0.10566000000E+00 0.  1.
        994    1    1    2    0    0 -0.12342353525E+02  0.13274227588E+02  0.35756497667E+01  0.17219397225E+03  0.17120000000E+03 0.  0.
        998    1    1    2    0    0  0.11160329560E+02 -0.25640627148E+02  0.14637252586E+04  0.14640265118E+04  0.10000000000E+02 0.  1.
</event>
<event>
 5    1  0.1271464E-008  0.3860240E+03  0.7957747E-01  0.3425341E+00
         13   -1    0    0    0    0  0.00000000000E+00  0.00000000000E+00  0.14999999963E+04  0.15000000000E+04  0.10566000000E+00 0.  1.
        994   -1    0    0    0    0 -0.00000000000E+00 -0.00000000000E+00  0.11368683772E-12  0.17120000000E+03  0.17120000000E+03 0.  0.
         13    1    1    2    0    0  0.17943171172E+01 -0.12365097141E+02  0.65407045454E+02  0.66589848778E+02  0.10566000000E+00 0.  1.
        994    1    1    2    0    0  0.94832497483E+00  0.18409874000E+02  0.22372332738E+01  0.17220414627E+03  0.17120000000E+03 0.  0.
        998    1    1    2    0    0 -0.27426420920E+01 -0.60447768598E+01  0.14323557176E+04  0.14324060049E+04  0.10000000000E+02 0.  1.
</event>
<event>
 5    1  0.1271464E-008  0.3846152E+03  0.7957747E-01  0.3431306E+00
         13   -1    0    0    0    0  0.00000000000E+00  0.00000000000E+00  0.14999999963E+04  0.15000000000E+04  0.10566000000E+00 0.  1.
        994   -1    0    0    0    0 -0.00000000000E+00 -0.00000000000E+00  0.11368683772E-12  0.17120000000E+03  0.17120000000E+03 0.  0.
         13    1    1    2    0    0  0.10176183420E+02  0.71997654315E+01  0.42554139557E+02  0.44342499803E+02  0.10566000000E+00 0.  1.
        994    1    1    2    0    0 -0.73944132118E+01 -0.26543538124E+01  0.20245955879E+01  0.17139212913E+03  0.17120000000E+03 0.  0.
        998    1    1    2    0    0 -0.27817702082E+01 -0.45454116190E+01  0.14554212611E+04  0.14554653711E+04  0.10000000000E+02 0.  1.
</event>
<event>
 5    1  0.1271464E-008  0.3844836E+03  0.7957747E-01  0.3431865E+00
         13   -1    0    0    0    0  0.00000000000E+00  0.00000000000E+00  0.14999999963E+04  0.15000000000E+04  0.10566000000E+00 0. -1.
        994   -1    0    0    0    0 -0.00000000000E+00 -0.00000000000E+00  0.11368683772E-12  0.17120000000E+03  0.17120000000E+03 0.  0.
         13    1    1    2    0    0 -0.90128853848E+01  0.15791213672E+02  0.85769978208E+02  0.87676079166E+02  0.10566000000E+00 0. -1.
        994    1    1    2    0    0 -0.10879182372E+02 -0.23496993565E+02  0.40984617026E+01  0.17319556202E+03  0.17120000000E+03 0.  0.
        998    1    1    2    0    0  0.19892067757E+02  0.77057798935E+01  0.14101315564E+04  0.14103283588E+04  0.10000000000E+02 0. -1.
</event>
<event>
 5    1  0.1271464E-008  0.3761794E+03  0.7957747E-01  0.3467965E+00
         13   -1    0    0    0    0  0.00000000000E+00  0.00000000000E+00  0.14999999963E+04  0.15000000000E+04  0.10566000000E+00 0.  1.
        994   -1    0    0    0    0 -0.00000000000E+00 -0.00000000000E+00  0.11368683772E-12  0.17120000000E+03  0.17120000000E+03 0.  0.
         13    1    1    2    0    0  0.14541726529E+02 -0.16521544175E+02  0.10722204362E+02  0.24482648198E+02  0.10566000000E+00 0.  1.
        994    1    1    2    0    0 -0.13706151359E+02  0.14276883108E+02  0.15645149063E+02  0.17304883318E+03  0.17120000000E+03 0.  0.
        998    1    1    2    0    0 -0.83557516984E+00  0.22446610673E+01  0.14736326429E+04  0.14736685186E+04  0.10000000000E+02 0.  1.
</event>
<event>
 5    1  0.1271464E-008  0.3686131E+03  0.7957747E-01  0.3502289E+00
         13   -1    0    0    0    0  0.00000000000E+00  0.00000000000E+00  0.14999999963E+04  0.15000000000E+04  0.10566000000E+00 0. -1.
        994   -1    0    0    0    0 -0.00000000000E+00 -0.00000000000E+00  0.11368683772E-12  0.17120000000E+03  0.17120000000E+03 0.  0.
         13    1    1    2    0    0 -0.21270366838E+01 -0.10483205455E+02  0.81746036697E+00  0.10728526793E+02  0.10566000000E+00 0. -1.
        994    1    1    2    0    0 -0.59002156893E+00  0.11083766192E+02  0.10636065541E+02  0.17188881258E+03  0.17120000000E+03 0.  0.
        998    1    1    2    0    0  0.27170582528E+01 -0.60056073658E+00  0.14885464704E+04  0.14885826606E+04  0.10000000000E+02 0. -1.
</event>
<event>
 5    1  0.1271464E-008  0.3858145E+03  0.7957747E-01  0.3426225E+00
         13   -1    0    0    0    0  0.00000000000E+00  0.00000000000E+00  0.14999999963E+04  0.15000000000E+04  0.10566000000E+00 0. -1.
        994   -1    0    0    0    0 -0.00000000000E+00 -0.00000000000E+00  0.11368683772E-12  0.17120000000E+03  0.17120000000E+03 0.  0.
         13    1    1    2    0    0 -0.13753213786E+02  0.36070553704E+00  0.79078838292E+02  0.80266772874E+02  0.10566000000E+00 0. -1.
        994    1    1    2    0    0  0.69878327340E+01 -0.81906357450E+01  0.16066091476E+01  0.17154573009E+03  0.17120000000E+03 0.  0.
        998    1    1    2    0    0  0.67653810516E+01  0.78299302079E+01  0.14193145488E+04  0.14193874970E+04  0.10000000000E+02 0. -1.
</event>
<event>
 5    1  0.1271464E-008  0.3690755E+03  0.7957747E-01  0.3500150E+00
         13   -1    0    0    0    0  0.00000000000E+00  0.00000000000E+00  0.14999999963E+04  0.15000000000E+04  0.10566000000E+00 0.  1.
        994   -1    0    0    0    0 -0.00000000000E+00 -0.00000000000E+00  0.11368683772E-12  0.17120000000E+03  0.17120000000E+03 0.  0.
         13    1    1    2    0    0 -0.14051699750E+01  0.49337352538E+02  0.11563932051E+03  0.12573230480E+03  0.10566000000E+00 0.  1.
        994    1    1    2    0    0  0.48825422457E+01 -0.24596444796E+02  0.12645158251E+02  0.17348822537E+03  0.17120000000E+03 0.  0.
        998    1    1    2    0    0 -0.34773722707E+01 -0.24740907742E+02  0.13717155175E+04  0.13719794698E+04  0.10000000000E+02 0.  1.
</event>
<event>
 5    1  0.1271464E-008  0.3846271E+03  0.7957747E-01  0.3431255E+00
         13   -1    0    0    0    0  0.00000000000E+00  0.00000000000E+00  0.14999999963E+04  0.15000000000E+04  0.10566000000E+00 0.  1.
        994   -1    0    0    0    0 -0.00000000000E+00 -0.00000000000E+00  0.11368683772E-12  0.17120000000E+03  0.17120000000E+03 0.  0.
         13    1    1    2    0    0  0.85775281717E+01  0.57076249866E+01  0.28094208315E+02  0.29924015062E+02  0.10566000000E+00 0.  1.
        994    1    1    2    0    0 -0.10338219338E+02 -0.88411488201E+01  0.24249267295E+01  0.17175670281E+03  0.17120000000E+03 0.  0.
        998    1    1    2    0    0  0.17606911662E+01  0.31335238335E+01  0.14694808612E+04  0.14695192821E+04  0.10000000000E+02 0.  1.
</event>
<event>
 5    1  0.1271464E-008  0.3815710E+03  0.7957747E-01  0.3444347E+00
         13   -1    0    0    0    0  0.00000000000E+00  0.00000000000E+00  0.14999999963E+04  0.15000000000E+04  0.10566000000E+00 0. -1.
        994   -1    0    0    0    0 -0.00000000000E+00 -0.00000000000E+00  0.11368683772E-12  0.17120000000E+03  0.17120000000E+03 0.  0.
         13    1    1    2    0    0 -0.40718693385E+02 -0.94041984403E+01  0.24663816870E+03  0.25015364951E+03  0.10566000000E+00 0. -1.
        994    1    1    2    0    0  0.27030166190E+02  0.16306112459E+02  0.66633760573E+01  0.17421354645E+03  0.17120000000E+03 0.  0.
        998    1    1    2    0    0  0.13688527195E+02 -0.69019140189E+01  0.12466984515E+04  0.12468328040E+04  0.10000000000E+02 0. -1.
</event>
<event>
 5    1  0.1271464E-008  0.3821543E+03  0.7957747E-01  0.3441832E+00
         13   -1    0    0    0    0  0.00000000000E+00  0.00000000000E+00  0.14999999963E+04  0.15000000000E+04  0.10566000000E+00 0. -1.
        994   -1    0    0    0    0 -0.00000000000E+00 -0.00000000000E+00  0.11368683772E-12  0.17120000000E+03  0.17120000000E+03 0.  0.
         13    1    1    2    0    0  0.13862237573E+02  0.90609813967E+01  0.46556578939E+02  0.49414463681E+02  0.10566000000E+00 0. -1.
        994    1    1    2    0    0  0.79884500062E+01 -0.66167746888E+01  0.34068315353E+01  0.17154778792E+03  0.17120000000E+03 0.  0.
        998    1    1    2    0    0 -0.21850687580E+02 -0.24442067079E+01  0.14500365858E+04  0.14502377484E+04  0.10000000000E+02 0. -1.
</event>
<event>
 5    1  0.1271464E-008  0.3842871E+03  0.7957747E-01  0.3432701E+00
         13   -1    0    0    0    0  0.00000000000E+00  0.00000000000E+00  0.14999999963E+04  0.15000000000E+04  0.10566000000E+00 0.  1.
        994   -1    0    0    0    0 -0.00000000000E+00 -0.00000000000E+00  0.11368683772E-12  0.17120000000E+03  0.17120000000E+03 0.  0.
         13    1    1    2    0    0 -0.19315960713E+02  0.68323587574E+01  0.10252424509E+03  0.10455151582E+03  0.10566000000E+00 0.  1.
        994    1    1    2    0    0  0.13820020470E+02 -0.11400243419E+02  0.30431596390E+01  0.17216172437E+03  0.17120000000E+03 0.  0.
        998    1    1    2    0    0  0.54959402434E+01  0.45678846620E+01  0.13944325915E+04  0.13944867598E+04  0.10000000000E+02 0.  1.
</event>
<event>
 5    1  0.1271464E-008  0.3798173E+03  0.7957747E-01  0.3451954E+00
         13   -1    0    0    0    0  0.00000000000E+00  0.00000000000E+00  0.14999999963E+04  0.15000000000E+04  0.10566000000E+00 0.  1.
        994   -1    0    0    0    0 -0.00000000000E+00 -0.00000000000E+00  0.11368683772E-12  0.17120000000E+03  0.17120000000E+03 0.  0.
         13    1    1    2    0    0  0.15398110044E+02  0.10692248305E+02  0.41314322798E+02  0.45368605875E+02  0.10566000000E+00 0.  1.
        994    1    1    2    0    0  0.17805940849E+01 -0.74986130952E+01  0.44241130200E+01  0.17143048880E+03  0.17120000000E+03 0.  0.
        998    1    1    2    0    0 -0.17178704129E+02 -0.31936352100E+01  0.14542615605E+04  0.14544009053E+04  0.10000000000E+02 0.  1.
</event>
<event>
 5    1  0.1271464E-008  0.3837042E+03  0.7957747E-01  0.3435186E+00
         13   -1    0    0    0    0  0.00000000000E+00  0.00000000000E+00  0.14999999963E+04  0.15000000000E+04  0.10566000000E+00 0.  1.
        994   -1    0    0    0    0 -0.00000000000E+00 -0.00000000000E+00  0.11368683772E-12  0.17120000000E+03  0.17120000000E+03 0.  0.
         13    1    1    2    0    0 -0.29203265472E+02  0.10619555382E+02  0.15891559037E+03  0.16192523490E+03  0.10566000000E+00 0.  1.
        994    1    1    2    0    0  0.58708938580E+02  0.20771396026E+01  0.13756536363E+02  0.18152062216E+03  0.17120000000E+03 0.  0.
        998    1    1    2    0    0 -0.29505673108E+02 -0.12696694985E+02  0.13273278696E+04  0.13277541429E+04  0.10000000000E+02 0.  1.
</event>
<event>
 5    1  0.1271464E-008  0.3854230E+03  0.7957747E-01  0.3427880E+00
         13   -1    0    0    0    0  0.00000000000E+00  0.00000000000E+00  0.14999999963E+04  0.15000000000E+04  0.10566000000E+00 0.  1.
        994   -1    0    0    0    0 -0.00000000000E+00 -0.00000000000E+00  0.11368683772E-12  0.17120000000E+03  0.17120000000E+03 0.  0.
         13    1    1    2    0    0  0.10291562100E+02  0.23535499164E+01  0.35549597367E+02  0.37084234988E+02  0.10566000000E+00 0.  1.
        994    1    1    2    0    0 -0.20890757803E+02 -0.33212700871E+02  0.64926294137E+01  0.17575864558E+03  0.17120000000E+03 0.  0.
        998    1    1    2    0    0  0.10599195704E+02  0.30859150955E+02  0.14579577695E+04  0.14583571194E+04  0.10000000000E+02 0.  1.
</event>
<event>
 5    1  0.1271464E-008  0.3799135E+03  0.7957747E-01  0.3451535E+00
         13   -1    0    0    0    0  0.00000000000E+00  0.00000000000E+00  0.14999999963E+04  0.15000000000E+04  0.10566000000E+00 0. -1.
        994   -1    0    0    0    0 -0.00000000000E+00 -0.00000000000E+00  0.11368683772E-12  0.17120000000E+03  0.17120000000E+03 0.  0.
         13    1    1    2    0    0 -0.28592288882E+02 -0.61289563962E+02  0.10426178991E+03  0.12427574837E+03  0.10566000000E+00 0. -1.
        994    1    1    2    0    0  0.44355694086E+02  0.11218232384E+03  0.71091814124E+02  0.22116913757E+03  0.17120000000E+03 0.  0.
        998    1    1    2    0    0 -0.15763405204E+02 -0.50892759878E+02  0.13246463922E+04  0.13257551141E+04  0.10000000000E+02 0. -1.
</event>
<event>
 5    1  0.1271464E-008  0.3820974E+03  0.7957747E-01  0.3442077E+00
         13   -1    0    0    0    0  0.00000000000E+00  0.00000000000E+00  0.14999999963E+04  0.15000000000E+04  0.10566000000E+00 0.  1.
        994   -1    0    0    0    0 -0.00000000000E+00 -0.00000000000E+00  0.11368683772E-12  0.17120000000E+03  0.17120000000E+03 0.  0.
         13    1    1    2    0    0 -0.79823705778E+01  0.91230681335E+01  0.22325844133E+02  0.25404784834E+02  0.10566000000E+00 0.  1.
        994    1    1    2    0    0  0.94209806188E+01 -0.98619969657E+01  0.36959148109E+01  0.17178216917E+03  0.17120000000E+03 0.  0.
        998    1    1    2    0    0 -0.14386100410E+01  0.73892883221E+00  0.14739782373E+04  0.14740130460E+04  0.10000000000E+02 0.  1.
</event>
<event>
 5    1  0.1271464E-008  0.3852065E+03  0.7957747E-01  0.3428797E+00
         13   -1    0    0    0    0  0.00000000000E+00  0.00000000000E+00  0.14999999963E+04  0.15000000000E+04  0.10566000000E+00 0.  1.
        994   -1    0    0    0    0 -0.00000000000E+00 -0.00000000000E+00  0.11368683772E-12  0.17120000000E+03  0.17120000000E+03 0.  0.
         13    1    1    2    0    0  0.12487953302E+02 -0.68932589285E+01  0.65686744604E+02  0.67217747485E+02  0.10566000000E+00 0.  1.
        994    1    1    2    0    0 -0.72712147438E+01  0.11417414818E+02  0.21300605646E+01  0.17174750386E+03  0.17120000000E+03 0.  0.
        998    1    1    2    0    0 -0.52167385585E+01 -0.45241558900E+01  0.14321831911E+04  0.14322347487E+04  0.10000000000E+02 0.  1.
</event>
<event>
 5    1  0.1271464E-008  0.3839299E+03  0.7957747E-01  0.3434224E+00
         13   -1    0    0    0    0  0.00000000000E+00  0.00000000000E+00  0.14999999963E+04  0.15000000000E+04  0.10566000000E+00 0. -1.
        994   -1    0    0    0    0 -0.00000000000E+00 -0.00000000000E+00  0.11368683772E-12  0.17120000000E+03  0.17120000000E+03 0.  0.
         13    1    1    2    0    0  0.16861321659E+02 -0.12183902908E+02  0.10818484797E+03  0.11016680150E+03  0.10566000000E+00 0. -1.
        994    1    1    2    0    0 -0.55697867354E+01 -0.47335556321E+01  0.23387218933E+01  0.17137193088E+03  0.17120000000E+03 0.  0.
        998    1    1    2    0    0 -0.11291534923E+02  0.16917458540E+02  0.13894764264E+04  0.13896612676E+04  0.10000000000E+02 0. -1.
</event>
<event>
 5    1  0.1271464E-008  0.3774291E+03  0.7957747E-01  0.3462430E+00
         13   -1    0    0    0    0  0.00000000000E+00  0.00000000000E+00  0.14999999963E+04  0.15000000000E+04  0.10566000000E+00 0.  1.
        994   -1    0    0    0    0 -0.00000000000E+00 -0.00000000000E+00  0.11368683772E-12  0.17120000000E+03  0.17120000000E+03 0.  0.
         13    1    1    2    0    0 -0.12517053964E+02  0.48045509328E+02  0.20057538688E+03  0.20662900230E+03  0.10566000000E+00 0.  1.
        994    1    1    2    0    0  0.30394549971E+02 -0.40442828092E+02  0.14115070009E+02  0.17907575552E+03  0.17120000000E+03 0.  0.
        998    1    1    2    0    0 -0.17877496007E+02 -0.76026812363E+01  0.12853095394E+04  0.12854952422E+04  0.10000000000E+02 0.  1.
</event>
<event>
 5    1  0.1271464E-008  0.3819025E+03  0.7957747E-01  0.3442916E+00
         13   -1    0    0    0    0  0.00000000000E+00  0.00000000000E+00  0.14999999963E+04  0.15000000000E+04  0.10566000000E+00 0. -1.
        994   -1    0    0    0    0 -0.00000000000E+00 -0.00000000000E+00  0.11368683772E-12  0.17120000000E+03  0.17120000000E+03 0.  0.
         13    1    1    2    0    0 -0.14928535773E+02 -0.47026249677E+02  0.24716163587E+03  0.25203812161E+03  0.10566000000E+00 0. -1.
        994    1    1    2    0    0  0.32755020134E+02  0.71840580967E+02  0.24169531255E+02  0.19007253000E+03  0.17120000000E+03 0.  0.
        998    1    1    2    0    0 -0.17826484361E+02 -0.24814331290E+02  0.12286688292E+04  0.12290893484E+04  0.10000000000E+02 0. -1.
</event>
<event>
 5    1  0.1271464E-008  0.3792964E+03  0.7957747E-01  0.3454228E+00
         13   -1    0    0    0    0  0.00000000000E+00  0.00000000000E+00  0.14999999963E+04  0.15000000000E+04  0.10566000000E+00 0. -1.
        994   -1    0    0    0    0 -0.00000000000E+00 -0.00000000000E+00  0.11368683772E-12  0.17120000000E+03  0.17120000000E+03 0.  0.
         13    1    1    2    0    0  0.12569300224E+02  0.18578181868E+02  0.57103719384E+02  0.61351300566E+02  0.10566000000E+00 0. -1.
        994    1    1    2    0    0 -0.91646813039E+01  0.40470779054E+01  0.48250947956E+01  0.17156075240E+03  0.17120000000E+03 0.  0.
        998    1    1    2    0    0 -0.34046189200E+01 -0.22625259773E+02  0.14380711821E+04  0.14382879470E+04  0.10000000000E+02 0. -1.
</event>
<event>
 5    1  0.1271464E-008  0.3855001E+03  0.7957747E-01  0.3427554E+00
         13   -1    0    0    0    0  0.00000000000E+00  0.00000000000E+00  0.14999999963E+04  0.15000000000E+04  0.10566000000E+00 0.  1.
        994   -1    0    0    0    0 -0.00000000000E+00 -0.00000000000E+00  0.11368683772E-12  0.17120000000E+03  0.17120000000E+03 0.  0.
         13    1    1    2    0    0  0.23461940882E+02  0.10474145666E+02  0.14992928046E+03  0.15211499170E+03  0.10566000000E+00 0.  1.
        994    1    1    2    0    0 -0.65717039955E+02 -0.12190723810E+02  0.16189707609E+02  0.18449631357E+03  0.17120000000E+03 0.  0.
        998    1    1    2    0    0  0.42255099073E+02  0.17165781437E+01  0.13338810082E+04  0.13345886947E+04  0.10000000000E+02 0.  1.
</event>
<event>
 5    1  0.1271464E-008  0.3696780E+03  0.7957747E-01  0.3497372E+00
         13   -1    0    0    0    0  0.00000000000E+00  0.00000000000E+00  0.14999999963E+04  0.15000000000E+04  0.10566000000E+00 0. -1.
        994   -1    0    0    0    0 -0.00000000000E+00 -0.00000000000E+00  0.11368683772E-12  0.17120000000E+03  0.17120000000E+03 0.  0.
         13    1    1    2    0    0 -0.14206622313E+02 -0.23381828419E+01  0.46579364856E+01  0.15132836908E+02  0.10566000000E+00 0. -1.
        994    1    1    2    0    0  0.14404083479E+02  0.35587626158E+01  0.11537741230E+02  0.17222863259E+03  0.17120000000E+03 0.  0.
        998    1    1    2    0    0 -0.19746116553E+00 -0.12205797739E+01  0.14838043186E+04  0.14838385305E+04  0.10000000000E+02 0. -1.
</event>
<event>
 5    1  0.1271464E-008  0.3829064E+03  0.7957747E-01  0.3438600E+00
         13   -1    0    0    0    0  0.00000000000E+00  0.00000000000E+00  0.14999999963E+04  0.15000000000E+04  0.10566000000E+00 0. -1.
        994   -1    0    0    0    0 -0.00000000000E+00 -0.00000000000E+00  0.11368683772E-12  0.17120000000E+03  0.17120000000E+03 0.  0.
         13    1    1    2    0    0 -0.98466687736E+01 -0.21064162913E+02  0.91513369916E+02  0.94421204624E+02  0.10566000000E+00 0. -1.
        994    1    1    2    0    0  0.56906161729E+02  0.92191917922E+01  0.13755966478E+02  0.18116835086E+03  0.17120000000E+03 0.  0.
        998    1    1    2    0    0 -0.47059492956E+02  0.11844971121E+02  0.13947306599E+04  0.13956104445E+04  0.10000000000E+02 0. -1.
</event>
<event>
 5    1  0.1271464E-008  0.3858301E+03  0.7957747E-01  0.3426159E+00
         13   -1    0    0    0    0  0.00000000000E+00  0.00000000000E+00  0.14999999963E+04  0.15000000000E+04  0.10566000000E+00 0.  1.
        994   -1    0    0    0    0 -0.00000000000E+00 -0.00000000000E+00  0.11368683772E-12  0.17120000000E+03  0.17120000000E+03 0.  0.
         13    1    1    2    0    0  0.11304835847E+02 -0.20541078979E+01  0.53387943858E+02  0.54610460410E+02  0.10566000000E+00 0.  1.
        994    1    1    2    0    0 -0.94350591305E+01  0.12027424819E+02  0.19853440169E+01  0.17189258530E+03  0.17120000000E+03 0.  0.
        998    1    1    2    0    0 -0.18697767162E+01 -0.99733169208E+01  0.14446267084E+04  0.14446969543E+04  0.10000000000E+02 0.  1.
</event>
<event>
 5    1  0.1271464E-008  0.3762120E+03  0.7957747E-01  0.3467820E+00
         13   -1    0    0    0    0  0.00000000000E+00  0.00000000000E+00  0.14999999963E+04  0.15000000000E+04  0.10566000000E+00 0.  1.
        994   -1    0    0    0    0 -0.00000000000E+00 -0.00000000000E+00  0.11368683772E-12  0.17120000000E+03  0.17120000000E+03 0.  0.
         13    1    1    2    0    0 -0.38339781245E+02  0.13930417531E+02  0.18246246321E+03  0.18696672700E+03  0.10566000000E+00 0.  1.
        994    1    1    2    0    0 -0.16328002908E+02  0.24830627080E+02  0.90532778827E+01  0.17399587800E+03  0.17120000000E+03 0.  0.
        998    1    1    2    0    0  0.54667784153E+02 -0.38761044611E+02  0.13084842552E+04  0.13102373950E+04  0.10000000000E+02 0.  1.
</event>
<event>
 5    1  0.1271464E-008  0.3824096E+03  0.7957747E-01  0.3440733E+00
         13   -1    0    0    0    0  0.00000000000E+00  0.00000000000E+00  0.14999999963E+04  0.15000000000E+04  0.10566000000E+00 0. -1.
        994   -1    0    0    0    0 -0.00000000000E+00 -0.00000000000E+00  0.11368683772E-12  0.17120000000E+03  0.17120000000E+03 0.  0.
         13    1    1    2    0    0 -0.28634776566E+02  0.17902221676E+02  0.17307082768E+03  0.17633480237E+03  0.10566000000E+00 0. -1.
        994    1    1    2    0    0  0.30582838453E+02 -0.16167499966E+02  0.69007601145E+01  0.17479633450E+03  0.17120000000E+03 0.  0.
        998    1    1    2    0    0 -0.19480618867E+01 -0.17347217103E+01  0.13200284085E+04  0.13200688631E+04  0.10000000000E+02 0. -1.
</event>
<event>
 5    1  0.1271464E-008  0.3775086E+03  0.7957747E-01  0.3462079E+00
         13   -1    0    0    0    0  0.00000000000E+00  0.00000000000E+00  0.14999999963E+04  0.15000000000E+04  0.10566000000E+00 0.  1.
        994   -1    0    0    0    0 -0.00000000000E+00 -0.00000000000E+00  0.11368683772E-12  0.17120000000E+03  0.17120000000E+03 0.  0.
         13    1    1    2    0    0  0.10207077617E+02 -0.61832896161E+02  0.30139163966E+03  0.30783830675E+03  0.10566000000E+00 0.  1.
        994    1    1    2    0    0 -0.22164423334E+01  0.58891970641E+02  0.17193931023E+02  0.18187426450E+03  0.17120000000E+03 0.  0.
        998    1    1    2    0    0 -0.79906352833E+01  0.29409255198E+01  0.11814144256E+04  0.11814874288E+04  0.10000000000E+02 0.  1.
</event>
<event>
 5    1  0.1271464E-008  0.3851562E+03  0.7957747E-01  0.3429010E+00
         13   -1    0    0    0    0  0.00000000000E+00  0.00000000000E+00  0.14999999963E+04  0.15000000000E+04  0.10566000000E+00 0.  1.
        994   -1    0    0    0    0 -0.00000000000E+00 -0.00000000000E+00  0.11368683772E-12  0.17120000000E+03  0.17120000000E+03 0.  0.
         13    1    1    2    0    0 -0.65304383633E+01 -0.11463632941E+02  0.55305430608E+02  0.56857394631E+02  0.10566000000E+00 0.  1.
        994    1    1    2    0    0  0.15575561119E+02  0.42047678530E+01  0.24086001374E+01  0.17197534571E+03  0.17120000000E+03 0.  0.
        998    1    1    2    0    0 -0.90451227552E+01  0.72588650878E+01  0.14422859655E+04  0.14423672597E+04  0.10000000000E+02 0.  1.
</event>
<event>
 5    1  0.1271464E-008  0.3835092E+03  0.7957747E-01  0.3436020E+00
         13   -1    0    0    0    0  0.00000000000E+00  0.00000000000E+00  0.14999999963E+04  0.15000000000E+04  0.10566000000E+00 0. -1.
        994   -1    0    0    0    0 -0.00000000000E+00 -0.00000000000E+00  0.11368683772E-12  0.17120000000E+03  0.17120000000E+03 0.  0.
         13    1    1    2    0    0 -0.32189407578E+00  0.13245906392E+02  0.36545392076E+02  0.38873313442E+02  0.10566000000E+00 0. -1.
        994    1    1    2    0    0  0.99741831177E+01 -0.71580330683E+01  0.28703561263E+01  0.17166362664E+03  0.17120000000E+03 0.  0.
        998    1    1    2    0    0 -0.96522890419E+01 -0.60878733237E+01  0.14605842481E+04  0.14606630599E+04  0.10000000000E+02 0. -1.
</event>
<event>
 5    1  0.1271464E-008  0.3778308E+03  0.7957747E-01  0.3460659E+00
         13   -1    0    0    0    0  0.00000000000E+00  0.00000000000E+00  0.14999999963E+04  0.15000000000E+04  0.10566000000E+00 0.  1.
        994   -1    0    0    0    0 -0.00000000000E+00 -0.00000000000E+00  0.11368683772E-12  0.17120000000E+03  0.17120000000E+03 0.  0.
         13    1    1    2    0    0  0.63196540881E+02  0.17574014552E+02  0.37648903365E+03  0.38216050606E+03  0.10566000000E+00 0.  1.
        994    1    1    2    0    0 -0.43996990446E+02 -0.13774290336E+02  0.12422400146E+02  0.17773357102E+03  0.17120000000E+03 0.  0.
        998    1    1    2    0    0 -0.19199550435E+02 -0.37997242157E+01  0.11110885625E+04  0.11113059229E+04  0.10000000000E+02 0. -1.
</event>
<event>
 5    1  0.1271464E-008  0.3828949E+03  0.7957747E-01  0.3438650E+00
         13   -1    0    0    0    0  0.00000000000E+00  0.00000000000E+00  0.14999999963E+04  0.15000000000E+04  0.10566000000E+00 0. -1.
        994   -1    0    0    0    0 -0.00000000000E+00 -0.00000000000E+00  0.11368683772E-12  0.17120000000E+03  0.17120000000E+03 0.  0.
         13    1    1    2    0    0 -0.59281230053E+01 -0.22067619925E+02  0.91396312419E+02  0.94209445277E+02  0.10566000000E+00 0. -1.
        994    1    1    2    0    0  0.18486886899E+02  0.19767325334E+02  0.51082273394E+01  0.17340140174E+03  0.17120000000E+03 0.  0.
        998    1    1    2    0    0 -0.12558763893E+02  0.23002945908E+01  0.14034954565E+04  0.14035891530E+04  0.10000000000E+02 0. -1.
</event>
<event>
 5    1  0.1271464E-008  0.3840234E+03  0.7957747E-01  0.3433824E+00
         13   -1    0    0    0    0  0.00000000000E+00  0.00000000000E+00  0.14999999963E+04  0.15000000000E+04  0.10566000000E+00 0. -1.
        994   -1    0    0    0    0 -0.00000000000E+00 -0.00000000000E+00  0.11368683772E-12  0.17120000000E+03  0.17120000000E+03 0.  0.
         13    1    1    2    0    0 -0.36627385285E+02 -0.54994425686E+02  0.10794725312E+03  0.12656450067E+03  0.10566000000E+00 0. -1.
        994    1    1    2    0    0  0.45494528152E+02  0.35604209868E+02  0.30934307714E+02  0.18331334716E+03  0.17120000000E+03 0.  0.
        998    1    1    2    0    0 -0.88671428666E+01  0.19390215818E+02  0.13611184354E+04  0.13613221522E+04  0.10000000000E+02 0. -1.
</event>
<event>
 5    1  0.1271464E-008  0.3746756E+03  0.7957747E-01  0.3474675E+00
         13   -1    0    0    0    0  0.00000000000E+00  0.00000000000E+00  0.14999999963E+04  0.15000000000E+04  0.10566000000E+00 0.  1.
        994   -1    0    0    0    0 -0.00000000000E+00 -0.00000000000E+00  0.11368683772E-12  0.17120000000E+03  0.17120000000E+03 0.  0.
         13    1    1    2    0    0  0.14233249053E+02  0.43838144611E+02  0.14058896244E+03  0.14795146442E+03  0.10566000000E+00 0.  1.
        994    1    1    2    0    0 -0.21428446275E+02 -0.39825294387E+02  0.13837209604E+02  0.17761233277E+03  0.17120000000E+03 0.  0.
        998    1    1    2    0    0  0.71951972218E+01 -0.40128502241E+01  0.13455738242E+04  0.13456362028E+04  0.10000000000E+02 0.  1.
</event>
<event>
 5    1  0.1271464E-008  0.3727038E+03  0.7957747E-01  0.3483556E+00
         13   -1    0    0    0    0  0.00000000000E+00  0.00000000000E+00  0.14999999963E+04  0.15000000000E+04  0.10566000000E+00 0.  1.
        994   -1    0    0    0    0 -0.00000000000E+00 -0.00000000000E+00  0.11368683772E-12  0.17120000000E+03  0.17120000000E+03 0.  0.
         13    1    1    2    0    0  0.15680271110E+02  0.58098815939E+01  0.57315882143E+01  0.17677327109E+02  0.10566000000E+00 0.  1.
        994    1    1    2    0    0 -0.10250231859E+02 -0.82077628249E+01  0.12984506670E+02  0.17219312424E+03  0.17120000000E+03 0.  0.
        998    1    1    2    0    0 -0.54300392512E+01  0.23978812310E+01  0.14812839014E+04  0.14813295486E+04  0.10000000000E+02 0.  1.
</event>
<event>
 5    1  0.1271464E-008  0.3729664E+03  0.7957747E-01  0.3482368E+00
         13   -1    0    0    0    0  0.00000000000E+00  0.00000000000E+00  0.14999999963E+04  0.15000000000E+04  0.10566000000E+00 0. -1.
        994   -1    0    0    0    0 -0.00000000000E+00 -0.00000000000E+00  0.11368683772E-12  0.17120000000E+03  0.17120000000E+03 0.  0.
         13    1    1    2    0    0  0.89994677308E+02  0.41275715512E+02  0.43666553540E+03  0.44774940269E+03  0.10566000000E+00 0. -1.
        994    1    1    2    0    0 -0.10614168439E+03 -0.12549720729E+02  0.47897545801E+02  0.20742990997E+03  0.17120000000E+03 0.  0.
        998    1    1    2    0    0  0.16147007083E+02 -0.28725994783E+02  0.10154369151E+04  0.10160206873E+04  0.10000000000E+02 0. -1.
</event>
<event>
 5    1  0.1271464E-008  0.3686212E+03  0.7957747E-01  0.3502251E+00
         13   -1    0    0    0    0  0.00000000000E+00  0.00000000000E+00  0.14999999963E+04  0.15000000000E+04  0.10566000000E+00 0. -1.
        994   -1    0    0    0    0 -0.00000000000E+00 -0.00000000000E+00  0.11368683772E-12  0.17120000000E+03  0.17120000000E+03 0.  0.
         13    1    1    2    0    0  0.71215248595E+01 -0.13825834684E+03  0.56408892996E+03  0.58082907869E+03  0.10566000000E+00 0. -1.
        994    1    1    2    0    0 -0.46161543846E+00  0.13812628903E+03  0.79535608226E+02  0.23391117499E+03  0.17120000000E+03 0.  0.
        998    1    1    2    0    0 -0.66599094210E+01  0.13205780886E+00  0.85637545809E+03  0.85645974631E+03  0.10000000000E+02 0. -1.
</event>
<event>
 5    1  0.1271464E-008  0.3833808E+03  0.7957747E-01  0.3436569E+00
         13   -1    0    0    0    0  0.00000000000E+00  0.00000000000E+00  0.14999999963E+04  0.15000000000E+04  0.10566000000E+00 0. -1.
        994   -1    0    0    0    0 -0.00000000000E+00 -0.00000000000E+00  0.11368683772E-12  0.17120000000E+03  0.17120000000E+03 0.  0.
         13    1    1    2    0    0  0.40526758729E+02 -0.29700445242E+02  0.28822965483E+03  0.29257628016E+03  0.10566000000E+00 0. -1.
        994    1    1    2    0    0 -0.77488232637E+02  0.38611660552E+02  0.27623095563E+02  0.19382404891E+03  0.17120000000E+03 0.  0.
        998    1    1    2    0    0  0.36961473908E+02 -0.89112153100E+01  0.11841472459E+04  0.11847996709E+04  0.10000000000E+02 0. -1.
</event>
<event>
 5    1  0.1271464E-008  0.3825556E+03  0.7957747E-01  0.3440106E+00
         13   -1    0    0    0    0  0.00000000000E+00  0.00000000000E+00  0.14999999963E+04  0.15000000000E+04  0.10566000000E+00 0.  1.
        994   -1    0    0    0    0 -0.00000000000E+00 -0.00000000000E+00  0.11368683772E-12  0.17120000000E+03  0.17120000000E+03 0.  0.
         13    1    1    2    0    0 -0.15947786321E+02 -0.10504919821E+02  0.64711543068E+02  0.67470587660E+02  0.10566000000E+00 0.  1.
        994    1    1    2    0    0  0.43564503842E+01  0.66039931229E+01  0.30561174640E+01  0.17140995082E+03  0.17120000000E+03 0.  0.
        998    1    1    2    0    0  0.11591335936E+02  0.39009266984E+01  0.14322323357E+04  0.14323194615E+04  0.10000000000E+02 0.  1.
</event>
<event>
 5    1  0.1271464E-008  0.3849100E+03  0.7957747E-01  0.3430054E+00
         13   -1    0    0    0    0  0.00000000000E+00  0.00000000000E+00  0.14999999963E+04  0.15000000000E+04  0.10566000000E+00 0.  1.
        994   -1    0    0    0    0 -0.00000000000E+00 -0.00000000000E+00  0.11368683772E-12  0.17120000000E+03  0.17120000000E+03 0.  0.
         13    1    1    2    0    0  0.90346148918E+01 -0.80879448207E+01  0.45076398928E+02  0.46679031931E+02  0.10566000000E+00 0.  1.
        994    1    1    2    0    0 -0.44178154946E+01 -0.11370202528E+01  0.17432874695E+01  0.17126963817E+03  0.17120000000E+03 0.  0.
        998    1    1    2    0    0 -0.46167993972E+01  0.92249650735E+01  0.14531803099E+04  0.14532513299E+04  0.10000000000E+02 0.  1.
</event>
<event>
 5    1  0.1271464E-008  0.3703127E+03  0.7957747E-01  0.3494455E+00
         13   -1    0    0    0    0  0.00000000000E+00  0.00000000000E+00  0.14999999963E+04  0.15000000000E+04  0.10566000000E+00 0. -1.
        994   -1    0    0    0    0 -0.00000000000E+00 -0.00000000000E+00  0.11368683772E-12  0.17120000000E+03  0.17120000000E+03 0.  0.
         13    1    1    2    0    0  0.16179478524E+03  0.46451165463E+02  0.63604738272E+03  0.65794494263E+03  0.10566000000E+00 0. -1.
        994    1    1    2    0    0 -0.16302300696E+03 -0.49025711815E+02  0.12068628501E+03  0.26991598805E+03  0.17120000000E+03 0.  0.
        998    1    1    2    0    0  0.12282217198E+01  0.25745463529E+01  0.74326632855E+03  0.74333906932E+03  0.10000000000E+02 0.  0.
</event>
<event>
 5    1  0.1271464E-008  0.3823133E+03  0.7957747E-01  0.3441147E+00
         13   -1    0    0    0    0  0.00000000000E+00  0.00000000000E+00  0.14999999963E+04  0.15000000000E+04  0.10566000000E+00 0. -1.
        994   -1    0    0    0    0 -0.00000000000E+00 -0.00000000000E+00  0.11368683772E-12  0.17120000000E+03  0.17120000000E+03 0.  0.
         13    1    1    2    0    0  0.99054031089E+01  0.79107001055E+01  0.25415159074E+02  0.28401367251E+02  0.10566000000E+00 0. -1.
        994    1    1    2    0    0 -0.11936563334E+02 -0.93418125807E+01  0.37325134540E+01  0.17191021687E+03  0.17120000000E+03 0.  0.
        998    1    1    2    0    0  0.20311602255E+01  0.14311124751E+01  0.14708523238E+04  0.14708884159E+04  0.10000000000E+02 0. -1.
</event>
<event>
 5    1  0.1271464E-008  0.3776365E+03  0.7957747E-01  0.3461515E+00
         13   -1    0    0    0    0  0.00000000000E+00  0.00000000000E+00  0.14999999963E+04  0.15000000000E+04  0.10566000000E+00 0. -1.
        994   -1    0    0    0    0 -0.00000000000E+00 -0.00000000000E+00  0.11368683772E-12  0.17120000000E+03  0.17120000000E+03 0.  0.
         13    1    1    2    0    0 -0.15726982170E+02  0.20144224428E+02  0.62290462700E+02  0.67329344668E+02  0.10566000000E+00 0. -1.
        994    1    1    2    0    0  0.67434888931E+01  0.14304139133E+01  0.54911431880E+01  0.17142669973E+03  0.17120000000E+03 0.  0.
        998    1    1    2    0    0  0.89834932769E+01 -0.21574638342E+02  0.14322183904E+04  0.14324439556E+04  0.10000000000E+02 0. -1.
</event>
<event>
 5    1  0.1271464E-008  0.3843470E+03  0.7957747E-01  0.3432446E+00
         13   -1    0    0    0    0  0.00000000000E+00  0.00000000000E+00  0.14999999963E+04  0.15000000000E+04  0.10566000000E+00 0.  1.
        994   -1    0    0    0    0 -0.00000000000E+00 -0.00000000000E+00  0.11368683772E-12  0.17120000000E+03  0.17120000000E+03 0.  0.
         13    1    1    2    0    0 -0.13395259008E+01  0.20138702011E+02  0.10726590688E+03  0.10914828258E+03  0.10566000000E+00 0.  1.
        994    1    1    2    0    0 -0.20731469114E+02 -0.10577843927E+02  0.37419020124E+01  0.17281529569E+03  0.17120000000E+03 0.  0.
        998    1    1    2    0    0  0.22070995015E+02 -0.95608580845E+01  0.13889921874E+04  0.13892364217E+04  0.10000000000E+02 0.  1.
</event>
<event>
 5    1  0.1271464E-008  0.3800945E+03  0.7957747E-01  0.3450747E+00
         13   -1    0    0    0    0  0.00000000000E+00  0.00000000000E+00  0.14999999963E+04  0.15000000000E+04  0.10566000000E+00 0.  1.
        994   -1    0    0    0    0 -0.00000000000E+00 -0.00000000000E+00  0.11368683772E-12  0.17120000000E+03  0.17120000000E+03 0.  0.
         13    1    1    2    0    0 -0.43910625240E+02 -0.69403908734E+01  0.24694718000E+03  0.25091678483E+03  0.10566000000E+00 0.  1.
        994    1    1    2    0    0  0.24355417853E+02 -0.94384190471E+01  0.63688501281E+01  0.17329821807E+03  0.17120000000E+03 0.  0.
        998    1    1    2    0    0  0.19555207387E+02  0.16378809921E+02  0.12466839662E+04  0.12469849971E+04  0.10000000000E+02 0.  1.
</event>
<event>
 5    1  0.1271464E-008  0.3790324E+03  0.7957747E-01  0.3455383E+00
         13   -1    0    0    0    0  0.00000000000E+00  0.00000000000E+00  0.14999999963E+04  0.15000000000E+04  0.10566000000E+00 0.  1.
        994   -1    0    0    0    0 -0.00000000000E+00 -0.00000000000E+00  0.11368683772E-12  0.17120000000E+03  0.17120000000E+03 0.  0.
         13    1    1    2    0    0  0.24443083425E+02  0.10038455993E+02  0.76339643188E+02  0.80783582565E+02  0.10566000000E+00 0.  1.
        994    1    1    2    0    0 -0.66040404442E+01 -0.73959826132E+01  0.49521677226E+01  0.17155838037E+03  0.17120000000E+03 0.  0.
        998    1    1    2    0    0 -0.17839042981E+02 -0.26424733793E+01  0.14187081854E+04  0.14188580371E+04  0.10000000000E+02 0.  1.
</event>
<event>
 5    1  0.1271464E-008  0.3803311E+03  0.7957747E-01  0.3449718E+00
         13   -1    0    0    0    0  0.00000000000E+00  0.00000000000E+00  0.14999999963E+04  0.15000000000E+04  0.10566000000E+00 0.  1.
        994   -1    0    0    0    0 -0.00000000000E+00 -0.00000000000E+00  0.11368683772E-12  0.17120000000E+03  0.17120000000E+03 0.  0.
         13    1    1    2    0    0  0.89419186995E+01  0.90627056673E+01  0.18698433853E+02  0.22621519327E+02  0.10566000000E+00 0.  1.
        994    1    1    2    0    0 -0.59173211172E+01 -0.90226231967E+01  0.43549867171E+01  0.17159495426E+03  0.17120000000E+03 0.  0.
        998    1    1    2    0    0 -0.30245975823E+01 -0.40082470668E-01  0.14769465757E+04  0.14769835264E+04  0.10000000000E+02 0.  1.
</event>
<event>
 5    1  0.1271464E-008  0.3805700E+03  0.7957747E-01  0.3448680E+00
         13   -1    0    0    0    0  0.00000000000E+00  0.00000000000E+00  0.14999999963E+04  0.15000000000E+04  0.10566000000E+00 0.  1.
        994   -1    0    0    0    0 -0.00000000000E+00 -0.00000000000E+00  0.11368683772E-12  0.17120000000E+03  0.17120000000E+03 0.  0.
         13    1    1    2    0    0  0.54109563854E+01  0.26920283720E+02  0.91730796461E+02  0.95752442830E+02  0.10566000000E+00 0.  1.
        994    1    1    2    0    0  0.46825627296E+00 -0.27947965573E+02  0.64569989774E+01  0.17358698361E+03  0.17120000000E+03 0.  0.
        998    1    1    2    0    0 -0.58792126583E+01  0.10276818528E+01  0.14018122008E+04  0.14018605736E+04  0.10000000000E+02 0.  1.
</event>
<event>
 5    1  0.1271464E-008  0.3796839E+03  0.7957747E-01  0.3452536E+00
         13   -1    0    0    0    0  0.00000000000E+00  0.00000000000E+00  0.14999999963E+04  0.15000000000E+04  0.10566000000E+00 0. -1.
        994   -1    0    0    0    0 -0.00000000000E+00 -0.00000000000E+00  0.11368683772E-12  0.17120000000E+03  0.17120000000E+03 0.  0.
         13    1    1    2    0    0 -0.41870283061E+02 -0.18933959958E+02  0.22019660779E+03  0.22494037585E+03  0.10566000000E+00 0. -1.
        994    1    1    2    0    0  0.35656595445E+02  0.18827215410E+02  0.97528567043E+01  0.17615452039E+03  0.17120000000E+03 0.  0.
        998    1    1    2    0    0  0.62136876159E+01  0.10674454846E+00  0.12700505318E+04  0.12701051038E+04  0.10000000000E+02 0. -1.
</event>
<event>
 5    1  0.1271464E-008  0.3719675E+03  0.7957747E-01  0.3486897E+00
         13   -1    0    0    0    0  0.00000000000E+00  0.00000000000E+00  0.14999999963E+04  0.15000000000E+04  0.10566000000E+00 0.  1.
        994   -1    0    0    0    0 -0.00000000000E+00 -0.00000000000E+00  0.11368683772E-12  0.17120000000E+03  0.17120000000E+03 0.  0.
         13    1    1    2    0    0  0.18453451927E+02 -0.50155940042E+02  0.15647718936E+03  0.16535195845E+03  0.10566000000E+00 0.  1.
        994    1    1    2    0    0  0.13875156487E+02  0.58656855515E+02  0.20826818242E+02  0.18269193476E+03  0.17120000000E+03 0.  0.
        998    1    1    2    0    0 -0.32328608414E+02 -0.85009154731E+01  0.13226959887E+04  0.13231561068E+04  0.10000000000E+02 0.  1.
</event>
<event>
 5    1  0.1271464E-008  0.3740087E+03  0.7957747E-01  0.3477668E+00
         13   -1    0    0    0    0  0.00000000000E+00  0.00000000000E+00  0.14999999963E+04  0.15000000000E+04  0.10566000000E+00 0. -1.
        994   -1    0    0    0    0 -0.00000000000E+00 -0.00000000000E+00  0.11368683772E-12  0.17120000000E+03  0.17120000000E+03 0.  0.
         13    1    1    2    0    0 -0.11080501622E+03  0.69673758215E+02  0.74204466336E+03  0.75350015115E+03  0.10566000000E+00 0. -1.
        994    1    1    2    0    0  0.13552517570E+03 -0.18593755652E+02  0.73963500187E+02  0.23128519269E+03  0.17120000000E+03 0.  0.
        998    1    1    2    0    0 -0.24720159472E+02 -0.51080002563E+02  0.68399183273E+03  0.68641465616E+03  0.10000000000E+02 0. -1.
</event>
<event>
 5    1  0.1271464E-008  0.3768662E+03  0.7957747E-01  0.3464918E+00
         13   -1    0    0    0    0  0.00000000000E+00  0.00000000000E+00  0.14999999963E+04  0.15000000000E+04  0.10566000000E+00 0.  1.
        994   -1    0    0    0    0 -0.00000000000E+00 -0.00000000000E+00  0.11368683772E-12  0.17120000000E+03  0.17120000000E+03 0.  0.
         13    1    1    2    0    0  0.20351365325E+02 -0.21371325746E+02  0.72859028098E+02  0.78608910272E+02  0.10566000000E+00 0.  1.
        994    1    1    2    0    0 -0.21198080689E+02  0.10850803769E+02  0.76414788649E+01  0.17301714009E+03  0.17120000000E+03 0.  0.
        998    1    1    2    0    0  0.84671536330E+00  0.10520521976E+02  0.14194994893E+04  0.14195739496E+04  0.10000000000E+02 0.  1.
</event>
<event>
 5    1  0.1271464E-008  0.3826946E+03  0.7957747E-01  0.3439509E+00
         13   -1    0    0    0    0  0.00000000000E+00  0.00000000000E+00  0.14999999963E+04  0.15000000000E+04  0.10566000000E+00 0.  1.
        994   -1    0    0    0    0 -0.00000000000E+00 -0.00000000000E+00  0.11368683772E-12  0.17120000000E+03  0.17120000000E+03 0.  0.
         13    1    1    2    0    0 -0.12500343426E+02  0.44700593650E+00  0.27011281176E+02  0.29767077030E+02  0.10566000000E+00 0.  1.
        994    1    1    2    0    0  0.10161069848E+02 -0.60381092769E+00  0.31224379897E+01  0.17153075977E+03  0.17120000000E+03 0.  0.
        998    1    1    2    0    0  0.23392735783E+01  0.15680499119E+00  0.14698662771E+04  0.14699021632E+04  0.10000000000E+02 0.  1.
</event>
<event>
 5    1  0.1271464E-008  0.3844186E+03  0.7957747E-01  0.3432142E+00
         13   -1    0    0    0    0  0.00000000000E+00  0.00000000000E+00  0.14999999963E+04  0.15000000000E+04  0.10566000000E+00 0. -1.
        994   -1    0    0    0    0 -0.00000000000E+00 -0.00000000000E+00  0.11368683772E-12  0.17120000000E+03  0.17120000000E+03 0.  0.
         13    1    1    2    0    0  0.19323918391E+02 -0.67969678652E+01  0.99655178522E+02  0.10173877513E+03  0.10566000000E+00 0. -1.
        994    1    1    2    0    0 -0.17266721562E+02  0.30064183308E+02  0.58895480038E+01  0.17477448775E+03  0.17120000000E+03 0.  0.
        998    1    1    2    0    0 -0.20571968288E+01 -0.23267215443E+02  0.13944552698E+04  0.13946867371E+04  0.10000000000E+02 0. -1.
</event>
<event>
 5    1  0.1271464E-008  0.3770780E+03  0.7957747E-01  0.3463981E+00
         13   -1    0    0    0    0  0.00000000000E+00  0.00000000000E+00  0.14999999963E+04  0.15000000000E+04  0.10566000000E+00 0. -1.
        994   -1    0    0    0    0 -0.00000000000E+00 -0.00000000000E+00  0.11368683772E-12  0.17120000000E+03  0.17120000000E+03 0.  0.
         13    1    1    2    0    0 -0.15756852581E+02  0.33903360072E+02  0.13565580735E+03  0.14071327393E+03  0.10566000000E+00 0. -1.
        994    1    1    2    0    0  0.18959467137E+02  0.50413755969E+01  0.69157149632E+01  0.17245910813E+03  0.17120000000E+03 0.  0.
        998    1    1    2    0    0 -0.32026145565E+01 -0.38944735669E+02  0.13574284740E+04  0.13580276179E+04  0.10000000000E+02 0. -1.
</event>
<event>
 5    1  0.1271464E-008  0.3814851E+03  0.7957747E-01  0.3444718E+00
         13   -1    0    0    0    0  0.00000000000E+00  0.00000000000E+00  0.14999999963E+04  0.15000000000E+04  0.10566000000E+00 0.  1.
        994   -1    0    0    0    0 -0.00000000000E+00 -0.00000000000E+00  0.11368683772E-12  0.17120000000E+03  0.17120000000E+03 0.  0.
         13    1    1    2    0    0 -0.15469334403E+02 -0.11984388505E+02  0.59378898402E+02  0.62520321610E+02  0.10566000000E+00 0.  1.
        994    1    1    2    0    0 -0.50112238000E+01  0.13971560885E+01  0.34754048151E+01  0.17131428092E+03  0.17120000000E+03 0.  0.
        998    1    1    2    0    0  0.20480558203E+02  0.10587232416E+02  0.14371456931E+04  0.14373653975E+04  0.10000000000E+02 0.  1.
</event>
<event>
 5    1  0.1271464E-008  0.3749686E+03  0.7957747E-01  0.3473363E+00
         13   -1    0    0    0    0  0.00000000000E+00  0.00000000000E+00  0.14999999963E+04  0.15000000000E+04  0.10566000000E+00 0. -1.
        994   -1    0    0    0    0 -0.00000000000E+00 -0.00000000000E+00  0.11368683772E-12  0.17120000000E+03  0.17120000000E+03 0.  0.
         13    1    1    2    0    0  0.73834853015E+02  0.67204373338E+02  0.59711560161E+03  0.60540487788E+03  0.10566000000E+00 0. -1.
        994    1    1    2    0    0 -0.68370629408E+02 -0.40096259244E+02  0.28360977579E+02  0.19077745679E+03  0.17120000000E+03 0.  0.
        998    1    1    2    0    0 -0.54642236074E+01 -0.27108114094E+02  0.87452341709E+03  0.87501766532E+03  0.10000000000E+02 0. -1.
</event>
<event>
 5    1  0.1271464E-008  0.3799936E+03  0.7957747E-01  0.3451186E+00
         13   -1    0    0    0    0  0.00000000000E+00  0.00000000000E+00  0.14999999963E+04  0.15000000000E+04  0.10566000000E+00 0.  1.
        994   -1    0    0    0    0 -0.00000000000E+00 -0.00000000000E+00  0.11368683772E-12  0.17120000000E+03  0.17120000000E+03 0.  0.
         13    1    1    2    0    0  0.19068685821E+02 -0.15856538242E+02  0.74521034699E+02  0.78539419151E+02  0.10566000000E+00 0.  1.
        994    1    1    2    0    0 -0.80281273560E+01  0.68880909418E+01  0.45105423723E+01  0.17158578501E+03  0.17120000000E+03 0.  0.
        998    1    1    2    0    0 -0.11040558465E+02  0.89684472997E+01  0.14209684192E+04  0.14210747958E+04  0.10000000000E+02 0.  1.
</event>
<event>
 5    1  0.1271464E-008  0.3762951E+03  0.7957747E-01  0.3467451E+00
         13   -1    0    0    0    0  0.00000000000E+00  0.00000000000E+00  0.14999999963E+04  0.15000000000E+04  0.10566000000E+00 0.  1.
        994   -1    0    0    0    0 -0.00000000000E+00 -0.00000000000E+00  0.11368683772E-12  0.17120000000E+03  0.17120000000E+03 0.  0.
         13    1    1    2    0    0 -0.30489412534E+02  0.23710911008E+00  0.71144692141E+02  0.77403093486E+02  0.10566000000E+00 0.  1.
        994    1    1    2    0    0  0.33453455240E+02  0.87503777955E+01  0.10072622049E+02  0.17494742208E+03  0.17120000000E+03 0.  0.
        998    1    1    2    0    0 -0.29640427061E+01 -0.89874869055E+01  0.14187826821E+04  0.14188494844E+04  0.10000000000E+02 0.  1.
</event>
<event>
 5    1  0.1271464E-008  0.3819089E+03  0.7957747E-01  0.3442889E+00
         13   -1    0    0    0    0  0.00000000000E+00  0.00000000000E+00  0.14999999963E+04  0.15000000000E+04  0.10566000000E+00 0. -1.
        994   -1    0    0    0    0 -0.00000000000E+00 -0.00000000000E+00  0.11368683772E-12  0.17120000000E+03  0.17120000000E+03 0.  0.
         13    1    1    2    0    0 -0.36662816192E+02 -0.25746541397E+02  0.25225747283E+03  0.25620478186E+03  0.10566000000E+00 0. -1.
        994    1    1    2    0    0  0.41920956570E+02  0.27321769973E+02  0.11535356122E+02  0.17873541942E+03  0.17120000000E+03 0.  0.
        998    1    1    2    0    0 -0.52581403777E+01 -0.15752285760E+01  0.12362071673E+04  0.12362597987E+04  0.10000000000E+02 0. -1.
</event>
<event>
 5    1  0.2299119E-008  0.3861879E+03  0.7957747E-01  0.3424650E+00
         13   -1    0    0    0    0  0.00000000000E+00  0.00000000000E+00  0.14999999963E+04  0.15000000000E+04  0.10566000000E+00 0. -1.
        994   -1    0    0    0    0 -0.00000000000E+00 -0.00000000000E+00  0.11368683772E-12  0.17120000000E+03  0.17120000000E+03 0.  0.
         13    1    1    2    0    0  0.16568171448E+01  0.10421325611E+02  0.52082477307E+02  0.53140800493E+02  0.10566000000E+00 0. -1.
        994    1    1    2    0    0 -0.19341589625E+01 -0.12841864457E+02  0.15942016319E+01  0.17169926014E+03  0.17120000000E+03 0.  0.
        998    1    1    2    0    0  0.27734181768E+00  0.24205388460E+01  0.14463233173E+04  0.14463599394E+04  0.10000000000E+02 0. -1.
</event>
<event>
 5    1  0.1271464E-008  0.3826567E+03  0.7957747E-01  0.3439672E+00
         13   -1    0    0    0    0  0.00000000000E+00  0.00000000000E+00  0.14999999963E+04  0.15000000000E+04  0.10566000000E+00 0. -1.
        994   -1    0    0    0    0 -0.00000000000E+00 -0.00000000000E+00  0.11368683772E-12  0.17120000000E+03  0.17120000000E+03 0.  0.
         13    1    1    2    0    0  0.14405636001E+01 -0.14127858463E+02  0.34649075957E+02  0.37446511680E+02  0.10566000000E+00 0. -1.
        994    1    1    2    0    0 -0.50615145848E-01  0.13014830532E+02  0.33595779322E+01  0.17172686202E+03  0.17120000000E+03 0.  0.
        998    1    1    2    0    0 -0.13899484543E+01  0.11130279314E+01  0.14619913424E+04  0.14620266263E+04  0.10000000000E+02 0. -1.
</event>
<event>
 5    1  0.1271464E-008  0.3806816E+03  0.7957747E-01  0.3448196E+00
         13   -1    0    0    0    0  0.00000000000E+00  0.00000000000E+00  0.14999999963E+04  0.15000000000E+04  0.10566000000E+00 0. -1.
        994   -1    0    0    0    0 -0.00000000000E+00 -0.00000000000E+00  0.11368683772E-12  0.17120000000E+03  0.17120000000E+03 0.  0.
         13    1    1    2    0    0 -0.21391123418E+03 -0.37572033440E+01  0.10302460733E+04  0.10522257910E+04  0.10566000000E+00 0. -1.
        994    1    1    2    0    0  0.21846999766E+03  0.16179328709E+00  0.18404924978E+03  0.33303563233E+03  0.17120000000E+03 0.  0.
        998    1    1    2    0    0 -0.45587634770E+01  0.35954100569E+01  0.28570467323E+03  0.28593857663E+03  0.10000000000E+02 0.  1.
</event>
<event>
 5    1  0.1271464E-008  0.3144338E+03  0.7957747E-01  0.3798075E+00
         13   -1    0    0    0    0  0.00000000000E+00  0.00000000000E+00  0.14999999963E+04  0.15000000000E+04  0.10566000000E+00 0.  1.
        994   -1    0    0    0    0 -0.00000000000E+00 -0.00000000000E+00  0.11368683772E-12  0.17120000000E+03  0.17120000000E+03 0.  0.
         13    1    1    2    0    0  0.10364038840E+03  0.15459343671E+03  0.89504406997E+03  0.91419054860E+03  0.10566000000E+00 0.  1.
        994    1    1    2    0    0  0.19719515308E+02 -0.20707419423E+03  0.21545454875E+03  0.34496185844E+03  0.17120000000E+03 0.  0.
        998    1    1    2    0    0 -0.12335990370E+03  0.52480757519E+02  0.38950137756E+03  0.41204759297E+03  0.10000000000E+02 0.  1.
</event>
<event>
 5    1  0.1271464E-008  0.3776935E+03  0.7957747E-01  0.3461263E+00
         13   -1    0    0    0    0  0.00000000000E+00  0.00000000000E+00  0.14999999963E+04  0.15000000000E+04  0.10566000000E+00 0.  1.
        994   -1    0    0    0    0 -0.00000000000E+00 -0.00000000000E+00  0.11368683772E-12  0.17120000000E+03  0.17120000000E+03 0.  0.
         13    1    1    2    0    0  0.39767349687E+01  0.11404451064E+03  0.64330029986E+03  0.65334313480E+03  0.10566000000E+00 0.  1.
        994    1    1    2    0    0 -0.15228918497E+02 -0.11710153023E+03  0.53815929590E+02  0.21482616838E+03  0.17120000000E+03 0.  0.
        998    1    1    2    0    0  0.11252183529E+02  0.30570195981E+01  0.80288376683E+03  0.80303069682E+03  0.10000000000E+02 0.  1.
</event>
<event>
 5    1  0.1271464E-008  0.3802418E+03  0.7957747E-01  0.3450106E+00
         13   -1    0    0    0    0  0.00000000000E+00  0.00000000000E+00  0.14999999963E+04  0.15000000000E+04  0.10566000000E+00 0. -1.
        994   -1    0    0    0    0 -0.00000000000E+00 -0.00000000000E+00  0.11368683772E-12  0.17120000000E+03  0.17120000000E+03 0.  0.
         13    1    1    2    0    0  0.25009403646E+02  0.14635807961E+02  0.97390383498E+02  0.10160991638E+03  0.10566000000E+00 0. -1.
        994    1    1    2    0    0 -0.24595690164E+02 -0.15676672088E+02  0.68579216650E+01  0.17380212056E+03  0.17120000000E+03 0.  0.
        998    1    1    2    0    0 -0.41371348208E+00  0.10408641268E+01  0.13957516911E+04  0.13957879631E+04  0.10000000000E+02 0. -1.
</event>
<event>
 5    1  0.1271464E-008  0.3705040E+03  0.7957747E-01  0.3493578E+00
         13   -1    0    0    0    0  0.00000000000E+00  0.00000000000E+00  0.14999999963E+04  0.15000000000E+04  0.10566000000E+00 0. -1.
        994   -1    0    0    0    0 -0.00000000000E+00 -0.00000000000E+00  0.11368683772E-12  0.17120000000E+03  0.17120000000E+03 0.  0.
         13    1    1    2    0    0 -0.88317875503E+02  0.12887279368E+02  0.43912460289E+03  0.44810328846E+03  0.10566000000E+00 0. -1.
        994    1    1    2    0    0  0.23835941221E+02 -0.37718535413E+01  0.13247782127E+02  0.17339931576E+03  0.17120000000E+03 0.  0.
        998    1    1    2    0    0  0.64481934282E+02 -0.91154258268E+01  0.10476276113E+04  0.10496973958E+04  0.10000000000E+02 0. -1.
</event>
<event>
 5    1  0.1271464E-008  0.3691542E+03  0.7957747E-01  0.3499787E+00
         13   -1    0    0    0    0  0.00000000000E+00  0.00000000000E+00  0.14999999963E+04  0.15000000000E+04  0.10566000000E+00 0. -1.
        994   -1    0    0    0    0 -0.00000000000E+00 -0.00000000000E+00  0.11368683772E-12  0.17120000000E+03  0.17120000000E+03 0.  0.
         13    1    1    2    0    0 -0.11170166809E+02  0.35766790503E+02  0.74271278893E+02  0.83188159986E+02  0.10566000000E+00 0. -1.
        994    1    1    2    0    0  0.58159871856E+01  0.13726025220E+01  0.98356982838E+01  0.17158639429E+03  0.17120000000E+03 0.  0.
        998    1    1    2    0    0  0.53541796230E+01 -0.37139393025E+02  0.14158930191E+04  0.14164254457E+04  0.10000000000E+02 0. -1.
</event>
<event>
 5    1  0.1271464E-008  0.3757834E+03  0.7957747E-01  0.3469727E+00
         13   -1    0    0    0    0  0.00000000000E+00  0.00000000000E+00  0.14999999963E+04  0.15000000000E+04  0.10566000000E+00 0.  1.
        994   -1    0    0    0    0 -0.00000000000E+00 -0.00000000000E+00  0.11368683772E-12  0.17120000000E+03  0.17120000000E+03 0.  0.
         13    1    1    2    0    0 -0.63059283392E+01 -0.73406639918E+02  0.33608640719E+03  0.34406741167E+03  0.10566000000E+00 0.  1.
        994    1    1    2    0    0  0.58668859412E+00  0.73075751458E+02  0.24602834290E+02  0.18776354574E+03  0.17120000000E+03 0.  0.
        998    1    1    2    0    0  0.57192397451E+01  0.33088846003E+00  0.11393107548E+04  0.11393690426E+04  0.10000000000E+02 0.  1.
</event>
<event>
 5    1  0.1271464E-008  0.3786749E+03  0.7957747E-01  0.3456949E+00
         13   -1    0    0    0    0  0.00000000000E+00  0.00000000000E+00  0.14999999963E+04  0.15000000000E+04  0.10566000000E+00 0. -1.
        994   -1    0    0    0    0 -0.00000000000E+00 -0.00000000000E+00  0.11368683772E-12  0.17120000000E+03  0.17120000000E+03 0.  0.
         13    1    1    2    0    0 -0.13323378020E+02 -0.40233183725E+01  0.17837310050E+02  0.22624771522E+02  0.10566000000E+00 0. -1.
        994    1    1    2    0    0  0.14650103505E+02  0.62902744712E+01  0.56574921769E+01  0.17203383476E+03  0.17120000000E+03 0.  0.
        998    1    1    2    0    0 -0.13267254858E+01 -0.22669560987E+01  0.14765051941E+04  0.14765413937E+04  0.10000000000E+02 0. -1.
</event>
<event>
 5    1  0.1271464E-008  0.3811094E+03  0.7957747E-01  0.3446342E+00
         13   -1    0    0    0    0  0.00000000000E+00  0.00000000000E+00  0.14999999963E+04  0.15000000000E+04  0.10566000000E+00 0. -1.
        994   -1    0    0    0    0 -0.00000000000E+00 -0.00000000000E+00  0.11368683772E-12  0.17120000000E+03  0.17120000000E+03 0.  0.
         13    1    1    2    0    0  0.21941618043E+02  0.87565575713E+01  0.75298851146E+02  0.78917932378E+02  0.10566000000E+00 0. -1.
        994    1    1    2    0    0 -0.15899806111E+02 -0.11744587671E+02  0.48766749808E+01  0.17240638368E+03  0.17120000000E+03 0.  0.
        998    1    1    2    0    0 -0.60418119320E+01  0.29880300995E+01  0.14198244702E+04  0.14198756839E+04  0.10000000000E+02 0. -1.
</event>
<event>
 5    1  0.1271464E-008  0.3837043E+03  0.7957747E-01  0.3435186E+00
         13   -1    0    0    0    0  0.00000000000E+00  0.00000000000E+00  0.14999999963E+04  0.15000000000E+04  0.10566000000E+00 0.  1.
        994   -1    0    0    0    0 -0.00000000000E+00 -0.00000000000E+00  0.11368683772E-12  0.17120000000E+03  0.17120000000E+03 0.  0.
         13    1    1    2    0    0 -0.55034522311E+01 -0.98143832147E+01  0.28174758113E+02  0.30338725469E+02  0.10566000000E+00 0.  1.
        994    1    1    2    0    0 -0.48309524500E+01 -0.75117024941E-01  0.23519144309E+01  0.17128431115E+03  0.17120000000E+03 0.  0.
        998    1    1    2    0    0  0.10334404681E+02  0.98895002397E+01  0.14694733237E+04  0.14695769634E+04  0.10000000000E+02 0.  1.
</event>
<event>
 5    1  0.1271464E-008  0.3834392E+03  0.7957747E-01  0.3436319E+00
         13   -1    0    0    0    0  0.00000000000E+00  0.00000000000E+00  0.14999999963E+04  0.15000000000E+04  0.10566000000E+00 0. -1.
        994   -1    0    0    0    0 -0.00000000000E+00 -0.00000000000E+00  0.11368683772E-12  0.17120000000E+03  0.17120000000E+03 0.  0.
         13    1    1    2    0    0 -0.10136980342E+02 -0.10118123908E+02  0.41387384853E+02  0.43795680048E+02  0.10566000000E+00 0. -1.
        994    1    1    2    0    0  0.11271586296E+02  0.65179094161E+01  0.29675925830E+01  0.17172005825E+03  0.17120000000E+03 0.  0.
        998    1    1    2    0    0 -0.11346059539E+01  0.36002144920E+01  0.14556450188E+04  0.14556842617E+04  0.10000000000E+02 0. -1.
</event>
<event>
 5    1  0.1271464E-008  0.3784110E+03  0.7957747E-01  0.3458107E+00
         13   -1    0    0    0    0  0.00000000000E+00  0.00000000000E+00  0.14999999963E+04  0.15000000000E+04  0.10566000000E+00 0.  1.
        994   -1    0    0    0    0 -0.00000000000E+00 -0.00000000000E+00  0.11368683772E-12  0.17120000000E+03  0.17120000000E+03 0.  0.
         13    1    1    2    0    0 -0.30467720009E+02  0.20006268816E+02  0.12348512057E+03  0.12875216084E+03  0.10566000000E+00 0.  1.
        994    1    1    2    0    0  0.34155705794E+02 -0.12940763898E+02  0.94337482228E+01  0.17530690578E+03  0.17120000000E+03 0.  0.
        998    1    1    2    0    0 -0.36879857845E+01 -0.70655049178E+01  0.13670811275E+04  0.13671409334E+04  0.10000000000E+02 0.  1.
</event>
<event>
 5    1  0.1271464E-008  0.3844387E+03  0.7957747E-01  0.3432056E+00
         13   -1    0    0    0    0  0.00000000000E+00  0.00000000000E+00  0.14999999963E+04  0.15000000000E+04  0.10566000000E+00 0.  1.
        994   -1    0    0    0    0 -0.00000000000E+00 -0.00000000000E+00  0.11368683772E-12  0.17120000000E+03  0.17120000000E+03 0.  0.
         13    1    1    2    0    0  0.99372435315E+01  0.13702309620E+02  0.75383620318E+02  0.77260620462E+02  0.10566000000E+00 0.  1.
        994    1    1    2    0    0 -0.26365271934E+01 -0.10126127336E+02  0.22698732954E+01  0.17153449232E+03  0.17120000000E+03 0.  0.
        998    1    1    2    0    0 -0.73007163381E+01 -0.35761822835E+01  0.14223465027E+04  0.14224048872E+04  0.10000000000E+02 0.  1.
</event>
<event>
 5    1  0.1271464E-008  0.3842056E+03  0.7957747E-01  0.3433048E+00
         13   -1    0    0    0    0  0.00000000000E+00  0.00000000000E+00  0.14999999963E+04  0.15000000000E+04  0.10566000000E+00 0. -1.
        994   -1    0    0    0    0 -0.00000000000E+00 -0.00000000000E+00  0.11368683772E-12  0.17120000000E+03  0.17120000000E+03 0.  0.
         13    1    1    2    0    0  0.13216613610E+02  0.91350689654E+01  0.62069200776E+02  0.64114937490E+02  0.10566000000E+00 0. -1.
        994    1    1    2    0    0 -0.98637382501E+01 -0.10810011623E+02  0.27314731014E+01  0.17184600848E+03  0.17120000000E+03 0.  0.
        998    1    1    2    0    0 -0.33528753603E+01  0.16749426573E+01  0.14351993224E+04  0.14352390540E+04  0.10000000000E+02 0. -1.
</event>
<event>
 5    1  0.1271464E-008  0.3848159E+03  0.7957747E-01  0.3430453E+00
         13   -1    0    0    0    0  0.00000000000E+00  0.00000000000E+00  0.14999999963E+04  0.15000000000E+04  0.10566000000E+00 0. -1.
        994   -1    0    0    0    0 -0.00000000000E+00 -0.00000000000E+00  0.11368683772E-12  0.17120000000E+03  0.17120000000E+03 0.  0.
         13    1    1    2    0    0  0.85823531079E+00 -0.13665264947E+02  0.82656975437E+02  0.83783427874E+02  0.10566000000E+00 0. -1.
        994    1    1    2    0    0 -0.12819054948E+02 -0.46802148498E+02  0.95089366828E+01  0.17819828605E+03  0.17120000000E+03 0.  0.
        998    1    1    2    0    0  0.11960819637E+02  0.60467413445E+02  0.14078340842E+04  0.14092182861E+04  0.10000000000E+02 0. -1.
</event>
<event>
 5    1  0.1271464E-008  0.3763532E+03  0.7957747E-01  0.3467193E+00
         13   -1    0    0    0    0  0.00000000000E+00  0.00000000000E+00  0.14999999963E+04  0.15000000000E+04  0.10566000000E+00 0.  1.
        994   -1    0    0    0    0 -0.00000000000E+00 -0.00000000000E+00  0.11368683772E-12  0.17120000000E+03  0.17120000000E+03 0.  0.
         13    1    1    2    0    0  0.38677516536E+02 -0.42273843687E+02  0.26743817563E+03  0.27350725237E+03  0.10566000000E+00 0.  1.
        994    1    1    2    0    0 -0.60747815924E+02 -0.35460146436E+01  0.18619574885E+02  0.18264446317E+03  0.17120000000E+03 0.  0.
        998    1    1    2    0    0  0.22070299388E+02  0.45819858330E+02  0.12139422458E+04  0.12150482845E+04  0.10000000000E+02 0.  1.
</event>
<event>
 5    1  0.1271464E-008  0.3796149E+03  0.7957747E-01  0.3452837E+00
         13   -1    0    0    0    0  0.00000000000E+00  0.00000000000E+00  0.14999999963E+04  0.15000000000E+04  0.10566000000E+00 0.  1.
        994   -1    0    0    0    0 -0.00000000000E+00 -0.00000000000E+00  0.11368683772E-12  0.17120000000E+03  0.17120000000E+03 0.  0.
         13    1    1    2    0    0  0.12446085657E+02  0.32637435588E+01  0.13005796734E+02  0.18295326806E+02  0.10566000000E+00 0.  1.
        994    1    1    2    0    0 -0.10800974328E+03 -0.41942792850E+02  0.50660121518E+02  0.21284076308E+03  0.17120000000E+03 0.  0.
        998    1    1    2    0    0  0.95563657625E+02  0.38679049291E+02  0.14363340780E+04  0.14400639101E+04  0.10000000000E+02 0.  1.
</event>
<event>
 5    1  0.2223949E-008  0.3861306E+03  0.7957747E-01  0.3424892E+00
         13   -1    0    0    0    0  0.00000000000E+00  0.00000000000E+00  0.14999999963E+04  0.15000000000E+04  0.10566000000E+00 0. -1.
        994   -1    0    0    0    0 -0.00000000000E+00 -0.00000000000E+00  0.11368683772E-12  0.17120000000E+03  0.17120000000E+03 0.  0.
         13    1    1    2    0    0  0.43500254690E+01  0.91889369348E+01  0.51884015906E+02  0.52870800582E+02  0.10566000000E+00 0. -1.
        994    1    1    2    0    0  0.45029268271E+01 -0.67086487910E+00  0.11377889584E+01  0.17126430151E+03  0.17120000000E+03 0.  0.
        998    1    1    2    0    0 -0.88529522961E+01 -0.85180720557E+01  0.14469781914E+04  0.14470648979E+04  0.10000000000E+02 0. -1.
</event>
<event>
 5    1  0.1271464E-008  0.3857959E+03  0.7957747E-01  0.3426304E+00
         13   -1    0    0    0    0  0.00000000000E+00  0.00000000000E+00  0.14999999963E+04  0.15000000000E+04  0.10566000000E+00 0. -1.
        994   -1    0    0    0    0 -0.00000000000E+00 -0.00000000000E+00  0.11368683772E-12  0.17120000000E+03  0.17120000000E+03 0.  0.
         13    1    1    2    0    0 -0.10323456163E+01 -0.10549092692E+02  0.45078160520E+02  0.46307675541E+02  0.10566000000E+00 0. -1.
        994    1    1    2    0    0  0.75154241558E+01  0.92768687113E+01  0.17031834966E+01  0.17162424866E+03  0.17120000000E+03 0.  0.
        998    1    1    2    0    0 -0.64830785394E+01  0.12722239807E+01  0.14532186523E+04  0.14532680758E+04  0.10000000000E+02 0. -1.
</event>
<event>
 5    1  0.1271464E-008  0.3726591E+03  0.7957747E-01  0.3483758E+00
         13   -1    0    0    0    0  0.00000000000E+00  0.00000000000E+00  0.14999999963E+04  0.15000000000E+04  0.10566000000E+00 0.  1.
        994   -1    0    0    0    0 -0.00000000000E+00 -0.00000000000E+00  0.11368683772E-12  0.17120000000E+03  0.17120000000E+03 0.  0.
         13    1    1    2    0    0 -0.31720725846E+02  0.64443536554E+02  0.27732774334E+03  0.28647838006E+03  0.10566000000E+00 0.  1.
        994    1    1    2    0    0 -0.10270209926E+02  0.58107535603E+01  0.12843363296E+02  0.17208612393E+03  0.17120000000E+03 0.  0.
        998    1    1    2    0    0  0.41990935771E+02 -0.70254290115E+02  0.12098288896E+04  0.12126354960E+04  0.10000000000E+02 0.  1.
</event>
<event>
 5    1  0.1271464E-008  0.3831811E+03  0.7957747E-01  0.3437423E+00
         13   -1    0    0    0    0  0.00000000000E+00  0.00000000000E+00  0.14999999963E+04  0.15000000000E+04  0.10566000000E+00 0. -1.
        994   -1    0    0    0    0 -0.00000000000E+00 -0.00000000000E+00  0.11368683772E-12  0.17120000000E+03  0.17120000000E+03 0.  0.
         13    1    1    2    0    0 -0.92522512893E+01 -0.42094089181E+01  0.19333418437E+02  0.21842973924E+02  0.10566000000E+00 0. -1.
        994    1    1    2    0    0  0.71423102975E+01  0.57872102339E+01  0.28154713412E+01  0.17146973866E+03  0.17120000000E+03 0.  0.
        998    1    1    2    0    0  0.21099409918E+01 -0.15778013159E+01  0.14778511065E+04  0.14778872874E+04  0.10000000000E+02 0. -1.
</event>
<event>
 5    1  0.1271464E-008  0.3859606E+03  0.7957747E-01  0.3425608E+00
         13   -1    0    0    0    0  0.00000000000E+00  0.00000000000E+00  0.14999999963E+04  0.15000000000E+04  0.10566000000E+00 0.  1.
        994   -1    0    0    0    0 -0.00000000000E+00 -0.00000000000E+00  0.11368683772E-12  0.17120000000E+03  0.17120000000E+03 0.  0.
         13    1    1    2    0    0  0.18389646292E+01  0.10028186801E+02  0.44649541945E+02  0.45798898255E+02  0.10566000000E+00 0.  1.
        994    1    1    2    0    0  0.79485204246E+01 -0.11758322776E+02  0.18146176946E+01  0.17179688579E+03  0.17120000000E+03 0.  0.
        998    1    1    2    0    0 -0.97874850538E+01  0.17301359750E+01  0.14535358366E+04  0.14536042160E+04  0.10000000000E+02 0.  1.
</event>
<event>
 5    1  0.1271464E-008  0.3710919E+03  0.7957747E-01  0.3490888E+00
         13   -1    0    0    0    0  0.00000000000E+00  0.00000000000E+00  0.14999999963E+04  0.15000000000E+04  0.10566000000E+00 0. -1.
        994   -1    0    0    0    0 -0.00000000000E+00 -0.00000000000E+00  0.11368683772E-12  0.17120000000E+03  0.17120000000E+03 0.  0.
         13    1    1    2    0    0 -0.55106856890E+02  0.57472827440E+02  0.30876206176E+03  0.31886347160E+03  0.10566000000E+00 0. -1.
        994    1    1    2    0    0  0.40967331408E+02 -0.56824947816E+02  0.25798568055E+02  0.18676831383E+03  0.17120000000E+03 0.  0.
        998    1    1    2    0    0  0.14139525483E+02 -0.64787962431E+00  0.11654393665E+04  0.11655682146E+04  0.10000000000E+02 0. -1.
</event>
<event>
 5    1  0.1271464E-008  0.3855355E+03  0.7957747E-01  0.3427404E+00
         13   -1    0    0    0    0  0.00000000000E+00  0.00000000000E+00  0.14999999963E+04  0.15000000000E+04  0.10566000000E+00 0. -1.
        994   -1    0    0    0    0 -0.00000000000E+00 -0.00000000000E+00  0.11368683772E-12  0.17120000000E+03  0.17120000000E+03 0.  0.
         13    1    1    2    0    0 -0.15167672449E+02 -0.72433676472E+01  0.91676779393E+02  0.93204976832E+02  0.10566000000E+00 0. -1.
        994    1    1    2    0    0  0.19811972971E+02  0.20770782612E+02  0.40741226504E+01  0.17363749065E+03  0.17120000000E+03 0.  0.
        998    1    1    2    0    0 -0.46443005224E+01 -0.13527414965E+02  0.14042490942E+04  0.14043575325E+04  0.10000000000E+02 0. -1.
</event>
<event>
 5    1  0.1271464E-008  0.3846975E+03  0.7957747E-01  0.3430956E+00
         13   -1    0    0    0    0  0.00000000000E+00  0.00000000000E+00  0.14999999963E+04  0.15000000000E+04  0.10566000000E+00 0.  1.
        994   -1    0    0    0    0 -0.00000000000E+00 -0.00000000000E+00  0.11368683772E-12  0.17120000000E+03  0.17120000000E+03 0.  0.
         13    1    1    2    0    0 -0.11741184641E+02  0.14584826217E+02  0.10710291160E+03  0.10872726158E+03  0.10566000000E+00 0.  1.
        994    1    1    2    0    0  0.94624214444E+01  0.59075385206E+01  0.21901512781E+01  0.17157701826E+03  0.17120000000E+03 0.  0.
        998    1    1    2    0    0  0.22787631964E+01 -0.20492364737E+02  0.13907069334E+04  0.13908957202E+04  0.10000000000E+02 0.  1.
</event>
<event>
 5    1  0.1271464E-008  0.3807546E+03  0.7957747E-01  0.3447879E+00
         13   -1    0    0    0    0  0.00000000000E+00  0.00000000000E+00  0.14999999963E+04  0.15000000000E+04  0.10566000000E+00 0.  1.
        994   -1    0    0    0    0 -0.00000000000E+00 -0.00000000000E+00  0.11368683772E-12  0.17120000000E+03  0.17120000000E+03 0.  0.
         13    1    1    2    0    0 -0.29252729153E+01  0.46258185389E+02  0.26338937822E+03  0.26743663298E+03  0.10566000000E+00 0.  1.
        994    1    1    2    0    0  0.38144985782E+01 -0.35110612050E+02  0.79231814836E+01  0.17498434868E+03  0.17120000000E+03 0.  0.
        998    1    1    2    0    0 -0.88922566292E+00 -0.11147573338E+02  0.12286874366E+04  0.12287790183E+04  0.10000000000E+02 0.  1.
</event>
<event>
 5    1  0.1271464E-008  0.3701976E+03  0.7957747E-01  0.3494983E+00
         13   -1    0    0    0    0  0.00000000000E+00  0.00000000000E+00  0.14999999963E+04  0.15000000000E+04  0.10566000000E+00 0. -1.
        994   -1    0    0    0    0 -0.00000000000E+00 -0.00000000000E+00  0.11368683772E-12  0.17120000000E+03  0.17120000000E+03 0.  0.
         13    1    1    2    0    0  0.71134726112E+02 -0.12298656162E+03  0.57842149540E+03  0.59561504439E+03  0.10566000000E+00 0. -1.
        994    1    1    2    0    0 -0.75437849914E+02  0.12903527016E+03  0.90834256570E+02  0.24474736426E+03  0.17120000000E+03 0.  0.
        998    1    1    2    0    0  0.43031238023E+01 -0.60487085466E+01  0.83074424431E+03  0.83083759135E+03  0.10000000000E+02 0. -1.
</event>
<event>
 5    1  0.1271464E-008  0.3706333E+03  0.7957747E-01  0.3492986E+00
         13   -1    0    0    0    0  0.00000000000E+00  0.00000000000E+00  0.14999999963E+04  0.15000000000E+04  0.10566000000E+00 0. -1.
        994   -1    0    0    0    0 -0.00000000000E+00 -0.00000000000E+00  0.11368683772E-12  0.17120000000E+03  0.17120000000E+03 0.  0.
         13    1    1    2    0    0 -0.19691607082E+02 -0.16267174145E+03  0.76912332086E+03  0.78638447894E+03  0.10566000000E+00 0. -1.
        994    1    1    2    0    0  0.16273581274E+02  0.15179550030E+03  0.94221088689E+02  0.24797934775E+03  0.17120000000E+03 0.  0.
        998    1    1    2    0    0  0.34180258084E+01  0.10876241149E+02  0.63665558673E+03  0.63683617331E+03  0.10000000000E+02 0.  0.
</event>
<event>
 5    1  0.1271464E-008  0.3841269E+03  0.7957747E-01  0.3433384E+00
         13   -1    0    0    0    0  0.00000000000E+00  0.00000000000E+00  0.14999999963E+04  0.15000000000E+04  0.10566000000E+00 0. -1.
        994   -1    0    0    0    0 -0.00000000000E+00 -0.00000000000E+00  0.11368683772E-12  0.17120000000E+03  0.17120000000E+03 0.  0.
         13    1    1    2    0    0  0.44358113257E+01  0.11831598931E+02  0.37509965538E+02  0.39581205566E+02  0.10566000000E+00 0. -1.
        994    1    1    2    0    0 -0.59117067123E+01 -0.11244130452E+02  0.25966557586E+01  0.17169030656E+03  0.17120000000E+03 0.  0.
        998    1    1    2    0    0  0.14758953865E+01 -0.58746847840E+00  0.14598933750E+04  0.14599284879E+04  0.10000000000E+02 0. -1.
</event>
<event>
 5    1  0.1271464E-008  0.3814483E+03  0.7957747E-01  0.3444876E+00
         13   -1    0    0    0    0  0.00000000000E+00  0.00000000000E+00  0.14999999963E+04  0.15000000000E+04  0.10566000000E+00 0.  1.
        994   -1    0    0    0    0 -0.00000000000E+00 -0.00000000000E+00  0.11368683772E-12  0.17120000000E+03  0.17120000000E+03 0.  0.
         13    1    1    2    0    0  0.25973408004E+02  0.60006910681E+01  0.10732666452E+03  0.11058774931E+03  0.10566000000E+00 0.  1.
        994    1    1    2    0    0 -0.75895818995E+01 -0.10201059453E+02  0.39418570883E+01  0.17171674818E+03  0.17120000000E+03 0.  0.
        998    1    1    2    0    0 -0.18383826104E+02  0.42003683853E+01  0.13887314747E+04  0.13888955025E+04  0.10000000000E+02 0.  1.
</event>
<event>
 5    1  0.1271464E-008  0.3686035E+03  0.7957747E-01  0.3502334E+00
         13   -1    0    0    0    0  0.00000000000E+00  0.00000000000E+00  0.14999999963E+04  0.15000000000E+04  0.10566000000E+00 0.  1.
        994   -1    0    0    0    0 -0.00000000000E+00 -0.00000000000E+00  0.11368683772E-12  0.17120000000E+03  0.17120000000E+03 0.  0.
         13    1    1    2    0    0  0.84690960496E+02 -0.26750259678E+02  0.39355258416E+03  0.40344985171E+03  0.10566000000E+00 0.  1.
        994    1    1    2    0    0 -0.37585535170E+02  0.44093534428E+02  0.21973612846E+02  0.18206919535E+03  0.17120000000E+03 0.  0.
        998    1    1    2    0    0 -0.47105425326E+02 -0.17343274750E+02  0.10844737993E+04  0.10856809529E+04  0.10000000000E+02 0.  1.
</event>
<event>
 5    1  0.1271464E-008  0.3814143E+03  0.7957747E-01  0.3445023E+00
         13   -1    0    0    0    0  0.00000000000E+00  0.00000000000E+00  0.14999999963E+04  0.15000000000E+04  0.10566000000E+00 0. -1.
        994   -1    0    0    0    0 -0.00000000000E+00 -0.00000000000E+00  0.11368683772E-12  0.17120000000E+03  0.17120000000E+03 0.  0.
         13    1    1    2    0    0 -0.99784827132E+01 -0.17955055564E+02  0.75288280909E+02  0.78040313581E+02  0.10566000000E+00 0. -1.
        994    1    1    2    0    0 -0.58168929227E+02 -0.81904842594E-01  0.14762508077E+02  0.18141389881E+03  0.17120000000E+03 0.  0.
        998    1    1    2    0    0  0.68147411940E+02  0.18036960407E+02  0.14099492073E+04  0.14117457876E+04  0.10000000000E+02 0. -1.
</event>
<event>
 5    1  0.1271464E-008  0.3823434E+03  0.7957747E-01  0.3441018E+00
         13   -1    0    0    0    0  0.00000000000E+00  0.00000000000E+00  0.14999999963E+04  0.15000000000E+04  0.10566000000E+00 0.  1.
        994   -1    0    0    0    0 -0.00000000000E+00 -0.00000000000E+00  0.11368683772E-12  0.17120000000E+03  0.17120000000E+03 0.  0.
         13    1    1    2    0    0 -0.41274717504E+00 -0.17237796438E+02  0.50228021992E+02  0.53105341949E+02  0.10566000000E+00 0.  1.
        994    1    1    2    0    0  0.48996926203E+00  0.71710722776E+01  0.31262435578E+01  0.17137933874E+03  0.17120000000E+03 0.  0.
        998    1    1    2    0    0 -0.77222086996E-01  0.10066724160E+02  0.14466457307E+04  0.14467153193E+04  0.10000000000E+02 0.  1.
</event>
<event>
 5    1  0.1271464E-008  0.3783748E+03  0.7957747E-01  0.3458266E+00
         13   -1    0    0    0    0  0.00000000000E+00  0.00000000000E+00  0.14999999963E+04  0.15000000000E+04  0.10566000000E+00 0. -1.
        994   -1    0    0    0    0 -0.00000000000E+00 -0.00000000000E+00  0.11368683772E-12  0.17120000000E+03  0.17120000000E+03 0.  0.
         13    1    1    2    0    0 -0.57755045325E+01 -0.38658094429E+02  0.18074178778E+03  0.18492000901E+03  0.10566000000E+00 0. -1.
        994    1    1    2    0    0 -0.22230034909E+02  0.10066703543E+01  0.66218815385E+01  0.17276711826E+03  0.17120000000E+03 0.  0.
        998    1    1    2    0    0  0.28005539441E+02  0.37651424075E+02  0.13126363270E+04  0.13135128727E+04  0.10000000000E+02 0. -1.
</event>
<event>
 5    1  0.1271464E-008  0.3706990E+03  0.7957747E-01  0.3492685E+00
         13   -1    0    0    0    0  0.00000000000E+00  0.00000000000E+00  0.14999999963E+04  0.15000000000E+04  0.10566000000E+00 0.  1.
        994   -1    0    0    0    0 -0.00000000000E+00 -0.00000000000E+00  0.11368683772E-12  0.17120000000E+03  0.17120000000E+03 0.  0.
         13    1    1    2    0    0 -0.22590958166E+02  0.19909558848E+02  0.35317265063E+02  0.46411876712E+02  0.10566000000E+00 0.  1.
        994    1    1    2    0    0  0.18989558352E+02 -0.14683293010E+02  0.13330803775E+02  0.17338786794E+03  0.17120000000E+03 0.  0.
        998    1    1    2    0    0  0.36013998141E+01 -0.52262658373E+01  0.14513519274E+04  0.14514002553E+04  0.10000000000E+02 0.  1.
</event>
<event>
 5    1  0.1271464E-008  0.3858187E+03  0.7957747E-01  0.3426208E+00
         13   -1    0    0    0    0  0.00000000000E+00  0.00000000000E+00  0.14999999963E+04  0.15000000000E+04  0.10566000000E+00 0.  1.
        994   -1    0    0    0    0 -0.00000000000E+00 -0.00000000000E+00  0.11368683772E-12  0.17120000000E+03  0.17120000000E+03 0.  0.
         13    1    1    2    0    0 -0.10478426792E+02  0.10000835713E+02  0.84869330644E+02  0.86096623575E+02  0.10566000000E+00 0.  1.
        994    1    1    2    0    0  0.11114295647E+02 -0.52722859638E+01  0.17207253058E+01  0.17165000863E+03  0.17120000000E+03 0.  0.
        998    1    1    2    0    0 -0.63586885511E+00 -0.47285497488E+01  0.14134099403E+04  0.14134533678E+04  0.10000000000E+02 0.  1.
</event>
<event>
 5    1  0.1271464E-008  0.3784160E+03  0.7957747E-01  0.3458085E+00
         13   -1    0    0    0    0  0.00000000000E+00  0.00000000000E+00  0.14999999963E+04  0.15000000000E+04  0.10566000000E+00 0. -1.
        994   -1    0    0    0    0 -0.00000000000E+00 -0.00000000000E+00  0.11368683772E-12  0.17120000000E+03  0.17120000000E+03 0.  0.
         13    1    1    2    0    0 -0.15998139058E+02  0.33530411248E+02  0.15256693888E+03  0.15702519204E+03  0.10566000000E+00 0. -1.
        994    1    1    2    0    0  0.55890479922E+01 -0.32152198373E+01  0.50746208624E+01  0.17139651943E+03  0.17120000000E+03 0.  0.
        998    1    1    2    0    0  0.10409091066E+02 -0.30315191410E+02  0.13423584365E+04  0.13427782885E+04  0.10000000000E+02 0. -1.
</event>
<event>
 5    1  0.1271464E-008  0.3823985E+03  0.7957747E-01  0.3440781E+00
         13   -1    0    0    0    0  0.00000000000E+00  0.00000000000E+00  0.14999999963E+04  0.15000000000E+04  0.10566000000E+00 0.  1.
        994   -1    0    0    0    0 -0.00000000000E+00 -0.00000000000E+00  0.11368683772E-12  0.17120000000E+03  0.17120000000E+03 0.  0.
         13    1    1    2    0    0 -0.43344484582E+01 -0.11772584915E+02  0.24921109731E+02  0.27900789833E+02  0.10566000000E+00 0.  1.
        994    1    1    2    0    0  0.67459635255E+01  0.18115116512E+02  0.41675743212E+01  0.17233825503E+03  0.17120000000E+03 0.  0.
        998    1    1    2    0    0 -0.24115150672E+01 -0.63425315972E+01  0.14709113122E+04  0.14709609551E+04  0.10000000000E+02 0.  1.
</event>
<event>
 5    1  0.1271464E-008  0.2887848E+03  0.7957747E-01  0.3979488E+00
         13   -1    0    0    0    0  0.00000000000E+00  0.00000000000E+00  0.14999999963E+04  0.15000000000E+04  0.10566000000E+00 0.  1.
        994   -1    0    0    0    0 -0.00000000000E+00 -0.00000000000E+00  0.11368683772E-12  0.17120000000E+03  0.17120000000E+03 0.  0.
         13    1    1    2    0    0  0.19232605497E+03  0.63178298613E+02  0.52632576097E+03  0.56391455617E+03  0.10566000000E+00 0.  1.
        994    1    1    2    0    0 -0.17813206861E+03 -0.77240514228E+02  0.18469963615E+03  0.31799453848E+03  0.17120000000E+03 0.  0.
        998    1    1    2    0    0 -0.14193986353E+02  0.14062215615E+02  0.78897459916E+03  0.78929090535E+03  0.10000000000E+02 0.  1.
</event>
<event>
 5    1  0.1271464E-008  0.3835358E+03  0.7957747E-01  0.3435906E+00
         13   -1    0    0    0    0  0.00000000000E+00  0.00000000000E+00  0.14999999963E+04  0.15000000000E+04  0.10566000000E+00 0.  1.
        994   -1    0    0    0    0 -0.00000000000E+00 -0.00000000000E+00  0.11368683772E-12  0.17120000000E+03  0.17120000000E+03 0.  0.
         13    1    1    2    0    0 -0.12009864374E+03  0.14159495449E+02  0.71363737890E+03  0.72381109087E+03  0.10566000000E+00 0.  1.
        994    1    1    2    0    0  0.15648068834E+03 -0.44763684566E+02  0.95456999206E+02  0.25477729879E+03  0.17120000000E+03 0.  0.
        998    1    1    2    0    0 -0.36382044601E+02  0.30604189117E+02  0.69090561817E+03  0.69261161034E+03  0.10000000000E+02 0. -1.
</event>
<event>
 5    1  0.1271464E-008  0.3782944E+03  0.7957747E-01  0.3458619E+00
         13   -1    0    0    0    0  0.00000000000E+00  0.00000000000E+00  0.14999999963E+04  0.15000000000E+04  0.10566000000E+00 0.  1.
        994   -1    0    0    0    0 -0.00000000000E+00 -0.00000000000E+00  0.11368683772E-12  0.17120000000E+03  0.17120000000E+03 0.  0.
         13    1    1    2    0    0  0.18321181455E+02 -0.18653682305E+02  0.64447527121E+02  0.69549410275E+02  0.10566000000E+00 0.  1.
        994    1    1    2    0    0 -0.12994256628E+02  0.22146390136E+02  0.72162837173E+01  0.17326519573E+03  0.17120000000E+03 0.  0.
        998    1    1    2    0    0 -0.53269248275E+01 -0.34927078309E+01  0.14283361854E+04  0.14283853940E+04  0.10000000000E+02 0.  1.
</event>
<event>
 5    1  0.1271464E-008  0.3854987E+03  0.7957747E-01  0.3427560E+00
         13   -1    0    0    0    0  0.00000000000E+00  0.00000000000E+00  0.14999999963E+04  0.15000000000E+04  0.10566000000E+00 0.  1.
        994   -1    0    0    0    0 -0.00000000000E+00 -0.00000000000E+00  0.11368683772E-12  0.17120000000E+03  0.17120000000E+03 0.  0.
         13    1    1    2    0    0 -0.14704614377E+02  0.39172159346E+01  0.77938746198E+02  0.79410513080E+02  0.10566000000E+00 0.  1.
        994    1    1    2    0    0  0.20019241448E+02 -0.37976566173E+01  0.27471612971E+01  0.17243021522E+03  0.17120000000E+03 0.  0.
        998    1    1    2    0    0 -0.53146270706E+01 -0.11955931728E+00  0.14193140888E+04  0.14193592717E+04  0.10000000000E+02 0.  1.
</event>
<event>
 5    1  0.1271464E-008  0.3852511E+03  0.7957747E-01  0.3428608E+00
         13   -1    0    0    0    0  0.00000000000E+00  0.00000000000E+00  0.14999999963E+04  0.15000000000E+04  0.10566000000E+00 0. -1.
        994   -1    0    0    0    0 -0.00000000000E+00 -0.00000000000E+00  0.11368683772E-12  0.17120000000E+03  0.17120000000E+03 0.  0.
         13    1    1    2    0    0 -0.11088317814E+02 -0.81001958739E+00  0.45567018613E+02  0.46903851367E+02  0.10566000000E+00 0. -1.
        994    1    1    2    0    0 -0.11781953847E+02  0.12879891495E+02  0.25074107838E+01  0.17210587773E+03  0.17120000000E+03 0.  0.
        998    1    1    2    0    0  0.22870271661E+02 -0.12069871908E+02  0.14519255669E+04  0.14521902709E+04  0.10000000000E+02 0. -1.
</event>
<event>
 5    1  0.1271464E-008  0.3711858E+03  0.7957747E-01  0.3490459E+00
         13   -1    0    0    0    0  0.00000000000E+00  0.00000000000E+00  0.14999999963E+04  0.15000000000E+04  0.10566000000E+00 0. -1.
        994   -1    0    0    0    0 -0.00000000000E+00 -0.00000000000E+00  0.11368683772E-12  0.17120000000E+03  0.17120000000E+03 0.  0.
         13    1    1    2    0    0  0.16756329274E+02 -0.44369578484E+00  0.12324348425E+02  0.20805580137E+02  0.10566000000E+00 0. -1.
        994    1    1    2    0    0 -0.15425439681E+02 -0.14911063035E+01  0.94780057731E+01  0.17216108788E+03  0.17120000000E+03 0.  0.
        998    1    1    2    0    0 -0.13308895932E+01  0.19348020883E+01  0.14781976421E+04  0.14782333320E+04  0.10000000000E+02 0. -1.
</event>
<event>
 5    1  0.1271464E-008  0.3845259E+03  0.7957747E-01  0.3431686E+00
         13   -1    0    0    0    0  0.00000000000E+00  0.00000000000E+00  0.14999999963E+04  0.15000000000E+04  0.10566000000E+00 0. -1.
        994   -1    0    0    0    0 -0.00000000000E+00 -0.00000000000E+00  0.11368683772E-12  0.17120000000E+03  0.17120000000E+03 0.  0.
         13    1    1    2    0    0 -0.28787437752E+01 -0.12121362839E+02  0.36273778917E+02  0.38353784738E+02  0.10566000000E+00 0. -1.
        994    1    1    2    0    0 -0.10385140851E+02  0.40960192891E+02  0.77692167317E+01  0.17650889292E+03  0.17120000000E+03 0.  0.
        998    1    1    2    0    0  0.13263884626E+02 -0.28838830052E+02  0.14559570006E+04  0.14563373223E+04  0.10000000000E+02 0. -1.
</event>
<event>
 5    1  0.1271464E-008  0.3823012E+03  0.7957747E-01  0.3441199E+00
         13   -1    0    0    0    0  0.00000000000E+00  0.00000000000E+00  0.14999999963E+04  0.15000000000E+04  0.10566000000E+00 0.  1.
        994   -1    0    0    0    0 -0.00000000000E+00 -0.00000000000E+00  0.11368683772E-12  0.17120000000E+03  0.17120000000E+03 0.  0.
         13    1    1    2    0    0  0.35556386496E+02 -0.99245859140E+01  0.20079899848E+03  0.20416415695E+03  0.10566000000E+00 0.  1.
        994    1    1    2    0    0 -0.35761695027E+02  0.76328860622E+01  0.74250023154E+01  0.17521909268E+03  0.17120000000E+03 0.  0.
        998    1    1    2    0    0  0.20530853122E+00  0.22916998518E+01  0.12917759955E+04  0.12918167504E+04  0.10000000000E+02 0.  1.
</event>
<event>
 5    1  0.1271464E-008  0.3859110E+03  0.7957747E-01  0.3425818E+00
         13   -1    0    0    0    0  0.00000000000E+00  0.00000000000E+00  0.14999999963E+04  0.15000000000E+04  0.10566000000E+00 0.  1.
        994   -1    0    0    0    0 -0.00000000000E+00 -0.00000000000E+00  0.11368683772E-12  0.17120000000E+03  0.17120000000E+03 0.  0.
         13    1    1    2    0    0 -0.57010944529E+01 -0.91114256980E+01  0.50845812876E+02  0.51969494968E+02  0.10566000000E+00 0.  1.
        994    1    1    2    0    0 -0.88151747648E+01  0.95283091100E+01  0.17311960047E+01  0.17170012528E+03  0.17120000000E+03 0.  0.
        998    1    1    2    0    0  0.14516269218E+02 -0.41688341195E+00  0.14474229874E+04  0.14475303798E+04  0.10000000000E+02 0.  1.
</event>
<event>
 5    1  0.1271464E-008  0.3857714E+03  0.7957747E-01  0.3426407E+00
         13   -1    0    0    0    0  0.00000000000E+00  0.00000000000E+00  0.14999999963E+04  0.15000000000E+04  0.10566000000E+00 0.  1.
        994   -1    0    0    0    0 -0.00000000000E+00 -0.00000000000E+00  0.11368683772E-12  0.17120000000E+03  0.17120000000E+03 0.  0.
         13    1    1    2    0    0 -0.12516165664E+02  0.50485715287E+01  0.73745805593E+02  0.74970644148E+02  0.10566000000E+00 0.  1.
        994    1    1    2    0    0  0.11774502752E+02  0.56787697074E+01  0.18084051798E+01  0.17170788470E+03  0.17120000000E+03 0.  0.
        998    1    1    2    0    0  0.74166291194E+00 -0.10727341236E+02  0.14244457855E+04  0.14245214711E+04  0.10000000000E+02 0.  1.
</event>
<event>
 5    1  0.1271464E-008  0.3810290E+03  0.7957747E-01  0.3446690E+00
         13   -1    0    0    0    0  0.00000000000E+00  0.00000000000E+00  0.14999999963E+04  0.15000000000E+04  0.10566000000E+00 0. -1.
        994   -1    0    0    0    0 -0.00000000000E+00 -0.00000000000E+00  0.11368683772E-12  0.17120000000E+03  0.17120000000E+03 0.  0.
         13    1    1    2    0    0  0.15740917730E+02 -0.28130935061E+02  0.17702883463E+03  0.17993983842E+03  0.10566000000E+00 0. -1.
        994    1    1    2    0    0  0.20117966258E+02  0.10311135604E+01  0.49677436210E+01  0.17245264347E+03  0.17120000000E+03 0.  0.
        998    1    1    2    0    0 -0.35858883987E+02  0.27099821501E+02  0.13180034180E+04  0.13188075181E+04  0.10000000000E+02 0. -1.
</event>
<event>
 5    1  0.1271464E-008  0.3853753E+03  0.7957747E-01  0.3428082E+00
         13   -1    0    0    0    0  0.00000000000E+00  0.00000000000E+00  0.14999999963E+04  0.15000000000E+04  0.10566000000E+00 0. -1.
        994   -1    0    0    0    0 -0.00000000000E+00 -0.00000000000E+00  0.11368683772E-12  0.17120000000E+03  0.17120000000E+03 0.  0.
         13    1    1    2    0    0  0.36477791874E+01 -0.12548005350E+02  0.65000380574E+02  0.66300975634E+02  0.10566000000E+00 0. -1.
        994    1    1    2    0    0 -0.16748297409E+01 -0.53340825090E+01  0.15466074888E+01  0.17129824718E+03  0.17120000000E+03 0.  0.
        998    1    1    2    0    0 -0.19729494466E+01  0.17882087859E+02  0.14334530082E+04  0.14336007772E+04  0.10000000000E+02 0. -1.
</event>
<event>
 5    1  0.1271464E-008  0.3783440E+03  0.7957747E-01  0.3458401E+00
         13   -1    0    0    0    0  0.00000000000E+00  0.00000000000E+00  0.14999999963E+04  0.15000000000E+04  0.10566000000E+00 0. -1.
        994   -1    0    0    0    0 -0.00000000000E+00 -0.00000000000E+00  0.11368683772E-12  0.17120000000E+03  0.17120000000E+03 0.  0.
         13    1    1    2    0    0  0.98578152803E+01 -0.62154100985E+01  0.11266110341E+02  0.16209387744E+02  0.10566000000E+00 0. -1.
        994    1    1    2    0    0 -0.12065045850E+02  0.99016854961E+01  0.57907172249E+01  0.17200750307E+03  0.17120000000E+03 0.  0.
        998    1    1    2    0    0  0.22072305702E+01 -0.36862753976E+01  0.14829431687E+04  0.14829831092E+04  0.10000000000E+02 0. -1.
</event>
<event>
 5    1  0.1271464E-008  0.3849751E+03  0.7957747E-01  0.3429778E+00
         13   -1    0    0    0    0  0.00000000000E+00  0.00000000000E+00  0.14999999963E+04  0.15000000000E+04  0.10566000000E+00 0.  1.
        994   -1    0    0    0    0 -0.00000000000E+00 -0.00000000000E+00  0.11368683772E-12  0.17120000000E+03  0.17120000000E+03 0.  0.
         13    1    1    2    0    0 -0.16211455150E+02 -0.10255843565E+02  0.11273157372E+03  0.11435214245E+03  0.10566000000E+00 0.  1.
        994    1    1    2    0    0  0.49512703904E+01  0.13782679188E+02  0.23482294715E+01  0.17184129744E+03  0.17120000000E+03 0.  0.
        998    1    1    2    0    0  0.11260184760E+02 -0.35268356231E+01  0.13849201931E+04  0.13850065601E+04  0.10000000000E+02 0.  1.
</event>
<event>
 5    1  0.1271464E-008  0.3769772E+03  0.7957747E-01  0.3464427E+00
         13   -1    0    0    0    0  0.00000000000E+00  0.00000000000E+00  0.14999999963E+04  0.15000000000E+04  0.10566000000E+00 0.  1.
        994   -1    0    0    0    0 -0.00000000000E+00 -0.00000000000E+00  0.11368683772E-12  0.17120000000E+03  0.17120000000E+03 0.  0.
         13    1    1    2    0    0  0.16799333568E+02  0.38718153976E+02  0.12049661845E+03  0.12767442688E+03  0.10566000000E+00 0.  1.
        994    1    1    2    0    0 -0.38178159585E+02 -0.67794568035E+02  0.26389381662E+02  0.18989343008E+03  0.17120000000E+03 0.  0.
        998    1    1    2    0    0  0.21378826017E+02  0.29076414059E+02  0.13531139962E+04  0.13536321430E+04  0.10000000000E+02 0.  1.
</event>
<event>
 5    1  0.1271464E-008  0.3745032E+03  0.7957747E-01  0.3475448E+00
         13   -1    0    0    0    0  0.00000000000E+00  0.00000000000E+00  0.14999999963E+04  0.15000000000E+04  0.10566000000E+00 0.  1.
        994   -1    0    0    0    0 -0.00000000000E+00 -0.00000000000E+00  0.11368683772E-12  0.17120000000E+03  0.17120000000E+03 0.  0.
         13    1    1    2    0    0 -0.27760452730E+02  0.34630606147E+02  0.12942551948E+03  0.13682433217E+03  0.10566000000E+00 0.  1.
        994    1    1    2    0    0  0.26547317421E+02 -0.33626060974E+02  0.13209441545E+02  0.17697288319E+03  0.17120000000E+03 0.  0.
        998    1    1    2    0    0  0.12131353085E+01 -0.10045451733E+01  0.13573650353E+04  0.13574027846E+04  0.10000000000E+02 0.  1.
</event>
<event>
 5    1  0.1271464E-008  0.3827774E+03  0.7957747E-01  0.3439154E+00
         13   -1    0    0    0    0  0.00000000000E+00  0.00000000000E+00  0.14999999963E+04  0.15000000000E+04  0.10566000000E+00 0. -1.
        994   -1    0    0    0    0 -0.00000000000E+00 -0.00000000000E+00  0.11368683772E-12  0.17120000000E+03  0.17120000000E+03 0.  0.
         13    1    1    2    0    0  0.15834390714E+02 -0.50932593444E+00  0.43284830505E+02  0.46093112914E+02  0.10566000000E+00 0. -1.
        994    1    1    2    0    0 -0.19784224050E+02 -0.15619811684E+01  0.40434082855E+01  0.17239386433E+03  0.17120000000E+03 0.  0.
        998    1    1    2    0    0  0.39498333362E+01  0.20713071029E+01  0.14526717575E+04  0.14527130228E+04  0.10000000000E+02 0. -1.
</event>
<event>
 5    1  0.1271464E-008  0.3751482E+03  0.7957747E-01  0.3472560E+00
         13   -1    0    0    0    0  0.00000000000E+00  0.00000000000E+00  0.14999999963E+04  0.15000000000E+04  0.10566000000E+00 0.  1.
        994   -1    0    0    0    0 -0.00000000000E+00 -0.00000000000E+00  0.11368683772E-12  0.17120000000E+03  0.17120000000E+03 0.  0.
         13    1    1    2    0    0 -0.29806795506E+02 -0.46450296314E+01  0.64344643735E+02  0.71065221452E+02  0.10566000000E+00 0.  1.
        994    1    1    2    0    0  0.27557930265E+02  0.76429917109E+01  0.93863224612E+01  0.17382576878E+03  0.17120000000E+03 0.  0.
        998    1    1    2    0    0  0.22488652410E+01 -0.29979620794E+01  0.14262690301E+04  0.14263090098E+04  0.10000000000E+02 0.  1.
</event>
<event>
 5    1  0.1271464E-008  0.3816487E+03  0.7957747E-01  0.3444011E+00
         13   -1    0    0    0    0  0.00000000000E+00  0.00000000000E+00  0.14999999963E+04  0.15000000000E+04  0.10566000000E+00 0. -1.
        994   -1    0    0    0    0 -0.00000000000E+00 -0.00000000000E+00  0.11368683772E-12  0.17120000000E+03  0.17120000000E+03 0.  0.
         13    1    1    2    0    0 -0.24129912770E+02  0.53031281367E+01  0.89220092334E+02  0.92577599334E+02  0.10566000000E+00 0. -1.
        994    1    1    2    0    0  0.18934557231E+02 -0.51665180491E+01  0.45850079803E+01  0.17238234441E+03  0.17120000000E+03 0.  0.
        998    1    1    2    0    0  0.51953555387E+01 -0.13661008755E+00  0.14061948960E+04  0.14062400563E+04  0.10000000000E+02 0. -1.
</event>
<event>
 5    1  0.1271464E-008  0.3757873E+03  0.7957747E-01  0.3469709E+00
         13   -1    0    0    0    0  0.00000000000E+00  0.00000000000E+00  0.14999999963E+04  0.15000000000E+04  0.10566000000E+00 0.  1.
        994   -1    0    0    0    0 -0.00000000000E+00 -0.00000000000E+00  0.11368683772E-12  0.17120000000E+03  0.17120000000E+03 0.  0.
         13    1    1    2    0    0 -0.14000287656E+02  0.33755922573E+02  0.10500336652E+03  0.11118088194E+03  0.10566000000E+00 0.  1.
        994    1    1    2    0    0 -0.28755359620E+01 -0.23467880092E+02  0.81724224556E+01  0.17301802967E+03  0.17120000000E+03 0.  0.
        998    1    1    2    0    0  0.16875823618E+02 -0.10288042482E+02  0.13868242073E+04  0.13870010884E+04  0.10000000000E+02 0.  1.
</event>
<event>
 5    1  0.1271464E-008  0.3829306E+03  0.7957747E-01  0.3438497E+00
         13   -1    0    0    0    0  0.00000000000E+00  0.00000000000E+00  0.14999999963E+04  0.15000000000E+04  0.10566000000E+00 0.  1.
        994   -1    0    0    0    0 -0.00000000000E+00 -0.00000000000E+00  0.11368683772E-12  0.17120000000E+03  0.17120000000E+03 0.  0.
         13    1    1    2    0    0  0.12266369182E+02 -0.60224380552E+01  0.34551306148E+02  0.37155584959E+02  0.10566000000E+00 0.  1.
        994    1    1    2    0    0 -0.47207014149E+01  0.54511280479E+01  0.28332584893E+01  0.17137522333E+03  0.17120000000E+03 0.  0.
        998    1    1    2    0    0 -0.75456677671E+01  0.57131000729E+00  0.14626154316E+04  0.14626691917E+04  0.10000000000E+02 0.  1.
</event>
<event>
 5    1  0.1271464E-008  0.3853352E+03  0.7957747E-01  0.3428252E+00
         13   -1    0    0    0    0  0.00000000000E+00  0.00000000000E+00  0.14999999963E+04  0.15000000000E+04  0.10566000000E+00 0.  1.
        994   -1    0    0    0    0 -0.00000000000E+00 -0.00000000000E+00  0.11368683772E-12  0.17120000000E+03  0.17120000000E+03 0.  0.
         13    1    1    2    0    0 -0.19939800437E+01 -0.11089907262E+02  0.44184853585E+02  0.45599061941E+02  0.10566000000E+00 0.  1.
        994    1    1    2    0    0  0.57395763286E+02 -0.25622934408E+01  0.12383413617E+02  0.18100725931E+03  0.17120000000E+03 0.  0.
        998    1    1    2    0    0 -0.55401783242E+02  0.13652200703E+02  0.14434317291E+04  0.14445936787E+04  0.10000000000E+02 0.  1.
</event>
<event>
 5    1  0.1271464E-008  0.3733892E+03  0.7957747E-01  0.3480458E+00
         13   -1    0    0    0    0  0.00000000000E+00  0.00000000000E+00  0.14999999963E+04  0.15000000000E+04  0.10566000000E+00 0.  1.
        994   -1    0    0    0    0 -0.00000000000E+00 -0.00000000000E+00  0.11368683772E-12  0.17120000000E+03  0.17120000000E+03 0.  0.
         13    1    1    2    0    0  0.14077099030E+02  0.11813653422E+03  0.55284072486E+03  0.56549737724E+03  0.10566000000E+00 0.  1.
        994    1    1    2    0    0  0.52563376267E+01 -0.70977741807E+02  0.30887563731E+02  0.18795997050E+03  0.17120000000E+03 0.  0.
        998    1    1    2    0    0 -0.19333436657E+02 -0.47158792408E+02  0.91627170769E+03  0.91774265226E+03  0.10000000000E+02 0.  0.
</event>
<event>
 5    1  0.1271464E-008  0.3828599E+03  0.7957747E-01  0.3438800E+00
         13   -1    0    0    0    0  0.00000000000E+00  0.00000000000E+00  0.14999999963E+04  0.15000000000E+04  0.10566000000E+00 0.  1.
        994   -1    0    0    0    0 -0.00000000000E+00 -0.00000000000E+00  0.11368683772E-12  0.17120000000E+03  0.17120000000E+03 0.  0.
         13    1    1    2    0    0 -0.64889422390E+01 -0.14130289546E+02  0.45726990866E+02  0.48298450407E+02  0.10566000000E+00 0.  1.
        994    1    1    2    0    0 -0.30164428788E+01  0.28339332097E+01  0.27531296159E+01  0.17127215135E+03  0.17120000000E+03 0.  0.
        998    1    1    2    0    0  0.95053851177E+01  0.11296356336E+02  0.14515198758E+04  0.14516293982E+04  0.10000000000E+02 0.  1.
</event>
<event>
 5    1  0.1271464E-008  0.3822018E+03  0.7957747E-01  0.3441627E+00
         13   -1    0    0    0    0  0.00000000000E+00  0.00000000000E+00  0.14999999963E+04  0.15000000000E+04  0.10566000000E+00 0. -1.
        994   -1    0    0    0    0 -0.00000000000E+00 -0.00000000000E+00  0.11368683772E-12  0.17120000000E+03  0.17120000000E+03 0.  0.
         13    1    1    2    0    0 -0.83549711533E+01 -0.20852065202E+02  0.88677532364E+02  0.91478577145E+02  0.10566000000E+00 0. -1.
        994    1    1    2    0    0 -0.24135350856E+01  0.21004101871E+01  0.30597771504E+01  0.17125723083E+03  0.17120000000E+03 0.  0.
        998    1    1    2    0    0  0.10768506239E+02  0.18751655015E+02  0.14082626868E+04  0.14084641920E+04  0.10000000000E+02 0. -1.
</event>
<event>
 5    1  0.1271464E-008  0.3802462E+03  0.7957747E-01  0.3450087E+00
         13   -1    0    0    0    0  0.00000000000E+00  0.00000000000E+00  0.14999999963E+04  0.15000000000E+04  0.10566000000E+00 0. -1.
        994   -1    0    0    0    0 -0.00000000000E+00 -0.00000000000E+00  0.11368683772E-12  0.17120000000E+03  0.17120000000E+03 0.  0.
         13    1    1    2    0    0 -0.55839051589E+01  0.13477325290E+02  0.25017825851E+02  0.28960681417E+02  0.10566000000E+00 0. -1.
        994    1    1    2    0    0 -0.13538942681E+01 -0.10051033716E+02  0.43525647598E+01  0.17155535879E+03  0.17120000000E+03 0.  0.
        998    1    1    2    0    0  0.69377994270E+01 -0.34262915742E+01  0.14706296057E+04  0.14706839598E+04  0.10000000000E+02 0. -1.
</event>
<event>
 5    1  0.1271464E-008  0.3843809E+03  0.7957747E-01  0.3432302E+00
         13   -1    0    0    0    0  0.00000000000E+00  0.00000000000E+00  0.14999999963E+04  0.15000000000E+04  0.10566000000E+00 0.  1.
        994   -1    0    0    0    0 -0.00000000000E+00 -0.00000000000E+00  0.11368683772E-12  0.17120000000E+03  0.17120000000E+03 0.  0.
         13    1    1    2    0    0 -0.13468434691E+02 -0.83093221732E+01  0.58650560006E+02  0.60748192739E+02  0.10566000000E+00 0.  1.
        994    1    1    2    0    0  0.29907276745E+02  0.36786346887E+01  0.49355937434E+01  0.17390163208E+03  0.17120000000E+03 0.  0.
        998    1    1    2    0    0 -0.16438842055E+02  0.46306874845E+01  0.14364138425E+04  0.14365501752E+04  0.10000000000E+02 0.  1.
</event>
<event>
 5    1  0.1271464E-008  0.3820383E+03  0.7957747E-01  0.3442331E+00
         13   -1    0    0    0    0  0.00000000000E+00  0.00000000000E+00  0.14999999963E+04  0.15000000000E+04  0.10566000000E+00 0. -1.
        994   -1    0    0    0    0 -0.00000000000E+00 -0.00000000000E+00  0.11368683772E-12  0.17120000000E+03  0.17120000000E+03 0.  0.
         13    1    1    2    0    0 -0.64705161118E+01  0.34769830441E+02  0.20194282462E+03  0.20501639999E+03  0.10566000000E+00 0. -1.
        994    1    1    2    0    0  0.25324797997E+01 -0.19386733449E+02  0.43780708374E+01  0.17236840311E+03  0.17120000000E+03 0.  0.
        998    1    1    2    0    0  0.39380363121E+01 -0.15383096991E+02  0.12936791008E+04  0.12938151969E+04  0.10000000000E+02 0. -1.
</event>
<event>
 5    1  0.1271464E-008  0.3796852E+03  0.7957747E-01  0.3452530E+00
         13   -1    0    0    0    0  0.00000000000E+00  0.00000000000E+00  0.14999999963E+04  0.15000000000E+04  0.10566000000E+00 0. -1.
        994   -1    0    0    0    0 -0.00000000000E+00 -0.00000000000E+00  0.11368683772E-12  0.17120000000E+03  0.17120000000E+03 0.  0.
         13    1    1    2    0    0  0.58658562770E+02 -0.22608821561E+02  0.13378043633E+03  0.14781475606E+03  0.10566000000E+00 0. -1.
        994    1    1    2    0    0  0.60815224500E+01  0.24254680422E+02  0.18420696419E+02  0.17399435765E+03  0.17120000000E+03 0.  0.
        998    1    1    2    0    0 -0.64740085220E+02 -0.16458588608E+01  0.13477988635E+04  0.13493908863E+04  0.10000000000E+02 0. -1.
</event>
<event>
 5    1  0.1271464E-008  0.3820312E+03  0.7957747E-01  0.3442361E+00
         13   -1    0    0    0    0  0.00000000000E+00  0.00000000000E+00  0.14999999963E+04  0.15000000000E+04  0.10566000000E+00 0. -1.
        994   -1    0    0    0    0 -0.00000000000E+00 -0.00000000000E+00  0.11368683772E-12  0.17120000000E+03  0.17120000000E+03 0.  0.
         13    1    1    2    0    0 -0.76765855027E+02 -0.33893862413E+01  0.14796888678E+03  0.16673118201E+03  0.10566000000E+00 0. -1.
        994    1    1    2    0    0  0.76849687876E+02  0.38977505070E+00  0.39341101294E+02  0.19173729085E+03  0.17120000000E+03 0.  0.
        998    1    1    2    0    0 -0.83832848711E-01  0.29996111906E+01  0.13126900082E+04  0.13127315271E+04  0.10000000000E+02 0. -1.
</event>
<event>
 5    1  0.1271464E-008  0.3833245E+03  0.7957747E-01  0.3436809E+00
         13   -1    0    0    0    0  0.00000000000E+00  0.00000000000E+00  0.14999999963E+04  0.15000000000E+04  0.10566000000E+00 0. -1.
        994   -1    0    0    0    0 -0.00000000000E+00 -0.00000000000E+00  0.11368683772E-12  0.17120000000E+03  0.17120000000E+03 0.  0.
         13    1    1    2    0    0 -0.47823571875E+01  0.16629174011E+02  0.35121544738E-01  0.17303547790E+02  0.10566000000E+00 0. -1.
        994    1    1    2    0    0  0.84085879362E+01 -0.14316978769E+02  0.19177483128E+02  0.17306905007E+03  0.17120000000E+03 0.  0.
        998    1    1    2    0    0 -0.36262307487E+01 -0.23121952421E+01  0.14807873916E+04  0.14808274021E+04  0.10000000000E+02 0. -1.
</event>
<event>
 5    1  0.1271464E-008  0.3853656E+03  0.7957747E-01  0.3428123E+00
         13   -1    0    0    0    0  0.00000000000E+00  0.00000000000E+00  0.14999999963E+04  0.15000000000E+04  0.10566000000E+00 0. -1.
        994   -1    0    0    0    0 -0.00000000000E+00 -0.00000000000E+00  0.11368683772E-12  0.17120000000E+03  0.17120000000E+03 0.  0.
         13    1    1    2    0    0  0.56612323926E+01  0.10940082391E+02  0.53239150123E+02  0.54645706371E+02  0.10566000000E+00 0. -1.
        994    1    1    2    0    0 -0.69861357650E+01 -0.31986337121E+01  0.16427017400E+01  0.17138020837E+03  0.17120000000E+03 0.  0.
        998    1    1    2    0    0  0.13249033724E+01 -0.77414486791E+01  0.14451181444E+04  0.14451740853E+04  0.10000000000E+02 0. -1.
</event>
<event>
 5    1  0.1271464E-008  0.3761736E+03  0.7957747E-01  0.3467991E+00
         13   -1    0    0    0    0  0.00000000000E+00  0.00000000000E+00  0.14999999963E+04  0.15000000000E+04  0.10566000000E+00 0. -1.
        994   -1    0    0    0    0 -0.00000000000E+00 -0.00000000000E+00  0.11368683772E-12  0.17120000000E+03  0.17120000000E+03 0.  0.
         13    1    1    2    0    0 -0.22231057202E+02 -0.84113822447E+02  0.46877774452E+03  0.47678290652E+03  0.10566000000E+00 0. -1.
        994    1    1    2    0    0  0.23687897411E+02  0.74232745660E+02  0.26919671609E+02  0.19001506712E+03  0.17120000000E+03 0.  0.
        998    1    1    2    0    0 -0.14568402096E+01  0.98810767879E+01  0.10043025801E+04  0.10044020264E+04  0.10000000000E+02 0. -1.
</event>
<event>
 5    1  0.1271464E-008  0.3780647E+03  0.7957747E-01  0.3459629E+00
         13   -1    0    0    0    0  0.00000000000E+00  0.00000000000E+00  0.14999999963E+04  0.15000000000E+04  0.10566000000E+00 0. -1.
        994   -1    0    0    0    0 -0.00000000000E+00 -0.00000000000E+00  0.11368683772E-12  0.17120000000E+03  0.17120000000E+03 0.  0.
         13    1    1    2    0    0  0.76021582877E+02 -0.95455809508E+01  0.45021367434E+03  0.45668672293E+03  0.10566000000E+00 0. -1.
        994    1    1    2    0    0 -0.67227769257E+02 -0.74291701640E+00  0.20474868757E+02  0.18506427299E+03  0.17120000000E+03 0.  0.
        998    1    1    2    0    0 -0.87938136199E+01  0.10288497967E+02  0.10293114532E+04  0.10294490041E+04  0.10000000000E+02 0. -1.
</event>
<event>
 5    1  0.1271464E-008  0.3765146E+03  0.7957747E-01  0.3466476E+00
         13   -1    0    0    0    0  0.00000000000E+00  0.00000000000E+00  0.14999999963E+04  0.15000000000E+04  0.10566000000E+00 0. -1.
        994   -1    0    0    0    0 -0.00000000000E+00 -0.00000000000E+00  0.11368683772E-12  0.17120000000E+03  0.17120000000E+03 0.  0.
         13    1    1    2    0    0  0.11720803578E+00  0.11534469943E+02 -0.21237571928E+01  0.11729417856E+02  0.10566000000E+00 0. -1.
        994    1    1    2    0    0 -0.32933081057E+01 -0.13671770416E+02  0.15133690121E+02  0.17244196636E+03  0.17120000000E+03 0.  0.
        998    1    1    2    0    0  0.31761000699E+01  0.21373004735E+01  0.14869900634E+04  0.14870286158E+04  0.10000000000E+02 0. -1.
</event>
<event>
 5    1  0.1271464E-008  0.3689277E+03  0.7957747E-01  0.3500834E+00
         13   -1    0    0    0    0  0.00000000000E+00  0.00000000000E+00  0.14999999963E+04  0.15000000000E+04  0.10566000000E+00 0.  1.
        994   -1    0    0    0    0 -0.00000000000E+00 -0.00000000000E+00  0.11368683772E-12  0.17120000000E+03  0.17120000000E+03 0.  0.
         13    1    1    2    0    0  0.60518212115E+02  0.29844159756E+02  0.28651860150E+03  0.29435700780E+03  0.10566000000E+00 0.  1.
        994    1    1    2    0    0  0.87523227608E+01 -0.29077817659E+02  0.13037538243E+02  0.17436037404E+03  0.17120000000E+03 0.  0.
        998    1    1    2    0    0 -0.69270534876E+02 -0.76634209761E+00  0.12004438565E+04  0.12024826182E+04  0.10000000000E+02 0.  1.
</event>
<event>
 5    1  0.1271464E-008  0.3752910E+03  0.7957747E-01  0.3471922E+00
         13   -1    0    0    0    0  0.00000000000E+00  0.00000000000E+00  0.14999999963E+04  0.15000000000E+04  0.10566000000E+00 0.  1.
        994   -1    0    0    0    0 -0.00000000000E+00 -0.00000000000E+00  0.11368683772E-12  0.17120000000E+03  0.17120000000E+03 0.  0.
         13    1    1    2    0    0  0.78589160227E+02  0.33923679320E+02  0.36455223197E+03  0.37446683848E+03  0.10566000000E+00 0.  1.
        994    1    1    2    0    0 -0.77145433288E+01  0.16590473013E+02  0.14957574774E+02  0.17282339835E+03  0.17120000000E+03 0.  0.
        998    1    1    2    0    0 -0.70874616899E+02 -0.50514152333E+02  0.11204901895E+04  0.11239097632E+04  0.10000000000E+02 0.  1.
</event>
<event>
 5    1  0.1271464E-008  0.3786312E+03  0.7957747E-01  0.3457140E+00
         13   -1    0    0    0    0  0.00000000000E+00  0.00000000000E+00  0.14999999963E+04  0.15000000000E+04  0.10566000000E+00 0. -1.
        994   -1    0    0    0    0 -0.00000000000E+00 -0.00000000000E+00  0.11368683772E-12  0.17120000000E+03  0.17120000000E+03 0.  0.
         13    1    1    2    0    0  0.40244347842E+02 -0.24763463825E+02  0.25591080734E+03  0.26023679439E+03  0.10566000000E+00 0. -1.
        994    1    1    2    0    0 -0.88524700173E+01  0.11764177705E+02  0.55539312103E+01  0.17192163405E+03  0.17120000000E+03 0.  0.
        998    1    1    2    0    0 -0.31391877825E+02  0.12999286120E+02  0.12385352577E+04  0.12390415716E+04  0.10000000000E+02 0. -1.
</event>
<event>
 5    1  0.1271464E-008  0.3849935E+03  0.7957747E-01  0.3429700E+00
         13   -1    0    0    0    0  0.00000000000E+00  0.00000000000E+00  0.14999999963E+04  0.15000000000E+04  0.10566000000E+00 0.  1.
        994   -1    0    0    0    0 -0.00000000000E+00 -0.00000000000E+00  0.11368683772E-12  0.17120000000E+03  0.17120000000E+03 0.  0.
         13    1    1    2    0    0  0.56767920197E+01  0.85932398440E+01  0.32539938010E+02  0.34131048451E+02  0.10566000000E+00 0.  1.
        994    1    1    2    0    0 -0.31226897595E+00 -0.59266899276E+01  0.17492331437E+01  0.17131177129E+03  0.17120000000E+03 0.  0.
        998    1    1    2    0    0 -0.53645230438E+01 -0.26665499164E+01  0.14657108251E+04  0.14657571803E+04  0.10000000000E+02 0.  1.
</event>
<event>
 5    1  0.1271464E-008  0.3815668E+03  0.7957747E-01  0.3444365E+00
         13   -1    0    0    0    0  0.00000000000E+00  0.00000000000E+00  0.14999999963E+04  0.15000000000E+04  0.10566000000E+00 0.  1.
        994   -1    0    0    0    0 -0.00000000000E+00 -0.00000000000E+00  0.11368683772E-12  0.17120000000E+03  0.17120000000E+03 0.  0.
         13    1    1    2    0    0  0.30465241036E+02  0.71539365996E+01  0.17771747064E+03  0.18045171170E+03  0.10566000000E+00 0.  1.
        994    1    1    2    0    0  0.76890004863E+01 -0.21638248173E+01  0.35565466885E+01  0.17142313698E+03  0.17120000000E+03 0.  0.
        998    1    1    2    0    0 -0.38154241522E+02 -0.49901117824E+01  0.13187259789E+04  0.13193251513E+04  0.10000000000E+02 0.  1.
</event>
<event>
 5    1  0.1271464E-008  0.3861312E+03  0.7957747E-01  0.3424889E+00
         13   -1    0    0    0    0  0.00000000000E+00  0.00000000000E+00  0.14999999963E+04  0.15000000000E+04  0.10566000000E+00 0.  1.
        994   -1    0    0    0    0 -0.00000000000E+00 -0.00000000000E+00  0.11368683772E-12  0.17120000000E+03  0.17120000000E+03 0.  0.
         13    1    1    2    0    0  0.99604529050E+01 -0.54246639845E+01  0.61601483656E+02  0.62636982319E+02  0.10566000000E+00 0.  1.
        994    1    1    2    0    0 -0.72650277745E+01 -0.23495862204E+00  0.12427036570E+01  0.17135874692E+03  0.17120000000E+03 0.  0.
        998    1    1    2    0    0 -0.26954251306E+01  0.56596226065E+01  0.14371558090E+04  0.14372042708E+04  0.10000000000E+02 0.  1.
</event>
<event>
 5    1  0.1271464E-008  0.3815705E+03  0.7957747E-01  0.3444348E+00
         13   -1    0    0    0    0  0.00000000000E+00  0.00000000000E+00  0.14999999963E+04  0.15000000000E+04  0.10566000000E+00 0.  1.
        994   -1    0    0    0    0 -0.00000000000E+00 -0.00000000000E+00  0.11368683772E-12  0.17120000000E+03  0.17120000000E+03 0.  0.
         13    1    1    2    0    0 -0.15030447664E+02 -0.42282061929E+01  0.36279209675E+02  0.39496636607E+02  0.10566000000E+00 0.  1.
        994    1    1    2    0    0 -0.16243505744E+00  0.93737635641E+01  0.36348049810E+01  0.17149503094E+03  0.17120000000E+03 0.  0.
        998    1    1    2    0    0  0.15192882721E+02 -0.51455573712E+01  0.14600859816E+04  0.14602083325E+04  0.10000000000E+02 0.  1.
</event>
<event>
 5    1  0.1271464E-008  0.3719868E+03  0.7957747E-01  0.3486809E+00
         13   -1    0    0    0    0  0.00000000000E+00  0.00000000000E+00  0.14999999963E+04  0.15000000000E+04  0.10566000000E+00 0.  1.
        994   -1    0    0    0    0 -0.00000000000E+00 -0.00000000000E+00  0.11368683772E-12  0.17120000000E+03  0.17120000000E+03 0.  0.
         13    1    1    2    0    0 -0.14190316101E+03  0.60443169249E+02  0.55729260397E+03  0.57824297783E+03  0.10566000000E+00 0.  1.
        994    1    1    2    0    0  0.15174557733E+03 -0.44650149873E+02  0.10612845719E+03  0.25611139285E+03  0.17120000000E+03 0.  0.
        998    1    1    2    0    0 -0.98424163194E+01 -0.15793019376E+02  0.83657893512E+03  0.83684562932E+03  0.10000000000E+02 0.  1.
</event>
<event>
 5    1  0.1271464E-008  0.3826392E+03  0.7957747E-01  0.3439747E+00
         13   -1    0    0    0    0  0.00000000000E+00  0.00000000000E+00  0.14999999963E+04  0.15000000000E+04  0.10566000000E+00 0. -1.
        994   -1    0    0    0    0 -0.00000000000E+00 -0.00000000000E+00  0.11368683772E-12  0.17120000000E+03  0.17120000000E+03 0.  0.
         13    1    1    2    0    0  0.40121096572E+01  0.12589522472E+02  0.30505050277E+02  0.33243982258E+02  0.10566000000E+00 0. -1.
        994    1    1    2    0    0  0.69961640417E+01 -0.79266818837E+01  0.31773319680E+01  0.17155557127E+03  0.17120000000E+03 0.  0.
        998    1    1    2    0    0 -0.11008273699E+02 -0.46628405881E+01  0.14663176140E+04  0.14664004465E+04  0.10000000000E+02 0. -1.
</event>
<event>
 5    1  0.1271464E-008  0.3840714E+03  0.7957747E-01  0.3433620E+00
         13   -1    0    0    0    0  0.00000000000E+00  0.00000000000E+00  0.14999999963E+04  0.15000000000E+04  0.10566000000E+00 0. -1.
        994   -1    0    0    0    0 -0.00000000000E+00 -0.00000000000E+00  0.11368683772E-12  0.17120000000E+03  0.17120000000E+03 0.  0.
         13    1    1    2    0    0  0.16273761857E+02 -0.58806675608E+01  0.70156213012E+02  0.72258722409E+02  0.10566000000E+00 0. -1.
        994    1    1    2    0    0 -0.15175552515E+02 -0.16611449127E+01  0.28610145974E+01  0.17190311865E+03  0.17120000000E+03 0.  0.
        998    1    1    2    0    0 -0.10982093429E+01  0.75418124735E+01  0.14269827687E+04  0.14270381589E+04  0.10000000000E+02 0. -1.
</event>
<event>
 5    1  0.1271464E-008  0.3852143E+03  0.7957747E-01  0.3428764E+00
         13   -1    0    0    0    0  0.00000000000E+00  0.00000000000E+00  0.14999999963E+04  0.15000000000E+04  0.10566000000E+00 0. -1.
        994   -1    0    0    0    0 -0.00000000000E+00 -0.00000000000E+00  0.11368683772E-12  0.17120000000E+03  0.17120000000E+03 0.  0.
         13    1    1    2    0    0  0.11104988257E+02  0.37222659917E+01  0.45195219394E+02  0.46688275278E+02  0.10566000000E+00 0. -1.
        994    1    1    2    0    0 -0.49894879498E+01 -0.78685151173E+01  0.18091350571E+01  0.17146288663E+03  0.17120000000E+03 0.  0.
        998    1    1    2    0    0 -0.61155003070E+01  0.41462491255E+01  0.14529956418E+04  0.14530488381E+04  0.10000000000E+02 0. -1.
</event>
<event>
 5    1  0.1271464E-008  0.3779499E+03  0.7957747E-01  0.3460134E+00
         13   -1    0    0    0    0  0.00000000000E+00  0.00000000000E+00  0.14999999963E+04  0.15000000000E+04  0.10566000000E+00 0.  1.
        994   -1    0    0    0    0 -0.00000000000E+00 -0.00000000000E+00  0.11368683772E-12  0.17120000000E+03  0.17120000000E+03 0.  0.
         13    1    1    2    0    0  0.94383730805E+02  0.50404976491E+02  0.37387866106E+03  0.38888843472E+03  0.10566000000E+00 0.  1.
        994    1    1    2    0    0 -0.18239395292E+03 -0.59577355812E+02  0.14118781756E+03  0.29336062315E+03  0.17120000000E+03 0.  0.
        998    1    1    2    0    0  0.88010222115E+02  0.91723793214E+01  0.98493351766E+03  0.98895094213E+03  0.10000000000E+02 0.  1.
</event>
<event>
 5    1  0.1271464E-008  0.3831439E+03  0.7957747E-01  0.3437582E+00
         13   -1    0    0    0    0  0.00000000000E+00  0.00000000000E+00  0.14999999963E+04  0.15000000000E+04  0.10566000000E+00 0.  1.
        994   -1    0    0    0    0 -0.00000000000E+00 -0.00000000000E+00  0.11368683772E-12  0.17120000000E+03  0.17120000000E+03 0.  0.
         13    1    1    2    0    0 -0.28218263428E+01  0.10160013005E+02  0.20668334932E+02  0.23203012758E+02  0.10566000000E+00 0.  1.
        994    1    1    2    0    0  0.16591803907E+01 -0.98199008317E+01  0.28826888654E+01  0.17151365318E+03  0.17120000000E+03 0.  0.
        998    1    1    2    0    0  0.11626459521E+01 -0.34011217319E+00  0.14764489725E+04  0.14764833341E+04  0.10000000000E+02 0.  1.
</event>
<event>
 5    1  0.1271464E-008  0.3756453E+03  0.7957747E-01  0.3470342E+00
         13   -1    0    0    0    0  0.00000000000E+00  0.00000000000E+00  0.14999999963E+04  0.15000000000E+04  0.10566000000E+00 0. -1.
        994   -1    0    0    0    0 -0.00000000000E+00 -0.00000000000E+00  0.11368683772E-12  0.17120000000E+03  0.17120000000E+03 0.  0.
         13    1    1    2    0    0  0.58253585372E+02 -0.29864671131E+02  0.15011156145E+03  0.16376468128E+03  0.10566000000E+00 0. -1.
        994    1    1    2    0    0 -0.50361425092E+02 -0.11939357509E+02  0.23572218078E+02  0.18039930948E+03  0.17120000000E+03 0.  0.
        998    1    1    2    0    0 -0.78921602800E+01  0.41804028640E+02  0.13263162167E+04  0.13270360092E+04  0.10000000000E+02 0. -1.
</event>
<event>
 5    1  0.1271464E-008  0.3807456E+03  0.7957747E-01  0.3447918E+00
         13   -1    0    0    0    0  0.00000000000E+00  0.00000000000E+00  0.14999999963E+04  0.15000000000E+04  0.10566000000E+00 0.  1.
        994   -1    0    0    0    0 -0.00000000000E+00 -0.00000000000E+00  0.11368683772E-12  0.17120000000E+03  0.17120000000E+03 0.  0.
         13    1    1    2    0    0  0.20906234028E+02  0.37862112554E+02  0.21054600653E+03  0.21494241605E+03  0.10566000000E+00 0.  1.
        994    1    1    2    0    0 -0.26069310250E+02 -0.38042779429E+02  0.10882459069E+02  0.17763651066E+03  0.17120000000E+03 0.  0.
        998    1    1    2    0    0  0.51630762220E+01  0.18066687434E+00  0.12785715307E+04  0.12786210733E+04  0.10000000000E+02 0.  1.
</event>
<event>
 5    1  0.1271464E-008  0.3842384E+03  0.7957747E-01  0.3432908E+00
         13   -1    0    0    0    0  0.00000000000E+00  0.00000000000E+00  0.14999999963E+04  0.15000000000E+04  0.10566000000E+00 0. -1.
        994   -1    0    0    0    0 -0.00000000000E+00 -0.00000000000E+00  0.11368683772E-12  0.17120000000E+03  0.17120000000E+03 0.  0.
         13    1    1    2    0    0  0.34866612848E+01 -0.11779729279E+02  0.37543654561E+02  0.39502607391E+02  0.10566000000E+00 0. -1.
        994    1    1    2    0    0 -0.69788567983E+01  0.39137153162E+01  0.22198029614E+01  0.17140125185E+03  0.17120000000E+03 0.  0.
        998    1    1    2    0    0  0.34921955136E+01  0.78660139631E+01  0.14602365388E+04  0.14602961408E+04  0.10000000000E+02 0. -1.
</event>
<event>
 5    1  0.1271464E-008  0.3797755E+03  0.7957747E-01  0.3452137E+00
         13   -1    0    0    0    0  0.00000000000E+00  0.00000000000E+00  0.14999999963E+04  0.15000000000E+04  0.10566000000E+00 0.  1.
        994   -1    0    0    0    0 -0.00000000000E+00 -0.00000000000E+00  0.11368683772E-12  0.17120000000E+03  0.17120000000E+03 0.  0.
         13    1    1    2    0    0  0.12839923352E+02 -0.66057435658E+02  0.16163183280E+03  0.17508086410E+03  0.10566000000E+00 0.  1.
        994    1    1    2    0    0  0.36729979678E+02  0.26455345130E+01  0.21129555843E+02  0.17638590757E+03  0.17120000000E+03 0.  0.
        998    1    1    2    0    0 -0.49569903031E+02  0.63411901145E+02  0.13172386076E+04  0.13197332283E+04  0.10000000000E+02 0.  1.
</event>
<event>
 5    1  0.1271464E-008  0.3743410E+03  0.7957747E-01  0.3476175E+00
         13   -1    0    0    0    0  0.00000000000E+00  0.00000000000E+00  0.14999999963E+04  0.15000000000E+04  0.10566000000E+00 0. -1.
        994   -1    0    0    0    0 -0.00000000000E+00 -0.00000000000E+00  0.11368683772E-12  0.17120000000E+03  0.17120000000E+03 0.  0.
         13    1    1    2    0    0 -0.66032486670E+02  0.54416810481E+01  0.38606093796E+03  0.39170519548E+03  0.10566000000E+00 0. -1.
        994    1    1    2    0    0  0.12714286335E+02 -0.21603381484E+02  0.91611702472E+01  0.17326778757E+03  0.17120000000E+03 0.  0.
        998    1    1    2    0    0  0.53318200335E+02  0.16161700436E+02  0.11047778881E+04  0.11062270169E+04  0.10000000000E+02 0. -1.
</event>
<event>
 5    1  0.1271464E-008  0.3789901E+03  0.7957747E-01  0.3455568E+00
         13   -1    0    0    0    0  0.00000000000E+00  0.00000000000E+00  0.14999999963E+04  0.15000000000E+04  0.10566000000E+00 0.  1.
        994   -1    0    0    0    0 -0.00000000000E+00 -0.00000000000E+00  0.11368683772E-12  0.17120000000E+03  0.17120000000E+03 0.  0.
         13    1    1    2    0    0  0.24022898394E+02 -0.23276603443E+02  0.11654777299E+03  0.12125301839E+03  0.10566000000E+00 0.  1.
        994    1    1    2    0    0 -0.23876294111E+02  0.96476366381E+01  0.68712896567E+01  0.17326225479E+03  0.17120000000E+03 0.  0.
        998    1    1    2    0    0 -0.14660428337E+00  0.13628966805E+02  0.13765809336E+04  0.13766847268E+04  0.10000000000E+02 0.  1.
</event>
<event>
 5    1  0.1271464E-008  0.3772952E+03  0.7957747E-01  0.3463021E+00
         13   -1    0    0    0    0  0.00000000000E+00  0.00000000000E+00  0.14999999963E+04  0.15000000000E+04  0.10566000000E+00 0. -1.
        994   -1    0    0    0    0 -0.00000000000E+00 -0.00000000000E+00  0.11368683772E-12  0.17120000000E+03  0.17120000000E+03 0.  0.
         13    1    1    2    0    0 -0.50206830163E+01 -0.15739586327E+02  0.22379122681E+02  0.27816867755E+02  0.10566000000E+00 0. -1.
        994    1    1    2    0    0  0.97324705172E+01  0.10631492451E+02  0.62058512549E+01  0.17191771928E+03  0.17120000000E+03 0.  0.
        998    1    1    2    0    0 -0.47117875009E+01  0.51080938754E+01  0.14714150223E+04  0.14714654130E+04  0.10000000000E+02 0. -1.
</event>
<event>
 5    1  0.1271464E-008  0.3815761E+03  0.7957747E-01  0.3444324E+00
         13   -1    0    0    0    0  0.00000000000E+00  0.00000000000E+00  0.14999999963E+04  0.15000000000E+04  0.10566000000E+00 0.  1.
        994   -1    0    0    0    0 -0.00000000000E+00 -0.00000000000E+00  0.11368683772E-12  0.17120000000E+03  0.17120000000E+03 0.  0.
         13    1    1    2    0    0  0.18712499906E+02 -0.25971535717E+01  0.52664822759E+02  0.55950849678E+02  0.10566000000E+00 0.  1.
        994    1    1    2    0    0 -0.79604195155E+01  0.20405384671E+02  0.49367167132E+01  0.17266603364E+03  0.17120000000E+03 0.  0.
        998    1    1    2    0    0 -0.10752080390E+02 -0.17808231099E+02  0.14423984568E+04  0.14425831167E+04  0.10000000000E+02 0.  1.
</event>
<event>
 5    1  0.1271464E-008  0.3761527E+03  0.7957747E-01  0.3468084E+00
         13   -1    0    0    0    0  0.00000000000E+00  0.00000000000E+00  0.14999999963E+04  0.15000000000E+04  0.10566000000E+00 0.  1.
        994   -1    0    0    0    0 -0.00000000000E+00 -0.00000000000E+00  0.11368683772E-12  0.17120000000E+03  0.17120000000E+03 0.  0.
         13    1    1    2    0    0  0.24209354035E+02 -0.21811306650E+02  0.77652879220E+02  0.84212865619E+02  0.10566000000E+00 0.  1.
        994    1    1    2    0    0 -0.32976067601E+02  0.28306089102E+02  0.12509948532E+02  0.17707228616E+03  0.17120000000E+03 0.  0.
        998    1    1    2    0    0  0.87667135656E+01 -0.64947824529E+01  0.14098371685E+04  0.14099148482E+04  0.10000000000E+02 0.  1.
</event>
<event>
 5    1  0.1271464E-008  0.3806471E+03  0.7957747E-01  0.3448346E+00
         13   -1    0    0    0    0  0.00000000000E+00  0.00000000000E+00  0.14999999963E+04  0.15000000000E+04  0.10566000000E+00 0. -1.
        994   -1    0    0    0    0 -0.00000000000E+00 -0.00000000000E+00  0.11368683772E-12  0.17120000000E+03  0.17120000000E+03 0.  0.
         13    1    1    2    0    0  0.26955203015E+01 -0.15076765369E+02  0.25392672425E+02  0.29654235121E+02  0.10566000000E+00 0. -1.
        994    1    1    2    0    0  0.64213223061E+01  0.59737449821E+02  0.15943595231E+02  0.18213575849E+03  0.17120000000E+03 0.  0.
        998    1    1    2    0    0 -0.91168426076E+01 -0.44660684452E+02  0.14586637286E+04  0.14594100064E+04  0.10000000000E+02 0. -1.
</event>
<event>
 5    1  0.1271464E-008  0.3840889E+03  0.7957747E-01  0.3433545E+00
         13   -1    0    0    0    0  0.00000000000E+00  0.00000000000E+00  0.14999999963E+04  0.15000000000E+04  0.10566000000E+00 0.  1.
        994   -1    0    0    0    0 -0.00000000000E+00 -0.00000000000E+00  0.11368683772E-12  0.17120000000E+03  0.17120000000E+03 0.  0.
         13    1    1    2    0    0 -0.87329270963E+01  0.88558464261E+01  0.36897782760E+02  0.38937739640E+02  0.10566000000E+00 0.  1.
        994    1    1    2    0    0  0.92964450629E+01 -0.23878374396E+00  0.23684514845E+01  0.17146874488E+03  0.17120000000E+03 0.  0.
        998    1    1    2    0    0 -0.56351796661E+00 -0.86170626821E+01  0.14607337620E+04  0.14607935155E+04  0.10000000000E+02 0.  1.
</event>
<event>
 5    1  0.1291718E-008  0.3846872E+03  0.7957747E-01  0.3431000E+00
         13   -1    0    0    0    0  0.00000000000E+00  0.00000000000E+00  0.14999999963E+04  0.15000000000E+04  0.10566000000E+00 0.  1.
        994   -1    0    0    0    0 -0.00000000000E+00 -0.00000000000E+00  0.11368683772E-12  0.17120000000E+03  0.17120000000E+03 0.  0.
         13    1    1    2    0    0  0.96387726113E+01  0.12816819556E+02  0.75731787563E+02  0.77411185319E+02  0.10566000000E+00 0.  1.
        994    1    1    2    0    0  0.11252598357E+01 -0.40651651724E+01  0.18440747105E+01  0.17126188248E+03  0.17120000000E+03 0.  0.
        998    1    1    2    0    0 -0.10764032447E+02 -0.87516543837E+01  0.14224241340E+04  0.14225269322E+04  0.10000000000E+02 0.  1.
</event>
<event>
 5    1  0.1271464E-008  0.3835980E+03  0.7957747E-01  0.3435640E+00
         13   -1    0    0    0    0  0.00000000000E+00  0.00000000000E+00  0.14999999963E+04  0.15000000000E+04  0.10566000000E+00 0. -1.
        994   -1    0    0    0    0 -0.00000000000E+00 -0.00000000000E+00  0.11368683772E-12  0.17120000000E+03  0.17120000000E+03 0.  0.
         13    1    1    2    0    0  0.71475145113E+01  0.13783542289E+02  0.52407716333E+02  0.54659426424E+02  0.10566000000E+00 0. -1.
        994    1    1    2    0    0 -0.77279845011E+01 -0.20978913770E+01  0.25396585010E+01  0.17140598810E+03  0.17120000000E+03 0.  0.
        998    1    1    2    0    0  0.58046998979E+00 -0.11685650912E+02  0.14450526214E+04  0.14451345855E+04  0.10000000000E+02 0. -1.
</event>
<event>
 5    1  0.1271464E-008  0.3870122E+03  0.7957747E-01  0.3421183E+00
         13   -1    0    0    0    0  0.00000000000E+00  0.00000000000E+00  0.14999999963E+04  0.15000000000E+04  0.10566000000E+00 0.  1.
        994   -1    0    0    0    0 -0.00000000000E+00 -0.00000000000E+00  0.11368683772E-12  0.17120000000E+03  0.17120000000E+03 0.  0.
         13    1    1    2    0    0 -0.28924290418E+02 -0.12566730561E+02  0.16224754608E+02  0.35465350968E+02  0.10566000000E+00 0.  1.
        994    1    1    2    0    0  0.24860639739E+02  0.63440596911E+01  0.22685759718E+02  0.17459204505E+03  0.17120000000E+03 0.  0.
        998    1    1    2    0    0  0.40636506791E+01  0.62226708699E+01  0.14610894820E+04  0.14611426040E+04  0.10000000000E+02 0.  1.
</event>
<event>
 5    1  0.1271464E-008  0.3848745E+03  0.7957747E-01  0.3430205E+00
         13   -1    0    0    0    0  0.00000000000E+00  0.00000000000E+00  0.14999999963E+04  0.15000000000E+04  0.10566000000E+00 0.  1.
        994   -1    0    0    0    0 -0.00000000000E+00 -0.00000000000E+00  0.11368683772E-12  0.17120000000E+03  0.17120000000E+03 0.  0.
         13    1    1    2    0    0  0.87683610888E+00 -0.16866511666E+02  0.84631687336E+02  0.86300531416E+02  0.10566000000E+00 0.  1.
        994    1    1    2    0    0  0.33103270143E+01  0.10481464858E+02  0.20900731259E+01  0.17156522893E+03  0.17120000000E+03 0.  0.
        998    1    1    2    0    0 -0.41871631232E+01  0.63850468075E+01  0.14132782358E+04  0.14133342397E+04  0.10000000000E+02 0.  1.
</event>
<event>
 5    1  0.1271464E-008  0.3851582E+03  0.7957747E-01  0.3429001E+00
         13   -1    0    0    0    0  0.00000000000E+00  0.00000000000E+00  0.14999999963E+04  0.15000000000E+04  0.10566000000E+00 0. -1.
        994   -1    0    0    0    0 -0.00000000000E+00 -0.00000000000E+00  0.11368683772E-12  0.17120000000E+03  0.17120000000E+03 0.  0.
         13    1    1    2    0    0  0.72581729792E+01 -0.12287676367E+02  0.66057472791E+02  0.67581572496E+02  0.10566000000E+00 0. -1.
        994    1    1    2    0    0 -0.25393524967E+02 -0.40733221097E+01  0.37286949922E+01  0.17316109907E+03  0.17120000000E+03 0.  0.
        998    1    1    2    0    0  0.18135351987E+02  0.16360998477E+02  0.14302138285E+04  0.14304573284E+04  0.10000000000E+02 0. -1.
</event>
<event>
 5    1  0.1271464E-008  0.3786809E+03  0.7957747E-01  0.3456922E+00
         13   -1    0    0    0    0  0.00000000000E+00  0.00000000000E+00  0.14999999963E+04  0.15000000000E+04  0.10566000000E+00 0.  1.
        994   -1    0    0    0    0 -0.00000000000E+00 -0.00000000000E+00  0.11368683772E-12  0.17120000000E+03  0.17120000000E+03 0.  0.
         13    1    1    2    0    0 -0.11802202341E+02 -0.14022995663E+02  0.33152516405E+02  0.37881880834E+02  0.10566000000E+00 0.  1.
        994    1    1    2    0    0  0.88599412392E+01  0.76555132200E+01  0.52609862798E+01  0.17168058544E+03  0.17120000000E+03 0.  0.
        998    1    1    2    0    0  0.29422611016E+01  0.63674824435E+01  0.14615864936E+04  0.14616375337E+04  0.10000000000E+02 0.  1.
</event>
<event>
 5    1  0.1271464E-008  0.3868652E+03  0.7957747E-01  0.3421800E+00
         13   -1    0    0    0    0  0.00000000000E+00  0.00000000000E+00  0.14999999963E+04  0.15000000000E+04  0.10566000000E+00 0.  1.
        994   -1    0    0    0    0 -0.00000000000E+00 -0.00000000000E+00  0.11368683772E-12  0.17120000000E+03  0.17120000000E+03 0.  0.
         13    1    1    2    0    0  0.21182895479E+02 -0.94908395723E+02  0.26784491941E+03  0.28495127769E+03  0.10566000000E+00 0.  1.
        994    1    1    2    0    0  0.73763529613E+02  0.46682779841E+02  0.49068340810E+02  0.19833679009E+03  0.17120000000E+03 0.  0.
        998    1    1    2    0    0 -0.94946425091E+02  0.48225615882E+02  0.11830867361E+04  0.11879119322E+04  0.10000000000E+02 0.  1.
</event>
<event>
 5    1  0.1271464E-008  0.3800754E+03  0.7957747E-01  0.3450830E+00
         13   -1    0    0    0    0  0.00000000000E+00  0.00000000000E+00  0.14999999963E+04  0.15000000000E+04  0.10566000000E+00 0. -1.
        994   -1    0    0    0    0 -0.00000000000E+00 -0.00000000000E+00  0.11368683772E-12  0.17120000000E+03  0.17120000000E+03 0.  0.
         13    1    1    2    0    0 -0.10968258419E+02  0.32855921983E+02  0.18131178275E+03  0.18459086659E+03  0.10566000000E+00 0. -1.
        994    1    1    2    0    0  0.20378836660E+01  0.11386089944E+02  0.45423723870E+01  0.17165042721E+03  0.17120000000E+03 0.  0.
        998    1    1    2    0    0  0.89303747532E+01 -0.44242011927E+02  0.13141458411E+04  0.13149587062E+04  0.10000000000E+02 0. -1.
</event>
<event>
 5    1  0.1271464E-008  0.2682180E+03  0.7957747E-01  0.4152773E+00
         13   -1    0    0    0    0  0.00000000000E+00  0.00000000000E+00  0.14999999963E+04  0.15000000000E+04  0.10566000000E+00 0.  1.
        994   -1    0    0    0    0 -0.00000000000E+00 -0.00000000000E+00  0.11368683772E-12  0.17120000000E+03  0.17120000000E+03 0.  0.
         13    1    1    2    0    0  0.10875792071E+03  0.15655894276E+03  0.42065651671E+03  0.46183428207E+03  0.10566000000E+00 0.  1.
        994    1    1    2    0    0 -0.98164530071E+02 -0.13457370445E+03  0.15522162905E+03  0.28486760261E+03  0.17120000000E+03 0.  0.
        998    1    1    2    0    0 -0.10593390639E+02 -0.21985238317E+02  0.92412185052E+03  0.92449811532E+03  0.10000000000E+02 0.  1.
</event>
<event>
 5    1  0.1271464E-008  0.3747906E+03  0.7957747E-01  0.3474160E+00
         13   -1    0    0    0    0  0.00000000000E+00  0.00000000000E+00  0.14999999963E+04  0.15000000000E+04  0.10566000000E+00 0.  1.
        994   -1    0    0    0    0 -0.00000000000E+00 -0.00000000000E+00  0.11368683772E-12  0.17120000000E+03  0.17120000000E+03 0.  0.
         13    1    1    2    0    0  0.14877676320E+02  0.92038432453E+02  0.45372856412E+03  0.46320841893E+03  0.10566000000E+00 0.  1.
        994    1    1    2    0    0  0.74291229058E+01 -0.10035850358E+02  0.14049220070E+02  0.17222871637E+03  0.17120000000E+03 0.  0.
        998    1    1    2    0    0 -0.22306799225E+02 -0.82002582094E+02  0.10322222121E+04  0.10357628647E+04  0.10000000000E+02 0.  1.
</event>
<event>
 5    1  0.1271464E-008  0.3864184E+03  0.7957747E-01  0.3423679E+00
         13   -1    0    0    0    0  0.00000000000E+00  0.00000000000E+00  0.14999999963E+04  0.15000000000E+04  0.10566000000E+00 0. -1.
        994   -1    0    0    0    0 -0.00000000000E+00 -0.00000000000E+00  0.11368683772E-12  0.17120000000E+03  0.17120000000E+03 0.  0.
         13    1    1    2    0    0  0.17545014026E+01  0.10689425749E+02  0.60443083214E+02  0.61406185115E+02  0.10566000000E+00 0. -1.
        994    1    1    2    0    0 -0.81655750072E+01 -0.14393485388E+02  0.18245499251E+01  0.17200761035E+03  0.17120000000E+03 0.  0.
        998    1    1    2    0    0  0.64110736046E+01  0.37040596395E+01  0.14377323631E+04  0.14377862045E+04  0.10000000000E+02 0. -1.
</event>
<event>
 5    1  0.1271464E-008  0.3795410E+03  0.7957747E-01  0.3453160E+00
         13   -1    0    0    0    0  0.00000000000E+00  0.00000000000E+00  0.14999999963E+04  0.15000000000E+04  0.10566000000E+00 0.  1.
        994   -1    0    0    0    0 -0.00000000000E+00 -0.00000000000E+00  0.11368683772E-12  0.17120000000E+03  0.17120000000E+03 0.  0.
         13    1    1    2    0    0 -0.26512214659E+02 -0.44207835557E+02  0.30050090333E+03  0.30489020043E+03  0.10566000000E+00 0.  1.
        994    1    1    2    0    0  0.17540053133E+02  0.24694052479E+02  0.74427557680E+01  0.17401805741E+03  0.17120000000E+03 0.  0.
        998    1    1    2    0    0  0.89721615265E+01  0.19513783078E+02  0.11920563372E+04  0.11922917422E+04  0.10000000000E+02 0.  1.
</event>
<event>
 5    1  0.1271464E-008  0.3802843E+03  0.7957747E-01  0.3449921E+00
         13   -1    0    0    0    0  0.00000000000E+00  0.00000000000E+00  0.14999999963E+04  0.15000000000E+04  0.10566000000E+00 0. -1.
        994   -1    0    0    0    0 -0.00000000000E+00 -0.00000000000E+00  0.11368683772E-12  0.17120000000E+03  0.17120000000E+03 0.  0.
         13    1    1    2    0    0 -0.27252231434E+02  0.32352528050E+01  0.99668471237E+02  0.10337778437E+03  0.10566000000E+00 0. -1.
        994    1    1    2    0    0  0.40572720538E+01  0.30961679969E+01  0.40766803203E+01  0.17132456635E+03  0.17120000000E+03 0.  0.
        998    1    1    2    0    0  0.23194959380E+02 -0.63314208020E+01  0.13962548447E+04  0.13964976493E+04  0.10000000000E+02 0. -1.
</event>
<event>
 5    1  0.1271464E-008  0.3810302E+03  0.7957747E-01  0.3446685E+00
         13   -1    0    0    0    0  0.00000000000E+00  0.00000000000E+00  0.14999999963E+04  0.15000000000E+04  0.10566000000E+00 0. -1.
        994   -1    0    0    0    0 -0.00000000000E+00 -0.00000000000E+00  0.11368683772E-12  0.17120000000E+03  0.17120000000E+03 0.  0.
         13    1    1    2    0    0 -0.11141246505E+02 -0.25204123861E+02  0.97415753640E+02  0.10123840899E+03  0.10566000000E+00 0. -1.
        994    1    1    2    0    0  0.10469729788E+02  0.26836599552E+02  0.63835193476E+01  0.17372394089E+03  0.17120000000E+03 0.  0.
        998    1    1    2    0    0  0.67151671689E+00 -0.16324756912E+01  0.13962007233E+04  0.13962376501E+04  0.10000000000E+02 0. -1.
</event>
<event>
 5    1  0.1271464E-008  0.3825441E+03  0.7957747E-01  0.3440155E+00
         13   -1    0    0    0    0  0.00000000000E+00  0.00000000000E+00  0.14999999963E+04  0.15000000000E+04  0.10566000000E+00 0.  1.
        994   -1    0    0    0    0 -0.00000000000E+00 -0.00000000000E+00  0.11368683772E-12  0.17120000000E+03  0.17120000000E+03 0.  0.
         13    1    1    2    0    0 -0.11942511955E+02 -0.13756801945E+00  0.24571197682E+02  0.27320275187E+02  0.10566000000E+00 0.  1.
        994    1    1    2    0    0  0.24219506998E-01  0.74376419897E+01  0.30377721653E+01  0.17138841024E+03  0.17120000000E+03 0.  0.
        998    1    1    2    0    0  0.11918292448E+02 -0.73000739702E+01  0.14723910264E+04  0.14724913146E+04  0.10000000000E+02 0.  1.
</event>
<event>
 5    1  0.1271464E-008  0.3784940E+03  0.7957747E-01  0.3457742E+00
         13   -1    0    0    0    0  0.00000000000E+00  0.00000000000E+00  0.14999999963E+04  0.15000000000E+04  0.10566000000E+00 0.  1.
        994   -1    0    0    0    0 -0.00000000000E+00 -0.00000000000E+00  0.11368683772E-12  0.17120000000E+03  0.17120000000E+03 0.  0.
         13    1    1    2    0    0 -0.45875803986E+02 -0.47831904797E+01  0.25085069774E+03  0.25505597822E+03  0.10566000000E+00 0.  1.
        994    1    1    2    0    0  0.10603100060E+02 -0.21394971801E+02  0.68132175824E+01  0.17299141737E+03  0.17120000000E+03 0.  0.
        998    1    1    2    0    0  0.35272703926E+02  0.26178162280E+02  0.12423360810E+04  0.12431526044E+04  0.10000000000E+02 0.  1.
</event>
<event>
 5    1  0.1271464E-008  0.3723570E+03  0.7957747E-01  0.3485128E+00
         13   -1    0    0    0    0  0.00000000000E+00  0.00000000000E+00  0.14999999963E+04  0.15000000000E+04  0.10566000000E+00 0. -1.
        994   -1    0    0    0    0 -0.00000000000E+00 -0.00000000000E+00  0.11368683772E-12  0.17120000000E+03  0.17120000000E+03 0.  0.
         13    1    1    2    0    0  0.36481686005E+02  0.63084621648E+02  0.43414572556E+03  0.44021938291E+03  0.10566000000E+00 0. -1.
        994    1    1    2    0    0 -0.11192307310E+02 -0.69085736157E+01  0.86358250069E+01  0.17192153328E+03  0.17120000000E+03 0.  0.
        998    1    1    2    0    0 -0.25289378695E+02 -0.56176048033E+02  0.10572184457E+04  0.10590590838E+04  0.10000000000E+02 0. -1.
</event>
<event>
 5    1  0.1271464E-008  0.3788213E+03  0.7957747E-01  0.3456307E+00
         13   -1    0    0    0    0  0.00000000000E+00  0.00000000000E+00  0.14999999963E+04  0.15000000000E+04  0.10566000000E+00 0.  1.
        994   -1    0    0    0    0 -0.00000000000E+00 -0.00000000000E+00  0.11368683772E-12  0.17120000000E+03  0.17120000000E+03 0.  0.
         13    1    1    2    0    0 -0.44929604054E+02 -0.30120627179E+02  0.29905206152E+03  0.30390470244E+03  0.10566000000E+00 0.  1.
        994    1    1    2    0    0  0.33694635473E+02  0.11158562999E+02  0.89689574200E+01  0.17507062628E+03  0.17120000000E+03 0.  0.
        998    1    1    2    0    0  0.11234968581E+02  0.18962064180E+02  0.11919789773E+04  0.11922246713E+04  0.10000000000E+02 0.  1.
</event>
<event>
 5    1  0.1271464E-008  0.3737886E+03  0.7957747E-01  0.3478659E+00
         13   -1    0    0    0    0  0.00000000000E+00  0.00000000000E+00  0.14999999963E+04  0.15000000000E+04  0.10566000000E+00 0. -1.
        994   -1    0    0    0    0 -0.00000000000E+00 -0.00000000000E+00  0.11368683772E-12  0.17120000000E+03  0.17120000000E+03 0.  0.
         13    1    1    2    0    0  0.48208250116E+02 -0.95212874335E+02  0.34352044302E+03  0.35971632261E+03  0.10566000000E+00 0. -1.
        994    1    1    2    0    0 -0.53358474171E+02  0.86130318389E+02  0.50280914748E+02  0.20519056728E+03  0.17120000000E+03 0.  0.
        998    1    1    2    0    0  0.51502240548E+01  0.90825559463E+01  0.11061986385E+04  0.11062931101E+04  0.10000000000E+02 0. -1.
</event>
<event>
 5    1  0.1271464E-008  0.3830204E+03  0.7957747E-01  0.3438111E+00
         13   -1    0    0    0    0  0.00000000000E+00  0.00000000000E+00  0.14999999963E+04  0.15000000000E+04  0.10566000000E+00 0.  1.
        994   -1    0    0    0    0 -0.00000000000E+00 -0.00000000000E+00  0.11368683772E-12  0.17120000000E+03  0.17120000000E+03 0.  0.
         13    1    1    2    0    0 -0.27179051969E+02  0.29119578027E+02  0.21829210516E+03  0.22189660888E+03  0.10566000000E+00 0.  1.
        994    1    1    2    0    0  0.26164337096E+02 -0.57587656910E+02  0.15973398876E+02  0.18320889781E+03  0.17120000000E+03 0.  0.
        998    1    1    2    0    0  0.10147148726E+01  0.28468078883E+02  0.12657344922E+04  0.12660944933E+04  0.10000000000E+02 0.  1.
</event>
<event>
 5    1  0.1271464E-008  0.3692326E+03  0.7957747E-01  0.3499425E+00
         13   -1    0    0    0    0  0.00000000000E+00  0.00000000000E+00  0.14999999963E+04  0.15000000000E+04  0.10566000000E+00 0. -1.
        994   -1    0    0    0    0 -0.00000000000E+00 -0.00000000000E+00  0.11368683772E-12  0.17120000000E+03  0.17120000000E+03 0.  0.
         13    1    1    2    0    0  0.51228789293E+01 -0.18199902614E+02  0.14583803125E+02  0.23878417479E+02  0.10566000000E+00 0. -1.
        994    1    1    2    0    0 -0.22982240081E+01  0.35264378199E+01  0.97321993225E+01  0.17152805398E+03  0.17120000000E+03 0.  0.
        998    1    1    2    0    0 -0.28246549213E+01  0.14673464794E+02  0.14756839938E+04  0.14757935285E+04  0.10000000000E+02 0. -1.
</event>
<event>
 5    1  0.1271464E-008  0.3685384E+03  0.7957747E-01  0.3502635E+00
         13   -1    0    0    0    0  0.00000000000E+00  0.00000000000E+00  0.14999999963E+04  0.15000000000E+04  0.10566000000E+00 0.  1.
        994   -1    0    0    0    0 -0.00000000000E+00 -0.00000000000E+00  0.11368683772E-12  0.17120000000E+03  0.17120000000E+03 0.  0.
         13    1    1    2    0    0 -0.16524226036E+02  0.95505954813E+01  0.14157004665E+02  0.23763330265E+02  0.10566000000E+00 0.  1.
        994    1    1    2    0    0 -0.13305787997E+02 -0.65725777354E+01  0.10934404049E+02  0.17218955823E+03  0.17120000000E+03 0.  0.
        998    1    1    2    0    0  0.29830014033E+02 -0.29780177460E+01  0.14749085876E+04  0.14752471115E+04  0.10000000000E+02 0.  1.
</event>
<event>
 5    1  0.1271464E-008  0.3845723E+03  0.7957747E-01  0.3431488E+00
         13   -1    0    0    0    0  0.00000000000E+00  0.00000000000E+00  0.14999999963E+04  0.15000000000E+04  0.10566000000E+00 0.  1.
        994   -1    0    0    0    0 -0.00000000000E+00 -0.00000000000E+00  0.11368683772E-12  0.17120000000E+03  0.17120000000E+03 0.  0.
         13    1    1    2    0    0 -0.88068786168E+00 -0.11963505005E+02  0.38149131593E+02  0.39990854810E+02  0.10566000000E+00 0.  1.
        994    1    1    2    0    0  0.56654658075E+01  0.10967924116E+02  0.23446686505E+01  0.17166050895E+03  0.17120000000E+03 0.  0.
        998    1    1    2    0    0 -0.47847779458E+01  0.99558088962E+00  0.14595061960E+04  0.14595486362E+04  0.10000000000E+02 0.  1.
</event>
<event>
 5    1  0.1271464E-008  0.3848965E+03  0.7957747E-01  0.3430111E+00
         13   -1    0    0    0    0  0.00000000000E+00  0.00000000000E+00  0.14999999963E+04  0.15000000000E+04  0.10566000000E+00 0. -1.
        994   -1    0    0    0    0 -0.00000000000E+00 -0.00000000000E+00  0.11368683772E-12  0.17120000000E+03  0.17120000000E+03 0.  0.
         13    1    1    2    0    0  0.13810388338E+02  0.61046610011E+01  0.64986548289E+02  0.66717736281E+02  0.10566000000E+00 0. -1.
        994    1    1    2    0    0 -0.21650102034E+02  0.70946807866E+01  0.33910023417E+01  0.17274258395E+03  0.17120000000E+03 0.  0.
        998    1    1    2    0    0  0.78397136965E+01 -0.13199341788E+02  0.14316224456E+04  0.14317396798E+04  0.10000000000E+02 0. -1.
</event>
<event>
 5    1  0.1271464E-008  0.3844253E+03  0.7957747E-01  0.3432113E+00
         13   -1    0    0    0    0  0.00000000000E+00  0.00000000000E+00  0.14999999963E+04  0.15000000000E+04  0.10566000000E+00 0.  1.
        994   -1    0    0    0    0 -0.00000000000E+00 -0.00000000000E+00  0.11368683772E-12  0.17120000000E+03  0.17120000000E+03 0.  0.
         13    1    1    2    0    0 -0.11868101467E+02 -0.13980520467E+02  0.91999510404E+02  0.93809529706E+02  0.10566000000E+00 0.  1.
        994    1    1    2    0    0  0.50017483528E+01  0.18551537129E+01  0.20095089834E+01  0.17129488378E+03  0.17120000000E+03 0.  0.
        998    1    1    2    0    0  0.68663531140E+01  0.12125366754E+02  0.14059909769E+04  0.14060955865E+04  0.10000000000E+02 0.  1.
</event>
<event>
 5    1  0.1271464E-008  0.3809088E+03  0.7957747E-01  0.3447211E+00
         13   -1    0    0    0    0  0.00000000000E+00  0.00000000000E+00  0.14999999963E+04  0.15000000000E+04  0.10566000000E+00 0. -1.
        994   -1    0    0    0    0 -0.00000000000E+00 -0.00000000000E+00  0.11368683772E-12  0.17120000000E+03  0.17120000000E+03 0.  0.
         13    1    1    2    0    0 -0.21794224799E+02  0.93729282064E+01  0.72180621009E+02  0.75979557981E+02  0.10566000000E+00 0. -1.
        994    1    1    2    0    0  0.21465211290E+02 -0.11085881835E+02  0.56227525556E+01  0.17298759325E+03  0.17120000000E+03 0.  0.
        998    1    1    2    0    0  0.32901350931E+00  0.17129536281E+01  0.14221966227E+04  0.14222328488E+04  0.10000000000E+02 0.  0.
</event>
<event>
 5    1  0.1271464E-008  0.3785547E+03  0.7957747E-01  0.3457476E+00
         13   -1    0    0    0    0  0.00000000000E+00  0.00000000000E+00  0.14999999963E+04  0.15000000000E+04  0.10566000000E+00 0.  1.
        994   -1    0    0    0    0 -0.00000000000E+00 -0.00000000000E+00  0.11368683772E-12  0.17120000000E+03  0.17120000000E+03 0.  0.
         13    1    1    2    0    0  0.21160292252E+02 -0.84115403094E+01  0.52220741917E+02  0.56969544749E+02  0.10566000000E+00 0.  1.
        994    1    1    2    0    0 -0.52635366671E+01  0.15644593542E+02  0.57802213228E+01  0.17209099071E+03  0.17120000000E+03 0.  0.
        998    1    1    2    0    0 -0.15896755585E+02 -0.72330532329E+01  0.14419990330E+04  0.14421394645E+04  0.10000000000E+02 0.  1.
</event>
<event>
 5    1  0.1271464E-008  0.3842151E+03  0.7957747E-01  0.3433008E+00
         13   -1    0    0    0    0  0.00000000000E+00  0.00000000000E+00  0.14999999963E+04  0.15000000000E+04  0.10566000000E+00 0. -1.
        994   -1    0    0    0    0 -0.00000000000E+00 -0.00000000000E+00  0.11368683772E-12  0.17120000000E+03  0.17120000000E+03 0.  0.
         13    1    1    2    0    0 -0.67079579985E+01 -0.86841042133E+01  0.29965141327E+02  0.31911302470E+02  0.10566000000E+00 0. -1.
        994    1    1    2    0    0 -0.36398630882E+01  0.49950474289E+01  0.21462979442E+01  0.17132497103E+03  0.17120000000E+03 0.  0.
        998    1    1    2    0    0  0.10347821087E+02  0.36890567844E+01  0.14678885570E+04  0.14679637265E+04  0.10000000000E+02 0. -1.
</event>
<event>
 5    1  0.1271464E-008  0.3837364E+03  0.7957747E-01  0.3435049E+00
         13   -1    0    0    0    0  0.00000000000E+00  0.00000000000E+00  0.14999999963E+04  0.15000000000E+04  0.10566000000E+00 0. -1.
        994   -1    0    0    0    0 -0.00000000000E+00 -0.00000000000E+00  0.11368683772E-12  0.17120000000E+03  0.17120000000E+03 0.  0.
         13    1    1    2    0    0 -0.32164829058E+01 -0.18244972934E+02  0.79314951818E+02  0.81449969586E+02  0.10566000000E+00 0. -1.
        994    1    1    2    0    0  0.76029186695E+01  0.24125859391E+01  0.24689222918E+01  0.17140350207E+03  0.17120000000E+03 0.  0.
        998    1    1    2    0    0 -0.43864357637E+01  0.15832386995E+02  0.14182161222E+04  0.14183465283E+04  0.10000000000E+02 0. -1.
</event>
<event>
 5    1  0.1271464E-008  0.3735701E+03  0.7957747E-01  0.3479642E+00
         13   -1    0    0    0    0  0.00000000000E+00  0.00000000000E+00  0.14999999963E+04  0.15000000000E+04  0.10566000000E+00 0.  1.
        994   -1    0    0    0    0 -0.00000000000E+00 -0.00000000000E+00  0.11368683772E-12  0.17120000000E+03  0.17120000000E+03 0.  0.
         13    1    1    2    0    0 -0.53354581667E+02 -0.41201790247E+02  0.30034183977E+03  0.30781411726E+03  0.10566000000E+00 0.  1.
        994    1    1    2    0    0  0.28160483323E+02  0.29533144084E+02  0.13124054410E+02  0.17648484418E+03  0.17120000000E+03 0.  0.
        998    1    1    2    0    0  0.25194098344E+02  0.11668646163E+02  0.11865341021E+04  0.11869010386E+04  0.10000000000E+02 0.  1.
</event>
<event>
 5    1  0.1271464E-008  0.3830973E+03  0.7957747E-01  0.3437782E+00
         13   -1    0    0    0    0  0.00000000000E+00  0.00000000000E+00  0.14999999963E+04  0.15000000000E+04  0.10566000000E+00 0. -1.
        994   -1    0    0    0    0 -0.00000000000E+00 -0.00000000000E+00  0.11368683772E-12  0.17120000000E+03  0.17120000000E+03 0.  0.
         13    1    1    2    0    0 -0.13546937983E+02 -0.27375762997E+00  0.33923739645E+02  0.36529792601E+02  0.10566000000E+00 0. -1.
        994    1    1    2    0    0  0.15587828995E+02  0.54912252790E+01  0.34820624942E+01  0.17203109814E+03  0.17120000000E+03 0.  0.
        998    1    1    2    0    0 -0.20408910126E+01 -0.52174676490E+01  0.14625941941E+04  0.14626391093E+04  0.10000000000E+02 0. -1.
</event>
<event>
 5    1  0.1271464E-008  0.3746755E+03  0.7957747E-01  0.3474675E+00
         13   -1    0    0    0    0  0.00000000000E+00  0.00000000000E+00  0.14999999963E+04  0.15000000000E+04  0.10566000000E+00 0.  1.
        994   -1    0    0    0    0 -0.00000000000E+00 -0.00000000000E+00  0.11368683772E-12  0.17120000000E+03  0.17120000000E+03 0.  0.
         13    1    1    2    0    0 -0.91651977621E+02 -0.34041458093E+02  0.29456776100E+03  0.31036926854E+03  0.10566000000E+00 0.  1.
        994    1    1    2    0    0  0.11387314578E+03 -0.38436206641E+02  0.66724694720E+02  0.21955878528E+03  0.17120000000E+03 0.  0.
        998    1    1    2    0    0 -0.22221168155E+02  0.72477664733E+02  0.11387075406E+04  0.11412719462E+04  0.10000000000E+02 0.  1.
</event>
<event>
 5    1  0.1271464E-008  0.3815407E+03  0.7957747E-01  0.3444477E+00
         13   -1    0    0    0    0  0.00000000000E+00  0.00000000000E+00  0.14999999963E+04  0.15000000000E+04  0.10566000000E+00 0.  1.
        994   -1    0    0    0    0 -0.00000000000E+00 -0.00000000000E+00  0.11368683772E-12  0.17120000000E+03  0.17120000000E+03 0.  0.
         13    1    1    2    0    0  0.26273622551E+02 -0.12618132927E+02  0.13685921104E+03  0.13992846505E+03  0.10566000000E+00 0.  1.
        994    1    1    2    0    0  0.12675649441E+01  0.13282363498E+02  0.39497680757E+01  0.17176457309E+03  0.17120000000E+03 0.  0.
        998    1    1    2    0    0 -0.27541187495E+02 -0.66423057083E+00  0.13591910172E+04  0.13595069619E+04  0.10000000000E+02 0.  1.
</event>
<event>
 5    1  0.1271464E-008  0.3854826E+03  0.7957747E-01  0.3427628E+00
         13   -1    0    0    0    0  0.00000000000E+00  0.00000000000E+00  0.14999999963E+04  0.15000000000E+04  0.10566000000E+00 0.  1.
        994   -1    0    0    0    0 -0.00000000000E+00 -0.00000000000E+00  0.11368683772E-12  0.17120000000E+03  0.17120000000E+03 0.  0.
         13    1    1    2    0    0 -0.27141954254E+03 -0.14537336754E+03  0.10107595820E+04  0.10566157901E+04  0.10566000000E+00 0.  1.
        994    1    1    2    0    0  0.27449157139E+03  0.15084594016E+03  0.45460850784E+03  0.57799520398E+03  0.17120000000E+03 0.  0.
        998    1    1    2    0    0 -0.30720288446E+01 -0.54725726225E+01  0.34631906439E+02  0.36589005943E+02  0.10000000000E+02 0. -1.
</event>
<event>
 5    1  0.1271464E-008  0.3851266E+03  0.7957747E-01  0.3429135E+00
         13   -1    0    0    0    0  0.00000000000E+00  0.00000000000E+00  0.14999999963E+04  0.15000000000E+04  0.10566000000E+00 0. -1.
        994   -1    0    0    0    0 -0.00000000000E+00 -0.00000000000E+00  0.11368683772E-12  0.17120000000E+03  0.17120000000E+03 0.  0.
         13    1    1    2    0    0 -0.78792859616E+01 -0.15060184741E+02  0.87650188184E+02  0.89283027304E+02  0.10566000000E+00 0. -1.
        994    1    1    2    0    0  0.63793157489E+01  0.16921476318E+02  0.26430861196E+01  0.17217275607E+03  0.17120000000E+03 0.  0.
        998    1    1    2    0    0  0.14999702126E+01 -0.18612915765E+01  0.14097067220E+04  0.14097442166E+04  0.10000000000E+02 0. -1.
</event>
<event>
 5    1  0.1271464E-008  0.3837021E+03  0.7957747E-01  0.3435196E+00
         13   -1    0    0    0    0  0.00000000000E+00  0.00000000000E+00  0.14999999963E+04  0.15000000000E+04  0.10566000000E+00 0. -1.
        994   -1    0    0    0    0 -0.00000000000E+00 -0.00000000000E+00  0.11368683772E-12  0.17120000000E+03  0.17120000000E+03 0.  0.
         13    1    1    2    0    0  0.22453881033E+02  0.38942024614E+01  0.10196876291E+03  0.10448435940E+03  0.10566000000E+00 0. -1.
        994    1    1    2    0    0 -0.31208414610E+02  0.22928522129E+01  0.55165521129E+01  0.17412379120E+03  0.17120000000E+03 0.  0.
        998    1    1    2    0    0  0.87545335767E+01 -0.61870546743E+01  0.13925146813E+04  0.13925918494E+04  0.10000000000E+02 0. -1.
</event>
<event>
 5    1  0.1271464E-008  0.3775122E+03  0.7957747E-01  0.3462063E+00
         13   -1    0    0    0    0  0.00000000000E+00  0.00000000000E+00  0.14999999963E+04  0.15000000000E+04  0.10566000000E+00 0.  1.
        994   -1    0    0    0    0 -0.00000000000E+00 -0.00000000000E+00  0.11368683772E-12  0.17120000000E+03  0.17120000000E+03 0.  0.
         13    1    1    2    0    0 -0.56577826116E+01 -0.21129994462E+02  0.44056384860E+02  0.49188041036E+02  0.10566000000E+00 0.  1.
        994    1    1    2    0    0  0.87348863324E+01 -0.84817042920E+00  0.56539105014E+01  0.17151800004E+03  0.17120000000E+03 0.  0.
        998    1    1    2    0    0 -0.30771037208E+01  0.21978164891E+02  0.14502897009E+04  0.14504939589E+04  0.10000000000E+02 0.  1.
</event>
<event>
 5    1  0.1271464E-008  0.3801976E+03  0.7957747E-01  0.3450299E+00
         13   -1    0    0    0    0  0.00000000000E+00  0.00000000000E+00  0.14999999963E+04  0.15000000000E+04  0.10566000000E+00 0. -1.
        994   -1    0    0    0    0 -0.00000000000E+00 -0.00000000000E+00  0.11368683772E-12  0.17120000000E+03  0.17120000000E+03 0.  0.
         13    1    1    2    0    0  0.19333054123E+02  0.12452886506E+02  0.62210572627E+02  0.66325016960E+02  0.10566000000E+00 0. -1.
        994    1    1    2    0    0 -0.19503560352E+02 -0.10111958672E+02  0.56474674496E+01  0.17269619122E+03  0.17120000000E+03 0.  0.
        998    1    1    2    0    0  0.17050622832E+00 -0.23409278337E+01  0.14321419562E+04  0.14321787918E+04  0.10000000000E+02 0. -1.
</event>
<event>
 5    1  0.1271464E-008  0.3765015E+03  0.7957747E-01  0.3466535E+00
         13   -1    0    0    0    0  0.00000000000E+00  0.00000000000E+00  0.14999999963E+04  0.15000000000E+04  0.10566000000E+00 0. -1.
        994   -1    0    0    0    0 -0.00000000000E+00 -0.00000000000E+00  0.11368683772E-12  0.17120000000E+03  0.17120000000E+03 0.  0.
         13    1    1    2    0    0  0.11736212345E+02 -0.23801479037E+02  0.61055056110E+02  0.66573118638E+02  0.10566000000E+00 0. -1.
        994    1    1    2    0    0  0.16475275638E+02  0.76362418324E+01  0.70257256659E+01  0.17230364975E+03  0.17120000000E+03 0.  0.
        998    1    1    2    0    0 -0.28211487983E+02  0.16165237204E+02  0.14319192145E+04  0.14323232316E+04  0.10000000000E+02 0. -1.
</event>
<event>
 5    1  0.1271464E-008  0.3848614E+03  0.7957747E-01  0.3430260E+00
         13   -1    0    0    0    0  0.00000000000E+00  0.00000000000E+00  0.14999999963E+04  0.15000000000E+04  0.10566000000E+00 0. -1.
        994   -1    0    0    0    0 -0.00000000000E+00 -0.00000000000E+00  0.11368683772E-12  0.17120000000E+03  0.17120000000E+03 0.  0.
         13    1    1    2    0    0 -0.16559909703E+02 -0.88955499279E+01  0.93480261119E+02  0.95351621910E+02  0.10566000000E+00 0. -1.
        994    1    1    2    0    0  0.15114944889E+02  0.29032838889E+02  0.52318773176E+01  0.17437941344E+03  0.17120000000E+03 0.  0.
        998    1    1    2    0    0  0.14449648140E+01 -0.20137288961E+02  0.14012878578E+04  0.14014689646E+04  0.10000000000E+02 0. -1.
</event>
<event>
 5    1  0.1271464E-008  0.3853570E+03  0.7957747E-01  0.3428159E+00
         13   -1    0    0    0    0  0.00000000000E+00  0.00000000000E+00  0.14999999963E+04  0.15000000000E+04  0.10566000000E+00 0.  1.
        994   -1    0    0    0    0 -0.00000000000E+00 -0.00000000000E+00  0.11368683772E-12  0.17120000000E+03  0.17120000000E+03 0.  0.
         13    1    1    2    0    0 -0.24059818997E+02  0.17756089364E+02  0.18075370688E+03  0.18321044543E+03  0.10566000000E+00 0.  1.
        994    1    1    2    0    0  0.38721574837E+02 -0.70048646516E+02  0.22786825969E+02  0.19035454466E+03  0.17120000000E+03 0.  0.
        998    1    1    2    0    0 -0.14661755839E+02  0.52292557153E+02  0.12964594634E+04  0.12976350099E+04  0.10000000000E+02 0.  1.
</event>
<event>
 5    1  0.1271464E-008  0.3783175E+03  0.7957747E-01  0.3458517E+00
         13   -1    0    0    0    0  0.00000000000E+00  0.00000000000E+00  0.14999999963E+04  0.15000000000E+04  0.10566000000E+00 0. -1.
        994   -1    0    0    0    0 -0.00000000000E+00 -0.00000000000E+00  0.11368683772E-12  0.17120000000E+03  0.17120000000E+03 0.  0.
         13    1    1    2    0    0  0.38105124982E+01 -0.22561078307E+02  0.49964680119E+02  0.54954551070E+02  0.10566000000E+00 0. -1.
        994    1    1    2    0    0  0.42826424957E+01  0.19547133714E+02  0.63321175288E+01  0.17248178795E+03  0.17120000000E+03 0.  0.
        998    1    1    2    0    0 -0.80931549939E+01  0.30139445933E+01  0.14437031986E+04  0.14437636610E+04  0.10000000000E+02 0. -1.
</event>
<event>
 5    1  0.1271464E-008  0.3853936E+03  0.7957747E-01  0.3428005E+00
         13   -1    0    0    0    0  0.00000000000E+00  0.00000000000E+00  0.14999999963E+04  0.15000000000E+04  0.10566000000E+00 0.  1.
        994   -1    0    0    0    0 -0.00000000000E+00 -0.00000000000E+00  0.11368683772E-12  0.17120000000E+03  0.17120000000E+03 0.  0.
         13    1    1    2    0    0 -0.14137349414E+01  0.20263859860E+02  0.11126420980E+03  0.11310330769E+03  0.10566000000E+00 0.  1.
        994    1    1    2    0    0  0.97167601807E+01 -0.43157043146E+02  0.78889483664E+01  0.17699893024E+03  0.17120000000E+03 0.  0.
        998    1    1    2    0    0 -0.83030252394E+01  0.22893183286E+02  0.13808468381E+04  0.13810977621E+04  0.10000000000E+02 0.  1.
</event>
<event>
 5    1  0.1271464E-008  0.3846287E+03  0.7957747E-01  0.3431249E+00
         13   -1    0    0    0    0  0.00000000000E+00  0.00000000000E+00  0.14999999963E+04  0.15000000000E+04  0.10566000000E+00 0.  1.
        994   -1    0    0    0    0 -0.00000000000E+00 -0.00000000000E+00  0.11368683772E-12  0.17120000000E+03  0.17120000000E+03 0.  0.
         13    1    1    2    0    0  0.10748365699E+02  0.53426918460E+01  0.40200418365E+02  0.41954219361E+02  0.10566000000E+00 0.  1.
        994    1    1    2    0    0 -0.93469641842E+00 -0.70667372496E+01  0.19819430305E+01  0.17135979847E+03  0.17120000000E+03 0.  0.
        998    1    1    2    0    0 -0.98136692809E+01  0.17240454036E+01  0.14578176349E+04  0.14578859822E+04  0.10000000000E+02 0.  1.
</event>
<event>
 5    1  0.1271464E-008  0.3733660E+03  0.7957747E-01  0.3480563E+00
         13   -1    0    0    0    0  0.00000000000E+00  0.00000000000E+00  0.14999999963E+04  0.15000000000E+04  0.10566000000E+00 0. -1.
        994   -1    0    0    0    0 -0.00000000000E+00 -0.00000000000E+00  0.11368683772E-12  0.17120000000E+03  0.17120000000E+03 0.  0.
         13    1    1    2    0    0  0.27144584504E+02 -0.32969391392E+02  0.10059079515E+03  0.10928096115E+03  0.10566000000E+00 0. -1.
        994    1    1    2    0    0 -0.23234429597E+02  0.67728131097E+02  0.25252325260E+02  0.18728069412E+03  0.17120000000E+03 0.  0.
        998    1    1    2    0    0 -0.39101549069E+01 -0.34758739705E+02  0.13741568759E+04  0.13746383447E+04  0.10000000000E+02 0. -1.
</event>
<event>
 5    1  0.1271464E-008  0.3741630E+03  0.7957747E-01  0.3476975E+00
         13   -1    0    0    0    0  0.00000000000E+00  0.00000000000E+00  0.14999999963E+04  0.15000000000E+04  0.10566000000E+00 0. -1.
        994   -1    0    0    0    0 -0.00000000000E+00 -0.00000000000E+00  0.11368683772E-12  0.17120000000E+03  0.17120000000E+03 0.  0.
         13    1    1    2    0    0  0.97958843968E+02 -0.74732042178E+02  0.70017926346E+03  0.71093728654E+03  0.10566000000E+00 0. -1.
        994    1    1    2    0    0 -0.78426563276E+02  0.72998921446E+02  0.47309970569E+02  0.20743008864E+03  0.17120000000E+03 0.  0.
        998    1    1    2    0    0 -0.19532280692E+02  0.17331207327E+01  0.75251076225E+03  0.75283262482E+03  0.10000000000E+02 0. -1.
</event>
<event>
 5    1  0.1271464E-008  0.3855777E+03  0.7957747E-01  0.3427226E+00
         13   -1    0    0    0    0  0.00000000000E+00  0.00000000000E+00  0.14999999963E+04  0.15000000000E+04  0.10566000000E+00 0.  1.
        994   -1    0    0    0    0 -0.00000000000E+00 -0.00000000000E+00  0.11368683772E-12  0.17120000000E+03  0.17120000000E+03 0.  0.
         13    1    1    2    0    0 -0.16301152925E+01 -0.15344241378E+02  0.90408914782E+02  0.91716334725E+02  0.10566000000E+00 0.  1.
        994    1    1    2    0    0 -0.17437848771E+00  0.83205405623E+01  0.15709637049E+01  0.17140936302E+03  0.17120000000E+03 0.  0.
        998    1    1    2    0    0  0.18044937802E+01  0.70237008158E+01  0.14080201178E+04  0.14080743023E+04  0.10000000000E+02 0.  1.
</event>
<event>
 5    1  0.1271464E-008  0.3867047E+03  0.7957747E-01  0.3422474E+00
         13   -1    0    0    0    0  0.00000000000E+00  0.00000000000E+00  0.14999999963E+04  0.15000000000E+04  0.10566000000E+00 0. -1.
        994   -1    0    0    0    0 -0.00000000000E+00 -0.00000000000E+00  0.11368683772E-12  0.17120000000E+03  0.17120000000E+03 0.  0.
         13    1    1    2    0    0  0.40487104761E+02 -0.21547950635E+02  0.42277562802E+02  0.62377265963E+02  0.10566000000E+00 0. -1.
        994    1    1    2    0    0 -0.54073895783E+02  0.22120366140E+02  0.32853043532E+02  0.18385336351E+03  0.17120000000E+03 0.  0.
        998    1    1    2    0    0  0.13586791021E+02 -0.57241550507E+00  0.14248693899E+04  0.14249693705E+04  0.10000000000E+02 0. -1.
</event>
<event>
 5    1  0.1271464E-008  0.3827555E+03  0.7957747E-01  0.3439247E+00
         13   -1    0    0    0    0  0.00000000000E+00  0.00000000000E+00  0.14999999963E+04  0.15000000000E+04  0.10566000000E+00 0. -1.
        994   -1    0    0    0    0 -0.00000000000E+00 -0.00000000000E+00  0.11368683772E-12  0.17120000000E+03  0.17120000000E+03 0.  0.
         13    1    1    2    0    0  0.76000109125E+01 -0.22859186761E+02  0.10226623022E+03  0.10506519687E+03  0.10566000000E+00 0. -1.
        994    1    1    2    0    0 -0.31332545886E+01  0.18672548615E+02  0.39370548469E+01  0.17228877432E+03  0.17120000000E+03 0.  0.
        998    1    1    2    0    0 -0.44667563239E+01  0.41866381457E+01  0.13937967112E+04  0.13938460288E+04  0.10000000000E+02 0. -1.
</event>
<event>
 5    1  0.1271464E-008  0.3845411E+03  0.7957747E-01  0.3431621E+00
         13   -1    0    0    0    0  0.00000000000E+00  0.00000000000E+00  0.14999999963E+04  0.15000000000E+04  0.10566000000E+00 0. -1.
        994   -1    0    0    0    0 -0.00000000000E+00 -0.00000000000E+00  0.11368683772E-12  0.17120000000E+03  0.17120000000E+03 0.  0.
         13    1    1    2    0    0  0.31610077520E+01 -0.13628749665E+02  0.51558716988E+02  0.53423283772E+02  0.10566000000E+00 0. -1.
        994    1    1    2    0    0 -0.12571869369E+01  0.12446414739E+02  0.23737284008E+01  0.17167285267E+03  0.17120000000E+03 0.  0.
        998    1    1    2    0    0 -0.19038208150E+01  0.11823349260E+01  0.14460675509E+04  0.14461038636E+04  0.10000000000E+02 0. -1.
</event>
<event>
 5    1  0.1271464E-008  0.3812037E+03  0.7957747E-01  0.3445934E+00
         13   -1    0    0    0    0  0.00000000000E+00  0.00000000000E+00  0.14999999963E+04  0.15000000000E+04  0.10566000000E+00 0. -1.
        994   -1    0    0    0    0 -0.00000000000E+00 -0.00000000000E+00  0.11368683772E-12  0.17120000000E+03  0.17120000000E+03 0.  0.
         13    1    1    2    0    0  0.19145303959E+02 -0.81140370999E+01  0.58467449598E+02  0.62055089141E+02  0.10566000000E+00 0. -1.
        994    1    1    2    0    0 -0.16830966865E+02  0.10775505454E+02  0.48577107864E+01  0.17243094362E+03  0.17120000000E+03 0.  0.
        998    1    1    2    0    0 -0.23143370945E+01 -0.26614683544E+01  0.14366748359E+04  0.14367139672E+04  0.10000000000E+02 0. -1.
</event>
<event>
 5    1  0.1271464E-008  0.3807827E+03  0.7957747E-01  0.3447758E+00
         13   -1    0    0    0    0  0.00000000000E+00  0.00000000000E+00  0.14999999963E+04  0.15000000000E+04  0.10566000000E+00 0.  1.
        994   -1    0    0    0    0 -0.00000000000E+00 -0.00000000000E+00  0.11368683772E-12  0.17120000000E+03  0.17120000000E+03 0.  0.
         13    1    1    2    0    0 -0.12488775448E+02 -0.44896636944E+01  0.22038098556E+02  0.25725775873E+02  0.10566000000E+00 0.  1.
        994    1    1    2    0    0  0.14685946068E+02 -0.13730883616E+02  0.50875023156E+01  0.17245154930E+03  0.17120000000E+03 0.  0.
        998    1    1    2    0    0 -0.21971706199E+01  0.18220547311E+02  0.14728743954E+04  0.14730226748E+04  0.10000000000E+02 0.  1.
</event>
<event>
 5    1  0.1271464E-008  0.3864661E+03  0.7957747E-01  0.3423478E+00
         13   -1    0    0    0    0  0.00000000000E+00  0.00000000000E+00  0.14999999963E+04  0.15000000000E+04  0.10566000000E+00 0.  1.
        994   -1    0    0    0    0 -0.00000000000E+00 -0.00000000000E+00  0.11368683772E-12  0.17120000000E+03  0.17120000000E+03 0.  0.
         13    1    1    2    0    0  0.10014116563E+02  0.24451862372E+01  0.56975214792E+02  0.57900325827E+02  0.10566000000E+00 0.  1.
        994    1    1    2    0    0 -0.11127281777E+02 -0.12306920881E+02  0.18055281160E+01  0.17201155959E+03  0.17120000000E+03 0.  0.
        998    1    1    2    0    0  0.11131652140E+01  0.98617346433E+01  0.14412192534E+04  0.14412881146E+04  0.10000000000E+02 0.  1.
</event>
<event>
 5    1  0.1271464E-008  0.3782823E+03  0.7957747E-01  0.3458672E+00
         13   -1    0    0    0    0  0.00000000000E+00  0.00000000000E+00  0.14999999963E+04  0.15000000000E+04  0.10566000000E+00 0.  1.
        994   -1    0    0    0    0 -0.00000000000E+00 -0.00000000000E+00  0.11368683772E-12  0.17120000000E+03  0.17120000000E+03 0.  0.
         13    1    1    2    0    0 -0.62024718791E+02 -0.96236192591E+02  0.48314006936E+03  0.49652070278E+03  0.10566000000E+00 0.  1.
        994    1    1    2    0    0  0.56269113435E+02  0.23945259333E+02  0.28978380834E+02  0.18408904130E+03  0.17120000000E+03 0.  0.
        998    1    1    2    0    0  0.57556053554E+01  0.72290933258E+02  0.98788154608E+03  0.99059025591E+03  0.10000000000E+02 0.  1.
</event>
<event>
 5    1  0.1271464E-008  0.3760676E+03  0.7957747E-01  0.3468462E+00
         13   -1    0    0    0    0  0.00000000000E+00  0.00000000000E+00  0.14999999963E+04  0.15000000000E+04  0.10566000000E+00 0.  1.
        994   -1    0    0    0    0 -0.00000000000E+00 -0.00000000000E+00  0.11368683772E-12  0.17120000000E+03  0.17120000000E+03 0.  0.
         13    1    1    2    0    0  0.22767635287E+02 -0.14110031362E+02  0.55131497595E+02  0.61293975175E+02  0.10566000000E+00 0.  1.
        994    1    1    2    0    0 -0.24698514693E+02  0.34805270922E+01  0.82415146142E+01  0.17320361792E+03  0.17120000000E+03 0.  0.
        998    1    1    2    0    0  0.19308794062E+01  0.10629504270E+02  0.14366269841E+04  0.14367024069E+04  0.10000000000E+02 0.  1.
</event>
<event>
 5    1  0.1271464E-008  0.3822042E+03  0.7957747E-01  0.3441617E+00
         13   -1    0    0    0    0  0.00000000000E+00  0.00000000000E+00  0.14999999963E+04  0.15000000000E+04  0.10566000000E+00 0. -1.
        994   -1    0    0    0    0 -0.00000000000E+00 -0.00000000000E+00  0.11368683772E-12  0.17120000000E+03  0.17120000000E+03 0.  0.
         13    1    1    2    0    0 -0.25189619897E+02  0.15676530584E+02  0.13014240020E+03  0.13348155698E+03  0.10566000000E+00 0. -1.
        994    1    1    2    0    0  0.25865287621E+02 -0.21980694667E+02  0.68577897535E+01  0.17466720735E+03  0.17120000000E+03 0.  0.
        998    1    1    2    0    0 -0.67566772435E+00  0.63041640839E+01  0.13629998063E+04  0.13630512357E+04  0.10000000000E+02 0. -1.
</event>
<event>
 5    1  0.1271464E-008  0.3806844E+03  0.7957747E-01  0.3448184E+00
         13   -1    0    0    0    0  0.00000000000E+00  0.00000000000E+00  0.14999999963E+04  0.15000000000E+04  0.10566000000E+00 0. -1.
        994   -1    0    0    0    0 -0.00000000000E+00 -0.00000000000E+00  0.11368683772E-12  0.17120000000E+03  0.17120000000E+03 0.  0.
         13    1    1    2    0    0  0.16008568547E+02 -0.24699257692E+01  0.33980087000E+02  0.37643489169E+02  0.10566000000E+00 0. -1.
        994    1    1    2    0    0 -0.45889966934E+01 -0.53740195650E+01  0.39546494355E+01  0.17139141819E+03  0.17120000000E+03 0.  0.
        998    1    1    2    0    0 -0.11419571853E+02  0.78439453342E+01  0.14620652598E+04  0.14621650926E+04  0.10000000000E+02 0. -1.
</event>
<event>
 5    1  0.1271464E-008  0.3816321E+03  0.7957747E-01  0.3444082E+00
         13   -1    0    0    0    0  0.00000000000E+00  0.00000000000E+00  0.14999999963E+04  0.15000000000E+04  0.10566000000E+00 0. -1.
        994   -1    0    0    0    0 -0.00000000000E+00 -0.00000000000E+00  0.11368683772E-12  0.17120000000E+03  0.17120000000E+03 0.  0.
         13    1    1    2    0    0 -0.50868111524E+01 -0.18193096094E+02  0.55315367062E+02  0.58452248806E+02  0.10566000000E+00 0. -1.
        994    1    1    2    0    0  0.13725399440E+02 -0.24803566398E+01  0.39586238150E+01  0.17181283264E+03  0.17120000000E+03 0.  0.
        998    1    1    2    0    0 -0.86385882876E+01  0.20673452734E+02  0.14407260054E+04  0.14409349185E+04  0.10000000000E+02 0. -1.
</event>
<event>
 5    1  0.1271464E-008  0.3789394E+03  0.7957747E-01  0.3455790E+00
         13   -1    0    0    0    0  0.00000000000E+00  0.00000000000E+00  0.14999999963E+04  0.15000000000E+04  0.10566000000E+00 0. -1.
        994   -1    0    0    0    0 -0.00000000000E+00 -0.00000000000E+00  0.11368683772E-12  0.17120000000E+03  0.17120000000E+03 0.  0.
         13    1    1    2    0    0  0.39578670623E+02 -0.58713181719E+01  0.19031905572E+03  0.19447955594E+03  0.10566000000E+00 0. -1.
        994    1    1    2    0    0 -0.71494992571E+01 -0.18508514086E+01  0.48524757333E+01  0.17142790762E+03  0.17120000000E+03 0.  0.
        998    1    1    2    0    0 -0.32429171366E+02  0.77221695805E+01  0.13048284648E+04  0.13052925364E+04  0.10000000000E+02 0. -1.
</event>
<event>
 5    1  0.1271464E-008  0.3816986E+03  0.7957747E-01  0.3443796E+00
         13   -1    0    0    0    0  0.00000000000E+00  0.00000000000E+00  0.14999999963E+04  0.15000000000E+04  0.10566000000E+00 0. -1.
        994   -1    0    0    0    0 -0.00000000000E+00 -0.00000000000E+00  0.11368683772E-12  0.17120000000E+03  0.17120000000E+03 0.  0.
         13    1    1    2    0    0  0.45533811578E+01 -0.15829916626E+02  0.43626044987E+02  0.46632204598E+02  0.10566000000E+00 0. -1.
        994    1    1    2    0    0  0.61210122248E+01 -0.85598719463E+01  0.36463706916E+01  0.17156186703E+03  0.17120000000E+03 0.  0.
        998    1    1    2    0    0 -0.10674393383E+02  0.24389788572E+02  0.14527275806E+04  0.14530059284E+04  0.10000000000E+02 0. -1.
</event>
<event>
 5    1  0.1271464E-008  0.3733618E+03  0.7957747E-01  0.3480582E+00
         13   -1    0    0    0    0  0.00000000000E+00  0.00000000000E+00  0.14999999963E+04  0.15000000000E+04  0.10566000000E+00 0.  1.
        994   -1    0    0    0    0 -0.00000000000E+00 -0.00000000000E+00  0.11368683772E-12  0.17120000000E+03  0.17120000000E+03 0.  0.
         13    1    1    2    0    0 -0.69428300910E+02  0.48422639920E+02  0.42283589895E+03  0.43122528872E+03  0.10566000000E+00 0.  1.
        994    1    1    2    0    0  0.43632505987E+02 -0.45338808230E+02  0.21179238852E+02  0.18362299221E+03  0.17120000000E+03 0.  0.
        998    1    1    2    0    0  0.25795794923E+02 -0.30838316902E+01  0.10559848585E+04  0.10563517191E+04  0.10000000000E+02 0.  1.
</event>
<event>
 5    1  0.1271464E-008  0.3729291E+03  0.7957747E-01  0.3482537E+00
         13   -1    0    0    0    0  0.00000000000E+00  0.00000000000E+00  0.14999999963E+04  0.15000000000E+04  0.10566000000E+00 0. -1.
        994   -1    0    0    0    0 -0.00000000000E+00 -0.00000000000E+00  0.11368683772E-12  0.17120000000E+03  0.17120000000E+03 0.  0.
         13    1    1    2    0    0  0.18917326100E+02  0.31325367163E+01  0.89937784706E+01  0.21179641835E+02  0.10566000000E+00 0. -1.
        994    1    1    2    0    0 -0.21159540147E+02 -0.93309231077E+01  0.14387330689E+02  0.17335289888E+03  0.17120000000E+03 0.  0.
        998    1    1    2    0    0  0.22422140470E+01  0.61983863914E+01  0.14766188871E+04  0.14766674593E+04  0.10000000000E+02 0. -1.
</event>
<event>
 5    1  0.1271464E-008  0.3755735E+03  0.7957747E-01  0.3470662E+00
         13   -1    0    0    0    0  0.00000000000E+00  0.00000000000E+00  0.14999999963E+04  0.15000000000E+04  0.10566000000E+00 0.  1.
        994   -1    0    0    0    0 -0.00000000000E+00 -0.00000000000E+00  0.11368683772E-12  0.17120000000E+03  0.17120000000E+03 0.  0.
         13    1    1    2    0    0 -0.44878660295E+02 -0.28899413996E+02  0.26245805560E+03  0.26783112664E+03  0.10566000000E+00 0.  1.
        994    1    1    2    0    0  0.11908475365E+02 -0.50656919324E+01  0.69528794630E+01  0.17182914640E+03  0.17120000000E+03 0.  0.
        998    1    1    2    0    0  0.32970184930E+02  0.33965105929E+02  0.12305890612E+04  0.12315397270E+04  0.10000000000E+02 0.  1.
</event>
<event>
 5    1  0.1271464E-008  0.3767893E+03  0.7957747E-01  0.3465259E+00
         13   -1    0    0    0    0  0.00000000000E+00  0.00000000000E+00  0.14999999963E+04  0.15000000000E+04  0.10566000000E+00 0.  1.
        994   -1    0    0    0    0 -0.00000000000E+00 -0.00000000000E+00  0.11368683772E-12  0.17120000000E+03  0.17120000000E+03 0.  0.
         13    1    1    2    0    0  0.12589377736E+02 -0.13243691807E+02  0.25913841588E+02  0.31708455565E+02  0.10566000000E+00 0.  1.
        994    1    1    2    0    0 -0.13941935551E+02  0.17095713325E+02  0.74087151330E+01  0.17277433270E+03  0.17120000000E+03 0.  0.
        998    1    1    2    0    0  0.13525578144E+01 -0.38520215185E+01  0.14666774396E+04  0.14667172117E+04  0.10000000000E+02 0.  1.
</event>
<event>
 5    1  0.1271464E-008  0.3789825E+03  0.7957747E-01  0.3455601E+00
         13   -1    0    0    0    0  0.00000000000E+00  0.00000000000E+00  0.14999999963E+04  0.15000000000E+04  0.10566000000E+00 0. -1.
        994   -1    0    0    0    0 -0.00000000000E+00 -0.00000000000E+00  0.11368683772E-12  0.17120000000E+03  0.17120000000E+03 0.  0.
         13    1    1    2    0    0  0.43428622569E+01  0.55085880951E+02  0.27583929551E+03  0.28131946759E+03  0.10566000000E+00 0. -1.
        994    1    1    2    0    0  0.17761087487E+02 -0.54552993013E+02  0.15768289039E+02  0.18124448740E+03  0.17120000000E+03 0.  0.
        998    1    1    2    0    0 -0.22103949744E+02 -0.53288793808E+00  0.12083924117E+04  0.12086360450E+04  0.10000000000E+02 0. -1.
</event>
<event>
 5    1  0.1271464E-008  0.3761968E+03  0.7957747E-01  0.3467888E+00
         13   -1    0    0    0    0  0.00000000000E+00  0.00000000000E+00  0.14999999963E+04  0.15000000000E+04  0.10566000000E+00 0. -1.
        994   -1    0    0    0    0 -0.00000000000E+00 -0.00000000000E+00  0.11368683772E-12  0.17120000000E+03  0.17120000000E+03 0.  0.
         13    1    1    2    0    0  0.26266325113E+02 -0.45329480244E+02  0.20629192585E+03  0.21284043659E+03  0.10566000000E+00 0. -1.
        994    1    1    2    0    0 -0.22385892879E+02  0.37344189407E+02  0.12510558653E+02  0.17709226624E+03  0.17120000000E+03 0.  0.
        998    1    1    2    0    0 -0.38804322337E+01  0.79852908369E+01  0.12811975118E+04  0.12812672972E+04  0.10000000000E+02 0. -1.
</event>
<event>
 5    1  0.1271464E-008  0.3858107E+03  0.7957747E-01  0.3426241E+00
         13   -1    0    0    0    0  0.00000000000E+00  0.00000000000E+00  0.14999999963E+04  0.15000000000E+04  0.10566000000E+00 0.  1.
        994   -1    0    0    0    0 -0.00000000000E+00 -0.00000000000E+00  0.11368683772E-12  0.17120000000E+03  0.17120000000E+03 0.  0.
         13    1    1    2    0    0  0.17381134824E+01 -0.12665236514E+02  0.66793028992E+02  0.68005508162E+02  0.10566000000E+00 0.  1.
        994    1    1    2    0    0 -0.25421181796E+01  0.88995354802E+01  0.15092237053E+01  0.17145664715E+03  0.17120000000E+03 0.  0.
        998    1    1    2    0    0  0.80400469713E+00  0.37657010343E+01  0.14316977436E+04  0.14317378447E+04  0.10000000000E+02 0.  1.
</event>
<event>
 5    1  0.1271464E-008  0.3848241E+03  0.7957747E-01  0.3430418E+00
         13   -1    0    0    0    0  0.00000000000E+00  0.00000000000E+00  0.14999999963E+04  0.15000000000E+04  0.10566000000E+00 0. -1.
        994   -1    0    0    0    0 -0.00000000000E+00 -0.00000000000E+00  0.11368683772E-12  0.17120000000E+03  0.17120000000E+03 0.  0.
         13    1    1    2    0    0  0.10768723690E+02 -0.61261442848E+01  0.43921473122E+02  0.45635534608E+02  0.10566000000E+00 0. -1.
        994    1    1    2    0    0 -0.93377896472E+01  0.56994498189E+01  0.21113762813E+01  0.17156216353E+03  0.17120000000E+03 0.  0.
        998    1    1    2    0    0 -0.14309340431E+01  0.42669446592E+00  0.14539671469E+04  0.14540023019E+04  0.10000000000E+02 0.  0.
</event>
<event>
 5    1  0.1271464E-008  0.3848956E+03  0.7957747E-01  0.3430115E+00
         13   -1    0    0    0    0  0.00000000000E+00  0.00000000000E+00  0.14999999963E+04  0.15000000000E+04  0.10566000000E+00 0. -1.
        994   -1    0    0    0    0 -0.00000000000E+00 -0.00000000000E+00  0.11368683772E-12  0.17120000000E+03  0.17120000000E+03 0.  0.
         13    1    1    2    0    0  0.71751748303E+01  0.12882699592E+02  0.64906894359E+02  0.66560973415E+02  0.10566000000E+00 0. -1.
        994    1    1    2    0    0 -0.15734286974E+01 -0.93803042439E+01  0.19796260298E+01  0.17147543470E+03  0.17120000000E+03 0.  0.
        998    1    1    2    0    0 -0.56017461328E+01 -0.35023953484E+01  0.14331134759E+04  0.14331635919E+04  0.10000000000E+02 0. -1.
</event>
<event>
 5    1  0.1271464E-008  0.3739399E+03  0.7957747E-01  0.3477977E+00
         13   -1    0    0    0    0  0.00000000000E+00  0.00000000000E+00  0.14999999963E+04  0.15000000000E+04  0.10566000000E+00 0.  1.
        994   -1    0    0    0    0 -0.00000000000E+00 -0.00000000000E+00  0.11368683772E-12  0.17120000000E+03  0.17120000000E+03 0.  0.
         13    1    1    2    0    0 -0.10661982735E+02 -0.72277852294E+01  0.80850276660E+01  0.15208471046E+02  0.10566000000E+00 0.  1.
        994    1    1    2    0    0  0.15012316030E+02  0.61721583810E+01  0.81233930674E+01  0.17215950362E+03  0.17120000000E+03 0.  0.
        998    1    1    2    0    0 -0.43503332947E+01  0.10556268484E+01  0.14837915755E+04  0.14838320253E+04  0.10000000000E+02 0.  1.
</event>
<event>
 5    1  0.1271464E-008  0.3843848E+03  0.7957747E-01  0.3432286E+00
         13   -1    0    0    0    0  0.00000000000E+00  0.00000000000E+00  0.14999999963E+04  0.15000000000E+04  0.10566000000E+00 0.  1.
        994   -1    0    0    0    0 -0.00000000000E+00 -0.00000000000E+00  0.11368683772E-12  0.17120000000E+03  0.17120000000E+03 0.  0.
         13    1    1    2    0    0  0.14017023858E+02 -0.14393059498E+02  0.94799182097E+02  0.96904763607E+02  0.10566000000E+00 0.  1.
        994    1    1    2    0    0 -0.21993070765E+02  0.14955105521E+02  0.42702459758E+01  0.17330616072E+03  0.17120000000E+03 0.  0.
        998    1    1    2    0    0  0.79760469061E+01 -0.56204602305E+00  0.14009305682E+04  0.14009890757E+04  0.10000000000E+02 0.  1.
</event>
<event>
 5    1  0.1271464E-008  0.3851077E+03  0.7957747E-01  0.3429216E+00
         13   -1    0    0    0    0  0.00000000000E+00  0.00000000000E+00  0.14999999963E+04  0.15000000000E+04  0.10566000000E+00 0.  1.
        994   -1    0    0    0    0 -0.00000000000E+00 -0.00000000000E+00  0.11368683772E-12  0.17120000000E+03  0.17120000000E+03 0.  0.
         13    1    1    2    0    0 -0.11799210115E+02 -0.14273536593E+02  0.10506115268E+03  0.10668088945E+03  0.10566000000E+00 0.  1.
        994    1    1    2    0    0  0.11267228096E+02  0.11678688534E+02  0.24428960734E+01  0.17198473751E+03  0.17120000000E+03 0.  0.
        998    1    1    2    0    0  0.53198201910E+00  0.25948480590E+01  0.13924959475E+04  0.13925343730E+04  0.10000000000E+02 0.  1.
</event>
<event>
 5    1  0.1271464E-008  0.3805873E+03  0.7957747E-01  0.3448605E+00
         13   -1    0    0    0    0  0.00000000000E+00  0.00000000000E+00  0.14999999963E+04  0.15000000000E+04  0.10566000000E+00 0.  1.
        994   -1    0    0    0    0 -0.00000000000E+00 -0.00000000000E+00  0.11368683772E-12  0.17120000000E+03  0.17120000000E+03 0.  0.
         13    1    1    2    0    0  0.15144701615E+01  0.16979386154E+02  0.36662758641E+02  0.40432192733E+02  0.10566000000E+00 0.  1.
        994    1    1    2    0    0 -0.12773131291E+02 -0.82681154955E+01  0.46097923930E+01  0.17193663019E+03  0.17120000000E+03 0.  0.
        998    1    1    2    0    0  0.11258661130E+02 -0.87112706580E+01  0.14587274452E+04  0.14588311771E+04  0.10000000000E+02 0.  1.
</event>
<event>
 5    1  0.1271464E-008  0.3816036E+03  0.7957747E-01  0.3444206E+00
         13   -1    0    0    0    0  0.00000000000E+00  0.00000000000E+00  0.14999999963E+04  0.15000000000E+04  0.10566000000E+00 0. -1.
        994   -1    0    0    0    0 -0.00000000000E+00 -0.00000000000E+00  0.11368683772E-12  0.17120000000E+03  0.17120000000E+03 0.  0.
         13    1    1    2    0    0  0.42983149485E+02  0.81167577740E+00  0.24739390940E+03  0.25110150841E+03  0.10566000000E+00 0. -1.
        994    1    1    2    0    0 -0.39222407908E+02  0.28202606844E+02  0.11125547965E+02  0.17823299956E+03  0.17120000000E+03 0.  0.
        998    1    1    2    0    0 -0.37607415775E+01 -0.29014282622E+02  0.12414805389E+04  0.12418654920E+04  0.10000000000E+02 0. -1.
</event>
<event>
 5    1  0.1271464E-008  0.3691734E+03  0.7957747E-01  0.3499699E+00
         13   -1    0    0    0    0  0.00000000000E+00  0.00000000000E+00  0.14999999963E+04  0.15000000000E+04  0.10566000000E+00 0.  1.
        994   -1    0    0    0    0 -0.00000000000E+00 -0.00000000000E+00  0.11368683772E-12  0.17120000000E+03  0.17120000000E+03 0.  0.
         13    1    1    2    0    0 -0.22392153205E+02 -0.82809633648E+02  0.28939989322E+03  0.30184624117E+03  0.10566000000E+00 0.  1.
        994    1    1    2    0    0  0.21853215346E+02  0.76990827468E+02  0.33176341361E+02  0.19187303135E+03  0.17120000000E+03 0.  0.
        998    1    1    2    0    0  0.53893785882E+00  0.58188061796E+01  0.11774237617E+04  0.11774807275E+04  0.10000000000E+02 0.  1.
</event>
<event>
 5    1  0.1271464E-008  0.3812317E+03  0.7957747E-01  0.3445813E+00
         13   -1    0    0    0    0  0.00000000000E+00  0.00000000000E+00  0.14999999963E+04  0.15000000000E+04  0.10566000000E+00 0. -1.
        994   -1    0    0    0    0 -0.00000000000E+00 -0.00000000000E+00  0.11368683772E-12  0.17120000000E+03  0.17120000000E+03 0.  0.
         13    1    1    2    0    0  0.13513534679E+02 -0.11961804637E+01  0.24330136466E+02  0.27857012972E+02  0.10566000000E+00 0. -1.
        994    1    1    2    0    0 -0.15290393991E+02  0.72431776000E+01  0.44663332327E+01  0.17209197513E+03  0.17120000000E+03 0.  0.
        998    1    1    2    0    0  0.17768593123E+01 -0.60469971363E+01  0.14712035266E+04  0.14712510119E+04  0.10000000000E+02 0. -1.
</event>
<event>
 5    1  0.1271464E-008  0.3814098E+03  0.7957747E-01  0.3445043E+00
         13   -1    0    0    0    0  0.00000000000E+00  0.00000000000E+00  0.14999999963E+04  0.15000000000E+04  0.10566000000E+00 0. -1.
        994   -1    0    0    0    0 -0.00000000000E+00 -0.00000000000E+00  0.11368683772E-12  0.17120000000E+03  0.17120000000E+03 0.  0.
         13    1    1    2    0    0  0.42489563249E+02 -0.10095305128E+02  0.23211552564E+03  0.23618828628E+03  0.10566000000E+00 0. -1.
        994    1    1    2    0    0 -0.44001665689E+02  0.14059150753E+02  0.10556040045E+02  0.17763635969E+03  0.17120000000E+03 0.  0.
        998    1    1    2    0    0  0.15121024397E+01 -0.39638456256E+01  0.12573284306E+04  0.12573753540E+04  0.10000000000E+02 0.  0.
</event>
<event>
 5    1  0.1271464E-008  0.3797203E+03  0.7957747E-01  0.3452377E+00
         13   -1    0    0    0    0  0.00000000000E+00  0.00000000000E+00  0.14999999963E+04  0.15000000000E+04  0.10566000000E+00 0.  1.
        994   -1    0    0    0    0 -0.00000000000E+00 -0.00000000000E+00  0.11368683772E-12  0.17120000000E+03  0.17120000000E+03 0.  0.
         13    1    1    2    0    0 -0.18624411170E+02  0.95406381305E+02  0.39262538497E+03  0.40447985162E+03  0.10566000000E+00 0.  1.
        994    1    1    2    0    0 -0.13171124356E+02 -0.12227604358E+02  0.17343737576E+02  0.17301224829E+03  0.17120000000E+03 0.  0.
        998    1    1    2    0    0  0.31795535526E+02 -0.83178776948E+02  0.10900308737E+04  0.10937079001E+04  0.10000000000E+02 0.  1.
</event>
<event>
 5    1  0.1271464E-008  0.3793625E+03  0.7957747E-01  0.3453939E+00
         13   -1    0    0    0    0  0.00000000000E+00  0.00000000000E+00  0.14999999963E+04  0.15000000000E+04  0.10566000000E+00 0.  1.
        994   -1    0    0    0    0 -0.00000000000E+00 -0.00000000000E+00  0.11368683772E-12  0.17120000000E+03  0.17120000000E+03 0.  0.
         13    1    1    2    0    0 -0.31112920959E+00  0.74381442853E+02  0.42484426710E+03  0.43130657113E+03  0.10566000000E+00 0.  1.
        994    1    1    2    0    0 -0.10774425011E+02 -0.78390295881E+02  0.25723956063E+02  0.19034780965E+03  0.17120000000E+03 0.  0.
        998    1    1    2    0    0  0.11085554221E+02  0.40088530282E+01  0.10494317731E+04  0.10495456192E+04  0.10000000000E+02 0.  1.
</event>
<event>
 5    1  0.1271464E-008  0.3805106E+03  0.7957747E-01  0.3448938E+00
         13   -1    0    0    0    0  0.00000000000E+00  0.00000000000E+00  0.14999999963E+04  0.15000000000E+04  0.10566000000E+00 0. -1.
        994   -1    0    0    0    0 -0.00000000000E+00 -0.00000000000E+00  0.11368683772E-12  0.17120000000E+03  0.17120000000E+03 0.  0.
         13    1    1    2    0    0 -0.11080173061E+02  0.11800054435E+02  0.33173712955E+02  0.36912300321E+02  0.10566000000E+00 0. -1.
        994    1    1    2    0    0 -0.24933929383E+02 -0.27218774097E+02  0.84362524084E+01  0.17533731164E+03  0.17120000000E+03 0.  0.
        998    1    1    2    0    0  0.36014102444E+02  0.15418719661E+02  0.14583900309E+04  0.14589503880E+04  0.10000000000E+02 0. -1.
</event>
<event>
 5    1  0.1271464E-008  0.3849064E+03  0.7957747E-01  0.3430069E+00
         13   -1    0    0    0    0  0.00000000000E+00  0.00000000000E+00  0.14999999963E+04  0.15000000000E+04  0.10566000000E+00 0. -1.
        994   -1    0    0    0    0 -0.00000000000E+00 -0.00000000000E+00  0.11368683772E-12  0.17120000000E+03  0.17120000000E+03 0.  0.
         13    1    1    2    0    0 -0.11712777006E+02 -0.96061593134E-03  0.40830764926E+02  0.42477660889E+02  0.10566000000E+00 0. -1.
        994    1    1    2    0    0  0.74930850688E+01  0.25992174002E+00  0.18615418317E+01  0.17137420816E+03  0.17120000000E+03 0.  0.
        998    1    1    2    0    0  0.42196919374E+01 -0.25896112409E+00  0.14573076895E+04  0.14573481310E+04  0.10000000000E+02 0. -1.
</event>
<event>
 5    1  0.1271464E-008  0.3825226E+03  0.7957747E-01  0.3440248E+00
         13   -1    0    0    0    0  0.00000000000E+00  0.00000000000E+00  0.14999999963E+04  0.15000000000E+04  0.10566000000E+00 0.  1.
        994   -1    0    0    0    0 -0.00000000000E+00 -0.00000000000E+00  0.11368683772E-12  0.17120000000E+03  0.17120000000E+03 0.  0.
         13    1    1    2    0    0 -0.56325711211E+01 -0.21678266095E+02  0.82198156932E+02  0.85195194967E+02  0.10566000000E+00 0.  1.
        994    1    1    2    0    0  0.58967615821E+01  0.23011686603E+02  0.47382496448E+01  0.17290517785E+03  0.17120000000E+03 0.  0.
        998    1    1    2    0    0 -0.26419046099E+00 -0.13334205078E+01  0.14130635897E+04  0.14130996272E+04  0.10000000000E+02 0.  1.
</event>
<event>
 5    1  0.1271464E-008  0.3814653E+03  0.7957747E-01  0.3444803E+00
         13   -1    0    0    0    0  0.00000000000E+00  0.00000000000E+00  0.14999999963E+04  0.15000000000E+04  0.10566000000E+00 0.  1.
        994   -1    0    0    0    0 -0.00000000000E+00 -0.00000000000E+00  0.11368683772E-12  0.17120000000E+03  0.17120000000E+03 0.  0.
         13    1    1    2    0    0  0.12115121870E+02 -0.75901135382E+01  0.29384558470E+02  0.32677965695E+02  0.10566000000E+00 0.  1.
        994    1    1    2    0    0 -0.83836074264E+00  0.55196411897E+01  0.34990231376E+01  0.17132674178E+03  0.17120000000E+03 0.  0.
        998    1    1    2    0    0 -0.11276761127E+02  0.20704723485E+01  0.14671164147E+04  0.14671952925E+04  0.10000000000E+02 0.  1.
</event>
<event>
 5    1  0.1271464E-008  0.3803971E+03  0.7957747E-01  0.3449431E+00
         13   -1    0    0    0    0  0.00000000000E+00  0.00000000000E+00  0.14999999963E+04  0.15000000000E+04  0.10566000000E+00 0. -1.
        994   -1    0    0    0    0 -0.00000000000E+00 -0.00000000000E+00  0.11368683772E-12  0.17120000000E+03  0.17120000000E+03 0.  0.
         13    1    1    2    0    0  0.12109590585E+02 -0.43140338341E+00  0.16937712261E+02  0.20826078692E+02  0.10566000000E+00 0. -1.
        994    1    1    2    0    0 -0.10134933151E+02  0.24903481493E+01  0.42965407223E+01  0.17157161469E+03  0.17120000000E+03 0.  0.
        998    1    1    2    0    0 -0.19746574343E+01 -0.20589447659E+01  0.14787657433E+04  0.14788023066E+04  0.10000000000E+02 0. -1.
</event>
<event>
 5    1  0.1271464E-008  0.3854671E+03  0.7957747E-01  0.3427694E+00
         13   -1    0    0    0    0  0.00000000000E+00  0.00000000000E+00  0.14999999963E+04  0.15000000000E+04  0.10566000000E+00 0. -1.
        994   -1    0    0    0    0 -0.00000000000E+00 -0.00000000000E+00  0.11368683772E-12  0.17120000000E+03  0.17120000000E+03 0.  0.
         13    1    1    2    0    0 -0.11514604482E+02  0.91143177866E+01  0.84977689906E+02  0.86237322841E+02  0.10566000000E+00 0. -1.
        994    1    1    2    0    0  0.23505546201E+01  0.61774345266E+01  0.15418966043E+01  0.17133447770E+03  0.17120000000E+03 0.  0.
        998    1    1    2    0    0  0.91640498619E+01 -0.15291752313E+02  0.14134804098E+04  0.14136281995E+04  0.10000000000E+02 0. -1.
</event>
<event>
 5    1  0.1271464E-008  0.3851293E+03  0.7957747E-01  0.3429124E+00
         13   -1    0    0    0    0  0.00000000000E+00  0.00000000000E+00  0.14999999963E+04  0.15000000000E+04  0.10566000000E+00 0.  1.
        994   -1    0    0    0    0 -0.00000000000E+00 -0.00000000000E+00  0.11368683772E-12  0.17120000000E+03  0.17120000000E+03 0.  0.
         13    1    1    2    0    0  0.29636103804E+01  0.15711497578E+02  0.77576770980E+02  0.79207327327E+02  0.10566000000E+00 0.  1.
        994    1    1    2    0    0 -0.14339035223E+01 -0.17976214643E+02  0.26357228292E+01  0.17216732387E+03  0.17120000000E+03 0.  0.
        998    1    1    2    0    0 -0.15297068581E+01  0.22647170646E+01  0.14197875025E+04  0.14198253488E+04  0.10000000000E+02 0.  1.
</event>
<event>
 5    1  0.1271464E-008  0.3764566E+03  0.7957747E-01  0.3466734E+00
         13   -1    0    0    0    0  0.00000000000E+00  0.00000000000E+00  0.14999999963E+04  0.15000000000E+04  0.10566000000E+00 0. -1.
        994   -1    0    0    0    0 -0.00000000000E+00 -0.00000000000E+00  0.11368683772E-12  0.17120000000E+03  0.17120000000E+03 0.  0.
         13    1    1    2    0    0 -0.38945331373E+02  0.23654803805E+02  0.18459353564E+03  0.19013435550E+03  0.10566000000E+00 0. -1.
        994    1    1    2    0    0  0.10128432125E+02 -0.13913843094E+02  0.69350931805E+01  0.17220254262E+03  0.17120000000E+03 0.  0.
        998    1    1    2    0    0  0.28816899248E+02 -0.97409607116E+01  0.13084713675E+04  0.13088631019E+04  0.10000000000E+02 0. -1.
</event>
<event>
 5    1  0.1271464E-008  0.3811933E+03  0.7957747E-01  0.3445979E+00
         13   -1    0    0    0    0  0.00000000000E+00  0.00000000000E+00  0.14999999963E+04  0.15000000000E+04  0.10566000000E+00 0.  1.
        994   -1    0    0    0    0 -0.00000000000E+00 -0.00000000000E+00  0.11368683772E-12  0.17120000000E+03  0.17120000000E+03 0.  0.
         13    1    1    2    0    0  0.16363133040E+01 -0.10797537754E+02  0.15550137410E+02  0.19002165147E+02  0.10566000000E+00 0.  1.
        994    1    1    2    0    0  0.75570335484E+01  0.52855916086E+01  0.38152400171E+01  0.17149064782E+03  0.17120000000E+03 0.  0.
        998    1    1    2    0    0 -0.91933468525E+01  0.55119461455E+01  0.14806346189E+04  0.14807071870E+04  0.10000000000E+02 0.  1.
</event>
<event>
 5    1  0.1271464E-008  0.3797141E+03  0.7957747E-01  0.3452405E+00
         13   -1    0    0    0    0  0.00000000000E+00  0.00000000000E+00  0.14999999963E+04  0.15000000000E+04  0.10566000000E+00 0.  1.
        994   -1    0    0    0    0 -0.00000000000E+00 -0.00000000000E+00  0.11368683772E-12  0.17120000000E+03  0.17120000000E+03 0.  0.
         13    1    1    2    0    0 -0.33376177669E+02  0.14908138294E+02  0.34246108295E+02  0.50090207831E+02  0.10566000000E+00 0.  1.
        994    1    1    2    0    0  0.33997303491E+02 -0.11064947550E+02  0.20811152226E+02  0.17612720904E+03  0.17120000000E+03 0.  0.
        998    1    1    2    0    0 -0.62112582198E+00 -0.38431907437E+01  0.14449427358E+04  0.14449825831E+04  0.10000000000E+02 0.  1.
</event>
<event>
 5    1  0.1271464E-008  0.3768748E+03  0.7957747E-01  0.3464880E+00
         13   -1    0    0    0    0  0.00000000000E+00  0.00000000000E+00  0.14999999963E+04  0.15000000000E+04  0.10566000000E+00 0. -1.
        994   -1    0    0    0    0 -0.00000000000E+00 -0.00000000000E+00  0.11368683772E-12  0.17120000000E+03  0.17120000000E+03 0.  0.
         13    1    1    2    0    0 -0.97480082181E+02  0.33963589855E+01  0.52101575264E+03  0.53006728567E+03  0.10566000000E+00 0. -1.
        994    1    1    2    0    0  0.99208019921E+02 -0.19559315094E+02  0.41076508183E+02  0.20303082906E+03  0.17120000000E+03 0.  0.
        998    1    1    2    0    0 -0.17279377404E+01  0.16162956108E+02  0.93790773546E+03  0.93810188527E+03  0.10000000000E+02 0. -1.
</event>
<event>
 5    1  0.1271464E-008  0.3843710E+03  0.7957747E-01  0.3432344E+00
         13   -1    0    0    0    0  0.00000000000E+00  0.00000000000E+00  0.14999999963E+04  0.15000000000E+04  0.10566000000E+00 0. -1.
        994   -1    0    0    0    0 -0.00000000000E+00 -0.00000000000E+00  0.11368683772E-12  0.17120000000E+03  0.17120000000E+03 0.  0.
         13    1    1    2    0    0  0.19191075501E+02 -0.15141268506E+02  0.13633467154E+03  0.13850887776E+03  0.10566000000E+00 0. -1.
        994    1    1    2    0    0 -0.19286877056E+02  0.22722328337E+02  0.48754649752E+01  0.17384331448E+03  0.17120000000E+03 0.  0.
        998    1    1    2    0    0  0.95801554467E-01 -0.75810598311E+01  0.13587898598E+04  0.13588478078E+04  0.10000000000E+02 0. -1.
</event>
<event>
 5    1  0.1271464E-008  0.3799728E+03  0.7957747E-01  0.3451277E+00
         13   -1    0    0    0    0  0.00000000000E+00  0.00000000000E+00  0.14999999963E+04  0.15000000000E+04  0.10566000000E+00 0.  1.
        994   -1    0    0    0    0 -0.00000000000E+00 -0.00000000000E+00  0.11368683772E-12  0.17120000000E+03  0.17120000000E+03 0.  0.
         13    1    1    2    0    0 -0.10071735626E+02 -0.41077715139E+01  0.12390607280E+02  0.16487933713E+02  0.10566000000E+00 0.  1.
        994    1    1    2    0    0  0.11208468142E+02 -0.92397817962E+00  0.45698633565E+01  0.17162985505E+03  0.17120000000E+03 0.  0.
        998    1    1    2    0    0 -0.11367325153E+01  0.50317496935E+01  0.14830395256E+04  0.14830822112E+04  0.10000000000E+02 0.  1.
</event>
<event>
 5    1  0.1271464E-008  0.3775150E+03  0.7957747E-01  0.3462051E+00
         13   -1    0    0    0    0  0.00000000000E+00  0.00000000000E+00  0.14999999963E+04  0.15000000000E+04  0.10566000000E+00 0. -1.
        994   -1    0    0    0    0 -0.00000000000E+00 -0.00000000000E+00  0.11368683772E-12  0.17120000000E+03  0.17120000000E+03 0.  0.
         13    1    1    2    0    0 -0.36576085355E+02 -0.10857034252E+02  0.12890246664E+03  0.13443043660E+03  0.10566000000E+00 0. -1.
        994    1    1    2    0    0  0.46479341141E+02 -0.46173351996E+02  0.19999922194E+02  0.18439561946E+03  0.17120000000E+03 0.  0.
        998    1    1    2    0    0 -0.99032557852E+01  0.57030386247E+02  0.13510976074E+04  0.13523739439E+04  0.10000000000E+02 0. -1.
</event>
<event>
 5    1  0.1271464E-008  0.3848513E+03  0.7957747E-01  0.3430303E+00
         13   -1    0    0    0    0  0.00000000000E+00  0.00000000000E+00  0.14999999963E+04  0.15000000000E+04  0.10566000000E+00 0. -1.
        994   -1    0    0    0    0 -0.00000000000E+00 -0.00000000000E+00  0.11368683772E-12  0.17120000000E+03  0.17120000000E+03 0.  0.
         13    1    1    2    0    0 -0.13025068972E+02  0.11885715993E+02  0.88908396722E+02  0.90640150254E+02  0.10566000000E+00 0. -1.
        994    1    1    2    0    0  0.14620411369E+02 -0.60844647625E+01  0.25295530762E+01  0.17194945705E+03  0.17120000000E+03 0.  0.
        998    1    1    2    0    0 -0.15953423973E+01 -0.58012512303E+01  0.14085620465E+04  0.14086103927E+04  0.10000000000E+02 0. -1.
</event>
<event>
 5    1  0.1271464E-008  0.3835694E+03  0.7957747E-01  0.3435762E+00
         13   -1    0    0    0    0  0.00000000000E+00  0.00000000000E+00  0.14999999963E+04  0.15000000000E+04  0.10566000000E+00 0. -1.
        994   -1    0    0    0    0 -0.00000000000E+00 -0.00000000000E+00  0.11368683772E-12  0.17120000000E+03  0.17120000000E+03 0.  0.
         13    1    1    2    0    0 -0.27923621751E+02 -0.63755145474E+01  0.16006033764E+03  0.16260288647E+03  0.10566000000E+00 0. -1.
        994    1    1    2    0    0  0.25892308472E+02  0.98086509176E+01  0.48790871535E+01  0.17349313174E+03  0.17120000000E+03 0.  0.
        998    1    1    2    0    0  0.20313132790E+01 -0.34331363702E+01  0.13350605715E+04  0.13351039818E+04  0.10000000000E+02 0. -1.
</event>
<event>
 5    1  0.1271464E-008  0.3825903E+03  0.7957747E-01  0.3439957E+00
         13   -1    0    0    0    0  0.00000000000E+00  0.00000000000E+00  0.14999999963E+04  0.15000000000E+04  0.10566000000E+00 0. -1.
        994   -1    0    0    0    0 -0.00000000000E+00 -0.00000000000E+00  0.11368683772E-12  0.17120000000E+03  0.17120000000E+03 0.  0.
         13    1    1    2    0    0 -0.10459590603E+02  0.93403657332E+01  0.32428855215E+02  0.35331109269E+02  0.10566000000E+00 0. -1.
        994    1    1    2    0    0  0.13744615988E+02 -0.15397876780E+02  0.42445718533E+01  0.17249192870E+03  0.17120000000E+03 0.  0.
        998    1    1    2    0    0 -0.32850253850E+01  0.60575110464E+01  0.14633265692E+04  0.14633769620E+04  0.10000000000E+02 0. -1.
</event>
<event>
 5    1  0.1271464E-008  0.4032345E+03  0.7957747E-01  0.3355837E+00
         13   -1    0    0    0    0  0.00000000000E+00  0.00000000000E+00  0.14999999963E+04  0.15000000000E+04  0.10566000000E+00 0.  1.
        994   -1    0    0    0    0 -0.00000000000E+00 -0.00000000000E+00  0.11368683772E-12  0.17120000000E+03  0.17120000000E+03 0.  0.
         13    1    1    2    0    0 -0.13294852147E+03 -0.34698372570E+02  0.36540881875E+03  0.39038814327E+03  0.10566000000E+00 0.  1.
        994    1    1    2    0    0  0.53019780081E+02  0.55050760627E+01  0.41083786411E+02  0.18395303870E+03  0.17120000000E+03 0.  0.
        998    1    1    2    0    0  0.79928741386E+02  0.29193296507E+02  0.10935073911E+04  0.10968588180E+04  0.10000000000E+02 0.  1.
</event>
<event>
 5    1  0.1271464E-008  0.3844835E+03  0.7957747E-01  0.3431866E+00
         13   -1    0    0    0    0  0.00000000000E+00  0.00000000000E+00  0.14999999963E+04  0.15000000000E+04  0.10566000000E+00 0. -1.
        994   -1    0    0    0    0 -0.00000000000E+00 -0.00000000000E+00  0.11368683772E-12  0.17120000000E+03  0.17120000000E+03 0.  0.
         13    1    1    2    0    0  0.22504615459E+02 -0.23654340500E+02  0.19198529578E+03  0.19474175336E+03  0.10566000000E+00 0. -1.
        994    1    1    2    0    0 -0.58160542622E+02  0.27948328123E+02  0.15725454320E+02  0.18363139077E+03  0.17120000000E+03 0.  0.
        998    1    1    2    0    0  0.35655927163E+02 -0.42939876234E+01  0.12922892462E+04  0.12928268559E+04  0.10000000000E+02 0. -1.
</event>
<event>
 5    1  0.1271464E-008  0.3815711E+03  0.7957747E-01  0.3444346E+00
         13   -1    0    0    0    0  0.00000000000E+00  0.00000000000E+00  0.14999999963E+04  0.15000000000E+04  0.10566000000E+00 0. -1.
        994   -1    0    0    0    0 -0.00000000000E+00 -0.00000000000E+00  0.11368683772E-12  0.17120000000E+03  0.17120000000E+03 0.  0.
         13    1    1    2    0    0 -0.70141638282E+02 -0.12042302402E+03  0.82041532492E+03  0.83216757367E+03  0.10566000000E+00 0. -1.
        994    1    1    2    0    0  0.99006087729E+02  0.12568266915E+03  0.93756453594E+02  0.25238472878E+03  0.17120000000E+03 0.  0.
        998    1    1    2    0    0 -0.28864449447E+02 -0.52596451309E+01  0.58582821777E+03  0.58664769755E+03  0.10000000000E+02 0. -1.
</event>
<event>
 5    1  0.1271464E-008  0.3773204E+03  0.7957747E-01  0.3462910E+00
         13   -1    0    0    0    0  0.00000000000E+00  0.00000000000E+00  0.14999999963E+04  0.15000000000E+04  0.10566000000E+00 0.  1.
        994   -1    0    0    0    0 -0.00000000000E+00 -0.00000000000E+00  0.11368683772E-12  0.17120000000E+03  0.17120000000E+03 0.  0.
         13    1    1    2    0    0 -0.56584632602E+02 -0.62732803945E+02  0.46345722581E+03  0.47109429699E+03  0.10566000000E+00 0.  1.
        994    1    1    2    0    0  0.69815294521E+02  0.47118815057E+02  0.29806704543E+02  0.19311198232E+03  0.17120000000E+03 0.  0.
        998    1    1    2    0    0 -0.13230661919E+02  0.15613988888E+02  0.10067360659E+04  0.10069937207E+04  0.10000000000E+02 0. -1.
</event>
<event>
 5    1  0.1271464E-008  0.3825435E+03  0.7957747E-01  0.3440158E+00
         13   -1    0    0    0    0  0.00000000000E+00  0.00000000000E+00  0.14999999963E+04  0.15000000000E+04  0.10566000000E+00 0. -1.
        994   -1    0    0    0    0 -0.00000000000E+00 -0.00000000000E+00  0.11368683772E-12  0.17120000000E+03  0.17120000000E+03 0.  0.
         13    1    1    2    0    0 -0.84237234282E+01 -0.41511406989E+02  0.24985380191E+03  0.25341880261E+03  0.10566000000E+00 0. -1.
        994    1    1    2    0    0  0.14285348521E+02  0.46164511386E+02  0.10635047199E+02  0.17820711973E+03  0.17120000000E+03 0.  0.
        998    1    1    2    0    0 -0.58616250933E+01 -0.46531043977E+01  0.12395111472E+04  0.12395740777E+04  0.10000000000E+02 0. -1.
</event>
<event>
 5    1  0.1271464E-008  0.3856041E+03  0.7957747E-01  0.3427114E+00
         13   -1    0    0    0    0  0.00000000000E+00  0.00000000000E+00  0.14999999963E+04  0.15000000000E+04  0.10566000000E+00 0.  1.
        994   -1    0    0    0    0 -0.00000000000E+00 -0.00000000000E+00  0.11368683772E-12  0.17120000000E+03  0.17120000000E+03 0.  0.
         13    1    1    2    0    0 -0.34135930199E+01  0.13979854413E+02  0.77953677566E+02  0.79270902334E+02  0.10566000000E+00 0.  1.
        994    1    1    2    0    0  0.17204464456E+01 -0.99008136313E+01  0.16620241292E+01  0.17150273575E+03  0.17120000000E+03 0.  0.
        998    1    1    2    0    0  0.16931465743E+01 -0.40790407816E+01  0.14203842946E+04  0.14204263619E+04  0.10000000000E+02 0.  0.
</event>
<event>
 5    1  0.1271464E-008  0.3840429E+03  0.7957747E-01  0.3433742E+00
         13   -1    0    0    0    0  0.00000000000E+00  0.00000000000E+00  0.14999999963E+04  0.15000000000E+04  0.10566000000E+00 0.  1.
        994   -1    0    0    0    0 -0.00000000000E+00 -0.00000000000E+00  0.11368683772E-12  0.17120000000E+03  0.17120000000E+03 0.  0.
         13    1    1    2    0    0  0.10011177564E+02 -0.11614413745E+02  0.56377988669E+02  0.58426081961E+02  0.10566000000E+00 0.  1.
        994    1    1    2    0    0 -0.73542784046E+01  0.25671616913E+01  0.23062553031E+01  0.17139263270E+03  0.17120000000E+03 0.  0.
        998    1    1    2    0    0 -0.26568991592E+01  0.90472520536E+01  0.14413157523E+04  0.14413812853E+04  0.10000000000E+02 0.  1.
</event>
<event>
 5    1  0.1271464E-008  0.3738693E+03  0.7957747E-01  0.3478295E+00
         13   -1    0    0    0    0  0.00000000000E+00  0.00000000000E+00  0.14999999963E+04  0.15000000000E+04  0.10566000000E+00 0.  1.
        994   -1    0    0    0    0 -0.00000000000E+00 -0.00000000000E+00  0.11368683772E-12  0.17120000000E+03  0.17120000000E+03 0.  0.
         13    1    1    2    0    0 -0.10619784815E+02  0.79143916493E+01  0.87815428744E+01  0.15891635661E+02  0.10566000000E+00 0.  1.
        994    1    1    2    0    0  0.11876368036E+02 -0.17697266620E+01  0.77526374892E+01  0.17179558620E+03  0.17120000000E+03 0.  0.
        998    1    1    2    0    0 -0.12565832212E+01 -0.61446649873E+01  0.14834658159E+04  0.14835127781E+04  0.10000000000E+02 0.  1.
</event>
<event>
 5    1  0.1271464E-008  0.3862995E+03  0.7957747E-01  0.3424179E+00
         13   -1    0    0    0    0  0.00000000000E+00  0.00000000000E+00  0.14999999963E+04  0.15000000000E+04  0.10566000000E+00 0.  1.
        994   -1    0    0    0    0 -0.00000000000E+00 -0.00000000000E+00  0.11368683772E-12  0.17120000000E+03  0.17120000000E+03 0.  0.
         13    1    1    2    0    0  0.43356400725E+01  0.10608234285E+02  0.68135645476E+02  0.69092761979E+02  0.10566000000E+00 0.  1.
        994    1    1    2    0    0 -0.40321552307E+01 -0.57957398326E+01  0.11495668118E+01  0.17134938103E+03  0.17120000000E+03 0.  0.
        998    1    1    2    0    0 -0.30348484178E+00 -0.48124944526E+01  0.14307147840E+04  0.14307578570E+04  0.10000000000E+02 0.  1.
</event>
<event>
 5    1  0.1271464E-008  0.3719757E+03  0.7957747E-01  0.3486860E+00
         13   -1    0    0    0    0  0.00000000000E+00  0.00000000000E+00  0.14999999963E+04  0.15000000000E+04  0.10566000000E+00 0.  1.
        994   -1    0    0    0    0 -0.00000000000E+00 -0.00000000000E+00  0.11368683772E-12  0.17120000000E+03  0.17120000000E+03 0.  0.
         13    1    1    2    0    0 -0.17925986258E+02 -0.27270655017E+02  0.61527275442E+02  0.69646582083E+02  0.10566000000E+00 0.  1.
        994    1    1    2    0    0  0.20189999435E+02  0.12081973980E+02  0.10143593411E+02  0.17310673777E+03  0.17120000000E+03 0.  0.
        998    1    1    2    0    0 -0.22640131767E+01  0.15188681037E+02  0.14283291274E+04  0.14284466802E+04  0.10000000000E+02 0.  1.
</event>
<event>
 5    1  0.1271464E-008  0.3805897E+03  0.7957747E-01  0.3448595E+00
         13   -1    0    0    0    0  0.00000000000E+00  0.00000000000E+00  0.14999999963E+04  0.15000000000E+04  0.10566000000E+00 0.  1.
        994   -1    0    0    0    0 -0.00000000000E+00 -0.00000000000E+00  0.11368683772E-12  0.17120000000E+03  0.17120000000E+03 0.  0.
         13    1    1    2    0    0 -0.20882415803E+02 -0.15486641989E+02  0.10518191058E+03  0.10834738966E+03  0.10566000000E+00 0.  1.
        994    1    1    2    0    0  0.29356447921E+01 -0.33347713669E+02  0.75839011944E+01  0.17460711204E+03  0.17120000000E+03 0.  0.
        998    1    1    2    0    0  0.17946771011E+02  0.48834355658E+02  0.13872341845E+04  0.13882454983E+04  0.10000000000E+02 0.  1.
</event>
<event>
 5    1  0.1271464E-008  0.3879382E+03  0.7957747E-01  0.3417306E+00
         13   -1    0    0    0    0  0.00000000000E+00  0.00000000000E+00  0.14999999963E+04  0.15000000000E+04  0.10566000000E+00 0.  1.
        994   -1    0    0    0    0 -0.00000000000E+00 -0.00000000000E+00  0.11368683772E-12  0.17120000000E+03  0.17120000000E+03 0.  0.
         13    1    1    2    0    0 -0.35973458988E+02  0.47714116976E+02  0.76963810903E+02  0.97438011387E+02  0.10566000000E+00 0.  1.
        994    1    1    2    0    0  0.20128092389E+02 -0.49424114405E+02  0.31465695909E+02  0.18206431064E+03  0.17120000000E+03 0.  0.
        998    1    1    2    0    0  0.15845366598E+02  0.17099974298E+01  0.13915704895E+04  0.13916976780E+04  0.10000000000E+02 0.  1.
</event>
<event>
 5    1  0.1271464E-008  0.3806981E+03  0.7957747E-01  0.3448124E+00
         13   -1    0    0    0    0  0.00000000000E+00  0.00000000000E+00  0.14999999963E+04  0.15000000000E+04  0.10566000000E+00 0. -1.
        994   -1    0    0    0    0 -0.00000000000E+00 -0.00000000000E+00  0.11368683772E-12  0.17120000000E+03  0.17120000000E+03 0.  0.
         13    1    1    2    0    0 -0.93500074273E+01 -0.81927414597E+01  0.19038627979E+02  0.22738165512E+02  0.10566000000E+00 0. -1.
        994    1    1    2    0    0  0.95973411089E+00  0.72174154885E+01  0.39579986422E+01  0.17140046070E+03  0.17120000000E+03 0.  0.
        998    1    1    2    0    0  0.83902733165E+01  0.97532597119E+00  0.14770033697E+04  0.14770613738E+04  0.10000000000E+02 0. -1.
</event>
<event>
 5    1  0.1271464E-008  0.3724144E+03  0.7957747E-01  0.3484868E+00
         13   -1    0    0    0    0  0.00000000000E+00  0.00000000000E+00  0.14999999963E+04  0.15000000000E+04  0.10566000000E+00 0. -1.
        994   -1    0    0    0    0 -0.00000000000E+00 -0.00000000000E+00  0.11368683772E-12  0.17120000000E+03  0.17120000000E+03 0.  0.
         13    1    1    2    0    0 -0.97187399039E+02 -0.26257041277E+02  0.23971118327E+03  0.25999285624E+03  0.10566000000E+00 0. -1.
        994    1    1    2    0    0  0.14561308385E+03  0.84494753305E+02  0.12011459388E+03  0.26847623580E+03  0.17120000000E+03 0.  0.
        998    1    1    2    0    0 -0.48425684808E+02 -0.58237712029E+02  0.11401742191E+04  0.11427309080E+04  0.10000000000E+02 0. -1.
</event>
<event>
 5    1  0.1271464E-008  0.3830652E+03  0.7957747E-01  0.3437920E+00
         13   -1    0    0    0    0  0.00000000000E+00  0.00000000000E+00  0.14999999963E+04  0.15000000000E+04  0.10566000000E+00 0.  1.
        994   -1    0    0    0    0 -0.00000000000E+00 -0.00000000000E+00  0.11368683772E-12  0.17120000000E+03  0.17120000000E+03 0.  0.
         13    1    1    2    0    0  0.20491492807E+01  0.10277305917E+02  0.20248092814E+02  0.22799527546E+02  0.10566000000E+00 0.  1.
        994    1    1    2    0    0 -0.45031967881E+01 -0.60415815946E+01  0.27817195178E+01  0.17138832356E+03  0.17120000000E+03 0.  0.
        998    1    1    2    0    0  0.24540475074E+01 -0.42357243227E+01  0.14769701839E+04  0.14770121489E+04  0.10000000000E+02 0.  1.
</event>
<event>
 5    1  0.1271464E-008  0.3838157E+03  0.7957747E-01  0.3434711E+00
         13   -1    0    0    0    0  0.00000000000E+00  0.00000000000E+00  0.14999999963E+04  0.15000000000E+04  0.10566000000E+00 0. -1.
        994   -1    0    0    0    0 -0.00000000000E+00 -0.00000000000E+00  0.11368683772E-12  0.17120000000E+03  0.17120000000E+03 0.  0.
         13    1    1    2    0    0  0.22925622676E+02  0.24750248482E+02  0.13126806329E+03  0.13553403476E+03  0.10566000000E+00 0. -1.
        994    1    1    2    0    0 -0.73240242566E+02 -0.88256100612E+02  0.46924666327E+02  0.21134009732E+03  0.17120000000E+03 0.  0.
        998    1    1    2    0    0  0.50314619890E+02  0.63505852130E+02  0.13218072667E+04  0.13243258679E+04  0.10000000000E+02 0. -1.
</event>
<event>
 5    1  0.1271464E-008  0.3806385E+03  0.7957747E-01  0.3448383E+00
         13   -1    0    0    0    0  0.00000000000E+00  0.00000000000E+00  0.14999999963E+04  0.15000000000E+04  0.10566000000E+00 0.  1.
        994   -1    0    0    0    0 -0.00000000000E+00 -0.00000000000E+00  0.11368683772E-12  0.17120000000E+03  0.17120000000E+03 0.  0.
         13    1    1    2    0    0  0.11372341483E+02  0.70285837010E+01  0.22028078565E+02  0.25767781219E+02  0.10566000000E+00 0.  1.
        994    1    1    2    0    0 -0.90158385777E+01  0.90268588662E+00  0.40851202110E+01  0.17148827480E+03  0.17120000000E+03 0.  0.
        998    1    1    2    0    0 -0.23565029051E+01 -0.79312695876E+01  0.14738867975E+04  0.14739439440E+04  0.10000000000E+02 0.  1.
</event>
<event>
 5    1  0.1271464E-008  0.3752357E+03  0.7957747E-01  0.3472169E+00
         13   -1    0    0    0    0  0.00000000000E+00  0.00000000000E+00  0.14999999963E+04  0.15000000000E+04  0.10566000000E+00 0.  1.
        994   -1    0    0    0    0 -0.00000000000E+00 -0.00000000000E+00  0.11368683772E-12  0.17120000000E+03  0.17120000000E+03 0.  0.
         13    1    1    2    0    0 -0.71486258721E+01 -0.76169430062E+01  0.54326774922E+01  0.11774796023E+02  0.10566000000E+00 0.  1.
        994    1    1    2    0    0 -0.53862524967E+00 -0.33948377660E+01  0.65978869309E+01  0.17136156848E+03  0.17120000000E+03 0.  0.
        998    1    1    2    0    0  0.76872511218E+01  0.11011780772E+02  0.14879694319E+04  0.14880636355E+04  0.10000000000E+02 0.  1.
</event>
<event>
 5    1  0.1271464E-008  0.3753302E+03  0.7957747E-01  0.3471748E+00
         13   -1    0    0    0    0  0.00000000000E+00  0.00000000000E+00  0.14999999963E+04  0.15000000000E+04  0.10566000000E+00 0. -1.
        994   -1    0    0    0    0 -0.00000000000E+00 -0.00000000000E+00  0.11368683772E-12  0.17120000000E+03  0.17120000000E+03 0.  0.
         13    1    1    2    0    0  0.10055586059E+03 -0.58596826086E+02  0.35729900098E+03  0.37577607214E+03  0.10566000000E+00 0. -1.
        994    1    1    2    0    0 -0.10458086150E+03  0.55480099673E+02  0.65562703943E+02  0.21822718942E+03  0.17120000000E+03 0.  0.
        998    1    1    2    0    0  0.40250009116E+01  0.31167264124E+01  0.10771382914E+04  0.10771967384E+04  0.10000000000E+02 0. -1.
</event>
<event>
 5    1  0.1271464E-008  0.3820922E+03  0.7957747E-01  0.3442099E+00
         13   -1    0    0    0    0  0.00000000000E+00  0.00000000000E+00  0.14999999963E+04  0.15000000000E+04  0.10566000000E+00 0. -1.
        994   -1    0    0    0    0 -0.00000000000E+00 -0.00000000000E+00  0.11368683772E-12  0.17120000000E+03  0.17120000000E+03 0.  0.
         13    1    1    2    0    0 -0.17384868214E+02  0.26543185678E+01  0.48766075817E+02  0.51840335305E+02  0.10566000000E+00 0. -1.
        994    1    1    2    0    0  0.13123830320E+02 -0.32473998201E+01  0.36877721226E+01  0.17177258277E+03  0.17120000000E+03 0.  0.
        998    1    1    2    0    0  0.42610378937E+01  0.59308125229E+00  0.14475461483E+04  0.14475870819E+04  0.10000000000E+02 0. -1.
</event>
<event>
 5    1  0.1271464E-008  0.3843085E+03  0.7957747E-01  0.3432610E+00
         13   -1    0    0    0    0  0.00000000000E+00  0.00000000000E+00  0.14999999963E+04  0.15000000000E+04  0.10566000000E+00 0. -1.
        994   -1    0    0    0    0 -0.00000000000E+00 -0.00000000000E+00  0.11368683772E-12  0.17120000000E+03  0.17120000000E+03 0.  0.
         13    1    1    2    0    0  0.15504041382E+02 -0.16664447800E+02  0.12804097322E+03  0.13004837987E+03  0.10566000000E+00 0. -1.
        994    1    1    2    0    0 -0.87084360944E+01  0.14796616317E+02  0.29460441368E+01  0.17208397918E+03  0.17120000000E+03 0.  0.
        998    1    1    2    0    0 -0.67956052877E+01  0.18678314825E+01  0.13690129789E+04  0.13690676410E+04  0.10000000000E+02 0. -1.
</event>
<event>
 5    1  0.1271464E-008  0.3750214E+03  0.7957747E-01  0.3473127E+00
         13   -1    0    0    0    0  0.00000000000E+00  0.00000000000E+00  0.14999999963E+04  0.15000000000E+04  0.10566000000E+00 0. -1.
        994   -1    0    0    0    0 -0.00000000000E+00 -0.00000000000E+00  0.11368683772E-12  0.17120000000E+03  0.17120000000E+03 0.  0.
         13    1    1    2    0    0 -0.31500448265E+02 -0.37379423112E+02  0.15458244468E+03  0.16212724287E+03  0.10566000000E+00 0. -1.
        994    1    1    2    0    0  0.40521267339E+02  0.37742875320E+02  0.17162958860E+02  0.18074984067E+03  0.17120000000E+03 0.  0.
        998    1    1    2    0    0 -0.90208190739E+01 -0.36345220854E+00  0.13282545927E+04  0.13283229165E+04  0.10000000000E+02 0. -1.
</event>
<event>
 5    1  0.1271464E-008  0.3831462E+03  0.7957747E-01  0.3437572E+00
         13   -1    0    0    0    0  0.00000000000E+00  0.00000000000E+00  0.14999999963E+04  0.15000000000E+04  0.10566000000E+00 0.  1.
        994   -1    0    0    0    0 -0.00000000000E+00 -0.00000000000E+00  0.11368683772E-12  0.17120000000E+03  0.17120000000E+03 0.  0.
         13    1    1    2    0    0  0.20286510046E+02 -0.99044526445E+01  0.94637717405E+02  0.97293110710E+02  0.10566000000E+00 0.  1.
        994    1    1    2    0    0 -0.22990870940E+02  0.21445705308E+01  0.43193305615E+01  0.17280415489E+03  0.17120000000E+03 0.  0.
        998    1    1    2    0    0  0.27043608940E+01  0.77598821137E+01  0.14010429483E+04  0.14011027344E+04  0.10000000000E+02 0.  1.
</event>
<event>
 5    1  0.1271464E-008  0.3739613E+03  0.7957747E-01  0.3477881E+00
         13   -1    0    0    0    0  0.00000000000E+00  0.00000000000E+00  0.14999999963E+04  0.15000000000E+04  0.10566000000E+00 0.  1.
        994   -1    0    0    0    0 -0.00000000000E+00 -0.00000000000E+00  0.11368683772E-12  0.17120000000E+03  0.17120000000E+03 0.  0.
         13    1    1    2    0    0  0.17344219717E+02 -0.86597733569E+01  0.22595714272E+02  0.29772321033E+02  0.10566000000E+00 0.  1.
        994    1    1    2    0    0 -0.15644315591E+02  0.14969190326E+02  0.88139192513E+01  0.17278873355E+03  0.17120000000E+03 0.  0.
        998    1    1    2    0    0 -0.16999041266E+01 -0.63094169691E+01  0.14685903628E+04  0.14686389454E+04  0.10000000000E+02 0.  1.
</event>
<event>
 5    1  0.1271464E-008  0.3960648E+03  0.7957747E-01  0.3384059E+00
         13   -1    0    0    0    0  0.00000000000E+00  0.00000000000E+00  0.14999999963E+04  0.15000000000E+04  0.10566000000E+00 0.  1.
        994   -1    0    0    0    0 -0.00000000000E+00 -0.00000000000E+00  0.11368683772E-12  0.17120000000E+03  0.17120000000E+03 0.  0.
         13    1    1    2    0    0 -0.22832871873E+02  0.41150234417E+02  0.32590622898E+02  0.57243704417E+02  0.10566000000E+00 0.  1.
        994    1    1    2    0    0  0.17101157105E+02 -0.51435484892E+02  0.36855379337E+02  0.18331889610E+03  0.17120000000E+03 0.  0.
        998    1    1    2    0    0  0.57317147685E+01  0.10285250476E+02  0.14305539940E+04  0.14306373995E+04  0.10000000000E+02 0.  1.
</event>
<event>
 5    1  0.1271464E-008  0.3690653E+03  0.7957747E-01  0.3500197E+00
         13   -1    0    0    0    0  0.00000000000E+00  0.00000000000E+00  0.14999999963E+04  0.15000000000E+04  0.10566000000E+00 0.  1.
        994   -1    0    0    0    0 -0.00000000000E+00 -0.00000000000E+00  0.11368683772E-12  0.17120000000E+03  0.17120000000E+03 0.  0.
         13    1    1    2    0    0  0.38282696335E+01  0.16337538557E+02  0.87168207976E+01  0.18909387704E+02  0.10566000000E+00 0.  1.
        994    1    1    2    0    0 -0.27437784987E+01 -0.16476701083E+02  0.11418245007E+02  0.17239149143E+03  0.17120000000E+03 0.  0.
        998    1    1    2    0    0 -0.10844911349E+01  0.13916252619E+00  0.14798649305E+04  0.14798991209E+04  0.10000000000E+02 0.  1.
</event>
<event>
 5    1  0.1271464E-008  0.3798295E+03  0.7957747E-01  0.3451901E+00
         13   -1    0    0    0    0  0.00000000000E+00  0.00000000000E+00  0.14999999963E+04  0.15000000000E+04  0.10566000000E+00 0.  1.
        994   -1    0    0    0    0 -0.00000000000E+00 -0.00000000000E+00  0.11368683772E-12  0.17120000000E+03  0.17120000000E+03 0.  0.
         13    1    1    2    0    0  0.19824428746E+02 -0.27395769048E+02  0.13444335309E+03  0.13863103004E+03  0.10566000000E+00 0.  1.
        994    1    1    2    0    0 -0.16679323688E+02  0.12161230088E+02  0.56457489745E+01  0.17253234432E+03  0.17120000000E+03 0.  0.
        998    1    1    2    0    0 -0.31451050585E+01  0.15234538960E+02  0.13599108942E+04  0.13600366256E+04  0.10000000000E+02 0.  1.
</event>
<event>
 5    1  0.1271464E-008  0.3833662E+03  0.7957747E-01  0.3436631E+00
         13   -1    0    0    0    0  0.00000000000E+00  0.00000000000E+00  0.14999999963E+04  0.15000000000E+04  0.10566000000E+00 0.  1.
        994   -1    0    0    0    0 -0.00000000000E+00 -0.00000000000E+00  0.11368683772E-12  0.17120000000E+03  0.17120000000E+03 0.  0.
         13    1    1    2    0    0 -0.80569210359E+01  0.80843461019E+01  0.26561615723E+02  0.28910226950E+02  0.10566000000E+00 0.  1.
        994    1    1    2    0    0 -0.24751590857E+01 -0.26190039375E+01  0.24864270821E+01  0.17125597191E+03  0.17120000000E+03 0.  0.
        998    1    1    2    0    0  0.10532080122E+02 -0.54653421644E+01  0.14709519535E+04  0.14710338011E+04  0.10000000000E+02 0.  1.
</event>
<event>
 5    1  0.1271464E-008  0.3811825E+03  0.7957747E-01  0.3446026E+00
         13   -1    0    0    0    0  0.00000000000E+00  0.00000000000E+00  0.14999999963E+04  0.15000000000E+04  0.10566000000E+00 0. -1.
        994   -1    0    0    0    0 -0.00000000000E+00 -0.00000000000E+00  0.11368683772E-12  0.17120000000E+03  0.17120000000E+03 0.  0.
         13    1    1    2    0    0 -0.13895732108E+02 -0.10836987221E+01  0.23256199599E+02  0.27113239525E+02  0.10566000000E+00 0. -1.
        994    1    1    2    0    0  0.47405089371E+02  0.44689287665E+01  0.11124134998E+02  0.17804606202E+03  0.17120000000E+03 0.  0.
        998    1    1    2    0    0 -0.33509357263E+02 -0.33852300444E+01  0.14656196617E+04  0.14660406985E+04  0.10000000000E+02 0. -1.
</event>
<event>
 5    1  0.1271464E-008  0.3731716E+03  0.7957747E-01  0.3481441E+00
         13   -1    0    0    0    0  0.00000000000E+00  0.00000000000E+00  0.14999999963E+04  0.15000000000E+04  0.10566000000E+00 0. -1.
        994   -1    0    0    0    0 -0.00000000000E+00 -0.00000000000E+00  0.11368683772E-12  0.17120000000E+03  0.17120000000E+03 0.  0.
         13    1    1    2    0    0 -0.23596740857E+02  0.12563932377E+02  0.42383891016E+02  0.50110517434E+02  0.10566000000E+00 0. -1.
        994    1    1    2    0    0  0.25708098051E+02 -0.15294804372E+02  0.10687371363E+02  0.17412207572E+03  0.17120000000E+03 0.  0.
        998    1    1    2    0    0 -0.21113571945E+01  0.27308719945E+01  0.14469287339E+04  0.14469674068E+04  0.10000000000E+02 0. -1.
</event>
<event>
 5    1  0.1776655E-008  0.3850281E+03  0.7957747E-01  0.3429553E+00
         13   -1    0    0    0    0  0.00000000000E+00  0.00000000000E+00  0.14999999963E+04  0.15000000000E+04  0.10566000000E+00 0. -1.
        994   -1    0    0    0    0 -0.00000000000E+00 -0.00000000000E+00  0.11368683772E-12  0.17120000000E+03  0.17120000000E+03 0.  0.
         13    1    1    2    0    0 -0.90002144778E+01  0.95964955908E+01  0.55946061807E+02  0.57472337555E+02  0.10566000000E+00 0. -1.
        994    1    1    2    0    0  0.37153471422E+01  0.16016578525E+01  0.16700285236E+01  0.17125594328E+03  0.17120000000E+03 0.  0.
        998    1    1    2    0    0  0.52848673356E+01 -0.11198153443E+02  0.14423839059E+04  0.14424717192E+04  0.10000000000E+02 0. -1.
</event>
<event>
 5    1  0.1271464E-008  0.3717992E+03  0.7957747E-01  0.3487663E+00
         13   -1    0    0    0    0  0.00000000000E+00  0.00000000000E+00  0.14999999963E+04  0.15000000000E+04  0.10566000000E+00 0.  1.
        994   -1    0    0    0    0 -0.00000000000E+00 -0.00000000000E+00  0.11368683772E-12  0.17120000000E+03  0.17120000000E+03 0.  0.
         13    1    1    2    0    0 -0.19612602049E+01 -0.14577698131E+02  0.91464512564E+01  0.17321217019E+02  0.10566000000E+00 0.  1.
        994    1    1    2    0    0  0.50830305731E+01  0.14459060978E+02  0.91392756237E+01  0.17212747603E+03  0.17120000000E+03 0.  0.
        998    1    1    2    0    0 -0.31217703683E+01  0.11863715282E+00  0.14817142694E+04  0.14817513070E+04  0.10000000000E+02 0.  1.
</event>
<event>
 5    1  0.1271464E-008  0.3811735E+03  0.7957747E-01  0.3446065E+00
         13   -1    0    0    0    0  0.00000000000E+00  0.00000000000E+00  0.14999999963E+04  0.15000000000E+04  0.10566000000E+00 0.  1.
        994   -1    0    0    0    0 -0.00000000000E+00 -0.00000000000E+00  0.11368683772E-12  0.17120000000E+03  0.17120000000E+03 0.  0.
         13    1    1    2    0    0 -0.19867144474E+03 -0.27335773656E+02  0.11089160606E+04  0.11269039126E+04  0.10566000000E+00 0.  1.
        994    1    1    2    0    0  0.19543260624E+03  0.36406105093E+02  0.14879597578E+03  0.30161066042E+03  0.17120000000E+03 0.  0.
        998    1    1    2    0    0  0.32388384949E+01 -0.90703314361E+01  0.24228795988E+03  0.24268542702E+03  0.10000000000E+02 0. -1.
</event>
<event>
 5    1  0.1271464E-008  0.3746755E+03  0.7957747E-01  0.3474675E+00
         13   -1    0    0    0    0  0.00000000000E+00  0.00000000000E+00  0.14999999963E+04  0.15000000000E+04  0.10566000000E+00 0.  1.
        994   -1    0    0    0    0 -0.00000000000E+00 -0.00000000000E+00  0.11368683772E-12  0.17120000000E+03  0.17120000000E+03 0.  0.
         13    1    1    2    0    0 -0.28763283035E+02 -0.20893783068E+02  0.89660712541E+02  0.96451703766E+02  0.10566000000E+00 0.  1.
        994    1    1    2    0    0  0.19641184251E+02  0.11388759762E+02  0.86015662055E+01  0.17291300387E+03  0.17120000000E+03 0.  0.
        998    1    1    2    0    0  0.91220987846E+01  0.95050233057E+01  0.14017377175E+04  0.14018352924E+04  0.10000000000E+02 0.  1.
</event>
<event>
 5    1  0.1271464E-008  0.3849887E+03  0.7957747E-01  0.3429720E+00
         13   -1    0    0    0    0  0.00000000000E+00  0.00000000000E+00  0.14999999963E+04  0.15000000000E+04  0.10566000000E+00 0. -1.
        994   -1    0    0    0    0 -0.00000000000E+00 -0.00000000000E+00  0.11368683772E-12  0.17120000000E+03  0.17120000000E+03 0.  0.
         13    1    1    2    0    0  0.61458482230E+01  0.13559088694E+02  0.74788953672E+02  0.76256272476E+02  0.10566000000E+00 0. -1.
        994    1    1    2    0    0  0.34462170048E+01  0.34056132581E+01  0.17129478587E+01  0.17127711115E+03  0.17120000000E+03 0.  0.
        998    1    1    2    0    0 -0.95920652278E+01 -0.16964701952E+02  0.14234980947E+04  0.14236666164E+04  0.10000000000E+02 0. -1.
</event>
<event>
 5    1  0.1271464E-008  0.3862147E+03  0.7957747E-01  0.3424537E+00
         13   -1    0    0    0    0  0.00000000000E+00  0.00000000000E+00  0.14999999963E+04  0.15000000000E+04  0.10566000000E+00 0.  1.
        994   -1    0    0    0    0 -0.00000000000E+00 -0.00000000000E+00  0.11368683772E-12  0.17120000000E+03  0.17120000000E+03 0.  0.
         13    1    1    2    0    0 -0.13015408184E+02 -0.42737633463E+01  0.75238489973E+02  0.76475534917E+02  0.10566000000E+00 0.  1.
        994    1    1    2    0    0  0.27556333822E+02  0.28202784141E+02  0.61378431015E+01  0.17578925361E+03  0.17120000000E+03 0.  0.
        998    1    1    2    0    0 -0.14540925638E+02 -0.23929020795E+02  0.14186236632E+04  0.14189352115E+04  0.10000000000E+02 0.  1.
</event>
<event>
 5    1  0.1271464E-008  0.3837041E+03  0.7957747E-01  0.3435187E+00
         13   -1    0    0    0    0  0.00000000000E+00  0.00000000000E+00  0.14999999963E+04  0.15000000000E+04  0.10566000000E+00 0.  1.
        994   -1    0    0    0    0 -0.00000000000E+00 -0.00000000000E+00  0.11368683772E-12  0.17120000000E+03  0.17120000000E+03 0.  0.
         13    1    1    2    0    0 -0.18853604280E+02  0.10152244850E+02  0.10972423300E+03  0.11179420799E+03  0.10566000000E+00 0.  1.
        994    1    1    2    0    0  0.23705800628E+01  0.28056227423E+01  0.23194479513E+01  0.17125510506E+03  0.17120000000E+03 0.  0.
        998    1    1    2    0    0  0.16483024217E+02 -0.12957867592E+02  0.13879563153E+04  0.13881506870E+04  0.10000000000E+02 0.  1.
</event>
<event>
 5    1  0.1271464E-008  0.3794636E+03  0.7957747E-01  0.3453497E+00
         13   -1    0    0    0    0  0.00000000000E+00  0.00000000000E+00  0.14999999963E+04  0.15000000000E+04  0.10566000000E+00 0.  1.
        994   -1    0    0    0    0 -0.00000000000E+00 -0.00000000000E+00  0.11368683772E-12  0.17120000000E+03  0.17120000000E+03 0.  0.
         13    1    1    2    0    0 -0.19090532001E+02 -0.64590562618E+01  0.44973843505E+02  0.49283116617E+02  0.10566000000E+00 0.  1.
        994    1    1    2    0    0  0.91465462468E+01  0.35979760648E+01  0.47277226416E+01  0.17154706672E+03  0.17120000000E+03 0.  0.
        998    1    1    2    0    0  0.99439857543E+01  0.28610801970E+01  0.14502984301E+04  0.14503698167E+04  0.10000000000E+02 0.  1.
</event>
<event>
 5    1  0.1271464E-008  0.3754354E+03  0.7957747E-01  0.3471278E+00
         13   -1    0    0    0    0  0.00000000000E+00  0.00000000000E+00  0.14999999963E+04  0.15000000000E+04  0.10566000000E+00 0.  1.
        994   -1    0    0    0    0 -0.00000000000E+00 -0.00000000000E+00  0.11368683772E-12  0.17120000000E+03  0.17120000000E+03 0.  0.
         13    1    1    2    0    0 -0.39190840832E+02 -0.72456811695E+02  0.30090277927E+03  0.31197500750E+03  0.10566000000E+00 0.  1.
        994    1    1    2    0    0  0.68958230502E+01  0.76891759705E+01  0.14222527906E+02  0.17209995962E+03  0.17120000000E+03 0.  0.
        998    1    1    2    0    0  0.32295017782E+02  0.64767635725E+02  0.11848746891E+04  0.11871250329E+04  0.10000000000E+02 0.  1.
</event>
<event>
 5    1  0.1271464E-008  0.3811553E+03  0.7957747E-01  0.3446143E+00
         13   -1    0    0    0    0  0.00000000000E+00  0.00000000000E+00  0.14999999963E+04  0.15000000000E+04  0.10566000000E+00 0.  1.
        994   -1    0    0    0    0 -0.00000000000E+00 -0.00000000000E+00  0.11368683772E-12  0.17120000000E+03  0.17120000000E+03 0.  0.
         13    1    1    2    0    0 -0.17980136409E+02 -0.13345218138E+02  0.65077774872E+02  0.68822293617E+02  0.10566000000E+00 0.  1.
        994    1    1    2    0    0  0.21792604468E+02  0.18540809882E+02  0.62822321790E+01  0.17368818521E+03  0.17120000000E+03 0.  0.
        998    1    1    2    0    0 -0.38124680598E+01 -0.51955917434E+01  0.14286399892E+04  0.14286895212E+04  0.10000000000E+02 0.  1.
</event>
<event>
 5    1  0.1271464E-008  0.3696867E+03  0.7957747E-01  0.3497332E+00
         13   -1    0    0    0    0  0.00000000000E+00  0.00000000000E+00  0.14999999963E+04  0.15000000000E+04  0.10566000000E+00 0.  1.
        994   -1    0    0    0    0 -0.00000000000E+00 -0.00000000000E+00  0.11368683772E-12  0.17120000000E+03  0.17120000000E+03 0.  0.
         13    1    1    2    0    0 -0.16092025958E+02 -0.26062930357E+02  0.44080537098E+02  0.53678063984E+02  0.10566000000E+00 0.  1.
        994    1    1    2    0    0  0.21040168930E+02  0.29744795472E+02  0.14041659850E+02  0.17559626926E+03  0.17120000000E+03 0.  0.
        998    1    1    2    0    0 -0.49481429715E+01 -0.36818651146E+01  0.14418777993E+04  0.14419256668E+04  0.10000000000E+02 0.  1.
</event>
<event>
 5    1  0.1271464E-008  0.3838949E+03  0.7957747E-01  0.3434372E+00
         13   -1    0    0    0    0  0.00000000000E+00  0.00000000000E+00  0.14999999963E+04  0.15000000000E+04  0.10566000000E+00 0.  1.
        994   -1    0    0    0    0 -0.00000000000E+00 -0.00000000000E+00  0.11368683772E-12  0.17120000000E+03  0.17120000000E+03 0.  0.
         13    1    1    2    0    0 -0.10978536440E+02 -0.16373751622E+02  0.11118140030E+03  0.11291564525E+03  0.10566000000E+00 0.  1.
        994    1    1    2    0    0 -0.52399808513E+01 -0.17467318948E+02  0.32781610737E+01  0.17219974149E+03  0.17120000000E+03 0.  0.
        998    1    1    2    0    0  0.16218517292E+02  0.33841070570E+02  0.13855404349E+04  0.13860846133E+04  0.10000000000E+02 0.  1.
</event>
<event>
 5    1  0.1271464E-008  0.3800271E+03  0.7957747E-01  0.3451041E+00
         13   -1    0    0    0    0  0.00000000000E+00  0.00000000000E+00  0.14999999963E+04  0.15000000000E+04  0.10566000000E+00 0. -1.
        994   -1    0    0    0    0 -0.00000000000E+00 -0.00000000000E+00  0.11368683772E-12  0.17120000000E+03  0.17120000000E+03 0.  0.
         13    1    1    2    0    0 -0.12490289809E+02  0.35158880586E+01  0.18748858321E+02  0.22801308312E+02  0.10566000000E+00 0. -1.
        994    1    1    2    0    0  0.79062157994E+01 -0.26183222451E+01  0.43513739332E+01  0.17145768666E+03  0.17120000000E+03 0.  0.
        998    1    1    2    0    0  0.45840740095E+01 -0.89756581349E+00  0.14768997640E+04  0.14769410050E+04  0.10000000000E+02 0. -1.
</event>
<event>
 5    1  0.1271464E-008  0.3836883E+03  0.7957747E-01  0.3435254E+00
         13   -1    0    0    0    0  0.00000000000E+00  0.00000000000E+00  0.14999999963E+04  0.15000000000E+04  0.10566000000E+00 0.  1.
        994   -1    0    0    0    0 -0.00000000000E+00 -0.00000000000E+00  0.11368683772E-12  0.17120000000E+03  0.17120000000E+03 0.  0.
         13    1    1    2    0    0 -0.15193772405E+02 -0.85177119711E+01  0.74970396516E+02  0.76967354476E+02  0.10566000000E+00 0.  1.
        994    1    1    2    0    0 -0.64790657124E+01 -0.96547609431E+01  0.27293802455E+01  0.17161608962E+03  0.17120000000E+03 0.  0.
        998    1    1    2    0    0  0.21672838117E+02  0.18172472914E+02  0.14223002195E+04  0.14226165559E+04  0.10000000000E+02 0.  1.
</event>
<event>
 5    1  0.1271464E-008  0.3750653E+03  0.7957747E-01  0.3472931E+00
         13   -1    0    0    0    0  0.00000000000E+00  0.00000000000E+00  0.14999999963E+04  0.15000000000E+04  0.10566000000E+00 0. -1.
        994   -1    0    0    0    0 -0.00000000000E+00 -0.00000000000E+00  0.11368683772E-12  0.17120000000E+03  0.17120000000E+03 0.  0.
         13    1    1    2    0    0 -0.17294370039E+01 -0.11319524133E+02  0.70599372416E+01  0.13452749044E+02  0.10566000000E+00 0. -1.
        994    1    1    2    0    0  0.11556555536E+02 -0.80727176697E+01  0.73208500508E+01  0.17193532968E+03  0.17120000000E+03 0.  0.
        998    1    1    2    0    0 -0.98271185320E+01  0.19392241802E+02  0.14856192090E+04  0.14858119213E+04  0.10000000000E+02 0. -1.
</event>
<event>
 5    1  0.1271464E-008  0.3843761E+03  0.7957747E-01  0.3432323E+00
         13   -1    0    0    0    0  0.00000000000E+00  0.00000000000E+00  0.14999999963E+04  0.15000000000E+04  0.10566000000E+00 0.  1.
        994   -1    0    0    0    0 -0.00000000000E+00 -0.00000000000E+00  0.11368683772E-12  0.17120000000E+03  0.17120000000E+03 0.  0.
         13    1    1    2    0    0  0.21436844003E+02 -0.88405394079E+01  0.12428729850E+03  0.12643194672E+03  0.10566000000E+00 0.  1.
        994    1    1    2    0    0 -0.30804220535E+02 -0.13213963597E+01  0.50792013684E+01  0.17402840107E+03  0.17120000000E+03 0.  0.
        998    1    1    2    0    0  0.93673765319E+01  0.10161935768E+02  0.13706334964E+04  0.13707396522E+04  0.10000000000E+02 0.  1.
</event>
<event>
 5    1  0.1271464E-008  0.3851148E+03  0.7957747E-01  0.3429186E+00
         13   -1    0    0    0    0  0.00000000000E+00  0.00000000000E+00  0.14999999963E+04  0.15000000000E+04  0.10566000000E+00 0.  1.
        994   -1    0    0    0    0 -0.00000000000E+00 -0.00000000000E+00  0.11368683772E-12  0.17120000000E+03  0.17120000000E+03 0.  0.
         13    1    1    2    0    0  0.13510482691E+02 -0.40819837614E+01  0.57673492687E+02  0.59375404476E+02  0.10566000000E+00 0.  1.
        994    1    1    2    0    0 -0.20860428674E+02  0.18317093618E+02  0.41108011616E+01  0.17348490450E+03  0.17120000000E+03 0.  0.
        998    1    1    2    0    0  0.73499459823E+01 -0.14235109857E+02  0.14382157024E+04  0.14383396910E+04  0.10000000000E+02 0.  1.
</event>
<event>
 5    1  0.1271464E-008  0.3802746E+03  0.7957747E-01  0.3449964E+00
         13   -1    0    0    0    0  0.00000000000E+00  0.00000000000E+00  0.14999999963E+04  0.15000000000E+04  0.10566000000E+00 0. -1.
        994   -1    0    0    0    0 -0.00000000000E+00 -0.00000000000E+00  0.11368683772E-12  0.17120000000E+03  0.17120000000E+03 0.  0.
         13    1    1    2    0    0  0.41874551211E+01  0.11294331065E+02  0.16363435954E+02  0.20319200153E+02  0.10566000000E+00 0. -1.
        994    1    1    2    0    0 -0.48145800383E+01 -0.10015367842E+02  0.44071184597E+01  0.17161687116E+03  0.17120000000E+03 0.  0.
        998    1    1    2    0    0  0.62712491712E+00 -0.12789632223E+01  0.14792294419E+04  0.14792639287E+04  0.10000000000E+02 0. -1.
</event>
<event>
 5    1  0.1271464E-008  0.3737015E+03  0.7957747E-01  0.3479050E+00
         13   -1    0    0    0    0  0.00000000000E+00  0.00000000000E+00  0.14999999963E+04  0.15000000000E+04  0.10566000000E+00 0. -1.
        994   -1    0    0    0    0 -0.00000000000E+00 -0.00000000000E+00  0.11368683772E-12  0.17120000000E+03  0.17120000000E+03 0.  0.
         13    1    1    2    0    0  0.94544138252E+02 -0.64548790941E+02  0.52317379282E+03  0.53555202282E+03  0.10566000000E+00 0. -1.
        994    1    1    2    0    0 -0.10243949836E+03  0.63875775400E+02  0.58863603606E+02  0.21759671260E+03  0.17120000000E+03 0.  0.
        998    1    1    2    0    0  0.78953601043E+01  0.67301554127E+00  0.91796259985E+03  0.91805126457E+03  0.10000000000E+02 0. -1.
</event>
<event>
 5    1  0.1271464E-008  0.3224161E+03  0.7957747E-01  0.3747938E+00
         13   -1    0    0    0    0  0.00000000000E+00  0.00000000000E+00  0.14999999963E+04  0.15000000000E+04  0.10566000000E+00 0.  1.
        994   -1    0    0    0    0 -0.00000000000E+00 -0.00000000000E+00  0.11368683772E-12  0.17120000000E+03  0.17120000000E+03 0.  0.
         13    1    1    2    0    0 -0.17706804683E+03  0.10166393296E+03  0.78825533523E+03  0.81426969313E+03  0.10566000000E+00 0.  1.
        994    1    1    2    0    0  0.17375235263E+03 -0.94547669929E+02  0.16341368933E+03  0.30845196675E+03  0.17120000000E+03 0.  0.
        998    1    1    2    0    0  0.33156942036E+01 -0.71162630339E+01  0.54833097172E+03  0.54847834012E+03  0.10000000000E+02 0.  0.
</event>
<event>
 5    1  0.1271464E-008  0.3857196E+03  0.7957747E-01  0.3426626E+00
         13   -1    0    0    0    0  0.00000000000E+00  0.00000000000E+00  0.14999999963E+04  0.15000000000E+04  0.10566000000E+00 0. -1.
        994   -1    0    0    0    0 -0.00000000000E+00 -0.00000000000E+00  0.11368683772E-12  0.17120000000E+03  0.17120000000E+03 0.  0.
         13    1    1    2    0    0  0.60879378391E+01 -0.10923768925E+02  0.62840057752E+02  0.64072425714E+02  0.10566000000E+00 0. -1.
        994    1    1    2    0    0 -0.11100560294E+02  0.98762935480E+00  0.16809119794E+01  0.17157057823E+03  0.17120000000E+03 0.  0.
        998    1    1    2    0    0  0.50126224548E+01  0.99361395705E+01  0.14354790265E+04  0.14355569961E+04  0.10000000000E+02 0. -1.
</event>
<event>
 5    1  0.1271464E-008  0.3821274E+03  0.7957747E-01  0.3441947E+00
         13   -1    0    0    0    0  0.00000000000E+00  0.00000000000E+00  0.14999999963E+04  0.15000000000E+04  0.10566000000E+00 0. -1.
        994   -1    0    0    0    0 -0.00000000000E+00 -0.00000000000E+00  0.11368683772E-12  0.17120000000E+03  0.17120000000E+03 0.  0.
         13    1    1    2    0    0 -0.17921983148E+01 -0.28386995979E+02  0.11267041376E+03  0.11620527878E+03  0.10566000000E+00 0. -1.
        994    1    1    2    0    0  0.46888657145E+01  0.41789026867E+02  0.89554730684E+01  0.17651614296E+03  0.17120000000E+03 0.  0.
        998    1    1    2    0    0 -0.28966673997E+01 -0.13402030887E+02  0.13783741094E+04  0.13784785783E+04  0.10000000000E+02 0. -1.
</event>
<event>
 5    1  0.1271464E-008  0.3780643E+03  0.7957747E-01  0.3459630E+00
         13   -1    0    0    0    0  0.00000000000E+00  0.00000000000E+00  0.14999999963E+04  0.15000000000E+04  0.10566000000E+00 0. -1.
        994   -1    0    0    0    0 -0.00000000000E+00 -0.00000000000E+00  0.11368683772E-12  0.17120000000E+03  0.17120000000E+03 0.  0.
         13    1    1    2    0    0 -0.30683822975E+02  0.10031146543E+02  0.27653671051E+02  0.42507147399E+02  0.10566000000E+00 0. -1.
        994    1    1    2    0    0  0.18533847259E+02 -0.33216895436E+02  0.20491743121E+02  0.17656788262E+03  0.17120000000E+03 0.  0.
        998    1    1    2    0    0  0.12149975716E+02  0.23185748893E+02  0.14518545821E+04  0.14521249700E+04  0.10000000000E+02 0. -1.
</event>
<event>
 5    1  0.1271464E-008  0.3837647E+03  0.7957747E-01  0.3434928E+00
         13   -1    0    0    0    0  0.00000000000E+00  0.00000000000E+00  0.14999999963E+04  0.15000000000E+04  0.10566000000E+00 0. -1.
        994   -1    0    0    0    0 -0.00000000000E+00 -0.00000000000E+00  0.11368683772E-12  0.17120000000E+03  0.17120000000E+03 0.  0.
         13    1    1    2    0    0  0.68199193974E+01 -0.10797100708E+02  0.38195953203E+02  0.40274442137E+02  0.10566000000E+00 0. -1.
        994    1    1    2    0    0  0.43564886110E+01 -0.55137956672E+01  0.24077567746E+01  0.17136107559E+03  0.17120000000E+03 0.  0.
        998    1    1    2    0    0 -0.11176408008E+02  0.16310896375E+02  0.14593962863E+04  0.14595644823E+04  0.10000000000E+02 0. -1.
</event>
<event>
 5    1  0.1271464E-008  0.3841338E+03  0.7957747E-01  0.3433354E+00
         13   -1    0    0    0    0  0.00000000000E+00  0.00000000000E+00  0.14999999963E+04  0.15000000000E+04  0.10566000000E+00 0.  1.
        994   -1    0    0    0    0 -0.00000000000E+00 -0.00000000000E+00  0.11368683772E-12  0.17120000000E+03  0.17120000000E+03 0.  0.
         13    1    1    2    0    0 -0.45012402959E+01  0.13649264466E+02  0.49257175982E+02  0.51311247641E+02  0.10566000000E+00 0.  1.
        994    1    1    2    0    0  0.36818007627E+01 -0.10714476146E+02  0.24842418593E+01  0.17159244480E+03  0.17120000000E+03 0.  0.
        998    1    1    2    0    0  0.81943953316E+00 -0.29347883196E+01  0.14482585784E+04  0.14482963076E+04  0.10000000000E+02 0.  1.
</event>
<event>
 5    1  0.1271464E-008  0.3822202E+03  0.7957747E-01  0.3441548E+00
         13   -1    0    0    0    0  0.00000000000E+00  0.00000000000E+00  0.14999999963E+04  0.15000000000E+04  0.10566000000E+00 0.  1.
        994   -1    0    0    0    0 -0.00000000000E+00 -0.00000000000E+00  0.11368683772E-12  0.17120000000E+03  0.17120000000E+03 0.  0.
         13    1    1    2    0    0 -0.11466032246E+02 -0.20684507459E+02  0.95933082636E+02  0.98805294658E+02  0.10566000000E+00 0.  1.
        994    1    1    2    0    0 -0.54454929198E+01  0.11155193443E+02  0.35281202063E+01  0.17168569936E+03  0.17120000000E+03 0.  0.
        998    1    1    2    0    0  0.16911525166E+02  0.95293140158E+01  0.14005387934E+04  0.14007090060E+04  0.10000000000E+02 0.  1.
</event>
<event>
 5    1  0.1271464E-008  0.2487985E+03  0.7957747E-01  0.4346525E+00
         13   -1    0    0    0    0  0.00000000000E+00  0.00000000000E+00  0.14999999963E+04  0.15000000000E+04  0.10566000000E+00 0.  1.
        994   -1    0    0    0    0 -0.00000000000E+00 -0.00000000000E+00  0.11368683772E-12  0.17120000000E+03  0.17120000000E+03 0.  0.
         13    1    1    2    0    0  0.13392607367E+03  0.13099651311E+03  0.17804130455E+03  0.25844728078E+03  0.10566000000E+00 0.  1.
        994    1    1    2    0    0 -0.11868525453E+03 -0.12198353024E+03  0.27632427206E+03  0.36692058353E+03  0.17120000000E+03 0.  0.
        998    1    1    2    0    0 -0.15240819134E+02 -0.90129828727E+01  0.10456344197E+04  0.10458321357E+04  0.10000000000E+02 0. -1.
</event>
<event>
 5    1  0.1271464E-008  0.3826920E+03  0.7957747E-01  0.3439520E+00
         13   -1    0    0    0    0  0.00000000000E+00  0.00000000000E+00  0.14999999963E+04  0.15000000000E+04  0.10566000000E+00 0.  1.
        994   -1    0    0    0    0 -0.00000000000E+00 -0.00000000000E+00  0.11368683772E-12  0.17120000000E+03  0.17120000000E+03 0.  0.
         13    1    1    2    0    0 -0.59140295327E+01  0.26594376771E+02  0.12555388672E+03  0.12847578081E+03  0.10566000000E+00 0.  1.
        994    1    1    2    0    0  0.40311199130E+01 -0.24168115007E+02  0.47721294159E+01  0.17301029140E+03  0.17120000000E+03 0.  0.
        998    1    1    2    0    0  0.18829096197E+01 -0.24262617645E+01  0.13696739801E+04  0.13697139278E+04  0.10000000000E+02 0.  1.
</event>
<event>
 5    1  0.1271464E-008  0.3825905E+03  0.7957747E-01  0.3439956E+00
         13   -1    0    0    0    0  0.00000000000E+00  0.00000000000E+00  0.14999999963E+04  0.15000000000E+04  0.10566000000E+00 0.  1.
        994   -1    0    0    0    0 -0.00000000000E+00 -0.00000000000E+00  0.11368683772E-12  0.17120000000E+03  0.17120000000E+03 0.  0.
         13    1    1    2    0    0  0.36968009296E+01 -0.10174739529E+02  0.19332059611E+02  0.22156970786E+02  0.10566000000E+00 0.  1.
        994    1    1    2    0    0 -0.33181503655E+01  0.11933478778E+02  0.33398182743E+01  0.17167997095E+03  0.17120000000E+03 0.  0.
        998    1    1    2    0    0 -0.37865056407E+00 -0.17587392487E+01  0.14773281184E+04  0.14773630583E+04  0.10000000000E+02 0.  1.
</event>
<event>
 5    1  0.1271464E-008  0.3827580E+03  0.7957747E-01  0.3439237E+00
         13   -1    0    0    0    0  0.00000000000E+00  0.00000000000E+00  0.14999999963E+04  0.15000000000E+04  0.10566000000E+00 0. -1.
        994   -1    0    0    0    0 -0.00000000000E+00 -0.00000000000E+00  0.11368683772E-12  0.17120000000E+03  0.17120000000E+03 0.  0.
         13    1    1    2    0    0  0.56014854139E+01  0.84733346342E+01  0.17717243168E+02  0.20422681219E+02  0.10566000000E+00 0. -1.
        994    1    1    2    0    0 -0.72792251847E+00 -0.80173456499E+01  0.29620963586E+01  0.17141476517E+03  0.17120000000E+03 0.  0.
        998    1    1    2    0    0 -0.48735628954E+01 -0.45598898435E+00  0.14793206568E+04  0.14793625536E+04  0.10000000000E+02 0. -1.
</event>
<event>
 5    1  0.1271464E-008  0.3831983E+03  0.7957747E-01  0.3437350E+00
         13   -1    0    0    0    0  0.00000000000E+00  0.00000000000E+00  0.14999999963E+04  0.15000000000E+04  0.10566000000E+00 0. -1.
        994   -1    0    0    0    0 -0.00000000000E+00 -0.00000000000E+00  0.11368683772E-12  0.17120000000E+03  0.17120000000E+03 0.  0.
         13    1    1    2    0    0 -0.20568871769E+02 -0.21924711362E+02  0.15228182436E+03  0.15522092851E+03  0.10566000000E+00 0. -1.
        994    1    1    2    0    0  0.28575501065E+02  0.25351148239E+02  0.73694677714E+01  0.17556477162E+03  0.17120000000E+03 0.  0.
        998    1    1    2    0    0 -0.80066292958E+01 -0.34264368772E+01  0.13403487041E+04  0.13404142999E+04  0.10000000000E+02 0. -1.
</event>
<event>
 5    1  0.1271464E-008  0.3841181E+03  0.7957747E-01  0.3433421E+00
         13   -1    0    0    0    0  0.00000000000E+00  0.00000000000E+00  0.14999999963E+04  0.15000000000E+04  0.10566000000E+00 0. -1.
        994   -1    0    0    0    0 -0.00000000000E+00 -0.00000000000E+00  0.11368683772E-12  0.17120000000E+03  0.17120000000E+03 0.  0.
         13    1    1    2    0    0 -0.59245137673E+01 -0.13922664489E+02  0.52760910879E+02  0.54887752101E+02  0.10566000000E+00 0. -1.
        994    1    1    2    0    0  0.91187394767E+01  0.15541376026E+02  0.31401918336E+01  0.17217429130E+03  0.17120000000E+03 0.  0.
        998    1    1    2    0    0 -0.31942257094E+01 -0.16187115369E+01  0.14440988936E+04  0.14441379566E+04  0.10000000000E+02 0. -1.
</event>
<event>
 5    1  0.1271464E-008  0.3794742E+03  0.7957747E-01  0.3453451E+00
         13   -1    0    0    0    0  0.00000000000E+00  0.00000000000E+00  0.14999999963E+04  0.15000000000E+04  0.10566000000E+00 0. -1.
        994   -1    0    0    0    0 -0.00000000000E+00 -0.00000000000E+00  0.11368683772E-12  0.17120000000E+03  0.17120000000E+03 0.  0.
         13    1    1    2    0    0  0.35873593140E+02 -0.79762454256E+01  0.15105663588E+03  0.15546270801E+03  0.10566000000E+00 0. -1.
        994    1    1    2    0    0 -0.24268790362E+02 -0.45222888047E+01  0.64422771808E+01  0.17309063584E+03  0.17120000000E+03 0.  0.
        998    1    1    2    0    0 -0.11604802778E+02  0.12498534230E+02  0.13425010832E+04  0.13426466561E+04  0.10000000000E+02 0. -1.
</event>
<event>
 5    1  0.1271464E-008  0.3830476E+03  0.7957747E-01  0.3437995E+00
         13   -1    0    0    0    0  0.00000000000E+00  0.00000000000E+00  0.14999999963E+04  0.15000000000E+04  0.10566000000E+00 0.  1.
        994   -1    0    0    0    0 -0.00000000000E+00 -0.00000000000E+00  0.11368683772E-12  0.17120000000E+03  0.17120000000E+03 0.  0.
         13    1    1    2    0    0 -0.21534421258E+02  0.80466855605E+01  0.10505839717E+03  0.10754421615E+03  0.10566000000E+00 0.  1.
        994    1    1    2    0    0  0.65530280781E+01 -0.49722153014E+01  0.28265445906E+01  0.17142081104E+03  0.17120000000E+03 0.  0.
        998    1    1    2    0    0  0.14981393180E+02 -0.30744702592E+01  0.13921150545E+04  0.13922349728E+04  0.10000000000E+02 0.  1.
</event>
<event>
 5    1  0.1271464E-008  0.3818102E+03  0.7957747E-01  0.3443314E+00
         13   -1    0    0    0    0  0.00000000000E+00  0.00000000000E+00  0.14999999963E+04  0.15000000000E+04  0.10566000000E+00 0. -1.
        994   -1    0    0    0    0 -0.00000000000E+00 -0.00000000000E+00  0.11368683772E-12  0.17120000000E+03  0.17120000000E+03 0.  0.
         13    1    1    2    0    0  0.22719101494E+02 -0.14807253917E+02  0.11968443991E+03  0.12271833058E+03  0.10566000000E+00 0. -1.
        994    1    1    2    0    0 -0.96775204866E+01 -0.11263612975E+01  0.35376521372E+01  0.17151349240E+03  0.17120000000E+03 0.  0.
        998    1    1    2    0    0 -0.13041581007E+02  0.15933615214E+02  0.13767779042E+04  0.13769681770E+04  0.10000000000E+02 0. -1.
</event>
<event>
 5    1  0.1271464E-008  0.3756756E+03  0.7957747E-01  0.3470207E+00
         13   -1    0    0    0    0  0.00000000000E+00  0.00000000000E+00  0.14999999963E+04  0.15000000000E+04  0.10566000000E+00 0.  1.
        994   -1    0    0    0    0 -0.00000000000E+00 -0.00000000000E+00  0.11368683772E-12  0.17120000000E+03  0.17120000000E+03 0.  0.
         13    1    1    2    0    0 -0.80966824904E+00  0.14453132408E+02  0.13901373268E+02  0.20070075781E+02  0.10566000000E+00 0.  1.
        994    1    1    2    0    0 -0.89710001843E+01 -0.63386448818E+01  0.67415165504E+01  0.17168443525E+03  0.17120000000E+03 0.  0.
        998    1    1    2    0    0  0.97806684334E+01 -0.81144875264E+01  0.14793571065E+04  0.14794454890E+04  0.10000000000E+02 0.  1.
</event>
<event>
 5    1  0.1271464E-008  0.3822948E+03  0.7957747E-01  0.3441227E+00
         13   -1    0    0    0    0  0.00000000000E+00  0.00000000000E+00  0.14999999963E+04  0.15000000000E+04  0.10566000000E+00 0.  1.
        994   -1    0    0    0    0 -0.00000000000E+00 -0.00000000000E+00  0.11368683772E-12  0.17120000000E+03  0.17120000000E+03 0.  0.
         13    1    1    2    0    0 -0.97797694086E+01  0.17633275604E+02  0.71854225640E+02  0.74629868046E+02  0.10566000000E+00 0.  1.
        994    1    1    2    0    0  0.37245494013E+01  0.20442572425E+01  0.30391034425E+01  0.17127967599E+03  0.17120000000E+03 0.  0.
        998    1    1    2    0    0  0.60552200074E+01 -0.19677532846E+02  0.14251066672E+04  0.14252904560E+04  0.10000000000E+02 0.  1.
</event>
<event>
 5    1  0.1271464E-008  0.3837790E+03  0.7957747E-01  0.3434867E+00
         13   -1    0    0    0    0  0.00000000000E+00  0.00000000000E+00  0.14999999963E+04  0.15000000000E+04  0.10566000000E+00 0. -1.
        994   -1    0    0    0    0 -0.00000000000E+00 -0.00000000000E+00  0.11368683772E-12  0.17120000000E+03  0.17120000000E+03 0.  0.
         13    1    1    2    0    0  0.16637400843E+02  0.21499377272E+01  0.61676030412E+02  0.63916893154E+02  0.10566000000E+00 0. -1.
        994    1    1    2    0    0 -0.13941685389E+02  0.57040633841E+01  0.29870871789E+01  0.17188737481E+03  0.17120000000E+03 0.  0.
        998    1    1    2    0    0 -0.26957154535E+01 -0.78540011112E+01  0.14353368787E+04  0.14353957320E+04  0.10000000000E+02 0. -1.
</event>
<event>
 5    1  0.1271464E-008  0.3794299E+03  0.7957747E-01  0.3453645E+00
         13   -1    0    0    0    0  0.00000000000E+00  0.00000000000E+00  0.14999999963E+04  0.15000000000E+04  0.10566000000E+00 0. -1.
        994   -1    0    0    0    0 -0.00000000000E+00 -0.00000000000E+00  0.11368683772E-12  0.17120000000E+03  0.17120000000E+03 0.  0.
         13    1    1    2    0    0 -0.14189324193E+02  0.72111982064E+00  0.21079087480E+02  0.25420386068E+02  0.10566000000E+00 0. -1.
        994    1    1    2    0    0  0.79910490371E+01 -0.46787716699E+01  0.47084420381E+01  0.17151488914E+03  0.17120000000E+03 0.  0.
        998    1    1    2    0    0  0.61982751556E+01  0.39576518493E+01  0.14742124668E+04  0.14742647248E+04  0.10000000000E+02 0. -1.
</event>
<event>
 5    1  0.1271464E-008  0.3782524E+03  0.7957747E-01  0.3458803E+00
         13   -1    0    0    0    0  0.00000000000E+00  0.00000000000E+00  0.14999999963E+04  0.15000000000E+04  0.10566000000E+00 0.  1.
        994   -1    0    0    0    0 -0.00000000000E+00 -0.00000000000E+00  0.11368683772E-12  0.17120000000E+03  0.17120000000E+03 0.  0.
         13    1    1    2    0    0 -0.22905364723E+03  0.11042878694E+02  0.86447306510E+03  0.89437196397E+03  0.10566000000E+00 0.  1.
        994    1    1    2    0    0  0.25433553454E+03  0.17286174185E+02  0.26909253659E+03  0.40829598234E+03  0.17120000000E+03 0.  0.
        998    1    1    2    0    0 -0.25281887309E+02 -0.28329052879E+02  0.36643439459E+03  0.36853205369E+03  0.10000000000E+02 0.  1.
</event>
<event>
 5    1  0.1271464E-008  0.3848586E+03  0.7957747E-01  0.3430272E+00
         13   -1    0    0    0    0  0.00000000000E+00  0.00000000000E+00  0.14999999963E+04  0.15000000000E+04  0.10566000000E+00 0. -1.
        994   -1    0    0    0    0 -0.00000000000E+00 -0.00000000000E+00  0.11368683772E-12  0.17120000000E+03  0.17120000000E+03 0.  0.
         13    1    1    2    0    0  0.97037156775E+01  0.66579460805E+01  0.40083649959E+02  0.41775596968E+02  0.10566000000E+00 0. -1.
        994    1    1    2    0    0 -0.78388995771E+01 -0.66313151868E+01  0.20472679799E+01  0.17151983557E+03  0.17120000000E+03 0.  0.
        998    1    1    2    0    0 -0.18648161004E+01 -0.26630893633E-01  0.14578690783E+04  0.14579045675E+04  0.10000000000E+02 0. -1.
</event>
<event>
 5    1  0.1271464E-008  0.3788119E+03  0.7957747E-01  0.3456348E+00
         13   -1    0    0    0    0  0.00000000000E+00  0.00000000000E+00  0.14999999963E+04  0.15000000000E+04  0.10566000000E+00 0. -1.
        994   -1    0    0    0    0 -0.00000000000E+00 -0.00000000000E+00  0.11368683772E-12  0.17120000000E+03  0.17120000000E+03 0.  0.
         13    1    1    2    0    0 -0.36597240346E+02  0.73742246679E+01  0.13093811402E+03  0.13615630011E+03  0.10566000000E+00 0. -1.
        994    1    1    2    0    0  0.40387184263E+02 -0.93458986865E+01  0.10523164845E+02  0.17646146172E+03  0.17120000000E+03 0.  0.
        998    1    1    2    0    0 -0.37899439171E+01  0.19716740186E+01  0.13585387174E+04  0.13585822382E+04  0.10000000000E+02 0. -1.
</event>
<event>
 5    1  0.1271464E-008  0.2870654E+03  0.7957747E-01  0.3992919E+00
         13   -1    0    0    0    0  0.00000000000E+00  0.00000000000E+00  0.14999999963E+04  0.15000000000E+04  0.10566000000E+00 0. -1.
        994   -1    0    0    0    0 -0.00000000000E+00 -0.00000000000E+00  0.11368683772E-12  0.17120000000E+03  0.17120000000E+03 0.  0.
         13    1    1    2    0    0  0.14144734761E+03 -0.12278861606E+02  0.70913440562E+03  0.72320795003E+03  0.10566000000E+00 0. -1.
        994    1    1    2    0    0 -0.66507544386E+02 -0.36932615229E+02  0.39792106980E+02  0.19152055583E+03  0.17120000000E+03 0.  0.
        998    1    1    2    0    0 -0.74939803224E+02  0.49211476835E+02  0.75107348368E+03  0.75647149414E+03  0.10000000000E+02 0. -1.
</event>
<event>
 5    1  0.1271464E-008  0.3803765E+03  0.7957747E-01  0.3449521E+00
         13   -1    0    0    0    0  0.00000000000E+00  0.00000000000E+00  0.14999999963E+04  0.15000000000E+04  0.10566000000E+00 0. -1.
        994   -1    0    0    0    0 -0.00000000000E+00 -0.00000000000E+00  0.11368683772E-12  0.17120000000E+03  0.17120000000E+03 0.  0.
         13    1    1    2    0    0  0.73508792352E+01 -0.11934646986E+02  0.23554543814E+02  0.27409832589E+02  0.10566000000E+00 0. -1.
        994    1    1    2    0    0 -0.14804905044E+01  0.62513686635E+01  0.40810074864E+01  0.17136909314E+03  0.17120000000E+03 0.  0.
        998    1    1    2    0    0 -0.58703887308E+01  0.56832783223E+01  0.14723644450E+04  0.14724210743E+04  0.10000000000E+02 0. -1.
</event>
<event>
 5    1  0.1271464E-008  0.3844667E+03  0.7957747E-01  0.3431937E+00
         13   -1    0    0    0    0  0.00000000000E+00  0.00000000000E+00  0.14999999963E+04  0.15000000000E+04  0.10566000000E+00 0. -1.
        994   -1    0    0    0    0 -0.00000000000E+00 -0.00000000000E+00  0.11368683772E-12  0.17120000000E+03  0.17120000000E+03 0.  0.
         13    1    1    2    0    0  0.56867998189E+00  0.16132357930E+02  0.67014964526E+02  0.68931799655E+02  0.10566000000E+00 0. -1.
        994    1    1    2    0    0 -0.14623040145E+01 -0.14192872060E+02  0.25660703806E+01  0.17181269065E+03  0.17120000000E+03 0.  0.
        998    1    1    2    0    0  0.89362403262E+00 -0.19394858697E+01  0.14304189614E+04  0.14304555097E+04  0.10000000000E+02 0. -1.
</event>
<event>
 5    1  0.1271464E-008  0.2802225E+03  0.7957747E-01  0.4048182E+00
         13   -1    0    0    0    0  0.00000000000E+00  0.00000000000E+00  0.14999999963E+04  0.15000000000E+04  0.10566000000E+00 0. -1.
        994   -1    0    0    0    0 -0.00000000000E+00 -0.00000000000E+00  0.11368683772E-12  0.17120000000E+03  0.17120000000E+03 0.  0.
         13    1    1    2    0    0 -0.98547499850E+02 -0.19243697350E+03  0.34436296946E+03  0.40660726063E+03  0.10566000000E+00 0. -1.
        994    1    1    2    0    0  0.10355809435E+03  0.19650092839E+03  0.30674999813E+03  0.41562229863E+03  0.17120000000E+03 0.  0.
        998    1    1    2    0    0 -0.50105944968E+01 -0.40639548935E+01  0.84888702869E+03  0.84897044075E+03  0.10000000000E+02 0. -1.
</event>
<event>
 5    1  0.1271464E-008  0.3816182E+03  0.7957747E-01  0.3444143E+00
         13   -1    0    0    0    0  0.00000000000E+00  0.00000000000E+00  0.14999999963E+04  0.15000000000E+04  0.10566000000E+00 0.  1.
        994   -1    0    0    0    0 -0.00000000000E+00 -0.00000000000E+00  0.11368683772E-12  0.17120000000E+03  0.17120000000E+03 0.  0.
         13    1    1    2    0    0  0.14652104658E+02 -0.32540627096E+02  0.19734551384E+03  0.20054635270E+03  0.10566000000E+00 0.  1.
        994    1    1    2    0    0  0.10686466325E+02  0.23702611866E+02  0.55695816130E+01  0.17325263234E+03  0.17120000000E+03 0.  0.
        998    1    1    2    0    0 -0.25338570983E+02  0.88380152301E+01  0.12970849008E+04  0.12974010150E+04  0.10000000000E+02 0.  1.
</event>
<event>
 5    1  0.1271464E-008  0.3841678E+03  0.7957747E-01  0.3433209E+00
         13   -1    0    0    0    0  0.00000000000E+00  0.00000000000E+00  0.14999999963E+04  0.15000000000E+04  0.10566000000E+00 0. -1.
        994   -1    0    0    0    0 -0.00000000000E+00 -0.00000000000E+00  0.11368683772E-12  0.17120000000E+03  0.17120000000E+03 0.  0.
         13    1    1    2    0    0 -0.79578808184E+01  0.15017319454E+02  0.69317035552E+02  0.71370234219E+02  0.10566000000E+00 0. -1.
        994    1    1    2    0    0  0.56582021074E+01 -0.12206395047E+02  0.26409727237E+01  0.17174814720E+03  0.17120000000E+03 0.  0.
        998    1    1    2    0    0  0.22996787110E+01 -0.28109244073E+01  0.14280419880E+04  0.14280816186E+04  0.10000000000E+02 0. -1.
</event>
<event>
 5    1  0.1271464E-008  0.3848084E+03  0.7957747E-01  0.3430485E+00
         13   -1    0    0    0    0  0.00000000000E+00  0.00000000000E+00  0.14999999963E+04  0.15000000000E+04  0.10566000000E+00 0.  1.
        994   -1    0    0    0    0 -0.00000000000E+00 -0.00000000000E+00  0.11368683772E-12  0.17120000000E+03  0.17120000000E+03 0.  0.
         13    1    1    2    0    0 -0.17942101596E+02 -0.64005916550E+01  0.97799693023E+02  0.99637732324E+02  0.10566000000E+00 0.  1.
        994    1    1    2    0    0  0.22103732201E+02  0.29039887610E+01  0.33625218805E+01  0.17267818241E+03  0.17120000000E+03 0.  0.
        998    1    1    2    0    0 -0.41616306046E+01  0.34966028939E+01  0.13988377814E+04  0.13988840853E+04  0.10000000000E+02 0.  1.
</event>
<event>
 5    1  0.1271464E-008  0.3761330E+03  0.7957747E-01  0.3468171E+00
         13   -1    0    0    0    0  0.00000000000E+00  0.00000000000E+00  0.14999999963E+04  0.15000000000E+04  0.10566000000E+00 0. -1.
        994   -1    0    0    0    0 -0.00000000000E+00 -0.00000000000E+00  0.11368683772E-12  0.17120000000E+03  0.17120000000E+03 0.  0.
         13    1    1    2    0    0  0.36672683640E+01  0.54430578364E+02  0.20396925423E+03  0.21113882768E+03  0.10566000000E+00 0. -1.
        994    1    1    2    0    0 -0.43232829017E+01 -0.59103731061E+02  0.18084513769E+02  0.18206710697E+03  0.17120000000E+03 0.  0.
        998    1    1    2    0    0  0.65601453772E+00  0.46731526969E+01  0.12779462283E+04  0.12779940654E+04  0.10000000000E+02 0.  0.
</event>
<event>
 5    1  0.1271464E-008  0.3838060E+03  0.7957747E-01  0.3434752E+00
         13   -1    0    0    0    0  0.00000000000E+00  0.00000000000E+00  0.14999999963E+04  0.15000000000E+04  0.10566000000E+00 0. -1.
        994   -1    0    0    0    0 -0.00000000000E+00 -0.00000000000E+00  0.11368683772E-12  0.17120000000E+03  0.17120000000E+03 0.  0.
         13    1    1    2    0    0  0.53006961459E+01 -0.25624623478E+02  0.15246057998E+03  0.15468987789E+03  0.10566000000E+00 0. -1.
        994    1    1    2    0    0  0.62606095648E+01  0.18295781874E+02  0.34595511650E+01  0.17232335698E+03  0.17120000000E+03 0.  0.
        998    1    1    2    0    0 -0.11561305711E+02  0.73288416037E+01  0.13440798651E+04  0.13441867651E+04  0.10000000000E+02 0. -1.
</event>
<event>
 5    1  0.1271464E-008  0.3802680E+03  0.7957747E-01  0.3449992E+00
         13   -1    0    0    0    0  0.00000000000E+00  0.00000000000E+00  0.14999999963E+04  0.15000000000E+04  0.10566000000E+00 0.  1.
        994   -1    0    0    0    0 -0.00000000000E+00 -0.00000000000E+00  0.11368683772E-12  0.17120000000E+03  0.17120000000E+03 0.  0.
         13    1    1    2    0    0 -0.91697986114E+01  0.34593288094E+02  0.14855618578E+03  0.15280619190E+03  0.10566000000E+00 0.  1.
        994    1    1    2    0    0  0.24739443688E+02 -0.26485966633E+02  0.83975611355E+01  0.17519562077E+03  0.17120000000E+03 0.  0.
        998    1    1    2    0    0 -0.15569645076E+02 -0.81073214610E+01  0.13430462494E+04  0.13431981873E+04  0.10000000000E+02 0.  1.
</event>
<event>
 5    1  0.1271464E-008  0.3850906E+03  0.7957747E-01  0.3429288E+00
         13   -1    0    0    0    0  0.00000000000E+00  0.00000000000E+00  0.14999999963E+04  0.15000000000E+04  0.10566000000E+00 0. -1.
        994   -1    0    0    0    0 -0.00000000000E+00 -0.00000000000E+00  0.11368683772E-12  0.17120000000E+03  0.17120000000E+03 0.  0.
         13    1    1    2    0    0  0.17240653446E+02  0.40576014343E+01  0.10110631444E+03  0.10264600452E+03  0.10566000000E+00 0. -1.
        994    1    1    2    0    0 -0.79146027669E+01 -0.48376138746E+01  0.18681095302E+01  0.17146128799E+03  0.17120000000E+03 0.  0.
        998    1    1    2    0    0 -0.93260506791E+01  0.78001244032E+00  0.13970255723E+04  0.13970927075E+04  0.10000000000E+02 0. -1.
</event>
<event>
 5    1  0.1271464E-008  0.3847022E+03  0.7957747E-01  0.3430936E+00
         13   -1    0    0    0    0  0.00000000000E+00  0.00000000000E+00  0.14999999963E+04  0.15000000000E+04  0.10566000000E+00 0. -1.
        994   -1    0    0    0    0 -0.00000000000E+00 -0.00000000000E+00  0.11368683772E-12  0.17120000000E+03  0.17120000000E+03 0.  0.
         13    1    1    2    0    0  0.78551062384E+02 -0.20904568133E+03  0.11540089564E+04  0.11754178188E+04  0.10566000000E+00 0. -1.
        994    1    1    2    0    0 -0.84899600395E+02  0.21217996245E+03  0.19845576732E+03  0.34773899723E+03  0.17120000000E+03 0.  0.
        998    1    1    2    0    0  0.63485380116E+01 -0.31342811174E+01  0.14753527258E+03  0.14804318393E+03  0.10000000000E+02 0.  0.
</event>
<event>
 5    1  0.1271464E-008  0.3781290E+03  0.7957747E-01  0.3459346E+00
         13   -1    0    0    0    0  0.00000000000E+00  0.00000000000E+00  0.14999999963E+04  0.15000000000E+04  0.10566000000E+00 0.  1.
        994   -1    0    0    0    0 -0.00000000000E+00 -0.00000000000E+00  0.11368683772E-12  0.17120000000E+03  0.17120000000E+03 0.  0.
         13    1    1    2    0    0 -0.14826530772E+02  0.30412307600E+02  0.11217872068E+03  0.11717000899E+03  0.10566000000E+00 0.  1.
        994    1    1    2    0    0  0.64850420700E+01 -0.16923540213E+02  0.61862245818E+01  0.17226773162E+03  0.17120000000E+03 0.  0.
        998    1    1    2    0    0  0.83414887020E+01 -0.13488767387E+02  0.13816350510E+04  0.13817622594E+04  0.10000000000E+02 0.  1.
</event>
<event>
 5    1  0.1271464E-008  0.3687034E+03  0.7957747E-01  0.3501871E+00
         13   -1    0    0    0    0  0.00000000000E+00  0.00000000000E+00  0.14999999963E+04  0.15000000000E+04  0.10566000000E+00 0.  1.
        994   -1    0    0    0    0 -0.00000000000E+00 -0.00000000000E+00  0.11368683772E-12  0.17120000000E+03  0.17120000000E+03 0.  0.
         13    1    1    2    0    0  0.21907561241E+01  0.17689619615E+02  0.11484141583E+02  0.21204214827E+02  0.10566000000E+00 0.  1.
        994    1    1    2    0    0 -0.29645606381E+01 -0.16095958162E+02  0.10879277027E+02  0.17232430809E+03  0.17120000000E+03 0.  0.
        998    1    1    2    0    0  0.77380451393E+00 -0.15936614523E+01  0.14776365777E+04  0.14776714771E+04  0.10000000000E+02 0.  1.
</event>
<event>
 5    1  0.1271464E-008  0.3689283E+03  0.7957747E-01  0.3500831E+00
         13   -1    0    0    0    0  0.00000000000E+00  0.00000000000E+00  0.14999999963E+04  0.15000000000E+04  0.10566000000E+00 0.  1.
        994   -1    0    0    0    0 -0.00000000000E+00 -0.00000000000E+00  0.11368683772E-12  0.17120000000E+03  0.17120000000E+03 0.  0.
         13    1    1    2    0    0 -0.20191162007E+02 -0.10139653360E+02  0.22616003320E+02  0.31968584011E+02  0.10566000000E+00 0.  1.
        994    1    1    2    0    0 -0.19774089853E+01  0.56302687876E+01  0.99539372333E+01  0.17159292217E+03  0.17120000000E+03 0.  0.
        998    1    1    2    0    0  0.22168570992E+02  0.45093845721E+01  0.14674300557E+04  0.14676384938E+04  0.10000000000E+02 0.  1.
</event>
<event>
 5    1  0.1271464E-008  0.3801588E+03  0.7957747E-01  0.3450467E+00
         13   -1    0    0    0    0  0.00000000000E+00  0.00000000000E+00  0.14999999963E+04  0.15000000000E+04  0.10566000000E+00 0.  1.
        994   -1    0    0    0    0 -0.00000000000E+00 -0.00000000000E+00  0.11368683772E-12  0.17120000000E+03  0.17120000000E+03 0.  0.
         13    1    1    2    0    0  0.99782779390E+01  0.19036907343E+03  0.90419625281E+03  0.92407295433E+03  0.10566000000E+00 0.  1.
        994    1    1    2    0    0  0.17794733462E+02 -0.21233345680E+03  0.17464621292E+03  0.32436536360E+03  0.17120000000E+03 0.  0.
        998    1    1    2    0    0 -0.27773011401E+02  0.21964383370E+02  0.42115753054E+03  0.42276168207E+03  0.10000000000E+02 0.  1.
</event>
<event>
 5    1  0.1271464E-008  0.3846828E+03  0.7957747E-01  0.3431019E+00
         13   -1    0    0    0    0  0.00000000000E+00  0.00000000000E+00  0.14999999963E+04  0.15000000000E+04  0.10566000000E+00 0. -1.
        994   -1    0    0    0    0 -0.00000000000E+00 -0.00000000000E+00  0.11368683772E-12  0.17120000000E+03  0.17120000000E+03 0.  0.
         13    1    1    2    0    0  0.11801852516E+02 -0.15595467599E+02  0.11652189961E+03  0.11815187931E+03  0.10566000000E+00 0. -1.
        994    1    1    2    0    0  0.19039153900E+02  0.18269464694E+02  0.40831998694E+01  0.17326966048E+03  0.17120000000E+03 0.  0.
        998    1    1    2    0    0 -0.30841006416E+02 -0.26739970948E+01  0.13793948968E+04  0.13797784602E+04  0.10000000000E+02 0. -1.
</event>
<event>
 5    1  0.1271464E-008  0.3804486E+03  0.7957747E-01  0.3449208E+00
         13   -1    0    0    0    0  0.00000000000E+00  0.00000000000E+00  0.14999999963E+04  0.15000000000E+04  0.10566000000E+00 0. -1.
        994   -1    0    0    0    0 -0.00000000000E+00 -0.00000000000E+00  0.11368683772E-12  0.17120000000E+03  0.17120000000E+03 0.  0.
         13    1    1    2    0    0  0.34884096052E+02  0.27713393555E+02  0.23662256442E+03  0.24078035945E+03  0.10566000000E+00 0. -1.
        994    1    1    2    0    0 -0.26108175976E+02 -0.20954054851E+02  0.76568197618E+01  0.17461035524E+03  0.17120000000E+03 0.  0.
        998    1    1    2    0    0 -0.87759200763E+01 -0.67593387035E+01  0.12557206121E+04  0.12558092853E+04  0.10000000000E+02 0. -1.
</event>
<event>
 5    1  0.1271464E-008  0.3828227E+03  0.7957747E-01  0.3438959E+00
         13   -1    0    0    0    0  0.00000000000E+00  0.00000000000E+00  0.14999999963E+04  0.15000000000E+04  0.10566000000E+00 0.  1.
        994   -1    0    0    0    0 -0.00000000000E+00 -0.00000000000E+00  0.11368683772E-12  0.17120000000E+03  0.17120000000E+03 0.  0.
         13    1    1    2    0    0 -0.20170292987E+02 -0.23021921680E+02  0.15358575229E+03  0.15660601542E+03  0.10566000000E+00 0.  1.
        994    1    1    2    0    0  0.23842791390E+02  0.22737131092E+02  0.63184089485E+01  0.17445577698E+03  0.17120000000E+03 0.  0.
        998    1    1    2    0    0 -0.36724984033E+01  0.28479058848E+00  0.13400958350E+04  0.13401382076E+04  0.10000000000E+02 0.  1.
</event>
<event>
 5    1  0.1271464E-008  0.3847069E+03  0.7957747E-01  0.3430916E+00
         13   -1    0    0    0    0  0.00000000000E+00  0.00000000000E+00  0.14999999963E+04  0.15000000000E+04  0.10566000000E+00 0. -1.
        994   -1    0    0    0    0 -0.00000000000E+00 -0.00000000000E+00  0.11368683772E-12  0.17120000000E+03  0.17120000000E+03 0.  0.
         13    1    1    2    0    0  0.84295429077E+01 -0.12549794760E+02  0.66019528745E+02  0.67728456958E+02  0.10566000000E+00 0. -1.
        994    1    1    2    0    0 -0.14429542369E+01  0.55959772294E+01  0.18856506289E+01  0.17130788877E+03  0.17120000000E+03 0.  0.
        998    1    1    2    0    0 -0.69865886707E+01  0.69538175308E+01  0.14320948169E+04  0.14321636543E+04  0.10000000000E+02 0. -1.
</event>
<event>
 5    1  0.1271464E-008  0.3752602E+03  0.7957747E-01  0.3472060E+00
         13   -1    0    0    0    0  0.00000000000E+00  0.00000000000E+00  0.14999999963E+04  0.15000000000E+04  0.10566000000E+00 0.  1.
        994   -1    0    0    0    0 -0.00000000000E+00 -0.00000000000E+00  0.11368683772E-12  0.17120000000E+03  0.17120000000E+03 0.  0.
         13    1    1    2    0    0 -0.21149847853E+02 -0.32279412163E+02  0.12504968483E+03  0.13086906187E+03  0.10566000000E+00 0.  1.
        994    1    1    2    0    0 -0.19922405004E+02  0.12643708665E+02  0.84383547002E+01  0.17302430875E+03  0.17120000000E+03 0.  0.
        998    1    1    2    0    0  0.41072252857E+02  0.19635703498E+02  0.13665119567E+04  0.13673066294E+04  0.10000000000E+02 0.  1.
</event>
<event>
 5    1  0.1271464E-008  0.3708172E+03  0.7957747E-01  0.3492144E+00
         13   -1    0    0    0    0  0.00000000000E+00  0.00000000000E+00  0.14999999963E+04  0.15000000000E+04  0.10566000000E+00 0. -1.
        994   -1    0    0    0    0 -0.00000000000E+00 -0.00000000000E+00  0.11368683772E-12  0.17120000000E+03  0.17120000000E+03 0.  0.
         13    1    1    2    0    0 -0.79892754979E+02  0.49979232498E+02  0.36801849405E+03  0.37989261523E+03  0.10566000000E+00 0. -1.
        994    1    1    2    0    0  0.87829239650E+02 -0.40428868016E+02  0.41801282869E+02  0.20101058668E+03  0.17120000000E+03 0.  0.
        998    1    1    2    0    0 -0.79364846707E+01 -0.95503644826E+01  0.10901802194E+04  0.10902967981E+04  0.10000000000E+02 0. -1.
</event>
<event>
 5    1  0.1271464E-008  0.3806615E+03  0.7957747E-01  0.3448283E+00
         13   -1    0    0    0    0  0.00000000000E+00  0.00000000000E+00  0.14999999963E+04  0.15000000000E+04  0.10566000000E+00 0.  1.
        994   -1    0    0    0    0 -0.00000000000E+00 -0.00000000000E+00  0.11368683772E-12  0.17120000000E+03  0.17120000000E+03 0.  0.
         13    1    1    2    0    0  0.52383800496E+02 -0.89306552212E+01  0.28304314030E+03  0.28798828030E+03  0.10566000000E+00 0.  1.
        994    1    1    2    0    0 -0.56566584139E+02  0.32649074694E+02  0.18161949887E+02  0.18413320435E+03  0.17120000000E+03 0.  0.
        998    1    1    2    0    0  0.41827836434E+01 -0.23718419473E+02  0.11987949061E+04  0.11990785154E+04  0.10000000000E+02 0.  1.
</event>
<event>
 5    1  0.1271464E-008  0.3842936E+03  0.7957747E-01  0.3432674E+00
         13   -1    0    0    0    0  0.00000000000E+00  0.00000000000E+00  0.14999999963E+04  0.15000000000E+04  0.10566000000E+00 0.  1.
        994   -1    0    0    0    0 -0.00000000000E+00 -0.00000000000E+00  0.11368683772E-12  0.17120000000E+03  0.17120000000E+03 0.  0.
         13    1    1    2    0    0  0.12856914093E+02 -0.47725576901E+00  0.44088879161E+02  0.45927861291E+02  0.10566000000E+00 0.  1.
        994    1    1    2    0    0  0.45401656802E+01  0.24121568035E+01  0.20684066624E+01  0.17128966668E+03  0.17120000000E+03 0.  0.
        998    1    1    2    0    0 -0.17397079773E+02 -0.19349010345E+01  0.14538427105E+04  0.14539824720E+04  0.10000000000E+02 0.  1.
</event>
<event>
 5    1  0.1271464E-008  0.3839429E+03  0.7957747E-01  0.3434168E+00
         13   -1    0    0    0    0  0.00000000000E+00  0.00000000000E+00  0.14999999963E+04  0.15000000000E+04  0.10566000000E+00 0. -1.
        994   -1    0    0    0    0 -0.00000000000E+00 -0.00000000000E+00  0.11368683772E-12  0.17120000000E+03  0.17120000000E+03 0.  0.
         13    1    1    2    0    0 -0.18929415752E+02 -0.10094082410E+02  0.11455131901E+03  0.11654282102E+03  0.10566000000E+00 0. -1.
        994    1    1    2    0    0  0.74791396816E+01 -0.66188987465E+01  0.24851048471E+01  0.17150907584E+03  0.17120000000E+03 0.  0.
        998    1    1    2    0    0  0.11450276070E+02  0.16712981156E+02  0.13829635724E+04  0.13831481031E+04  0.10000000000E+02 0. -1.
</event>
<event>
 5    1  0.1271464E-008  0.3835504E+03  0.7957747E-01  0.3435843E+00
         13   -1    0    0    0    0  0.00000000000E+00  0.00000000000E+00  0.14999999963E+04  0.15000000000E+04  0.10566000000E+00 0. -1.
        994   -1    0    0    0    0 -0.00000000000E+00 -0.00000000000E+00  0.11368683772E-12  0.17120000000E+03  0.17120000000E+03 0.  0.
         13    1    1    2    0    0 -0.35904885447E+01  0.16160523398E+02  0.58537736106E+02  0.60833640668E+02  0.10566000000E+00 0. -1.
        994    1    1    2    0    0  0.52290564816E+01 -0.69547547052E+01  0.26017519712E+01  0.17144072083E+03  0.17120000000E+03 0.  0.
        998    1    1    2    0    0 -0.16385679369E+01 -0.92057686927E+01  0.14388605082E+04  0.14389256385E+04  0.10000000000E+02 0. -1.
</event>
<event>
 5    1  0.1271464E-008  0.3854048E+03  0.7957747E-01  0.3427957E+00
         13   -1    0    0    0    0  0.00000000000E+00  0.00000000000E+00  0.14999999963E+04  0.15000000000E+04  0.10566000000E+00 0. -1.
        994   -1    0    0    0    0 -0.00000000000E+00 -0.00000000000E+00  0.11368683772E-12  0.17120000000E+03  0.17120000000E+03 0.  0.
         13    1    1    2    0    0 -0.10874685820E+02 -0.99478977114E+01  0.85870333968E+02  0.87126028719E+02  0.10566000000E+00 0. -1.
        994    1    1    2    0    0 -0.99247533477E+01  0.32613663084E+01  0.17878256801E+01  0.17152776323E+03  0.17120000000E+03 0.  0.
        998    1    1    2    0    0  0.20799439168E+02  0.66865314030E+01  0.14123418366E+04  0.14125462080E+04  0.10000000000E+02 0. -1.
</event>
<event>
 5    1  0.1271464E-008  0.3814815E+03  0.7957747E-01  0.3444733E+00
         13   -1    0    0    0    0  0.00000000000E+00  0.00000000000E+00  0.14999999963E+04  0.15000000000E+04  0.10566000000E+00 0. -1.
        994   -1    0    0    0    0 -0.00000000000E+00 -0.00000000000E+00  0.11368683772E-12  0.17120000000E+03  0.17120000000E+03 0.  0.
         13    1    1    2    0    0  0.25322806019E+02  0.44980838867E+02  0.29941728646E+03  0.30383423600E+03  0.10566000000E+00 0. -1.
        994    1    1    2    0    0 -0.31033126339E+02 -0.48056673777E+02  0.14351101216E+02  0.18107427463E+03  0.17120000000E+03 0.  0.
        998    1    1    2    0    0  0.57103203208E+01  0.30758349103E+01  0.11862316086E+04  0.11862914894E+04  0.10000000000E+02 0. -1.
</event>
<event>
 5    1  0.1271464E-008  0.3756489E+03  0.7957747E-01  0.3470326E+00
         13   -1    0    0    0    0  0.00000000000E+00  0.00000000000E+00  0.14999999963E+04  0.15000000000E+04  0.10566000000E+00 0.  1.
        994   -1    0    0    0    0 -0.00000000000E+00 -0.00000000000E+00  0.11368683772E-12  0.17120000000E+03  0.17120000000E+03 0.  0.
         13    1    1    2    0    0  0.49593846666E+02 -0.28647701540E+02  0.25603520012E+03  0.26236286950E+03  0.10566000000E+00 0.  1.
        994    1    1    2    0    0 -0.26232106784E+02  0.20589339250E+02  0.10126941776E+02  0.17471130263E+03  0.17120000000E+03 0.  0.
        998    1    1    2    0    0 -0.23361739881E+02  0.80583622898E+01  0.12338378544E+04  0.12341258279E+04  0.10000000000E+02 0.  1.
</event>
<event>
 5    1  0.1271464E-008  0.3793331E+03  0.7957747E-01  0.3454068E+00
         13   -1    0    0    0    0  0.00000000000E+00  0.00000000000E+00  0.14999999963E+04  0.15000000000E+04  0.10566000000E+00 0. -1.
        994   -1    0    0    0    0 -0.00000000000E+00 -0.00000000000E+00  0.11368683772E-12  0.17120000000E+03  0.17120000000E+03 0.  0.
         13    1    1    2    0    0 -0.19459366413E+02  0.41878624724E+02  0.25560644521E+03  0.25974439772E+03  0.10566000000E+00 0. -1.
        994    1    1    2    0    0  0.92929603556E+01 -0.14774122057E+02  0.54914537152E+01  0.17217499777E+03  0.17120000000E+03 0.  0.
        998    1    1    2    0    0  0.10166406057E+02 -0.27104502667E+02  0.12389020974E+04  0.12392806045E+04  0.10000000000E+02 0. -1.
</event>
<event>
 5    1  0.1271464E-008  0.3762480E+03  0.7957747E-01  0.3467660E+00
         13   -1    0    0    0    0  0.00000000000E+00  0.00000000000E+00  0.14999999963E+04  0.15000000000E+04  0.10566000000E+00 0.  1.
        994   -1    0    0    0    0 -0.00000000000E+00 -0.00000000000E+00  0.11368683772E-12  0.17120000000E+03  0.17120000000E+03 0.  0.
         13    1    1    2    0    0  0.14934513103E+02 -0.21842575320E+02  0.55323481186E+02  0.61325659497E+02  0.10566000000E+00 0.  1.
        994    1    1    2    0    0 -0.58462859172E+01  0.18906539046E+02  0.73660390497E+01  0.17249734725E+03  0.17120000000E+03 0.  0.
        998    1    1    2    0    0 -0.90882271853E+01  0.29360362745E+01  0.14373104760E+04  0.14373769933E+04  0.10000000000E+02 0.  1.
</event>
<event>
 5    1  0.1271464E-008  0.3852554E+03  0.7957747E-01  0.3428590E+00
         13   -1    0    0    0    0  0.00000000000E+00  0.00000000000E+00  0.14999999963E+04  0.15000000000E+04  0.10566000000E+00 0. -1.
        994   -1    0    0    0    0 -0.00000000000E+00 -0.00000000000E+00  0.11368683772E-12  0.17120000000E+03  0.17120000000E+03 0.  0.
         13    1    1    2    0    0 -0.56306103420E+01  0.12959343938E+02  0.65600704092E+02  0.67105230120E+02  0.10566000000E+00 0. -1.
        994    1    1    2    0    0  0.99988798477E+01 -0.83034161703E+01  0.20586439633E+01  0.17170498634E+03  0.17120000000E+03 0.  0.
        998    1    1    2    0    0 -0.43682695057E+01 -0.46559277673E+01  0.14323406482E+04  0.14323897835E+04  0.10000000000E+02 0. -1.
</event>
<event>
 5    1  0.1271464E-008  0.3740295E+03  0.7957747E-01  0.3477575E+00
         13   -1    0    0    0    0  0.00000000000E+00  0.00000000000E+00  0.14999999963E+04  0.15000000000E+04  0.10566000000E+00 0.  1.
        994   -1    0    0    0    0 -0.00000000000E+00 -0.00000000000E+00  0.11368683772E-12  0.17120000000E+03  0.17120000000E+03 0.  0.
         13    1    1    2    0    0  0.20488157534E+02 -0.30249026488E+02  0.94160150852E+02  0.10099957116E+03  0.10566000000E+00 0.  1.
        994    1    1    2    0    0 -0.11428472231E+02  0.73486093848E+01  0.78077894721E+01  0.17191571660E+03  0.17120000000E+03 0.  0.
        998    1    1    2    0    0 -0.90596853031E+01  0.22900417103E+02  0.13980320560E+04  0.13982847122E+04  0.10000000000E+02 0.  1.
</event>
<event>
 5    1  0.1271464E-008  0.3728859E+03  0.7957747E-01  0.3482732E+00
         13   -1    0    0    0    0  0.00000000000E+00  0.00000000000E+00  0.14999999963E+04  0.15000000000E+04  0.10566000000E+00 0.  1.
        994   -1    0    0    0    0 -0.00000000000E+00 -0.00000000000E+00  0.11368683772E-12  0.17120000000E+03  0.17120000000E+03 0.  0.
         13    1    1    2    0    0 -0.34936810150E+02 -0.52264641406E+02  0.23832564722E+03  0.24647778547E+03  0.10566000000E+00 0.  1.
        994    1    1    2    0    0  0.42992586312E+02  0.26319186082E+02  0.16518537837E+02  0.17922991973E+03  0.17120000000E+03 0.  0.
        998    1    1    2    0    0 -0.80557761625E+01  0.25945455324E+02  0.12451558112E+04  0.12454922948E+04  0.10000000000E+02 0.  1.
</event>
<event>
 5    1  0.1271464E-008  0.3813674E+03  0.7957747E-01  0.3445226E+00
         13   -1    0    0    0    0  0.00000000000E+00  0.00000000000E+00  0.14999999963E+04  0.15000000000E+04  0.10566000000E+00 0. -1.
        994   -1    0    0    0    0 -0.00000000000E+00 -0.00000000000E+00  0.11368683772E-12  0.17120000000E+03  0.17120000000E+03 0.  0.
         13    1    1    2    0    0 -0.15179718189E+02  0.11108046308E+02  0.49629433874E+02  0.53074517499E+02  0.10566000000E+00 0. -1.
        994    1    1    2    0    0  0.13226282551E+02 -0.70751459453E+01  0.41936012082E+01  0.17190700547E+03  0.17120000000E+03 0.  0.
        998    1    1    2    0    0  0.19534356377E+01 -0.40329003627E+01  0.14461769612E+04  0.14462184770E+04  0.10000000000E+02 0. -1.
</event>
<event>
 5    1  0.1271464E-008  0.3821668E+03  0.7957747E-01  0.3441778E+00
         13   -1    0    0    0    0  0.00000000000E+00  0.00000000000E+00  0.14999999963E+04  0.15000000000E+04  0.10566000000E+00 0.  1.
        994   -1    0    0    0    0 -0.00000000000E+00 -0.00000000000E+00  0.11368683772E-12  0.17120000000E+03  0.17120000000E+03 0.  0.
         13    1    1    2    0    0 -0.13640019127E+02 -0.59233415434E+01  0.36103664258E+02  0.39046406156E+02  0.10566000000E+00 0.  1.
        994    1    1    2    0    0  0.26101495848E+01  0.29668030263E+01  0.30951638448E+01  0.17127356726E+03  0.17120000000E+03 0.  0.
        998    1    1    2    0    0  0.11029869542E+02  0.29565385171E+01  0.14608011682E+04  0.14608800266E+04  0.10000000000E+02 0.  1.
</event>
<event>
 5    1  0.1271464E-008  0.3842967E+03  0.7957747E-01  0.3432660E+00
         13   -1    0    0    0    0  0.00000000000E+00  0.00000000000E+00  0.14999999963E+04  0.15000000000E+04  0.10566000000E+00 0. -1.
        994   -1    0    0    0    0 -0.00000000000E+00 -0.00000000000E+00  0.11368683772E-12  0.17120000000E+03  0.17120000000E+03 0.  0.
         13    1    1    2    0    0  0.17684034226E+01 -0.20889874648E+02  0.10382081114E+03  0.10591641093E+03  0.10566000000E+00 0. -1.
        994    1    1    2    0    0  0.15204841473E+02  0.23801320933E+02  0.46134630236E+01  0.17357538456E+03  0.17120000000E+03 0.  0.
        998    1    1    2    0    0 -0.16973244895E+02 -0.29114462852E+01  0.13915657221E+04  0.13917082045E+04  0.10000000000E+02 0. -1.
</event>
<event>
 5    1  0.1271464E-008  0.3855010E+03  0.7957747E-01  0.3427550E+00
         13   -1    0    0    0    0  0.00000000000E+00  0.00000000000E+00  0.14999999963E+04  0.15000000000E+04  0.10566000000E+00 0.  1.
        994   -1    0    0    0    0 -0.00000000000E+00 -0.00000000000E+00  0.11368683772E-12  0.17120000000E+03  0.17120000000E+03 0.  0.
         13    1    1    2    0    0 -0.15121838713E+02 -0.81677794722E+01  0.10127723197E+03  0.10272522333E+03  0.10566000000E+00 0.  1.
        994    1    1    2    0    0  0.13786587977E+02  0.12230911406E+02  0.24976167346E+01  0.17220726840E+03  0.17120000000E+03 0.  0.
        998    1    1    2    0    0  0.13352507362E+01 -0.40631319341E+01  0.13962251476E+04  0.13962675083E+04  0.10000000000E+02 0.  1.
</event>
<event>
 5    1  0.1271464E-008  0.3815479E+03  0.7957747E-01  0.3444446E+00
         13   -1    0    0    0    0  0.00000000000E+00  0.00000000000E+00  0.14999999963E+04  0.15000000000E+04  0.10566000000E+00 0. -1.
        994   -1    0    0    0    0 -0.00000000000E+00 -0.00000000000E+00  0.11368683772E-12  0.17120000000E+03  0.17120000000E+03 0.  0.
         13    1    1    2    0    0 -0.10312991000E+02  0.63304336149E-01  0.14607328984E+02  0.17881471273E+02  0.10566000000E+00 0. -1.
        994    1    1    2    0    0  0.30653540734E+01 -0.15499924730E+02  0.41845285117E+01  0.17197847057E+03  0.17120000000E+03 0.  0.
        998    1    1    2    0    0  0.72476369269E+01  0.15436620394E+02  0.14812081388E+04  0.14813400582E+04  0.10000000000E+02 0. -1.
</event>
<event>
 5    1  0.1271464E-008  0.3722219E+03  0.7957747E-01  0.3485741E+00
         13   -1    0    0    0    0  0.00000000000E+00  0.00000000000E+00  0.14999999963E+04  0.15000000000E+04  0.10566000000E+00 0.  1.
        994   -1    0    0    0    0 -0.00000000000E+00 -0.00000000000E+00  0.11368683772E-12  0.17120000000E+03  0.17120000000E+03 0.  0.
         13    1    1    2    0    0 -0.50206955186E+02  0.11663017928E+02  0.20554178277E+03  0.21190611120E+03  0.10566000000E+00 0.  1.
        994    1    1    2    0    0 -0.13897322199E+01  0.40206696933E+02  0.13686435478E+02  0.17639520501E+03  0.17120000000E+03 0.  0.
        998    1    1    2    0    0  0.51596687406E+02 -0.51869714860E+02  0.12807717780E+04  0.12828986838E+04  0.10000000000E+02 0.  1.
</event>
<event>
 5    1  0.1271464E-008  0.3839705E+03  0.7957747E-01  0.3434050E+00
         13   -1    0    0    0    0  0.00000000000E+00  0.00000000000E+00  0.14999999963E+04  0.15000000000E+04  0.10566000000E+00 0. -1.
        994   -1    0    0    0    0 -0.00000000000E+00 -0.00000000000E+00  0.11368683772E-12  0.17120000000E+03  0.17120000000E+03 0.  0.
         13    1    1    2    0    0 -0.74629642549E+01  0.83381483253E+01  0.28602916243E+02  0.30714142257E+02  0.10566000000E+00 0. -1.
        994    1    1    2    0    0  0.67971674296E+01 -0.43640210351E+01  0.23574458096E+01  0.17140666182E+03  0.17120000000E+03 0.  0.
        998    1    1    2    0    0  0.66579682536E+00 -0.39741272902E+01  0.14690396342E+04  0.14690791959E+04  0.10000000000E+02 0. -1.
</event>
<event>
 5    1  0.1271464E-008  0.3726022E+03  0.7957747E-01  0.3484017E+00
         13   -1    0    0    0    0  0.00000000000E+00  0.00000000000E+00  0.14999999963E+04  0.15000000000E+04  0.10566000000E+00 0.  1.
        994   -1    0    0    0    0 -0.00000000000E+00 -0.00000000000E+00  0.11368683772E-12  0.17120000000E+03  0.17120000000E+03 0.  0.
         13    1    1    2    0    0 -0.26759795048E+02 -0.84328781767E+02  0.43100917958E+03  0.43999585692E+03  0.10566000000E+00 0.  1.
        994    1    1    2    0    0 -0.20884650196E+02  0.79459037442E+02  0.31413283667E+02  0.19247374272E+03  0.17120000000E+03 0.  0.
        998    1    1    2    0    0  0.47644445245E+02  0.48697443245E+01  0.10375775330E+04  0.10387304004E+04  0.10000000000E+02 0.  1.
</event>
<event>
 5    1  0.1271464E-008  0.3823813E+03  0.7957747E-01  0.3440855E+00
         13   -1    0    0    0    0  0.00000000000E+00  0.00000000000E+00  0.14999999963E+04  0.15000000000E+04  0.10566000000E+00 0. -1.
        994   -1    0    0    0    0 -0.00000000000E+00 -0.00000000000E+00  0.11368683772E-12  0.17120000000E+03  0.17120000000E+03 0.  0.
         13    1    1    2    0    0  0.31114914426E+01  0.16251257213E+02  0.43653746320E+02  0.46684531397E+02  0.10566000000E+00 0. -1.
        994    1    1    2    0    0 -0.13654419744E+02 -0.19832225435E+02  0.48611977945E+01  0.17295326417E+03  0.17120000000E+03 0.  0.
        998    1    1    2    0    0  0.10542928301E+02  0.35809682215E+01  0.14514850522E+04  0.14515622044E+04  0.10000000000E+02 0. -1.
</event>
<event>
 5    1  0.1271464E-008  0.3823011E+03  0.7957747E-01  0.3441200E+00
         13   -1    0    0    0    0  0.00000000000E+00  0.00000000000E+00  0.14999999963E+04  0.15000000000E+04  0.10566000000E+00 0.  1.
        994   -1    0    0    0    0 -0.00000000000E+00 -0.00000000000E+00  0.11368683772E-12  0.17120000000E+03  0.17120000000E+03 0.  0.
         13    1    1    2    0    0  0.28033805301E+02 -0.21333013915E+03  0.11677683480E+04  0.11874251843E+04  0.10566000000E+00 0.  1.
        994    1    1    2    0    0 -0.32261972254E+02  0.20950169551E+03  0.17004461411E+03  0.32117970992E+03  0.17120000000E+03 0.  0.
        998    1    1    2    0    0  0.42281669529E+01  0.38284436387E+01  0.16218703417E+03  0.16259510579E+03  0.10000000000E+02 0. -1.
</event>
<event>
 5    1  0.1271464E-008  0.3784503E+03  0.7957747E-01  0.3457934E+00
         13   -1    0    0    0    0  0.00000000000E+00  0.00000000000E+00  0.14999999963E+04  0.15000000000E+04  0.10566000000E+00 0. -1.
        994   -1    0    0    0    0 -0.00000000000E+00 -0.00000000000E+00  0.11368683772E-12  0.17120000000E+03  0.17120000000E+03 0.  0.
         13    1    1    2    0    0 -0.21592974279E+02 -0.90068592809E+01  0.51942160580E+02  0.56968230287E+02  0.10566000000E+00 0. -1.
        994    1    1    2    0    0  0.23067166219E+02  0.95363331983E+01  0.70137688799E+01  0.17315215495E+03  0.17120000000E+03 0.  0.
        998    1    1    2    0    0 -0.14741919394E+01 -0.52947391732E+00  0.14410440668E+04  0.14410796148E+04  0.10000000000E+02 0. -1.
</event>
<event>
 5    1  0.2821922E-008  0.3863923E+03  0.7957747E-01  0.3423789E+00
         13   -1    0    0    0    0  0.00000000000E+00  0.00000000000E+00  0.14999999963E+04  0.15000000000E+04  0.10566000000E+00 0.  1.
        994   -1    0    0    0    0 -0.00000000000E+00 -0.00000000000E+00  0.11368683772E-12  0.17120000000E+03  0.17120000000E+03 0.  0.
         13    1    1    2    0    0 -0.18617281349E+01 -0.10232789862E+02  0.59296761088E+02  0.60202101787E+02  0.10566000000E+00 0.  1.
        994    1    1    2    0    0  0.16380446226E+01  0.53460262898E+01  0.10428340042E+01  0.17129445610E+03  0.17120000000E+03 0.  0.
        998    1    1    2    0    0  0.22368351236E+00  0.48867635721E+01  0.14396604012E+04  0.14397034421E+04  0.10000000000E+02 0.  1.
</event>
<event>
 5    1  0.1271464E-008  0.3833096E+03  0.7957747E-01  0.3436873E+00
         13   -1    0    0    0    0  0.00000000000E+00  0.00000000000E+00  0.14999999963E+04  0.15000000000E+04  0.10566000000E+00 0.  1.
        994   -1    0    0    0    0 -0.00000000000E+00 -0.00000000000E+00  0.11368683772E-12  0.17120000000E+03  0.17120000000E+03 0.  0.
         13    1    1    2    0    0  0.20604836343E+01  0.21667169789E+02  0.92909910900E+02  0.95425230138E+02  0.10566000000E+00 0.  1.
        994    1    1    2    0    0 -0.10315723811E+02 -0.16666254798E+02  0.37431473424E+01  0.17235901299E+03  0.17120000000E+03 0.  0.
        998    1    1    2    0    0  0.82552401770E+01 -0.50009149910E+01  0.14033469380E+04  0.14034157569E+04  0.10000000000E+02 0.  1.
</event>
<event>
 5    1  0.1271464E-008  0.3782043E+03  0.7957747E-01  0.3459015E+00
         13   -1    0    0    0    0  0.00000000000E+00  0.00000000000E+00  0.14999999963E+04  0.15000000000E+04  0.10566000000E+00 0.  1.
        994   -1    0    0    0    0 -0.00000000000E+00 -0.00000000000E+00  0.11368683772E-12  0.17120000000E+03  0.17120000000E+03 0.  0.
         13    1    1    2    0    0 -0.12269734244E+01  0.43344352469E+02  0.19176173488E+03  0.19660318533E+03  0.10566000000E+00 0.  1.
        994    1    1    2    0    0 -0.44771296065E+00 -0.19499149774E+02  0.63226851871E+01  0.17242341383E+03  0.17120000000E+03 0.  0.
        998    1    1    2    0    0  0.16746863851E+01 -0.23845202695E+02  0.13019155762E+04  0.13021734008E+04  0.10000000000E+02 0.  1.
</event>
<event>
 5    1  0.1271464E-008  0.3846764E+03  0.7957747E-01  0.3431046E+00
         13   -1    0    0    0    0  0.00000000000E+00  0.00000000000E+00  0.14999999963E+04  0.15000000000E+04  0.10566000000E+00 0. -1.
        994   -1    0    0    0    0 -0.00000000000E+00 -0.00000000000E+00  0.11368683772E-12  0.17120000000E+03  0.17120000000E+03 0.  0.
         13    1    1    2    0    0 -0.14111259412E+02 -0.75375490858E+00  0.53480527634E+02  0.55316125937E+02  0.10566000000E+00 0. -1.
        994    1    1    2    0    0  0.16339981272E+02  0.10565435933E+01  0.26740153581E+01  0.17200203961E+03  0.17120000000E+03 0.  0.
        998    1    1    2    0    0 -0.22287218598E+01 -0.30278868475E+00  0.14438454533E+04  0.14438818345E+04  0.10000000000E+02 0. -1.
</event>
<event>
 5    1  0.1271464E-008  0.3854429E+03  0.7957747E-01  0.3427796E+00
         13   -1    0    0    0    0  0.00000000000E+00  0.00000000000E+00  0.14999999963E+04  0.15000000000E+04  0.10566000000E+00 0. -1.
        994   -1    0    0    0    0 -0.00000000000E+00 -0.00000000000E+00  0.11368683772E-12  0.17120000000E+03  0.17120000000E+03 0.  0.
         13    1    1    2    0    0 -0.47379278405E+01 -0.12787883653E+02  0.67849984300E+02  0.69207004429E+02  0.10566000000E+00 0. -1.
        994    1    1    2    0    0  0.10793410803E+02  0.20391953958E+01  0.18067102940E+01  0.17156153484E+03  0.17120000000E+03 0.  0.
        998    1    1    2    0    0 -0.60554829626E+01  0.10748688257E+02  0.14303433017E+04  0.14304314607E+04  0.10000000000E+02 0. -1.
</event>
<event>
 5    1  0.1271464E-008  0.3856320E+03  0.7957747E-01  0.3426996E+00
         13   -1    0    0    0    0  0.00000000000E+00  0.00000000000E+00  0.14999999963E+04  0.15000000000E+04  0.10566000000E+00 0.  1.
        994   -1    0    0    0    0 -0.00000000000E+00 -0.00000000000E+00  0.11368683772E-12  0.17120000000E+03  0.17120000000E+03 0.  0.
         13    1    1    2    0    0 -0.32172845079E+01 -0.11054114883E+02  0.49192157443E+02  0.50521519112E+02  0.10566000000E+00 0.  1.
        994    1    1    2    0    0  0.61464996132E+01  0.11239313260E+02  0.18554640541E+01  0.17168862620E+03  0.17120000000E+03 0.  0.
        998    1    1    2    0    0 -0.29292151053E+01 -0.18519837691E+00  0.14489523748E+04  0.14489898547E+04  0.10000000000E+02 0.  1.
</event>
<event>
 5    1  0.1271464E-008  0.4228899E+03  0.7957747E-01  0.3283326E+00
         13   -1    0    0    0    0  0.00000000000E+00  0.00000000000E+00  0.14999999963E+04  0.15000000000E+04  0.10566000000E+00 0.  1.
        994   -1    0    0    0    0 -0.00000000000E+00 -0.00000000000E+00  0.11368683772E-12  0.17120000000E+03  0.17120000000E+03 0.  0.
         13    1    1    2    0    0 -0.36019774593E+02  0.90475923888E+02  0.84018680245E+02  0.12861752120E+03  0.10566000000E+00 0.  1.
        994    1    1    2    0    0 -0.16791690027E+03 -0.14067520788E+03  0.30839035238E+03  0.41521036710E+03  0.17120000000E+03 0.  0.
        998    1    1    2    0    0  0.20393667486E+03  0.50199283991E+02  0.11075909637E+04  0.11273721117E+04  0.10000000000E+02 0.  1.
</event>
<event>
 5    1  0.1271464E-008  0.3803455E+03  0.7957747E-01  0.3449655E+00
         13   -1    0    0    0    0  0.00000000000E+00  0.00000000000E+00  0.14999999963E+04  0.15000000000E+04  0.10566000000E+00 0.  1.
        994   -1    0    0    0    0 -0.00000000000E+00 -0.00000000000E+00  0.11368683772E-12  0.17120000000E+03  0.17120000000E+03 0.  0.
         13    1    1    2    0    0  0.88981147948E+01  0.10053795985E+02  0.21170934124E+02  0.25069401196E+02  0.10566000000E+00 0.  1.
        994    1    1    2    0    0 -0.87036011385E+01 -0.40502295430E+01  0.42666187102E+01  0.17152201336E+03  0.17120000000E+03 0.  0.
        998    1    1    2    0    0 -0.19451365629E+00 -0.60035664422E+01  0.14745624434E+04  0.14746085854E+04  0.10000000000E+02 0.  1.
</event>
<event>
 5    1  0.1271464E-008  0.3845542E+03  0.7957747E-01  0.3431565E+00
         13   -1    0    0    0    0  0.00000000000E+00  0.00000000000E+00  0.14999999963E+04  0.15000000000E+04  0.10566000000E+00 0.  1.
        994   -1    0    0    0    0 -0.00000000000E+00 -0.00000000000E+00  0.11368683772E-12  0.17120000000E+03  0.17120000000E+03 0.  0.
         13    1    1    2    0    0  0.19035680764E+02 -0.69549514019E+01  0.95873694783E+02  0.97992372186E+02  0.10566000000E+00 0.  1.
        994    1    1    2    0    0 -0.30916771202E+02  0.12098477862E+02  0.54901312520E+01  0.17447579044E+03  0.17120000000E+03 0.  0.
        998    1    1    2    0    0  0.11881090439E+02 -0.51435264596E+01  0.13986361702E+04  0.13987318374E+04  0.10000000000E+02 0.  1.
</event>
<event>
 5    1  0.1271464E-008  0.3845977E+03  0.7957747E-01  0.3431380E+00
         13   -1    0    0    0    0  0.00000000000E+00  0.00000000000E+00  0.14999999963E+04  0.15000000000E+04  0.10566000000E+00 0. -1.
        994   -1    0    0    0    0 -0.00000000000E+00 -0.00000000000E+00  0.11368683772E-12  0.17120000000E+03  0.17120000000E+03 0.  0.
         13    1    1    2    0    0  0.10925388693E+02 -0.79044491044E+01  0.48987243445E+02  0.50809503226E+02  0.10566000000E+00 0. -1.
        994    1    1    2    0    0 -0.12826879421E+02  0.70660252158E+00  0.23736057799E+01  0.17169770566E+03  0.17120000000E+03 0.  0.
        998    1    1    2    0    0  0.19014907281E+01  0.71978465828E+01  0.14486391471E+04  0.14486927911E+04  0.10000000000E+02 0. -1.
</event>
<event>
 5    1  0.1271464E-008  0.3849954E+03  0.7957747E-01  0.3429692E+00
         13   -1    0    0    0    0  0.00000000000E+00  0.00000000000E+00  0.14999999963E+04  0.15000000000E+04  0.10566000000E+00 0.  1.
        994   -1    0    0    0    0 -0.00000000000E+00 -0.00000000000E+00  0.11368683772E-12  0.17120000000E+03  0.17120000000E+03 0.  0.
         13    1    1    2    0    0  0.10231349091E+02 -0.10980447906E+02  0.68772946465E+02  0.70391619316E+02  0.10566000000E+00 0.  1.
        994    1    1    2    0    0 -0.15736469199E+02 -0.21610132668E+00  0.24474086334E+01  0.17193927117E+03  0.17120000000E+03 0.  0.
        998    1    1    2    0    0  0.55051201079E+01  0.11196549233E+02  0.14287796412E+04  0.14288691095E+04  0.10000000000E+02 0.  1.
</event>
<event>
 5    1  0.1271464E-008  0.3731662E+03  0.7957747E-01  0.3481465E+00
         13   -1    0    0    0    0  0.00000000000E+00  0.00000000000E+00  0.14999999963E+04  0.15000000000E+04  0.10566000000E+00 0. -1.
        994   -1    0    0    0    0 -0.00000000000E+00 -0.00000000000E+00  0.11368683772E-12  0.17120000000E+03  0.17120000000E+03 0.  0.
         13    1    1    2    0    0 -0.32721665681E+02 -0.31043865855E+02  0.13195604929E+03  0.13945192405E+03  0.10566000000E+00 0. -1.
        994    1    1    2    0    0  0.22735849667E+02  0.12765607078E+02  0.99523805836E+01  0.17345999384E+03  0.17120000000E+03 0.  0.
        998    1    1    2    0    0  0.99858160147E+01  0.18278258777E+02  0.13580915664E+04  0.13582880821E+04  0.10000000000E+02 0. -1.
</event>
<event>
 5    1  0.1271464E-008  0.3852730E+03  0.7957747E-01  0.3428515E+00
         13   -1    0    0    0    0  0.00000000000E+00  0.00000000000E+00  0.14999999963E+04  0.15000000000E+04  0.10566000000E+00 0. -1.
        994   -1    0    0    0    0 -0.00000000000E+00 -0.00000000000E+00  0.11368683772E-12  0.17120000000E+03  0.17120000000E+03 0.  0.
         13    1    1    2    0    0  0.39854312860E+01 -0.11206525551E+02  0.47089156523E+02  0.48568196421E+02  0.10566000000E+00 0. -1.
        994    1    1    2    0    0 -0.35003941804E+01  0.84386354562E+01  0.17689240100E+01  0.17145271191E+03  0.17120000000E+03 0.  0.
        998    1    1    2    0    0 -0.48503710555E+00  0.27678900943E+01  0.14511419157E+04  0.14511790917E+04  0.10000000000E+02 0. -1.
</event>
<event>
 5    1  0.1271464E-008  0.3712800E+03  0.7957747E-01  0.3490029E+00
         13   -1    0    0    0    0  0.00000000000E+00  0.00000000000E+00  0.14999999963E+04  0.15000000000E+04  0.10566000000E+00 0.  1.
        994   -1    0    0    0    0 -0.00000000000E+00 -0.00000000000E+00  0.11368683772E-12  0.17120000000E+03  0.17120000000E+03 0.  0.
         13    1    1    2    0    0  0.28211102363E+02  0.15043293451E+02  0.39959070140E+02  0.51175242304E+02  0.10566000000E+00 0.  1.
        994    1    1    2    0    0 -0.52849092162E+01 -0.25709329337E+02  0.14040240570E+02  0.17376843279E+03  0.17120000000E+03 0.  0.
        998    1    1    2    0    0 -0.22926193147E+02  0.10666035886E+02  0.14460006856E+04  0.14462563249E+04  0.10000000000E+02 0.  1.
</event>
<event>
 5    1  0.1271464E-008  0.3786309E+03  0.7957747E-01  0.3457142E+00
         13   -1    0    0    0    0  0.00000000000E+00  0.00000000000E+00  0.14999999963E+04  0.15000000000E+04  0.10566000000E+00 0. -1.
        994   -1    0    0    0    0 -0.00000000000E+00 -0.00000000000E+00  0.11368683772E-12  0.17120000000E+03  0.17120000000E+03 0.  0.
         13    1    1    2    0    0  0.27023302471E+02 -0.30748248367E+02  0.15183618072E+03  0.15725759312E+03  0.10566000000E+00 0. -1.
        994    1    1    2    0    0 -0.29807603028E+02  0.34063427121E+02  0.11736977247E+02  0.17747114385E+03  0.17120000000E+03 0.  0.
        998    1    1    2    0    0  0.27843005569E+01 -0.33151787537E+01  0.13364268383E+04  0.13364712630E+04  0.10000000000E+02 0. -1.
</event>
<event>
 5    1  0.1271464E-008  0.3766373E+03  0.7957747E-01  0.3465932E+00
         13   -1    0    0    0    0  0.00000000000E+00  0.00000000000E+00  0.14999999963E+04  0.15000000000E+04  0.10566000000E+00 0. -1.
        994   -1    0    0    0    0 -0.00000000000E+00 -0.00000000000E+00  0.11368683772E-12  0.17120000000E+03  0.17120000000E+03 0.  0.
         13    1    1    2    0    0 -0.10524392760E+03 -0.12206384801E+02  0.58441566102E+03  0.59394187942E+03  0.10566000000E+00 0. -1.
        994    1    1    2    0    0  0.10418630168E+03  0.58428047614E+01  0.43585536057E+02  0.20517812451E+03  0.17120000000E+03 0.  0.
        998    1    1    2    0    0  0.10576259275E+01  0.63635800399E+01  0.87199879920E+03  0.87207999607E+03  0.10000000000E+02 0. -1.
</event>
<event>
 5    1  0.1271464E-008  0.3810296E+03  0.7957747E-01  0.3446688E+00
         13   -1    0    0    0    0  0.00000000000E+00  0.00000000000E+00  0.14999999963E+04  0.15000000000E+04  0.10566000000E+00 0. -1.
        994   -1    0    0    0    0 -0.00000000000E+00 -0.00000000000E+00  0.11368683772E-12  0.17120000000E+03  0.17120000000E+03 0.  0.
         13    1    1    2    0    0  0.95511768016E+01 -0.13151214040E+02  0.34867642082E+02  0.38470027780E+02  0.10566000000E+00 0. -1.
        994    1    1    2    0    0 -0.83552656427E+01  0.10703872436E+02  0.42288626318E+01  0.17178971631E+03  0.17120000000E+03 0.  0.
        998    1    1    2    0    0 -0.11959111589E+01  0.24473416040E+01  0.14609034916E+04  0.14609402559E+04  0.10000000000E+02 0. -1.
</event>
<event>
 5    1  0.1271464E-008  0.3847375E+03  0.7957747E-01  0.3430786E+00
         13   -1    0    0    0    0  0.00000000000E+00  0.00000000000E+00  0.14999999963E+04  0.15000000000E+04  0.10566000000E+00 0. -1.
        994   -1    0    0    0    0 -0.00000000000E+00 -0.00000000000E+00  0.11368683772E-12  0.17120000000E+03  0.17120000000E+03 0.  0.
         13    1    1    2    0    0 -0.35775142323E+00  0.15548683168E+02  0.67028597552E+02  0.68809400435E+02  0.10566000000E+00 0. -1.
        994    1    1    2    0    0  0.93279773680E+01 -0.13787369363E+02  0.26731301406E+01  0.17202816148E+03  0.17120000000E+03 0.  0.
        998    1    1    2    0    0 -0.89702259448E+01 -0.17613138048E+01  0.14302982686E+04  0.14303624381E+04  0.10000000000E+02 0. -1.
</event>
<event>
 5    1  0.1271464E-008  0.3828549E+03  0.7957747E-01  0.3438821E+00
         13   -1    0    0    0    0  0.00000000000E+00  0.00000000000E+00  0.14999999963E+04  0.15000000000E+04  0.10566000000E+00 0.  1.
        994   -1    0    0    0    0 -0.00000000000E+00 -0.00000000000E+00  0.11368683772E-12  0.17120000000E+03  0.17120000000E+03 0.  0.
         13    1    1    2    0    0  0.20340217164E+02  0.57841991042E+01  0.82763450145E+02  0.85422369655E+02  0.10566000000E+00 0.  1.
        994    1    1    2    0    0 -0.11408871388E+02 -0.30965935052E+01  0.31618244572E+01  0.17163679201E+03  0.17120000000E+03 0.  0.
        998    1    1    2    0    0 -0.89313457756E+01 -0.26876055990E+01  0.14140747217E+04  0.14141408383E+04  0.10000000000E+02 0.  1.
</event>
<event>
 5    1  0.1271464E-008  0.3930056E+03  0.7957747E-01  0.3396413E+00
         13   -1    0    0    0    0  0.00000000000E+00  0.00000000000E+00  0.14999999963E+04  0.15000000000E+04  0.10566000000E+00 0. -1.
        994   -1    0    0    0    0 -0.00000000000E+00 -0.00000000000E+00  0.11368683772E-12  0.17120000000E+03  0.17120000000E+03 0.  0.
         13    1    1    2    0    0  0.38022581700E+02  0.94833254559E+02  0.16935389956E+03  0.19778730330E+03  0.10566000000E+00 0. -1.
        994    1    1    2    0    0 -0.49760087380E+02 -0.11792072979E+03  0.89139790442E+02  0.23159599964E+03  0.17120000000E+03 0.  0.
        998    1    1    2    0    0  0.11737505680E+02  0.23087475227E+02  0.12415063063E+04  0.12418166971E+04  0.10000000000E+02 0. -1.
</event>
<event>
 5    1  0.1271464E-008  0.3858140E+03  0.7957747E-01  0.3426227E+00
         13   -1    0    0    0    0  0.00000000000E+00  0.00000000000E+00  0.14999999963E+04  0.15000000000E+04  0.10566000000E+00 0. -1.
        994   -1    0    0    0    0 -0.00000000000E+00 -0.00000000000E+00  0.11368683772E-12  0.17120000000E+03  0.17120000000E+03 0.  0.
         13    1    1    2    0    0  0.12459010296E+02 -0.54032534987E+01  0.69664208412E+02  0.70975595691E+02  0.10566000000E+00 0. -1.
        994    1    1    2    0    0 -0.17735737216E+02  0.10575656894E+02  0.26263565581E+01  0.17246083220E+03  0.17120000000E+03 0.  0.
        998    1    1    2    0    0  0.52767269196E+01 -0.51724033953E+01  0.14277094313E+04  0.14277635721E+04  0.10000000000E+02 0. -1.
</event>
<event>
 5    1  0.1271464E-008  0.3735849E+03  0.7957747E-01  0.3479576E+00
         13   -1    0    0    0    0  0.00000000000E+00  0.00000000000E+00  0.14999999963E+04  0.15000000000E+04  0.10566000000E+00 0.  1.
        994   -1    0    0    0    0 -0.00000000000E+00 -0.00000000000E+00  0.11368683772E-12  0.17120000000E+03  0.17120000000E+03 0.  0.
         13    1    1    2    0    0  0.49883776415E+02 -0.21949458219E+02  0.96431734863E+02  0.11076669408E+03  0.10566000000E+00 0.  1.
        994    1    1    2    0    0 -0.83945359174E+02  0.38126089551E+00  0.38236246885E+02  0.19446958442E+03  0.17120000000E+03 0.  0.
        998    1    1    2    0    0  0.34061582759E+02  0.21568197323E+02  0.13653320145E+04  0.13659637215E+04  0.10000000000E+02 0.  1.
</event>
<event>
 5    1  0.1271464E-008  0.3701738E+03  0.7957747E-01  0.3495093E+00
         13   -1    0    0    0    0  0.00000000000E+00  0.00000000000E+00  0.14999999963E+04  0.15000000000E+04  0.10566000000E+00 0.  1.
        994   -1    0    0    0    0 -0.00000000000E+00 -0.00000000000E+00  0.11368683772E-12  0.17120000000E+03  0.17120000000E+03 0.  0.
         13    1    1    2    0    0  0.49614116491E+02 -0.11222519667E+03  0.64801177791E+03  0.65952659597E+03  0.10566000000E+00 0.  1.
        994    1    1    2    0    0 -0.67319887034E+02  0.58139294302E+02  0.39246623159E+02  0.19688037526E+03  0.17120000000E+03 0.  0.
        998    1    1    2    0    0  0.17705770543E+02  0.54085902370E+02  0.81274159521E+03  0.81479302877E+03  0.10000000000E+02 0.  1.
</event>
<event>
 5    1  0.1271464E-008  0.3786716E+03  0.7957747E-01  0.3456963E+00
         13   -1    0    0    0    0  0.00000000000E+00  0.00000000000E+00  0.14999999963E+04  0.15000000000E+04  0.10566000000E+00 0.  1.
        994   -1    0    0    0    0 -0.00000000000E+00 -0.00000000000E+00  0.11368683772E-12  0.17120000000E+03  0.17120000000E+03 0.  0.
         13    1    1    2    0    0 -0.29906923971E+02 -0.33268021036E+02  0.18757466967E+03  0.19283530069E+03  0.10566000000E+00 0.  1.
        994    1    1    2    0    0  0.29037969555E+02  0.28447664975E+02  0.10373744050E+02  0.17626550395E+03  0.17120000000E+03 0.  0.
        998    1    1    2    0    0  0.86895441664E+00  0.48203560612E+01  0.13020515826E+04  0.13020991954E+04  0.10000000000E+02 0.  1.
</event>
<event>
 5    1  0.1271464E-008  0.3698962E+03  0.7957747E-01  0.3496368E+00
         13   -1    0    0    0    0  0.00000000000E+00  0.00000000000E+00  0.14999999963E+04  0.15000000000E+04  0.10566000000E+00 0.  1.
        994   -1    0    0    0    0 -0.00000000000E+00 -0.00000000000E+00  0.11368683772E-12  0.17120000000E+03  0.17120000000E+03 0.  0.
         13    1    1    2    0    0  0.14624343027E+03 -0.25204235177E+02  0.54627976513E+03  0.56607772198E+03  0.10566000000E+00 0.  1.
        994    1    1    2    0    0 -0.15714501905E+03  0.12098943893E+02  0.10351526116E+03  0.25468763368E+03  0.17120000000E+03 0.  0.
        998    1    1    2    0    0  0.10901588785E+02  0.13105291284E+02  0.85020496999E+03  0.85043464434E+03  0.10000000000E+02 0.  1.
</event>
<event>
 5    1  0.1271464E-008  0.3746945E+03  0.7957747E-01  0.3474590E+00
         13   -1    0    0    0    0  0.00000000000E+00  0.00000000000E+00  0.14999999963E+04  0.15000000000E+04  0.10566000000E+00 0.  1.
        994   -1    0    0    0    0 -0.00000000000E+00 -0.00000000000E+00  0.11368683772E-12  0.17120000000E+03  0.17120000000E+03 0.  0.
         13    1    1    2    0    0 -0.35912992619E+02 -0.14672853824E+02  0.11697085687E+03  0.12323647268E+03  0.10566000000E+00 0.  1.
        994    1    1    2    0    0  0.50297973447E+01  0.17445608748E+01  0.69321311470E+01  0.17142297628E+03  0.17120000000E+03 0.  0.
        998    1    1    2    0    0  0.30883195274E+02  0.12928292949E+02  0.13760970083E+04  0.13765405510E+04  0.10000000000E+02 0.  1.
</event>
<event>
 5    1  0.1271464E-008  0.3836689E+03  0.7957747E-01  0.3435337E+00
         13   -1    0    0    0    0  0.00000000000E+00  0.00000000000E+00  0.14999999963E+04  0.15000000000E+04  0.10566000000E+00 0.  1.
        994   -1    0    0    0    0 -0.00000000000E+00 -0.00000000000E+00  0.11368683772E-12  0.17120000000E+03  0.17120000000E+03 0.  0.
         13    1    1    2    0    0 -0.10579588057E+02 -0.19493969906E+02  0.11985175003E+03  0.12188681510E+03  0.10566000000E+00 0.  1.
        994    1    1    2    0    0  0.30389851081E+01 -0.35371515597E+01  0.23642784332E+01  0.17127981984E+03  0.17120000000E+03 0.  0.
        998    1    1    2    0    0  0.75406029493E+01  0.23031121466E+02  0.13777839678E+04  0.13780333651E+04  0.10000000000E+02 0.  1.
</event>
<event>
 5    1  0.1271464E-008  0.3838709E+03  0.7957747E-01  0.3434475E+00
         13   -1    0    0    0    0  0.00000000000E+00  0.00000000000E+00  0.14999999963E+04  0.15000000000E+04  0.10566000000E+00 0. -1.
        994   -1    0    0    0    0 -0.00000000000E+00 -0.00000000000E+00  0.11368683772E-12  0.17120000000E+03  0.17120000000E+03 0.  0.
         13    1    1    2    0    0 -0.19606829193E+02  0.23673165179E+02  0.17278900953E+03  0.17550185036E+03  0.10566000000E+00 0. -1.
        994    1    1    2    0    0  0.42388652957E+01 -0.55026669669E+02  0.12311098033E+02  0.18029671514E+03  0.17120000000E+03 0.  0.
        998    1    1    2    0    0  0.15367963898E+02  0.31353504490E+02  0.13148998887E+04  0.13154014345E+04  0.10000000000E+02 0. -1.
</event>
<event>
 5    1  0.1271464E-008  0.3838531E+03  0.7957747E-01  0.3434551E+00
         13   -1    0    0    0    0  0.00000000000E+00  0.00000000000E+00  0.14999999963E+04  0.15000000000E+04  0.10566000000E+00 0. -1.
        994   -1    0    0    0    0 -0.00000000000E+00 -0.00000000000E+00  0.11368683772E-12  0.17120000000E+03  0.17120000000E+03 0.  0.
         13    1    1    2    0    0  0.12169950177E+02  0.11414332203E+02  0.68210692513E+02  0.70221822848E+02  0.10566000000E+00 0. -1.
        994    1    1    2    0    0  0.11615714122E+01  0.41230102130E+01  0.22611989295E+01  0.17126850698E+03  0.17120000000E+03 0.  0.
        998    1    1    2    0    0 -0.13331521589E+02 -0.15537342416E+02  0.14295281048E+04  0.14297096702E+04  0.10000000000E+02 0. -1.
</event>
<event>
 5    1  0.1271464E-008  0.3834450E+03  0.7957747E-01  0.3436294E+00
         13   -1    0    0    0    0  0.00000000000E+00  0.00000000000E+00  0.14999999963E+04  0.15000000000E+04  0.10566000000E+00 0. -1.
        994   -1    0    0    0    0 -0.00000000000E+00 -0.00000000000E+00  0.11368683772E-12  0.17120000000E+03  0.17120000000E+03 0.  0.
         13    1    1    2    0    0 -0.12180009283E+02 -0.24595609069E+02  0.14447962853E+03  0.14706349253E+03  0.10566000000E+00 0. -1.
        994    1    1    2    0    0 -0.30280553229E+02  0.48715862202E+02  0.13356043119E+02  0.18104687521E+03  0.17120000000E+03 0.  0.
        998    1    1    2    0    0  0.42460562512E+02 -0.24120253133E+02  0.13421643246E+04  0.13430896323E+04  0.10000000000E+02 0. -1.
</event>
<event>
 5    1  0.1271464E-008  0.3866721E+03  0.7957747E-01  0.3422611E+00
         13   -1    0    0    0    0  0.00000000000E+00  0.00000000000E+00  0.14999999963E+04  0.15000000000E+04  0.10566000000E+00 0.  1.
        994   -1    0    0    0    0 -0.00000000000E+00 -0.00000000000E+00  0.11368683772E-12  0.17120000000E+03  0.17120000000E+03 0.  0.
         13    1    1    2    0    0  0.10886517859E+03 -0.71953702348E+02  0.31991347046E+03  0.34550485111E+03  0.10566000000E+00 0.  1.
        994    1    1    2    0    0 -0.10809083647E+03  0.72485012401E+02  0.86075384738E+02  0.23163790236E+03  0.17120000000E+03 0.  0.
        998    1    1    2    0    0 -0.77434212057E+00 -0.53131005290E+00  0.10940111411E+04  0.10940572465E+04  0.10000000000E+02 0.  0.
</event>
<event>
 5    1  0.1271464E-008  0.3840018E+03  0.7957747E-01  0.3433917E+00
         13   -1    0    0    0    0  0.00000000000E+00  0.00000000000E+00  0.14999999963E+04  0.15000000000E+04  0.10566000000E+00 0.  1.
        994   -1    0    0    0    0 -0.00000000000E+00 -0.00000000000E+00  0.11368683772E-12  0.17120000000E+03  0.17120000000E+03 0.  0.
         13    1    1    2    0    0 -0.17782503040E+02  0.71953069106E+01  0.88105001829E+02  0.90169242911E+02  0.10566000000E+00 0.  1.
        994    1    1    2    0    0  0.60323697625E+01 -0.83454962740E+01  0.24764445946E+01  0.17152728521E+03  0.17120000000E+03 0.  0.
        998    1    1    2    0    0  0.11750133277E+02  0.11501893634E+01  0.14094185499E+04  0.14095034719E+04  0.10000000000E+02 0.  1.
</event>
<event>
 5    1  0.1271464E-008  0.3848281E+03  0.7957747E-01  0.3430402E+00
         13   -1    0    0    0    0  0.00000000000E+00  0.00000000000E+00  0.14999999963E+04  0.15000000000E+04  0.10566000000E+00 0.  1.
        994   -1    0    0    0    0 -0.00000000000E+00 -0.00000000000E+00  0.11368683772E-12  0.17120000000E+03  0.17120000000E+03 0.  0.
         13    1    1    2    0    0 -0.12999356949E+02  0.16313312040E+02  0.12510886150E+03  0.12683590115E+03  0.10566000000E+00 0.  1.
        994    1    1    2    0    0  0.60505251238E+01 -0.13788555734E+02  0.24619252667E+01  0.17187854491E+03  0.17120000000E+03 0.  0.
        998    1    1    2    0    0  0.69488318247E+01 -0.25247563056E+01  0.13724292095E+04  0.13724855539E+04  0.10000000000E+02 0.  1.
</event>
<event>
 5    1  0.1271464E-008  0.3859830E+03  0.7957747E-01  0.3425514E+00
         13   -1    0    0    0    0  0.00000000000E+00  0.00000000000E+00  0.14999999963E+04  0.15000000000E+04  0.10566000000E+00 0.  1.
        994   -1    0    0    0    0 -0.00000000000E+00 -0.00000000000E+00  0.11368683772E-12  0.17120000000E+03  0.17120000000E+03 0.  0.
         13    1    1    2    0    0  0.12193944615E+02 -0.82708727232E+01  0.87117222122E+02  0.88354519835E+02  0.10566000000E+00 0.  1.
        994    1    1    2    0    0 -0.19999534744E+02  0.78869772798E+01  0.26594583512E+01  0.17256505590E+03  0.17120000000E+03 0.  0.
        998    1    1    2    0    0  0.78055901286E+01  0.38389544346E+00  0.14102233158E+04  0.14102804243E+04  0.10000000000E+02 0.  1.
</event>
<event>
 5    1  0.1271464E-008  0.3858158E+03  0.7957747E-01  0.3426220E+00
         13   -1    0    0    0    0  0.00000000000E+00  0.00000000000E+00  0.14999999963E+04  0.15000000000E+04  0.10566000000E+00 0.  1.
        994   -1    0    0    0    0 -0.00000000000E+00 -0.00000000000E+00  0.11368683772E-12  0.17120000000E+03  0.17120000000E+03 0.  0.
         13    1    1    2    0    0 -0.49562517714E+01  0.12186493278E+02  0.68576295427E+02  0.69826889581E+02  0.10566000000E+00 0.  1.
        994    1    1    2    0    0  0.14583805135E+02 -0.91872936483E+01  0.22007117728E+01  0.17207956552E+03  0.17120000000E+03 0.  0.
        998    1    1    2    0    0 -0.96275533631E+01 -0.29991996300E+01  0.14292229891E+04  0.14292935449E+04  0.10000000000E+02 0.  1.
</event>
<event>
 5    1  0.1271464E-008  0.3757803E+03  0.7957747E-01  0.3469740E+00
         13   -1    0    0    0    0  0.00000000000E+00  0.00000000000E+00  0.14999999963E+04  0.15000000000E+04  0.10566000000E+00 0.  1.
        994   -1    0    0    0    0 -0.00000000000E+00 -0.00000000000E+00  0.11368683772E-12  0.17120000000E+03  0.17120000000E+03 0.  0.
         13    1    1    2    0    0 -0.43819198365E+02  0.11808719619E+02  0.15514035559E+03  0.16164191629E+03  0.10566000000E+00 0.  1.
        994    1    1    2    0    0  0.31330713415E+02 -0.17195038702E+02  0.10621165191E+02  0.17521281948E+03  0.17120000000E+03 0.  0.
        998    1    1    2    0    0  0.12488484950E+02  0.53863190825E+01  0.13342384755E+04  0.13343452642E+04  0.10000000000E+02 0.  1.
</event>
<event>
 5    1  0.1271464E-008  0.3759322E+03  0.7957747E-01  0.3469064E+00
         13   -1    0    0    0    0  0.00000000000E+00  0.00000000000E+00  0.14999999963E+04  0.15000000000E+04  0.10566000000E+00 0.  1.
        994   -1    0    0    0    0 -0.00000000000E+00 -0.00000000000E+00  0.11368683772E-12  0.17120000000E+03  0.17120000000E+03 0.  0.
         13    1    1    2    0    0  0.16551023836E+01 -0.35225206856E+02  0.91899322147E+02  0.98432977894E+02  0.10566000000E+00 0.  1.
        994    1    1    2    0    0  0.30512022138E+01  0.37408696235E+02  0.10989218275E+02  0.17561014580E+03  0.17120000000E+03 0.  0.
        998    1    1    2    0    0 -0.47063045973E+01 -0.21834893793E+01  0.13971114559E+04  0.13971568763E+04  0.10000000000E+02 0.  1.
</event>
<event>
 5    1  0.1271464E-008  0.3816614E+03  0.7957747E-01  0.3443956E+00
         13   -1    0    0    0    0  0.00000000000E+00  0.00000000000E+00  0.14999999963E+04  0.15000000000E+04  0.10566000000E+00 0.  1.
        994   -1    0    0    0    0 -0.00000000000E+00 -0.00000000000E+00  0.11368683772E-12  0.17120000000E+03  0.17120000000E+03 0.  0.
         13    1    1    2    0    0 -0.28110057815E+02 -0.40393429164E+02  0.27710768737E+03  0.28144357523E+03  0.10566000000E+00 0.  1.
        994    1    1    2    0    0  0.34020370821E+02  0.46620223245E+02  0.14450963457E+02  0.18124321006E+03  0.17120000000E+03 0.  0.
        998    1    1    2    0    0 -0.59103130062E+01 -0.62267940809E+01  0.12084413454E+04  0.12085132147E+04  0.10000000000E+02 0.  1.
</event>
<event>
 5    1  0.1271464E-008  0.3757082E+03  0.7957747E-01  0.3470061E+00
         13   -1    0    0    0    0  0.00000000000E+00  0.00000000000E+00  0.14999999963E+04  0.15000000000E+04  0.10566000000E+00 0.  1.
        994   -1    0    0    0    0 -0.00000000000E+00 -0.00000000000E+00  0.11368683772E-12  0.17120000000E+03  0.17120000000E+03 0.  0.
         13    1    1    2    0    0  0.47517972912E+00  0.18813619152E+02  0.25914835614E+02  0.32027611999E+02  0.10566000000E+00 0.  1.
        994    1    1    2    0    0 -0.20539507683E+01 -0.52713717864E+01  0.64240325498E+01  0.17141386837E+03  0.17120000000E+03 0.  0.
        998    1    1    2    0    0  0.15787710391E+01 -0.13542247366E+02  0.14676611281E+04  0.14677585196E+04  0.10000000000E+02 0.  1.
</event>
<event>
 5    1  0.1271464E-008  0.3728146E+03  0.7957747E-01  0.3483055E+00
         13   -1    0    0    0    0  0.00000000000E+00  0.00000000000E+00  0.14999999963E+04  0.15000000000E+04  0.10566000000E+00 0.  1.
        994   -1    0    0    0    0 -0.00000000000E+00 -0.00000000000E+00  0.11368683772E-12  0.17120000000E+03  0.17120000000E+03 0.  0.
         13    1    1    2    0    0 -0.17208354076E+02  0.13981876793E+02  0.14203172678E+02  0.26331760420E+02  0.10566000000E+00 0.  1.
        994    1    1    2    0    0  0.16701382618E+02 -0.14663867318E+02  0.14180883512E+02  0.17321807828E+03  0.17120000000E+03 0.  0.
        998    1    1    2    0    0  0.50697145750E+00  0.68199052501E+00  0.14716159401E+04  0.14716501613E+04  0.10000000000E+02 0.  1.
</event>
<event>
 5    1  0.1271464E-008  0.3838319E+03  0.7957747E-01  0.3434641E+00
         13   -1    0    0    0    0  0.00000000000E+00  0.00000000000E+00  0.14999999963E+04  0.15000000000E+04  0.10566000000E+00 0. -1.
        994   -1    0    0    0    0 -0.00000000000E+00 -0.00000000000E+00  0.11368683772E-12  0.17120000000E+03  0.17120000000E+03 0.  0.
         13    1    1    2    0    0  0.50230683505E+01 -0.85511206755E+02  0.19001867748E+03  0.20843345857E+03  0.10566000000E+00 0. -1.
        994    1    1    2    0    0 -0.12533655375E+02  0.57648283590E+02  0.31353519219E+02  0.18377404682E+03  0.17120000000E+03 0.  0.
        998    1    1    2    0    0  0.75105870245E+01  0.27862923164E+02  0.12786277996E+04  0.12789924946E+04  0.10000000000E+02 0. -1.
</event>
<event>
 5    1  0.1271464E-008  0.3849527E+03  0.7957747E-01  0.3429873E+00
         13   -1    0    0    0    0  0.00000000000E+00  0.00000000000E+00  0.14999999963E+04  0.15000000000E+04  0.10566000000E+00 0. -1.
        994   -1    0    0    0    0 -0.00000000000E+00 -0.00000000000E+00  0.11368683772E-12  0.17120000000E+03  0.17120000000E+03 0.  0.
         13    1    1    2    0    0 -0.14784630269E+02  0.13450222266E+01  0.69831974696E+02  0.71392648298E+02  0.10566000000E+00 0. -1.
        994    1    1    2    0    0  0.21250594128E+01 -0.61097466363E+01  0.17912493369E+01  0.17133153083E+03  0.17120000000E+03 0.  0.
        998    1    1    2    0    0  0.12659570856E+02  0.47647244096E+01  0.14283767722E+04  0.14284758209E+04  0.10000000000E+02 0. -1.
</event>
<event>
 5    1  0.1271464E-008  0.3771630E+03  0.7957747E-01  0.3463605E+00
         13   -1    0    0    0    0  0.00000000000E+00  0.00000000000E+00  0.14999999963E+04  0.15000000000E+04  0.10566000000E+00 0.  1.
        994   -1    0    0    0    0 -0.00000000000E+00 -0.00000000000E+00  0.11368683772E-12  0.17120000000E+03  0.17120000000E+03 0.  0.
         13    1    1    2    0    0 -0.41183116170E+02  0.20801594056E+02  0.21454418844E+03  0.21944925457E+03  0.10566000000E+00 0.  1.
        994    1    1    2    0    0  0.87000705034E+01 -0.10905130167E+01  0.58316464508E+01  0.17152355099E+03  0.17120000000E+03 0.  0.
        998    1    1    2    0    0  0.32483045667E+02 -0.19711081039E+02  0.12796241614E+04  0.12802271944E+04  0.10000000000E+02 0.  1.
</event>
<event>
 5    1  0.1271464E-008  0.3947530E+03  0.7957747E-01  0.3389333E+00
         13   -1    0    0    0    0  0.00000000000E+00  0.00000000000E+00  0.14999999963E+04  0.15000000000E+04  0.10566000000E+00 0.  1.
        994   -1    0    0    0    0 -0.00000000000E+00 -0.00000000000E+00  0.11368683772E-12  0.17120000000E+03  0.17120000000E+03 0.  0.
         13    1    1    2    0    0  0.27102281947E+02  0.79291032477E+01  0.51129975616E+01  0.28697705015E+02  0.10566000000E+00 0.  1.
        994    1    1    2    0    0 -0.37485681815E+02 -0.30136618744E+02  0.33598893808E+02  0.18097435673E+03  0.17120000000E+03 0.  0.
        998    1    1    2    0    0  0.10383399868E+02  0.22207515496E+02  0.14612881049E+04  0.14615279383E+04  0.10000000000E+02 0.  1.
</event>
<event>
 5    1  0.1271464E-008  0.3826736E+03  0.7957747E-01  0.3439599E+00
         13   -1    0    0    0    0  0.00000000000E+00  0.00000000000E+00  0.14999999963E+04  0.15000000000E+04  0.10566000000E+00 0.  1.
        994   -1    0    0    0    0 -0.00000000000E+00 -0.00000000000E+00  0.11368683772E-12  0.17120000000E+03  0.17120000000E+03 0.  0.
         13    1    1    2    0    0 -0.12061740589E+02 -0.85933047877E+01  0.38561333538E+02  0.41307603192E+02  0.10566000000E+00 0.  1.
        994    1    1    2    0    0  0.77900160295E+01  0.41985733406E+01  0.30491049041E+01  0.17145567768E+03  0.17120000000E+03 0.  0.
        998    1    1    2    0    0  0.42717245595E+01  0.43947314471E+01  0.14583895578E+04  0.14584367191E+04  0.10000000000E+02 0.  1.
</event>
<event>
 5    1  0.1271464E-008  0.3808395E+03  0.7957747E-01  0.3447511E+00
         13   -1    0    0    0    0  0.00000000000E+00  0.00000000000E+00  0.14999999963E+04  0.15000000000E+04  0.10566000000E+00 0.  1.
        994   -1    0    0    0    0 -0.00000000000E+00 -0.00000000000E+00  0.11368683772E-12  0.17120000000E+03  0.17120000000E+03 0.  0.
         13    1    1    2    0    0 -0.11533971503E+02 -0.10872515703E+02  0.31374490757E+02  0.35151300554E+02  0.10566000000E+00 0.  1.
        994    1    1    2    0    0  0.16852867771E+02  0.12668977034E+02  0.51932678066E+01  0.17257152767E+03  0.17120000000E+03 0.  0.
        998    1    1    2    0    0 -0.53188962681E+01 -0.17964613317E+01  0.14634322377E+04  0.14634771718E+04  0.10000000000E+02 0.  1.
</event>
<event>
 5    1  0.1271464E-008  0.3825121E+03  0.7957747E-01  0.3440293E+00
         13   -1    0    0    0    0  0.00000000000E+00  0.00000000000E+00  0.14999999963E+04  0.15000000000E+04  0.10566000000E+00 0. -1.
        994   -1    0    0    0    0 -0.00000000000E+00 -0.00000000000E+00  0.11368683772E-12  0.17120000000E+03  0.17120000000E+03 0.  0.
         13    1    1    2    0    0  0.18079053255E+02 -0.87982150803E+01  0.66206622015E+02  0.69192403614E+02  0.10566000000E+00 0. -1.
        994    1    1    2    0    0 -0.16488807786E+02  0.18394850959E+02  0.48962574568E+01  0.17304237822E+03  0.17120000000E+03 0.  0.
        998    1    1    2    0    0 -0.15902454691E+01 -0.95966358783E+01  0.14288971168E+04  0.14289652182E+04  0.10000000000E+02 0. -1.
</event>
<event>
 5    1  0.1271464E-008  0.3809283E+03  0.7957747E-01  0.3447127E+00
         13   -1    0    0    0    0  0.00000000000E+00  0.00000000000E+00  0.14999999963E+04  0.15000000000E+04  0.10566000000E+00 0.  1.
        994   -1    0    0    0    0 -0.00000000000E+00 -0.00000000000E+00  0.11368683772E-12  0.17120000000E+03  0.17120000000E+03 0.  0.
         13    1    1    2    0    0 -0.92442726808E+00 -0.17358540511E+02  0.39819029655E+02  0.43448127476E+02  0.10566000000E+00 0.  1.
        994    1    1    2    0    0  0.38948864547E+01  0.11653937311E+02  0.41686462962E+01  0.17169100736E+03  0.17120000000E+03 0.  0.
        998    1    1    2    0    0 -0.29704591866E+01  0.57046032001E+01  0.14560123203E+04  0.14560608652E+04  0.10000000000E+02 0.  1.
</event>
<event>
 5    1  0.1271464E-008  0.3816360E+03  0.7957747E-01  0.3444066E+00
         13   -1    0    0    0    0  0.00000000000E+00  0.00000000000E+00  0.14999999963E+04  0.15000000000E+04  0.10566000000E+00 0. -1.
        994   -1    0    0    0    0 -0.00000000000E+00 -0.00000000000E+00  0.11368683772E-12  0.17120000000E+03  0.17120000000E+03 0.  0.
         13    1    1    2    0    0 -0.51674238361E+01 -0.19105145984E+02  0.58489520642E+02  0.61747421494E+02  0.10566000000E+00 0. -1.
        994    1    1    2    0    0  0.11605345670E+02  0.83552948601E+01  0.39898120945E+01  0.17184252559E+03  0.17120000000E+03 0.  0.
        998    1    1    2    0    0 -0.64379218344E+01  0.10749851124E+02  0.14375206635E+04  0.14376100529E+04  0.10000000000E+02 0. -1.
</event>
<event>
 5    1  0.1271464E-008  0.3708745E+03  0.7957747E-01  0.3491881E+00
         13   -1    0    0    0    0  0.00000000000E+00  0.00000000000E+00  0.14999999963E+04  0.15000000000E+04  0.10566000000E+00 0.  1.
        994   -1    0    0    0    0 -0.00000000000E+00 -0.00000000000E+00  0.11368683772E-12  0.17120000000E+03  0.17120000000E+03 0.  0.
         13    1    1    2    0    0 -0.54014364706E+02 -0.18161493778E+03  0.70493261107E+03  0.72995310434E+03  0.10566000000E+00 0.  1.
        994    1    1    2    0    0  0.11132042677E+02  0.21730969216E+03  0.19533107761E+03  0.33883785881E+03  0.17120000000E+03 0.  0.
        998    1    1    2    0    0  0.42882322029E+02 -0.35694754376E+02  0.59973630760E+03  0.60240903685E+03  0.10000000000E+02 0.  1.
</event>
<event>
 5    1  0.1271464E-008  0.3744086E+03  0.7957747E-01  0.3475872E+00
         13   -1    0    0    0    0  0.00000000000E+00  0.00000000000E+00  0.14999999963E+04  0.15000000000E+04  0.10566000000E+00 0.  1.
        994   -1    0    0    0    0 -0.00000000000E+00 -0.00000000000E+00  0.11368683772E-12  0.17120000000E+03  0.17120000000E+03 0.  0.
         13    1    1    2    0    0  0.13790493425E+02  0.35277154212E+01  0.11201023426E+02  0.18113436306E+02  0.10566000000E+00 0.  1.
        994    1    1    2    0    0 -0.17292582604E+02 -0.39925589499E+01  0.80562733258E+01  0.17230588347E+03  0.17120000000E+03 0.  0.
        998    1    1    2    0    0  0.35020891787E+01  0.46484352874E+00  0.14807426995E+04  0.14807806802E+04  0.10000000000E+02 0.  1.
</event>
<event>
 5    1  0.1271464E-008  0.3850645E+03  0.7957747E-01  0.3429399E+00
         13   -1    0    0    0    0  0.00000000000E+00  0.00000000000E+00  0.14999999963E+04  0.15000000000E+04  0.10566000000E+00 0.  1.
        994   -1    0    0    0    0 -0.00000000000E+00 -0.00000000000E+00  0.11368683772E-12  0.17120000000E+03  0.17120000000E+03 0.  0.
         13    1    1    2    0    0 -0.42222696714E+01 -0.12678451631E+02  0.53387264240E+02  0.55034369661E+02  0.10566000000E+00 0.  1.
        994    1    1    2    0    0 -0.18007199013E+02  0.24368750062E+02  0.46226030245E+01  0.17392211951E+03  0.17120000000E+03 0.  0.
        998    1    1    2    0    0  0.22229468684E+02 -0.11690298431E+02  0.14419901290E+04  0.14422435108E+04  0.10000000000E+02 0.  1.
</event>
<event>
 5    1  0.1271464E-008  0.3848422E+03  0.7957747E-01  0.3430342E+00
         13   -1    0    0    0    0  0.00000000000E+00  0.00000000000E+00  0.14999999963E+04  0.15000000000E+04  0.10566000000E+00 0.  1.
        994   -1    0    0    0    0 -0.00000000000E+00 -0.00000000000E+00  0.11368683772E-12  0.17120000000E+03  0.17120000000E+03 0.  0.
         13    1    1    2    0    0  0.70582285714E+00 -0.16523985505E+02  0.76401385121E+02  0.78171114200E+02  0.10566000000E+00 0.  1.
        994    1    1    2    0    0  0.70985678671E+01  0.18077090013E+02  0.29504952148E+01  0.17232328998E+03  0.17120000000E+03 0.  0.
        998    1    1    2    0    0 -0.78043907242E+01 -0.15531045077E+01  0.14206481159E+04  0.14207055958E+04  0.10000000000E+02 0.  1.
</event>
<event>
 5    1  0.1271464E-008  0.4269385E+03  0.7957747E-01  0.3269206E+00
         13   -1    0    0    0    0  0.00000000000E+00  0.00000000000E+00  0.14999999963E+04  0.15000000000E+04  0.10566000000E+00 0.  1.
        994   -1    0    0    0    0 -0.00000000000E+00 -0.00000000000E+00  0.11368683772E-12  0.17120000000E+03  0.17120000000E+03 0.  0.
         13    1    1    2    0    0 -0.11415996560E+03  0.96721026092E+02  0.20926528506E+03  0.25725362063E+03  0.10566000000E+00 0.  1.
        994    1    1    2    0    0  0.13193425885E+03 -0.52021354417E+02  0.14120049605E+03  0.26336265882E+03  0.17120000000E+03 0.  0.
        998    1    1    2    0    0 -0.17774293253E+02 -0.44699671675E+02  0.11495342152E+04  0.11505837206E+04  0.10000000000E+02 0.  1.
</event>
<event>
 5    1  0.2236886E-008  0.3863831E+03  0.7957747E-01  0.3423828E+00
         13   -1    0    0    0    0  0.00000000000E+00  0.00000000000E+00  0.14999999963E+04  0.15000000000E+04  0.10566000000E+00 0. -1.
        994   -1    0    0    0    0 -0.00000000000E+00 -0.00000000000E+00  0.11368683772E-12  0.17120000000E+03  0.17120000000E+03 0.  0.
         13    1    1    2    0    0 -0.35996086813E+01  0.95673584807E+01  0.56031043184E+02  0.56955952237E+02  0.10566000000E+00 0. -1.
        994    1    1    2    0    0  0.37360949651E+01 -0.67406572903E+01  0.11395012654E+01  0.17137716688E+03  0.17120000000E+03 0.  0.
        998    1    1    2    0    0 -0.13648628376E+00 -0.28267011903E+01  0.14428294518E+04  0.14428668809E+04  0.10000000000E+02 0. -1.
</event>
<event>
 5    1  0.1271464E-008  0.3861350E+03  0.7957747E-01  0.3424873E+00
         13   -1    0    0    0    0  0.00000000000E+00  0.00000000000E+00  0.14999999963E+04  0.15000000000E+04  0.10566000000E+00 0.  1.
        994   -1    0    0    0    0 -0.00000000000E+00 -0.00000000000E+00  0.11368683772E-12  0.17120000000E+03  0.17120000000E+03 0.  0.
         13    1    1    2    0    0  0.13865019295E+03  0.17106622354E+03  0.11819805169E+04  0.12023167146E+04  0.10566000000E+00 0.  1.
        994    1    1    2    0    0 -0.15676166185E+03 -0.17431676066E+03  0.20857781001E+03  0.35745586371E+03  0.17120000000E+03 0.  0.
        998    1    1    2    0    0  0.18111468900E+02  0.32505371230E+01  0.10944166941E+03  0.11142742167E+03  0.10000000000E+02 0.  1.
</event>
<event>
 5    1  0.1271464E-008  0.3818538E+03  0.7957747E-01  0.3443126E+00
         13   -1    0    0    0    0  0.00000000000E+00  0.00000000000E+00  0.14999999963E+04  0.15000000000E+04  0.10566000000E+00 0. -1.
        994   -1    0    0    0    0 -0.00000000000E+00 -0.00000000000E+00  0.11368683772E-12  0.17120000000E+03  0.17120000000E+03 0.  0.
         13    1    1    2    0    0 -0.18928565616E+02 -0.24584941131E+02  0.14258384342E+03  0.14592077815E+03  0.10566000000E+00 0. -1.
        994    1    1    2    0    0  0.23897654708E+02  0.13576212990E+02  0.57142023916E+01  0.17348632098E+03  0.17120000000E+03 0.  0.
        998    1    1    2    0    0 -0.49690890927E+01  0.11008728142E+02  0.13517019505E+04  0.13517929009E+04  0.10000000000E+02 0. -1.
</event>
<event>
 5    1  0.1271464E-008  0.3749210E+03  0.7957747E-01  0.3473576E+00
         13   -1    0    0    0    0  0.00000000000E+00  0.00000000000E+00  0.14999999963E+04  0.15000000000E+04  0.10566000000E+00 0.  1.
        994   -1    0    0    0    0 -0.00000000000E+00 -0.00000000000E+00  0.11368683772E-12  0.17120000000E+03  0.17120000000E+03 0.  0.
         13    1    1    2    0    0  0.66987422683E+01  0.64191502057E+02  0.35935669201E+03  0.36510637538E+03  0.10566000000E+00 0.  1.
        994    1    1    2    0    0  0.31000676267E+01 -0.19388906591E+02  0.80312877757E+01  0.17250936700E+03  0.17120000000E+03 0.  0.
        998    1    1    2    0    0 -0.97988098951E+01 -0.44802595466E+02  0.11326120165E+04  0.11335842576E+04  0.10000000000E+02 0.  1.
</event>
<event>
 5    1  0.1271464E-008  0.3747747E+03  0.7957747E-01  0.3474231E+00
         13   -1    0    0    0    0  0.00000000000E+00  0.00000000000E+00  0.14999999963E+04  0.15000000000E+04  0.10566000000E+00 0. -1.
        994   -1    0    0    0    0 -0.00000000000E+00 -0.00000000000E+00  0.11368683772E-12  0.17120000000E+03  0.17120000000E+03 0.  0.
         13    1    1    2    0    0  0.14452943787E+02 -0.83349405592E+01  0.17053772896E+02  0.23857936882E+02  0.10566000000E+00 0. -1.
        994    1    1    2    0    0 -0.21285194337E+02  0.10368585175E+02  0.87037486610E+01  0.17304843916E+03  0.17120000000E+03 0.  0.
        998    1    1    2    0    0  0.68322505503E+01 -0.20336446160E+01  0.14742424747E+04  0.14742936240E+04  0.10000000000E+02 0. -1.
</event>
<event>
 5    1  0.1271464E-008  0.3796874E+03  0.7957747E-01  0.3452521E+00
         13   -1    0    0    0    0  0.00000000000E+00  0.00000000000E+00  0.14999999963E+04  0.15000000000E+04  0.10566000000E+00 0. -1.
        994   -1    0    0    0    0 -0.00000000000E+00 -0.00000000000E+00  0.11368683772E-12  0.17120000000E+03  0.17120000000E+03 0.  0.
         13    1    1    2    0    0 -0.20959468490E+02 -0.35667322782E+01  0.52360838916E+02  0.56512737632E+02  0.10566000000E+00 0. -1.
        994    1    1    2    0    0  0.64157366246E+01  0.52500164110E+01  0.45210165431E+01  0.17146021095E+03  0.17120000000E+03 0.  0.
        998    1    1    2    0    0  0.14543731866E+02 -0.16832841328E+01  0.14431181408E+04  0.14432270514E+04  0.10000000000E+02 0. -1.
</event>
<event>
 5    1  0.1271464E-008  0.3824389E+03  0.7957747E-01  0.3440607E+00
         13   -1    0    0    0    0  0.00000000000E+00  0.00000000000E+00  0.14999999963E+04  0.15000000000E+04  0.10566000000E+00 0.  1.
        994   -1    0    0    0    0 -0.00000000000E+00 -0.00000000000E+00  0.11368683772E-12  0.17120000000E+03  0.17120000000E+03 0.  0.
         13    1    1    2    0    0 -0.18399557777E+02  0.39362313772E+01  0.63558656035E+02  0.66285379722E+02  0.10566000000E+00 0.  1.
        994    1    1    2    0    0  0.16612633508E+01  0.66269818742E+01  0.30618698632E+01  0.17136362430E+03  0.17120000000E+03 0.  0.
        998    1    1    2    0    0  0.16738294426E+02 -0.10563213251E+02  0.14333794704E+04  0.14335509960E+04  0.10000000000E+02 0.  1.
</event>
<event>
 5    1  0.1271464E-008  0.3688016E+03  0.7957747E-01  0.3501417E+00
         13   -1    0    0    0    0  0.00000000000E+00  0.00000000000E+00  0.14999999963E+04  0.15000000000E+04  0.10566000000E+00 0. -1.
        994   -1    0    0    0    0 -0.00000000000E+00 -0.00000000000E+00  0.11368683772E-12  0.17120000000E+03  0.17120000000E+03 0.  0.
         13    1    1    2    0    0  0.35509188337E+02 -0.27631651584E+02  0.88037742441E+02  0.98868932854E+02  0.10566000000E+00 0. -1.
        994    1    1    2    0    0 -0.20494856044E+02  0.54127269794E+02  0.22060979173E+02  0.18206022976E+03  0.17120000000E+03 0.  0.
        998    1    1    2    0    0 -0.15014332293E+02 -0.26495618210E+02  0.13899012747E+04  0.13902708374E+04  0.10000000000E+02 0. -1.
</event>
<event>
 5    1  0.1271464E-008  0.3758478E+03  0.7957747E-01  0.3469440E+00
         13   -1    0    0    0    0  0.00000000000E+00  0.00000000000E+00  0.14999999963E+04  0.15000000000E+04  0.10566000000E+00 0.  1.
        994   -1    0    0    0    0 -0.00000000000E+00 -0.00000000000E+00  0.11368683772E-12  0.17120000000E+03  0.17120000000E+03 0.  0.
         13    1    1    2    0    0 -0.31755935251E+02  0.21326794682E+02  0.12358265046E+03  0.12936751623E+03  0.10566000000E+00 0.  1.
        994    1    1    2    0    0  0.33199880785E+01 -0.96411706782E+01  0.65965114078E+01  0.17163020846E+03  0.17120000000E+03 0.  0.
        998    1    1    2    0    0  0.28435947172E+02 -0.11685624004E+02  0.13698208344E+04  0.13702022753E+04  0.10000000000E+02 0.  1.
</event>
<event>
 5    1  0.1271464E-008  0.3807309E+03  0.7957747E-01  0.3447982E+00
         13   -1    0    0    0    0  0.00000000000E+00  0.00000000000E+00  0.14999999963E+04  0.15000000000E+04  0.10566000000E+00 0. -1.
        994   -1    0    0    0    0 -0.00000000000E+00 -0.00000000000E+00  0.11368683772E-12  0.17120000000E+03  0.17120000000E+03 0.  0.
         13    1    1    2    0    0 -0.26769523179E+01 -0.11474244235E+02  0.16835516746E+02  0.20549212700E+02  0.10566000000E+00 0. -1.
        994    1    1    2    0    0  0.49539105308E+01  0.79780601841E+01  0.40587868962E+01  0.17150540640E+03  0.17120000000E+03 0.  0.
        998    1    1    2    0    0 -0.22769582129E+01  0.34961840511E+01  0.14791056926E+04  0.14791453809E+04  0.10000000000E+02 0. -1.
</event>
<event>
 5    1  0.1271464E-008  0.3754142E+03  0.7957747E-01  0.3471372E+00
         13   -1    0    0    0    0  0.00000000000E+00  0.00000000000E+00  0.14999999963E+04  0.15000000000E+04  0.10566000000E+00 0.  1.
        994   -1    0    0    0    0 -0.00000000000E+00 -0.00000000000E+00  0.11368683772E-12  0.17120000000E+03  0.17120000000E+03 0.  0.
         13    1    1    2    0    0 -0.15256744101E+02 -0.53140218855E+02  0.21526582999E+03  0.22225219869E+03  0.10566000000E+00 0.  1.
        994    1    1    2    0    0  0.63545113056E+02  0.32068725578E+02  0.23862741192E+02  0.18693649984E+03  0.17120000000E+03 0.  0.
        998    1    1    2    0    0 -0.48288368955E+02  0.21071493277E+02  0.12608714251E+04  0.12620113015E+04  0.10000000000E+02 0.  1.
</event>
<event>
 5    1  0.1271464E-008  0.3811846E+03  0.7957747E-01  0.3446017E+00
         13   -1    0    0    0    0  0.00000000000E+00  0.00000000000E+00  0.14999999963E+04  0.15000000000E+04  0.10566000000E+00 0. -1.
        994   -1    0    0    0    0 -0.00000000000E+00 -0.00000000000E+00  0.11368683772E-12  0.17120000000E+03  0.17120000000E+03 0.  0.
         13    1    1    2    0    0  0.39905897480E+02  0.72989836156E+02  0.33643081008E+03  0.34656268981E+03  0.10566000000E+00 0. -1.
        994    1    1    2    0    0  0.91376080089E+01  0.39457233329E+02  0.22972922575E+02  0.17741917685E+03  0.17120000000E+03 0.  0.
        998    1    1    2    0    0 -0.49043505489E+02 -0.11244706948E+03  0.11405962636E+04  0.11472181333E+04  0.10000000000E+02 0. -1.
</event>
<event>
 5    1  0.1459580E-008  0.3860811E+03  0.7957747E-01  0.3425100E+00
         13   -1    0    0    0    0  0.00000000000E+00  0.00000000000E+00  0.14999999963E+04  0.15000000000E+04  0.10566000000E+00 0.  1.
        994   -1    0    0    0    0 -0.00000000000E+00 -0.00000000000E+00  0.11368683772E-12  0.17120000000E+03  0.17120000000E+03 0.  0.
         13    1    1    2    0    0  0.69549336682E+01  0.91988974299E+01  0.61334751766E+02  0.62409564607E+02  0.10566000000E+00 0.  1.
        994    1    1    2    0    0 -0.20793952777E+01 -0.87403538498E+01  0.13589025920E+01  0.17144096443E+03  0.17120000000E+03 0.  0.
        998    1    1    2    0    0 -0.48755383904E+01 -0.45854358009E+00  0.14373063419E+04  0.14373494710E+04  0.10000000000E+02 0.  1.
</event>
<event>
 5    1  0.1271464E-008  0.3835084E+03  0.7957747E-01  0.3436023E+00
         13   -1    0    0    0    0  0.00000000000E+00  0.00000000000E+00  0.14999999963E+04  0.15000000000E+04  0.10566000000E+00 0.  1.
        994   -1    0    0    0    0 -0.00000000000E+00 -0.00000000000E+00  0.11368683772E-12  0.17120000000E+03  0.17120000000E+03 0.  0.
         13    1    1    2    0    0 -0.82797861729E+01 -0.20081886438E+02  0.89812995295E+02  0.92402501643E+02  0.10566000000E+00 0.  1.
        994    1    1    2    0    0  0.73480626490E+01  0.28555270856E+02  0.52508622011E+01  0.17379991102E+03  0.17120000000E+03 0.  0.
        998    1    1    2    0    0  0.93172352398E+00 -0.84733844183E+01  0.14049361388E+04  0.14049975873E+04  0.10000000000E+02 0.  1.
</event>
<event>
 5    1  0.1271464E-008  0.3790058E+03  0.7957747E-01  0.3455499E+00
         13   -1    0    0    0    0  0.00000000000E+00  0.00000000000E+00  0.14999999963E+04  0.15000000000E+04  0.10566000000E+00 0.  1.
        994   -1    0    0    0    0 -0.00000000000E+00 -0.00000000000E+00  0.11368683772E-12  0.17120000000E+03  0.17120000000E+03 0.  0.
         13    1    1    2    0    0  0.40108346833E+02 -0.24845530978E+02  0.21406091195E+03  0.21919868860E+03  0.10566000000E+00 0.  1.
        994    1    1    2    0    0 -0.35332745362E+02  0.23063926449E+02  0.10630280191E+02  0.17664311607E+03  0.17120000000E+03 0.  0.
        998    1    1    2    0    0 -0.47756014712E+01  0.17816045286E+01  0.12753088041E+04  0.12753581953E+04  0.10000000000E+02 0.  1.
</event>
<event>
 5    1  0.1271464E-008  0.3778964E+03  0.7957747E-01  0.3460369E+00
         13   -1    0    0    0    0  0.00000000000E+00  0.00000000000E+00  0.14999999963E+04  0.15000000000E+04  0.10566000000E+00 0.  1.
        994   -1    0    0    0    0 -0.00000000000E+00 -0.00000000000E+00  0.11368683772E-12  0.17120000000E+03  0.17120000000E+03 0.  0.
         13    1    1    2    0    0 -0.85177844888E+01 -0.13887091232E+02  0.22872124495E+02  0.28081118184E+02  0.10566000000E+00 0.  1.
        994    1    1    2    0    0  0.98746506938E+01  0.16337622595E+02  0.64265319638E+01  0.17238087757E+03  0.17120000000E+03 0.  0.
        998    1    1    2    0    0 -0.13568662050E+01 -0.24505313633E+01  0.14707013398E+04  0.14707380042E+04  0.10000000000E+02 0.  1.
</event>
<event>
 5    1  0.1271464E-008  0.3804255E+03  0.7957747E-01  0.3449308E+00
         13   -1    0    0    0    0  0.00000000000E+00  0.00000000000E+00  0.14999999963E+04  0.15000000000E+04  0.10566000000E+00 0.  1.
        994   -1    0    0    0    0 -0.00000000000E+00 -0.00000000000E+00  0.11368683772E-12  0.17120000000E+03  0.17120000000E+03 0.  0.
         13    1    1    2    0    0 -0.19456664926E+02  0.15416524724E+02  0.78325297553E+02  0.82165043939E+02  0.10566000000E+00 0.  1.
        994    1    1    2    0    0  0.81708663212E+01 -0.99602088844E+01  0.44727514313E+01  0.17174229043E+03  0.17120000000E+03 0.  0.
        998    1    1    2    0    0  0.11285798605E+02 -0.54563158393E+01  0.14172019473E+04  0.14172926656E+04  0.10000000000E+02 0.  1.
</event>
<event>
 5    1  0.1271464E-008  0.3771875E+03  0.7957747E-01  0.3463497E+00
         13   -1    0    0    0    0  0.00000000000E+00  0.00000000000E+00  0.14999999963E+04  0.15000000000E+04  0.10566000000E+00 0.  1.
        994   -1    0    0    0    0 -0.00000000000E+00 -0.00000000000E+00  0.11368683772E-12  0.17120000000E+03  0.17120000000E+03 0.  0.
         13    1    1    2    0    0  0.74752653572E+01  0.15203693921E+02  0.23475047459E+02  0.28950318102E+02  0.10566000000E+00 0.  1.
        994    1    1    2    0    0 -0.32706797309E+01 -0.11603450563E+02  0.60502403375E+01  0.17173055296E+03  0.17120000000E+03 0.  0.
        998    1    1    2    0    0 -0.42045856263E+01 -0.36002433584E+01  0.14704747085E+04  0.14705191289E+04  0.10000000000E+02 0.  1.
</event>
<event>
 5    1  0.1271464E-008  0.3835522E+03  0.7957747E-01  0.3435836E+00
         13   -1    0    0    0    0  0.00000000000E+00  0.00000000000E+00  0.14999999963E+04  0.15000000000E+04  0.10566000000E+00 0.  1.
        994   -1    0    0    0    0 -0.00000000000E+00 -0.00000000000E+00  0.11368683772E-12  0.17120000000E+03  0.17120000000E+03 0.  0.
         13    1    1    2    0    0 -0.13387949322E+02 -0.56268147485E+01  0.45062048140E+02  0.47344456675E+02  0.10566000000E+00 0.  1.
        994    1    1    2    0    0  0.51801329628E+01  0.18936487170E+01  0.24511722657E+01  0.17130635694E+03  0.17120000000E+03 0.  0.
        998    1    1    2    0    0  0.82078163592E+01  0.37331660315E+01  0.14524867759E+04  0.14525491864E+04  0.10000000000E+02 0.  1.
</event>
<event>
 5    1  0.1271464E-008  0.3848995E+03  0.7957747E-01  0.3430099E+00
         13   -1    0    0    0    0  0.00000000000E+00  0.00000000000E+00  0.14999999963E+04  0.15000000000E+04  0.10566000000E+00 0.  1.
        994   -1    0    0    0    0 -0.00000000000E+00 -0.00000000000E+00  0.11368683772E-12  0.17120000000E+03  0.17120000000E+03 0.  0.
         13    1    1    2    0    0 -0.71738531792E+01 -0.86437345448E+01  0.38197928715E+02  0.39815464816E+02  0.10566000000E+00 0.  1.
        994    1    1    2    0    0 -0.16489954248E+01  0.53094118962E+01  0.17817570890E+01  0.17129951459E+03  0.17120000000E+03 0.  0.
        998    1    1    2    0    0  0.88228486040E+01  0.33343226485E+01  0.14600203105E+04  0.14600850206E+04  0.10000000000E+02 0.  1.
</event>
<event>
 5    1  0.1271464E-008  0.3776681E+03  0.7957747E-01  0.3461375E+00
         13   -1    0    0    0    0  0.00000000000E+00  0.00000000000E+00  0.14999999963E+04  0.15000000000E+04  0.10566000000E+00 0.  1.
        994   -1    0    0    0    0 -0.00000000000E+00 -0.00000000000E+00  0.11368683772E-12  0.17120000000E+03  0.17120000000E+03 0.  0.
         13    1    1    2    0    0 -0.19454915914E+02 -0.28428075277E+02  0.11806886534E+03  0.12299153362E+03  0.10566000000E+00 0.  1.
        994    1    1    2    0    0  0.96031867490E+01  0.11406056802E+01  0.56300426465E+01  0.17156532155E+03  0.17120000000E+03 0.  0.
        998    1    1    2    0    0  0.98517291651E+01  0.27287469597E+02  0.13763010883E+04  0.13766431448E+04  0.10000000000E+02 0.  1.
</event>
<event>
 5    1  0.1271464E-008  0.3776830E+03  0.7957747E-01  0.3461310E+00
         13   -1    0    0    0    0  0.00000000000E+00  0.00000000000E+00  0.14999999963E+04  0.15000000000E+04  0.10566000000E+00 0.  1.
        994   -1    0    0    0    0 -0.00000000000E+00 -0.00000000000E+00  0.11368683772E-12  0.17120000000E+03  0.17120000000E+03 0.  0.
         13    1    1    2    0    0  0.33761767031E+02 -0.13630277519E+02  0.11457304743E+03  0.12021911553E+03  0.10566000000E+00 0.  1.
        994    1    1    2    0    0 -0.33111770117E+02  0.15087228847E+02  0.97805486366E+01  0.17529721312E+03  0.17120000000E+03 0.  0.
        998    1    1    2    0    0 -0.64999691454E+00 -0.14569513282E+01  0.13756464002E+04  0.13756836714E+04  0.10000000000E+02 0.  1.
</event>
<event>
 5    1  0.1271464E-008  0.3823986E+03  0.7957747E-01  0.3440780E+00
         13   -1    0    0    0    0  0.00000000000E+00  0.00000000000E+00  0.14999999963E+04  0.15000000000E+04  0.10566000000E+00 0. -1.
        994   -1    0    0    0    0 -0.00000000000E+00 -0.00000000000E+00  0.11368683772E-12  0.17120000000E+03  0.17120000000E+03 0.  0.
         13    1    1    2    0    0  0.12259689974E+02  0.45461387796E+01  0.27710595599E+02  0.30640751436E+02  0.10566000000E+00 0. -1.
        994    1    1    2    0    0 -0.12294226631E+02 -0.57157332341E+01  0.35370930188E+01  0.17177243272E+03  0.17120000000E+03 0.  0.
        998    1    1    2    0    0  0.34536656448E-01  0.11695944545E+01  0.14687523077E+04  0.14687868158E+04  0.10000000000E+02 0. -1.
</event>
<event>
 5    1  0.1271464E-008  0.3882464E+03  0.7957747E-01  0.3416019E+00
         13   -1    0    0    0    0  0.00000000000E+00  0.00000000000E+00  0.14999999963E+04  0.15000000000E+04  0.10566000000E+00 0. -1.
        994   -1    0    0    0    0 -0.00000000000E+00 -0.00000000000E+00  0.11368683772E-12  0.17120000000E+03  0.17120000000E+03 0.  0.
         13    1    1    2    0    0  0.26541759544E+02  0.35176364649E+01  0.61507296598E+01  0.27471465294E+02  0.10566000000E+00 0. -1.
        994    1    1    2    0    0 -0.88057936267E+02  0.10694812616E+02  0.50976929047E+02  0.19944088460E+03  0.17120000000E+03 0.  0.
        998    1    1    2    0    0  0.61516176723E+02 -0.14212449081E+02  0.14428723376E+04  0.14442876501E+04  0.10000000000E+02 0. -1.
</event>
<event>
 5    1  0.1271464E-008  0.3818609E+03  0.7957747E-01  0.3443095E+00
         13   -1    0    0    0    0  0.00000000000E+00  0.00000000000E+00  0.14999999963E+04  0.15000000000E+04  0.10566000000E+00 0.  1.
        994   -1    0    0    0    0 -0.00000000000E+00 -0.00000000000E+00  0.11368683772E-12  0.17120000000E+03  0.17120000000E+03 0.  0.
         13    1    1    2    0    0 -0.29391223944E+02  0.26065075885E+02  0.20754104895E+03  0.21122625402E+03  0.10566000000E+00 0.  1.
        994    1    1    2    0    0  0.43035185113E+02 -0.13290941337E+02  0.99664514245E+01  0.17730608121E+03  0.17120000000E+03 0.  0.
        998    1    1    2    0    0 -0.13643961169E+02 -0.12774134548E+02  0.12824924959E+04  0.12826676648E+04  0.10000000000E+02 0.  1.
</event>
<event>
 5    1  0.1271464E-008  0.3837946E+03  0.7957747E-01  0.3434801E+00
         13   -1    0    0    0    0  0.00000000000E+00  0.00000000000E+00  0.14999999963E+04  0.15000000000E+04  0.10566000000E+00 0. -1.
        994   -1    0    0    0    0 -0.00000000000E+00 -0.00000000000E+00  0.11368683772E-12  0.17120000000E+03  0.17120000000E+03 0.  0.
         13    1    1    2    0    0 -0.10143982051E+02 -0.14420336134E+02  0.67190736446E+02  0.69465478435E+02  0.10566000000E+00 0. -1.
        994    1    1    2    0    0  0.67902706602E+01  0.15693677075E+02  0.31957402813E+01  0.17208152728E+03  0.17120000000E+03 0.  0.
        998    1    1    2    0    0  0.33537113904E+01 -0.12733409407E+01  0.14296135196E+04  0.14296529943E+04  0.10000000000E+02 0. -1.
</event>
<event>
 5    1  0.1271464E-008  0.3835264E+03  0.7957747E-01  0.3435946E+00
         13   -1    0    0    0    0  0.00000000000E+00  0.00000000000E+00  0.14999999963E+04  0.15000000000E+04  0.10566000000E+00 0.  1.
        994   -1    0    0    0    0 -0.00000000000E+00 -0.00000000000E+00  0.11368683772E-12  0.17120000000E+03  0.17120000000E+03 0.  0.
         13    1    1    2    0    0  0.21302214781E+02  0.16749313302E+02  0.14385462415E+03  0.14638472565E+03  0.10566000000E+00 0.  1.
        994    1    1    2    0    0 -0.21634222858E+02 -0.13792138287E+02  0.45417557903E+01  0.17317138974E+03  0.17120000000E+03 0.  0.
        998    1    1    2    0    0  0.33200807704E+00 -0.29571750152E+01  0.13516036163E+04  0.13516438846E+04  0.10000000000E+02 0.  1.
</event>
<event>
 5    1  0.1271464E-008  0.3746787E+03  0.7957747E-01  0.3474661E+00
         13   -1    0    0    0    0  0.00000000000E+00  0.00000000000E+00  0.14999999963E+04  0.15000000000E+04  0.10566000000E+00 0.  1.
        994   -1    0    0    0    0 -0.00000000000E+00 -0.00000000000E+00  0.11368683772E-12  0.17120000000E+03  0.17120000000E+03 0.  0.
         13    1    1    2    0    0 -0.95296751268E+02 -0.28735469035E+02  0.31974190825E+03  0.33487624137E+03  0.10566000000E+00 0.  1.
        994    1    1    2    0    0  0.75600729516E+02  0.29605638885E+02  0.37251978007E+02  0.19310389437E+03  0.17120000000E+03 0.  0.
        998    1    1    2    0    0  0.19696021752E+02 -0.87016985002E+00  0.11430061100E+04  0.11432198643E+04  0.10000000000E+02 0.  1.
</event>
<event>
 5    1  0.1271464E-008  0.3738017E+03  0.7957747E-01  0.3478600E+00
         13   -1    0    0    0    0  0.00000000000E+00  0.00000000000E+00  0.14999999963E+04  0.15000000000E+04  0.10566000000E+00 0. -1.
        994   -1    0    0    0    0 -0.00000000000E+00 -0.00000000000E+00  0.11368683772E-12  0.17120000000E+03  0.17120000000E+03 0.  0.
         13    1    1    2    0    0  0.72404538923E+02 -0.28359089402E+02  0.40482580143E+03  0.41222638910E+03  0.10566000000E+00 0. -1.
        994    1    1    2    0    0 -0.43517600568E+02  0.16364051138E+02  0.14708909494E+02  0.17800942601E+03  0.17120000000E+03 0.  0.
        998    1    1    2    0    0 -0.28886938355E+02  0.11995038265E+02  0.10804652854E+04  0.10809641849E+04  0.10000000000E+02 0. -1.
</event>
<event>
 5    1  0.1271464E-008  0.3809241E+03  0.7957747E-01  0.3447145E+00
         13   -1    0    0    0    0  0.00000000000E+00  0.00000000000E+00  0.14999999963E+04  0.15000000000E+04  0.10566000000E+00 0. -1.
        994   -1    0    0    0    0 -0.00000000000E+00 -0.00000000000E+00  0.11368683772E-12  0.17120000000E+03  0.17120000000E+03 0.  0.
         13    1    1    2    0    0 -0.53560045048E+01  0.93798437244E+01  0.14138037171E+02  0.17792231778E+02  0.10566000000E+00 0. -1.
        994    1    1    2    0    0  0.14500591923E+02 -0.72190859507E+01  0.45423220341E+01  0.17202457690E+03  0.17120000000E+03 0.  0.
        998    1    1    2    0    0 -0.91445874186E+01 -0.21607577737E+01  0.14813196371E+04  0.14813831913E+04  0.10000000000E+02 0. -1.
</event>
<event>
 5    1  0.1271464E-008  0.3844601E+03  0.7957747E-01  0.3431965E+00
         13   -1    0    0    0    0  0.00000000000E+00  0.00000000000E+00  0.14999999963E+04  0.15000000000E+04  0.10566000000E+00 0.  1.
        994   -1    0    0    0    0 -0.00000000000E+00 -0.00000000000E+00  0.11368683772E-12  0.17120000000E+03  0.17120000000E+03 0.  0.
         13    1    1    2    0    0 -0.24431432477E+02 -0.17425381740E+02  0.17963602106E+03  0.18212536904E+03  0.10566000000E+00 0.  1.
        994    1    1    2    0    0  0.14501184606E+02  0.69408770940E+02  0.18641713500E+02  0.18623859783E+03  0.17120000000E+03 0.  0.
        998    1    1    2    0    0  0.99302478716E+01 -0.51983389200E+02  0.13017222617E+04  0.13028360331E+04  0.10000000000E+02 0.  1.
</event>
<event>
 5    1  0.1991931E-008  0.3854548E+03  0.7957747E-01  0.3427746E+00
         13   -1    0    0    0    0  0.00000000000E+00  0.00000000000E+00  0.14999999963E+04  0.15000000000E+04  0.10566000000E+00 0.  1.
        994   -1    0    0    0    0 -0.00000000000E+00 -0.00000000000E+00  0.11368683772E-12  0.17120000000E+03  0.17120000000E+03 0.  0.
         13    1    1    2    0    0  0.34385932268E+01  0.10018213548E+02  0.39517542614E+02  0.40912539207E+02  0.10566000000E+00 0.  1.
        994    1    1    2    0    0 -0.18113591951E+01 -0.95047014600E+01  0.17120181632E+01  0.17148175232E+03  0.17120000000E+03 0.  0.
        998    1    1    2    0    0 -0.16272340316E+01 -0.51351208807E+00  0.14587704355E+04  0.14588057085E+04  0.10000000000E+02 0.  1.
</event>
<event>
 5    1  0.1271464E-008  0.3802317E+03  0.7957747E-01  0.3450150E+00
         13   -1    0    0    0    0  0.00000000000E+00  0.00000000000E+00  0.14999999963E+04  0.15000000000E+04  0.10566000000E+00 0.  1.
        994   -1    0    0    0    0 -0.00000000000E+00 -0.00000000000E+00  0.11368683772E-12  0.17120000000E+03  0.17120000000E+03 0.  0.
         13    1    1    2    0    0 -0.52283783029E+02 -0.10432630769E+03  0.63629351043E+03  0.64690572344E+03  0.10566000000E+00 0.  1.
        994    1    1    2    0    0  0.47616902431E+02  0.13439199838E+03  0.75210488311E+02  0.23514811540E+03  0.17120000000E+03 0.  0.
        998    1    1    2    0    0  0.46668805981E+01 -0.30065690693E+02  0.78849599754E+03  0.78914616115E+03  0.10000000000E+02 0.  0.
</event>
<event>
 5    1  0.1271464E-008  0.3847525E+03  0.7957747E-01  0.3430722E+00
         13   -1    0    0    0    0  0.00000000000E+00  0.00000000000E+00  0.14999999963E+04  0.15000000000E+04  0.10566000000E+00 0. -1.
        994   -1    0    0    0    0 -0.00000000000E+00 -0.00000000000E+00  0.11368683772E-12  0.17120000000E+03  0.17120000000E+03 0.  0.
         13    1    1    2    0    0  0.14153987961E+02 -0.57931201772E+01  0.71514256657E+02  0.73131359114E+02  0.10566000000E+00 0. -1.
        994    1    1    2    0    0  0.23472811817E+01  0.33325888264E+01  0.18077515790E+01  0.17125806213E+03  0.17120000000E+03 0.  0.
        998    1    1    2    0    0 -0.16501269143E+02  0.24605313508E+01  0.14266779880E+04  0.14268105788E+04  0.10000000000E+02 0. -1.
</event>
<event>
 5    1  0.1271464E-008  0.3827735E+03  0.7957747E-01  0.3439170E+00
         13   -1    0    0    0    0  0.00000000000E+00  0.00000000000E+00  0.14999999963E+04  0.15000000000E+04  0.10566000000E+00 0.  1.
        994   -1    0    0    0    0 -0.00000000000E+00 -0.00000000000E+00  0.11368683772E-12  0.17120000000E+03  0.17120000000E+03 0.  0.
         13    1    1    2    0    0 -0.26718554948E+01 -0.43651122523E+02  0.25940097521E+03  0.26306165895E+03  0.10566000000E+00 0.  1.
        994    1    1    2    0    0 -0.52913135333E+02  0.65825084833E+02  0.26737885047E+02  0.19276176016E+03  0.17120000000E+03 0.  0.
        998    1    1    2    0    0  0.55584990827E+02 -0.22173962310E+02  0.12138611360E+04  0.12153765809E+04  0.10000000000E+02 0.  1.
</event>
<event>
 5    1  0.1271464E-008  0.3829706E+03  0.7957747E-01  0.3438325E+00
         13   -1    0    0    0    0  0.00000000000E+00  0.00000000000E+00  0.14999999963E+04  0.15000000000E+04  0.10566000000E+00 0. -1.
        994   -1    0    0    0    0 -0.00000000000E+00 -0.00000000000E+00  0.11368683772E-12  0.17120000000E+03  0.17120000000E+03 0.  0.
         13    1    1    2    0    0  0.13990347764E+02  0.15426636430E+02  0.85295905931E+02  0.87801558498E+02  0.10566000000E+00 0. -1.
        994    1    1    2    0    0 -0.26881973401E+01 -0.43642453783E+01  0.27280634362E+01  0.17129843949E+03  0.17120000000E+03 0.  0.
        998    1    1    2    0    0 -0.11302150424E+02 -0.11062391052E+02  0.14119760269E+04  0.14121000020E+04  0.10000000000E+02 0. -1.
</event>
<event>
 5    1  0.1271464E-008  0.3968033E+03  0.7957747E-01  0.3381105E+00
         13   -1    0    0    0    0  0.00000000000E+00  0.00000000000E+00  0.14999999963E+04  0.15000000000E+04  0.10566000000E+00 0.  1.
        994   -1    0    0    0    0 -0.00000000000E+00 -0.00000000000E+00  0.11368683772E-12  0.17120000000E+03  0.17120000000E+03 0.  0.
         13    1    1    2    0    0 -0.26781265773E+02  0.32558413696E+01  0.31297501836E+01  0.27159587620E+02  0.10566000000E+00 0.  1.
        994    1    1    2    0    0  0.20157461423E+02  0.10051127176E+02  0.27845162099E+02  0.17490609326E+03  0.17120000000E+03 0.  0.
        998    1    1    2    0    0  0.66238043508E+01 -0.13306968545E+02  0.14690250840E+04  0.14691343191E+04  0.10000000000E+02 0.  1.
</event>
<event>
 5    1  0.1271464E-008  0.3741451E+03  0.7957747E-01  0.3477055E+00
         13   -1    0    0    0    0  0.00000000000E+00  0.00000000000E+00  0.14999999963E+04  0.15000000000E+04  0.10566000000E+00 0.  1.
        994   -1    0    0    0    0 -0.00000000000E+00 -0.00000000000E+00  0.11368683772E-12  0.17120000000E+03  0.17120000000E+03 0.  0.
         13    1    1    2    0    0  0.12989291904E+02  0.43771726010E+02  0.11155327952E+03  0.12053560071E+03  0.10566000000E+00 0.  1.
        994    1    1    2    0    0 -0.27602349072E+02 -0.82212610123E+02  0.33206807537E+02  0.19476379285E+03  0.17120000000E+03 0.  0.
        998    1    1    2    0    0  0.14613057168E+02  0.38440884113E+02  0.13552399092E+04  0.13559006064E+04  0.10000000000E+02 0.  1.
</event>
<event>
 5    1  0.1271464E-008  0.3856297E+03  0.7957747E-01  0.3427006E+00
         13   -1    0    0    0    0  0.00000000000E+00  0.00000000000E+00  0.14999999963E+04  0.15000000000E+04  0.10566000000E+00 0.  1.
        994   -1    0    0    0    0 -0.00000000000E+00 -0.00000000000E+00  0.11368683772E-12  0.17120000000E+03  0.17120000000E+03 0.  0.
         13    1    1    2    0    0 -0.49737990855E+01 -0.10734400105E+02  0.51534205041E+02  0.52874866205E+02  0.10566000000E+00 0.  1.
        994    1    1    2    0    0  0.63729886679E+01  0.12221848556E+02  0.19416152071E+01  0.17176495113E+03  0.17120000000E+03 0.  0.
        998    1    1    2    0    0 -0.13991895825E+01 -0.14874484509E+01  0.14465241760E+04  0.14465601827E+04  0.10000000000E+02 0.  1.
</event>
<event>
 5    1  0.1271464E-008  0.3798337E+03  0.7957747E-01  0.3451883E+00
         13   -1    0    0    0    0  0.00000000000E+00  0.00000000000E+00  0.14999999963E+04  0.15000000000E+04  0.10566000000E+00 0.  1.
        994   -1    0    0    0    0 -0.00000000000E+00 -0.00000000000E+00  0.11368683772E-12  0.17120000000E+03  0.17120000000E+03 0.  0.
         13    1    1    2    0    0 -0.10664869638E+02  0.55507718794E+01  0.15466553786E+02  0.19590200686E+02  0.10566000000E+00 0.  1.
        994    1    1    2    0    0  0.40906871961E+01 -0.30522806921E+01  0.43042685143E+01  0.17133013998E+03  0.17120000000E+03 0.  0.
        998    1    1    2    0    0  0.65741824424E+01 -0.24984911874E+01  0.14802291740E+04  0.14802796593E+04  0.10000000000E+02 0.  1.
</event>
<event>
 5    1  0.1271464E-008  0.3845359E+03  0.7957747E-01  0.3431643E+00
         13   -1    0    0    0    0  0.00000000000E+00  0.00000000000E+00  0.14999999963E+04  0.15000000000E+04  0.10566000000E+00 0. -1.
        994   -1    0    0    0    0 -0.00000000000E+00 -0.00000000000E+00  0.11368683772E-12  0.17120000000E+03  0.17120000000E+03 0.  0.
         13    1    1    2    0    0 -0.84504807466E+01  0.10803316592E+02  0.52190281593E+02  0.53962569722E+02  0.10566000000E+00 0. -1.
        994    1    1    2    0    0  0.49871205181E+01  0.10208582759E+01  0.19460807260E+01  0.17128672089E+03  0.17120000000E+03 0.  0.
        998    1    1    2    0    0  0.34633602285E+01 -0.11824174868E+02  0.14458636340E+04  0.14459507094E+04  0.10000000000E+02 0. -1.
</event>
<event>
 5    1  0.1271464E-008  0.3801353E+03  0.7957747E-01  0.3450570E+00
         13   -1    0    0    0    0  0.00000000000E+00  0.00000000000E+00  0.14999999963E+04  0.15000000000E+04  0.10566000000E+00 0.  1.
        994   -1    0    0    0    0 -0.00000000000E+00 -0.00000000000E+00  0.11368683772E-12  0.17120000000E+03  0.17120000000E+03 0.  0.
         13    1    1    2    0    0 -0.10049079594E+02 -0.56581521899E+00  0.10618938431E+02  0.14631376045E+02  0.10566000000E+00 0.  1.
        994    1    1    2    0    0  0.84337424211E+01  0.13387409292E+02  0.49018356241E+01  0.17199947306E+03  0.17120000000E+03 0.  0.
        998    1    1    2    0    0  0.16153371725E+01 -0.12821594073E+02  0.14844792222E+04  0.14845691509E+04  0.10000000000E+02 0.  1.
</event>
<event>
 5    1  0.1271464E-008  0.3822326E+03  0.7957747E-01  0.3441494E+00
         13   -1    0    0    0    0  0.00000000000E+00  0.00000000000E+00  0.14999999963E+04  0.15000000000E+04  0.10566000000E+00 0. -1.
        994   -1    0    0    0    0 -0.00000000000E+00 -0.00000000000E+00  0.11368683772E-12  0.17120000000E+03  0.17120000000E+03 0.  0.
         13    1    1    2    0    0 -0.22195673065E+02 -0.36889108505E+02  0.25754608917E+03  0.26111961520E+03  0.10566000000E+00 0. -1.
        994    1    1    2    0    0  0.35631810695E+02  0.29302083917E+02  0.10105148397E+02  0.17759445960E+03  0.17120000000E+03 0.  0.
        998    1    1    2    0    0 -0.13436137630E+02  0.75870245881E+01  0.12323487587E+04  0.12324859252E+04  0.10000000000E+02 0. -1.
</event>
<event>
 5    1  0.1271464E-008  0.3847804E+03  0.7957747E-01  0.3430604E+00
         13   -1    0    0    0    0  0.00000000000E+00  0.00000000000E+00  0.14999999963E+04  0.15000000000E+04  0.10566000000E+00 0. -1.
        994   -1    0    0    0    0 -0.00000000000E+00 -0.00000000000E+00  0.11368683772E-12  0.17120000000E+03  0.17120000000E+03 0.  0.
         13    1    1    2    0    0  0.14556127828E+02  0.73856849581E+01  0.77962900200E+02  0.79653337477E+02  0.10566000000E+00 0. -1.
        994    1    1    2    0    0 -0.63652693650E+01 -0.47602278041E+01  0.19471621612E+01  0.17139547212E+03  0.17120000000E+03 0.  0.
        998    1    1    2    0    0 -0.81908584633E+01 -0.26254571540E+01  0.14200899339E+04  0.14201511904E+04  0.10000000000E+02 0. -1.
</event>
<event>
 5    1  0.1271464E-008  0.3824007E+03  0.7957747E-01  0.3440772E+00
         13   -1    0    0    0    0  0.00000000000E+00  0.00000000000E+00  0.14999999963E+04  0.15000000000E+04  0.10566000000E+00 0.  1.
        994   -1    0    0    0    0 -0.00000000000E+00 -0.00000000000E+00  0.11368683772E-12  0.17120000000E+03  0.17120000000E+03 0.  0.
         13    1    1    2    0    0 -0.85523907183E+01  0.13261402166E+02  0.40019020779E+02  0.43017919086E+02  0.10566000000E+00 0.  1.
        994    1    1    2    0    0  0.15801488920E+02 -0.13858626069E+02  0.43926708565E+01  0.17254125340E+03  0.17120000000E+03 0.  0.
        998    1    1    2    0    0 -0.72490982014E+01  0.59722390344E+00  0.14555883046E+04  0.14556408275E+04  0.10000000000E+02 0.  1.
</event>
<event>
 5    1  0.1271464E-008  0.3861022E+03  0.7957747E-01  0.3425011E+00
         13   -1    0    0    0    0  0.00000000000E+00  0.00000000000E+00  0.14999999963E+04  0.15000000000E+04  0.10566000000E+00 0. -1.
        994   -1    0    0    0    0 -0.00000000000E+00 -0.00000000000E+00  0.11368683772E-12  0.17120000000E+03  0.17120000000E+03 0.  0.
         13    1    1    2    0    0  0.60487134973E+01  0.85022589934E+01  0.54436563009E+02  0.55427663664E+02  0.10566000000E+00 0. -1.
        994    1    1    2    0    0 -0.38322707121E+01  0.55421934006E+01  0.12326778459E+01  0.17133698288E+03  0.17120000000E+03 0.  0.
        998    1    1    2    0    0 -0.22164427852E+01 -0.14044452394E+02  0.14443307554E+04  0.14444353535E+04  0.10000000000E+02 0. -1.
</event>
<event>
 5    1  0.1271464E-008  0.3800878E+03  0.7957747E-01  0.3450776E+00
         13   -1    0    0    0    0  0.00000000000E+00  0.00000000000E+00  0.14999999963E+04  0.15000000000E+04  0.10566000000E+00 0. -1.
        994   -1    0    0    0    0 -0.00000000000E+00 -0.00000000000E+00  0.11368683772E-12  0.17120000000E+03  0.17120000000E+03 0.  0.
         13    1    1    2    0    0 -0.21184678480E+02  0.78145984728E+01  0.59691438150E+02  0.63819569914E+02  0.10566000000E+00 0. -1.
        994    1    1    2    0    0  0.15691242734E+02 -0.13103499643E+02  0.54867492084E+01  0.17250351074E+03  0.17120000000E+03 0.  0.
        998    1    1    2    0    0  0.54934357461E+01  0.52889011706E+01  0.14348218089E+04  0.14348769193E+04  0.10000000000E+02 0. -1.
</event>
<event>
 5    1  0.1271464E-008  0.3041619E+03  0.7957747E-01  0.3866748E+00
         13   -1    0    0    0    0  0.00000000000E+00  0.00000000000E+00  0.14999999963E+04  0.15000000000E+04  0.10566000000E+00 0.  1.
        994   -1    0    0    0    0 -0.00000000000E+00 -0.00000000000E+00  0.11368683772E-12  0.17120000000E+03  0.17120000000E+03 0.  0.
         13    1    1    2    0    0  0.13791835082E+03  0.11241800703E+03  0.71837782382E+03  0.74008512262E+03  0.10566000000E+00 0.  1.
        994    1    1    2    0    0 -0.15311288033E+03 -0.61878190330E+02  0.11837517574E+03  0.26569641848E+03  0.17120000000E+03 0.  0.
        998    1    1    2    0    0  0.15194529513E+02 -0.50539816696E+02  0.66324699671E+03  0.66541845890E+03  0.10000000000E+02 0.  1.
</event>
<event>
 5    1  0.1271464E-008  0.3787526E+03  0.7957747E-01  0.3456608E+00
         13   -1    0    0    0    0  0.00000000000E+00  0.00000000000E+00  0.14999999963E+04  0.15000000000E+04  0.10566000000E+00 0.  1.
        994   -1    0    0    0    0 -0.00000000000E+00 -0.00000000000E+00  0.11368683772E-12  0.17120000000E+03  0.17120000000E+03 0.  0.
         13    1    1    2    0    0  0.24068015038E+02  0.12170263146E+02  0.72903335062E+02  0.77732181753E+02  0.10566000000E+00 0.  1.
        994    1    1    2    0    0 -0.22167332544E+02 -0.59145217919E+01  0.65330493123E+01  0.17285396418E+03  0.17120000000E+03 0.  0.
        998    1    1    2    0    0 -0.19006824942E+01 -0.62557413539E+01  0.14205636119E+04  0.14206138541E+04  0.10000000000E+02 0.  1.
</event>
<event>
 5    1  0.1271464E-008  0.3836858E+03  0.7957747E-01  0.3435265E+00
         13   -1    0    0    0    0  0.00000000000E+00  0.00000000000E+00  0.14999999963E+04  0.15000000000E+04  0.10566000000E+00 0. -1.
        994   -1    0    0    0    0 -0.00000000000E+00 -0.00000000000E+00  0.11368683772E-12  0.17120000000E+03  0.17120000000E+03 0.  0.
         13    1    1    2    0    0  0.62322419459E+01  0.97920361094E+01  0.28103312588E+02  0.30406120326E+02  0.10566000000E+00 0. -1.
        994    1    1    2    0    0 -0.59877393907E+01 -0.13339731594E+02  0.29904538703E+01  0.17184930688E+03  0.17120000000E+03 0.  0.
        998    1    1    2    0    0 -0.24450255520E+00  0.35476954844E+01  0.14689062298E+04  0.14689445728E+04  0.10000000000E+02 0. -1.
</event>
<event>
 5    1  0.1271464E-008  0.3854010E+03  0.7957747E-01  0.3427973E+00
         13   -1    0    0    0    0  0.00000000000E+00  0.00000000000E+00  0.14999999963E+04  0.15000000000E+04  0.10566000000E+00 0. -1.
        994   -1    0    0    0    0 -0.00000000000E+00 -0.00000000000E+00  0.11368683772E-12  0.17120000000E+03  0.17120000000E+03 0.  0.
         13    1    1    2    0    0 -0.14110378922E+02  0.61928425387E+01  0.84766479462E+02  0.86155796651E+02  0.10566000000E+00 0. -1.
        994    1    1    2    0    0 -0.27805001162E+01 -0.28672090238E+02  0.41613510920E+01  0.17365649076E+03  0.17120000000E+03 0.  0.
        998    1    1    2    0    0  0.16890879038E+02  0.22479247699E+02  0.14110721657E+04  0.14113877126E+04  0.10000000000E+02 0. -1.
</event>
<event>
 5    1  0.1271464E-008  0.3843148E+03  0.7957747E-01  0.3432584E+00
         13   -1    0    0    0    0  0.00000000000E+00  0.00000000000E+00  0.14999999963E+04  0.15000000000E+04  0.10566000000E+00 0. -1.
        994   -1    0    0    0    0 -0.00000000000E+00 -0.00000000000E+00  0.11368683772E-12  0.17120000000E+03  0.17120000000E+03 0.  0.
         13    1    1    2    0    0 -0.21407887637E+02 -0.13858640637E+02  0.13693548805E+03  0.13928998035E+03  0.10566000000E+00 0. -1.
        994    1    1    2    0    0  0.32842855001E+02  0.19257441839E+02  0.67629177384E+01  0.17551261848E+03  0.17120000000E+03 0.  0.
        998    1    1    2    0    0 -0.11434967364E+02 -0.53988012020E+01  0.13563015905E+04  0.13563974012E+04  0.10000000000E+02 0. -1.
</event>
<event>
 5    1  0.1271464E-008  0.3826322E+03  0.7957747E-01  0.3439777E+00
         13   -1    0    0    0    0  0.00000000000E+00  0.00000000000E+00  0.14999999963E+04  0.15000000000E+04  0.10566000000E+00 0. -1.
        994   -1    0    0    0    0 -0.00000000000E+00 -0.00000000000E+00  0.11368683772E-12  0.17120000000E+03  0.17120000000E+03 0.  0.
         13    1    1    2    0    0  0.12230398125E+02  0.16411731361E+02  0.72745781637E+02  0.75570414016E+02  0.10566000000E+00 0. -1.
        994    1    1    2    0    0 -0.58884235810E+01 -0.14924912968E+02  0.36638693763E+01  0.17198921623E+03  0.17120000000E+03 0.  0.
        998    1    1    2    0    0 -0.63419745441E+01 -0.14868183937E+01  0.14235903453E+04  0.14236403698E+04  0.10000000000E+02 0. -1.
</event>
<event>
 5    1  0.1271464E-008  0.3850431E+03  0.7957747E-01  0.3429489E+00
         13   -1    0    0    0    0  0.00000000000E+00  0.00000000000E+00  0.14999999963E+04  0.15000000000E+04  0.10566000000E+00 0.  1.
        994   -1    0    0    0    0 -0.00000000000E+00 -0.00000000000E+00  0.11368683772E-12  0.17120000000E+03  0.17120000000E+03 0.  0.
         13    1    1    2    0    0 -0.13442457597E+02  0.60152708461E+00  0.54749335279E+02  0.56378740484E+02  0.10566000000E+00 0.  1.
        994    1    1    2    0    0  0.13223039969E+02 -0.14717463183E+02  0.28969701266E+01  0.17236381565E+03  0.17120000000E+03 0.  0.
        998    1    1    2    0    0  0.21941762770E+00  0.14115936098E+02  0.14423536909E+04  0.14424574439E+04  0.10000000000E+02 0.  1.
</event>
<event>
 5    1  0.1271464E-008  0.3722172E+03  0.7957747E-01  0.3485763E+00
         13   -1    0    0    0    0  0.00000000000E+00  0.00000000000E+00  0.14999999963E+04  0.15000000000E+04  0.10566000000E+00 0.  1.
        994   -1    0    0    0    0 -0.00000000000E+00 -0.00000000000E+00  0.11368683772E-12  0.17120000000E+03  0.17120000000E+03 0.  0.
         13    1    1    2    0    0 -0.52401253906E+02  0.31813199575E+02  0.14341364990E+03  0.15596620538E+03  0.10566000000E+00 0.  1.
        994    1    1    2    0    0  0.47095314450E+02 -0.20600449634E+02  0.21484800223E+02  0.18003717341E+03  0.17120000000E+03 0.  0.
        998    1    1    2    0    0  0.53059394560E+01 -0.11212749941E+02  0.13351015462E+04  0.13351966212E+04  0.10000000000E+02 0.  1.
</event>
<event>
 5    1  0.1271464E-008  0.3774116E+03  0.7957747E-01  0.3462507E+00
         13   -1    0    0    0    0  0.00000000000E+00  0.00000000000E+00  0.14999999963E+04  0.15000000000E+04  0.10566000000E+00 0.  1.
        994   -1    0    0    0    0 -0.00000000000E+00 -0.00000000000E+00  0.11368683772E-12  0.17120000000E+03  0.17120000000E+03 0.  0.
         13    1    1    2    0    0 -0.10593201954E+01  0.11662714190E+02  0.10067377286E+02  0.15443584785E+02  0.10566000000E+00 0.  1.
        994    1    1    2    0    0  0.22692667353E+01 -0.11998005401E+02  0.59483819136E+01  0.17173795432E+03  0.17120000000E+03 0.  0.
        998    1    1    2    0    0 -0.12099465399E+01  0.33529121075E+00  0.14839842371E+04  0.14840184609E+04  0.10000000000E+02 0.  1.
</event>
<event>
 5    1  0.1271464E-008  0.3825128E+03  0.7957747E-01  0.3440290E+00
         13   -1    0    0    0    0  0.00000000000E+00  0.00000000000E+00  0.14999999963E+04  0.15000000000E+04  0.10566000000E+00 0.  1.
        994   -1    0    0    0    0 -0.00000000000E+00 -0.00000000000E+00  0.11368683772E-12  0.17120000000E+03  0.17120000000E+03 0.  0.
         13    1    1    2    0    0  0.10604989044E+02 -0.58870704310E+02  0.33024144026E+03  0.33561532391E+03  0.10566000000E+00 0.  1.
        994    1    1    2    0    0 -0.36704216858E+02  0.90630837763E+02  0.35244068124E+02  0.20028163327E+03  0.17120000000E+03 0.  0.
        998    1    1    2    0    0  0.26099227814E+02 -0.31760133454E+02  0.11345144879E+04  0.11353030428E+04  0.10000000000E+02 0.  1.
</event>
<event>
 5    1  0.1271464E-008  0.3724389E+03  0.7957747E-01  0.3484757E+00
         13   -1    0    0    0    0  0.00000000000E+00  0.00000000000E+00  0.14999999963E+04  0.15000000000E+04  0.10566000000E+00 0. -1.
        994   -1    0    0    0    0 -0.00000000000E+00 -0.00000000000E+00  0.11368683772E-12  0.17120000000E+03  0.17120000000E+03 0.  0.
         13    1    1    2    0    0  0.68039620610E+01 -0.45144833791E+02  0.13101489698E+03  0.13874171799E+03  0.10566000000E+00 0. -1.
        994    1    1    2    0    0  0.21384987886E+02  0.25360577690E+02  0.11782505717E+02  0.17478199006E+03  0.17120000000E+03 0.  0.
        998    1    1    2    0    0 -0.28188949947E+02  0.19784256101E+02  0.13572025936E+04  0.13576762919E+04  0.10000000000E+02 0. -1.
</event>
<event>
 5    1  0.1271464E-008  0.3793073E+03  0.7957747E-01  0.3454180E+00
         13   -1    0    0    0    0  0.00000000000E+00  0.00000000000E+00  0.14999999963E+04  0.15000000000E+04  0.10566000000E+00 0.  1.
        994   -1    0    0    0    0 -0.00000000000E+00 -0.00000000000E+00  0.11368683772E-12  0.17120000000E+03  0.17120000000E+03 0.  0.
         13    1    1    2    0    0 -0.23108941527E+02 -0.40162284091E+01  0.63512555881E+02  0.67705311370E+02  0.10566000000E+00 0.  1.
        994    1    1    2    0    0 -0.23740761406E+01  0.12313799523E+02  0.50103181152E+01  0.17173179433E+03  0.17120000000E+03 0.  0.
        998    1    1    2    0    0  0.25483017668E+02 -0.82975711140E+01  0.14314771223E+04  0.14317628943E+04  0.10000000000E+02 0.  1.
</event>
<event>
 5    1  0.1271464E-008  0.3840498E+03  0.7957747E-01  0.3433712E+00
         13   -1    0    0    0    0  0.00000000000E+00  0.00000000000E+00  0.14999999963E+04  0.15000000000E+04  0.10566000000E+00 0.  1.
        994   -1    0    0    0    0 -0.00000000000E+00 -0.00000000000E+00  0.11368683772E-12  0.17120000000E+03  0.17120000000E+03 0.  0.
         13    1    1    2    0    0  0.57135773988E+01  0.10147118648E+02  0.31355242540E+02  0.33448040037E+02  0.10566000000E+00 0.  1.
        994    1    1    2    0    0 -0.20265082650E+02 -0.82419182754E+00  0.34607607439E+01  0.17243192782E+03  0.17120000000E+03 0.  0.
        998    1    1    2    0    0  0.14551505251E+02 -0.93229268206E+01  0.14651839930E+04  0.14653200321E+04  0.10000000000E+02 0.  1.
</event>
<event>
 5    1  0.1271464E-008  0.3846365E+03  0.7957747E-01  0.3431215E+00
         13   -1    0    0    0    0  0.00000000000E+00  0.00000000000E+00  0.14999999963E+04  0.15000000000E+04  0.10566000000E+00 0. -1.
        994   -1    0    0    0    0 -0.00000000000E+00 -0.00000000000E+00  0.11368683772E-12  0.17120000000E+03  0.17120000000E+03 0.  0.
         13    1    1    2    0    0  0.12165806191E+02  0.66034093975E+01  0.54940567419E+02  0.56657647042E+02  0.10566000000E+00 0. -1.
        994    1    1    2    0    0  0.54247821940E+00 -0.47509002967E+01  0.18860118526E+01  0.17127715077E+03  0.17120000000E+03 0.  0.
        998    1    1    2    0    0 -0.12708284410E+02 -0.18525091008E+01  0.14431734170E+04  0.14432652022E+04  0.10000000000E+02 0. -1.
</event>
<event>
 5    1  0.1271464E-008  0.3721130E+03  0.7957747E-01  0.3486236E+00
         13   -1    0    0    0    0  0.00000000000E+00  0.00000000000E+00  0.14999999963E+04  0.15000000000E+04  0.10566000000E+00 0.  1.
        994   -1    0    0    0    0 -0.00000000000E+00 -0.00000000000E+00  0.11368683772E-12  0.17120000000E+03  0.17120000000E+03 0.  0.
         13    1    1    2    0    0 -0.46311792873E+00 -0.22075321093E+02  0.25574307121E+02  0.33787432994E+02  0.10566000000E+00 0.  1.
        994    1    1    2    0    0 -0.14580976373E+02  0.28724577817E+02  0.11739192579E+02  0.17459941261E+03  0.17120000000E+03 0.  0.
        998    1    1    2    0    0  0.15044094302E+02 -0.66492567238E+01  0.14626864966E+04  0.14628131544E+04  0.10000000000E+02 0.  1.
</event>
<event>
 5    1  0.1271464E-008  0.3911142E+03  0.7957747E-01  0.3404148E+00
         13   -1    0    0    0    0  0.00000000000E+00  0.00000000000E+00  0.14999999963E+04  0.15000000000E+04  0.10566000000E+00 0.  1.
        994   -1    0    0    0    0 -0.00000000000E+00 -0.00000000000E+00  0.11368683772E-12  0.17120000000E+03  0.17120000000E+03 0.  0.
         13    1    1    2    0    0 -0.85558175966E+02  0.82195890779E+01  0.21089588117E+03  0.22773854961E+03  0.10566000000E+00 0.  1.
        994    1    1    2    0    0 -0.22714864591E+02 -0.43493529806E+02  0.31724737302E+02  0.18089652060E+03  0.17120000000E+03 0.  0.
        998    1    1    2    0    0  0.10827304056E+03  0.35273940729E+02  0.12573793778E+04  0.12625649298E+04  0.10000000000E+02 0.  1.
</event>
<event>
 5    1  0.1271464E-008  0.3838347E+03  0.7957747E-01  0.3434629E+00
         13   -1    0    0    0    0  0.00000000000E+00  0.00000000000E+00  0.14999999963E+04  0.15000000000E+04  0.10566000000E+00 0.  1.
        994   -1    0    0    0    0 -0.00000000000E+00 -0.00000000000E+00  0.11368683772E-12  0.17120000000E+03  0.17120000000E+03 0.  0.
         13    1    1    2    0    0  0.18176682513E+02  0.12083804902E+02  0.11298971122E+03  0.11507865195E+03  0.10566000000E+00 0.  1.
        994    1    1    2    0    0 -0.50784639998E+01 -0.41098182222E+01  0.23506874618E+01  0.17134073402E+03  0.17120000000E+03 0.  0.
        998    1    1    2    0    0 -0.13098218513E+02 -0.79739866803E+01  0.13846595976E+04  0.13847806140E+04  0.10000000000E+02 0.  1.
</event>
<event>
 5    1  0.1271464E-008  0.3831769E+03  0.7957747E-01  0.3437441E+00
         13   -1    0    0    0    0  0.00000000000E+00  0.00000000000E+00  0.14999999963E+04  0.15000000000E+04  0.10566000000E+00 0.  1.
        994   -1    0    0    0    0 -0.00000000000E+00 -0.00000000000E+00  0.11368683772E-12  0.17120000000E+03  0.17120000000E+03 0.  0.
         13    1    1    2    0    0 -0.11854669810E+02  0.99161096392E+01  0.47016356365E+02  0.49491528129E+02  0.10566000000E+00 0.  1.
        994    1    1    2    0    0  0.34868218577E+01 -0.65275940207E+01  0.27191925350E+01  0.17138145004E+03  0.17120000000E+03 0.  0.
        998    1    1    2    0    0  0.83678479521E+01 -0.33885156184E+01  0.14502644474E+04  0.14503270218E+04  0.10000000000E+02 0.  1.
</event>
<event>
 5    1  0.1271464E-008  0.3850566E+03  0.7957747E-01  0.3429432E+00
         13   -1    0    0    0    0  0.00000000000E+00  0.00000000000E+00  0.14999999963E+04  0.15000000000E+04  0.10566000000E+00 0. -1.
        994   -1    0    0    0    0 -0.00000000000E+00 -0.00000000000E+00  0.11368683772E-12  0.17120000000E+03  0.17120000000E+03 0.  0.
         13    1    1    2    0    0  0.69884157585E+01 -0.16119188924E+02  0.10189650771E+03  0.10340007570E+03  0.10566000000E+00 0. -1.
        994    1    1    2    0    0  0.40562744856E+00  0.50177958037E+01  0.16853610007E+01  0.17128229112E+03  0.17120000000E+03 0.  0.
        998    1    1    2    0    0 -0.73940432071E+01  0.11101393120E+02  0.13964181276E+04  0.13965176332E+04  0.10000000000E+02 0. -1.
</event>
<event>
 5    1  0.1271464E-008  0.3812638E+03  0.7957747E-01  0.3445674E+00
         13   -1    0    0    0    0  0.00000000000E+00  0.00000000000E+00  0.14999999963E+04  0.15000000000E+04  0.10566000000E+00 0. -1.
        994   -1    0    0    0    0 -0.00000000000E+00 -0.00000000000E+00  0.11368683772E-12  0.17120000000E+03  0.17120000000E+03 0.  0.
         13    1    1    2    0    0 -0.16017448565E+02 -0.52374833316E+01  0.40046668862E+02  0.43448092492E+02  0.10566000000E+00 0. -1.
        994    1    1    2    0    0 -0.10808678865E+01  0.23809539931E+02  0.53899475534E+01  0.17293511500E+03  0.17120000000E+03 0.  0.
        998    1    1    2    0    0  0.17098316451E+02 -0.18572056599E+02  0.14545633799E+04  0.14548167925E+04  0.10000000000E+02 0. -1.
</event>
<event>
 5    1  0.1271464E-008  0.3690780E+03  0.7957747E-01  0.3500139E+00
         13   -1    0    0    0    0  0.00000000000E+00  0.00000000000E+00  0.14999999963E+04  0.15000000000E+04  0.10566000000E+00 0.  1.
        994   -1    0    0    0    0 -0.00000000000E+00 -0.00000000000E+00  0.11368683772E-12  0.17120000000E+03  0.17120000000E+03 0.  0.
         13    1    1    2    0    0 -0.32143513347E+02  0.20625863762E+02  0.58568419007E+02  0.69920687749E+02  0.10566000000E+00 0.  1.
        994    1    1    2    0    0  0.52264005280E+02 -0.37883630376E+02  0.25116310705E+02  0.18468071031E+03  0.17120000000E+03 0.  0.
        998    1    1    2    0    0 -0.20120491933E+02  0.17257766614E+02  0.14163152666E+04  0.14165986019E+04  0.10000000000E+02 0.  1.
</event>
<event>
 5    1  0.1271464E-008  0.3721944E+03  0.7957747E-01  0.3485866E+00
         13   -1    0    0    0    0  0.00000000000E+00  0.00000000000E+00  0.14999999963E+04  0.15000000000E+04  0.10566000000E+00 0.  1.
        994   -1    0    0    0    0 -0.00000000000E+00 -0.00000000000E+00  0.11368683772E-12  0.17120000000E+03  0.17120000000E+03 0.  0.
         13    1    1    2    0    0 -0.34120802921E+02  0.11422345781E+02  0.74104152152E+02  0.82378004985E+02  0.10566000000E+00 0.  1.
        994    1    1    2    0    0  0.31804301728E+02 -0.82977988858E+01  0.11843107646E+02  0.17472855025E+03  0.17120000000E+03 0.  0.
        998    1    1    2    0    0  0.23165011930E+01 -0.31245468954E+01  0.14140527365E+04  0.14140934448E+04  0.10000000000E+02 0.  1.
</event>
<event>
 5    1  0.1271464E-008  0.3840670E+03  0.7957747E-01  0.3433639E+00
         13   -1    0    0    0    0  0.00000000000E+00  0.00000000000E+00  0.14999999963E+04  0.15000000000E+04  0.10566000000E+00 0.  1.
        994   -1    0    0    0    0 -0.00000000000E+00 -0.00000000000E+00  0.11368683772E-12  0.17120000000E+03  0.17120000000E+03 0.  0.
         13    1    1    2    0    0  0.16934308434E+02  0.93968202309E+01  0.85309809836E+02  0.87480545556E+02  0.10566000000E+00 0.  1.
        994    1    1    2    0    0 -0.14318155689E+02 -0.13873107624E+02  0.34062733950E+01  0.17239058964E+03  0.17120000000E+03 0.  0.
        998    1    1    2    0    0 -0.26161527456E+01  0.44762873935E+01  0.14112839130E+04  0.14113288648E+04  0.10000000000E+02 0.  1.
</event>
<event>
 5    1  0.1271464E-008  0.3837034E+03  0.7957747E-01  0.3435190E+00
         13   -1    0    0    0    0  0.00000000000E+00  0.00000000000E+00  0.14999999963E+04  0.15000000000E+04  0.10566000000E+00 0. -1.
        994   -1    0    0    0    0 -0.00000000000E+00 -0.00000000000E+00  0.11368683772E-12  0.17120000000E+03  0.17120000000E+03 0.  0.
         13    1    1    2    0    0 -0.25296486615E+01 -0.17238887828E+02  0.64093159352E+02  0.66419294001E+02  0.10566000000E+00 0. -1.
        994    1    1    2    0    0  0.85559776602E+01  0.16228162264E+02  0.33875187162E+01  0.17221345269E+03  0.17120000000E+03 0.  0.
        998    1    1    2    0    0 -0.60263289987E+01  0.10107255641E+01  0.14325193182E+04  0.14325672533E+04  0.10000000000E+02 0. -1.
</event>
<event>
 5    1  0.1271464E-008  0.3813646E+03  0.7957747E-01  0.3445238E+00
         13   -1    0    0    0    0  0.00000000000E+00  0.00000000000E+00  0.14999999963E+04  0.15000000000E+04  0.10566000000E+00 0.  1.
        994   -1    0    0    0    0 -0.00000000000E+00 -0.00000000000E+00  0.11368683772E-12  0.17120000000E+03  0.17120000000E+03 0.  0.
         13    1    1    2    0    0 -0.39796602898E+00 -0.14833714789E+02  0.29812525480E+02  0.33301581208E+02  0.10566000000E+00 0.  1.
        994    1    1    2    0    0 -0.33222941441E+01  0.18573379939E+02  0.46315269384E+01  0.17229886570E+03  0.17120000000E+03 0.  0.
        998    1    1    2    0    0  0.37202601731E+01 -0.37396651501E+01  0.14655559439E+04  0.14655995531E+04  0.10000000000E+02 0.  1.
</event>
<event>
 5    1  0.1271464E-008  0.3829029E+03  0.7957747E-01  0.3438615E+00
         13   -1    0    0    0    0  0.00000000000E+00  0.00000000000E+00  0.14999999963E+04  0.15000000000E+04  0.10566000000E+00 0.  1.
        994   -1    0    0    0    0 -0.00000000000E+00 -0.00000000000E+00  0.11368683772E-12  0.17120000000E+03  0.17120000000E+03 0.  0.
         13    1    1    2    0    0  0.21858035014E+02  0.29965738162E+01  0.95560297041E+02  0.98074128514E+02  0.10566000000E+00 0.  1.
        994    1    1    2    0    0 -0.45240142268E+01  0.49547338148E+00  0.27434746276E+01  0.17128245343E+03  0.17120000000E+03 0.  0.
        998    1    1    2    0    0 -0.17334020787E+02 -0.34920471977E+01  0.14016962246E+04  0.14018434181E+04  0.10000000000E+02 0.  1.
</event>
<event>
 5    1  0.1271464E-008  0.3838032E+03  0.7957747E-01  0.3434764E+00
         13   -1    0    0    0    0  0.00000000000E+00  0.00000000000E+00  0.14999999963E+04  0.15000000000E+04  0.10566000000E+00 0.  1.
        994   -1    0    0    0    0 -0.00000000000E+00 -0.00000000000E+00  0.11368683772E-12  0.17120000000E+03  0.17120000000E+03 0.  0.
         13    1    1    2    0    0 -0.68554244218E+01 -0.12666866372E+02  0.42001481267E+02  0.44402499258E+02  0.10566000000E+00 0.  1.
        994    1    1    2    0    0  0.15288449263E+02  0.26210265702E+02  0.52711289422E+01  0.17394809430E+03  0.17120000000E+03 0.  0.
        998    1    1    2    0    0 -0.84330248410E+01 -0.13543399329E+02  0.14527273861E+04  0.14528494064E+04  0.10000000000E+02 0.  1.
</event>
<event>
 5    1  0.1271464E-008  0.3809648E+03  0.7957747E-01  0.3446968E+00
         13   -1    0    0    0    0  0.00000000000E+00  0.00000000000E+00  0.14999999963E+04  0.15000000000E+04  0.10566000000E+00 0.  1.
        994   -1    0    0    0    0 -0.00000000000E+00 -0.00000000000E+00  0.11368683772E-12  0.17120000000E+03  0.17120000000E+03 0.  0.
         13    1    1    2    0    0  0.22843570733E+02 -0.51748214244E+01  0.74854855486E+02  0.78433845083E+02  0.10566000000E+00 0.  1.
        994    1    1    2    0    0 -0.11350959722E+02  0.50126196084E+01  0.41601521823E+01  0.17169949769E+03  0.17120000000E+03 0.  0.
        998    1    1    2    0    0 -0.11492611012E+02  0.16220181603E+00  0.14209849886E+04  0.14210666572E+04  0.10000000000E+02 0.  1.
</event>
<event>
 5    1  0.1271464E-008  0.3845468E+03  0.7957747E-01  0.3431597E+00
         13   -1    0    0    0    0  0.00000000000E+00  0.00000000000E+00  0.14999999963E+04  0.15000000000E+04  0.10566000000E+00 0. -1.
        994   -1    0    0    0    0 -0.00000000000E+00 -0.00000000000E+00  0.11368683772E-12  0.17120000000E+03  0.17120000000E+03 0.  0.
         13    1    1    2    0    0 -0.11611017109E+02  0.48112955282E+01  0.42645477577E+02  0.44459107107E+02  0.10566000000E+00 0. -1.
        994    1    1    2    0    0  0.93780397400E+01  0.51804276019E+01  0.22334503603E+01  0.17154944698E+03  0.17120000000E+03 0.  0.
        998    1    1    2    0    0  0.22329773693E+01 -0.99917231301E+01  0.14551210683E+04  0.14551914459E+04  0.10000000000E+02 0. -1.
</event>
<event>
 5    1  0.1271464E-008  0.3821036E+03  0.7957747E-01  0.3442050E+00
         13   -1    0    0    0    0  0.00000000000E+00  0.00000000000E+00  0.14999999963E+04  0.15000000000E+04  0.10566000000E+00 0. -1.
        994   -1    0    0    0    0 -0.00000000000E+00 -0.00000000000E+00  0.11368683772E-12  0.17120000000E+03  0.17120000000E+03 0.  0.
         13    1    1    2    0    0  0.21927774676E+02 -0.28492597241E+02  0.18628808544E+03  0.18972590056E+03  0.10566000000E+00 0. -1.
        994    1    1    2    0    0 -0.20693625509E+02  0.28822874585E+02  0.72658998861E+01  0.17498919263E+03  0.17120000000E+03 0.  0.
        998    1    1    2    0    0 -0.12341491672E+01 -0.33027734403E+00  0.13064460109E+04  0.13064849068E+04  0.10000000000E+02 0.  0.
</event>
<event>
 5    1  0.1271464E-008  0.3728441E+03  0.7957747E-01  0.3482921E+00
         13   -1    0    0    0    0  0.00000000000E+00  0.00000000000E+00  0.14999999963E+04  0.15000000000E+04  0.10566000000E+00 0. -1.
        994   -1    0    0    0    0 -0.00000000000E+00 -0.00000000000E+00  0.11368683772E-12  0.17120000000E+03  0.17120000000E+03 0.  0.
         13    1    1    2    0    0 -0.93244550063E+01 -0.14772936843E+02  0.15963161571E+02  0.23664716679E+02  0.10566000000E+00 0. -1.
        994    1    1    2    0    0  0.17296822963E+02  0.11137254667E+02  0.92405072932E+01  0.17267902450E+03  0.17120000000E+03 0.  0.
        998    1    1    2    0    0 -0.79723679570E+01  0.36356821760E+01  0.14747963274E+04  0.14748562588E+04  0.10000000000E+02 0. -1.
</event>
<event>
 5    1  0.1271464E-008  0.3839572E+03  0.7957747E-01  0.3434107E+00
         13   -1    0    0    0    0  0.00000000000E+00  0.00000000000E+00  0.14999999963E+04  0.15000000000E+04  0.10566000000E+00 0. -1.
        994   -1    0    0    0    0 -0.00000000000E+00 -0.00000000000E+00  0.11368683772E-12  0.17120000000E+03  0.17120000000E+03 0.  0.
         13    1    1    2    0    0  0.45335040856E+01 -0.19017282046E+02  0.93741860129E+02  0.95758849096E+02  0.10566000000E+00 0. -1.
        994    1    1    2    0    0  0.30839671345E+01  0.47237161877E+01  0.22537603252E+01  0.17130774584E+03  0.17120000000E+03 0.  0.
        998    1    1    2    0    0 -0.76174712201E+01  0.14293565859E+02  0.14040043758E+04  0.14041334051E+04  0.10000000000E+02 0. -1.
</event>
<event>
 5    1  0.1271464E-008  0.3843697E+03  0.7957747E-01  0.3432350E+00
         13   -1    0    0    0    0  0.00000000000E+00  0.00000000000E+00  0.14999999963E+04  0.15000000000E+04  0.10566000000E+00 0. -1.
        994   -1    0    0    0    0 -0.00000000000E+00 -0.00000000000E+00  0.11368683772E-12  0.17120000000E+03  0.17120000000E+03 0.  0.
         13    1    1    2    0    0 -0.75580427033E+01  0.97151017933E+01  0.39029247552E+02  0.40924327006E+02  0.10566000000E+00 0. -1.
        994    1    1    2    0    0  0.59980087068E+01 -0.27089252062E+01  0.20861611826E+01  0.17133915622E+03  0.17120000000E+03 0.  0.
        998    1    1    2    0    0  0.15600339965E+01 -0.70061765870E+01  0.14588845875E+04  0.14589365168E+04  0.10000000000E+02 0. -1.
</event>
<event>
 5    1  0.1271464E-008  0.3812642E+03  0.7957747E-01  0.3445672E+00
         13   -1    0    0    0    0  0.00000000000E+00  0.00000000000E+00  0.14999999963E+04  0.15000000000E+04  0.10566000000E+00 0. -1.
        994   -1    0    0    0    0 -0.00000000000E+00 -0.00000000000E+00  0.11368683772E-12  0.17120000000E+03  0.17120000000E+03 0.  0.
         13    1    1    2    0    0 -0.28401345798E+02  0.23986843570E+02  0.16414017879E+03  0.16829739916E+03  0.10566000000E+00 0. -1.
        994    1    1    2    0    0  0.41713831142E+02 -0.24448512877E+02  0.11318264080E+02  0.17825632273E+03  0.17120000000E+03 0.  0.
        998    1    1    2    0    0 -0.13312485344E+02  0.46166930738E+00  0.13245415534E+04  0.13246462781E+04  0.10000000000E+02 0. -1.
</event>
<event>
 5    1  0.1271464E-008  0.3838237E+03  0.7957747E-01  0.3434676E+00
         13   -1    0    0    0    0  0.00000000000E+00  0.00000000000E+00  0.14999999963E+04  0.15000000000E+04  0.10566000000E+00 0. -1.
        994   -1    0    0    0    0 -0.00000000000E+00 -0.00000000000E+00  0.11368683772E-12  0.17120000000E+03  0.17120000000E+03 0.  0.
         13    1    1    2    0    0  0.12952554477E+02 -0.39723691039E+01  0.40890488263E+02  0.43076578070E+02  0.10566000000E+00 0. -1.
        994    1    1    2    0    0 -0.75774897378E+01  0.56978463255E+01  0.25120623985E+01  0.17148071105E+03  0.17120000000E+03 0.  0.
        998    1    1    2    0    0 -0.53750647393E+01 -0.17254772216E+01  0.14565974456E+04  0.14566427109E+04  0.10000000000E+02 0. -1.
</event>
<event>
 5    1  0.1271464E-008  0.3759482E+03  0.7957747E-01  0.3468993E+00
         13   -1    0    0    0    0  0.00000000000E+00  0.00000000000E+00  0.14999999963E+04  0.15000000000E+04  0.10566000000E+00 0.  1.
        994   -1    0    0    0    0 -0.00000000000E+00 -0.00000000000E+00  0.11368683772E-12  0.17120000000E+03  0.17120000000E+03 0.  0.
         13    1    1    2    0    0 -0.27011479590E+02  0.37618718157E+02  0.18637980391E+03  0.19204746928E+03  0.10566000000E+00 0.  1.
        994    1    1    2    0    0 -0.10780866194E+02 -0.24101956298E+02  0.85583464712E+01  0.17343533858E+03  0.17120000000E+03 0.  0.
        998    1    1    2    0    0  0.37792345785E+02 -0.13516761858E+02  0.13050618459E+04  0.13057171921E+04  0.10000000000E+02 0.  1.
</event>
<event>
 5    1  0.1271464E-008  0.3858742E+03  0.7957747E-01  0.3425973E+00
         13   -1    0    0    0    0  0.00000000000E+00  0.00000000000E+00  0.14999999963E+04  0.15000000000E+04  0.10566000000E+00 0.  1.
        994   -1    0    0    0    0 -0.00000000000E+00 -0.00000000000E+00  0.11368683772E-12  0.17120000000E+03  0.17120000000E+03 0.  0.
         13    1    1    2    0    0 -0.15015782953E+01  0.13937268102E+02  0.84206266922E+02  0.85365149403E+02  0.10566000000E+00 0.  1.
        994    1    1    2    0    0  0.81116020093E+00 -0.72250938964E+01  0.13701114485E+01  0.17135978866E+03  0.17120000000E+03 0.  0.
        998    1    1    2    0    0  0.69041809440E+00 -0.67121742052E+01  0.14144236179E+04  0.14144750619E+04  0.10000000000E+02 0.  1.
</event>
<event>
 5    1  0.1271464E-008  0.3833736E+03  0.7957747E-01  0.3436599E+00
         13   -1    0    0    0    0  0.00000000000E+00  0.00000000000E+00  0.14999999963E+04  0.15000000000E+04  0.10566000000E+00 0.  1.
        994   -1    0    0    0    0 -0.00000000000E+00 -0.00000000000E+00  0.11368683772E-12  0.17120000000E+03  0.17120000000E+03 0.  0.
         13    1    1    2    0    0  0.16244266849E+02  0.44558087870E+01  0.56010666159E+02  0.58488770931E+02  0.10566000000E+00 0.  1.
        994    1    1    2    0    0 -0.14738455497E+02 -0.80879235163E+01  0.33747500681E+01  0.17205657650E+03  0.17120000000E+03 0.  0.
        998    1    1    2    0    0 -0.15058113528E+01  0.36321147293E+01  0.14406145801E+04  0.14406546526E+04  0.10000000000E+02 0.  1.
</event>
<event>
 5    1  0.1271464E-008  0.4164876E+03  0.7957747E-01  0.3306204E+00
         13   -1    0    0    0    0  0.00000000000E+00  0.00000000000E+00  0.14999999963E+04  0.15000000000E+04  0.10566000000E+00 0. -1.
        994   -1    0    0    0    0 -0.00000000000E+00 -0.00000000000E+00  0.11368683772E-12  0.17120000000E+03  0.17120000000E+03 0.  0.
         13    1    1    2    0    0  0.28294465997E+02 -0.43591120388E+02  0.19994147332E+02  0.55682489836E+02  0.10566000000E+00 0. -1.
        994    1    1    2    0    0 -0.32275688724E+02  0.58497235457E+02  0.57026086664E+02  0.19241897307E+03  0.17120000000E+03 0.  0.
        998    1    1    2    0    0  0.39812227264E+01 -0.14906115070E+02  0.14229797623E+04  0.14230985371E+04  0.10000000000E+02 0. -1.
</event>
<event>
 5    1  0.1271464E-008  0.3843082E+03  0.7957747E-01  0.3432611E+00
         13   -1    0    0    0    0  0.00000000000E+00  0.00000000000E+00  0.14999999963E+04  0.15000000000E+04  0.10566000000E+00 0.  1.
        994   -1    0    0    0    0 -0.00000000000E+00 -0.00000000000E+00  0.11368683772E-12  0.17120000000E+03  0.17120000000E+03 0.  0.
         13    1    1    2    0    0 -0.15616355998E+02  0.24058102700E+01  0.57999160549E+02  0.60112995984E+02  0.10566000000E+00 0.  1.
        994    1    1    2    0    0  0.26065388157E+02  0.22084835811E+01  0.42326505637E+01  0.17323867117E+03  0.17120000000E+03 0.  0.
        998    1    1    2    0    0 -0.10449032160E+02 -0.46142938510E+01  0.14377681852E+04  0.14378483328E+04  0.10000000000E+02 0.  1.
</event>
<event>
 5    1  0.1271464E-008  0.3839687E+03  0.7957747E-01  0.3434058E+00
         13   -1    0    0    0    0  0.00000000000E+00  0.00000000000E+00  0.14999999963E+04  0.15000000000E+04  0.10566000000E+00 0.  1.
        994   -1    0    0    0    0 -0.00000000000E+00 -0.00000000000E+00  0.11368683772E-12  0.17120000000E+03  0.17120000000E+03 0.  0.
         13    1    1    2    0    0  0.75373901025E+01  0.19640489958E+02  0.95863018218E+02  0.98144233255E+02  0.10566000000E+00 0.  1.
        994    1    1    2    0    0 -0.11897323601E+02 -0.20817198158E+02  0.40423438989E+01  0.17291813841E+03  0.17120000000E+03 0.  0.
        998    1    1    2    0    0  0.43599334981E+01  0.11767082000E+01  0.14000946342E+04  0.14001376283E+04  0.10000000000E+02 0.  1.
</event>
<event>
 5    1  0.1271464E-008  0.3723501E+03  0.7957747E-01  0.3485159E+00
         13   -1    0    0    0    0  0.00000000000E+00  0.00000000000E+00  0.14999999963E+04  0.15000000000E+04  0.10566000000E+00 0. -1.
        994   -1    0    0    0    0 -0.00000000000E+00 -0.00000000000E+00  0.11368683772E-12  0.17120000000E+03  0.17120000000E+03 0.  0.
         13    1    1    2    0    0 -0.46472377410E+01  0.14429527109E+02  0.10536585058E+02  0.18461821685E+02  0.10566000000E+00 0. -1.
        994    1    1    2    0    0  0.77045200642E+01 -0.15533581054E+02  0.90776830462E+01  0.17231510700E+03  0.17120000000E+03 0.  0.
        998    1    1    2    0    0 -0.30572823233E+01  0.11040539458E+01  0.14803857282E+04  0.14804230713E+04  0.10000000000E+02 0. -1.
</event>
<event>
 5    1  0.1271464E-008  0.3777603E+03  0.7957747E-01  0.3460969E+00
         13   -1    0    0    0    0  0.00000000000E+00  0.00000000000E+00  0.14999999963E+04  0.15000000000E+04  0.10566000000E+00 0.  1.
        994   -1    0    0    0    0 -0.00000000000E+00 -0.00000000000E+00  0.11368683772E-12  0.17120000000E+03  0.17120000000E+03 0.  0.
         13    1    1    2    0    0  0.37767578065E+02 -0.15234191594E+02  0.11513975139E+03  0.12212961992E+03  0.10566000000E+00 0.  1.
        994    1    1    2    0    0 -0.58099498015E+02  0.91591278557E+02  0.45972717194E+02  0.20781589136E+03  0.17120000000E+03 0.  0.
        998    1    1    2    0    0  0.20331919950E+02 -0.76357086963E+02  0.13388875277E+04  0.13412544887E+04  0.10000000000E+02 0.  1.
</event>
<event>
 5    1  0.1271464E-008  0.3847773E+03  0.7957747E-01  0.3430617E+00
         13   -1    0    0    0    0  0.00000000000E+00  0.00000000000E+00  0.14999999963E+04  0.15000000000E+04  0.10566000000E+00 0. -1.
        994   -1    0    0    0    0 -0.00000000000E+00 -0.00000000000E+00  0.11368683772E-12  0.17120000000E+03  0.17120000000E+03 0.  0.
         13    1    1    2    0    0 -0.95879248644E+00 -0.15171299201E+02  0.67637955269E+02  0.69325260616E+02  0.10566000000E+00 0. -1.
        994    1    1    2    0    0 -0.21357073432E+01  0.69024017711E+01  0.19125728769E+01  0.17136307167E+03  0.17120000000E+03 0.  0.
        998    1    1    2    0    0  0.30944998297E+01  0.82688974295E+01  0.14304494681E+04  0.14305116677E+04  0.10000000000E+02 0. -1.
</event>
<event>
 5    1  0.1271464E-008  0.3847811E+03  0.7957747E-01  0.3430601E+00
         13   -1    0    0    0    0  0.00000000000E+00  0.00000000000E+00  0.14999999963E+04  0.15000000000E+04  0.10566000000E+00 0.  1.
        994   -1    0    0    0    0 -0.00000000000E+00 -0.00000000000E+00  0.11368683772E-12  0.17120000000E+03  0.17120000000E+03 0.  0.
         13    1    1    2    0    0 -0.15219329116E+02  0.94519740686E+01  0.82330839448E+02  0.84257617346E+02  0.10566000000E+00 0.  1.
        994    1    1    2    0    0  0.29106350485E+02 -0.69653468566E+01  0.46921625189E+01  0.17385957576E+03  0.17120000000E+03 0.  0.
        998    1    1    2    0    0 -0.13887021369E+02 -0.24866272121E+01  0.14129769943E+04  0.14130828069E+04  0.10000000000E+02 0.  1.
</event>
<event>
 5    1  0.1271464E-008  0.3819330E+03  0.7957747E-01  0.3442785E+00
         13   -1    0    0    0    0  0.00000000000E+00  0.00000000000E+00  0.14999999963E+04  0.15000000000E+04  0.10566000000E+00 0.  1.
        994   -1    0    0    0    0 -0.00000000000E+00 -0.00000000000E+00  0.11368683772E-12  0.17120000000E+03  0.17120000000E+03 0.  0.
         13    1    1    2    0    0 -0.10174303106E+02  0.40956419066E+01  0.17616608333E+02  0.20752030732E+02  0.10566000000E+00 0.  1.
        994    1    1    2    0    0  0.90106495478E+01 -0.58809838185E+01  0.35451975024E+01  0.17157443341E+03  0.17120000000E+03 0.  0.
        998    1    1    2    0    0  0.11636535583E+01  0.17853419119E+01  0.14788381904E+04  0.14788735359E+04  0.10000000000E+02 0.  1.
</event>
<event>
 5    1  0.1271464E-008  0.3696222E+03  0.7957747E-01  0.3497629E+00
         13   -1    0    0    0    0  0.00000000000E+00  0.00000000000E+00  0.14999999963E+04  0.15000000000E+04  0.10566000000E+00 0.  1.
        994   -1    0    0    0    0 -0.00000000000E+00 -0.00000000000E+00  0.11368683772E-12  0.17120000000E+03  0.17120000000E+03 0.  0.
         13    1    1    2    0    0 -0.63082267346E+02 -0.34854180028E+02  0.36475173313E+03  0.37180374434E+03  0.10566000000E+00 0.  1.
        994    1    1    2    0    0  0.16365109775E+02 -0.21084986472E+02  0.11937041239E+02  0.17367880247E+03  0.17120000000E+03 0.  0.
        998    1    1    2    0    0  0.46717157570E+02  0.55939166500E+02  0.11233112219E+04  0.11257174532E+04  0.10000000000E+02 0.  1.
</event>
<event>
 5    1  0.1271464E-008  0.3727568E+03  0.7957747E-01  0.3483316E+00
         13   -1    0    0    0    0  0.00000000000E+00  0.00000000000E+00  0.14999999963E+04  0.15000000000E+04  0.10566000000E+00 0.  1.
        994   -1    0    0    0    0 -0.00000000000E+00 -0.00000000000E+00  0.11368683772E-12  0.17120000000E+03  0.17120000000E+03 0.  0.
         13    1    1    2    0    0 -0.22441860909E+02  0.13264381798E+02  0.39787806771E+02  0.47567443460E+02  0.10566000000E+00 0.  1.
        994    1    1    2    0    0  0.99311113632E+01 -0.25557599339E+02  0.10414542815E+02  0.17369433082E+03  0.17120000000E+03 0.  0.
        998    1    1    2    0    0  0.12510749546E+02  0.12293217540E+02  0.14497976467E+04  0.14499382257E+04  0.10000000000E+02 0.  1.
</event>
<event>
 5    1  0.1271464E-008  0.3810846E+03  0.7957747E-01  0.3446449E+00
         13   -1    0    0    0    0  0.00000000000E+00  0.00000000000E+00  0.14999999963E+04  0.15000000000E+04  0.10566000000E+00 0.  1.
        994   -1    0    0    0    0 -0.00000000000E+00 -0.00000000000E+00  0.11368683772E-12  0.17120000000E+03  0.17120000000E+03 0.  0.
         13    1    1    2    0    0  0.24678699471E+02 -0.10060579901E+02  0.97284316444E+02  0.10086874078E+03  0.10566000000E+00 0.  1.
        994    1    1    2    0    0 -0.17752305064E+02  0.23528732106E+01  0.46555512866E+01  0.17219696427E+03  0.17120000000E+03 0.  0.
        998    1    1    2    0    0 -0.69263944067E+01  0.77077066908E+01  0.13980601285E+04  0.13981342950E+04  0.10000000000E+02 0.  1.
</event>
<event>
 5    1  0.1271464E-008  0.3808435E+03  0.7957747E-01  0.3447494E+00
         13   -1    0    0    0    0  0.00000000000E+00  0.00000000000E+00  0.14999999963E+04  0.15000000000E+04  0.10566000000E+00 0. -1.
        994   -1    0    0    0    0 -0.00000000000E+00 -0.00000000000E+00  0.11368683772E-12  0.17120000000E+03  0.17120000000E+03 0.  0.
         13    1    1    2    0    0  0.98695944206E+01  0.21883412765E+02  0.83704068322E+02  0.87078555718E+02  0.10566000000E+00 0. -1.
        994    1    1    2    0    0 -0.14867686872E+02  0.99203786628E+01  0.47736526029E+01  0.17219666020E+03  0.17120000000E+03 0.  0.
        998    1    1    2    0    0  0.49980924518E+01 -0.31803791428E+02  0.14115222754E+04  0.14119247841E+04  0.10000000000E+02 0. -1.
</event>
<event>
 5    1  0.1271464E-008  0.3851254E+03  0.7957747E-01  0.3429140E+00
         13   -1    0    0    0    0  0.00000000000E+00  0.00000000000E+00  0.14999999963E+04  0.15000000000E+04  0.10566000000E+00 0.  1.
        994   -1    0    0    0    0 -0.00000000000E+00 -0.00000000000E+00  0.11368683772E-12  0.17120000000E+03  0.17120000000E+03 0.  0.
         13    1    1    2    0    0 -0.99208977838E+01  0.69513749909E+01  0.45414239426E+02  0.47002235413E+02  0.10566000000E+00 0.  1.
        994    1    1    2    0    0  0.12360717987E+02 -0.61028415469E+01  0.21928157336E+01  0.17176810084E+03  0.17120000000E+03 0.  0.
        998    1    1    2    0    0 -0.24398202031E+01 -0.84853344397E+00  0.14523929411E+04  0.14524296638E+04  0.10000000000E+02 0.  1.
</event>
<event>
 5    1  0.1271464E-008  0.3835232E+03  0.7957747E-01  0.3435960E+00
         13   -1    0    0    0    0  0.00000000000E+00  0.00000000000E+00  0.14999999963E+04  0.15000000000E+04  0.10566000000E+00 0. -1.
        994   -1    0    0    0    0 -0.00000000000E+00 -0.00000000000E+00  0.11368683772E-12  0.17120000000E+03  0.17120000000E+03 0.  0.
         13    1    1    2    0    0  0.20625547759E+02  0.16471702831E+01  0.87440162184E+02  0.89854991609E+02  0.10566000000E+00 0. -1.
        994    1    1    2    0    0 -0.17578405339E+02 -0.96503363235E+00  0.33899434026E+01  0.17213617673E+03  0.17120000000E+03 0.  0.
        998    1    1    2    0    0 -0.30471424199E+01 -0.68213665071E+00  0.14091698907E+04  0.14092088317E+04  0.10000000000E+02 0. -1.
</event>
<event>
 5    1  0.1271464E-008  0.3772205E+03  0.7957747E-01  0.3463351E+00
         13   -1    0    0    0    0  0.00000000000E+00  0.00000000000E+00  0.14999999963E+04  0.15000000000E+04  0.10566000000E+00 0.  1.
        994   -1    0    0    0    0 -0.00000000000E+00 -0.00000000000E+00  0.11368683772E-12  0.17120000000E+03  0.17120000000E+03 0.  0.
         13    1    1    2    0    0  0.14198189271E+02  0.36047322548E+02  0.12587076803E+03  0.13169836540E+03  0.10566000000E+00 0.  1.
        994    1    1    2    0    0 -0.68382597394E+02 -0.13000041854E+02  0.22068774303E+02  0.18612267867E+03  0.17120000000E+03 0.  0.
        998    1    1    2    0    0  0.54184408124E+02 -0.23047280695E+02  0.13520604539E+04  0.13533789559E+04  0.10000000000E+02 0.  1.
</event>
<event>
 5    1  0.1271464E-008  0.3852184E+03  0.7957747E-01  0.3428747E+00
         13   -1    0    0    0    0  0.00000000000E+00  0.00000000000E+00  0.14999999963E+04  0.15000000000E+04  0.10566000000E+00 0.  1.
        994   -1    0    0    0    0 -0.00000000000E+00 -0.00000000000E+00  0.11368683772E-12  0.17120000000E+03  0.17120000000E+03 0.  0.
         13    1    1    2    0    0 -0.46097308114E+01  0.14322359880E+02  0.77045374226E+02  0.78500830978E+02  0.10566000000E+00 0.  1.
        994    1    1    2    0    0 -0.62828058226E+00 -0.57365695061E+01  0.16312160426E+01  0.17130500236E+03  0.17120000000E+03 0.  0.
        998    1    1    2    0    0  0.52380113937E+01 -0.85857903742E+01  0.14213234060E+04  0.14213941667E+04  0.10000000000E+02 0.  1.
</event>
<event>
 5    1  0.1271464E-008  0.3704936E+03  0.7957747E-01  0.3493626E+00
         13   -1    0    0    0    0  0.00000000000E+00  0.00000000000E+00  0.14999999963E+04  0.15000000000E+04  0.10566000000E+00 0. -1.
        994   -1    0    0    0    0 -0.00000000000E+00 -0.00000000000E+00  0.11368683772E-12  0.17120000000E+03  0.17120000000E+03 0.  0.
         13    1    1    2    0    0 -0.19371967176E+02 -0.61538852531E+00  0.16968812652E+02  0.25760504307E+02  0.10566000000E+00 0. -1.
        994    1    1    2    0    0  0.12254883386E+02  0.21337836379E+02  0.11104117104E+02  0.17331539702E+03  0.17120000000E+03 0.  0.
        998    1    1    2    0    0  0.71170837897E+01 -0.20722447854E+02  0.14719270665E+04  0.14721240987E+04  0.10000000000E+02 0. -1.
</event>
<event>
 5    1  0.1271464E-008  0.3821307E+03  0.7957747E-01  0.3441933E+00
         13   -1    0    0    0    0  0.00000000000E+00  0.00000000000E+00  0.14999999963E+04  0.15000000000E+04  0.10566000000E+00 0.  1.
        994   -1    0    0    0    0 -0.00000000000E+00 -0.00000000000E+00  0.11368683772E-12  0.17120000000E+03  0.17120000000E+03 0.  0.
         13    1    1    2    0    0 -0.18274665743E+01  0.10745682985E+02  0.18704449466E+02  0.21648947567E+02  0.10566000000E+00 0.  1.
        994    1    1    2    0    0 -0.50330887887E+01  0.12941612861E+01  0.31511129308E+01  0.17130784089E+03  0.17120000000E+03 0.  0.
        998    1    1    2    0    0  0.68605553630E+01 -0.12039844271E+02  0.14781444339E+04  0.14782432115E+04  0.10000000000E+02 0.  1.
</event>
<event>
 5    1  0.1271464E-008  0.3774467E+03  0.7957747E-01  0.3462352E+00
         13   -1    0    0    0    0  0.00000000000E+00  0.00000000000E+00  0.14999999963E+04  0.15000000000E+04  0.10566000000E+00 0.  1.
        994   -1    0    0    0    0 -0.00000000000E+00 -0.00000000000E+00  0.11368683772E-12  0.17120000000E+03  0.17120000000E+03 0.  0.
         13    1    1    2    0    0 -0.38170780053E+02  0.12441330576E+02  0.18665265826E+03  0.19092150523E+03  0.10566000000E+00 0.  1.
        994    1    1    2    0    0 -0.15941562077E+02 -0.60866007802E+01  0.64099269028E+01  0.17216767198E+03  0.17120000000E+03 0.  0.
        998    1    1    2    0    0  0.54112342130E+02 -0.63547297959E+01  0.13069374111E+04  0.13081108228E+04  0.10000000000E+02 0.  1.
</event>
<event>
 5    1  0.1271464E-008  0.3788252E+03  0.7957747E-01  0.3456290E+00
         13   -1    0    0    0    0  0.00000000000E+00  0.00000000000E+00  0.14999999963E+04  0.15000000000E+04  0.10566000000E+00 0.  1.
        994   -1    0    0    0    0 -0.00000000000E+00 -0.00000000000E+00  0.11368683772E-12  0.17120000000E+03  0.17120000000E+03 0.  0.
         13    1    1    2    0    0 -0.39905776664E+02 -0.27688106533E+02  0.22194626921E+03  0.22719872322E+03  0.10566000000E+00 0.  1.
        994    1    1    2    0    0  0.38704252107E+02  0.19922576969E+02  0.11113087229E+02  0.17699680481E+03  0.17120000000E+03 0.  0.
        998    1    1    2    0    0  0.12015245573E+01  0.77655295642E+01  0.12669406398E+04  0.12670044720E+04  0.10000000000E+02 0.  1.
</event>
<event>
 5    1  0.1271464E-008  0.3708159E+03  0.7957747E-01  0.3492149E+00
         13   -1    0    0    0    0  0.00000000000E+00  0.00000000000E+00  0.14999999963E+04  0.15000000000E+04  0.10566000000E+00 0.  1.
        994   -1    0    0    0    0 -0.00000000000E+00 -0.00000000000E+00  0.11368683772E-12  0.17120000000E+03  0.17120000000E+03 0.  0.
         13    1    1    2    0    0  0.93182308175E+02  0.24596551281E+02  0.50208478326E+03  0.51125049989E+03  0.10566000000E+00 0.  1.
        994    1    1    2    0    0 -0.21627406338E+02 -0.63659829798E+02  0.27392211830E+02  0.18595723138E+03  0.17120000000E+03 0.  0.
        998    1    1    2    0    0 -0.71554901837E+02  0.39063278517E+02  0.97052300119E+03  0.97399226873E+03  0.10000000000E+02 0.  1.
</event>
<event>
 5    1  0.1271464E-008  0.3841770E+03  0.7957747E-01  0.3433170E+00
         13   -1    0    0    0    0  0.00000000000E+00  0.00000000000E+00  0.14999999963E+04  0.15000000000E+04  0.10566000000E+00 0. -1.
        994   -1    0    0    0    0 -0.00000000000E+00 -0.00000000000E+00  0.11368683772E-12  0.17120000000E+03  0.17120000000E+03 0.  0.
         13    1    1    2    0    0 -0.10551304331E+02 -0.14102629686E+02  0.73248468898E+02  0.75336336167E+02  0.10566000000E+00 0. -1.
        994    1    1    2    0    0  0.12052393629E+02  0.12043469171E+02  0.29971309572E+01  0.17207186910E+03  0.17120000000E+03 0.  0.
        998    1    1    2    0    0 -0.15010892984E+01  0.20591605155E+01  0.14237543964E+04  0.14237917947E+04  0.10000000000E+02 0. -1.
</event>
<event>
 5    1  0.1271464E-008  0.3720291E+03  0.7957747E-01  0.3486617E+00
         13   -1    0    0    0    0  0.00000000000E+00  0.00000000000E+00  0.14999999963E+04  0.15000000000E+04  0.10566000000E+00 0.  1.
        994   -1    0    0    0    0 -0.00000000000E+00 -0.00000000000E+00  0.11368683772E-12  0.17120000000E+03  0.17120000000E+03 0.  0.
         13    1    1    2    0    0  0.29715147670E+01 -0.17443540324E+02  0.15293740169E+02  0.23388387106E+02  0.10566000000E+00 0.  1.
        994    1    1    2    0    0 -0.58093668529E+01  0.17182203916E+02  0.93427213060E+01  0.17241143615E+03  0.17120000000E+03 0.  0.
        998    1    1    2    0    0  0.28378520860E+01  0.26133640770E+00  0.14753635348E+04  0.14754001767E+04  0.10000000000E+02 0.  1.
</event>
<event>
 5    1  0.1271464E-008  0.3768967E+03  0.7957747E-01  0.3464783E+00
         13   -1    0    0    0    0  0.00000000000E+00  0.00000000000E+00  0.14999999963E+04  0.15000000000E+04  0.10566000000E+00 0. -1.
        994   -1    0    0    0    0 -0.00000000000E+00 -0.00000000000E+00  0.11368683772E-12  0.17120000000E+03  0.17120000000E+03 0.  0.
         13    1    1    2    0    0  0.21863677455E+02 -0.10211979932E+02  0.47951765481E+02  0.53681355262E+02  0.10566000000E+00 0. -1.
        994    1    1    2    0    0 -0.19468378985E+02  0.82256813872E+01  0.72181169214E+01  0.17265057436E+03  0.17120000000E+03 0.  0.
        998    1    1    2    0    0 -0.23952984699E+01  0.19862985452E+01  0.14448301139E+04  0.14448680704E+04  0.10000000000E+02 0. -1.
</event>
<event>
 5    1  0.1271464E-008  0.3821016E+03  0.7957747E-01  0.3442058E+00
         13   -1    0    0    0    0  0.00000000000E+00  0.00000000000E+00  0.14999999963E+04  0.15000000000E+04  0.10566000000E+00 0. -1.
        994   -1    0    0    0    0 -0.00000000000E+00 -0.00000000000E+00  0.11368683772E-12  0.17120000000E+03  0.17120000000E+03 0.  0.
         13    1    1    2    0    0 -0.31788552896E+01 -0.12967201297E+02  0.27720726691E+02  0.30768543721E+02  0.10566000000E+00 0. -1.
        994    1    1    2    0    0  0.48787706006E+01  0.94706459914E+01  0.34528990630E+01  0.17156590002E+03  0.17120000000E+03 0.  0.
        998    1    1    2    0    0 -0.16999153110E+01  0.34965553054E+01  0.14688263705E+04  0.14688655563E+04  0.10000000000E+02 0. -1.
</event>
<event>
 5    1  0.1271464E-008  0.3726480E+03  0.7957747E-01  0.3483809E+00
         13   -1    0    0    0    0  0.00000000000E+00  0.00000000000E+00  0.14999999963E+04  0.15000000000E+04  0.10566000000E+00 0.  1.
        994   -1    0    0    0    0 -0.00000000000E+00 -0.00000000000E+00  0.11368683772E-12  0.17120000000E+03  0.17120000000E+03 0.  0.
         13    1    1    2    0    0 -0.45540241716E+02 -0.13075708977E+02  0.15258983417E+03  0.15977658288E+03  0.10566000000E+00 0.  1.
        994    1    1    2    0    0  0.48122522572E+01  0.20375184803E+02  0.93947404320E+01  0.17273102523E+03  0.17120000000E+03 0.  0.
        998    1    1    2    0    0  0.40727989459E+02 -0.72994758259E+01  0.13380154217E+04  0.13386923919E+04  0.10000000000E+02 0.  1.
</event>
<event>
 5    1  0.1271464E-008  0.3835532E+03  0.7957747E-01  0.3435832E+00
         13   -1    0    0    0    0  0.00000000000E+00  0.00000000000E+00  0.14999999963E+04  0.15000000000E+04  0.10566000000E+00 0. -1.
        994   -1    0    0    0    0 -0.00000000000E+00 -0.00000000000E+00  0.11368683772E-12  0.17120000000E+03  0.17120000000E+03 0.  0.
         13    1    1    2    0    0  0.12242055009E+01  0.16339813979E+02  0.55614279220E+02  0.57977990800E+02  0.10566000000E+00 0. -1.
        994    1    1    2    0    0  0.15699529543E+01 -0.14157781958E+02  0.30208970052E+01  0.17181814037E+03  0.17120000000E+03 0.  0.
        998    1    1    2    0    0 -0.27941584552E+01 -0.21820320208E+01  0.14413648201E+04  0.14414038688E+04  0.10000000000E+02 0. -1.
</event>
<event>
 5    1  0.1271464E-008  0.3684274E+03  0.7957747E-01  0.3503150E+00
         13   -1    0    0    0    0  0.00000000000E+00  0.00000000000E+00  0.14999999963E+04  0.15000000000E+04  0.10566000000E+00 0.  1.
        994   -1    0    0    0    0 -0.00000000000E+00 -0.00000000000E+00  0.11368683772E-12  0.17120000000E+03  0.17120000000E+03 0.  0.
         13    1    1    2    0    0  0.33648460534E+02 -0.12679337781E+02  0.56824396494E+02  0.67245874995E+02  0.10566000000E+00 0.  1.
        994    1    1    2    0    0 -0.42087635659E+02  0.10345026078E+02  0.16669099689E+02  0.17738570271E+03  0.17120000000E+03 0.  0.
        998    1    1    2    0    0  0.84391751251E+01  0.23343117024E+01  0.14265065001E+04  0.14265684223E+04  0.10000000000E+02 0.  1.
</event>
<event>
 5    1  0.1271464E-008  0.3731917E+03  0.7957747E-01  0.3481350E+00
         13   -1    0    0    0    0  0.00000000000E+00  0.00000000000E+00  0.14999999963E+04  0.15000000000E+04  0.10566000000E+00 0.  1.
        994   -1    0    0    0    0 -0.00000000000E+00 -0.00000000000E+00  0.11368683772E-12  0.17120000000E+03  0.17120000000E+03 0.  0.
         13    1    1    2    0    0  0.17041200643E+02  0.13308388934E+02  0.28015458286E+02  0.35389162217E+02  0.10566000000E+00 0.  1.
        994    1    1    2    0    0 -0.51416067598E+01 -0.72315934134E+01  0.78795967723E+01  0.17161078086E+03  0.17120000000E+03 0.  0.
        998    1    1    2    0    0 -0.11899593883E+02 -0.60767955206E+01  0.14641049412E+04  0.14642000569E+04  0.10000000000E+02 0.  1.
</event>
<event>
 5    1  0.1271464E-008  0.3849704E+03  0.7957747E-01  0.3429798E+00
         13   -1    0    0    0    0  0.00000000000E+00  0.00000000000E+00  0.14999999963E+04  0.15000000000E+04  0.10566000000E+00 0. -1.
        994   -1    0    0    0    0 -0.00000000000E+00 -0.00000000000E+00  0.11368683772E-12  0.17120000000E+03  0.17120000000E+03 0.  0.
         13    1    1    2    0    0  0.72821499813E+01  0.86344445492E+01  0.41381688702E+02  0.42895671866E+02  0.10566000000E+00 0. -1.
        994    1    1    2    0    0 -0.27170543332E+01  0.97492776334E+01  0.19818021872E+01  0.17151034470E+03  0.17120000000E+03 0.  0.
        998    1    1    2    0    0 -0.45650956481E+01 -0.18383722183E+02  0.14566365054E+04  0.14567939834E+04  0.10000000000E+02 0. -1.
</event>
<event>
 5    1  0.1271464E-008  0.3810356E+03  0.7957747E-01  0.3446662E+00
         13   -1    0    0    0    0  0.00000000000E+00  0.00000000000E+00  0.14999999963E+04  0.15000000000E+04  0.10566000000E+00 0. -1.
        994   -1    0    0    0    0 -0.00000000000E+00 -0.00000000000E+00  0.11368683772E-12  0.17120000000E+03  0.17120000000E+03 0.  0.
         13    1    1    2    0    0 -0.19001616356E+02 -0.20675956897E+02  0.13273494546E+03  0.13567289165E+03  0.10566000000E+00 0. -1.
        994    1    1    2    0    0  0.24100085573E+02 -0.38860189766E+02  0.10608836759E+02  0.17751877616E+03  0.17120000000E+03 0.  0.
        998    1    1    2    0    0 -0.50984692175E+01  0.59536146663E+02  0.13566562141E+04  0.13580083322E+04  0.10000000000E+02 0.  0.
</event>
<event>
 5    1  0.1271464E-008  0.3717454E+03  0.7957747E-01  0.3487908E+00
         13   -1    0    0    0    0  0.00000000000E+00  0.00000000000E+00  0.14999999963E+04  0.15000000000E+04  0.10566000000E+00 0. -1.
        994   -1    0    0    0    0 -0.00000000000E+00 -0.00000000000E+00  0.11368683772E-12  0.17120000000E+03  0.17120000000E+03 0.  0.
         13    1    1    2    0    0  0.45342585806E+02 -0.13650525240E+02  0.86842127254E+02  0.98913361872E+02  0.10566000000E+00 0. -1.
        994    1    1    2    0    0 -0.35469980202E+02  0.30220259069E+02  0.19541854925E+02  0.17850128192E+03  0.17120000000E+03 0.  0.
        998    1    1    2    0    0 -0.98726056037E+01 -0.16569733830E+02  0.13936160141E+04  0.13937853562E+04  0.10000000000E+02 0. -1.
</event>
<event>
 5    1  0.1271464E-008  0.3853477E+03  0.7957747E-01  0.3428199E+00
         13   -1    0    0    0    0  0.00000000000E+00  0.00000000000E+00  0.14999999963E+04  0.15000000000E+04  0.10566000000E+00 0. -1.
        994   -1    0    0    0    0 -0.00000000000E+00 -0.00000000000E+00  0.11368683772E-12  0.17120000000E+03  0.17120000000E+03 0.  0.
         13    1    1    2    0    0  0.11845513990E+02 -0.22828858314E+01  0.48605511665E+02  0.50080282524E+02  0.10566000000E+00 0. -1.
        994    1    1    2    0    0 -0.12127572530E+02  0.67031551085E+01  0.20885944781E+01  0.17177256047E+03  0.17120000000E+03 0.  0.
        998    1    1    2    0    0  0.28205853982E+00 -0.44202692770E+01  0.14493058901E+04  0.14493471570E+04  0.10000000000E+02 0. -1.
</event>
<event>
 5    1  0.1271464E-008  0.3828107E+03  0.7957747E-01  0.3439011E+00
         13   -1    0    0    0    0  0.00000000000E+00  0.00000000000E+00  0.14999999963E+04  0.15000000000E+04  0.10566000000E+00 0.  1.
        994   -1    0    0    0    0 -0.00000000000E+00 -0.00000000000E+00  0.11368683772E-12  0.17120000000E+03  0.17120000000E+03 0.  0.
         13    1    1    2    0    0 -0.50297568211E+01  0.23890280103E+02  0.10076515422E+03  0.10368062213E+03  0.10566000000E+00 0.  1.
        994    1    1    2    0    0  0.36892000704E+01 -0.27229459146E+02  0.52258669595E+01  0.17346989170E+03  0.17120000000E+03 0.  0.
        998    1    1    2    0    0  0.13405567507E+01  0.33391790425E+01  0.13940089751E+04  0.13940494862E+04  0.10000000000E+02 0.  1.
</event>
<event>
 5    1  0.1271464E-008  0.3753984E+03  0.7957747E-01  0.3471443E+00
         13   -1    0    0    0    0  0.00000000000E+00  0.00000000000E+00  0.14999999963E+04  0.15000000000E+04  0.10566000000E+00 0.  1.
        994   -1    0    0    0    0 -0.00000000000E+00 -0.00000000000E+00  0.11368683772E-12  0.17120000000E+03  0.17120000000E+03 0.  0.
         13    1    1    2    0    0  0.64388579533E+02  0.43320334603E+02  0.38340838636E+03  0.39118351507E+03  0.10566000000E+00 0.  1.
        994    1    1    2    0    0 -0.61863746907E+02 -0.26783438644E+02  0.22060782806E+02  0.18531215261E+03  0.17120000000E+03 0.  0.
        998    1    1    2    0    0 -0.25248326263E+01 -0.16536895958E+02  0.10945308271E+04  0.10947043323E+04  0.10000000000E+02 0.  1.
</event>
<event>
 5    1  0.1271464E-008  0.2552705E+03  0.7957747E-01  0.4278172E+00
         13   -1    0    0    0    0  0.00000000000E+00  0.00000000000E+00  0.14999999963E+04  0.15000000000E+04  0.10566000000E+00 0.  1.
        994   -1    0    0    0    0 -0.00000000000E+00 -0.00000000000E+00  0.11368683772E-12  0.17120000000E+03  0.17120000000E+03 0.  0.
         13    1    1    2    0    0 -0.14204688654E+03 -0.10514168204E+03  0.31880625295E+03  0.36451272867E+03  0.10566000000E+00 0.  1.
        994    1    1    2    0    0  0.13000582605E+03  0.11482432202E+03  0.17430291583E+03  0.29962824667E+03  0.17120000000E+03 0.  0.
        998    1    1    2    0    0  0.12041060488E+02 -0.96826399868E+01  0.10068908275E+04  0.10070590247E+04  0.10000000000E+02 0. -1.
</event>
<event>
 5    1  0.1271464E-008  0.3800869E+03  0.7957747E-01  0.3450780E+00
         13   -1    0    0    0    0  0.00000000000E+00  0.00000000000E+00  0.14999999963E+04  0.15000000000E+04  0.10566000000E+00 0.  1.
        994   -1    0    0    0    0 -0.00000000000E+00 -0.00000000000E+00  0.11368683772E-12  0.17120000000E+03  0.17120000000E+03 0.  0.
         13    1    1    2    0    0 -0.18328282268E+02 -0.18635145112E+01  0.39722156867E+02  0.43786522212E+02  0.10566000000E+00 0.  1.
        994    1    1    2    0    0  0.14863710167E+02 -0.93967069646E+01  0.51234050239E+01  0.17217699399E+03  0.17120000000E+03 0.  0.
        998    1    1    2    0    0  0.34645721009E+01  0.11260221476E+02  0.14551544344E+04  0.14552364838E+04  0.10000000000E+02 0.  1.
</event>
<event>
 5    1  0.1271464E-008  0.3777630E+03  0.7957747E-01  0.3460957E+00
         13   -1    0    0    0    0  0.00000000000E+00  0.00000000000E+00  0.14999999963E+04  0.15000000000E+04  0.10566000000E+00 0. -1.
        994   -1    0    0    0    0 -0.00000000000E+00 -0.00000000000E+00  0.11368683772E-12  0.17120000000E+03  0.17120000000E+03 0.  0.
         13    1    1    2    0    0 -0.12742083151E+02  0.12024683729E+02  0.27134258631E+02  0.32299115426E+02  0.10566000000E+00 0. -1.
        994    1    1    2    0    0  0.10452129649E+02 -0.32441273076E+01  0.56701141123E+01  0.17164312270E+03  0.17120000000E+03 0.  0.
        998    1    1    2    0    0  0.22899535018E+01 -0.87805564212E+01  0.14671956235E+04  0.14672577619E+04  0.10000000000E+02 0. -1.
</event>
<event>
 5    1  0.1271464E-008  0.3825039E+03  0.7957747E-01  0.3440328E+00
         13   -1    0    0    0    0  0.00000000000E+00  0.00000000000E+00  0.14999999963E+04  0.15000000000E+04  0.10566000000E+00 0. -1.
        994   -1    0    0    0    0 -0.00000000000E+00 -0.00000000000E+00  0.11368683772E-12  0.17120000000E+03  0.17120000000E+03 0.  0.
         13    1    1    2    0    0 -0.68341106514E+01  0.12570837097E+02  0.34284812098E+02  0.37150915445E+02  0.10566000000E+00 0. -1.
        994    1    1    2    0    0  0.88750756168E+01 -0.91648623422E+01  0.34143292563E+01  0.17170864659E+03  0.17120000000E+03 0.  0.
        998    1    1    2    0    0 -0.20409649654E+01 -0.34059747550E+01  0.14623008549E+04  0.14623404380E+04  0.10000000000E+02 0. -1.
</event>
<event>
 5    1  0.1271464E-008  0.3816586E+03  0.7957747E-01  0.3443968E+00
         13   -1    0    0    0    0  0.00000000000E+00  0.00000000000E+00  0.14999999963E+04  0.15000000000E+04  0.10566000000E+00 0.  1.
        994   -1    0    0    0    0 -0.00000000000E+00 -0.00000000000E+00  0.11368683772E-12  0.17120000000E+03  0.17120000000E+03 0.  0.
         13    1    1    2    0    0  0.37457443367E+01  0.27500999198E+02  0.12272910430E+03  0.12582837424E+03  0.10566000000E+00 0.  1.
        994    1    1    2    0    0  0.15633178497E+02 -0.10007664564E+02  0.44445759403E+01  0.17226068581E+03  0.17120000000E+03 0.  0.
        998    1    1    2    0    0 -0.19378922834E+02 -0.17493334635E+02  0.13728263160E+04  0.13731109400E+04  0.10000000000E+02 0.  1.
</event>
<event>
 5    1  0.1271464E-008  0.3766927E+03  0.7957747E-01  0.3465687E+00
         13   -1    0    0    0    0  0.00000000000E+00  0.00000000000E+00  0.14999999963E+04  0.15000000000E+04  0.10566000000E+00 0.  1.
        994   -1    0    0    0    0 -0.00000000000E+00 -0.00000000000E+00  0.11368683772E-12  0.17120000000E+03  0.17120000000E+03 0.  0.
         13    1    1    2    0    0  0.26464002778E+02 -0.24549736597E+02  0.11306865157E+03  0.11869104491E+03  0.10566000000E+00 0.  1.
        994    1    1    2    0    0 -0.11201692584E+02  0.11613871435E+02  0.66925054669E+01  0.17208890015E+03  0.17120000000E+03 0.  0.
        998    1    1    2    0    0 -0.15262310194E+02  0.12935865162E+02  0.13802388392E+04  0.13804200549E+04  0.10000000000E+02 0.  1.
</event>
<event>
 5    1  0.1271464E-008  0.3817183E+03  0.7957747E-01  0.3443711E+00
         13   -1    0    0    0    0  0.00000000000E+00  0.00000000000E+00  0.14999999963E+04  0.15000000000E+04  0.10566000000E+00 0.  1.
        994   -1    0    0    0    0 -0.00000000000E+00 -0.00000000000E+00  0.11368683772E-12  0.17120000000E+03  0.17120000000E+03 0.  0.
         13    1    1    2    0    0  0.49348814135E+01 -0.13475320617E+02  0.29637990978E+02  0.32929606641E+02  0.10566000000E+00 0.  1.
        994    1    1    2    0    0 -0.64182850494E+01  0.14943515606E+02  0.41479784742E+01  0.17202078004E+03  0.17120000000E+03 0.  0.
        998    1    1    2    0    0  0.14834036359E+01 -0.14681949892E+01  0.14662140268E+04  0.14662496133E+04  0.10000000000E+02 0.  1.
</event>
<event>
 5    1  0.1271464E-008  0.3713632E+03  0.7957747E-01  0.3489649E+00
         13   -1    0    0    0    0  0.00000000000E+00  0.00000000000E+00  0.14999999963E+04  0.15000000000E+04  0.10566000000E+00 0. -1.
        994   -1    0    0    0    0 -0.00000000000E+00 -0.00000000000E+00  0.11368683772E-12  0.17120000000E+03  0.17120000000E+03 0.  0.
         13    1    1    2    0    0 -0.22123151070E+02 -0.17678006635E+02  0.47072255629E+02  0.54934089106E+02  0.10566000000E+00 0. -1.
        994    1    1    2    0    0 -0.21625220441E+01 -0.11285412093E+02  0.90128158852E+01  0.17182173285E+03  0.17120000000E+03 0.  0.
        998    1    1    2    0    0  0.24285673114E+02  0.28963418728E+02  0.14439149248E+04  0.14444441780E+04  0.10000000000E+02 0. -1.
</event>
<event>
 5    1  0.1271464E-008  0.3776334E+03  0.7957747E-01  0.3461529E+00
         13   -1    0    0    0    0  0.00000000000E+00  0.00000000000E+00  0.14999999963E+04  0.15000000000E+04  0.10566000000E+00 0.  1.
        994   -1    0    0    0    0 -0.00000000000E+00 -0.00000000000E+00  0.11368683772E-12  0.17120000000E+03  0.17120000000E+03 0.  0.
         13    1    1    2    0    0 -0.83023292172E+01 -0.20750609376E+02  0.41585398066E+02  0.47210941065E+02  0.10566000000E+00 0.  1.
        994    1    1    2    0    0  0.26426841911E+02  0.29990162259E+02  0.10734968065E+02  0.17613196003E+03  0.17120000000E+03 0.  0.
        998    1    1    2    0    0 -0.18124512694E+02 -0.92395528831E+01  0.14476796301E+04  0.14478570989E+04  0.10000000000E+02 0.  1.
</event>
<event>
 5    1  0.1271464E-008  0.3755286E+03  0.7957747E-01  0.3470862E+00
         13   -1    0    0    0    0  0.00000000000E+00  0.00000000000E+00  0.14999999963E+04  0.15000000000E+04  0.10566000000E+00 0.  1.
        994   -1    0    0    0    0 -0.00000000000E+00 -0.00000000000E+00  0.11368683772E-12  0.17120000000E+03  0.17120000000E+03 0.  0.
         13    1    1    2    0    0 -0.20499536052E+02 -0.14202614384E+02  0.43964460046E+02  0.50545327627E+02  0.10566000000E+00 0.  1.
        994    1    1    2    0    0  0.24880482914E+02  0.19094933688E+02  0.97524761842E+01  0.17432213203E+03  0.17120000000E+03 0.  0.
        998    1    1    2    0    0 -0.43809468618E+01 -0.48923193033E+01  0.14462830600E+04  0.14463325403E+04  0.10000000000E+02 0.  1.
</event>
<event>
 5    1  0.1271464E-008  0.3854144E+03  0.7957747E-01  0.3427917E+00
         13   -1    0    0    0    0  0.00000000000E+00  0.00000000000E+00  0.14999999963E+04  0.15000000000E+04  0.10566000000E+00 0. -1.
        994   -1    0    0    0    0 -0.00000000000E+00 -0.00000000000E+00  0.11368683772E-12  0.17120000000E+03  0.17120000000E+03 0.  0.
         13    1    1    2    0    0 -0.12108236236E+02 -0.89322387712E+01  0.85153627297E+02  0.86472803124E+02  0.10566000000E+00 0. -1.
        994    1    1    2    0    0  0.43237734221E+01 -0.32443051065E+01  0.15205048505E+01  0.17129206773E+03  0.17120000000E+03 0.  0.
        998    1    1    2    0    0  0.77844628143E+01  0.12176543878E+02  0.14133258641E+04  0.14134351291E+04  0.10000000000E+02 0. -1.
</event>
<event>
 5    1  0.1271464E-008  0.3745644E+03  0.7957747E-01  0.3475173E+00
         13   -1    0    0    0    0  0.00000000000E+00  0.00000000000E+00  0.14999999963E+04  0.15000000000E+04  0.10566000000E+00 0.  1.
        994   -1    0    0    0    0 -0.00000000000E+00 -0.00000000000E+00  0.11368683772E-12  0.17120000000E+03  0.17120000000E+03 0.  0.
         13    1    1    2    0    0  0.57271293771E+02  0.28313490730E+02  0.33339091724E+03  0.33945716918E+03  0.10566000000E+00 0.  1.
        994    1    1    2    0    0 -0.34064704583E+02  0.18431856913E+02  0.12026510950E+02  0.17593809824E+03  0.17120000000E+03 0.  0.
        998    1    1    2    0    0 -0.23206589188E+02 -0.46745347643E+02  0.11545825681E+04  0.11558047326E+04  0.10000000000E+02 0.  1.
</event>
<event>
 5    1  0.1271464E-008  0.3856107E+03  0.7957747E-01  0.3427086E+00
         13   -1    0    0    0    0  0.00000000000E+00  0.00000000000E+00  0.14999999963E+04  0.15000000000E+04  0.10566000000E+00 0. -1.
        994   -1    0    0    0    0 -0.00000000000E+00 -0.00000000000E+00  0.11368683772E-12  0.17120000000E+03  0.17120000000E+03 0.  0.
         13    1    1    2    0    0  0.85209866035E+01  0.11075940867E+02  0.78449779504E+02  0.79684771111E+02  0.10566000000E+00 0. -1.
        994    1    1    2    0    0 -0.59490247081E+01  0.23325795630E+01  0.14612663920E+01  0.17132544213E+03  0.17120000000E+03 0.  0.
        998    1    1    2    0    0 -0.25719618953E+01 -0.13408520430E+02  0.14200889504E+04  0.14201897868E+04  0.10000000000E+02 0. -1.
</event>
<event>
 5    1  0.1271464E-008  0.3834054E+03  0.7957747E-01  0.3436463E+00
         13   -1    0    0    0    0  0.00000000000E+00  0.00000000000E+00  0.14999999963E+04  0.15000000000E+04  0.10566000000E+00 0. -1.
        994   -1    0    0    0    0 -0.00000000000E+00 -0.00000000000E+00  0.11368683772E-12  0.17120000000E+03  0.17120000000E+03 0.  0.
         13    1    1    2    0    0  0.20564023664E+01  0.14088588427E+02  0.42676964600E+02  0.44989460833E+02  0.10566000000E+00 0. -1.
        994    1    1    2    0    0  0.33462535060E+01 -0.15078128887E+01  0.24684123528E+01  0.17125712824E+03  0.17120000000E+03 0.  0.
        998    1    1    2    0    0 -0.54026558725E+01 -0.12580775539E+02  0.14548546193E+04  0.14549534109E+04  0.10000000000E+02 0. -1.
</event>
<event>
 5    1  0.1271464E-008  0.3823178E+03  0.7957747E-01  0.3441128E+00
         13   -1    0    0    0    0  0.00000000000E+00  0.00000000000E+00  0.14999999963E+04  0.15000000000E+04  0.10566000000E+00 0. -1.
        994   -1    0    0    0    0 -0.00000000000E+00 -0.00000000000E+00  0.11368683772E-12  0.17120000000E+03  0.17120000000E+03 0.  0.
         13    1    1    2    0    0 -0.13461943398E+02  0.68194047437E+01  0.39464985446E+02  0.42251916423E+02  0.10566000000E+00 0. -1.
        994    1    1    2    0    0 -0.28615816553E+01  0.34441745826E+01  0.30341966811E+01  0.17128542652E+03  0.17120000000E+03 0.  0.
        998    1    1    2    0    0  0.16323525054E+02 -0.10263579326E+02  0.14575008142E+04  0.14576626571E+04  0.10000000000E+02 0. -1.
</event>
<event>
 5    1  0.1271464E-008  0.3844254E+03  0.7957747E-01  0.3432113E+00
         13   -1    0    0    0    0  0.00000000000E+00  0.00000000000E+00  0.14999999963E+04  0.15000000000E+04  0.10566000000E+00 0. -1.
        994   -1    0    0    0    0 -0.00000000000E+00 -0.00000000000E+00  0.11368683772E-12  0.17120000000E+03  0.17120000000E+03 0.  0.
         13    1    1    2    0    0  0.16172360286E+02 -0.67968557165E+00  0.66797767162E+02  0.68731070641E+02  0.10566000000E+00 0. -1.
        994    1    1    2    0    0 -0.13844841779E+02  0.13120035793E+01  0.25531667335E+01  0.17178288523E+03  0.17120000000E+03 0.  0.
        998    1    1    2    0    0 -0.23275185068E+01 -0.63231800763E+00  0.14306490624E+04  0.14306860441E+04  0.10000000000E+02 0.  0.
</event>
<event>
 5    1  0.1271464E-008  0.3891765E+03  0.7957747E-01  0.3412150E+00
         13   -1    0    0    0    0  0.00000000000E+00  0.00000000000E+00  0.14999999963E+04  0.15000000000E+04  0.10566000000E+00 0. -1.
        994   -1    0    0    0    0 -0.00000000000E+00 -0.00000000000E+00  0.11368683772E-12  0.17120000000E+03  0.17120000000E+03 0.  0.
         13    1    1    2    0    0 -0.38391110401E+02 -0.95035087557E+02  0.20859823701E+03  0.23241940726E+03  0.10566000000E+00 0. -1.
        994    1    1    2    0    0  0.36026118846E+02  0.90590684406E+02  0.58062438950E+02  0.20539045780E+03  0.17120000000E+03 0.  0.
        998    1    1    2    0    0  0.23649915548E+01  0.44444031502E+01  0.12333393203E+04  0.12333901349E+04  0.10000000000E+02 0. -1.
</event>
<event>
 5    1  0.1271464E-008  0.3709520E+03  0.7957747E-01  0.3491527E+00
         13   -1    0    0    0    0  0.00000000000E+00  0.00000000000E+00  0.14999999963E+04  0.15000000000E+04  0.10566000000E+00 0.  1.
        994   -1    0    0    0    0 -0.00000000000E+00 -0.00000000000E+00  0.11368683772E-12  0.17120000000E+03  0.17120000000E+03 0.  0.
         13    1    1    2    0    0  0.87687378569E+02  0.47617038258E+02  0.42712495365E+03  0.43862534798E+03  0.10566000000E+00 0.  1.
        994    1    1    2    0    0 -0.56804212721E+02 -0.19767272951E+02  0.24242195274E+02  0.18306989838E+03  0.17120000000E+03 0.  0.
        998    1    1    2    0    0 -0.30883165848E+02 -0.27849765306E+02  0.10486328474E+04  0.10495047536E+04  0.10000000000E+02 0.  1.
</event>
<event>
 5    1  0.1271464E-008  0.3766127E+03  0.7957747E-01  0.3466042E+00
         13   -1    0    0    0    0  0.00000000000E+00  0.00000000000E+00  0.14999999963E+04  0.15000000000E+04  0.10566000000E+00 0. -1.
        994   -1    0    0    0    0 -0.00000000000E+00 -0.00000000000E+00  0.11368683772E-12  0.17120000000E+03  0.17120000000E+03 0.  0.
         13    1    1    2    0    0 -0.30436565281E+02 -0.12577330701E+02  0.10063756707E+03  0.10588911570E+03  0.10566000000E+00 0. -1.
        994    1    1    2    0    0  0.62626935970E+01 -0.22780058642E+02  0.77421950257E+01  0.17299576292E+03  0.17120000000E+03 0.  0.
        998    1    1    2    0    0  0.24173871684E+02  0.35357389343E+02  0.13916202342E+04  0.13923151214E+04  0.10000000000E+02 0. -1.
</event>
<event>
 5    1  0.1271464E-008  0.3806486E+03  0.7957747E-01  0.3448339E+00
         13   -1    0    0    0    0  0.00000000000E+00  0.00000000000E+00  0.14999999963E+04  0.15000000000E+04  0.10566000000E+00 0.  1.
        994   -1    0    0    0    0 -0.00000000000E+00 -0.00000000000E+00  0.11368683772E-12  0.17120000000E+03  0.17120000000E+03 0.  0.
         13    1    1    2    0    0  0.16614206261E+02  0.12005275743E+02  0.53375854950E+01  0.21181583470E+02  0.10566000000E+00 0.  1.
        994    1    1    2    0    0 -0.11343411590E+02 -0.18224279502E+01  0.17163696221E+02  0.17244137177E+03  0.17120000000E+03 0.  0.
        998    1    1    2    0    0 -0.52707946705E+01 -0.10182847793E+02  0.14774987146E+04  0.14775770448E+04  0.10000000000E+02 0.  1.
</event>
<event>
 5    1  0.1271464E-008  0.3703428E+03  0.7957747E-01  0.3494317E+00
         13   -1    0    0    0    0  0.00000000000E+00  0.00000000000E+00  0.14999999963E+04  0.15000000000E+04  0.10566000000E+00 0.  1.
        994   -1    0    0    0    0 -0.00000000000E+00 -0.00000000000E+00  0.11368683772E-12  0.17120000000E+03  0.17120000000E+03 0.  0.
         13    1    1    2    0    0 -0.12762769199E+01  0.62259831809E+02  0.15857821335E+03  0.17036718126E+03  0.10566000000E+00 0.  1.
        994    1    1    2    0    0 -0.11403322029E+02 -0.55187817720E+02  0.22319952187E+02  0.18161319127E+03  0.17120000000E+03 0.  0.
        998    1    1    2    0    0  0.12679598949E+02 -0.70720140896E+01  0.13191018307E+04  0.13192196275E+04  0.10000000000E+02 0.  1.
</event>
<event>
 5    1  0.1271464E-008  0.3832922E+03  0.7957747E-01  0.3436948E+00
         13   -1    0    0    0    0  0.00000000000E+00  0.00000000000E+00  0.14999999963E+04  0.15000000000E+04  0.10566000000E+00 0.  1.
        994   -1    0    0    0    0 -0.00000000000E+00 -0.00000000000E+00  0.11368683772E-12  0.17120000000E+03  0.17120000000E+03 0.  0.
         13    1    1    2    0    0 -0.75060005689E+01  0.33893390985E+02  0.19503511933E+03  0.19810050715E+03  0.10566000000E+00 0.  1.
        994    1    1    2    0    0  0.35396396940E+02 -0.39310777856E+02  0.11789714501E+02  0.17957360480E+03  0.17120000000E+03 0.  0.
        998    1    1    2    0    0 -0.27890396372E+02  0.54173868712E+01  0.12931751624E+04  0.12935258881E+04  0.10000000000E+02 0.  1.
</event>
<event>
 5    1  0.1271464E-008  0.3762945E+03  0.7957747E-01  0.3467453E+00
         13   -1    0    0    0    0  0.00000000000E+00  0.00000000000E+00  0.14999999963E+04  0.15000000000E+04  0.10566000000E+00 0. -1.
        994   -1    0    0    0    0 -0.00000000000E+00 -0.00000000000E+00  0.11368683772E-12  0.17120000000E+03  0.17120000000E+03 0.  0.
         13    1    1    2    0    0 -0.17275233290E+02  0.54106031773E+01  0.24441534439E+02  0.30415589452E+02  0.10566000000E+00 0. -1.
        994    1    1    2    0    0  0.15768149162E+02 -0.61118716635E+01  0.69839645849E+01  0.17217492635E+03  0.17120000000E+03 0.  0.
        998    1    1    2    0    0  0.15070841282E+01  0.70126848616E+00  0.14685744973E+04  0.14686094842E+04  0.10000000000E+02 0. -1.
</event>
<event>
 5    1  0.1271464E-008  0.3820550E+03  0.7957747E-01  0.3442259E+00
         13   -1    0    0    0    0  0.00000000000E+00  0.00000000000E+00  0.14999999963E+04  0.15000000000E+04  0.10566000000E+00 0. -1.
        994   -1    0    0    0    0 -0.00000000000E+00 -0.00000000000E+00  0.11368683772E-12  0.17120000000E+03  0.17120000000E+03 0.  0.
         13    1    1    2    0    0 -0.78338166424E+01  0.22414181626E+02  0.80820747171E+02  0.84236385003E+02  0.10566000000E+00 0. -1.
        994    1    1    2    0    0 -0.25379065703E+02 -0.47695793462E+02  0.12852743488E+02  0.17998227331E+03  0.17120000000E+03 0.  0.
        998    1    1    2    0    0  0.33212882345E+02  0.25281611837E+02  0.14063265056E+04  0.14069813417E+04  0.10000000000E+02 0. -1.
</event>
<event>
 5    1  0.1271464E-008  0.3842639E+03  0.7957747E-01  0.3432800E+00
         13   -1    0    0    0    0  0.00000000000E+00  0.00000000000E+00  0.14999999963E+04  0.15000000000E+04  0.10566000000E+00 0. -1.
        994   -1    0    0    0    0 -0.00000000000E+00 -0.00000000000E+00  0.11368683772E-12  0.17120000000E+03  0.17120000000E+03 0.  0.
         13    1    1    2    0    0  0.17478780446E+02  0.63143152252E+01  0.91124145663E+02  0.92999996933E+02  0.10566000000E+00 0. -1.
        994    1    1    2    0    0 -0.32314220410E+01 -0.21897803598E+01  0.20462946828E+01  0.17125672118E+03  0.17120000000E+03 0.  0.
        998    1    1    2    0    0 -0.14247358405E+02 -0.41245348655E+01  0.14068295559E+04  0.14069432819E+04  0.10000000000E+02 0. -1.
</event>
<event>
 5    1  0.1271464E-008  0.3824001E+03  0.7957747E-01  0.3440774E+00
         13   -1    0    0    0    0  0.00000000000E+00  0.00000000000E+00  0.14999999963E+04  0.15000000000E+04  0.10566000000E+00 0.  1.
        994   -1    0    0    0    0 -0.00000000000E+00 -0.00000000000E+00  0.11368683772E-12  0.17120000000E+03  0.17120000000E+03 0.  0.
         13    1    1    2    0    0  0.31179179782E+00 -0.13069226584E+02  0.28905520480E+02  0.31724472823E+02  0.10566000000E+00 0.  1.
        994    1    1    2    0    0 -0.47455075185E+01  0.98284800921E+00  0.30043779250E+01  0.17129492730E+03  0.17120000000E+03 0.  0.
        998    1    1    2    0    0  0.44337157207E+01  0.12086378575E+02  0.14680900979E+04  0.14681805999E+04  0.10000000000E+02 0.  1.
</event>
<event>
 5    1  0.1271464E-008  0.3753220E+03  0.7957747E-01  0.3471784E+00
         13   -1    0    0    0    0  0.00000000000E+00  0.00000000000E+00  0.14999999963E+04  0.15000000000E+04  0.10566000000E+00 0. -1.
        994   -1    0    0    0    0 -0.00000000000E+00 -0.00000000000E+00  0.11368683772E-12  0.17120000000E+03  0.17120000000E+03 0.  0.
         13    1    1    2    0    0  0.49077837482E+02  0.87491814947E+01  0.82067100519E+02  0.96021885320E+02  0.10566000000E+00 0. -1.
        994    1    1    2    0    0 -0.43933858593E+02 -0.14411663773E+02  0.21436393056E+02  0.17862485530E+03  0.17120000000E+03 0.  0.
        998    1    1    2    0    0 -0.51439788888E+01  0.56624822782E+01  0.13964965027E+04  0.13965532594E+04  0.10000000000E+02 0. -1.
</event>
<event>
 5    1  0.1271464E-008  0.3770739E+03  0.7957747E-01  0.3463999E+00
         13   -1    0    0    0    0  0.00000000000E+00  0.00000000000E+00  0.14999999963E+04  0.15000000000E+04  0.10566000000E+00 0.  1.
        994   -1    0    0    0    0 -0.00000000000E+00 -0.00000000000E+00  0.11368683772E-12  0.17120000000E+03  0.17120000000E+03 0.  0.
         13    1    1    2    0    0  0.63504950706E+02  0.14426459212E+02  0.22188519239E+03  0.23124457021E+03  0.10566000000E+00 0.  1.
        994    1    1    2    0    0 -0.10970717881E+03 -0.59237653780E+02  0.60031390060E+02  0.22013171625E+03  0.17120000000E+03 0.  0.
        998    1    1    2    0    0  0.46202228105E+02  0.44811194568E+02  0.12180834138E+04  0.12198237135E+04  0.10000000000E+02 0.  1.
</event>
<event>
 5    1  0.1859834E-008  0.3855993E+03  0.7957747E-01  0.3427134E+00
         13   -1    0    0    0    0  0.00000000000E+00  0.00000000000E+00  0.14999999963E+04  0.15000000000E+04  0.10566000000E+00 0. -1.
        994   -1    0    0    0    0 -0.00000000000E+00 -0.00000000000E+00  0.11368683772E-12  0.17120000000E+03  0.17120000000E+03 0.  0.
         13    1    1    2    0    0  0.37446933040E+01 -0.93076488157E+01  0.37010095829E+02  0.38345969955E+02  0.10566000000E+00 0. -1.
        994    1    1    2    0    0 -0.47163534812E+01  0.10282888961E+02  0.17530633293E+01  0.17158232726E+03  0.17120000000E+03 0.  0.
        998    1    1    2    0    0  0.97166017716E+00 -0.97524014537E+00  0.14612368371E+04  0.14612717028E+04  0.10000000000E+02 0. -1.
</event>
<event>
 5    1  0.1271464E-008  0.3756120E+03  0.7957747E-01  0.3470490E+00
         13   -1    0    0    0    0  0.00000000000E+00  0.00000000000E+00  0.14999999963E+04  0.15000000000E+04  0.10566000000E+00 0. -1.
        994   -1    0    0    0    0 -0.00000000000E+00 -0.00000000000E+00  0.11368683772E-12  0.17120000000E+03  0.17120000000E+03 0.  0.
         13    1    1    2    0    0 -0.23928173458E+02  0.25259563858E+02  0.36944676595E+02  0.50749614226E+02  0.10566000000E+00 0. -1.
        994    1    1    2    0    0  0.28913180169E+02 -0.21831560270E+02  0.18632944125E+02  0.17598072513E+03  0.17120000000E+03 0.  0.
        998    1    1    2    0    0 -0.49850067111E+01 -0.34280035879E+01  0.14444223756E+04  0.14444696606E+04  0.10000000000E+02 0. -1.
</event>
<event>
 5    1  0.1271464E-008  0.3731840E+03  0.7957747E-01  0.3481385E+00
         13   -1    0    0    0    0  0.00000000000E+00  0.00000000000E+00  0.14999999963E+04  0.15000000000E+04  0.10566000000E+00 0.  1.
        994   -1    0    0    0    0 -0.00000000000E+00 -0.00000000000E+00  0.11368683772E-12  0.17120000000E+03  0.17120000000E+03 0.  0.
         13    1    1    2    0    0 -0.17269745601E+02 -0.47600617793E+02  0.21416715143E+03  0.22007190380E+03  0.10566000000E+00 0.  1.
        994    1    1    2    0    0 -0.14765440807E+02 -0.77134652748E+01  0.85639643369E+01  0.17222165158E+03  0.17120000000E+03 0.  0.
        998    1    1    2    0    0  0.32035186408E+02  0.55314083068E+02  0.12772688805E+04  0.12789064446E+04  0.10000000000E+02 0. -1.
</event>
<event>
 5    1  0.1271464E-008  0.3735572E+03  0.7957747E-01  0.3479701E+00
         13   -1    0    0    0    0  0.00000000000E+00  0.00000000000E+00  0.14999999963E+04  0.15000000000E+04  0.10566000000E+00 0. -1.
        994   -1    0    0    0    0 -0.00000000000E+00 -0.00000000000E+00  0.11368683772E-12  0.17120000000E+03  0.17120000000E+03 0.  0.
         13    1    1    2    0    0 -0.36517997677E+01  0.46004956871E+02  0.13714657748E+03  0.14470309802E+03  0.10566000000E+00 0. -1.
        994    1    1    2    0    0 -0.89136233988E+01 -0.34336259511E+02  0.11732228027E+02  0.17522989635E+03  0.17120000000E+03 0.  0.
        998    1    1    2    0    0  0.12565423167E+02 -0.11668697360E+02  0.13511211908E+04  0.13512670056E+04  0.10000000000E+02 0. -1.
</event>
<event>
 5    1  0.1271464E-008  0.3851170E+03  0.7957747E-01  0.3429176E+00
         13   -1    0    0    0    0  0.00000000000E+00  0.00000000000E+00  0.14999999963E+04  0.15000000000E+04  0.10566000000E+00 0. -1.
        994   -1    0    0    0    0 -0.00000000000E+00 -0.00000000000E+00  0.11368683772E-12  0.17120000000E+03  0.17120000000E+03 0.  0.
         13    1    1    2    0    0  0.36925817440E+00 -0.15078270376E+02  0.72291212102E+02  0.73847959351E+02  0.10566000000E+00 0. -1.
        994    1    1    2    0    0 -0.69232255398E+00  0.10212596621E+02  0.19165916898E+01  0.17151644167E+03  0.17120000000E+03 0.  0.
        998    1    1    2    0    0  0.32306437958E+00  0.48656737551E+01  0.14257921925E+04  0.14258355990E+04  0.10000000000E+02 0. -1.
</event>
<event>
 5    1  0.1406176E-008  0.3836545E+03  0.7957747E-01  0.3435399E+00
         13   -1    0    0    0    0  0.00000000000E+00  0.00000000000E+00  0.14999999963E+04  0.15000000000E+04  0.10566000000E+00 0. -1.
        994   -1    0    0    0    0 -0.00000000000E+00 -0.00000000000E+00  0.11368683772E-12  0.17120000000E+03  0.17120000000E+03 0.  0.
         13    1    1    2    0    0 -0.10465577929E+02 -0.31126270699E+01  0.24995507279E+02  0.27276424194E+02  0.10566000000E+00 0.  1.
        994    1    1    2    0    0  0.92743260473E+01  0.25414586550E+01  0.26051097819E+01  0.17148964614E+03  0.17120000000E+03 0.  0.
        998    1    1    2    0    0  0.11912518814E+01  0.57116841491E+00  0.14723993792E+04  0.14724339297E+04  0.10000000000E+02 0. -1.
</event>
<event>
 5    1  0.1271464E-008  0.3837177E+03  0.7957747E-01  0.3435129E+00
         13   -1    0    0    0    0  0.00000000000E+00  0.00000000000E+00  0.14999999963E+04  0.15000000000E+04  0.10566000000E+00 0. -1.
        994   -1    0    0    0    0 -0.00000000000E+00 -0.00000000000E+00  0.11368683772E-12  0.17120000000E+03  0.17120000000E+03 0.  0.
         13    1    1    2    0    0  0.20421714778E+02 -0.15118755265E+02  0.14421182352E+03  0.14643320799E+03  0.10566000000E+00 0. -1.
        994    1    1    2    0    0 -0.78882581148E+01  0.11721092509E+02  0.29275846408E+01  0.17180692471E+03  0.17120000000E+03 0.  0.
        998    1    1    2    0    0 -0.12533456663E+02  0.33976627555E+01  0.13528605881E+04  0.13529598673E+04  0.10000000000E+02 0. -1.
</event>
<event>
 5    1  0.1271464E-008  0.3832367E+03  0.7957747E-01  0.3437185E+00
         13   -1    0    0    0    0  0.00000000000E+00  0.00000000000E+00  0.14999999963E+04  0.15000000000E+04  0.10566000000E+00 0. -1.
        994   -1    0    0    0    0 -0.00000000000E+00 -0.00000000000E+00  0.11368683772E-12  0.17120000000E+03  0.17120000000E+03 0.  0.
         13    1    1    2    0    0 -0.23732359642E+02  0.10974719475E+02  0.12323501205E+03  0.12597836608E+03  0.10566000000E+00 0. -1.
        994    1    1    2    0    0  0.26874227041E+02 -0.11998476844E+02  0.53783654378E+01  0.17379457512E+03  0.17120000000E+03 0.  0.
        998    1    1    2    0    0 -0.31418673982E+01  0.10237573693E+01  0.13713866188E+04  0.13714270588E+04  0.10000000000E+02 0. -1.
</event>
<event>
 5    1  0.1271464E-008  0.3823447E+03  0.7957747E-01  0.3441012E+00
         13   -1    0    0    0    0  0.00000000000E+00  0.00000000000E+00  0.14999999963E+04  0.15000000000E+04  0.10566000000E+00 0. -1.
        994   -1    0    0    0    0 -0.00000000000E+00 -0.00000000000E+00  0.11368683772E-12  0.17120000000E+03  0.17120000000E+03 0.  0.
         13    1    1    2    0    0  0.99147735020E+01  0.61490941482E+01  0.22975563654E+02  0.25768232025E+02  0.10566000000E+00 0. -1.
        994    1    1    2    0    0  0.53104668217E+01  0.48646045193E+01  0.31262942378E+01  0.17137992634E+03  0.17120000000E+03 0.  0.
        998    1    1    2    0    0 -0.15225240324E+02 -0.11013698668E+02  0.14738981384E+04  0.14740518416E+04  0.10000000000E+02 0. -1.
</event>
<event>
 5    1  0.1271464E-008  0.3854211E+03  0.7957747E-01  0.3427888E+00
         13   -1    0    0    0    0  0.00000000000E+00  0.00000000000E+00  0.14999999963E+04  0.15000000000E+04  0.10566000000E+00 0.  1.
        994   -1    0    0    0    0 -0.00000000000E+00 -0.00000000000E+00  0.11368683772E-12  0.17120000000E+03  0.17120000000E+03 0.  0.
         13    1    1    2    0    0  0.13782769487E+02  0.49834189798E+01  0.77061219483E+02  0.78442602657E+02  0.10566000000E+00 0.  1.
        994    1    1    2    0    0 -0.76182118146E+01 -0.10997172349E+01  0.16157942396E+01  0.17138056284E+03  0.17120000000E+03 0.  0.
        998    1    1    2    0    0 -0.61645576722E+01 -0.38837017449E+01  0.14213229826E+04  0.14213768345E+04  0.10000000000E+02 0.  1.
</event>
<event>
 5    1  0.1271464E-008  0.3810534E+03  0.7957747E-01  0.3446585E+00
         13   -1    0    0    0    0  0.00000000000E+00  0.00000000000E+00  0.14999999963E+04  0.15000000000E+04  0.10566000000E+00 0.  1.
        994   -1    0    0    0    0 -0.00000000000E+00 -0.00000000000E+00  0.11368683772E-12  0.17120000000E+03  0.17120000000E+03 0.  0.
         13    1    1    2    0    0  0.15125823477E+02  0.32926457036E+02  0.17216592253E+03  0.17593765417E+03  0.10566000000E+00 0.  1.
        994    1    1    2    0    0 -0.99291061999E+01 -0.26377901924E+02  0.62531753008E+01  0.17361717387E+03  0.17120000000E+03 0.  0.
        998    1    1    2    0    0 -0.51967172773E+01 -0.65485551121E+01  0.13215808984E+04  0.13216451720E+04  0.10000000000E+02 0.  1.
</event>
<event>
 5    1  0.1271464E-008  0.3701318E+03  0.7957747E-01  0.3495285E+00
         13   -1    0    0    0    0  0.00000000000E+00  0.00000000000E+00  0.14999999963E+04  0.15000000000E+04  0.10566000000E+00 0. -1.
        994   -1    0    0    0    0 -0.00000000000E+00 -0.00000000000E+00  0.11368683772E-12  0.17120000000E+03  0.17120000000E+03 0.  0.
         13    1    1    2    0    0 -0.48783890168E+02  0.39163801555E+02  0.18238646363E+03  0.19281728287E+03  0.10566000000E+00 0. -1.
        994    1    1    2    0    0  0.54727985221E+02 -0.35972317646E+02  0.24173390575E+02  0.18488632403E+03  0.17120000000E+03 0.  0.
        998    1    1    2    0    0 -0.59440950523E+01 -0.31914839089E+01  0.12934401421E+04  0.12934963931E+04  0.10000000000E+02 0. -1.
</event>
<event>
 5    1  0.1271464E-008  0.3803090E+03  0.7957747E-01  0.3449814E+00
         13   -1    0    0    0    0  0.00000000000E+00  0.00000000000E+00  0.14999999963E+04  0.15000000000E+04  0.10566000000E+00 0.  1.
        994   -1    0    0    0    0 -0.00000000000E+00 -0.00000000000E+00  0.11368683772E-12  0.17120000000E+03  0.17120000000E+03 0.  0.
         13    1    1    2    0    0 -0.61692002793E+02 -0.48905426330E+01  0.37432824722E+03  0.37940936790E+03  0.10566000000E+00 0.  1.
        994    1    1    2    0    0  0.58226908586E+02  0.14966299584E+02  0.16143213219E+02  0.18216587589E+03  0.17120000000E+03 0.  0.
        998    1    1    2    0    0  0.34650942077E+01 -0.10075756951E+02  0.11095285358E+04  0.11096247562E+04  0.10000000000E+02 0.  1.
</event>
<event>
 5    1  0.1271464E-008  0.3812803E+03  0.7957747E-01  0.3445603E+00
         13   -1    0    0    0    0  0.00000000000E+00  0.00000000000E+00  0.14999999963E+04  0.15000000000E+04  0.10566000000E+00 0. -1.
        994   -1    0    0    0    0 -0.00000000000E+00 -0.00000000000E+00  0.11368683772E-12  0.17120000000E+03  0.17120000000E+03 0.  0.
         13    1    1    2    0    0  0.22088150570E+02 -0.56467719708E+01  0.82952409566E+02  0.86028401392E+02  0.10566000000E+00 0. -1.
        994    1    1    2    0    0  0.15277447878E+02  0.22878342207E+02  0.60116642365E+01  0.17350042957E+03  0.17120000000E+03 0.  0.
        998    1    1    2    0    0 -0.37365598447E+02 -0.17231570236E+02  0.14110359225E+04  0.14116711690E+04  0.10000000000E+02 0. -1.
</event>
<event>
 5    1  0.1271464E-008  0.3836811E+03  0.7957747E-01  0.3435285E+00
         13   -1    0    0    0    0  0.00000000000E+00  0.00000000000E+00  0.14999999963E+04  0.15000000000E+04  0.10566000000E+00 0.  1.
        994   -1    0    0    0    0 -0.00000000000E+00 -0.00000000000E+00  0.11368683772E-12  0.17120000000E+03  0.17120000000E+03 0.  0.
         13    1    1    2    0    0  0.36148826167E+00  0.22908019289E+02  0.11328654192E+03  0.11558010108E+03  0.10566000000E+00 0.  1.
        994    1    1    2    0    0 -0.20599035400E+00 -0.15315357333E+02  0.30616013251E+01  0.17191107005E+03  0.17120000000E+03 0.  0.
        998    1    1    2    0    0 -0.15549790767E+00 -0.75926619558E+01  0.13836518530E+04  0.13837088289E+04  0.10000000000E+02 0.  1.
</event>
<event>
 5    1  0.1271464E-008  0.3795791E+03  0.7957747E-01  0.3452993E+00
         13   -1    0    0    0    0  0.00000000000E+00  0.00000000000E+00  0.14999999963E+04  0.15000000000E+04  0.10566000000E+00 0.  1.
        994   -1    0    0    0    0 -0.00000000000E+00 -0.00000000000E+00  0.11368683772E-12  0.17120000000E+03  0.17120000000E+03 0.  0.
         13    1    1    2    0    0  0.31885410102E+02  0.14621895421E+02  0.14012372634E+03  0.14444773813E+03  0.10566000000E+00 0.  1.
        994    1    1    2    0    0 -0.24645101128E+02  0.36601728270E+01  0.64266244836E+01  0.17312284476E+03  0.17120000000E+03 0.  0.
        998    1    1    2    0    0 -0.72403089740E+01 -0.18282068248E+02  0.13534496455E+04  0.13536294171E+04  0.10000000000E+02 0.  1.
</event>
<event>
 5    1  0.1271464E-008  0.3135941E+03  0.7957747E-01  0.3803508E+00
         13   -1    0    0    0    0  0.00000000000E+00  0.00000000000E+00  0.14999999963E+04  0.15000000000E+04  0.10566000000E+00 0. -1.
        994   -1    0    0    0    0 -0.00000000000E+00 -0.00000000000E+00  0.11368683772E-12  0.17120000000E+03  0.17120000000E+03 0.  0.
         13    1    1    2    0    0  0.10359692443E+03  0.18209210567E+03  0.70944161199E+03  0.73972783488E+03  0.10566000000E+00 0. -1.
        994    1    1    2    0    0 -0.17634507164E+03 -0.14456686234E+03  0.23408191889E+03  0.36891861803E+03  0.17120000000E+03 0.  0.
        998    1    1    2    0    0  0.72748147208E+02 -0.37525243328E+02  0.55647646539E+03  0.56255354709E+03  0.10000000000E+02 0. -1.
</event>
<event>
 5    1  0.1271464E-008  0.3810362E+03  0.7957747E-01  0.3446659E+00
         13   -1    0    0    0    0  0.00000000000E+00  0.00000000000E+00  0.14999999963E+04  0.15000000000E+04  0.10566000000E+00 0. -1.
        994   -1    0    0    0    0 -0.00000000000E+00 -0.00000000000E+00  0.11368683772E-12  0.17120000000E+03  0.17120000000E+03 0.  0.
         13    1    1    2    0    0  0.48369950217E+02  0.56000117144E+02  0.43157343963E+03  0.43787133974E+03  0.10566000000E+00 0. -1.
        994    1    1    2    0    0 -0.60008356476E+02 -0.69354961677E+02  0.32159970657E+02  0.19686243235E+03  0.17120000000E+03 0.  0.
        998    1    1    2    0    0  0.11638406259E+02  0.13354844533E+02  0.10362665860E+04  0.10364662279E+04  0.10000000000E+02 0. -1.
</event>
<event>
 5    1  0.1271464E-008  0.3855945E+03  0.7957747E-01  0.3427155E+00
         13   -1    0    0    0    0  0.00000000000E+00  0.00000000000E+00  0.14999999963E+04  0.15000000000E+04  0.10566000000E+00 0. -1.
        994   -1    0    0    0    0 -0.00000000000E+00 -0.00000000000E+00  0.11368683772E-12  0.17120000000E+03  0.17120000000E+03 0.  0.
         13    1    1    2    0    0  0.14002687733E+02  0.92035600902E+01  0.90827115768E+02  0.92359931274E+02  0.10566000000E+00 0. -1.
        994    1    1    2    0    0 -0.23945451258E+02 -0.17787964195E+02  0.42613213468E+01  0.17383151373E+03  0.17120000000E+03 0.  0.
        998    1    1    2    0    0  0.99427635241E+01  0.85844041045E+01  0.14049115592E+04  0.14050085550E+04  0.10000000000E+02 0. -1.
</event>
<event>
 5    1  0.1271464E-008  0.3750168E+03  0.7957747E-01  0.3473148E+00
         13   -1    0    0    0    0  0.00000000000E+00  0.00000000000E+00  0.14999999963E+04  0.15000000000E+04  0.10566000000E+00 0.  1.
        994   -1    0    0    0    0 -0.00000000000E+00 -0.00000000000E+00  0.11368683772E-12  0.17120000000E+03  0.17120000000E+03 0.  0.
         13    1    1    2    0    0  0.20480722556E+02  0.29966158053E+02  0.92058365743E+02  0.98955467217E+02  0.10566000000E+00 0.  1.
        994    1    1    2    0    0 -0.28543097156E+02 -0.21296061837E+02  0.10992978805E+02  0.17520992046E+03  0.17120000000E+03 0.  0.
        998    1    1    2    0    0  0.80623745995E+01 -0.86700962155E+01  0.13969486517E+04  0.13970346123E+04  0.10000000000E+02 0.  1.
</event>
<event>
 5    1  0.1271464E-008  0.4100713E+03  0.7957747E-01  0.3329837E+00
         13   -1    0    0    0    0  0.00000000000E+00  0.00000000000E+00  0.14999999963E+04  0.15000000000E+04  0.10566000000E+00 0.  1.
        994   -1    0    0    0    0 -0.00000000000E+00 -0.00000000000E+00  0.11368683772E-12  0.17120000000E+03  0.17120000000E+03 0.  0.
         13    1    1    2    0    0  0.31484018741E+02 -0.10029409525E+03  0.15539991864E+03  0.18761475117E+03  0.10566000000E+00 0.  1.
        994    1    1    2    0    0  0.10414506436E+02  0.76549303424E+02  0.58753904459E+02  0.19679867654E+03  0.17120000000E+03 0.  0.
        998    1    1    2    0    0 -0.41898525177E+02  0.23744791826E+02  0.12858461732E+04  0.12867865723E+04  0.10000000000E+02 0.  1.
</event>
<event>
 5    1  0.1271464E-008  0.3799313E+03  0.7957747E-01  0.3451458E+00
         13   -1    0    0    0    0  0.00000000000E+00  0.00000000000E+00  0.14999999963E+04  0.15000000000E+04  0.10566000000E+00 0. -1.
        994   -1    0    0    0    0 -0.00000000000E+00 -0.00000000000E+00  0.11368683772E-12  0.17120000000E+03  0.17120000000E+03 0.  0.
         13    1    1    2    0    0 -0.39405583469E+01  0.19083770292E+02  0.44961730804E+02  0.49002925317E+02  0.10566000000E+00 0. -1.
        994    1    1    2    0    0  0.33580424490E+01 -0.61112139539E+01  0.43304353904E+01  0.17139666291E+03  0.17120000000E+03 0.  0.
        998    1    1    2    0    0  0.58251589789E+00 -0.12972556338E+02  0.14507078301E+04  0.14508004118E+04  0.10000000000E+02 0. -1.
</event>
<event>
 5    1  0.1271464E-008  0.3823231E+03  0.7957747E-01  0.3441105E+00
         13   -1    0    0    0    0  0.00000000000E+00  0.00000000000E+00  0.14999999963E+04  0.15000000000E+04  0.10566000000E+00 0. -1.
        994   -1    0    0    0    0 -0.00000000000E+00 -0.00000000000E+00  0.11368683772E-12  0.17120000000E+03  0.17120000000E+03 0.  0.
         13    1    1    2    0    0  0.12317940416E+02  0.92552072822E+01  0.38103949216E+02  0.41101248495E+02  0.10566000000E+00 0. -1.
        994    1    1    2    0    0 -0.10380465221E+02 -0.13671775075E+02  0.39431989761E+01  0.17210363247E+03  0.17120000000E+03 0.  0.
        998    1    1    2    0    0 -0.19374751956E+01  0.44165677932E+01  0.14579528481E+04  0.14579951190E+04  0.10000000000E+02 0. -1.
</event>
<event>
 5    1  0.1271464E-008  0.3839058E+03  0.7957747E-01  0.3434326E+00
         13   -1    0    0    0    0  0.00000000000E+00  0.00000000000E+00  0.14999999963E+04  0.15000000000E+04  0.10566000000E+00 0.  1.
        994   -1    0    0    0    0 -0.00000000000E+00 -0.00000000000E+00  0.11368683772E-12  0.17120000000E+03  0.17120000000E+03 0.  0.
         13    1    1    2    0    0  0.73089430024E+01 -0.70104506100E+01  0.23597619700E+02  0.25679289030E+02  0.10566000000E+00 0.  1.
        994    1    1    2    0    0  0.16631206309E+02  0.15329390934E+02  0.38645998136E+01  0.17273089585E+03  0.17120000000E+03 0.  0.
        998    1    1    2    0    0 -0.23940149311E+02 -0.83189403243E+01  0.14725377768E+04  0.14727898151E+04  0.10000000000E+02 0.  1.
</event>
<event>
 5    1  0.1271464E-008  0.3833342E+03  0.7957747E-01  0.3436768E+00
         13   -1    0    0    0    0  0.00000000000E+00  0.00000000000E+00  0.14999999963E+04  0.15000000000E+04  0.10566000000E+00 0.  1.
        994   -1    0    0    0    0 -0.00000000000E+00 -0.00000000000E+00  0.11368683772E-12  0.17120000000E+03  0.17120000000E+03 0.  0.
         13    1    1    2    0    0  0.82862762328E+01  0.17812462297E+02  0.76781991071E+02  0.79255482484E+02  0.10566000000E+00 0.  1.
        994    1    1    2    0    0 -0.32322558374E+01 -0.14910140204E+02  0.32294397847E+01  0.17190878116E+03  0.17120000000E+03 0.  0.
        998    1    1    2    0    0 -0.50540203955E+01 -0.29023220928E+01  0.14199885654E+04  0.14200357364E+04  0.10000000000E+02 0.  1.
</event>
<event>
 5    1  0.1271464E-008  0.3844010E+03  0.7957747E-01  0.3432217E+00
         13   -1    0    0    0    0  0.00000000000E+00  0.00000000000E+00  0.14999999963E+04  0.15000000000E+04  0.10566000000E+00 0.  1.
        994   -1    0    0    0    0 -0.00000000000E+00 -0.00000000000E+00  0.11368683772E-12  0.17120000000E+03  0.17120000000E+03 0.  0.
         13    1    1    2    0    0 -0.39080893017E+01  0.13730516550E+02  0.51129931511E+02  0.53085603576E+02  0.10566000000E+00 0.  1.
        994    1    1    2    0    0  0.19831886100E+01 -0.14762555545E+02  0.26592155673E+01  0.17186732531E+03  0.17120000000E+03 0.  0.
        998    1    1    2    0    0  0.19249006917E+01  0.10320389954E+01  0.14462108492E+04  0.14462470711E+04  0.10000000000E+02 0.  0.
</event>
<event>
 5    1  0.1271464E-008  0.3761758E+03  0.7957747E-01  0.3467981E+00
         13   -1    0    0    0    0  0.00000000000E+00  0.00000000000E+00  0.14999999963E+04  0.15000000000E+04  0.10566000000E+00 0.  1.
        994   -1    0    0    0    0 -0.00000000000E+00 -0.00000000000E+00  0.11368683772E-12  0.17120000000E+03  0.17120000000E+03 0.  0.
         13    1    1    2    0    0  0.58468633314E+02 -0.37511387798E+02  0.40213655039E+03  0.40809251600E+03  0.10566000000E+00 0.  1.
        994    1    1    2    0    0 -0.52320669185E+02 -0.71768495990E+01  0.15578018776E+02  0.17983624291E+03  0.17120000000E+03 0.  0.
        998    1    1    2    0    0 -0.61479641294E+01  0.44688237397E+02  0.10822854271E+04  0.10832712411E+04  0.10000000000E+02 0.  1.
</event>
<event>
 5    1  0.1271464E-008  0.3785245E+03  0.7957747E-01  0.3457608E+00
         13   -1    0    0    0    0  0.00000000000E+00  0.00000000000E+00  0.14999999963E+04  0.15000000000E+04  0.10566000000E+00 0.  1.
        994   -1    0    0    0    0 -0.00000000000E+00 -0.00000000000E+00  0.11368683772E-12  0.17120000000E+03  0.17120000000E+03 0.  0.
         13    1    1    2    0    0 -0.23435584140E+03 -0.15403353104E+02  0.88015335671E+03  0.91094998007E+03  0.10566000000E+00 0.  1.
        994    1    1    2    0    0  0.25718703080E+03 -0.77409986790E+01  0.27487941762E+03  0.41360999275E+03  0.17120000000E+03 0.  0.
        998    1    1    2    0    0 -0.22831189396E+02  0.23144351783E+02  0.34496722194E+03  0.34664002718E+03  0.10000000000E+02 0.  1.
</event>
<event>
 5    1  0.1271464E-008  0.3857095E+03  0.7957747E-01  0.3426668E+00
         13   -1    0    0    0    0  0.00000000000E+00  0.00000000000E+00  0.14999999963E+04  0.15000000000E+04  0.10566000000E+00 0.  1.
        994   -1    0    0    0    0 -0.00000000000E+00 -0.00000000000E+00  0.11368683772E-12  0.17120000000E+03  0.17120000000E+03 0.  0.
         13    1    1    2    0    0 -0.75376744577E+01  0.88830644291E+01  0.57454440175E+02  0.58623794057E+02  0.10566000000E+00 0.  1.
        994    1    1    2    0    0 -0.81123771127E+01 -0.33918073977E+01  0.15319879604E+01  0.17143249986E+03  0.17120000000E+03 0.  0.
        998    1    1    2    0    0  0.15650051570E+02 -0.54912570314E+01  0.14410135681E+04  0.14411437061E+04  0.10000000000E+02 0.  1.
</event>
<event>
 5    1  0.2329367E-008  0.3858849E+03  0.7957747E-01  0.3425928E+00
         13   -1    0    0    0    0  0.00000000000E+00  0.00000000000E+00  0.14999999963E+04  0.15000000000E+04  0.10566000000E+00 0.  1.
        994   -1    0    0    0    0 -0.00000000000E+00 -0.00000000000E+00  0.11368683772E-12  0.17120000000E+03  0.17120000000E+03 0.  0.
         13    1    1    2    0    0 -0.36480740127E-03  0.10403441554E+02  0.47200210409E+02  0.48333245525E+02  0.10566000000E+00 0.  1.
        994    1    1    2    0    0  0.39321811140E+01 -0.24604439113E+01  0.12620104543E+01  0.17126747649E+03  0.17120000000E+03 0.  0.
        998    1    1    2    0    0 -0.39318163066E+01 -0.79429976431E+01  0.14515377754E+04  0.14515992780E+04  0.10000000000E+02 0.  1.
</event>
<event>
 5    1  0.1271464E-008  0.3813009E+03  0.7957747E-01  0.3445513E+00
         13   -1    0    0    0    0  0.00000000000E+00  0.00000000000E+00  0.14999999963E+04  0.15000000000E+04  0.10566000000E+00 0.  1.
        994   -1    0    0    0    0 -0.00000000000E+00 -0.00000000000E+00  0.11368683772E-12  0.17120000000E+03  0.17120000000E+03 0.  0.
         13    1    1    2    0    0  0.19728520723E+02  0.22175336613E+02  0.11068640352E+03  0.11459690734E+03  0.10566000000E+00 0.  1.
        994    1    1    2    0    0 -0.23359749732E+02 -0.32460597604E+02  0.88199161411E+01  0.17603010886E+03  0.17120000000E+03 0.  0.
        998    1    1    2    0    0  0.36312290087E+01  0.10285260991E+02  0.13804936766E+04  0.13805729838E+04  0.10000000000E+02 0.  1.
</event>
<event>
 5    1  0.1271464E-008  0.3773238E+03  0.7957747E-01  0.3462895E+00
         13   -1    0    0    0    0  0.00000000000E+00  0.00000000000E+00  0.14999999963E+04  0.15000000000E+04  0.10566000000E+00 0. -1.
        994   -1    0    0    0    0 -0.00000000000E+00 -0.00000000000E+00  0.11368683772E-12  0.17120000000E+03  0.17120000000E+03 0.  0.
         13    1    1    2    0    0 -0.11687169132E+02 -0.10468421285E+02  0.20956345334E+02  0.26179330403E+02  0.10566000000E+00 0. -1.
        994    1    1    2    0    0 -0.14635043000E+01 -0.71044705933E+01  0.56676918612E+01  0.17144730409E+03  0.17120000000E+03 0.  0.
        998    1    1    2    0    0  0.13150673432E+02  0.17572891879E+02  0.14733759591E+04  0.14735733655E+04  0.10000000000E+02 0. -1.
</event>
<event>
 5    1  0.1271464E-008  0.3814083E+03  0.7957747E-01  0.3445049E+00
         13   -1    0    0    0    0  0.00000000000E+00  0.00000000000E+00  0.14999999963E+04  0.15000000000E+04  0.10566000000E+00 0. -1.
        994   -1    0    0    0    0 -0.00000000000E+00 -0.00000000000E+00  0.11368683772E-12  0.17120000000E+03  0.17120000000E+03 0.  0.
         13    1    1    2    0    0  0.13469321678E+02  0.23627637218E+02  0.12099149955E+03  0.12401065274E+03  0.10566000000E+00 0. -1.
        994    1    1    2    0    0  0.34253909962E+01  0.18341484002E+01  0.34741808425E+01  0.17127932548E+03  0.17120000000E+03 0.  0.
        998    1    1    2    0    0 -0.16894712674E+02 -0.25461785618E+02  0.13755343159E+04  0.13759100218E+04  0.10000000000E+02 0. -1.
</event>
<event>
 5    1  0.1271464E-008  0.3692386E+03  0.7957747E-01  0.3499397E+00
         13   -1    0    0    0    0  0.00000000000E+00  0.00000000000E+00  0.14999999963E+04  0.15000000000E+04  0.10566000000E+00 0.  1.
        994   -1    0    0    0    0 -0.00000000000E+00 -0.00000000000E+00  0.11368683772E-12  0.17120000000E+03  0.17120000000E+03 0.  0.
         13    1    1    2    0    0 -0.70697039931E+01  0.24920852586E+02  0.29203082287E+02  0.39036659530E+02  0.10566000000E+00 0.  1.
        994    1    1    2    0    0 -0.12900954974E+02  0.32420180287E+01  0.11153949128E+02  0.17207787743E+03  0.17120000000E+03 0.  0.
        998    1    1    2    0    0  0.19970658967E+02 -0.28162870615E+02  0.14596429649E+04  0.14600854630E+04  0.10000000000E+02 0.  1.
</event>
<event>
 5    1  0.1271464E-008  0.3838709E+03  0.7957747E-01  0.3434475E+00
         13   -1    0    0    0    0  0.00000000000E+00  0.00000000000E+00  0.14999999963E+04  0.15000000000E+04  0.10566000000E+00 0.  1.
        994   -1    0    0    0    0 -0.00000000000E+00 -0.00000000000E+00  0.11368683772E-12  0.17120000000E+03  0.17120000000E+03 0.  0.
         13    1    1    2    0    0  0.16973496855E+02  0.10427512554E+02  0.86178445053E+02  0.88450936510E+02  0.10566000000E+00 0.  1.
        994    1    1    2    0    0 -0.15829721901E+02 -0.11716769578E+02  0.34730398348E+01  0.17236404727E+03  0.17120000000E+03 0.  0.
        998    1    1    2    0    0 -0.11437749542E+01  0.12892570241E+01  0.14103485114E+04  0.14103850162E+04  0.10000000000E+02 0.  1.
</event>
<event>
 5    1  0.1271464E-008  0.3736914E+03  0.7957747E-01  0.3479096E+00
         13   -1    0    0    0    0  0.00000000000E+00  0.00000000000E+00  0.14999999963E+04  0.15000000000E+04  0.10566000000E+00 0. -1.
        994   -1    0    0    0    0 -0.00000000000E+00 -0.00000000000E+00  0.11368683772E-12  0.17120000000E+03  0.17120000000E+03 0.  0.
         13    1    1    2    0    0 -0.63732301001E+02  0.74820136837E+02  0.45770796784E+03  0.46814148935E+03  0.10566000000E+00 0. -1.
        994    1    1    2    0    0  0.51582242277E+02 -0.82628829202E+02  0.40474204511E+02  0.20108667873E+03  0.17120000000E+03 0.  0.
        998    1    1    2    0    0  0.12150058724E+02  0.78086923649E+01  0.10018178239E+04  0.10019718319E+04  0.10000000000E+02 0.  0.
</event>
<event>
 5    1  0.1271464E-008  0.3833234E+03  0.7957747E-01  0.3436814E+00
         13   -1    0    0    0    0  0.00000000000E+00  0.00000000000E+00  0.14999999963E+04  0.15000000000E+04  0.10566000000E+00 0. -1.
        994   -1    0    0    0    0 -0.00000000000E+00 -0.00000000000E+00  0.11368683772E-12  0.17120000000E+03  0.17120000000E+03 0.  0.
         13    1    1    2    0    0  0.11965530621E+02 -0.17049053483E+02  0.82459897119E+02  0.85049926188E+02  0.10566000000E+00 0. -1.
        994    1    1    2    0    0 -0.22924170610E+02  0.12232892328E+02  0.47005314727E+01  0.17322441008E+03  0.17120000000E+03 0.  0.
        998    1    1    2    0    0  0.10958639989E+02  0.48161611551E+01  0.14128395677E+04  0.14129256637E+04  0.10000000000E+02 0. -1.
</event>
<event>
 5    1  0.1271464E-008  0.3789797E+03  0.7957747E-01  0.3455613E+00
         13   -1    0    0    0    0  0.00000000000E+00  0.00000000000E+00  0.14999999963E+04  0.15000000000E+04  0.10566000000E+00 0. -1.
        994   -1    0    0    0    0 -0.00000000000E+00 -0.00000000000E+00  0.11368683772E-12  0.17120000000E+03  0.17120000000E+03 0.  0.
         13    1    1    2    0    0  0.45021228811E+01 -0.12307026174E+02  0.16347665049E+02  0.20952071980E+02  0.10566000000E+00 0. -1.
        994    1    1    2    0    0 -0.69558833019E+01  0.10604841351E+02  0.51887563977E+01  0.17174751866E+03  0.17120000000E+03 0.  0.
        998    1    1    2    0    0  0.24537604208E+01  0.17021848238E+01  0.14784635748E+04  0.14785004094E+04  0.10000000000E+02 0. -1.
</event>
<event>
 5    1  0.1271464E-008  0.3840301E+03  0.7957747E-01  0.3433796E+00
         13   -1    0    0    0    0  0.00000000000E+00  0.00000000000E+00  0.14999999963E+04  0.15000000000E+04  0.10566000000E+00 0.  1.
        994   -1    0    0    0    0 -0.00000000000E+00 -0.00000000000E+00  0.11368683772E-12  0.17120000000E+03  0.17120000000E+03 0.  0.
         13    1    1    2    0    0 -0.62227279915E+01  0.11155264897E+02  0.42125825835E+02  0.44019980065E+02  0.10566000000E+00 0.  1.
        994    1    1    2    0    0 -0.34080754173E-01  0.14806735816E+02  0.28360718053E+01  0.17186251450E+03  0.17120000000E+03 0.  0.
        998    1    1    2    0    0  0.62568087456E+01 -0.25962000713E+02  0.14550380986E+04  0.14553175054E+04  0.10000000000E+02 0.  1.
</event>
<event>
 5    1  0.1271464E-008  0.3750758E+03  0.7957747E-01  0.3472884E+00
         13   -1    0    0    0    0  0.00000000000E+00  0.00000000000E+00  0.14999999963E+04  0.15000000000E+04  0.10566000000E+00 0.  1.
        994   -1    0    0    0    0 -0.00000000000E+00 -0.00000000000E+00  0.11368683772E-12  0.17120000000E+03  0.17120000000E+03 0.  0.
         13    1    1    2    0    0  0.16585112049E+02 -0.68561477298E+01  0.21252482776E+02  0.27816396092E+02  0.10566000000E+00 0.  1.
        994    1    1    2    0    0 -0.14837442003E+02  0.57619282916E+01  0.75012209707E+01  0.17210188209E+03  0.17120000000E+03 0.  0.
        998    1    1    2    0    0 -0.17476700465E+01  0.10942194381E+01  0.14712462925E+04  0.14712817218E+04  0.10000000000E+02 0.  1.
</event>
<event>
 5    1  0.1271464E-008  0.3797626E+03  0.7957747E-01  0.3452193E+00
         13   -1    0    0    0    0  0.00000000000E+00  0.00000000000E+00  0.14999999963E+04  0.15000000000E+04  0.10566000000E+00 0. -1.
        994   -1    0    0    0    0 -0.00000000000E+00 -0.00000000000E+00  0.11368683772E-12  0.17120000000E+03  0.17120000000E+03 0.  0.
         13    1    1    2    0    0  0.13203201420E+01  0.30168576542E+02  0.99226067514E+02  0.10371938051E+03  0.10566000000E+00 0. -1.
        994    1    1    2    0    0  0.23709576363E+01 -0.31104421903E+02  0.75154208054E+01  0.17418102093E+03  0.17120000000E+03 0.  0.
        998    1    1    2    0    0 -0.36912777783E+01  0.93584536107E+00  0.13932585080E+04  0.13932995986E+04  0.10000000000E+02 0. -1.
</event>
<event>
 5    1  0.1271464E-008  0.3827949E+03  0.7957747E-01  0.3439078E+00
         13   -1    0    0    0    0  0.00000000000E+00  0.00000000000E+00  0.14999999963E+04  0.15000000000E+04  0.10566000000E+00 0.  1.
        994   -1    0    0    0    0 -0.00000000000E+00 -0.00000000000E+00  0.11368683772E-12  0.17120000000E+03  0.17120000000E+03 0.  0.
         13    1    1    2    0    0  0.14048501287E+01 -0.99596015225E+01  0.17638180946E+02  0.20304774254E+02  0.10566000000E+00 0.  1.
        994    1    1    2    0    0  0.16314529640E+02  0.63162644636E+01  0.37433085488E+01  0.17213224983E+03  0.17120000000E+03 0.  0.
        998    1    1    2    0    0 -0.17719379769E+02  0.36433370590E+01  0.14786185068E+04  0.14787629759E+04  0.10000000000E+02 0.  1.
</event>
<event>
 5    1  0.1271464E-008  0.3855396E+03  0.7957747E-01  0.3427387E+00
         13   -1    0    0    0    0  0.00000000000E+00  0.00000000000E+00  0.14999999963E+04  0.15000000000E+04  0.10566000000E+00 0. -1.
        994   -1    0    0    0    0 -0.00000000000E+00 -0.00000000000E+00  0.11368683772E-12  0.17120000000E+03  0.17120000000E+03 0.  0.
         13    1    1    2    0    0 -0.66691579825E+01  0.97510366932E+01  0.57417693192E+02  0.58620500171E+02  0.10566000000E+00 0. -1.
        994    1    1    2    0    0 -0.25828243454E+02 -0.83404973668E+01  0.37846169585E+01  0.17337942606E+03  0.17120000000E+03 0.  0.
        998    1    1    2    0    0  0.32497401436E+02 -0.14105393264E+01  0.14387976861E+04  0.14392000738E+04  0.10000000000E+02 0. -1.
</event>
<event>
 5    1  0.1271464E-008  0.3686847E+03  0.7957747E-01  0.3501958E+00
         13   -1    0    0    0    0  0.00000000000E+00  0.00000000000E+00  0.14999999963E+04  0.15000000000E+04  0.10566000000E+00 0. -1.
        994   -1    0    0    0    0 -0.00000000000E+00 -0.00000000000E+00  0.11368683772E-12  0.17120000000E+03  0.17120000000E+03 0.  0.
         13    1    1    2    0    0 -0.79065223657E+02 -0.71041463894E+02  0.40921219921E+03  0.42279171506E+03  0.10566000000E+00 0. -1.
        994    1    1    2    0    0  0.77777344401E+02  0.69232099475E+02  0.48624338353E+02  0.20619448387E+03  0.17120000000E+03 0.  0.
        998    1    1    2    0    0  0.12878792563E+01  0.18093644190E+01  0.10421634587E+04  0.10422138011E+04  0.10000000000E+02 0.  0.
</event>
<event>
 5    1  0.1271464E-008  0.3778189E+03  0.7957747E-01  0.3460711E+00
         13   -1    0    0    0    0  0.00000000000E+00  0.00000000000E+00  0.14999999963E+04  0.15000000000E+04  0.10566000000E+00 0. -1.
        994   -1    0    0    0    0 -0.00000000000E+00 -0.00000000000E+00  0.11368683772E-12  0.17120000000E+03  0.17120000000E+03 0.  0.
         13    1    1    2    0    0  0.41960886757E+01  0.18727594755E+02  0.53568676880E+01  0.19925791350E+02  0.10566000000E+00 0. -1.
        994    1    1    2    0    0  0.40310357698E+01 -0.20428238411E+02  0.16694348278E+02  0.17326772186E+03  0.17120000000E+03 0.  0.
        998    1    1    2    0    0 -0.82271244455E+01  0.17006436565E+01  0.14779487803E+04  0.14780064868E+04  0.10000000000E+02 0. -1.
</event>
<event>
 5    1  0.1271464E-008  0.3809956E+03  0.7957747E-01  0.3446835E+00
         13   -1    0    0    0    0  0.00000000000E+00  0.00000000000E+00  0.14999999963E+04  0.15000000000E+04  0.10566000000E+00 0. -1.
        994   -1    0    0    0    0 -0.00000000000E+00 -0.00000000000E+00  0.11368683772E-12  0.17120000000E+03  0.17120000000E+03 0.  0.
         13    1    1    2    0    0  0.22651938284E+01 -0.34367533160E+02  0.20783689466E+03  0.21067141331E+03  0.10566000000E+00 0. -1.
        994    1    1    2    0    0 -0.43698538498E+01 -0.98084932407E+01  0.40157084885E+01  0.17158341434E+03  0.17120000000E+03 0.  0.
        998    1    1    2    0    0  0.21046600214E+01  0.44176026401E+02  0.12881473931E+04  0.12889451724E+04  0.10000000000E+02 0. -1.
</event>
<event>
 5    1  0.1271464E-008  0.3932130E+03  0.7957747E-01  0.3395570E+00
         13   -1    0    0    0    0  0.00000000000E+00  0.00000000000E+00  0.14999999963E+04  0.15000000000E+04  0.10566000000E+00 0.  1.
        994   -1    0    0    0    0 -0.00000000000E+00 -0.00000000000E+00  0.11368683772E-12  0.17120000000E+03  0.17120000000E+03 0.  0.
         13    1    1    2    0    0  0.75143793021E+02  0.76577844000E+02  0.19973500799E+03  0.22672635578E+03  0.10566000000E+00 0.  1.
        994    1    1    2    0    0 -0.38970881257E+02 -0.11537798637E+03  0.82816785965E+02  0.22582929253E+03  0.17120000000E+03 0.  0.
        998    1    1    2    0    0 -0.36172911764E+02  0.38800142371E+02  0.12174482023E+04  0.12186443517E+04  0.10000000000E+02 0.  1.
</event>
<event>
 5    1  0.1271464E-008  0.3788455E+03  0.7957747E-01  0.3456201E+00
         13   -1    0    0    0    0  0.00000000000E+00  0.00000000000E+00  0.14999999963E+04  0.15000000000E+04  0.10566000000E+00 0. -1.
        994   -1    0    0    0    0 -0.00000000000E+00 -0.00000000000E+00  0.11368683772E-12  0.17120000000E+03  0.17120000000E+03 0.  0.
         13    1    1    2    0    0  0.47215175720E+02 -0.48148435997E+02  0.38656938777E+03  0.39240724691E+03  0.10566000000E+00 0. -1.
        994    1    1    2    0    0 -0.43491195650E+02  0.41660777590E+02  0.16986466076E+02  0.18227749318E+03  0.17120000000E+03 0.  0.
        998    1    1    2    0    0 -0.37239800698E+01  0.64876584074E+01  0.10964441424E+04  0.10965152599E+04  0.10000000000E+02 0.  0.
</event>
<event>
 5    1  0.1271464E-008  0.3797849E+03  0.7957747E-01  0.3452095E+00
         13   -1    0    0    0    0  0.00000000000E+00  0.00000000000E+00  0.14999999963E+04  0.15000000000E+04  0.10566000000E+00 0. -1.
        994   -1    0    0    0    0 -0.00000000000E+00 -0.00000000000E+00  0.11368683772E-12  0.17120000000E+03  0.17120000000E+03 0.  0.
         13    1    1    2    0    0 -0.15639150643E+02  0.42364411050E+02  0.51526442127E+02  0.68515047681E+02  0.10566000000E+00 0. -1.
        994    1    1    2    0    0 -0.68952935779E+01 -0.75079461725E+02  0.37091309097E+02  0.19070835288E+03  0.17120000000E+03 0.  0.
        998    1    1    2    0    0  0.22534444220E+02  0.32715050675E+02  0.14113822451E+04  0.14119765994E+04  0.10000000000E+02 0. -1.
</event>
<event>
 5    1  0.1271464E-008  0.3702295E+03  0.7957747E-01  0.3494837E+00
         13   -1    0    0    0    0  0.00000000000E+00  0.00000000000E+00  0.14999999963E+04  0.15000000000E+04  0.10566000000E+00 0. -1.
        994   -1    0    0    0    0 -0.00000000000E+00 -0.00000000000E+00  0.11368683772E-12  0.17120000000E+03  0.17120000000E+03 0.  0.
         13    1    1    2    0    0  0.17296901716E+02  0.78943326340E+02  0.44065484329E+03  0.44800439023E+03  0.10566000000E+00 0. -1.
        994    1    1    2    0    0 -0.39466839185E+02  0.84600213046E+01  0.16782134341E+02  0.17669262404E+03  0.17120000000E+03 0.  0.
        998    1    1    2    0    0  0.22169937470E+02 -0.87403347645E+02  0.10425630186E+04  0.10465029857E+04  0.10000000000E+02 0. -1.
</event>
<event>
 5    1  0.1271464E-008  0.3808333E+03  0.7957747E-01  0.3447538E+00
         13   -1    0    0    0    0  0.00000000000E+00  0.00000000000E+00  0.14999999963E+04  0.15000000000E+04  0.10566000000E+00 0. -1.
        994   -1    0    0    0    0 -0.00000000000E+00 -0.00000000000E+00  0.11368683772E-12  0.17120000000E+03  0.17120000000E+03 0.  0.
         13    1    1    2    0    0  0.76288160572E+01 -0.90443253328E+01  0.17319598172E+02  0.20975659704E+02  0.10566000000E+00 0. -1.
        994    1    1    2    0    0 -0.10985491199E+02  0.11881386934E+01  0.41202339614E+01  0.17160567886E+03  0.17120000000E+03 0.  0.
        998    1    1    2    0    0  0.33566751419E+01  0.78561866394E+01  0.14785601641E+04  0.14786186614E+04  0.10000000000E+02 0. -1.
</event>
<event>
 5    1  0.1271464E-008  0.3782591E+03  0.7957747E-01  0.3458774E+00
         13   -1    0    0    0    0  0.00000000000E+00  0.00000000000E+00  0.14999999963E+04  0.15000000000E+04  0.10566000000E+00 0.  1.
        994   -1    0    0    0    0 -0.00000000000E+00 -0.00000000000E+00  0.11368683772E-12  0.17120000000E+03  0.17120000000E+03 0.  0.
         13    1    1    2    0    0  0.34675421164E+02 -0.33761081111E+02  0.20523143296E+03  0.21086049339E+03  0.10566000000E+00 0.  1.
        994    1    1    2    0    0 -0.32837948030E+02  0.32084204622E+02  0.12134193900E+02  0.17766374329E+03  0.17120000000E+03 0.  0.
        998    1    1    2    0    0 -0.18374731346E+01  0.16768764893E+01  0.12826343694E+04  0.12826757633E+04  0.10000000000E+02 0.  1.
</event>
<event>
 5    1  0.1271464E-008  0.4384964E+03  0.7957747E-01  0.3230296E+00
         13   -1    0    0    0    0  0.00000000000E+00  0.00000000000E+00  0.14999999963E+04  0.15000000000E+04  0.10566000000E+00 0. -1.
        994   -1    0    0    0    0 -0.00000000000E+00 -0.00000000000E+00  0.11368683772E-12  0.17120000000E+03  0.17120000000E+03 0.  0.
         13    1    1    2    0    0  0.92035161388E+02  0.28822189380E+02  0.73745295279E+02  0.12140662779E+03  0.10566000000E+00 0. -1.
        994    1    1    2    0    0 -0.84863960215E+02  0.37628457244E+02  0.94750702912E+02  0.21657545623E+03  0.17120000000E+03 0.  0.
        998    1    1    2    0    0 -0.71712011726E+01 -0.66450646624E+02  0.13315039981E+04  0.13332179160E+04  0.10000000000E+02 0. -1.
</event>
<event>
 5    1  0.1271464E-008  0.3815902E+03  0.7957747E-01  0.3444264E+00
         13   -1    0    0    0    0  0.00000000000E+00  0.00000000000E+00  0.14999999963E+04  0.15000000000E+04  0.10566000000E+00 0. -1.
        994   -1    0    0    0    0 -0.00000000000E+00 -0.00000000000E+00  0.11368683772E-12  0.17120000000E+03  0.17120000000E+03 0.  0.
         13    1    1    2    0    0 -0.52017418661E+01  0.48586785614E+02  0.29311173370E+03  0.29715691722E+03  0.10566000000E+00 0. -1.
        994    1    1    2    0    0  0.52294715541E+01 -0.47665582728E+02  0.11016986068E+02  0.17812964136E+03  0.17120000000E+03 0.  0.
        998    1    1    2    0    0 -0.27729687905E-01 -0.92120288560E+00  0.11958712765E+04  0.11959134414E+04  0.10000000000E+02 0.  0.
</event>
<event>
 5    1  0.1271464E-008  0.3714397E+03  0.7957747E-01  0.3489300E+00
         13   -1    0    0    0    0  0.00000000000E+00  0.00000000000E+00  0.14999999963E+04  0.15000000000E+04  0.10566000000E+00 0. -1.
        994   -1    0    0    0    0 -0.00000000000E+00 -0.00000000000E+00  0.11368683772E-12  0.17120000000E+03  0.17120000000E+03 0.  0.
         13    1    1    2    0    0  0.11790855677E+03  0.69391429849E+02  0.68236154537E+03  0.69594172749E+03  0.10566000000E+00 0. -1.
        994    1    1    2    0    0 -0.13531050669E+03 -0.23502419265E+02  0.76498686747E+02  0.23242802328E+03  0.17120000000E+03 0.  0.
        998    1    1    2    0    0  0.17401949915E+02 -0.45889010584E+02  0.74113976416E+03  0.74283024923E+03  0.10000000000E+02 0. -1.
</event>
<event>
 5    1  0.1271464E-008  0.3792917E+03  0.7957747E-01  0.3454249E+00
         13   -1    0    0    0    0  0.00000000000E+00  0.00000000000E+00  0.14999999963E+04  0.15000000000E+04  0.10566000000E+00 0. -1.
        994   -1    0    0    0    0 -0.00000000000E+00 -0.00000000000E+00  0.11368683772E-12  0.17120000000E+03  0.17120000000E+03 0.  0.
         13    1    1    2    0    0  0.29575542623E+02  0.66296103092E+01  0.96275936170E+02  0.10093429300E+03  0.10566000000E+00 0. -1.
        994    1    1    2    0    0 -0.27593867228E+02 -0.36737612604E+01  0.70920482969E+01  0.17359336157E+03  0.17120000000E+03 0.  0.
        998    1    1    2    0    0 -0.19816753944E+01 -0.29558490489E+01  0.13966320118E+04  0.13966723454E+04  0.10000000000E+02 0. -1.
</event>
<event>
 5    1  0.1271464E-008  0.3801081E+03  0.7957747E-01  0.3450688E+00
         13   -1    0    0    0    0  0.00000000000E+00  0.00000000000E+00  0.14999999963E+04  0.15000000000E+04  0.10566000000E+00 0. -1.
        994   -1    0    0    0    0 -0.00000000000E+00 -0.00000000000E+00  0.11368683772E-12  0.17120000000E+03  0.17120000000E+03 0.  0.
         13    1    1    2    0    0  0.11581336641E+02 -0.29770496579E+02  0.13504139794E+03  0.13876815249E+03  0.10566000000E+00 0. -1.
        994    1    1    2    0    0  0.99298604532E-02  0.49865073998E+01  0.41616783461E+01  0.17132315933E+03  0.17120000000E+03 0.  0.
        998    1    1    2    0    0 -0.11591266502E+02  0.24783989179E+02  0.13607969200E+04  0.13611086882E+04  0.10000000000E+02 0. -1.
</event>
<event>
 5    1  0.1271464E-008  0.3716783E+03  0.7957747E-01  0.3488213E+00
         13   -1    0    0    0    0  0.00000000000E+00  0.00000000000E+00  0.14999999963E+04  0.15000000000E+04  0.10566000000E+00 0. -1.
        994   -1    0    0    0    0 -0.00000000000E+00 -0.00000000000E+00  0.11368683772E-12  0.17120000000E+03  0.17120000000E+03 0.  0.
         13    1    1    2    0    0 -0.48679940340E+02  0.10406266533E+02  0.13889384949E+03  0.14754504249E+03  0.10566000000E+00 0. -1.
        994    1    1    2    0    0  0.38870775941E+02 -0.54282624451E+01  0.13708588562E+02  0.17617539174E+03  0.17120000000E+03 0.  0.
        998    1    1    2    0    0  0.98091643989E+01 -0.49780040879E+01  0.13473975582E+04  0.13474795658E+04  0.10000000000E+02 0. -1.
</event>
<event>
 5    1  0.1271464E-008  0.3819371E+03  0.7957747E-01  0.3442767E+00
         13   -1    0    0    0    0  0.00000000000E+00  0.00000000000E+00  0.14999999963E+04  0.15000000000E+04  0.10566000000E+00 0.  1.
        994   -1    0    0    0    0 -0.00000000000E+00 -0.00000000000E+00  0.11368683772E-12  0.17120000000E+03  0.17120000000E+03 0.  0.
         13    1    1    2    0    0  0.28425081544E+02 -0.69610199909E+01  0.12338734015E+03  0.12681044095E+03  0.10566000000E+00 0.  1.
        994    1    1    2    0    0 -0.29079880870E+02  0.12481736348E+02  0.64920493694E+01  0.17422118103E+03  0.17120000000E+03 0.  0.
        998    1    1    2    0    0  0.65479932606E+00 -0.55207163573E+01  0.13701206068E+04  0.13701683780E+04  0.10000000000E+02 0.  1.
</event>
<event>
 5    1  0.1271464E-008  0.3764333E+03  0.7957747E-01  0.3466837E+00
         13   -1    0    0    0    0  0.00000000000E+00  0.00000000000E+00  0.14999999963E+04  0.15000000000E+04  0.10566000000E+00 0.  1.
        994   -1    0    0    0    0 -0.00000000000E+00 -0.00000000000E+00  0.11368683772E-12  0.17120000000E+03  0.17120000000E+03 0.  0.
         13    1    1    2    0    0 -0.21101761605E+02  0.46090811013E+02  0.20644254247E+03  0.21257512016E+03  0.10566000000E+00 0.  1.
        994    1    1    2    0    0  0.32396108538E+02 -0.24144382168E+02  0.11486888170E+02  0.17627775707E+03  0.17120000000E+03 0.  0.
        998    1    1    2    0    0 -0.11294346933E+02 -0.21946428845E+02  0.12820705656E+04  0.12823471228E+04  0.10000000000E+02 0.  1.
</event>
<event>
 5    1  0.1271464E-008  0.3838167E+03  0.7957747E-01  0.3434706E+00
         13   -1    0    0    0    0  0.00000000000E+00  0.00000000000E+00  0.14999999963E+04  0.15000000000E+04  0.10566000000E+00 0. -1.
        994   -1    0    0    0    0 -0.00000000000E+00 -0.00000000000E+00  0.11368683772E-12  0.17120000000E+03  0.17120000000E+03 0.  0.
         13    1    1    2    0    0  0.12133843429E+02 -0.12955277612E+02  0.69045384451E+02  0.71290571974E+02  0.10566000000E+00 0. -1.
        994    1    1    2    0    0 -0.77690020255E+01  0.13556186084E+02  0.30251218161E+01  0.17193812531E+03  0.17120000000E+03 0.  0.
        998    1    1    2    0    0 -0.43648414030E+01 -0.60090847197E+00  0.14279294900E+04  0.14279713027E+04  0.10000000000E+02 0. -1.
</event>
<event>
 5    1  0.1271464E-008  0.3858323E+03  0.7957747E-01  0.3426150E+00
         13   -1    0    0    0    0  0.00000000000E+00  0.00000000000E+00  0.14999999963E+04  0.15000000000E+04  0.10566000000E+00 0. -1.
        994   -1    0    0    0    0 -0.00000000000E+00 -0.00000000000E+00  0.11368683772E-12  0.17120000000E+03  0.17120000000E+03 0.  0.
         13    1    1    2    0    0 -0.90525249177E+01 -0.62181854228E+01  0.52238177436E+02  0.53380262112E+02  0.10566000000E+00 0. -1.
        994    1    1    2    0    0 -0.23719151926E+01  0.47279193019E+01  0.13092293617E+01  0.17128669909E+03  0.17120000000E+03 0.  0.
        998    1    1    2    0    0  0.11424440110E+02  0.14902661209E+01  0.14464525895E+04  0.14465330388E+04  0.10000000000E+02 0. -1.
</event>
<event>
 5    1  0.1271464E-008  0.3858796E+03  0.7957747E-01  0.3425950E+00
         13   -1    0    0    0    0  0.00000000000E+00  0.00000000000E+00  0.14999999963E+04  0.15000000000E+04  0.10566000000E+00 0. -1.
        994   -1    0    0    0    0 -0.00000000000E+00 -0.00000000000E+00  0.11368683772E-12  0.17120000000E+03  0.17120000000E+03 0.  0.
         13    1    1    2    0    0  0.41119052537E+00 -0.14999045865E+02  0.86997620285E+02  0.88282147424E+02  0.10566000000E+00 0. -1.
        994    1    1    2    0    0 -0.12292437788E+02  0.20368542540E+02  0.30522946229E+01  0.17287202797E+03  0.17120000000E+03 0.  0.
        998    1    1    2    0    0  0.11881247263E+02 -0.53694966751E+01  0.14099500814E+04  0.14100458246E+04  0.10000000000E+02 0. -1.
</event>
<event>
 5    1  0.1271464E-008  0.3803247E+03  0.7957747E-01  0.3449746E+00
         13   -1    0    0    0    0  0.00000000000E+00  0.00000000000E+00  0.14999999963E+04  0.15000000000E+04  0.10566000000E+00 0. -1.
        994   -1    0    0    0    0 -0.00000000000E+00 -0.00000000000E+00  0.11368683772E-12  0.17120000000E+03  0.17120000000E+03 0.  0.
         13    1    1    2    0    0 -0.27207767067E+02  0.16040170213E+02  0.13641688547E+03  0.14002545288E+03  0.10566000000E+00 0. -1.
        994    1    1    2    0    0  0.62909917654E+00 -0.65572424050E+01  0.41142724133E+01  0.17137607894E+03  0.17120000000E+03 0.  0.
        998    1    1    2    0    0  0.26578667890E+02 -0.94829278076E+01  0.13594688384E+04  0.13597984682E+04  0.10000000000E+02 0. -1.
</event>
<event>
 5    1  0.1271464E-008  0.3838156E+03  0.7957747E-01  0.3434711E+00
         13   -1    0    0    0    0  0.00000000000E+00  0.00000000000E+00  0.14999999963E+04  0.15000000000E+04  0.10566000000E+00 0.  1.
        994   -1    0    0    0    0 -0.00000000000E+00 -0.00000000000E+00  0.11368683772E-12  0.17120000000E+03  0.17120000000E+03 0.  0.
         13    1    1    2    0    0 -0.37882521608E+01  0.93684964680E+01  0.22429806516E+02  0.24601361037E+02  0.10566000000E+00 0.  1.
        994    1    1    2    0    0  0.91416174012E+01 -0.18481528129E+01  0.25065079998E+01  0.17147217681E+03  0.17120000000E+03 0.  0.
        998    1    1    2    0    0 -0.53533652405E+01 -0.75203436550E+01  0.14750636818E+04  0.14751264622E+04  0.10000000000E+02 0.  1.
</event>
<event>
 5    1  0.1271464E-008  0.3786086E+03  0.7957747E-01  0.3457239E+00
         13   -1    0    0    0    0  0.00000000000E+00  0.00000000000E+00  0.14999999963E+04  0.15000000000E+04  0.10566000000E+00 0.  1.
        994   -1    0    0    0    0 -0.00000000000E+00 -0.00000000000E+00  0.11368683772E-12  0.17120000000E+03  0.17120000000E+03 0.  0.
         13    1    1    2    0    0 -0.69124422751E+01  0.25020854389E+02  0.65513072754E+02  0.70468424690E+02  0.10566000000E+00 0.  1.
        994    1    1    2    0    0  0.34914671493E+01 -0.25354881218E+02  0.70401907264E+01  0.17324567709E+03  0.17120000000E+03 0.  0.
        998    1    1    2    0    0  0.34209751259E+01  0.33402682884E+00  0.14274467328E+04  0.14274858982E+04  0.10000000000E+02 0.  1.
</event>
<event>
 5    1  0.1271464E-008  0.3845252E+03  0.7957747E-01  0.3431688E+00
         13   -1    0    0    0    0  0.00000000000E+00  0.00000000000E+00  0.14999999963E+04  0.15000000000E+04  0.10566000000E+00 0. -1.
        994   -1    0    0    0    0 -0.00000000000E+00 -0.00000000000E+00  0.11368683772E-12  0.17120000000E+03  0.17120000000E+03 0.  0.
         13    1    1    2    0    0  0.81485436026E+01  0.15268429125E+02  0.82613894045E+02  0.84407288454E+02  0.10566000000E+00 0. -1.
        994    1    1    2    0    0 -0.43759072189E+01 -0.50219213515E+01  0.20121791098E+01  0.17134134680E+03  0.17120000000E+03 0.  0.
        998    1    1    2    0    0 -0.37726363837E+01 -0.10246507773E+02  0.14153739231E+04  0.14154513647E+04  0.10000000000E+02 0. -1.
</event>
<event>
 5    1  0.1271464E-008  0.3689522E+03  0.7957747E-01  0.3500720E+00
         13   -1    0    0    0    0  0.00000000000E+00  0.00000000000E+00  0.14999999963E+04  0.15000000000E+04  0.10566000000E+00 0. -1.
        994   -1    0    0    0    0 -0.00000000000E+00 -0.00000000000E+00  0.11368683772E-12  0.17120000000E+03  0.17120000000E+03 0.  0.
         13    1    1    2    0    0  0.15631298741E+03  0.64345545903E+02  0.70585697128E+03  0.72581552366E+03  0.10566000000E+00 0. -1.
        994    1    1    2    0    0 -0.14734423626E+03 -0.79572810786E+02  0.11451462797E+03  0.26545281349E+03  0.17120000000E+03 0.  0.
        998    1    1    2    0    0 -0.89687511508E+01  0.15227264883E+02  0.67962839703E+03  0.67993166285E+03  0.10000000000E+02 0. -1.
</event>
<event>
 5    1  0.1271464E-008  0.2759068E+03  0.7957747E-01  0.4084607E+00
         13   -1    0    0    0    0  0.00000000000E+00  0.00000000000E+00  0.14999999963E+04  0.15000000000E+04  0.10566000000E+00 0.  1.
        994   -1    0    0    0    0 -0.00000000000E+00 -0.00000000000E+00  0.11368683772E-12  0.17120000000E+03  0.17120000000E+03 0.  0.
         13    1    1    2    0    0  0.10571711657E+03 -0.18456183783E+03  0.37472702743E+03  0.43088227739E+03  0.10566000000E+00 0.  1.
        994    1    1    2    0    0 -0.80112503685E+02  0.18716505923E+03  0.25139053605E+03  0.36599919980E+03  0.17120000000E+03 0.  0.
        998    1    1    2    0    0 -0.25604612889E+02 -0.26032214035E+01  0.87388243280E+03  0.87431852280E+03  0.10000000000E+02 0.  1.
</event>
<event>
 5    1  0.1271464E-008  0.3780266E+03  0.7957747E-01  0.3459796E+00
         13   -1    0    0    0    0  0.00000000000E+00  0.00000000000E+00  0.14999999963E+04  0.15000000000E+04  0.10566000000E+00 0. -1.
        994   -1    0    0    0    0 -0.00000000000E+00 -0.00000000000E+00  0.11368683772E-12  0.17120000000E+03  0.17120000000E+03 0.  0.
         13    1    1    2    0    0  0.91542092127E+01 -0.53679761634E+01  0.85870064628E+01  0.13651467263E+02  0.10566000000E+00 0. -1.
        994    1    1    2    0    0 -0.10395701313E+02  0.42106858228E+01  0.55560309410E+01  0.17165695430E+03  0.17120000000E+03 0.  0.
        998    1    1    2    0    0  0.12414921004E+01  0.11572903406E+01  0.14858569589E+04  0.14858915784E+04  0.10000000000E+02 0. -1.
</event>
<event>
 5    1  0.1271464E-008  0.3727487E+03  0.7957747E-01  0.3483353E+00
         13   -1    0    0    0    0  0.00000000000E+00  0.00000000000E+00  0.14999999963E+04  0.15000000000E+04  0.10566000000E+00 0.  1.
        994   -1    0    0    0    0 -0.00000000000E+00 -0.00000000000E+00  0.11368683772E-12  0.17120000000E+03  0.17120000000E+03 0.  0.
         13    1    1    2    0    0 -0.32588645933E+02  0.28906061310E+02  0.12200016066E+03  0.12954393304E+03  0.10566000000E+00 0.  1.
        994    1    1    2    0    0  0.14576136703E+02 -0.12867528198E+02  0.91352896512E+01  0.17254254710E+03  0.17120000000E+03 0.  0.
        998    1    1    2    0    0  0.18012509230E+02 -0.16038533112E+02  0.13688645460E+04  0.13691135199E+04  0.10000000000E+02 0.  1.
</event>
<event>
 5    1  0.1271464E-008  0.3842368E+03  0.7957747E-01  0.3432915E+00
         13   -1    0    0    0    0  0.00000000000E+00  0.00000000000E+00  0.14999999963E+04  0.15000000000E+04  0.10566000000E+00 0. -1.
        994   -1    0    0    0    0 -0.00000000000E+00 -0.00000000000E+00  0.11368683772E-12  0.17120000000E+03  0.17120000000E+03 0.  0.
         13    1    1    2    0    0  0.14147285244E+02  0.11320832096E+01  0.49164959026E+02  0.51172567380E+02  0.10566000000E+00 0. -1.
        994    1    1    2    0    0 -0.12061579195E+02  0.34566765076E+01  0.25286912360E+01  0.17167779293E+03  0.17120000000E+03 0.  0.
        998    1    1    2    0    0 -0.20857060484E+01 -0.45887597172E+01  0.14483063460E+04  0.14483496397E+04  0.10000000000E+02 0. -1.
</event>
<event>
 5    1  0.1271464E-008  0.3802477E+03  0.7957747E-01  0.3450081E+00
         13   -1    0    0    0    0  0.00000000000E+00  0.00000000000E+00  0.14999999963E+04  0.15000000000E+04  0.10566000000E+00 0. -1.
        994   -1    0    0    0    0 -0.00000000000E+00 -0.00000000000E+00  0.11368683772E-12  0.17120000000E+03  0.17120000000E+03 0.  0.
         13    1    1    2    0    0 -0.40168056956E+02  0.26582162725E+02  0.26574226127E+03  0.27007229544E+03  0.10566000000E+00 0. -1.
        994    1    1    2    0    0  0.36550508843E+02 -0.11686349063E+02  0.89423076797E+01  0.17567559682E+03  0.17120000000E+03 0.  0.
        998    1    1    2    0    0  0.36175481126E+01 -0.14895813662E+02  0.12253154273E+04  0.12254521077E+04  0.10000000000E+02 0. -1.
</event>
<event>
 5    1  0.1271464E-008  0.4076101E+03  0.7957747E-01  0.3339097E+00
         13   -1    0    0    0    0  0.00000000000E+00  0.00000000000E+00  0.14999999963E+04  0.15000000000E+04  0.10566000000E+00 0. -1.
        994   -1    0    0    0    0 -0.00000000000E+00 -0.00000000000E+00  0.11368683772E-12  0.17120000000E+03  0.17120000000E+03 0.  0.
         13    1    1    2    0    0  0.51688072555E+02 -0.63399758437E+02  0.92230843410E+02  0.12327905684E+03  0.10566000000E+00 0. -1.
        994    1    1    2    0    0 -0.39983199377E+02  0.52174580780E+02  0.50083563723E+02  0.19010167403E+03  0.17120000000E+03 0.  0.
        998    1    1    2    0    0 -0.11704873178E+02  0.11225177656E+02  0.13576855891E+04  0.13578192691E+04  0.10000000000E+02 0.  1.
</event>
<event>
 5    1  0.1271464E-008  0.3689699E+03  0.7957747E-01  0.3500639E+00
         13   -1    0    0    0    0  0.00000000000E+00  0.00000000000E+00  0.14999999963E+04  0.15000000000E+04  0.10566000000E+00 0. -1.
        994   -1    0    0    0    0 -0.00000000000E+00 -0.00000000000E+00  0.11368683772E-12  0.17120000000E+03  0.17120000000E+03 0.  0.
         13    1    1    2    0    0 -0.88194794938E+02  0.11500854452E+02  0.32392717347E+03  0.33591578763E+03  0.10566000000E+00 0. -1.
        994    1    1    2    0    0  0.84560720706E+02  0.16861731078E+01  0.35058409276E+02  0.19414399483E+03  0.17120000000E+03 0.  0.
        998    1    1    2    0    0  0.36340742325E+01 -0.13187027560E+02  0.11410144135E+04  0.11411402175E+04  0.10000000000E+02 0. -1.
</event>
<event>
 5    1  0.1271464E-008  0.3742094E+03  0.7957747E-01  0.3476766E+00
         13   -1    0    0    0    0  0.00000000000E+00  0.00000000000E+00  0.14999999963E+04  0.15000000000E+04  0.10566000000E+00 0.  1.
        994   -1    0    0    0    0 -0.00000000000E+00 -0.00000000000E+00  0.11368683772E-12  0.17120000000E+03  0.17120000000E+03 0.  0.
         13    1    1    2    0    0  0.15074138384E+03  0.10443225141E+03  0.81225300326E+03  0.83269683103E+03  0.10566000000E+00 0.  1.
        994    1    1    2    0    0 -0.17152222834E+03 -0.87509098884E+02  0.14628831771E+03  0.29628943468E+03  0.17120000000E+03 0.  0.
        998    1    1    2    0    0  0.20780844506E+02 -0.16923152527E+02  0.54145867531E+03  0.54221373430E+03  0.10000000000E+02 0. -1.
</event>
<event>
 5    1  0.1271464E-008  0.3718218E+03  0.7957747E-01  0.3487560E+00
         13   -1    0    0    0    0  0.00000000000E+00  0.00000000000E+00  0.14999999963E+04  0.15000000000E+04  0.10566000000E+00 0.  1.
        994   -1    0    0    0    0 -0.00000000000E+00 -0.00000000000E+00  0.11368683772E-12  0.17120000000E+03  0.17120000000E+03 0.  0.
         13    1    1    2    0    0  0.67259113077E+01  0.21654807636E+02  0.28638408085E+02  0.36528593709E+02  0.10566000000E+00 0.  1.
        994    1    1    2    0    0  0.14255123194E+02 -0.30819686262E+01  0.90511403624E+01  0.17205833374E+03  0.17120000000E+03 0.  0.
        998    1    1    2    0    0 -0.20981034502E+02 -0.18572839010E+02  0.14623104478E+04  0.14626130725E+04  0.10000000000E+02 0.  1.
</event>
<event>
 5    1  0.1271464E-008  0.2775340E+03  0.7957747E-01  0.4070725E+00
         13   -1    0    0    0    0  0.00000000000E+00  0.00000000000E+00  0.14999999963E+04  0.15000000000E+04  0.10566000000E+00 0. -1.
        994   -1    0    0    0    0 -0.00000000000E+00 -0.00000000000E+00  0.11368683772E-12  0.17120000000E+03  0.17120000000E+03 0.  0.
         13    1    1    2    0    0  0.45035692633E+02 -0.21326644779E+03  0.40331502758E+03  0.45844717689E+03  0.10566000000E+00 0. -1.
        994    1    1    2    0    0  0.59501881890E+00  0.19884456236E+03  0.24287189724E+03  0.35754120392E+03  0.17120000000E+03 0.  0.
        998    1    1    2    0    0 -0.45630711451E+02  0.14421885432E+02  0.85381307146E+03  0.85521161919E+03  0.10000000000E+02 0. -1.
</event>
<event>
 5    1  0.1271464E-008  0.3725031E+03  0.7957747E-01  0.3484466E+00
         13   -1    0    0    0    0  0.00000000000E+00  0.00000000000E+00  0.14999999963E+04  0.15000000000E+04  0.10566000000E+00 0.  1.
        994   -1    0    0    0    0 -0.00000000000E+00 -0.00000000000E+00  0.11368683772E-12  0.17120000000E+03  0.17120000000E+03 0.  0.
         13    1    1    2    0    0  0.40230851835E+02  0.92203516398E+01  0.80486747668E+02  0.90452551307E+02  0.10566000000E+00 0.  1.
        994    1    1    2    0    0  0.37227519609E+02  0.24947769617E+02  0.19385324060E+02  0.17802671208E+03  0.17120000000E+03 0.  0.
        998    1    1    2    0    0 -0.77458371444E+02 -0.34168121257E+02  0.14001279246E+04  0.14027207366E+04  0.10000000000E+02 0.  1.
</event>
<event>
 5    1  0.1271464E-008  0.3749102E+03  0.7957747E-01  0.3473625E+00
         13   -1    0    0    0    0  0.00000000000E+00  0.00000000000E+00  0.14999999963E+04  0.15000000000E+04  0.10566000000E+00 0.  1.
        994   -1    0    0    0    0 -0.00000000000E+00 -0.00000000000E+00  0.11368683772E-12  0.17120000000E+03  0.17120000000E+03 0.  0.
         13    1    1    2    0    0 -0.74338892228E+02 -0.10330665925E+02  0.43439755066E+03  0.44083357034E+03  0.10566000000E+00 0.  1.
        994    1    1    2    0    0  0.38710332049E+02  0.20580495650E+01  0.11851624439E+02  0.17593358513E+03  0.17120000000E+03 0.  0.
        998    1    1    2    0    0  0.35628560179E+02  0.82726163598E+01  0.10537508212E+04  0.10544328445E+04  0.10000000000E+02 0.  1.
</event>
<event>
 5    1  0.1271464E-008  0.3695147E+03  0.7957747E-01  0.3498124E+00
         13   -1    0    0    0    0  0.00000000000E+00  0.00000000000E+00  0.14999999963E+04  0.15000000000E+04  0.10566000000E+00 0.  1.
        994   -1    0    0    0    0 -0.00000000000E+00 -0.00000000000E+00  0.11368683772E-12  0.17120000000E+03  0.17120000000E+03 0.  0.
         13    1    1    2    0    0 -0.67444186109E+00 -0.25383184855E+02  0.29766276226E+02  0.39125481589E+02  0.10566000000E+00 0.  1.
        994    1    1    2    0    0 -0.12374862703E+01  0.20208370637E+02  0.10943925268E+02  0.17274003333E+03  0.17120000000E+03 0.  0.
        998    1    1    2    0    0  0.19119281314E+01  0.51748142175E+01  0.14592897948E+04  0.14593344851E+04  0.10000000000E+02 0.  1.
</event>
<event>
 5    1  0.1271464E-008  0.3771131E+03  0.7957747E-01  0.3463826E+00
         13   -1    0    0    0    0  0.00000000000E+00  0.00000000000E+00  0.14999999963E+04  0.15000000000E+04  0.10566000000E+00 0. -1.
        994   -1    0    0    0    0 -0.00000000000E+00 -0.00000000000E+00  0.11368683772E-12  0.17120000000E+03  0.17120000000E+03 0.  0.
         13    1    1    2    0    0 -0.30462946877E+02  0.52955823624E+01  0.80727618371E+02  0.86446479725E+02  0.10566000000E+00 0. -1.
        994    1    1    2    0    0  0.27231102404E+02 -0.13371205940E+01  0.81104825399E+01  0.17354694108E+03  0.17120000000E+03 0.  0.
        998    1    1    2    0    0  0.32318444729E+01 -0.39584617685E+01  0.14111618954E+04  0.14112065792E+04  0.10000000000E+02 0. -1.
</event>
<event>
 5    1  0.1271464E-008  0.3841180E+03  0.7957747E-01  0.3433422E+00
         13   -1    0    0    0    0  0.00000000000E+00  0.00000000000E+00  0.14999999963E+04  0.15000000000E+04  0.10566000000E+00 0. -1.
        994   -1    0    0    0    0 -0.00000000000E+00 -0.00000000000E+00  0.11368683772E-12  0.17120000000E+03  0.17120000000E+03 0.  0.
         13    1    1    2    0    0  0.15694900874E+02  0.36950823952E+01  0.69245530558E+02  0.71098088678E+02  0.10566000000E+00 0. -1.
        994    1    1    2    0    0  0.51082179789E+01  0.78990436397E+01  0.23605731298E+01  0.17147449107E+03  0.17120000000E+03 0.  0.
        998    1    1    2    0    0 -0.20803118853E+02 -0.11594126035E+02  0.14283938926E+04  0.14286274203E+04  0.10000000000E+02 0. -1.
</event>
<event>
 5    1  0.1271464E-008  0.3817515E+03  0.7957747E-01  0.3443567E+00
         13   -1    0    0    0    0  0.00000000000E+00  0.00000000000E+00  0.14999999963E+04  0.15000000000E+04  0.10566000000E+00 0. -1.
        994   -1    0    0    0    0 -0.00000000000E+00 -0.00000000000E+00  0.11368683772E-12  0.17120000000E+03  0.17120000000E+03 0.  0.
         13    1    1    2    0    0 -0.27495037908E+02  0.15122237162E+02  0.13008168822E+03  0.13381298869E+03  0.10566000000E+00 0. -1.
        994    1    1    2    0    0  0.53918257998E+02  0.94239329302E+01  0.13274041175E+02  0.18022660521E+03  0.17120000000E+03 0.  0.
        998    1    1    2    0    0 -0.26423220090E+02 -0.24546170092E+02  0.13566442669E+04  0.13571604061E+04  0.10000000000E+02 0. -1.
</event>
<event>
 5    1  0.1271464E-008  0.3701159E+03  0.7957747E-01  0.3495358E+00
         13   -1    0    0    0    0  0.00000000000E+00  0.00000000000E+00  0.14999999963E+04  0.15000000000E+04  0.10566000000E+00 0.  1.
        994   -1    0    0    0    0 -0.00000000000E+00 -0.00000000000E+00  0.11368683772E-12  0.17120000000E+03  0.17120000000E+03 0.  0.
         13    1    1    2    0    0  0.80490604554E+02  0.91131030965E+01  0.38254702579E+03  0.39102944157E+03  0.10566000000E+00 0.  1.
        994    1    1    2    0    0 -0.10546209251E+02 -0.12524404697E+02  0.11938261083E+02  0.17239502696E+03  0.17120000000E+03 0.  0.
        998    1    1    2    0    0 -0.69944395303E+02  0.34113016008E+01  0.11055147094E+04  0.11077755315E+04  0.10000000000E+02 0.  1.
</event>
<event>
 5    1  0.1271464E-008  0.3760745E+03  0.7957747E-01  0.3468431E+00
         13   -1    0    0    0    0  0.00000000000E+00  0.00000000000E+00  0.14999999963E+04  0.15000000000E+04  0.10566000000E+00 0. -1.
        994   -1    0    0    0    0 -0.00000000000E+00 -0.00000000000E+00  0.11368683772E-12  0.17120000000E+03  0.17120000000E+03 0.  0.
         13    1    1    2    0    0  0.75564410629E+01 -0.16173193311E+02  0.22660569837E+02  0.28847609481E+02  0.10566000000E+00 0. -1.
        994    1    1    2    0    0 -0.98886883114E+01  0.23235658243E+02  0.82907527672E+01  0.17325085440E+03  0.17120000000E+03 0.  0.
        998    1    1    2    0    0  0.23322472485E+01 -0.70624649323E+01  0.14690486737E+04  0.14691015361E+04  0.10000000000E+02 0. -1.
</event>
<event>
 5    1  0.1271464E-008  0.3702802E+03  0.7957747E-01  0.3494604E+00
         13   -1    0    0    0    0  0.00000000000E+00  0.00000000000E+00  0.14999999963E+04  0.15000000000E+04  0.10566000000E+00 0.  1.
        994   -1    0    0    0    0 -0.00000000000E+00 -0.00000000000E+00  0.11368683772E-12  0.17120000000E+03  0.17120000000E+03 0.  0.
         13    1    1    2    0    0  0.48890328525E+01  0.11283255914E+02  0.39224703813E+01  0.12907805552E+02  0.10566000000E+00 0.  1.
        994    1    1    2    0    0 -0.14457522020E+01 -0.23147819629E+02  0.10982998772E+02  0.17311261657E+03  0.17120000000E+03 0.  0.
        998    1    1    2    0    0 -0.34432806504E+01  0.11864563716E+02  0.14850945271E+04  0.14851795779E+04  0.10000000000E+02 0.  1.
</event>
<event>
 5    1  0.1271464E-008  0.3831991E+03  0.7957747E-01  0.3437346E+00
         13   -1    0    0    0    0  0.00000000000E+00  0.00000000000E+00  0.14999999963E+04  0.15000000000E+04  0.10566000000E+00 0.  1.
        994   -1    0    0    0    0 -0.00000000000E+00 -0.00000000000E+00  0.11368683772E-12  0.17120000000E+03  0.17120000000E+03 0.  0.
         13    1    1    2    0    0  0.32163554234E+01 -0.17681214274E+02  0.61374801792E+02  0.63951917403E+02  0.10566000000E+00 0.  1.
        994    1    1    2    0    0 -0.14751368016E+01  0.17514214163E+02  0.35494837982E+01  0.17213646494E+03  0.17120000000E+03 0.  0.
        998    1    1    2    0    0 -0.17412186218E+01  0.16700011129E+00  0.14350757107E+04  0.14351116177E+04  0.10000000000E+02 0.  1.
</event>
<event>
 5    1  0.1271464E-008  0.3777364E+03  0.7957747E-01  0.3461074E+00
         13   -1    0    0    0    0  0.00000000000E+00  0.00000000000E+00  0.14999999963E+04  0.15000000000E+04  0.10566000000E+00 0. -1.
        994   -1    0    0    0    0 -0.00000000000E+00 -0.00000000000E+00  0.11368683772E-12  0.17120000000E+03  0.17120000000E+03 0.  0.
         13    1    1    2    0    0  0.71689157582E+01  0.13980925259E+02  0.21407105148E+02  0.26554377023E+02  0.10566000000E+00 0. -1.
        994    1    1    2    0    0 -0.99633021109E+01 -0.18074889306E+01  0.56256040725E+01  0.17159143867E+03  0.17120000000E+03 0.  0.
        998    1    1    2    0    0  0.27943863527E+01 -0.12173436328E+02  0.14729672871E+04  0.14730541843E+04  0.10000000000E+02 0. -1.
</event>
<event>
 5    1  0.1271464E-008  0.3860105E+03  0.7957747E-01  0.3425398E+00
         13   -1    0    0    0    0  0.00000000000E+00  0.00000000000E+00  0.14999999963E+04  0.15000000000E+04  0.10566000000E+00 0. -1.
        994   -1    0    0    0    0 -0.00000000000E+00 -0.00000000000E+00  0.11368683772E-12  0.17120000000E+03  0.17120000000E+03 0.  0.
         13    1    1    2    0    0  0.10731467274E+02  0.33809927340E+01  0.60171419026E+02  0.61214429127E+02  0.10566000000E+00 0. -1.
        994    1    1    2    0    0 -0.19293805664E+01  0.74427655843E+01  0.13230872612E+01  0.17137767599E+03  0.17120000000E+03 0.  0.
        998    1    1    2    0    0 -0.88020867080E+01 -0.10823758318E+02  0.14385054900E+04  0.14386078949E+04  0.10000000000E+02 0. -1.
</event>
<event>
 5    1  0.1271464E-008  0.3849539E+03  0.7957747E-01  0.3429868E+00
         13   -1    0    0    0    0  0.00000000000E+00  0.00000000000E+00  0.14999999963E+04  0.15000000000E+04  0.10566000000E+00 0. -1.
        994   -1    0    0    0    0 -0.00000000000E+00 -0.00000000000E+00  0.11368683772E-12  0.17120000000E+03  0.17120000000E+03 0.  0.
         13    1    1    2    0    0 -0.17910119393E+02  0.74900331609E+01  0.10189033248E+03  0.10372330495E+03  0.10566000000E+00 0. -1.
        994    1    1    2    0    0  0.25270388099E+02 -0.92390514320E+01  0.40378445343E+01  0.17334848362E+03  0.17120000000E+03 0.  0.
        998    1    1    2    0    0 -0.73602687062E+01  0.17490182712E+01  0.13940718193E+04  0.13941282114E+04  0.10000000000E+02 0. -1.
</event>
<event>
 5    1  0.1271464E-008  0.3857938E+03  0.7957747E-01  0.3426313E+00
         13   -1    0    0    0    0  0.00000000000E+00  0.00000000000E+00  0.14999999963E+04  0.15000000000E+04  0.10566000000E+00 0. -1.
        994   -1    0    0    0    0 -0.00000000000E+00 -0.00000000000E+00  0.11368683772E-12  0.17120000000E+03  0.17120000000E+03 0.  0.
         13    1    1    2    0    0 -0.10916744710E+03 -0.95505678798E+02  0.44998476856E+03  0.47278448504E+03  0.10566000000E+00 0. -1.
        994    1    1    2    0    0  0.60459852219E+02  0.10339117490E+03  0.74831577877E+02  0.22193317423E+03  0.17120000000E+03 0.  0.
        998    1    1    2    0    0  0.48707594883E+02 -0.78854960979E+01  0.97518364984E+03  0.97648234073E+03  0.10000000000E+02 0.  1.
</event>
<event>
 5    1  0.1271464E-008  0.3811640E+03  0.7957747E-01  0.3446106E+00
         13   -1    0    0    0    0  0.00000000000E+00  0.00000000000E+00  0.14999999963E+04  0.15000000000E+04  0.10566000000E+00 0. -1.
        994   -1    0    0    0    0 -0.00000000000E+00 -0.00000000000E+00  0.11368683772E-12  0.17120000000E+03  0.17120000000E+03 0.  0.
         13    1    1    2    0    0  0.23576757206E+02 -0.52738334827E+01  0.76620464903E+02  0.80339178524E+02  0.10566000000E+00 0. -1.
        994    1    1    2    0    0 -0.26948567152E+02  0.26225562449E+01  0.59918611797E+01  0.17343138549E+03  0.17120000000E+03 0.  0.
        998    1    1    2    0    0  0.33718099462E+01  0.26512772378E+01  0.14173876702E+04  0.14174294360E+04  0.10000000000E+02 0. -1.
</event>
<event>
 5    1  0.1271464E-008  0.3815485E+03  0.7957747E-01  0.3444444E+00
         13   -1    0    0    0    0  0.00000000000E+00  0.00000000000E+00  0.14999999963E+04  0.15000000000E+04  0.10566000000E+00 0.  1.
        994   -1    0    0    0    0 -0.00000000000E+00 -0.00000000000E+00  0.11368683772E-12  0.17120000000E+03  0.17120000000E+03 0.  0.
         13    1    1    2    0    0  0.16454836215E+02 -0.33609318756E+01  0.41511973410E+02  0.44780716814E+02  0.10566000000E+00 0.  1.
        994    1    1    2    0    0 -0.68970974451E+01  0.63761020882E+00  0.35131172980E+01  0.17137607328E+03  0.17120000000E+03 0.  0.
        998    1    1    2    0    0 -0.95577387703E+01  0.27233216668E+01  0.14549749056E+04  0.14550432099E+04  0.10000000000E+02 0.  1.
</event>
<event>
 5    1  0.1271464E-008  0.3707347E+03  0.7957747E-01  0.3492521E+00
         13   -1    0    0    0    0  0.00000000000E+00  0.00000000000E+00  0.14999999963E+04  0.15000000000E+04  0.10566000000E+00 0.  1.
        994   -1    0    0    0    0 -0.00000000000E+00 -0.00000000000E+00  0.11368683772E-12  0.17120000000E+03  0.17120000000E+03 0.  0.
         13    1    1    2    0    0  0.35300110606E+02  0.26589623922E+02  0.63148082473E+02  0.77076568379E+02  0.10566000000E+00 0.  1.
        994    1    1    2    0    0 -0.16007049543E+03  0.37676563157E+02  0.11316418852E+03  0.26297844110E+03  0.17120000000E+03 0.  0.
        998    1    1    2    0    0  0.12477038482E+03 -0.64266187079E+02  0.13236877253E+04  0.13311449905E+04  0.10000000000E+02 0.  1.
</event>
<event>
 5    1  0.1271464E-008  0.3806760E+03  0.7957747E-01  0.3448220E+00
         13   -1    0    0    0    0  0.00000000000E+00  0.00000000000E+00  0.14999999963E+04  0.15000000000E+04  0.10566000000E+00 0. -1.
        994   -1    0    0    0    0 -0.00000000000E+00 -0.00000000000E+00  0.11368683772E-12  0.17120000000E+03  0.17120000000E+03 0.  0.
         13    1    1    2    0    0  0.57047205068E+02 -0.53955839976E+02  0.29126644280E+03  0.30166499323E+03  0.10566000000E+00 0. -1.
        994    1    1    2    0    0 -0.13078971272E+03  0.10641117497E+03  0.10529507653E+03  0.26234667951E+03  0.17120000000E+03 0.  0.
        998    1    1    2    0    0  0.73742507647E+02 -0.52455334991E+02  0.11034384769E+04  0.11071883273E+04  0.10000000000E+02 0. -1.
</event>
<event>
 5    1  0.1271464E-008  0.3823592E+03  0.7957747E-01  0.3440950E+00
         13   -1    0    0    0    0  0.00000000000E+00  0.00000000000E+00  0.14999999963E+04  0.15000000000E+04  0.10566000000E+00 0.  1.
        994   -1    0    0    0    0 -0.00000000000E+00 -0.00000000000E+00  0.11368683772E-12  0.17120000000E+03  0.17120000000E+03 0.  0.
         13    1    1    2    0    0 -0.69498001850E+02 -0.88168041646E+02  0.62654195476E+03  0.63652054803E+03  0.10566000000E+00 0.  1.
        994    1    1    2    0    0  0.13557650824E+03  0.95563169222E+02  0.10032302660E+03  0.25862609800E+03  0.17120000000E+03 0.  0.
        998    1    1    2    0    0 -0.66078506391E+02 -0.73951275763E+01  0.77313501492E+03  0.77605335397E+03  0.10000000000E+02 0.  1.
</event>
<event>
 5    1  0.1271464E-008  0.3731598E+03  0.7957747E-01  0.3481494E+00
         13   -1    0    0    0    0  0.00000000000E+00  0.00000000000E+00  0.14999999963E+04  0.15000000000E+04  0.10566000000E+00 0. -1.
        994   -1    0    0    0    0 -0.00000000000E+00 -0.00000000000E+00  0.11368683772E-12  0.17120000000E+03  0.17120000000E+03 0.  0.
         13    1    1    2    0    0  0.14035358211E+02 -0.25342019113E+02  0.57082200615E+02  0.64012483188E+02  0.10566000000E+00 0. -1.
        994    1    1    2    0    0  0.17610050695E+02 -0.15673454219E+01  0.86965976731E+01  0.17233003589E+03  0.17120000000E+03 0.  0.
        998    1    1    2    0    0 -0.31645408906E+02  0.26909364535E+02  0.14342211980E+04  0.14348574809E+04  0.10000000000E+02 0. -1.
</event>
<event>
 5    1  0.1271464E-008  0.3698397E+03  0.7957747E-01  0.3496628E+00
         13   -1    0    0    0    0  0.00000000000E+00  0.00000000000E+00  0.14999999963E+04  0.15000000000E+04  0.10566000000E+00 0. -1.
        994   -1    0    0    0    0 -0.00000000000E+00 -0.00000000000E+00  0.11368683772E-12  0.17120000000E+03  0.17120000000E+03 0.  0.
         13    1    1    2    0    0 -0.10007696459E+02 -0.61436400038E+01  0.12997870957E+01  0.11815198324E+02  0.10566000000E+00 0. -1.
        994    1    1    2    0    0  0.91230680920E+01  0.51379131820E+01  0.11237214192E+02  0.17188758974E+03  0.17120000000E+03 0.  0.
        998    1    1    2    0    0  0.88462836671E+00  0.10057268218E+01  0.14874629950E+04  0.14874972119E+04  0.10000000000E+02 0. -1.
</event>
<event>
 5    1  0.1271464E-008  0.3789097E+03  0.7957747E-01  0.3455920E+00
         13   -1    0    0    0    0  0.00000000000E+00  0.00000000000E+00  0.14999999963E+04  0.15000000000E+04  0.10566000000E+00 0.  1.
        994   -1    0    0    0    0 -0.00000000000E+00 -0.00000000000E+00  0.11368683772E-12  0.17120000000E+03  0.17120000000E+03 0.  0.
         13    1    1    2    0    0 -0.14469194864E+02 -0.10244585327E+02  0.30791000530E+02  0.35530353308E+02  0.10566000000E+00 0.  1.
        994    1    1    2    0    0  0.19096008196E+02  0.10076997578E+02  0.62502138813E+01  0.17266936203E+03  0.17120000000E+03 0.  0.
        998    1    1    2    0    0 -0.46268133319E+01  0.16758774842E+00  0.14629587819E+04  0.14630002847E+04  0.10000000000E+02 0.  1.
</event>
<event>
 5    1  0.1271464E-008  0.3723674E+03  0.7957747E-01  0.3485081E+00
         13   -1    0    0    0    0  0.00000000000E+00  0.00000000000E+00  0.14999999963E+04  0.15000000000E+04  0.10566000000E+00 0.  1.
        994   -1    0    0    0    0 -0.00000000000E+00 -0.00000000000E+00  0.11368683772E-12  0.17120000000E+03  0.17120000000E+03 0.  0.
         13    1    1    2    0    0 -0.44859405091E+02 -0.42084955467E+01  0.82788081430E+02  0.94254735959E+02  0.10566000000E+00 0.  1.
        994    1    1    2    0    0  0.13681044135E+02  0.81425392839E+01  0.13090133214E+02  0.17243625924E+03  0.17120000000E+03 0.  0.
        998    1    1    2    0    0  0.31178360956E+02 -0.39340437372E+01  0.14041217816E+04  0.14045090048E+04  0.10000000000E+02 0.  1.
</event>
<event>
 5    1  0.1271464E-008  0.3843340E+03  0.7957747E-01  0.3432502E+00
         13   -1    0    0    0    0  0.00000000000E+00  0.00000000000E+00  0.14999999963E+04  0.15000000000E+04  0.10566000000E+00 0. -1.
        994   -1    0    0    0    0 -0.00000000000E+00 -0.00000000000E+00  0.11368683772E-12  0.17120000000E+03  0.17120000000E+03 0.  0.
         13    1    1    2    0    0 -0.18302022168E+02 -0.18118069008E+02  0.14936960847E+03  0.15157347901E+03  0.10566000000E+00 0. -1.
        994    1    1    2    0    0  0.19783056150E+02  0.22118366354E+02  0.48687696143E+01  0.17382098941E+03  0.17120000000E+03 0.  0.
        998    1    1    2    0    0 -0.14810339815E+01 -0.40002973461E+01  0.13457616182E+04  0.13458055316E+04  0.10000000000E+02 0. -1.
</event>
<event>
 5    1  0.1271464E-008  0.3788894E+03  0.7957747E-01  0.3456009E+00
         13   -1    0    0    0    0  0.00000000000E+00  0.00000000000E+00  0.14999999963E+04  0.15000000000E+04  0.10566000000E+00 0.  1.
        994   -1    0    0    0    0 -0.00000000000E+00 -0.00000000000E+00  0.11368683772E-12  0.17120000000E+03  0.17120000000E+03 0.  0.
         13    1    1    2    0    0 -0.31468139854E+02  0.12348440939E+02  0.11670711317E+03  0.12150427666E+03  0.10566000000E+00 0.  1.
        994    1    1    2    0    0  0.27699183559E+02  0.62062448768E-01  0.72733949741E+01  0.17357877432E+03  0.17120000000E+03 0.  0.
        998    1    1    2    0    0  0.37689562949E+01 -0.12410503387E+02  0.13760194881E+04  0.13761169490E+04  0.10000000000E+02 0.  1.
</event>
<event>
 5    1  0.1271464E-008  0.3042329E+03  0.7957747E-01  0.3866256E+00
         13   -1    0    0    0    0  0.00000000000E+00  0.00000000000E+00  0.14999999963E+04  0.15000000000E+04  0.10566000000E+00 0.  1.
        994   -1    0    0    0    0 -0.00000000000E+00 -0.00000000000E+00  0.11368683772E-12  0.17120000000E+03  0.17120000000E+03 0.  0.
         13    1    1    2    0    0 -0.15064723372E+03 -0.14176273944E+03  0.75423487159E+03  0.78208792089E+03  0.10566000000E+00 0.  1.
        994    1    1    2    0    0  0.10714295607E+03  0.83919967603E+02  0.10218677821E+03  0.24139956843E+03  0.17120000000E+03 0.  0.
        998    1    1    2    0    0  0.43504277653E+02  0.57842771832E+02  0.64357834648E+03  0.64771251068E+03  0.10000000000E+02 0.  1.
</event>
<event>
 5    1  0.1271464E-008  0.3851806E+03  0.7957747E-01  0.3428907E+00
         13   -1    0    0    0    0  0.00000000000E+00  0.00000000000E+00  0.14999999963E+04  0.15000000000E+04  0.10566000000E+00 0.  1.
        994   -1    0    0    0    0 -0.00000000000E+00 -0.00000000000E+00  0.11368683772E-12  0.17120000000E+03  0.17120000000E+03 0.  0.
         13    1    1    2    0    0  0.28986847857E+01 -0.98833515296E+01  0.36263375714E+02  0.37697832739E+02  0.10566000000E+00 0.  1.
        994    1    1    2    0    0  0.57521639890E+01 -0.25221971368E+01  0.16701856513E+01  0.17132331537E+03  0.17120000000E+03 0.  0.
        998    1    1    2    0    0 -0.86508487747E+01  0.12405548666E+02  0.14620664349E+04  0.14621788519E+04  0.10000000000E+02 0.  1.
</event>
<event>
 5    1  0.1271464E-008  0.3836364E+03  0.7957747E-01  0.3435476E+00
         13   -1    0    0    0    0  0.00000000000E+00  0.00000000000E+00  0.14999999963E+04  0.15000000000E+04  0.10566000000E+00 0.  1.
        994   -1    0    0    0    0 -0.00000000000E+00 -0.00000000000E+00  0.11368683772E-12  0.17120000000E+03  0.17120000000E+03 0.  0.
         13    1    1    2    0    0 -0.10598854158E+02  0.20716742677E+02  0.11628055202E+03  0.11858624321E+03  0.10566000000E+00 0.  1.
        994    1    1    2    0    0 -0.74051521023E+01 -0.20881397462E+02  0.39318182714E+01  0.17267243044E+03  0.17120000000E+03 0.  0.
        998    1    1    2    0    0  0.18004006260E+02  0.16465478410E+00  0.13797876260E+04  0.13799413264E+04  0.10000000000E+02 0.  1.
</event>
<event>
 5    1  0.1271464E-008  0.3785449E+03  0.7957747E-01  0.3457519E+00
         13   -1    0    0    0    0  0.00000000000E+00  0.00000000000E+00  0.14999999963E+04  0.15000000000E+04  0.10566000000E+00 0.  1.
        994   -1    0    0    0    0 -0.00000000000E+00 -0.00000000000E+00  0.11368683772E-12  0.17120000000E+03  0.17120000000E+03 0.  0.
         13    1    1    2    0    0 -0.90589952505E+01  0.26857428616E+02  0.77088054051E+02  0.82133830474E+02  0.10566000000E+00 0.  1.
        994    1    1    2    0    0  0.65069518796E+01 -0.27931775717E+02  0.76373526441E+01  0.17375354291E+03  0.17120000000E+03 0.  0.
        998    1    1    2    0    0  0.25520433709E+01  0.10743471003E+01  0.14152745896E+04  0.14153126266E+04  0.10000000000E+02 0.  0.
</event>
<event>
 5    1  0.1271464E-008  0.3856996E+03  0.7957747E-01  0.3426711E+00
         13   -1    0    0    0    0  0.00000000000E+00  0.00000000000E+00  0.14999999963E+04  0.15000000000E+04  0.10566000000E+00 0.  1.
        994   -1    0    0    0    0 -0.00000000000E+00 -0.00000000000E+00  0.11368683772E-12  0.17120000000E+03  0.17120000000E+03 0.  0.
         13    1    1    2    0    0  0.57432706724E+01 -0.11458355968E+02  0.62000533018E+02  0.63311581389E+02  0.10566000000E+00 0.  1.
        994    1    1    2    0    0 -0.63783853803E+00  0.15669414002E+02  0.20906015633E+01  0.17192948551E+03  0.17120000000E+03 0.  0.
        998    1    1    2    0    0 -0.51054321344E+01 -0.42110580337E+01  0.14359088617E+04  0.14359589331E+04  0.10000000000E+02 0.  1.
</event>
<event>
 5    1  0.1271464E-008  0.3711268E+03  0.7957747E-01  0.3490728E+00
         13   -1    0    0    0    0  0.00000000000E+00  0.00000000000E+00  0.14999999963E+04  0.15000000000E+04  0.10566000000E+00 0. -1.
        994   -1    0    0    0    0 -0.00000000000E+00 -0.00000000000E+00  0.11368683772E-12  0.17120000000E+03  0.17120000000E+03 0.  0.
         13    1    1    2    0    0  0.16943310515E+03 -0.77035337035E+01  0.58961290125E+03  0.61352286514E+03  0.10566000000E+00 0. -1.
        994    1    1    2    0    0 -0.18098549001E+03  0.87424641567E+01  0.13759821409E+03  0.28473652171E+03  0.17120000000E+03 0.  0.
        998    1    1    2    0    0  0.11552384854E+02 -0.10389304532E+01  0.77278888093E+03  0.77294061316E+03  0.10000000000E+02 0. -1.
</event>
<event>
 5    1  0.1271464E-008  0.3852727E+03  0.7957747E-01  0.3428516E+00
         13   -1    0    0    0    0  0.00000000000E+00  0.00000000000E+00  0.14999999963E+04  0.15000000000E+04  0.10566000000E+00 0.  1.
        994   -1    0    0    0    0 -0.00000000000E+00 -0.00000000000E+00  0.11368683772E-12  0.17120000000E+03  0.17120000000E+03 0.  0.
         13    1    1    2    0    0  0.45087628311E+01  0.16656276879E+02  0.99239715921E+02  0.10072880860E+03  0.10566000000E+00 0.  1.
        994    1    1    2    0    0  0.43239243755E+01 -0.13530878293E+02  0.21580779020E+01  0.17180185764E+03  0.17120000000E+03 0.  0.
        998    1    1    2    0    0 -0.88326872066E+01 -0.31253985860E+01  0.13986022025E+04  0.13986693338E+04  0.10000000000E+02 0.  1.
</event>
<event>
 5    1  0.1271464E-008  0.3821165E+03  0.7957747E-01  0.3441994E+00
         13   -1    0    0    0    0  0.00000000000E+00  0.00000000000E+00  0.14999999963E+04  0.15000000000E+04  0.10566000000E+00 0.  1.
        994   -1    0    0    0    0 -0.00000000000E+00 -0.00000000000E+00  0.11368683772E-12  0.17120000000E+03  0.17120000000E+03 0.  0.
         13    1    1    2    0    0 -0.13314882652E+01 -0.29099320163E+02  0.13224658162E+03  0.13541681140E+03  0.10566000000E+00 0.  1.
        994    1    1    2    0    0  0.57142609685E+01  0.22767637223E+02  0.48999126035E+01  0.17287124465E+03  0.17120000000E+03 0.  0.
        998    1    1    2    0    0 -0.43827727033E+01  0.63316829396E+01  0.13628535021E+04  0.13629119439E+04  0.10000000000E+02 0.  1.
</event>
<event>
 5    1  0.1271464E-008  0.3736056E+03  0.7957747E-01  0.3479483E+00
         13   -1    0    0    0    0  0.00000000000E+00  0.00000000000E+00  0.14999999963E+04  0.15000000000E+04  0.10566000000E+00 0. -1.
        994   -1    0    0    0    0 -0.00000000000E+00 -0.00000000000E+00  0.11368683772E-12  0.17120000000E+03  0.17120000000E+03 0.  0.
         13    1    1    2    0    0  0.27769308204E+02 -0.37203076714E+02  0.13609565214E+03  0.14379583127E+03  0.10566000000E+00 0. -1.
        994    1    1    2    0    0 -0.28803577620E+02  0.26700221187E+02  0.12683040166E+02  0.17610464901E+03  0.17120000000E+03 0.  0.
        998    1    1    2    0    0  0.10342694162E+01  0.10502855526E+02  0.13512213040E+04  0.13512995197E+04  0.10000000000E+02 0. -1.
</event>
<event>
 5    1  0.1271464E-008  0.3735506E+03  0.7957747E-01  0.3479730E+00
         13   -1    0    0    0    0  0.00000000000E+00  0.00000000000E+00  0.14999999963E+04  0.15000000000E+04  0.10566000000E+00 0.  1.
        994   -1    0    0    0    0 -0.00000000000E+00 -0.00000000000E+00  0.11368683772E-12  0.17120000000E+03  0.17120000000E+03 0.  0.
         13    1    1    2    0    0 -0.52393833494E+02  0.12050495846E+02  0.23426489317E+03  0.24035469535E+03  0.10566000000E+00 0.  1.
        994    1    1    2    0    0 -0.97136641837E+00 -0.58173647904E+01  0.75437259823E+01  0.17146758611E+03  0.17120000000E+03 0.  0.
        998    1    1    2    0    0  0.53365199913E+02 -0.62331310559E+01  0.12581913771E+04  0.12593777185E+04  0.10000000000E+02 0.  1.
</event>
<event>
 5    1  0.1271464E-008  0.3823087E+03  0.7957747E-01  0.3441167E+00
         13   -1    0    0    0    0  0.00000000000E+00  0.00000000000E+00  0.14999999963E+04  0.15000000000E+04  0.10566000000E+00 0. -1.
        994   -1    0    0    0    0 -0.00000000000E+00 -0.00000000000E+00  0.11368683772E-12  0.17120000000E+03  0.17120000000E+03 0.  0.
         13    1    1    2    0    0 -0.34425084785E+02 -0.12731919918E+02  0.18702587407E+03  0.19059348620E+03  0.10566000000E+00 0. -1.
        994    1    1    2    0    0  0.44299223447E+02  0.95292729780E+01  0.98141283889E+01  0.17736681019E+03  0.17120000000E+03 0.  0.
        998    1    1    2    0    0 -0.98741386623E+01  0.32026469396E+01  0.13031599938E+04  0.13032397036E+04  0.10000000000E+02 0. -1.
</event>
<event>
 5    1  0.1271464E-008  0.3749373E+03  0.7957747E-01  0.3473503E+00
         13   -1    0    0    0    0  0.00000000000E+00  0.00000000000E+00  0.14999999963E+04  0.15000000000E+04  0.10566000000E+00 0. -1.
        994   -1    0    0    0    0 -0.00000000000E+00 -0.00000000000E+00  0.11368683772E-12  0.17120000000E+03  0.17120000000E+03 0.  0.
         13    1    1    2    0    0 -0.15503241475E+02  0.20310792837E+02  0.45472079532E+02  0.52159370998E+02  0.10566000000E+00 0. -1.
        994    1    1    2    0    0  0.22507962746E+02 -0.89084789522E+01  0.87057157922E+01  0.17312191910E+03  0.17120000000E+03 0.  0.
        998    1    1    2    0    0 -0.70047212707E+01 -0.11402313885E+02  0.14458222010E+04  0.14459187099E+04  0.10000000000E+02 0. -1.
</event>
<event>
 5    1  0.1271464E-008  0.3823173E+03  0.7957747E-01  0.3441130E+00
         13   -1    0    0    0    0  0.00000000000E+00  0.00000000000E+00  0.14999999963E+04  0.15000000000E+04  0.10566000000E+00 0. -1.
        994   -1    0    0    0    0 -0.00000000000E+00 -0.00000000000E+00  0.11368683772E-12  0.17120000000E+03  0.17120000000E+03 0.  0.
         13    1    1    2    0    0  0.73877871998E+01  0.18740305918E+03  0.10018707327E+04  0.10192739878E+04  0.10566000000E+00 0. -1.
        994    1    1    2    0    0 -0.24638479084E+01 -0.19886351034E+03  0.14768973899E+03  0.30112201064E+03  0.17120000000E+03 0.  0.
        998    1    1    2    0    0 -0.49239392914E+01  0.11460451157E+02  0.35043952457E+03  0.35080400155E+03  0.10000000000E+02 0. -1.
</event>
<event>
 5    1  0.1271464E-008  0.3829803E+03  0.7957747E-01  0.3438284E+00
         13   -1    0    0    0    0  0.00000000000E+00  0.00000000000E+00  0.14999999963E+04  0.15000000000E+04  0.10566000000E+00 0.  1.
        994   -1    0    0    0    0 -0.00000000000E+00 -0.00000000000E+00  0.11368683772E-12  0.17120000000E+03  0.17120000000E+03 0.  0.
         13    1    1    2    0    0 -0.20939947706E+01  0.10424602217E+02  0.20510742456E+02  0.23103221975E+02  0.10566000000E+00 0.  1.
        994    1    1    2    0    0  0.40607110375E+01 -0.60755342297E+01  0.28130286246E+01  0.17137897952E+03  0.17120000000E+03 0.  0.
        998    1    1    2    0    0 -0.19667162669E+01 -0.43490679875E+01  0.14766762252E+04  0.14767177985E+04  0.10000000000E+02 0.  1.
</event>
<event>
 5    1  0.1271464E-008  0.4034540E+03  0.7957747E-01  0.3354989E+00
         13   -1    0    0    0    0  0.00000000000E+00  0.00000000000E+00  0.14999999963E+04  0.15000000000E+04  0.10566000000E+00 0.  1.
        994   -1    0    0    0    0 -0.00000000000E+00 -0.00000000000E+00  0.11368683772E-12  0.17120000000E+03  0.17120000000E+03 0.  0.
         13    1    1    2    0    0 -0.45726809613E+01 -0.70910878145E+02  0.79394983508E+02  0.10654969085E+03  0.10566000000E+00 0.  1.
        994    1    1    2    0    0 -0.65351744749E+01  0.33262690532E+02  0.34434912909E+02  0.17788849967E+03  0.17120000000E+03 0.  0.
        998    1    1    2    0    0  0.11107855436E+02  0.37648187613E+02  0.13861700999E+04  0.13867618095E+04  0.10000000000E+02 0.  1.
</event>
<event>
 5    1  0.1271464E-008  0.3790967E+03  0.7957747E-01  0.3455101E+00
         13   -1    0    0    0    0  0.00000000000E+00  0.00000000000E+00  0.14999999963E+04  0.15000000000E+04  0.10566000000E+00 0. -1.
        994   -1    0    0    0    0 -0.00000000000E+00 -0.00000000000E+00  0.11368683772E-12  0.17120000000E+03  0.17120000000E+03 0.  0.
         13    1    1    2    0    0  0.63927402130E+01 -0.92303046570E+01  0.11955065695E+02  0.16401232005E+02  0.10566000000E+00 0. -1.
        994    1    1    2    0    0  0.64695856678E+01  0.34719700236E+01  0.47705831354E+01  0.17142376900E+03  0.17120000000E+03 0.  0.
        998    1    1    2    0    0 -0.12862325881E+02  0.57583346334E+01  0.14832743474E+04  0.14833749990E+04  0.10000000000E+02 0. -1.
</event>
<event>
 5    1  0.1271464E-008  0.3790179E+03  0.7957747E-01  0.3455446E+00
         13   -1    0    0    0    0  0.00000000000E+00  0.00000000000E+00  0.14999999963E+04  0.15000000000E+04  0.10566000000E+00 0. -1.
        994   -1    0    0    0    0 -0.00000000000E+00 -0.00000000000E+00  0.11368683772E-12  0.17120000000E+03  0.17120000000E+03 0.  0.
         13    1    1    2    0    0 -0.49772401696E+02 -0.10449866425E+02  0.23283469938E+03  0.23832435897E+03  0.10566000000E+00 0. -1.
        994    1    1    2    0    0  0.50274321889E+02  0.17908968533E+02  0.14242158321E+02  0.17989029343E+03  0.17120000000E+03 0.  0.
        998    1    1    2    0    0 -0.50192019220E+00 -0.74591021080E+01  0.12529231386E+04  0.12529853476E+04  0.10000000000E+02 0. -1.
</event>
<event>
 5    1  0.2126848E-008  0.3857606E+03  0.7957747E-01  0.3426453E+00
         13   -1    0    0    0    0  0.00000000000E+00  0.00000000000E+00  0.14999999963E+04  0.15000000000E+04  0.10566000000E+00 0.  1.
        994   -1    0    0    0    0 -0.00000000000E+00 -0.00000000000E+00  0.11368683772E-12  0.17120000000E+03  0.17120000000E+03 0.  0.
         13    1    1    2    0    0 -0.71567524503E+01  0.80366788178E+01  0.47224978265E+02  0.48435700142E+02  0.10566000000E+00 0.  1.
        994    1    1    2    0    0  0.23972059058E+01 -0.45255240525E+01  0.13390311737E+01  0.17128181447E+03  0.17120000000E+03 0.  0.
        998    1    1    2    0    0  0.47595465446E+01 -0.35111547653E+01  0.14514359868E+04  0.14514824854E+04  0.10000000000E+02 0.  1.
</event>
<event>
 5    1  0.1271464E-008  0.3851232E+03  0.7957747E-01  0.3429150E+00
         13   -1    0    0    0    0  0.00000000000E+00  0.00000000000E+00  0.14999999963E+04  0.15000000000E+04  0.10566000000E+00 0.  1.
        994   -1    0    0    0    0 -0.00000000000E+00 -0.00000000000E+00  0.11368683772E-12  0.17120000000E+03  0.17120000000E+03 0.  0.
         13    1    1    2    0    0  0.14944225265E+02  0.32684332162E+00  0.73996626229E+02  0.75491380652E+02  0.10566000000E+00 0.  1.
        994    1    1    2    0    0 -0.43769412756E+01 -0.59706548882E+01  0.17491560160E+01  0.17136891749E+03  0.17120000000E+03 0.  0.
        998    1    1    2    0    0 -0.10567283989E+02  0.56438115665E+01  0.14242542140E+04  0.14243397019E+04  0.10000000000E+02 0.  1.
</event>
<event>
 5    1  0.1271464E-008  0.3830206E+03  0.7957747E-01  0.3438110E+00
         13   -1    0    0    0    0  0.00000000000E+00  0.00000000000E+00  0.14999999963E+04  0.15000000000E+04  0.10566000000E+00 0.  1.
        994   -1    0    0    0    0 -0.00000000000E+00 -0.00000000000E+00  0.11368683772E-12  0.17120000000E+03  0.17120000000E+03 0.  0.
         13    1    1    2    0    0 -0.92329657513E+01 -0.11672150408E+02  0.41648026952E+02  0.44227322604E+02  0.10566000000E+00 0.  1.
        994    1    1    2    0    0  0.37407117419E+01  0.87708434186E+01  0.29170445634E+01  0.17149014481E+03  0.17120000000E+03 0.  0.
        998    1    1    2    0    0  0.54922540094E+01  0.29013069890E+01  0.14554349248E+04  0.14554825326E+04  0.10000000000E+02 0.  1.
</event>
<event>
 5    1  0.1271464E-008  0.3779434E+03  0.7957747E-01  0.3460163E+00
         13   -1    0    0    0    0  0.00000000000E+00  0.00000000000E+00  0.14999999963E+04  0.15000000000E+04  0.10566000000E+00 0.  1.
        994   -1    0    0    0    0 -0.00000000000E+00 -0.00000000000E+00  0.11368683772E-12  0.17120000000E+03  0.17120000000E+03 0.  0.
         13    1    1    2    0    0 -0.11621508483E+02  0.39705460496E+02  0.68725586536E+02  0.80217208013E+02  0.10566000000E+00 0.  1.
        994    1    1    2    0    0  0.39143478419E+02  0.10064094322E+03  0.58434599661E+02  0.21067713163E+03  0.17120000000E+03 0.  0.
        998    1    1    2    0    0 -0.27521969936E+02 -0.14034640372E+03  0.13728398101E+04  0.13803056604E+04  0.10000000000E+02 0.  1.
</event>
<event>
 5    1  0.1271464E-008  0.3853100E+03  0.7957747E-01  0.3428358E+00
         13   -1    0    0    0    0  0.00000000000E+00  0.00000000000E+00  0.14999999963E+04  0.15000000000E+04  0.10566000000E+00 0. -1.
        994   -1    0    0    0    0 -0.00000000000E+00 -0.00000000000E+00  0.11368683772E-12  0.17120000000E+03  0.17120000000E+03 0.  0.
         13    1    1    2    0    0 -0.40465341254E+01  0.10948232945E+02  0.46063975608E+02  0.47519882743E+02  0.10566000000E+00 0. -1.
        994    1    1    2    0    0 -0.28078728410E+00 -0.91179263911E+01  0.17497264694E+01  0.17145179196E+03  0.17120000000E+03 0.  0.
        998    1    1    2    0    0  0.43273214095E+01 -0.18303065543E+01  0.14521862942E+04  0.14522283253E+04  0.10000000000E+02 0. -1.
</event>
<event>
 5    1  0.1271464E-008  0.3860067E+03  0.7957747E-01  0.3425414E+00
         13   -1    0    0    0    0  0.00000000000E+00  0.00000000000E+00  0.14999999963E+04  0.15000000000E+04  0.10566000000E+00 0.  1.
        994   -1    0    0    0    0 -0.00000000000E+00 -0.00000000000E+00  0.11368683772E-12  0.17120000000E+03  0.17120000000E+03 0.  0.
         13    1    1    2    0    0 -0.20155473802E+01 -0.11723602589E+02  0.61355909005E+02  0.62498512165E+02  0.10566000000E+00 0.  1.
        994    1    1    2    0    0 -0.26275101459E+01  0.12866939314E+02  0.16966804084E+01  0.17171132945E+03  0.17120000000E+03 0.  0.
        998    1    1    2    0    0  0.46430575261E+01 -0.11433367257E+01  0.14369474069E+04  0.14369901584E+04  0.10000000000E+02 0.  1.
</event>
<event>
 5    1  0.1271464E-008  0.3741732E+03  0.7957747E-01  0.3476929E+00
         13   -1    0    0    0    0  0.00000000000E+00  0.00000000000E+00  0.14999999963E+04  0.15000000000E+04  0.10566000000E+00 0. -1.
        994   -1    0    0    0    0 -0.00000000000E+00 -0.00000000000E+00  0.11368683772E-12  0.17120000000E+03  0.17120000000E+03 0.  0.
         13    1    1    2    0    0  0.49007294349E+02 -0.38647725890E+02  0.23979792761E+03  0.24778704337E+03  0.10566000000E+00 0. -1.
        994    1    1    2    0    0 -0.30468747702E+02  0.52162281158E+02  0.19646791990E+02  0.18260526991E+03  0.17120000000E+03 0.  0.
        998    1    1    2    0    0 -0.18538546648E+02 -0.13514555269E+02  0.12405552767E+04  0.12408076867E+04  0.10000000000E+02 0. -1.
</event>
<event>
 5    1  0.1271464E-008  0.3802027E+03  0.7957747E-01  0.3450276E+00
         13   -1    0    0    0    0  0.00000000000E+00  0.00000000000E+00  0.14999999963E+04  0.15000000000E+04  0.10566000000E+00 0. -1.
        994   -1    0    0    0    0 -0.00000000000E+00 -0.00000000000E+00  0.11368683772E-12  0.17120000000E+03  0.17120000000E+03 0.  0.
         13    1    1    2    0    0  0.11172376855E+02  0.91915399901E+01  0.24063992404E+02  0.28078342303E+02  0.10566000000E+00 0. -1.
        994    1    1    2    0    0 -0.93090933995E+01 -0.10381155844E+02  0.46806523426E+01  0.17183066118E+03  0.17120000000E+03 0.  0.
        998    1    1    2    0    0 -0.18632834558E+01  0.11896158536E+01  0.14712553515E+04  0.14712909965E+04  0.10000000000E+02 0. -1.
</event>
<event>
 5    1  0.1271464E-008  0.3780294E+03  0.7957747E-01  0.3459784E+00
         13   -1    0    0    0    0  0.00000000000E+00  0.00000000000E+00  0.14999999963E+04  0.15000000000E+04  0.10566000000E+00 0. -1.
        994   -1    0    0    0    0 -0.00000000000E+00 -0.00000000000E+00  0.11368683772E-12  0.17120000000E+03  0.17120000000E+03 0.  0.
         13    1    1    2    0    0 -0.28572766178E+02 -0.25188656879E+01  0.80846859360E+02  0.85784459454E+02  0.10566000000E+00 0. -1.
        994    1    1    2    0    0  0.10412497652E+02  0.62958335890E-01  0.54961411756E+01  0.17160440449E+03  0.17120000000E+03 0.  0.
        998    1    1    2    0    0  0.18160268526E+02  0.24559073520E+01  0.14136569957E+04  0.14138111361E+04  0.10000000000E+02 0. -1.
</event>
<event>
 5    1  0.1271464E-008  0.3849119E+03  0.7957747E-01  0.3430046E+00
         13   -1    0    0    0    0  0.00000000000E+00  0.00000000000E+00  0.14999999963E+04  0.15000000000E+04  0.10566000000E+00 0. -1.
        994   -1    0    0    0    0 -0.00000000000E+00 -0.00000000000E+00  0.11368683772E-12  0.17120000000E+03  0.17120000000E+03 0.  0.
         13    1    1    2    0    0  0.50314381076E+01 -0.15001965261E+02  0.77764773719E+02  0.79358336215E+02  0.10566000000E+00 0. -1.
        994    1    1    2    0    0 -0.31044956435E+01  0.38375639100E+01  0.17540625368E+01  0.17128012589E+03  0.17120000000E+03 0.  0.
        998    1    1    2    0    0 -0.19269424641E+01  0.11164401351E+02  0.14204811600E+04  0.14205615379E+04  0.10000000000E+02 0. -1.
</event>
<event>
 5    1  0.1271464E-008  0.3848469E+03  0.7957747E-01  0.3430322E+00
         13   -1    0    0    0    0  0.00000000000E+00  0.00000000000E+00  0.14999999963E+04  0.15000000000E+04  0.10566000000E+00 0. -1.
        994   -1    0    0    0    0 -0.00000000000E+00 -0.00000000000E+00  0.11368683772E-12  0.17120000000E+03  0.17120000000E+03 0.  0.
         13    1    1    2    0    0 -0.10746158344E+02 -0.24612200101E+01  0.36960210880E+02  0.38569494104E+02  0.10566000000E+00 0. -1.
        994    1    1    2    0    0 -0.55454808139E+01  0.17839400358E+02  0.28552887462E+01  0.17223991766E+03  0.17120000000E+03 0.  0.
        998    1    1    2    0    0  0.16291639158E+02 -0.15378180348E+02  0.14601844967E+04  0.14603905882E+04  0.10000000000E+02 0. -1.
</event>
<event>
 5    1  0.1271464E-008  0.3787349E+03  0.7957747E-01  0.3456686E+00
         13   -1    0    0    0    0  0.00000000000E+00  0.00000000000E+00  0.14999999963E+04  0.15000000000E+04  0.10566000000E+00 0.  1.
        994   -1    0    0    0    0 -0.00000000000E+00 -0.00000000000E+00  0.11368683772E-12  0.17120000000E+03  0.17120000000E+03 0.  0.
         13    1    1    2    0    0  0.91351189229E+01  0.72786087766E+01  0.12035766264E+02  0.16771981906E+02  0.10566000000E+00 0.  1.
        994    1    1    2    0    0 -0.10963716049E+02 -0.82513912961E+01  0.54054533650E+01  0.17183406954E+03  0.17120000000E+03 0.  0.
        998    1    1    2    0    0  0.18285971260E+01  0.97278251944E+00  0.14825587767E+04  0.14825939486E+04  0.10000000000E+02 0.  1.
</event>
<event>
 5    1  0.1271464E-008  0.3824903E+03  0.7957747E-01  0.3440386E+00
         13   -1    0    0    0    0  0.00000000000E+00  0.00000000000E+00  0.14999999963E+04  0.15000000000E+04  0.10566000000E+00 0. -1.
        994   -1    0    0    0    0 -0.00000000000E+00 -0.00000000000E+00  0.11368683772E-12  0.17120000000E+03  0.17120000000E+03 0.  0.
         13    1    1    2    0    0  0.13251329955E+02 -0.12199799777E+01  0.28942419485E+02  0.31855312060E+02  0.10566000000E+00 0. -1.
        994    1    1    2    0    0 -0.16385139071E+02  0.30525201519E+01  0.38028808052E+01  0.17205142418E+03  0.17120000000E+03 0.  0.
        998    1    1    2    0    0  0.31338091167E+01 -0.18325401741E+01  0.14672546960E+04  0.14672932638E+04  0.10000000000E+02 0. -1.
</event>
<event>
 5    1  0.1271464E-008  0.3722202E+03  0.7957747E-01  0.3485749E+00
         13   -1    0    0    0    0  0.00000000000E+00  0.00000000000E+00  0.14999999963E+04  0.15000000000E+04  0.10566000000E+00 0.  1.
        994   -1    0    0    0    0 -0.00000000000E+00 -0.00000000000E+00  0.11368683772E-12  0.17120000000E+03  0.17120000000E+03 0.  0.
         13    1    1    2    0    0  0.30116947889E+01 -0.33793257377E+02  0.69259368277E+02  0.77122796940E+02  0.10566000000E+00 0.  1.
        994    1    1    2    0    0  0.87958390888E+01  0.16869804723E+02  0.93561629351E+01  0.17250778209E+03  0.17120000000E+03 0.  0.
        998    1    1    2    0    0 -0.11807533878E+02  0.16923452653E+02  0.14213844651E+04  0.14215694210E+04  0.10000000000E+02 0.  1.
</event>
<event>
 5    1  0.1271464E-008  0.3770014E+03  0.7957747E-01  0.3464320E+00
         13   -1    0    0    0    0  0.00000000000E+00  0.00000000000E+00  0.14999999963E+04  0.15000000000E+04  0.10566000000E+00 0.  1.
        994   -1    0    0    0    0 -0.00000000000E+00 -0.00000000000E+00  0.11368683772E-12  0.17120000000E+03  0.17120000000E+03 0.  0.
         13    1    1    2    0    0 -0.45670275058E+02 -0.13201156345E+02  0.22199786945E+03  0.22703107664E+03  0.10566000000E+00 0.  1.
        994    1    1    2    0    0  0.19814486349E+01  0.38631342704E+02  0.10723386878E+02  0.17584293504E+03  0.17120000000E+03 0.  0.
        998    1    1    2    0    0  0.43688826423E+02 -0.25430186359E+02  0.12672787399E+04  0.12683259883E+04  0.10000000000E+02 0.  1.
</event>
<event>
 5    1  0.1271464E-008  0.3850200E+03  0.7957747E-01  0.3429587E+00
         13   -1    0    0    0    0  0.00000000000E+00  0.00000000000E+00  0.14999999963E+04  0.15000000000E+04  0.10566000000E+00 0. -1.
        994   -1    0    0    0    0 -0.00000000000E+00 -0.00000000000E+00  0.11368683772E-12  0.17120000000E+03  0.17120000000E+03 0.  0.
         13    1    1    2    0    0  0.12005242456E+02 -0.28057545521E+01  0.48933388001E+02  0.50462716240E+02  0.10566000000E+00 0. -1.
        994    1    1    2    0    0  0.48691998667E+00  0.40687640988E+01  0.16754342440E+01  0.17125723054E+03  0.17120000000E+03 0.  0.
        998    1    1    2    0    0 -0.12492162443E+02 -0.12630095467E+01  0.14493911740E+04  0.14494800532E+04  0.10000000000E+02 0. -1.
</event>
<event>
 5    1  0.1271464E-008  0.3496861E+03  0.7957747E-01  0.3594797E+00
         13   -1    0    0    0    0  0.00000000000E+00  0.00000000000E+00  0.14999999963E+04  0.15000000000E+04  0.10566000000E+00 0. -1.
        994   -1    0    0    0    0 -0.00000000000E+00 -0.00000000000E+00  0.11368683772E-12  0.17120000000E+03  0.17120000000E+03 0.  0.
         13    1    1    2    0    0 -0.16216397081E+03  0.23973685988E+03  0.74119955360E+03  0.79570579037E+03  0.10566000000E+00 0. -1.
        994    1    1    2    0    0  0.16695134139E+03 -0.23605261834E+03  0.42636576625E+03  0.54285430425E+03  0.17120000000E+03 0.  0.
        998    1    1    2    0    0 -0.47873705870E+01 -0.36842415391E+01  0.33243467643E+03  0.33263990537E+03  0.10000000000E+02 0.  0.
</event>
<event>
 5    1  0.1271464E-008  0.3747086E+03  0.7957747E-01  0.3474527E+00
         13   -1    0    0    0    0  0.00000000000E+00  0.00000000000E+00  0.14999999963E+04  0.15000000000E+04  0.10566000000E+00 0. -1.
        994   -1    0    0    0    0 -0.00000000000E+00 -0.00000000000E+00  0.11368683772E-12  0.17120000000E+03  0.17120000000E+03 0.  0.
         13    1    1    2    0    0 -0.17049451242E+02  0.38603049747E+01  0.19435273071E+02  0.26140519229E+02  0.10566000000E+00 0. -1.
        994    1    1    2    0    0  0.13802065055E+02  0.42316328845E+01  0.75378455638E+01  0.17197285493E+03  0.17120000000E+03 0.  0.
        998    1    1    2    0    0  0.32473861875E+01 -0.80919378591E+01  0.14730268776E+04  0.14730866258E+04  0.10000000000E+02 0. -1.
</event>
<event>
 5    1  0.1271464E-008  0.3700484E+03  0.7957747E-01  0.3495669E+00
         13   -1    0    0    0    0  0.00000000000E+00  0.00000000000E+00  0.14999999963E+04  0.15000000000E+04  0.10566000000E+00 0. -1.
        994   -1    0    0    0    0 -0.00000000000E+00 -0.00000000000E+00  0.11368683772E-12  0.17120000000E+03  0.17120000000E+03 0.  0.
         13    1    1    2    0    0  0.10335244667E+02 -0.36918600721E+02  0.83781096666E+02  0.92136223518E+02  0.10566000000E+00 0. -1.
        994    1    1    2    0    0  0.37187684653E+02  0.74477925865E+01  0.14232776386E+02  0.17592727312E+03  0.17120000000E+03 0.  0.
        998    1    1    2    0    0 -0.47522929320E+02  0.29470808134E+02  0.14019861232E+04  0.14031365034E+04  0.10000000000E+02 0. -1.
</event>
<event>
 5    1  0.1271464E-008  0.3793713E+03  0.7957747E-01  0.3453901E+00
         13   -1    0    0    0    0  0.00000000000E+00  0.00000000000E+00  0.14999999963E+04  0.15000000000E+04  0.10566000000E+00 0.  1.
        994   -1    0    0    0    0 -0.00000000000E+00 -0.00000000000E+00  0.11368683772E-12  0.17120000000E+03  0.17120000000E+03 0.  0.
         13    1    1    2    0    0 -0.10724764658E+02  0.25983612380E+02  0.83046530647E+02  0.87675002742E+02  0.10566000000E+00 0.  1.
        994    1    1    2    0    0  0.86964866249E+01 -0.26783982250E+02  0.71118964486E+01  0.17364627740E+03  0.17120000000E+03 0.  0.
        998    1    1    2    0    0  0.20282780328E+01  0.80036987023E+00  0.14098415692E+04  0.14098787199E+04  0.10000000000E+02 0.  1.
</event>
<event>
 5    1  0.1271464E-008  0.3766028E+03  0.7957747E-01  0.3466085E+00
         13   -1    0    0    0    0  0.00000000000E+00  0.00000000000E+00  0.14999999963E+04  0.15000000000E+04  0.10566000000E+00 0.  1.
        994   -1    0    0    0    0 -0.00000000000E+00 -0.00000000000E+00  0.11368683772E-12  0.17120000000E+03  0.17120000000E+03 0.  0.
         13    1    1    2    0    0 -0.24924919035E+02  0.25088761426E+02  0.38758324148E+02  0.52468241762E+02  0.10566000000E+00 0.  1.
        994    1    1    2    0    0  0.78135732417E+01 -0.10132832128E+02  0.15059813566E+02  0.17233677553E+03  0.17120000000E+03 0.  0.
        998    1    1    2    0    0  0.17111345794E+02 -0.14955929298E+02  0.14461818586E+04  0.14463949827E+04  0.10000000000E+02 0.  1.
</event>
<event>
 5    1  0.1271464E-008  0.3794200E+03  0.7957747E-01  0.3453688E+00
         13   -1    0    0    0    0  0.00000000000E+00  0.00000000000E+00  0.14999999963E+04  0.15000000000E+04  0.10566000000E+00 0.  1.
        994   -1    0    0    0    0 -0.00000000000E+00 -0.00000000000E+00  0.11368683772E-12  0.17120000000E+03  0.17120000000E+03 0.  0.
         13    1    1    2    0    0 -0.41959976757E+02  0.22791075152E+02  0.25633760072E+03  0.26074709866E+03  0.10566000000E+00 0.  1.
        994    1    1    2    0    0  0.28745829382E+02 -0.42661188274E+01  0.72599620778E+01  0.17380066032E+03  0.17120000000E+03 0.  0.
        998    1    1    2    0    0  0.13214147374E+02 -0.18524956325E+02  0.12364024335E+04  0.12366522410E+04  0.10000000000E+02 0.  1.
</event>
<event>
 5    1  0.1271464E-008  0.3808427E+03  0.7957747E-01  0.3447498E+00
         13   -1    0    0    0    0  0.00000000000E+00  0.00000000000E+00  0.14999999963E+04  0.15000000000E+04  0.10566000000E+00 0.  1.
        994   -1    0    0    0    0 -0.00000000000E+00 -0.00000000000E+00  0.11368683772E-12  0.17120000000E+03  0.17120000000E+03 0.  0.
         13    1    1    2    0    0  0.45120065144E+02  0.14007094074E+02  0.26231740156E+03  0.26653789465E+03  0.10566000000E+00 0.  1.
        994    1    1    2    0    0 -0.35559951539E+02 -0.28938990161E+02  0.10747567798E+02  0.17755823135E+03  0.17120000000E+03 0.  0.
        998    1    1    2    0    0 -0.95601136050E+01  0.14931896088E+02  0.12269350269E+04  0.12271038740E+04  0.10000000000E+02 0.  1.
</event>
<event>
 5    1  0.1936718E-008  0.3858667E+03  0.7957747E-01  0.3426005E+00
         13   -1    0    0    0    0  0.00000000000E+00  0.00000000000E+00  0.14999999963E+04  0.15000000000E+04  0.10566000000E+00 0. -1.
        994   -1    0    0    0    0 -0.00000000000E+00 -0.00000000000E+00  0.11368683772E-12  0.17120000000E+03  0.17120000000E+03 0.  0.
         13    1    1    2    0    0  0.98216802268E+01 -0.28014350826E+01  0.43072765397E+02  0.44267230814E+02  0.10566000000E+00 0. -1.
        994    1    1    2    0    0 -0.92256028698E+01  0.35803007704E+01  0.15216704247E+01  0.17149252399E+03  0.17120000000E+03 0.  0.
        998    1    1    2    0    0 -0.59607735696E+00 -0.77886568776E+00  0.14554055605E+04  0.14554402452E+04  0.10000000000E+02 0. -1.
</event>
<event>
 5    1  0.1271464E-008  0.3859550E+03  0.7957747E-01  0.3425632E+00
         13   -1    0    0    0    0  0.00000000000E+00  0.00000000000E+00  0.14999999963E+04  0.15000000000E+04  0.10566000000E+00 0. -1.
        994   -1    0    0    0    0 -0.00000000000E+00 -0.00000000000E+00  0.11368683772E-12  0.17120000000E+03  0.17120000000E+03 0.  0.
         13    1    1    2    0    0 -0.28818674114E+01  0.10510505505E+02  0.50073092213E+02  0.51245503350E+02  0.10566000000E+00 0. -1.
        994    1    1    2    0    0  0.67468062875E+01 -0.11481543099E+02  0.17383811057E+01  0.17172596541E+03  0.17120000000E+03 0.  0.
        998    1    1    2    0    0 -0.38649388761E+01  0.97103759345E+00  0.14481885230E+04  0.14482285312E+04  0.10000000000E+02 0. -1.
</event>
<event>
 5    1  0.1271464E-008  0.3802717E+03  0.7957747E-01  0.3449976E+00
         13   -1    0    0    0    0  0.00000000000E+00  0.00000000000E+00  0.14999999963E+04  0.15000000000E+04  0.10566000000E+00 0.  1.
        994   -1    0    0    0    0 -0.00000000000E+00 -0.00000000000E+00  0.11368683772E-12  0.17120000000E+03  0.17120000000E+03 0.  0.
         13    1    1    2    0    0 -0.14794066545E+02 -0.87705864423E+01  0.33769825724E+02  0.37897227932E+02  0.10566000000E+00 0.  1.
        994    1    1    2    0    0  0.20021119157E+02  0.18392575731E+02  0.64686085711E+01  0.17346588988E+03  0.17120000000E+03 0.  0.
        998    1    1    2    0    0 -0.52270526114E+01 -0.96219892883E+01  0.14597615620E+04  0.14598368822E+04  0.10000000000E+02 0.  1.
</event>
<event>
 5    1  0.1271464E-008  0.3773168E+03  0.7957747E-01  0.3462925E+00
         13   -1    0    0    0    0  0.00000000000E+00  0.00000000000E+00  0.14999999963E+04  0.15000000000E+04  0.10566000000E+00 0. -1.
        994   -1    0    0    0    0 -0.00000000000E+00 -0.00000000000E+00  0.11368683772E-12  0.17120000000E+03  0.17120000000E+03 0.  0.
         13    1    1    2    0    0 -0.40862893180E+02  0.17923505219E+02  0.17741027090E+03  0.18293562655E+03  0.10566000000E+00 0. -1.
        994    1    1    2    0    0  0.29090379968E+02 -0.29361475614E+01  0.83825020810E+01  0.17388092912E+03  0.17120000000E+03 0.  0.
        998    1    1    2    0    0  0.11772513212E+02 -0.14987357658E+02  0.13142072233E+04  0.13143834443E+04  0.10000000000E+02 0. -1.
</event>
<event>
 5    1  0.1271464E-008  0.3850464E+03  0.7957747E-01  0.3429475E+00
         13   -1    0    0    0    0  0.00000000000E+00  0.00000000000E+00  0.14999999963E+04  0.15000000000E+04  0.10566000000E+00 0.  1.
        994   -1    0    0    0    0 -0.00000000000E+00 -0.00000000000E+00  0.11368683772E-12  0.17120000000E+03  0.17120000000E+03 0.  0.
         13    1    1    2    0    0 -0.19658701539E+02 -0.31632304853E+01  0.11495251142E+03  0.11666431168E+03  0.10566000000E+00 0.  1.
        994    1    1    2    0    0  0.20329738718E+02  0.60053069464E+01  0.30860604386E+01  0.17253499864E+03  0.17120000000E+03 0.  0.
        998    1    1    2    0    0 -0.67103717985E+00 -0.28420764611E+01  0.13819614244E+04  0.13820006897E+04  0.10000000000E+02 0.  1.
</event>
<event>
 5    1  0.1271464E-008  0.3849397E+03  0.7957747E-01  0.3429928E+00
         13   -1    0    0    0    0  0.00000000000E+00  0.00000000000E+00  0.14999999963E+04  0.15000000000E+04  0.10566000000E+00 0.  1.
        994   -1    0    0    0    0 -0.00000000000E+00 -0.00000000000E+00  0.11368683772E-12  0.17120000000E+03  0.17120000000E+03 0.  0.
         13    1    1    2    0    0 -0.98484667433E+01  0.13811842448E+02  0.90815356298E+02  0.92386142860E+02  0.10566000000E+00 0.  1.
        994    1    1    2    0    0  0.10780530279E+02  0.17054319931E+01  0.20520197926E+01  0.17155984121E+03  0.17120000000E+03 0.  0.
        998    1    1    2    0    0 -0.93206353536E+00 -0.15517274441E+02  0.14071326202E+04  0.14072540159E+04  0.10000000000E+02 0.  1.
</event>
<event>
 5    1  0.1271464E-008  0.3745050E+03  0.7957747E-01  0.3475439E+00
         13   -1    0    0    0    0  0.00000000000E+00  0.00000000000E+00  0.14999999963E+04  0.15000000000E+04  0.10566000000E+00 0.  1.
        994   -1    0    0    0    0 -0.00000000000E+00 -0.00000000000E+00  0.11368683772E-12  0.17120000000E+03  0.17120000000E+03 0.  0.
         13    1    1    2    0    0 -0.12100601867E+03 -0.76135053758E+02  0.79986536747E+03  0.81254145753E+03  0.10566000000E+00 0.  1.
        994    1    1    2    0    0  0.10529590439E+03  0.76576892509E+02  0.67038423984E+02  0.22528834466E+03  0.17120000000E+03 0.  0.
        998    1    1    2    0    0  0.15710114275E+02 -0.44183875118E+00  0.63309620483E+03  0.63337019781E+03  0.10000000000E+02 0.  1.
</event>
<event>
 5    1  0.1271464E-008  0.3839936E+03  0.7957747E-01  0.3433952E+00
         13   -1    0    0    0    0  0.00000000000E+00  0.00000000000E+00  0.14999999963E+04  0.15000000000E+04  0.10566000000E+00 0. -1.
        994   -1    0    0    0    0 -0.00000000000E+00 -0.00000000000E+00  0.11368683772E-12  0.17120000000E+03  0.17120000000E+03 0.  0.
         13    1    1    2    0    0 -0.15722148455E+02 -0.12295438193E+01  0.57514592646E+02  0.59637549089E+02  0.10566000000E+00 0. -1.
        994    1    1    2    0    0  0.13154078681E+02 -0.15467681553E+02  0.34921019316E+01  0.17243524505E+03  0.17120000000E+03 0.  0.
        998    1    1    2    0    0  0.25680697742E+01  0.16697225373E+02  0.14389933017E+04  0.14391272059E+04  0.10000000000E+02 0. -1.
</event>
<event>
 5    1  0.1271464E-008  0.3600108E+03  0.7957747E-01  0.3543098E+00
         13   -1    0    0    0    0  0.00000000000E+00  0.00000000000E+00  0.14999999963E+04  0.15000000000E+04  0.10566000000E+00 0.  1.
        994   -1    0    0    0    0 -0.00000000000E+00 -0.00000000000E+00  0.11368683772E-12  0.17120000000E+03  0.17120000000E+03 0.  0.
         13    1    1    2    0    0 -0.20137858277E+03 -0.60225984084E+02  0.11126679410E+04  0.11323473234E+04  0.10566000000E+00 0.  1.
        994    1    1    2    0    0  0.18443463940E+03  0.60114562134E+02  0.14671000923E+03  0.29742757706E+03  0.17120000000E+03 0.  0.
        998    1    1    2    0    0  0.16943943376E+02  0.11142194931E+00  0.24062204609E+03  0.24142509955E+03  0.10000000000E+02 0. -1.
</event>
<event>
 5    1  0.1271464E-008  0.3729270E+03  0.7957747E-01  0.3482546E+00
         13   -1    0    0    0    0  0.00000000000E+00  0.00000000000E+00  0.14999999963E+04  0.15000000000E+04  0.10566000000E+00 0.  1.
        994   -1    0    0    0    0 -0.00000000000E+00 -0.00000000000E+00  0.11368683772E-12  0.17120000000E+03  0.17120000000E+03 0.  0.
         13    1    1    2    0    0 -0.10052203552E+02  0.37309360226E+02  0.93664335258E+02  0.10132153779E+03  0.10566000000E+00 0.  1.
        994    1    1    2    0    0  0.23997990291E+02 -0.18307456620E+02  0.10872177892E+02  0.17418011011E+03  0.17120000000E+03 0.  0.
        998    1    1    2    0    0 -0.13945786738E+02 -0.19001903606E+02  0.13954634831E+04  0.13956983521E+04  0.10000000000E+02 0.  1.
</event>
<event>
 5    1  0.1271464E-008  0.3841133E+03  0.7957747E-01  0.3433442E+00
         13   -1    0    0    0    0  0.00000000000E+00  0.00000000000E+00  0.14999999963E+04  0.15000000000E+04  0.10566000000E+00 0.  1.
        994   -1    0    0    0    0 -0.00000000000E+00 -0.00000000000E+00  0.11368683772E-12  0.17120000000E+03  0.17120000000E+03 0.  0.
         13    1    1    2    0    0 -0.18723836727E+02 -0.54715460236E+01  0.11525289775E+03  0.11689209332E+03  0.10566000000E+00 0.  1.
        994    1    1    2    0    0 -0.24666219499E+02  0.32928720148E+02  0.76739198295E+01  0.17624145948E+03  0.17120000000E+03 0.  0.
        998    1    1    2    0    0  0.43390056226E+02 -0.27457174124E+02  0.13770731787E+04  0.13780664472E+04  0.10000000000E+02 0.  1.
</event>
<event>
 5    1  0.1271464E-008  0.3729764E+03  0.7957747E-01  0.3482323E+00
         13   -1    0    0    0    0  0.00000000000E+00  0.00000000000E+00  0.14999999963E+04  0.15000000000E+04  0.10566000000E+00 0. -1.
        994   -1    0    0    0    0 -0.00000000000E+00 -0.00000000000E+00  0.11368683772E-12  0.17120000000E+03  0.17120000000E+03 0.  0.
         13    1    1    2    0    0  0.16877755604E+02  0.12511043867E+02  0.12464519755E+02  0.24428677198E+02  0.10566000000E+00 0. -1.
        994    1    1    2    0    0 -0.74972058648E+01  0.41386977185E+00  0.12720582358E+02  0.17183606315E+03  0.17120000000E+03 0.  0.
        998    1    1    2    0    0 -0.93805497394E+01 -0.12924913639E+02  0.14748148942E+04  0.14749352597E+04  0.10000000000E+02 0. -1.
</event>
<event>
 5    1  0.1271464E-008  0.3689354E+03  0.7957747E-01  0.3500798E+00
         13   -1    0    0    0    0  0.00000000000E+00  0.00000000000E+00  0.14999999963E+04  0.15000000000E+04  0.10566000000E+00 0. -1.
        994   -1    0    0    0    0 -0.00000000000E+00 -0.00000000000E+00  0.11368683772E-12  0.17120000000E+03  0.17120000000E+03 0.  0.
         13    1    1    2    0    0  0.10150952337E+02  0.37993429661E+01  0.79328401885E+00  0.10868178499E+02  0.10566000000E+00 0. -1.
        994    1    1    2    0    0 -0.10468429010E+02 -0.43415883974E+01  0.10824426151E+02  0.17191580962E+03  0.17120000000E+03 0.  0.
        998    1    1    2    0    0  0.31747667396E+00  0.54224543133E+00  0.14883822861E+04  0.14884160119E+04  0.10000000000E+02 0. -1.
</event>
<event>
 5    1  0.1271464E-008  0.3844753E+03  0.7957747E-01  0.3431901E+00
         13   -1    0    0    0    0  0.00000000000E+00  0.00000000000E+00  0.14999999963E+04  0.15000000000E+04  0.10566000000E+00 0.  1.
        994   -1    0    0    0    0 -0.00000000000E+00 -0.00000000000E+00  0.11368683772E-12  0.17120000000E+03  0.17120000000E+03 0.  0.
         13    1    1    2    0    0 -0.89786385541E+01  0.98324311640E+01  0.46706374754E+02  0.48567368258E+02  0.10566000000E+00 0.  1.
        994    1    1    2    0    0  0.32962745264E+01 -0.83040372766E+01  0.21538729437E+01  0.17144649786E+03  0.17120000000E+03 0.  0.
        998    1    1    2    0    0  0.56823640277E+01 -0.15283938874E+01  0.14511397486E+04  0.14511861339E+04  0.10000000000E+02 0.  1.
</event>
<event>
 5    1  0.1271464E-008  0.3851174E+03  0.7957747E-01  0.3429175E+00
         13   -1    0    0    0    0  0.00000000000E+00  0.00000000000E+00  0.14999999963E+04  0.15000000000E+04  0.10566000000E+00 0.  1.
        994   -1    0    0    0    0 -0.00000000000E+00 -0.00000000000E+00  0.11368683772E-12  0.17120000000E+03  0.17120000000E+03 0.  0.
         13    1    1    2    0    0 -0.10747008884E+02  0.41184788803E+01  0.41781648269E+02  0.43337943702E+02  0.10566000000E+00 0.  1.
        994    1    1    2    0    0  0.78504516741E+01 -0.49729088140E+01  0.18558305036E+01  0.17146207604E+03  0.17120000000E+03 0.  0.
        998    1    1    2    0    0  0.28965572095E+01  0.85442993372E+00  0.14563625175E+04  0.14563999803E+04  0.10000000000E+02 0.  1.
</event>
<event>
 5    1  0.1271464E-008  0.3785764E+03  0.7957747E-01  0.3457381E+00
         13   -1    0    0    0    0  0.00000000000E+00  0.00000000000E+00  0.14999999963E+04  0.15000000000E+04  0.10566000000E+00 0.  1.
        994   -1    0    0    0    0 -0.00000000000E+00 -0.00000000000E+00  0.11368683772E-12  0.17120000000E+03  0.17120000000E+03 0.  0.
         13    1    1    2    0    0  0.28982720113E+02 -0.38528404266E+01  0.95640239887E+02  0.10000954502E+03  0.10566000000E+00 0.  1.
        994    1    1    2    0    0  0.25797398826E+01 -0.72862493338E+01  0.50541709818E+01  0.17144891114E+03  0.17120000000E+03 0.  0.
        998    1    1    2    0    0 -0.31562459996E+02  0.11139089760E+02  0.13993055854E+04  0.13997415438E+04  0.10000000000E+02 0.  1.
</event>
<event>
 5    1  0.1271464E-008  0.3843820E+03  0.7957747E-01  0.3432297E+00
         13   -1    0    0    0    0  0.00000000000E+00  0.00000000000E+00  0.14999999963E+04  0.15000000000E+04  0.10566000000E+00 0.  1.
        994   -1    0    0    0    0 -0.00000000000E+00 -0.00000000000E+00  0.11368683772E-12  0.17120000000E+03  0.17120000000E+03 0.  0.
         13    1    1    2    0    0  0.43405845992E+01  0.11206674973E+02  0.38056109179E+02  0.39908756539E+02  0.10566000000E+00 0.  1.
        994    1    1    2    0    0  0.71067342149E+01 -0.41072565475E+01  0.21593008927E+01  0.17141026168E+03  0.17120000000E+03 0.  0.
        998    1    1    2    0    0 -0.11447318814E+02 -0.70994184250E+01  0.14597845862E+04  0.14598809818E+04  0.10000000000E+02 0.  1.
</event>
<event>
 5    1  0.1271464E-008  0.3569918E+03  0.7957747E-01  0.3557897E+00
         13   -1    0    0    0    0  0.00000000000E+00  0.00000000000E+00  0.14999999963E+04  0.15000000000E+04  0.10566000000E+00 0. -1.
        994   -1    0    0    0    0 -0.00000000000E+00 -0.00000000000E+00  0.11368683772E-12  0.17120000000E+03  0.17120000000E+03 0.  0.
         13    1    1    2    0    0  0.19904876397E+03  0.25804728555E+03  0.59793679287E+03  0.68098254857E+03  0.10566000000E+00 0. -1.
        994    1    1    2    0    0 -0.16394102950E+03 -0.25100422830E+03  0.65540487949E+03  0.74077309605E+03  0.17120000000E+03 0.  0.
        998    1    1    2    0    0 -0.35107734464E+02 -0.70430572498E+01  0.24665832391E+03  0.24944435538E+03  0.10000000000E+02 0. -1.
</event>
<event>
 5    1  0.1271464E-008  0.3783279E+03  0.7957747E-01  0.3458472E+00
         13   -1    0    0    0    0  0.00000000000E+00  0.00000000000E+00  0.14999999963E+04  0.15000000000E+04  0.10566000000E+00 0.  1.
        994   -1    0    0    0    0 -0.00000000000E+00 -0.00000000000E+00  0.11368683772E-12  0.17120000000E+03  0.17120000000E+03 0.  0.
         13    1    1    2    0    0  0.16057209449E+02 -0.19283559549E+02  0.59682739851E+02  0.64743572997E+02  0.10566000000E+00 0.  1.
        994    1    1    2    0    0 -0.30716455386E+01  0.28013780281E+02  0.76539403457E+01  0.17367276613E+03  0.17120000000E+03 0.  0.
        998    1    1    2    0    0 -0.12985563910E+02 -0.87302207323E+01  0.14326633161E+04  0.14327836609E+04  0.10000000000E+02 0.  1.
</event>
<event>
 5    1  0.1271464E-008  0.3842752E+03  0.7957747E-01  0.3432752E+00
         13   -1    0    0    0    0  0.00000000000E+00  0.00000000000E+00  0.14999999963E+04  0.15000000000E+04  0.10566000000E+00 0.  1.
        994   -1    0    0    0    0 -0.00000000000E+00 -0.00000000000E+00  0.11368683772E-12  0.17120000000E+03  0.17120000000E+03 0.  0.
         13    1    1    2    0    0 -0.18274214563E+02  0.16408075896E+00  0.87681208408E+02  0.89565502914E+02  0.10566000000E+00 0.  1.
        994    1    1    2    0    0  0.46390313701E+01  0.26313343934E+01  0.20841634631E+01  0.17129573337E+03  0.17120000000E+03 0.  0.
        998    1    1    2    0    0  0.13635183193E+02 -0.27954151524E+01  0.14102346244E+04  0.14103387637E+04  0.10000000000E+02 0.  1.
</event>
<event>
 5    1  0.1271464E-008  0.3804610E+03  0.7957747E-01  0.3449154E+00
         13   -1    0    0    0    0  0.00000000000E+00  0.00000000000E+00  0.14999999963E+04  0.15000000000E+04  0.10566000000E+00 0.  1.
        994   -1    0    0    0    0 -0.00000000000E+00 -0.00000000000E+00  0.11368683772E-12  0.17120000000E+03  0.17120000000E+03 0.  0.
         13    1    1    2    0    0 -0.24280421470E+03  0.27999533935E+02  0.10955022966E+04  0.11224362582E+04  0.10566000000E+00 0.  1.
        994    1    1    2    0    0  0.24014086906E+03 -0.25371650810E+02  0.23240840861E+03  0.37634354791E+03  0.17120000000E+03 0.  0.
        998    1    1    2    0    0  0.26633456366E+01 -0.26278831258E+01  0.17208929107E+03  0.17242019394E+03  0.10000000000E+02 0.  0.
</event>
<event>
 5    1  0.1271464E-008  0.3831046E+03  0.7957747E-01  0.3437751E+00
         13   -1    0    0    0    0  0.00000000000E+00  0.00000000000E+00  0.14999999963E+04  0.15000000000E+04  0.10566000000E+00 0. -1.
        994   -1    0    0    0    0 -0.00000000000E+00 -0.00000000000E+00  0.11368683772E-12  0.17120000000E+03  0.17120000000E+03 0.  0.
         13    1    1    2    0    0 -0.12238547879E+02  0.40431973042E+01  0.32294613198E+02  0.34771866563E+02  0.10566000000E+00 0. -1.
        994    1    1    2    0    0  0.30480889335E+01  0.43818954635E+01  0.26684041522E+01  0.17130397612E+03  0.17120000000E+03 0.  0.
        998    1    1    2    0    0  0.91904589460E+01 -0.84250927677E+01  0.14650369789E+04  0.14651241573E+04  0.10000000000E+02 0. -1.
</event>
<event>
 5    1  0.1271464E-008  0.3826713E+03  0.7957747E-01  0.3439609E+00
         13   -1    0    0    0    0  0.00000000000E+00  0.00000000000E+00  0.14999999963E+04  0.15000000000E+04  0.10566000000E+00 0.  1.
        994   -1    0    0    0    0 -0.00000000000E+00 -0.00000000000E+00  0.11368683772E-12  0.17120000000E+03  0.17120000000E+03 0.  0.
         13    1    1    2    0    0 -0.14793515865E+02 -0.24214601877E+02  0.12472181512E+03  0.12790909814E+03  0.10566000000E+00 0.  1.
        994    1    1    2    0    0  0.11214944331E+02  0.37707360605E+02  0.79360511257E+01  0.17584095350E+03  0.17120000000E+03 0.  0.
        998    1    1    2    0    0  0.35785715339E+01 -0.13492758728E+02  0.13673421300E+04  0.13674499484E+04  0.10000000000E+02 0.  1.
</event>
<event>
 5    1  0.1271464E-008  0.3755706E+03  0.7957747E-01  0.3470675E+00
         13   -1    0    0    0    0  0.00000000000E+00  0.00000000000E+00  0.14999999963E+04  0.15000000000E+04  0.10566000000E+00 0. -1.
        994   -1    0    0    0    0 -0.00000000000E+00 -0.00000000000E+00  0.11368683772E-12  0.17120000000E+03  0.17120000000E+03 0.  0.
         13    1    1    2    0    0 -0.61589485452E+01 -0.14395153767E+02  0.16875967431E+02  0.23020915271E+02  0.10566000000E+00 0. -1.
        994    1    1    2    0    0  0.87685337922E+01 -0.43680495340E+01  0.67116804191E+01  0.17161134489E+03  0.17120000000E+03 0.  0.
        998    1    1    2    0    0 -0.26095852470E+01  0.18763203301E+02  0.14764123484E+04  0.14765677398E+04  0.10000000000E+02 0. -1.
</event>
<event>
 5    1  0.1271464E-008  0.3816049E+03  0.7957747E-01  0.3444200E+00
         13   -1    0    0    0    0  0.00000000000E+00  0.00000000000E+00  0.14999999963E+04  0.15000000000E+04  0.10566000000E+00 0. -1.
        994   -1    0    0    0    0 -0.00000000000E+00 -0.00000000000E+00  0.11368683772E-12  0.17120000000E+03  0.17120000000E+03 0.  0.
         13    1    1    2    0    0 -0.71996899811E+01  0.22684734808E+02  0.13590633898E+03  0.13797455152E+03  0.10566000000E+00 0. -1.
        994    1    1    2    0    0  0.11138011372E+02  0.56447058508E+02  0.14412232328E+02  0.18118354824E+03  0.17120000000E+03 0.  0.
        998    1    1    2    0    0 -0.39383213910E+01 -0.79131793316E+02  0.13496814250E+04  0.13520419002E+04  0.10000000000E+02 0. -1.
</event>
<event>
 5    1  0.1271464E-008  0.3829591E+03  0.7957747E-01  0.3438374E+00
         13   -1    0    0    0    0  0.00000000000E+00  0.00000000000E+00  0.14999999963E+04  0.15000000000E+04  0.10566000000E+00 0. -1.
        994   -1    0    0    0    0 -0.00000000000E+00 -0.00000000000E+00  0.11368683772E-12  0.17120000000E+03  0.17120000000E+03 0.  0.
         13    1    1    2    0    0 -0.20436824012E+02 -0.15166022118E+02  0.12494235856E+03  0.12750794535E+03  0.10566000000E+00 0. -1.
        994    1    1    2    0    0  0.16861011971E+02 -0.28985492369E+01  0.36163793566E+01  0.17209071303E+03  0.17120000000E+03 0.  0.
        998    1    1    2    0    0  0.35758120410E+01  0.18064571355E+02  0.13714412584E+04  0.13716013416E+04  0.10000000000E+02 0. -1.
</event>
<event>
 5    1  0.1271464E-008  0.3830497E+03  0.7957747E-01  0.3437986E+00
         13   -1    0    0    0    0  0.00000000000E+00  0.00000000000E+00  0.14999999963E+04  0.15000000000E+04  0.10566000000E+00 0. -1.
        994   -1    0    0    0    0 -0.00000000000E+00 -0.00000000000E+00  0.11368683772E-12  0.17120000000E+03  0.17120000000E+03 0.  0.
         13    1    1    2    0    0  0.16103764172E+02 -0.23886164672E+01  0.89075236627E+02  0.90550790462E+02  0.10566000000E+00 0. -1.
        994    1    1    2    0    0  0.71291392386E+02 -0.29947697572E+02  0.22648906297E+02  0.18921347778E+03  0.17120000000E+03 0.  0.
        998    1    1    2    0    0 -0.87395156559E+02  0.32336314039E+02  0.13882758534E+04  0.13914357318E+04  0.10000000000E+02 0. -1.
</event>
<event>
 5    1  0.1271464E-008  0.3778286E+03  0.7957747E-01  0.3460668E+00
         13   -1    0    0    0    0  0.00000000000E+00  0.00000000000E+00  0.14999999963E+04  0.15000000000E+04  0.10566000000E+00 0.  1.
        994   -1    0    0    0    0 -0.00000000000E+00 -0.00000000000E+00  0.11368683772E-12  0.17120000000E+03  0.17120000000E+03 0.  0.
         13    1    1    2    0    0 -0.16755323413E+02  0.13575355327E+02  0.44074318197E+02  0.49067176641E+02  0.10566000000E+00 0.  1.
        994    1    1    2    0    0 -0.34460786252E+01 -0.79169025770E+01  0.54843409343E+01  0.17150530837E+03  0.17120000000E+03 0.  0.
        998    1    1    2    0    0  0.20201402038E+02 -0.56584527503E+01  0.14504413371E+04  0.14506275150E+04  0.10000000000E+02 0.  1.
</event>
<event>
 5    1  0.1271464E-008  0.3786025E+03  0.7957747E-01  0.3457266E+00
         13   -1    0    0    0    0  0.00000000000E+00  0.00000000000E+00  0.14999999963E+04  0.15000000000E+04  0.10566000000E+00 0. -1.
        994   -1    0    0    0    0 -0.00000000000E+00 -0.00000000000E+00  0.11368683772E-12  0.17120000000E+03  0.17120000000E+03 0.  0.
         13    1    1    2    0    0  0.10885789070E+02  0.18148392936E+02  0.74156158842E+01  0.22424698277E+02  0.10566000000E+00 0. -1.
        994    1    1    2    0    0 -0.17418991256E+02 -0.15701892240E+02  0.17546842045E+02  0.17368736955E+03  0.17120000000E+03 0.  0.
        998    1    1    2    0    0  0.65332021861E+01 -0.24465006960E+01  0.14750375383E+04  0.14750879322E+04  0.10000000000E+02 0. -1.
</event>
<event>
 5    1  0.1271464E-008  0.3770913E+03  0.7957747E-01  0.3463922E+00
         13   -1    0    0    0    0  0.00000000000E+00  0.00000000000E+00  0.14999999963E+04  0.15000000000E+04  0.10566000000E+00 0. -1.
        994   -1    0    0    0    0 -0.00000000000E+00 -0.00000000000E+00  0.11368683772E-12  0.17120000000E+03  0.17120000000E+03 0.  0.
         13    1    1    2    0    0 -0.19916300818E+02  0.21579822265E+02  0.75224758163E+02  0.80753471578E+02  0.10566000000E+00 0. -1.
        994    1    1    2    0    0  0.14428982944E+02 -0.98931387999E+01  0.66424548584E+01  0.17221971998E+03  0.17120000000E+03 0.  0.
        998    1    1    2    0    0  0.54873178739E+01 -0.11686683465E+02  0.14181327833E+04  0.14182268084E+04  0.10000000000E+02 0. -1.
</event>
<event>
 5    1  0.1271464E-008  0.3827867E+03  0.7957747E-01  0.3439114E+00
         13   -1    0    0    0    0  0.00000000000E+00  0.00000000000E+00  0.14999999963E+04  0.15000000000E+04  0.10566000000E+00 0. -1.
        994   -1    0    0    0    0 -0.00000000000E+00 -0.00000000000E+00  0.11368683772E-12  0.17120000000E+03  0.17120000000E+03 0.  0.
         13    1    1    2    0    0  0.32669316932E+02  0.47418770369E+02  0.31844613312E+03  0.32361052967E+03  0.10566000000E+00 0. -1.
        994    1    1    2    0    0 -0.17747951691E+02 -0.10938343984E+03  0.44533232419E+02  0.20873997099E+03  0.17120000000E+03 0.  0.
        998    1    1    2    0    0 -0.14921365241E+02  0.61964669473E+02  0.11370206307E+04  0.11388494993E+04  0.10000000000E+02 0. -1.
</event>
<event>
 5    1  0.1271464E-008  0.3835419E+03  0.7957747E-01  0.3435880E+00
         13   -1    0    0    0    0  0.00000000000E+00  0.00000000000E+00  0.14999999963E+04  0.15000000000E+04  0.10566000000E+00 0.  1.
        994   -1    0    0    0    0 -0.00000000000E+00 -0.00000000000E+00  0.11368683772E-12  0.17120000000E+03  0.17120000000E+03 0.  0.
         13    1    1    2    0    0  0.28295175003E+01  0.11666171956E+02  0.29409766630E+02  0.31765567438E+02  0.10566000000E+00 0.  1.
        994    1    1    2    0    0  0.73397643853E+01 -0.14348586256E+02  0.32145572833E+01  0.17198699790E+03  0.17120000000E+03 0.  0.
        998    1    1    2    0    0 -0.10169281886E+02  0.26824142992E+01  0.14673756724E+04  0.14674474347E+04  0.10000000000E+02 0.  1.
</event>
<event>
 5    1  0.1655326E-008  0.3857335E+03  0.7957747E-01  0.3426567E+00
         13   -1    0    0    0    0  0.00000000000E+00  0.00000000000E+00  0.14999999963E+04  0.15000000000E+04  0.10566000000E+00 0.  1.
        994   -1    0    0    0    0 -0.00000000000E+00 -0.00000000000E+00  0.11368683772E-12  0.17120000000E+03  0.17120000000E+03 0.  0.
         13    1    1    2    0    0  0.15843969056E+01 -0.10099898888E+02  0.42274794368E+02  0.43493536002E+02  0.10566000000E+00 0.  1.
        994    1    1    2    0    0  0.96963336031E+00  0.40979916638E+01  0.13245819850E+01  0.17125690714E+03  0.17120000000E+03 0.  0.
        998    1    1    2    0    0 -0.25540302659E+01  0.60019072243E+01  0.14564006199E+04  0.14564495569E+04  0.10000000000E+02 0.  1.
</event>
<event>
 5    1  0.1271464E-008  0.3733237E+03  0.7957747E-01  0.3480754E+00
         13   -1    0    0    0    0  0.00000000000E+00  0.00000000000E+00  0.14999999963E+04  0.15000000000E+04  0.10566000000E+00 0. -1.
        994   -1    0    0    0    0 -0.00000000000E+00 -0.00000000000E+00  0.11368683772E-12  0.17120000000E+03  0.17120000000E+03 0.  0.
         13    1    1    2    0    0 -0.14364902471E+02  0.41619692245E+02  0.14148851591E+03  0.14818083717E+03  0.10566000000E+00 0. -1.
        994    1    1    2    0    0  0.70437512691E+01  0.10475159879E+00  0.77117231591E+01  0.17151832578E+03  0.17120000000E+03 0.  0.
        998    1    1    2    0    0  0.73211512020E+01 -0.41724443844E+02  0.13507997572E+04  0.13515008370E+04  0.10000000000E+02 0. -1.
</event>
<event>
 5    1  0.1271464E-008  0.3787190E+03  0.7957747E-01  0.3456755E+00
         13   -1    0    0    0    0  0.00000000000E+00  0.00000000000E+00  0.14999999963E+04  0.15000000000E+04  0.10566000000E+00 0. -1.
        994   -1    0    0    0    0 -0.00000000000E+00 -0.00000000000E+00  0.11368683772E-12  0.17120000000E+03  0.17120000000E+03 0.  0.
         13    1    1    2    0    0  0.53469929435E+02  0.48636487931E+02  0.33724089571E+03  0.34489994812E+03  0.10566000000E+00 0. -1.
        994    1    1    2    0    0 -0.10245857680E+03 -0.35132100224E+02  0.45233962737E+02  0.20757547016E+03  0.17120000000E+03 0.  0.
        998    1    1    2    0    0  0.48988647365E+02 -0.13504387706E+02  0.11175251378E+04  0.11187245817E+04  0.10000000000E+02 0. -1.
</event>
<event>
 5    1  0.1271464E-008  0.3834282E+03  0.7957747E-01  0.3436366E+00
         13   -1    0    0    0    0  0.00000000000E+00  0.00000000000E+00  0.14999999963E+04  0.15000000000E+04  0.10566000000E+00 0. -1.
        994   -1    0    0    0    0 -0.00000000000E+00 -0.00000000000E+00  0.11368683772E-12  0.17120000000E+03  0.17120000000E+03 0.  0.
         13    1    1    2    0    0  0.24553373886E+02  0.41616141784E+00  0.14279651496E+03  0.14489270930E+03  0.10566000000E+00 0. -1.
        994    1    1    2    0    0  0.17516405410E+01  0.11911804721E+02  0.28918397664E+01  0.17164720235E+03  0.17120000000E+03 0.  0.
        998    1    1    2    0    0 -0.26305014427E+02 -0.12327966138E+02  0.13543116416E+04  0.13546600884E+04  0.10000000000E+02 0. -1.
</event>
<event>
 5    1  0.1271464E-008  0.3775749E+03  0.7957747E-01  0.3461786E+00
         13   -1    0    0    0    0  0.00000000000E+00  0.00000000000E+00  0.14999999963E+04  0.15000000000E+04  0.10566000000E+00 0.  1.
        994   -1    0    0    0    0 -0.00000000000E+00 -0.00000000000E+00  0.11368683772E-12  0.17120000000E+03  0.17120000000E+03 0.  0.
         13    1    1    2    0    0  0.66081780870E+01 -0.26483073122E+02  0.82549743858E+02  0.86945342341E+02  0.10566000000E+00 0.  1.
        994    1    1    2    0    0 -0.47651515246E+01 -0.31728479329E+02  0.88391904815E+01  0.17440462826E+03  0.17120000000E+03 0.  0.
        998    1    1    2    0    0 -0.18430265623E+01  0.58211552451E+02  0.14086110619E+04  0.14098500294E+04  0.10000000000E+02 0.  1.
</event>
<event>
 5    1  0.1271464E-008  0.3710569E+03  0.7957747E-01  0.3491048E+00
         13   -1    0    0    0    0  0.00000000000E+00  0.00000000000E+00  0.14999999963E+04  0.15000000000E+04  0.10566000000E+00 0.  1.
        994   -1    0    0    0    0 -0.00000000000E+00 -0.00000000000E+00  0.11368683772E-12  0.17120000000E+03  0.17120000000E+03 0.  0.
         13    1    1    2    0    0  0.46928362130E+02  0.37934236451E+02  0.17431067446E+03  0.18446002239E+03  0.10566000000E+00 0.  1.
        994    1    1    2    0    0 -0.50943783934E+02 -0.47559511492E+02  0.25641855765E+02  0.18661222099E+03  0.17120000000E+03 0.  0.
        998    1    1    2    0    0  0.40154218045E+01  0.96252750418E+01  0.13000474661E+04  0.13001277566E+04  0.10000000000E+02 0.  1.
</event>
<event>
 5    1  0.1271464E-008  0.3687051E+03  0.7957747E-01  0.3501863E+00
         13   -1    0    0    0    0  0.00000000000E+00  0.00000000000E+00  0.14999999963E+04  0.15000000000E+04  0.10566000000E+00 0. -1.
        994   -1    0    0    0    0 -0.00000000000E+00 -0.00000000000E+00  0.11368683772E-12  0.17120000000E+03  0.17120000000E+03 0.  0.
         13    1    1    2    0    0 -0.44763177552E+02 -0.22243508298E+02  0.18243954846E+03  0.18916319867E+03  0.10566000000E+00 0. -1.
        994    1    1    2    0    0 -0.80691110992E+02  0.71761866427E+02  0.51616000937E+02  0.20888866034E+03  0.17120000000E+03 0.  0.
        998    1    1    2    0    0  0.12545428854E+03 -0.49518358129E+02  0.12659444469E+04  0.12731481410E+04  0.10000000000E+02 0. -1.
</event>
<event>
 5    1  0.1271464E-008  0.3854325E+03  0.7957747E-01  0.3427840E+00
         13   -1    0    0    0    0  0.00000000000E+00  0.00000000000E+00  0.14999999963E+04  0.15000000000E+04  0.10566000000E+00 0. -1.
        994   -1    0    0    0    0 -0.00000000000E+00 -0.00000000000E+00  0.11368683772E-12  0.17120000000E+03  0.17120000000E+03 0.  0.
         13    1    1    2    0    0 -0.76056131223E+01 -0.82414986220E+01  0.43884778169E+02  0.45295171591E+02  0.10566000000E+00 0. -1.
        994    1    1    2    0    0  0.10501031522E+02  0.42928349809E+01  0.18383261992E+01  0.17158531271E+03  0.17120000000E+03 0.  0.
        998    1    1    2    0    0 -0.28954183996E+01  0.39486636411E+01  0.14542768919E+04  0.14543195157E+04  0.10000000000E+02 0. -1.
</event>
<event>
 5    1  0.1271464E-008  0.3788499E+03  0.7957747E-01  0.3456182E+00
         13   -1    0    0    0    0  0.00000000000E+00  0.00000000000E+00  0.14999999963E+04  0.15000000000E+04  0.10566000000E+00 0. -1.
        994   -1    0    0    0    0 -0.00000000000E+00 -0.00000000000E+00  0.11368683772E-12  0.17120000000E+03  0.17120000000E+03 0.  0.
         13    1    1    2    0    0  0.73750876119E+01  0.15984397385E+02  0.30616666428E+02  0.35316912439E+02  0.10566000000E+00 0. -1.
        994    1    1    2    0    0 -0.97597802769E+01 -0.12867729725E+02  0.55906019388E+01  0.17205094190E+03  0.17120000000E+03 0.  0.
        998    1    1    2    0    0  0.23846926650E+01 -0.31166676598E+01  0.14637927279E+04  0.14638321457E+04  0.10000000000E+02 0. -1.
</event>
<event>
 5    1  0.1271464E-008  0.3798474E+03  0.7957747E-01  0.3451823E+00
         13   -1    0    0    0    0  0.00000000000E+00  0.00000000000E+00  0.14999999963E+04  0.15000000000E+04  0.10566000000E+00 0.  1.
        994   -1    0    0    0    0 -0.00000000000E+00 -0.00000000000E+00  0.11368683772E-12  0.17120000000E+03  0.17120000000E+03 0.  0.
         13    1    1    2    0    0  0.15794222104E+02  0.58012422923E+01  0.37332916491E+02  0.40949599287E+02  0.10566000000E+00 0.  1.
        994    1    1    2    0    0  0.29260954955E+02  0.23081176895E+02  0.88696836085E+01  0.17543390636E+03  0.17120000000E+03 0.  0.
        998    1    1    2    0    0 -0.45055177059E+02 -0.28882419188E+02  0.14537973962E+04  0.14548164944E+04  0.10000000000E+02 0.  1.
</event>
<event>
 5    1  0.1271464E-008  0.3827308E+03  0.7957747E-01  0.3439354E+00
         13   -1    0    0    0    0  0.00000000000E+00  0.00000000000E+00  0.14999999963E+04  0.15000000000E+04  0.10566000000E+00 0. -1.
        994   -1    0    0    0    0 -0.00000000000E+00 -0.00000000000E+00  0.11368683772E-12  0.17120000000E+03  0.17120000000E+03 0.  0.
         13    1    1    2    0    0  0.16144220379E+02  0.99970090217E+01  0.67339107687E+02  0.69965295891E+02  0.10566000000E+00 0. -1.
        994    1    1    2    0    0 -0.61196342432E+01  0.28727094418E+01  0.29123917328E+01  0.17135817579E+03  0.17120000000E+03 0.  0.
        998    1    1    2    0    0 -0.10024586136E+02 -0.12869718464E+02  0.14297484969E+04  0.14298765283E+04  0.10000000000E+02 0. -1.
</event>
<event>
 5    1  0.1271464E-008  0.3729173E+03  0.7957747E-01  0.3482590E+00
         13   -1    0    0    0    0  0.00000000000E+00  0.00000000000E+00  0.14999999963E+04  0.15000000000E+04  0.10566000000E+00 0.  1.
        994   -1    0    0    0    0 -0.00000000000E+00 -0.00000000000E+00  0.11368683772E-12  0.17120000000E+03  0.17120000000E+03 0.  0.
         13    1    1    2    0    0  0.19931685914E+02  0.20648765400E+02  0.51309173357E+02  0.58790186685E+02  0.10566000000E+00 0.  1.
        994    1    1    2    0    0 -0.55432238049E+01 -0.10302347662E+02  0.82207946922E+01  0.17179606271E+03  0.17120000000E+03 0.  0.
        998    1    1    2    0    0 -0.14388462109E+02 -0.10346417738E+02  0.14404700282E+04  0.14406137506E+04  0.10000000000E+02 0.  1.
</event>
<event>
 5    1  0.1271464E-008  0.3710346E+03  0.7957747E-01  0.3491149E+00
         13   -1    0    0    0    0  0.00000000000E+00  0.00000000000E+00  0.14999999963E+04  0.15000000000E+04  0.10566000000E+00 0. -1.
        994   -1    0    0    0    0 -0.00000000000E+00 -0.00000000000E+00  0.11368683772E-12  0.17120000000E+03  0.17120000000E+03 0.  0.
         13    1    1    2    0    0  0.10077086744E+02 -0.63521421505E+02  0.22518112662E+03  0.23418597229E+03  0.10566000000E+00 0. -1.
        994    1    1    2    0    0  0.84653453818E+01  0.46433284904E+02  0.16443903661E+02  0.17834672407E+03  0.17120000000E+03 0.  0.
        998    1    1    2    0    0 -0.18542432125E+02  0.17088136602E+02  0.12583749660E+04  0.12586673036E+04  0.10000000000E+02 0. -1.
</event>
<event>
 5    1  0.1271464E-008  0.3853145E+03  0.7957747E-01  0.3428340E+00
         13   -1    0    0    0    0  0.00000000000E+00  0.00000000000E+00  0.14999999963E+04  0.15000000000E+04  0.10566000000E+00 0. -1.
        994   -1    0    0    0    0 -0.00000000000E+00 -0.00000000000E+00  0.11368683772E-12  0.17120000000E+03  0.17120000000E+03 0.  0.
         13    1    1    2    0    0  0.34210494467E+01 -0.16770523562E+02  0.93491688953E+02  0.95045573843E+02  0.10566000000E+00 0. -1.
        994    1    1    2    0    0 -0.25757463330E+01  0.18996155939E+02  0.26823265930E+01  0.17229081022E+03  0.17120000000E+03 0.  0.
        998    1    1    2    0    0 -0.84530311364E+00 -0.22256323769E+01  0.14038259807E+04  0.14038636159E+04  0.10000000000E+02 0. -1.
</event>
<event>
 5    1  0.1271464E-008  0.3829199E+03  0.7957747E-01  0.3438542E+00
         13   -1    0    0    0    0  0.00000000000E+00  0.00000000000E+00  0.14999999963E+04  0.15000000000E+04  0.10566000000E+00 0. -1.
        994   -1    0    0    0    0 -0.00000000000E+00 -0.00000000000E+00  0.11368683772E-12  0.17120000000E+03  0.17120000000E+03 0.  0.
         13    1    1    2    0    0 -0.10506940860E+02 -0.89735059168E+01  0.33816867583E+02  0.36530963741E+02  0.10566000000E+00 0. -1.
        994    1    1    2    0    0  0.14118793489E+02  0.10960124141E+02  0.37248757555E+01  0.17217078541E+03  0.17120000000E+03 0.  0.
        998    1    1    2    0    0 -0.36118526292E+01 -0.19866182247E+01  0.14624582529E+04  0.14624982508E+04  0.10000000000E+02 0. -1.
</event>
<event>
 5    1  0.1271464E-008  0.3836758E+03  0.7957747E-01  0.3435308E+00
         13   -1    0    0    0    0  0.00000000000E+00  0.00000000000E+00  0.14999999963E+04  0.15000000000E+04  0.10566000000E+00 0. -1.
        994   -1    0    0    0    0 -0.00000000000E+00 -0.00000000000E+00  0.11368683772E-12  0.17120000000E+03  0.17120000000E+03 0.  0.
         13    1    1    2    0    0 -0.15883403363E+02 -0.53305383096E+01  0.61577618870E+02  0.63816231875E+02  0.10566000000E+00 0. -1.
        994    1    1    2    0    0  0.72425480548E+01  0.48685046855E+01  0.25406058088E+01  0.17144110218E+03  0.17120000000E+03 0.  0.
        998    1    1    2    0    0  0.86408553080E+01  0.46203362412E+00  0.14358817716E+04  0.14359426659E+04  0.10000000000E+02 0. -1.
</event>
<event>
 5    1  0.1271464E-008  0.3714286E+03  0.7957747E-01  0.3489351E+00
         13   -1    0    0    0    0  0.00000000000E+00  0.00000000000E+00  0.14999999963E+04  0.15000000000E+04  0.10566000000E+00 0.  1.
        994   -1    0    0    0    0 -0.00000000000E+00 -0.00000000000E+00  0.11368683772E-12  0.17120000000E+03  0.17120000000E+03 0.  0.
         13    1    1    2    0    0  0.65154982420E+02 -0.43039396563E+01  0.20092490759E+03  0.21126884599E+03  0.10566000000E+00 0.  1.
        994    1    1    2    0    0 -0.16711699334E+02 -0.23571457545E+02  0.14635240840E+02  0.17423697880E+03  0.17120000000E+03 0.  0.
        998    1    1    2    0    0 -0.48443283086E+02  0.27875397201E+02  0.12844398478E+04  0.12856941752E+04  0.10000000000E+02 0.  1.
</event>
<event>
 5    1  0.1271464E-008  0.3809523E+03  0.7957747E-01  0.3447022E+00
         13   -1    0    0    0    0  0.00000000000E+00  0.00000000000E+00  0.14999999963E+04  0.15000000000E+04  0.10566000000E+00 0. -1.
        994   -1    0    0    0    0 -0.00000000000E+00 -0.00000000000E+00  0.11368683772E-12  0.17120000000E+03  0.17120000000E+03 0.  0.
         13    1    1    2    0    0  0.38458943872E+02 -0.10204404907E+02  0.20723274134E+03  0.21101810465E+03  0.10566000000E+00 0. -1.
        994    1    1    2    0    0 -0.27186581738E+02  0.61611188217E+01  0.62470493936E+01  0.17356709146E+03  0.17120000000E+03 0.  0.
        998    1    1    2    0    0 -0.11272362135E+02  0.40432860858E+01  0.12865202055E+04  0.12866148039E+04  0.10000000000E+02 0. -1.
</event>
<event>
 5    1  0.1271464E-008  0.3295055E+03  0.7957747E-01  0.3705567E+00
         13   -1    0    0    0    0  0.00000000000E+00  0.00000000000E+00  0.14999999963E+04  0.15000000000E+04  0.10566000000E+00 0. -1.
        994   -1    0    0    0    0 -0.00000000000E+00 -0.00000000000E+00  0.11368683772E-12  0.17120000000E+03  0.17120000000E+03 0.  0.
         13    1    1    2    0    0  0.12364320394E+03 -0.26131314363E+03  0.61654471012E+03  0.68095491161E+03  0.10566000000E+00 0. -1.
        994    1    1    2    0    0 -0.13036096364E+03  0.22306688622E+03  0.40438336707E+03  0.50949795302E+03  0.17120000000E+03 0.  0.
        998    1    1    2    0    0  0.67177596954E+01  0.38246257415E+02  0.47907191910E+03  0.48074713537E+03  0.10000000000E+02 0. -1.
</event>
<event>
 5    1  0.1271464E-008  0.3854463E+03  0.7957747E-01  0.3427781E+00
         13   -1    0    0    0    0  0.00000000000E+00  0.00000000000E+00  0.14999999963E+04  0.15000000000E+04  0.10566000000E+00 0. -1.
        994   -1    0    0    0    0 -0.00000000000E+00 -0.00000000000E+00  0.11368683772E-12  0.17120000000E+03  0.17120000000E+03 0.  0.
         13    1    1    2    0    0 -0.10979989573E+02 -0.22702406984E+01  0.44733666336E+02  0.46117526297E+02  0.10566000000E+00 0. -1.
        994    1    1    2    0    0  0.75244067669E+01  0.14066397811E+01  0.16011407340E+01  0.17137852545E+03  0.17120000000E+03 0.  0.
        998    1    1    2    0    0  0.34555828056E+01  0.86360091732E+00  0.14536651892E+04  0.14537039483E+04  0.10000000000E+02 0. -1.
</event>
<event>
 5    1  0.1271464E-008  0.3803927E+03  0.7957747E-01  0.3449450E+00
         13   -1    0    0    0    0  0.00000000000E+00  0.00000000000E+00  0.14999999963E+04  0.15000000000E+04  0.10566000000E+00 0.  1.
        994   -1    0    0    0    0 -0.00000000000E+00 -0.00000000000E+00  0.11368683772E-12  0.17120000000E+03  0.17120000000E+03 0.  0.
         13    1    1    2    0    0  0.14281555221E+02 -0.16876977276E+02  0.73075011096E+01  0.23285315501E+02  0.10566000000E+00 0.  1.
        994    1    1    2    0    0 -0.66131685420E+01  0.29454440204E+02  0.19856951964E+02  0.17497153079E+03  0.17120000000E+03 0.  0.
        998    1    1    2    0    0 -0.76683866791E+01 -0.12577462929E+02  0.14728355432E+04  0.14729431537E+04  0.10000000000E+02 0.  1.
</event>
<event>
 5    1  0.1271464E-008  0.3768874E+03  0.7957747E-01  0.3464825E+00
         13   -1    0    0    0    0  0.00000000000E+00  0.00000000000E+00  0.14999999963E+04  0.15000000000E+04  0.10566000000E+00 0. -1.
        994   -1    0    0    0    0 -0.00000000000E+00 -0.00000000000E+00  0.11368683772E-12  0.17120000000E+03  0.17120000000E+03 0.  0.
         13    1    1    2    0    0  0.13736755911E+03  0.70411775354E+02  0.54024671427E+03  0.56186669936E+03  0.10566000000E+00 0. -1.
        994    1    1    2    0    0 -0.13524736640E+03 -0.47606547592E+02  0.92484449143E+02  0.24170446174E+03  0.17120000000E+03 0.  0.
        998    1    1    2    0    0 -0.21201927098E+01 -0.22805227762E+02  0.86726883286E+03  0.86762883890E+03  0.10000000000E+02 0. -1.
</event>
<event>
 5    1  0.1271464E-008  0.3849435E+03  0.7957747E-01  0.3429912E+00
         13   -1    0    0    0    0  0.00000000000E+00  0.00000000000E+00  0.14999999963E+04  0.15000000000E+04  0.10566000000E+00 0.  1.
        994   -1    0    0    0    0 -0.00000000000E+00 -0.00000000000E+00  0.11368683772E-12  0.17120000000E+03  0.17120000000E+03 0.  0.
         13    1    1    2    0    0  0.12902100484E+02  0.22444782178E+01  0.52140296495E+02  0.53759869438E+02  0.10566000000E+00 0.  1.
        994    1    1    2    0    0 -0.63709727466E+01 -0.45005005778E+01  0.18583368945E+01  0.17138768105E+03  0.17120000000E+03 0.  0.
        998    1    1    2    0    0 -0.65311277375E+01  0.22560223600E+01  0.14460013629E+04  0.14460524495E+04  0.10000000000E+02 0.  1.
</event>
<event>
 5    1  0.1271464E-008  0.3003435E+03  0.7957747E-01  0.3893570E+00
         13   -1    0    0    0    0  0.00000000000E+00  0.00000000000E+00  0.14999999963E+04  0.15000000000E+04  0.10566000000E+00 0.  1.
        994   -1    0    0    0    0 -0.00000000000E+00 -0.00000000000E+00  0.11368683772E-12  0.17120000000E+03  0.17120000000E+03 0.  0.
         13    1    1    2    0    0 -0.16535723732E+03 -0.36860436954E+02  0.84251081934E+03  0.85937547068E+03  0.10566000000E+00 0.  1.
        994    1    1    2    0    0  0.56412673936E+02  0.21603675530E+02  0.41786881720E+02  0.18629195383E+03  0.17120000000E+03 0.  0.
        998    1    1    2    0    0  0.10894456338E+03  0.15256761424E+02  0.61570229522E+03  0.62553257549E+03  0.10000000000E+02 0.  1.
</event>
<event>
 5    1  0.1271464E-008  0.3854336E+03  0.7957747E-01  0.3427835E+00
         13   -1    0    0    0    0  0.00000000000E+00  0.00000000000E+00  0.14999999963E+04  0.15000000000E+04  0.10566000000E+00 0. -1.
        994   -1    0    0    0    0 -0.00000000000E+00 -0.00000000000E+00  0.11368683772E-12  0.17120000000E+03  0.17120000000E+03 0.  0.
         13    1    1    2    0    0 -0.85162897109E+01 -0.21391235540E+02  0.13306836188E+03  0.13504559321E+03  0.10566000000E+00 0. -1.
        994    1    1    2    0    0  0.19416219064E+02  0.48196658313E+02  0.10332323342E+02  0.17920966587E+03  0.17120000000E+03 0.  0.
        998    1    1    2    0    0 -0.10899929353E+02 -0.26805422773E+02  0.13565993111E+04  0.13569447409E+04  0.10000000000E+02 0. -1.
</event>
<event>
 5    1  0.1271464E-008  0.3716352E+03  0.7957747E-01  0.3488409E+00
         13   -1    0    0    0    0  0.00000000000E+00  0.00000000000E+00  0.14999999963E+04  0.15000000000E+04  0.10566000000E+00 0. -1.
        994   -1    0    0    0    0 -0.00000000000E+00 -0.00000000000E+00  0.11368683772E-12  0.17120000000E+03  0.17120000000E+03 0.  0.
         13    1    1    2    0    0 -0.11642860847E+03  0.42879907839E+02  0.51264297753E+03  0.52744396948E+03  0.10566000000E+00 0. -1.
        994    1    1    2    0    0  0.17021542199E+03  0.30039962590E+02  0.11935677595E+03  0.27098186139E+03  0.17120000000E+03 0.  0.
        998    1    1    2    0    0 -0.53786813518E+02 -0.72919870429E+02  0.86800024280E+03  0.87277416913E+03  0.10000000000E+02 0. -1.
</event>
<event>
 5    1  0.1271464E-008  0.3776770E+03  0.7957747E-01  0.3461336E+00
         13   -1    0    0    0    0  0.00000000000E+00  0.00000000000E+00  0.14999999963E+04  0.15000000000E+04  0.10566000000E+00 0.  1.
        994   -1    0    0    0    0 -0.00000000000E+00 -0.00000000000E+00  0.11368683772E-12  0.17120000000E+03  0.17120000000E+03 0.  0.
         13    1    1    2    0    0 -0.62719628269E+02  0.20745717187E+02  0.24491833091E+03  0.25367131594E+03  0.10566000000E+00 0.  1.
        994    1    1    2    0    0  0.10289718010E+03 -0.44854757052E+02  0.49005427863E+02  0.21050118969E+03  0.17120000000E+03 0.  0.
        998    1    1    2    0    0 -0.40177551832E+02  0.24109039864E+02  0.12060762375E+04  0.12070274944E+04  0.10000000000E+02 0.  1.
</event>
<event>
 5    1  0.1271464E-008  0.3800533E+03  0.7957747E-01  0.3450927E+00
         13   -1    0    0    0    0  0.00000000000E+00  0.00000000000E+00  0.14999999963E+04  0.15000000000E+04  0.10566000000E+00 0.  1.
        994   -1    0    0    0    0 -0.00000000000E+00 -0.00000000000E+00  0.11368683772E-12  0.17120000000E+03  0.17120000000E+03 0.  0.
         13    1    1    2    0    0  0.29901822128E+03 -0.79523380797E+02  0.98144122579E+03  0.10290591604E+04  0.10566000000E+00 0.  1.
        994    1    1    2    0    0 -0.30206583803E+03  0.75353314611E+02  0.45343125673E+03  0.57604794688E+03  0.17120000000E+03 0.  0.
        998    1    1    2    0    0  0.30476167469E+01  0.41700661859E+01  0.65127513768E+02  0.66092892730E+02  0.10000000000E+02 0.  1.
</event>
<event>
 5    1  0.1271464E-008  0.3812115E+03  0.7957747E-01  0.3445900E+00
         13   -1    0    0    0    0  0.00000000000E+00  0.00000000000E+00  0.14999999963E+04  0.15000000000E+04  0.10566000000E+00 0. -1.
        994   -1    0    0    0    0 -0.00000000000E+00 -0.00000000000E+00  0.11368683772E-12  0.17120000000E+03  0.17120000000E+03 0.  0.
         13    1    1    2    0    0 -0.26241647607E+02  0.21468266614E+02  0.14538102194E+03  0.14928215983E+03  0.10566000000E+00 0. -1.
        994    1    1    2    0    0  0.29225276979E+02 -0.21818633806E+02  0.79644488214E+01  0.17522283539E+03  0.17120000000E+03 0.  0.
        998    1    1    2    0    0 -0.29836293725E+01  0.35036719199E+00  0.13466545255E+04  0.13466950048E+04  0.10000000000E+02 0.  0.
</event>
<event>
 5    1  0.1271464E-008  0.3845644E+03  0.7957747E-01  0.3431522E+00
         13   -1    0    0    0    0  0.00000000000E+00  0.00000000000E+00  0.14999999963E+04  0.15000000000E+04  0.10566000000E+00 0.  1.
        994   -1    0    0    0    0 -0.00000000000E+00 -0.00000000000E+00  0.11368683772E-12  0.17120000000E+03  0.17120000000E+03 0.  0.
         13    1    1    2    0    0  0.68866223262E+01  0.17354987718E+02  0.93424043237E+02  0.95271633682E+02  0.10566000000E+00 0.  1.
        994    1    1    2    0    0 -0.34134313120E+01 -0.12720409629E+02  0.24180173068E+01  0.17172287891E+03  0.17120000000E+03 0.  0.
        998    1    1    2    0    0 -0.34731910142E+01 -0.46345780893E+01  0.14041579357E+04  0.14042054874E+04  0.10000000000E+02 0.  1.
</event>
<event>
 5    1  0.1271464E-008  0.3798084E+03  0.7957747E-01  0.3451993E+00
         13   -1    0    0    0    0  0.00000000000E+00  0.00000000000E+00  0.14999999963E+04  0.15000000000E+04  0.10566000000E+00 0.  1.
        994   -1    0    0    0    0 -0.00000000000E+00 -0.00000000000E+00  0.11368683772E-12  0.17120000000E+03  0.17120000000E+03 0.  0.
         13    1    1    2    0    0  0.22839434257E+02  0.40249713991E+02  0.22041982171E+03  0.22522563842E+03  0.10566000000E+00 0.  1.
        994    1    1    2    0    0 -0.27556448627E+02 -0.35150813875E+02  0.10932082120E+02  0.17726784253E+03  0.17120000000E+03 0.  0.
        998    1    1    2    0    0  0.47170143696E+01 -0.50989001161E+01  0.12686480924E+04  0.12687065190E+04  0.10000000000E+02 0.  1.
</event>
<event>
 5    1  0.1271464E-008  0.3854186E+03  0.7957747E-01  0.3427899E+00
         13   -1    0    0    0    0  0.00000000000E+00  0.00000000000E+00  0.14999999963E+04  0.15000000000E+04  0.10566000000E+00 0.  1.
        994   -1    0    0    0    0 -0.00000000000E+00 -0.00000000000E+00  0.11368683772E-12  0.17120000000E+03  0.17120000000E+03 0.  0.
         13    1    1    2    0    0 -0.48906241501E+01  0.13858616984E+02  0.73901105655E+02  0.75348284986E+02  0.10566000000E+00 0.  1.
        994    1    1    2    0    0  0.65320928166E+01 -0.12539950263E+02  0.20793095694E+01  0.17179546594E+03  0.17120000000E+03 0.  0.
        998    1    1    2    0    0 -0.16414686665E+01 -0.13186667208E+01  0.14240195811E+04  0.14240562491E+04  0.10000000000E+02 0.  1.
</event>
<event>
 5    1  0.1271464E-008  0.3821382E+03  0.7957747E-01  0.3441901E+00
         13   -1    0    0    0    0  0.00000000000E+00  0.00000000000E+00  0.14999999963E+04  0.15000000000E+04  0.10566000000E+00 0. -1.
        994   -1    0    0    0    0 -0.00000000000E+00 -0.00000000000E+00  0.11368683772E-12  0.17120000000E+03  0.17120000000E+03 0.  0.
         13    1    1    2    0    0 -0.40428843365E+00 -0.12504042682E+02  0.25051794563E+02  0.28002108981E+02  0.10566000000E+00 0. -1.
        994    1    1    2    0    0  0.38266791038E+01  0.70997087683E+00  0.31079467029E+01  0.17127243463E+03  0.17120000000E+03 0.  0.
        998    1    1    2    0    0 -0.34223906701E+01  0.11794071805E+02  0.14718402550E+04  0.14719254564E+04  0.10000000000E+02 0. -1.
</event>
<event>
 5    1  0.1271464E-008  0.3797322E+03  0.7957747E-01  0.3452326E+00
         13   -1    0    0    0    0  0.00000000000E+00  0.00000000000E+00  0.14999999963E+04  0.15000000000E+04  0.10566000000E+00 0.  1.
        994   -1    0    0    0    0 -0.00000000000E+00 -0.00000000000E+00  0.11368683772E-12  0.17120000000E+03  0.17120000000E+03 0.  0.
         13    1    1    2    0    0 -0.13136014830E+02  0.12589687948E+02  0.38279581175E+02  0.42383872254E+02  0.10566000000E+00 0.  1.
        994    1    1    2    0    0 -0.23829437261E+01 -0.67673103548E+01  0.44406575372E+01  0.17140780131E+03  0.17120000000E+03 0.  0.
        998    1    1    2    0    0  0.15518958556E+02 -0.58223775935E+01  0.14572797576E+04  0.14574083264E+04  0.10000000000E+02 0.  1.
</event>
<event>
 5    1  0.1271464E-008  0.3838789E+03  0.7957747E-01  0.3434441E+00
         13   -1    0    0    0    0  0.00000000000E+00  0.00000000000E+00  0.14999999963E+04  0.15000000000E+04  0.10566000000E+00 0. -1.
        994   -1    0    0    0    0 -0.00000000000E+00 -0.00000000000E+00  0.11368683772E-12  0.17120000000E+03  0.17120000000E+03 0.  0.
         13    1    1    2    0    0  0.78506911652E+01  0.21748154949E+02  0.13013316478E+03  0.13217135596E+03  0.10566000000E+00 0. -1.
        994    1    1    2    0    0 -0.41046627898E+00 -0.59766647382E+01  0.23062304746E+01  0.17132030733E+03  0.17120000000E+03 0.  0.
        998    1    1    2    0    0 -0.74402248862E+01 -0.15771490211E+02  0.13675606010E+04  0.13677083367E+04  0.10000000000E+02 0. -1.
</event>
<event>
 5    1  0.1271464E-008  0.3810360E+03  0.7957747E-01  0.3446660E+00
         13   -1    0    0    0    0  0.00000000000E+00  0.00000000000E+00  0.14999999963E+04  0.15000000000E+04  0.10566000000E+00 0.  1.
        994   -1    0    0    0    0 -0.00000000000E+00 -0.00000000000E+00  0.11368683772E-12  0.17120000000E+03  0.17120000000E+03 0.  0.
         13    1    1    2    0    0  0.31353091321E+01  0.13016541096E+02  0.23830418011E+02  0.27334236629E+02  0.10566000000E+00 0.  1.
        994    1    1    2    0    0 -0.15336024484E+01 -0.25258967770E+01  0.36401993879E+01  0.17126419107E+03  0.17120000000E+03 0.  0.
        998    1    1    2    0    0 -0.16017066836E+01 -0.10490644319E+02  0.14725293789E+04  0.14726015723E+04  0.10000000000E+02 0.  1.
</event>
<event>
 5    1  0.1271464E-008  0.3746278E+03  0.7957747E-01  0.3474889E+00
         13   -1    0    0    0    0  0.00000000000E+00  0.00000000000E+00  0.14999999963E+04  0.15000000000E+04  0.10566000000E+00 0. -1.
        994   -1    0    0    0    0 -0.00000000000E+00 -0.00000000000E+00  0.11368683772E-12  0.17120000000E+03  0.17120000000E+03 0.  0.
         13    1    1    2    0    0 -0.33663053610E+02 -0.98876397061E+01  0.83619813643E+02  0.90682142647E+02  0.10566000000E+00 0. -1.
        994    1    1    2    0    0  0.31882879935E+02  0.66240837235E+01  0.10487524941E+02  0.17458472069E+03  0.17120000000E+03 0.  0.
        998    1    1    2    0    0  0.17801736756E+01  0.32635559827E+01  0.14058926577E+04  0.14059331367E+04  0.10000000000E+02 0. -1.
</event>
<event>
 5    1  0.1271464E-008  0.3838750E+03  0.7957747E-01  0.3434458E+00
         13   -1    0    0    0    0  0.00000000000E+00  0.00000000000E+00  0.14999999963E+04  0.15000000000E+04  0.10566000000E+00 0.  1.
        994   -1    0    0    0    0 -0.00000000000E+00 -0.00000000000E+00  0.11368683772E-12  0.17120000000E+03  0.17120000000E+03 0.  0.
         13    1    1    2    0    0 -0.56047869565E+00  0.27150206935E+02  0.14342316919E+03  0.14597145096E+03  0.10566000000E+00 0.  1.
        994    1    1    2    0    0 -0.51253986743E+01 -0.36124397219E+02  0.65961513830E+01  0.17516903550E+03  0.17120000000E+03 0.  0.
        998    1    1    2    0    0  0.56858773700E+01  0.89741902844E+01  0.13499806757E+04  0.13500595135E+04  0.10000000000E+02 0.  1.
</event>
<event>
 5    1  0.1271464E-008  0.3835862E+03  0.7957747E-01  0.3435690E+00
         13   -1    0    0    0    0  0.00000000000E+00  0.00000000000E+00  0.14999999963E+04  0.15000000000E+04  0.10566000000E+00 0.  1.
        994   -1    0    0    0    0 -0.00000000000E+00 -0.00000000000E+00  0.11368683772E-12  0.17120000000E+03  0.17120000000E+03 0.  0.
         13    1    1    2    0    0 -0.65828108096E+01  0.10872552380E+02  0.32726209364E+02  0.35107858618E+02  0.10566000000E+00 0.  1.
        994    1    1    2    0    0  0.14326689454E+02 -0.12087024011E+02  0.34953389648E+01  0.17225854863E+03  0.17120000000E+03 0.  0.
        998    1    1    2    0    0 -0.77438786447E+01  0.12144716313E+01  0.14637784480E+04  0.14638335928E+04  0.10000000000E+02 0.  1.
</event>
<event>
 5    1  0.1271464E-008  0.3839324E+03  0.7957747E-01  0.3434213E+00
         13   -1    0    0    0    0  0.00000000000E+00  0.00000000000E+00  0.14999999963E+04  0.15000000000E+04  0.10566000000E+00 0. -1.
        994   -1    0    0    0    0 -0.00000000000E+00 -0.00000000000E+00  0.11368683772E-12  0.17120000000E+03  0.17120000000E+03 0.  0.
         13    1    1    2    0    0  0.44996031376E+01 -0.20165399730E+02  0.91869225348E+02  0.94163981993E+02  0.10566000000E+00 0. -1.
        994    1    1    2    0    0 -0.10421224637E+02  0.21703734901E+02  0.40763703736E+01  0.17293267715E+03  0.17120000000E+03 0.  0.
        998    1    1    2    0    0  0.59216214999E+01 -0.15383351711E+01  0.14040544006E+04  0.14041033409E+04  0.10000000000E+02 0. -1.
</event>
<event>
 5    1  0.1271464E-008  0.3825702E+03  0.7957747E-01  0.3440043E+00
         13   -1    0    0    0    0  0.00000000000E+00  0.00000000000E+00  0.14999999963E+04  0.15000000000E+04  0.10566000000E+00 0.  1.
        994   -1    0    0    0    0 -0.00000000000E+00 -0.00000000000E+00  0.11368683772E-12  0.17120000000E+03  0.17120000000E+03 0.  0.
         13    1    1    2    0    0  0.11095489506E+02  0.23906724176E+01  0.20476297067E+02  0.23411858269E+02  0.10566000000E+00 0.  1.
        994    1    1    2    0    0 -0.26361449713E+02  0.22352389600E+01  0.51648388411E+01  0.17330908194E+03  0.17120000000E+03 0.  0.
        998    1    1    2    0    0  0.15265960207E+02 -0.46259113776E+01  0.14743588604E+04  0.14744790598E+04  0.10000000000E+02 0.  1.
</event>
<event>
 5    1  0.1271464E-008  0.3859387E+03  0.7957747E-01  0.3425701E+00
         13   -1    0    0    0    0  0.00000000000E+00  0.00000000000E+00  0.14999999963E+04  0.15000000000E+04  0.10566000000E+00 0.  1.
        994   -1    0    0    0    0 -0.00000000000E+00 -0.00000000000E+00  0.11368683772E-12  0.17120000000E+03  0.17120000000E+03 0.  0.
         13    1    1    2    0    0 -0.24225872017E+01 -0.10691790893E+02  0.50747167962E+02  0.51917911567E+02  0.10566000000E+00 0.  1.
        994    1    1    2    0    0 -0.25401856432E+01  0.12420660401E+02  0.16919233558E+01  0.17167710375E+03  0.17120000000E+03 0.  0.
        998    1    1    2    0    0  0.49627728449E+01 -0.17288695072E+01  0.14475609050E+04  0.14476049847E+04  0.10000000000E+02 0.  1.
</event>
<event>
 5    1  0.1271464E-008  0.3721782E+03  0.7957747E-01  0.3485940E+00
         13   -1    0    0    0    0  0.00000000000E+00  0.00000000000E+00  0.14999999963E+04  0.15000000000E+04  0.10566000000E+00 0.  1.
        994   -1    0    0    0    0 -0.00000000000E+00 -0.00000000000E+00  0.11368683772E-12  0.17120000000E+03  0.17120000000E+03 0.  0.
         13    1    1    2    0    0  0.43608204613E+01  0.59955700674E+02  0.11702595767E+03  0.13156286988E+03  0.10566000000E+00 0.  1.
        994    1    1    2    0    0 -0.20317884576E+02 -0.94414093729E+02  0.45722143510E+02  0.20180880044E+03  0.17120000000E+03 0.  0.
        998    1    1    2    0    0  0.15957064114E+02  0.34458393055E+02  0.13372518951E+04  0.13378283297E+04  0.10000000000E+02 0.  1.
</event>
<event>
 5    1  0.1271464E-008  0.3749174E+03  0.7957747E-01  0.3473592E+00
         13   -1    0    0    0    0  0.00000000000E+00  0.00000000000E+00  0.14999999963E+04  0.15000000000E+04  0.10566000000E+00 0. -1.
        994   -1    0    0    0    0 -0.00000000000E+00 -0.00000000000E+00  0.11368683772E-12  0.17120000000E+03  0.17120000000E+03 0.  0.
         13    1    1    2    0    0 -0.35422658073E+02 -0.76009832752E+01  0.90242497439E+02  0.97243298792E+02  0.10566000000E+00 0. -1.
        994    1    1    2    0    0  0.34868489576E+02  0.80705882997E+01  0.11088985287E+02  0.17525225121E+03  0.17120000000E+03 0.  0.
        998    1    1    2    0    0  0.55416849707E+00 -0.46960502443E+00  0.13986685136E+04  0.13987044500E+04  0.10000000000E+02 0.  0.
</event>
<event>
 5    1  0.1271464E-008  0.3829937E+03  0.7957747E-01  0.3438226E+00
         13   -1    0    0    0    0  0.00000000000E+00  0.00000000000E+00  0.14999999963E+04  0.15000000000E+04  0.10566000000E+00 0.  1.
        994   -1    0    0    0    0 -0.00000000000E+00 -0.00000000000E+00  0.11368683772E-12  0.17120000000E+03  0.17120000000E+03 0.  0.
         13    1    1    2    0    0 -0.98583729464E+01  0.16514653443E+02  0.75119827853E+02  0.77543026741E+02  0.10566000000E+00 0.  1.
        994    1    1    2    0    0 -0.44270154137E+01 -0.86287171662E+00  0.26968481726E+01  0.17128063523E+03  0.17120000000E+03 0.  0.
        998    1    1    2    0    0  0.14285388360E+02 -0.15651781726E+02  0.14221833203E+04  0.14223763380E+04  0.10000000000E+02 0.  1.
</event>
<event>
 5    1  0.1271464E-008  0.3723015E+03  0.7957747E-01  0.3485380E+00
         13   -1    0    0    0    0  0.00000000000E+00  0.00000000000E+00  0.14999999963E+04  0.15000000000E+04  0.10566000000E+00 0.  1.
        994   -1    0    0    0    0 -0.00000000000E+00 -0.00000000000E+00  0.11368683772E-12  0.17120000000E+03  0.17120000000E+03 0.  0.
         13    1    1    2    0    0  0.41468296583E+02 -0.28206191576E+02  0.12995716087E+03  0.13929854159E+03  0.10566000000E+00 0.  1.
        994    1    1    2    0    0 -0.62832923643E+02  0.27310672816E+02  0.24348825237E+02  0.18600041514E+03  0.17120000000E+03 0.  0.
        998    1    1    2    0    0  0.21364627060E+02  0.89551876061E+00  0.13456940102E+04  0.13459010433E+04  0.10000000000E+02 0.  1.
</event>
<event>
 5    1  0.1271464E-008  0.3818161E+03  0.7957747E-01  0.3443289E+00
         13   -1    0    0    0    0  0.00000000000E+00  0.00000000000E+00  0.14999999963E+04  0.15000000000E+04  0.10566000000E+00 0.  1.
        994   -1    0    0    0    0 -0.00000000000E+00 -0.00000000000E+00  0.11368683772E-12  0.17120000000E+03  0.17120000000E+03 0.  0.
         13    1    1    2    0    0  0.10752555433E+02  0.78779543140E+01  0.27379861074E+02  0.30452381992E+02  0.10566000000E+00 0.  1.
        994    1    1    2    0    0  0.40153204072E+01 -0.13931331815E+01  0.32792052254E+01  0.17128414055E+03  0.17120000000E+03 0.  0.
        998    1    1    2    0    0 -0.14767875841E+02 -0.64848211325E+01  0.14693409300E+04  0.14694634775E+04  0.10000000000E+02 0.  1.
</event>
<event>
 5    1  0.1271464E-008  0.3797162E+03  0.7957747E-01  0.3452395E+00
         13   -1    0    0    0    0  0.00000000000E+00  0.00000000000E+00  0.14999999963E+04  0.15000000000E+04  0.10566000000E+00 0.  1.
        994   -1    0    0    0    0 -0.00000000000E+00 -0.00000000000E+00  0.11368683772E-12  0.17120000000E+03  0.17120000000E+03 0.  0.
         13    1    1    2    0    0 -0.82818685851E+00 -0.34210989965E+02  0.13982674864E+03  0.14395349432E+03  0.10566000000E+00 0.  1.
        994    1    1    2    0    0  0.15581792111E+02  0.14863532320E+02  0.58296382250E+01  0.17264744864E+03  0.17120000000E+03 0.  0.
        998    1    1    2    0    0 -0.14753605252E+02  0.19347457645E+02  0.13543436094E+04  0.13545990570E+04  0.10000000000E+02 0.  1.
</event>
<event>
 5    1  0.1271464E-008  0.3832351E+03  0.7957747E-01  0.3437192E+00
         13   -1    0    0    0    0  0.00000000000E+00  0.00000000000E+00  0.14999999963E+04  0.15000000000E+04  0.10566000000E+00 0. -1.
        994   -1    0    0    0    0 -0.00000000000E+00 -0.00000000000E+00  0.11368683772E-12  0.17120000000E+03  0.17120000000E+03 0.  0.
         13    1    1    2    0    0 -0.93492029223E+01  0.14342885384E+02  0.57037040906E+02  0.59551332108E+02  0.10566000000E+00 0. -1.
        994    1    1    2    0    0  0.93328613059E+01 -0.10163053533E+02  0.31389059743E+01  0.17178382546E+03  0.17120000000E+03 0.  0.
        998    1    1    2    0    0  0.16341616369E-01 -0.41798318511E+01  0.14398240494E+04  0.14398648424E+04  0.10000000000E+02 0. -1.
</event>
<event>
 5    1  0.1271464E-008  0.3852071E+03  0.7957747E-01  0.3428794E+00
         13   -1    0    0    0    0  0.00000000000E+00  0.00000000000E+00  0.14999999963E+04  0.15000000000E+04  0.10566000000E+00 0.  1.
        994   -1    0    0    0    0 -0.00000000000E+00 -0.00000000000E+00  0.11368683772E-12  0.17120000000E+03  0.17120000000E+03 0.  0.
         13    1    1    2    0    0  0.13203739895E+02 -0.78702428308E+01  0.81790199603E+02  0.83222156812E+02  0.10566000000E+00 0.  1.
        994    1    1    2    0    0 -0.53112530709E+01 -0.33753733832E+01  0.16575124780E+01  0.17132364082E+03  0.17120000000E+03 0.  0.
        998    1    1    2    0    0 -0.78924868236E+01  0.11245616214E+02  0.14165522842E+04  0.14166542024E+04  0.10000000000E+02 0.  1.
</event>
<event>
 5    1  0.1271464E-008  0.2841597E+03  0.7957747E-01  0.4016025E+00
         13   -1    0    0    0    0  0.00000000000E+00  0.00000000000E+00  0.14999999963E+04  0.15000000000E+04  0.10566000000E+00 0. -1.
        994   -1    0    0    0    0 -0.00000000000E+00 -0.00000000000E+00  0.11368683772E-12  0.17120000000E+03  0.17120000000E+03 0.  0.
         13    1    1    2    0    0 -0.82370592062E+01 -0.14112180682E+03  0.69140357253E+03  0.70570682636E+03  0.10566000000E+00 0. -1.
        994    1    1    2    0    0 -0.68680836286E+01  0.57361405572E+02  0.31164851651E+02  0.18335263674E+03  0.17120000000E+03 0.  0.
        998    1    1    2    0    0  0.15105142835E+02  0.83760401251E+02  0.77743157210E+03  0.78214053690E+03  0.10000000000E+02 0. -1.
</event>
<event>
 5    1  0.1271464E-008  0.3793462E+03  0.7957747E-01  0.3454010E+00
         13   -1    0    0    0    0  0.00000000000E+00  0.00000000000E+00  0.14999999963E+04  0.15000000000E+04  0.10566000000E+00 0. -1.
        994   -1    0    0    0    0 -0.00000000000E+00 -0.00000000000E+00  0.11368683772E-12  0.17120000000E+03  0.17120000000E+03 0.  0.
         13    1    1    2    0    0 -0.10735527391E+02 -0.96078556271E+01  0.21914155625E+02  0.26226014164E+02  0.10566000000E+00 0. -1.
        994    1    1    2    0    0 -0.64284102976E+00  0.23791684788E+01  0.44838809577E+01  0.17127643993E+03  0.17120000000E+03 0.  0.
        998    1    1    2    0    0  0.11378368421E+02  0.72286871484E+01  0.14736019597E+04  0.14736975459E+04  0.10000000000E+02 0. -1.
</event>
<event>
 5    1  0.1271464E-008  0.3793697E+03  0.7957747E-01  0.3453907E+00
         13   -1    0    0    0    0  0.00000000000E+00  0.00000000000E+00  0.14999999963E+04  0.15000000000E+04  0.10566000000E+00 0. -1.
        994   -1    0    0    0    0 -0.00000000000E+00 -0.00000000000E+00  0.11368683772E-12  0.17120000000E+03  0.17120000000E+03 0.  0.
         13    1    1    2    0    0 -0.28638772691E+02  0.33168569840E+02  0.13977296730E+03  0.14648148988E+03  0.10566000000E+00 0. -1.
        994    1    1    2    0    0  0.12416486714E+03 -0.32098847213E+02  0.61679310083E+02  0.22262306151E+03  0.17120000000E+03 0.  0.
        998    1    1    2    0    0 -0.95526094451E+02 -0.10697226271E+01  0.12985477189E+04  0.13020954486E+04  0.10000000000E+02 0. -1.
</event>
<event>
 5    1  0.1808413E-008  0.3842828E+03  0.7957747E-01  0.3432720E+00
         13   -1    0    0    0    0  0.00000000000E+00  0.00000000000E+00  0.14999999963E+04  0.15000000000E+04  0.10566000000E+00 0. -1.
        994   -1    0    0    0    0 -0.00000000000E+00 -0.00000000000E+00  0.11368683772E-12  0.17120000000E+03  0.17120000000E+03 0.  0.
         13    1    1    2    0    0 -0.70076024991E+01 -0.80134759784E+01  0.27564577445E+02  0.29548932025E+02  0.10566000000E+00 0. -1.
        994    1    1    2    0    0  0.84316679952E+01  0.76902478193E+01  0.24160298456E+01  0.17159694093E+03  0.17120000000E+03 0.  0.
        998    1    1    2    0    0 -0.14240654961E+01  0.32322815911E+00  0.14700193890E+04  0.14700541270E+04  0.10000000000E+02 0. -1.
</event>
<event>
 5    1  0.1271464E-008  0.3778713E+03  0.7957747E-01  0.3460480E+00
         13   -1    0    0    0    0  0.00000000000E+00  0.00000000000E+00  0.14999999963E+04  0.15000000000E+04  0.10566000000E+00 0.  1.
        994   -1    0    0    0    0 -0.00000000000E+00 -0.00000000000E+00  0.11368683772E-12  0.17120000000E+03  0.17120000000E+03 0.  0.
         13    1    1    2    0    0  0.25873563323E+02  0.17082518867E+01  0.15468231373E+02  0.30193322927E+02  0.10566000000E+00 0.  1.
        994    1    1    2    0    0 -0.26179895473E+02 -0.10009864738E+02  0.17992433397E+02  0.17440972444E+03  0.17120000000E+03 0.  0.
        998    1    1    2    0    0  0.30633215013E+00  0.83016128515E+01  0.14665393315E+04  0.14665969526E+04  0.10000000000E+02 0.  1.
</event>
<event>
 5    1  0.1271464E-008  0.3824288E+03  0.7957747E-01  0.3440651E+00
         13   -1    0    0    0    0  0.00000000000E+00  0.00000000000E+00  0.14999999963E+04  0.15000000000E+04  0.10566000000E+00 0.  1.
        994   -1    0    0    0    0 -0.00000000000E+00 -0.00000000000E+00  0.11368683772E-12  0.17120000000E+03  0.17120000000E+03 0.  0.
         13    1    1    2    0    0  0.99722601552E+01 -0.53573443026E+01  0.21077125972E+02  0.23924955880E+02  0.10566000000E+00 0.  1.
        994    1    1    2    0    0 -0.68108055639E+01 -0.22840773632E+01  0.30832568030E+01  0.17137838415E+03  0.17120000000E+03 0.  0.
        998    1    1    2    0    0 -0.31614545913E+01  0.76414216658E+01  0.14758396135E+04  0.14758966600E+04  0.10000000000E+02 0.  1.
</event>
<event>
 5    1  0.1271464E-008  0.4017607E+03  0.7957747E-01  0.3361556E+00
         13   -1    0    0    0    0  0.00000000000E+00  0.00000000000E+00  0.14999999963E+04  0.15000000000E+04  0.10566000000E+00 0. -1.
        994   -1    0    0    0    0 -0.00000000000E+00 -0.00000000000E+00  0.11368683772E-12  0.17120000000E+03  0.17120000000E+03 0.  0.
         13    1    1    2    0    0  0.50821041079E+02  0.45769397063E+02  0.78356841790E+02  0.10400683508E+03  0.10566000000E+00 0. -1.
        994    1    1    2    0    0  0.33157883951E+02 -0.59328300775E+02  0.47286774199E+02  0.19017037507E+03  0.17120000000E+03 0.  0.
        998    1    1    2    0    0 -0.83978925031E+02  0.13558903712E+02  0.13743563803E+04  0.13770227898E+04  0.10000000000E+02 0. -1.
</event>
<event>
 5    1  0.1271464E-008  0.3798143E+03  0.7957747E-01  0.3451967E+00
         13   -1    0    0    0    0  0.00000000000E+00  0.00000000000E+00  0.14999999963E+04  0.15000000000E+04  0.10566000000E+00 0. -1.
        994   -1    0    0    0    0 -0.00000000000E+00 -0.00000000000E+00  0.11368683772E-12  0.17120000000E+03  0.17120000000E+03 0.  0.
         13    1    1    2    0    0 -0.21124221451E+02 -0.33982451892E+02  0.23129946408E+03  0.23473494205E+03  0.10566000000E+00 0. -1.
        994    1    1    2    0    0 -0.16388327693E+02  0.83882723480E+01  0.53614550465E+01  0.17227050124E+03  0.17120000000E+03 0.  0.
        998    1    1    2    0    0  0.37512549144E+02  0.25594179544E+02  0.12633390771E+04  0.12641945567E+04  0.10000000000E+02 0. -1.
</event>
<event>
 5    1  0.1271464E-008  0.3810231E+03  0.7957747E-01  0.3446716E+00
         13   -1    0    0    0    0  0.00000000000E+00  0.00000000000E+00  0.14999999963E+04  0.15000000000E+04  0.10566000000E+00 0. -1.
        994   -1    0    0    0    0 -0.00000000000E+00 -0.00000000000E+00  0.11368683772E-12  0.17120000000E+03  0.17120000000E+03 0.  0.
         13    1    1    2    0    0  0.36455127314E+02  0.73937288714E+01  0.20374895314E+03  0.20711661112E+03  0.10566000000E+00 0. -1.
        994    1    1    2    0    0 -0.79766500344E+01 -0.33596932158E+02  0.76003959551E+01  0.17481300528E+03  0.17120000000E+03 0.  0.
        998    1    1    2    0    0 -0.28478477279E+02  0.26203203287E+02  0.12886506472E+04  0.12892703836E+04  0.10000000000E+02 0. -1.
</event>
<event>
 5    1  0.1271464E-008  0.3824010E+03  0.7957747E-01  0.3440770E+00
         13   -1    0    0    0    0  0.00000000000E+00  0.00000000000E+00  0.14999999963E+04  0.15000000000E+04  0.10566000000E+00 0.  1.
        994   -1    0    0    0    0 -0.00000000000E+00 -0.00000000000E+00  0.11368683772E-12  0.17120000000E+03  0.17120000000E+03 0.  0.
         13    1    1    2    0    0 -0.23277850342E+02  0.26702499680E+02  0.20104583247E+03  0.20414289045E+03  0.10566000000E+00 0.  1.
        994    1    1    2    0    0  0.13396747313E+02 -0.24986345826E+02  0.55964558768E+01  0.17362186105E+03  0.17120000000E+03 0.  0.
        998    1    1    2    0    0  0.98811030292E+01 -0.17161538535E+01  0.12933577079E+04  0.12934352485E+04  0.10000000000E+02 0.  1.
</event>
<event>
 5    1  0.1271464E-008  0.3731253E+03  0.7957747E-01  0.3481650E+00
         13   -1    0    0    0    0  0.00000000000E+00  0.00000000000E+00  0.14999999963E+04  0.15000000000E+04  0.10566000000E+00 0.  1.
        994   -1    0    0    0    0 -0.00000000000E+00 -0.00000000000E+00  0.11368683772E-12  0.17120000000E+03  0.17120000000E+03 0.  0.
         13    1    1    2    0    0  0.16218565999E+02  0.14110566349E+02  0.27441239779E+02  0.34859471746E+02  0.10566000000E+00 0.  1.
        994    1    1    2    0    0 -0.75975910353E+01 -0.53142153219E+01  0.79387273895E+01  0.17163457596E+03  0.17120000000E+03 0.  0.
        998    1    1    2    0    0 -0.86209749638E+01 -0.87963510276E+01  0.14646200291E+04  0.14647059523E+04  0.10000000000E+02 0.  1.
</event>
<event>
 5    1  0.1271464E-008  0.3686118E+03  0.7957747E-01  0.3502295E+00
         13   -1    0    0    0    0  0.00000000000E+00  0.00000000000E+00  0.14999999963E+04  0.15000000000E+04  0.10566000000E+00 0.  1.
        994   -1    0    0    0    0 -0.00000000000E+00 -0.00000000000E+00  0.11368683772E-12  0.17120000000E+03  0.17120000000E+03 0.  0.
         13    1    1    2    0    0  0.47112895639E+01  0.70726862036E+02  0.24296874966E+03  0.25309743132E+03  0.10566000000E+00 0.  1.
        994    1    1    2    0    0  0.11612624715E+02 -0.42499654063E+02  0.16990379424E+02  0.17759275504E+03  0.17120000000E+03 0.  0.
        998    1    1    2    0    0 -0.16323914279E+02 -0.28227207973E+02  0.12400408672E+04  0.12405098136E+04  0.10000000000E+02 0.  1.
</event>
<event>
 5    1  0.1271464E-008  0.3760164E+03  0.7957747E-01  0.3468690E+00
         13   -1    0    0    0    0  0.00000000000E+00  0.00000000000E+00  0.14999999963E+04  0.15000000000E+04  0.10566000000E+00 0.  1.
        994   -1    0    0    0    0 -0.00000000000E+00 -0.00000000000E+00  0.11368683772E-12  0.17120000000E+03  0.17120000000E+03 0.  0.
         13    1    1    2    0    0 -0.20569434973E+02  0.56728131885E+02  0.12410604915E+03  0.13799820724E+03  0.10566000000E+00 0.  1.
        994    1    1    2    0    0 -0.20872167691E+00 -0.40762146530E+02  0.20113826683E+02  0.17713159565E+03  0.17120000000E+03 0.  0.
        998    1    1    2    0    0  0.20778156650E+02 -0.15965985355E+02  0.13557801204E+04  0.13560701971E+04  0.10000000000E+02 0.  1.
</event>
<event>
 5    1  0.1271464E-008  0.3903374E+03  0.7957747E-01  0.3407346E+00
         13   -1    0    0    0    0  0.00000000000E+00  0.00000000000E+00  0.14999999963E+04  0.15000000000E+04  0.10566000000E+00 0. -1.
        994   -1    0    0    0    0 -0.00000000000E+00 -0.00000000000E+00  0.11368683772E-12  0.17120000000E+03  0.17120000000E+03 0.  0.
         13    1    1    2    0    0 -0.43890546636E+02 -0.10859985491E+02  0.36736358186E+02  0.58257107254E+02  0.10566000000E+00 0. -1.
        994    1    1    2    0    0  0.45392908754E+02  0.11886081686E+02  0.30466291220E+02  0.18010949449E+03  0.17120000000E+03 0.  0.
        998    1    1    2    0    0 -0.15023621184E+01 -0.10260961952E+01  0.14327973469E+04  0.14328333983E+04  0.10000000000E+02 0. -1.
</event>
<event>
 5    1  0.1271464E-008  0.3748451E+03  0.7957747E-01  0.3473916E+00
         13   -1    0    0    0    0  0.00000000000E+00  0.00000000000E+00  0.14999999963E+04  0.15000000000E+04  0.10566000000E+00 0.  1.
        994   -1    0    0    0    0 -0.00000000000E+00 -0.00000000000E+00  0.11368683772E-12  0.17120000000E+03  0.17120000000E+03 0.  0.
         13    1    1    2    0    0 -0.39026085116E+02 -0.54031742561E+02  0.31510487674E+03  0.32207694583E+03  0.10566000000E+00 0.  1.
        994    1    1    2    0    0  0.12973449524E+02  0.43642802157E+02  0.13841406489E+02  0.17769082449E+03  0.17120000000E+03 0.  0.
        998    1    1    2    0    0  0.26052635592E+02  0.10388940404E+02  0.11710537130E+04  0.11714322297E+04  0.10000000000E+02 0.  1.
</event>
<event>
 5    1  0.1271464E-008  0.3855010E+03  0.7957747E-01  0.3427550E+00
         13   -1    0    0    0    0  0.00000000000E+00  0.00000000000E+00  0.14999999963E+04  0.15000000000E+04  0.10566000000E+00 0. -1.
        994   -1    0    0    0    0 -0.00000000000E+00 -0.00000000000E+00  0.11368683772E-12  0.17120000000E+03  0.17120000000E+03 0.  0.
         13    1    1    2    0    0  0.15128307433E+02  0.44466602050E+01  0.92760489320E+02  0.94091221778E+02  0.10566000000E+00 0. -1.
        994    1    1    2    0    0 -0.43134510902E+01 -0.11064355405E+02  0.18447905000E+01  0.17162129551E+03  0.17120000000E+03 0.  0.
        998    1    1    2    0    0 -0.10814856343E+02  0.66176952001E+01  0.14053947165E+04  0.14054874827E+04  0.10000000000E+02 0. -1.
</event>
<event>
 5    1  0.1271464E-008  0.3638381E+03  0.7957747E-01  0.3524698E+00
         13   -1    0    0    0    0  0.00000000000E+00  0.00000000000E+00  0.14999999963E+04  0.15000000000E+04  0.10566000000E+00 0.  1.
        994   -1    0    0    0    0 -0.00000000000E+00 -0.00000000000E+00  0.11368683772E-12  0.17120000000E+03  0.17120000000E+03 0.  0.
         13    1    1    2    0    0  0.26058248071E+03 -0.10193961702E+03  0.10908748355E+04  0.11261895190E+04  0.10566000000E+00 0.  1.
        994    1    1    2    0    0 -0.21418541451E+03  0.10166508651E+03  0.27003338614E+03  0.39804352932E+03  0.17120000000E+03 0.  0.
        998    1    1    2    0    0 -0.46397066206E+02  0.27453050272E+00  0.13909177463E+03  0.14696695169E+03  0.10000000000E+02 0. -1.
</event>
<event>
 5    1  0.1271464E-008  0.3802835E+03  0.7957747E-01  0.3449925E+00
         13   -1    0    0    0    0  0.00000000000E+00  0.00000000000E+00  0.14999999963E+04  0.15000000000E+04  0.10566000000E+00 0. -1.
        994   -1    0    0    0    0 -0.00000000000E+00 -0.00000000000E+00  0.11368683772E-12  0.17120000000E+03  0.17120000000E+03 0.  0.
         13    1    1    2    0    0  0.29458369631E+01  0.11827160387E+02  0.16808841280E+02  0.20763140115E+02  0.10566000000E+00 0. -1.
        994    1    1    2    0    0 -0.20213636272E+01 -0.11269635284E+02  0.44280601051E+01  0.17163955927E+03  0.17120000000E+03 0.  0.
        998    1    1    2    0    0 -0.92447333598E+00 -0.55752510299E+00  0.14787630949E+04  0.14787973006E+04  0.10000000000E+02 0. -1.
</event>
<event>
 5    1  0.1271464E-008  0.3718522E+03  0.7957747E-01  0.3487421E+00
         13   -1    0    0    0    0  0.00000000000E+00  0.00000000000E+00  0.14999999963E+04  0.15000000000E+04  0.10566000000E+00 0. -1.
        994   -1    0    0    0    0 -0.00000000000E+00 -0.00000000000E+00  0.11368683772E-12  0.17120000000E+03  0.17120000000E+03 0.  0.
         13    1    1    2    0    0 -0.89969285510E+01 -0.94493176030E+02  0.42485616905E+03  0.43533054175E+03  0.10566000000E+00 0. -1.
        994    1    1    2    0    0  0.57998986107E+01  0.83159693612E+02  0.32571406145E+02  0.19318258194E+03  0.17120000000E+03 0.  0.
        998    1    1    2    0    0  0.31970299403E+01  0.11333482418E+02  0.10425724211E+04  0.10426868763E+04  0.10000000000E+02 0. -1.
</event>
<event>
 5    1  0.1271464E-008  0.3843775E+03  0.7957747E-01  0.3432316E+00
         13   -1    0    0    0    0  0.00000000000E+00  0.00000000000E+00  0.14999999963E+04  0.15000000000E+04  0.10566000000E+00 0. -1.
        994   -1    0    0    0    0 -0.00000000000E+00 -0.00000000000E+00  0.11368683772E-12  0.17120000000E+03  0.17120000000E+03 0.  0.
         13    1    1    2    0    0  0.16859024814E+02 -0.72376223156E+01  0.74457207958E+02  0.76684397862E+02  0.10566000000E+00 0. -1.
        994    1    1    2    0    0 -0.34440110695E+02  0.12105375398E+02  0.63434070553E+01  0.17516375239E+03  0.17120000000E+03 0.  0.
        998    1    1    2    0    0  0.17581085882E+02 -0.48677530823E+01  0.14191993813E+04  0.14193518497E+04  0.10000000000E+02 0. -1.
</event>
<event>
 5    1  0.1271464E-008  0.3791644E+03  0.7957747E-01  0.3454805E+00
         13   -1    0    0    0    0  0.00000000000E+00  0.00000000000E+00  0.14999999963E+04  0.15000000000E+04  0.10566000000E+00 0. -1.
        994   -1    0    0    0    0 -0.00000000000E+00 -0.00000000000E+00  0.11368683772E-12  0.17120000000E+03  0.17120000000E+03 0.  0.
         13    1    1    2    0    0  0.40888263245E+02 -0.72869295871E+01  0.19231526557E+03  0.19674888043E+03  0.10566000000E+00 0. -1.
        994    1    1    2    0    0 -0.21410387102E+02 -0.25232426444E+01  0.61150975958E+01  0.17266037718E+03  0.17120000000E+03 0.  0.
        998    1    1    2    0    0 -0.19477876143E+02  0.98101722314E+01  0.13015696331E+04  0.13017907424E+04  0.10000000000E+02 0. -1.
</event>
<event>
 5    1  0.1271464E-008  0.3812178E+03  0.7957747E-01  0.3445873E+00
         13   -1    0    0    0    0  0.00000000000E+00  0.00000000000E+00  0.14999999963E+04  0.15000000000E+04  0.10566000000E+00 0. -1.
        994   -1    0    0    0    0 -0.00000000000E+00 -0.00000000000E+00  0.11368683772E-12  0.17120000000E+03  0.17120000000E+03 0.  0.
         13    1    1    2    0    0 -0.11357066640E+03 -0.75205359696E+02  0.76339639437E+03  0.77545355018E+03  0.10566000000E+00 0. -1.
        994    1    1    2    0    0  0.13563783248E+03  0.81510228626E+02  0.91956119243E+02  0.25061306198E+03  0.17120000000E+03 0.  0.
        998    1    1    2    0    0 -0.22067166078E+02 -0.63048689301E+01  0.64464748267E+03  0.64513338784E+03  0.10000000000E+02 0. -1.
</event>
<event>
 5    1  0.1271464E-008  0.3839603E+03  0.7957747E-01  0.3434094E+00
         13   -1    0    0    0    0  0.00000000000E+00  0.00000000000E+00  0.14999999963E+04  0.15000000000E+04  0.10566000000E+00 0.  1.
        994   -1    0    0    0    0 -0.00000000000E+00 -0.00000000000E+00  0.11368683772E-12  0.17120000000E+03  0.17120000000E+03 0.  0.
         13    1    1    2    0    0  0.12943498804E+02  0.68922765648E+01  0.49562574191E+02  0.51686531727E+02  0.10566000000E+00 0.  1.
        994    1    1    2    0    0 -0.90549150539E+01 -0.39399345690E+01  0.24690502738E+01  0.17150233462E+03  0.17120000000E+03 0.  0.
        998    1    1    2    0    0 -0.38885837504E+01 -0.29523419958E+01  0.14479683718E+04  0.14480111337E+04  0.10000000000E+02 0.  1.
</event>
<event>
 5    1  0.1271464E-008  0.3787071E+03  0.7957747E-01  0.3456808E+00
         13   -1    0    0    0    0  0.00000000000E+00  0.00000000000E+00  0.14999999963E+04  0.15000000000E+04  0.10566000000E+00 0.  1.
        994   -1    0    0    0    0 -0.00000000000E+00 -0.00000000000E+00  0.11368683772E-12  0.17120000000E+03  0.17120000000E+03 0.  0.
         13    1    1    2    0    0 -0.25245765219E+02  0.15349150320E+02  0.84630046507E+02  0.89639282755E+02  0.10566000000E+00 0.  1.
        994    1    1    2    0    0  0.24038955530E+02 -0.19583964268E+02  0.80216515149E+01  0.17417000296E+03  0.17120000000E+03 0.  0.
        998    1    1    2    0    0  0.12068096886E+01  0.42348139483E+01  0.14073482983E+04  0.14073907143E+04  0.10000000000E+02 0.  1.
</event>
<event>
 5    1  0.1271464E-008  0.3823152E+03  0.7957747E-01  0.3441139E+00
         13   -1    0    0    0    0  0.00000000000E+00  0.00000000000E+00  0.14999999963E+04  0.15000000000E+04  0.10566000000E+00 0. -1.
        994   -1    0    0    0    0 -0.00000000000E+00 -0.00000000000E+00  0.11368683772E-12  0.17120000000E+03  0.17120000000E+03 0.  0.
         13    1    1    2    0    0 -0.19295814103E+02 -0.36238983518E+01  0.63636221502E+02  0.66596102981E+02  0.10566000000E+00 0. -1.
        994    1    1    2    0    0  0.14708926389E+02 -0.39480818858E+01  0.37388515706E+01  0.17191672076E+03  0.17120000000E+03 0.  0.
        998    1    1    2    0    0  0.45868877139E+01  0.75719802376E+01  0.14326249232E+04  0.14326871763E+04  0.10000000000E+02 0. -1.
</event>
<event>
 5    1  0.1271464E-008  0.3859571E+03  0.7957747E-01  0.3425623E+00
         13   -1    0    0    0    0  0.00000000000E+00  0.00000000000E+00  0.14999999963E+04  0.15000000000E+04  0.10566000000E+00 0. -1.
        994   -1    0    0    0    0 -0.00000000000E+00 -0.00000000000E+00  0.11368683772E-12  0.17120000000E+03  0.17120000000E+03 0.  0.
         13    1    1    2    0    0  0.71669290799E+00 -0.11689343490E+02  0.60573804809E+02  0.61695635121E+02  0.10566000000E+00 0. -1.
        994    1    1    2    0    0  0.14980177306E+02  0.77916411244E+01  0.20909926037E+01  0.17204338881E+03  0.17120000000E+03 0.  0.
        998    1    1    2    0    0 -0.15696870214E+02  0.38977023657E+01  0.14373351989E+04  0.14374609761E+04  0.10000000000E+02 0. -1.
</event>
<event>
 5    1  0.1271464E-008  0.3754311E+03  0.7957747E-01  0.3471297E+00
         13   -1    0    0    0    0  0.00000000000E+00  0.00000000000E+00  0.14999999963E+04  0.15000000000E+04  0.10566000000E+00 0.  1.
        994   -1    0    0    0    0 -0.00000000000E+00 -0.00000000000E+00  0.11368683772E-12  0.17120000000E+03  0.17120000000E+03 0.  0.
         13    1    1    2    0    0  0.61338951454E+01 -0.11026546568E+02  0.96273901925E+01  0.15871584824E+02  0.10566000000E+00 0.  1.
        994    1    1    2    0    0 -0.29960816396E+01 -0.22621917429E+01  0.65053861417E+01  0.17136468150E+03  0.17120000000E+03 0.  0.
        998    1    1    2    0    0 -0.31378135058E+01  0.13288738311E+02  0.14838672199E+04  0.14839637337E+04  0.10000000000E+02 0.  1.
</event>
<event>
 5    1  0.1271464E-008  0.3754747E+03  0.7957747E-01  0.3471103E+00
         13   -1    0    0    0    0  0.00000000000E+00  0.00000000000E+00  0.14999999963E+04  0.15000000000E+04  0.10566000000E+00 0. -1.
        994   -1    0    0    0    0 -0.00000000000E+00 -0.00000000000E+00  0.11368683772E-12  0.17120000000E+03  0.17120000000E+03 0.  0.
         13    1    1    2    0    0 -0.45177988829E+02 -0.32676840710E+02  0.21757576536E+03  0.22460643675E+03  0.10566000000E+00 0. -1.
        994    1    1    2    0    0  0.47842091478E+02  0.15121606548E+02  0.15027426639E+02  0.17903293622E+03  0.17120000000E+03 0.  0.
        998    1    1    2    0    0 -0.26641026488E+01  0.17555234162E+02  0.12673968043E+04  0.12675606270E+04  0.10000000000E+02 0. -1.
</event>
<event>
 5    1  0.1271464E-008  0.3774685E+03  0.7957747E-01  0.3462256E+00
         13   -1    0    0    0    0  0.00000000000E+00  0.00000000000E+00  0.14999999963E+04  0.15000000000E+04  0.10566000000E+00 0. -1.
        994   -1    0    0    0    0 -0.00000000000E+00 -0.00000000000E+00  0.11368683772E-12  0.17120000000E+03  0.17120000000E+03 0.  0.
         13    1    1    2    0    0  0.30716887779E+02  0.12681407952E+03  0.63482610372E+03  0.64809685317E+03  0.10566000000E+00 0. -1.
        994    1    1    2    0    0 -0.76298195991E+02 -0.14145820262E+03  0.98129178239E+02  0.25450071399E+03  0.17120000000E+03 0.  0.
        998    1    1    2    0    0  0.45581308212E+02  0.14644123103E+02  0.76704471432E+03  0.76860243284E+03  0.10000000000E+02 0. -1.
</event>
<event>
 5    1  0.1271464E-008  0.3766191E+03  0.7957747E-01  0.3466013E+00
         13   -1    0    0    0    0  0.00000000000E+00  0.00000000000E+00  0.14999999963E+04  0.15000000000E+04  0.10566000000E+00 0.  1.
        994   -1    0    0    0    0 -0.00000000000E+00 -0.00000000000E+00  0.11368683772E-12  0.17120000000E+03  0.17120000000E+03 0.  0.
         13    1    1    2    0    0 -0.37703333394E+02  0.67226347487E+02  0.18523886955E+03  0.20063492493E+03  0.10566000000E+00 0.  1.
        994    1    1    2    0    0  0.19078481739E+02 -0.64982279010E+02  0.31087192861E+02  0.18671512689E+03  0.17120000000E+03 0.  0.
        998    1    1    2    0    0  0.18624851655E+02 -0.22440684765E+01  0.12836739339E+04  0.12838499482E+04  0.10000000000E+02 0.  1.
</event>
<event>
 5    1  0.1271464E-008  0.3840343E+03  0.7957747E-01  0.3433778E+00
         13   -1    0    0    0    0  0.00000000000E+00  0.00000000000E+00  0.14999999963E+04  0.15000000000E+04  0.10566000000E+00 0. -1.
        994   -1    0    0    0    0 -0.00000000000E+00 -0.00000000000E+00  0.11368683772E-12  0.17120000000E+03  0.17120000000E+03 0.  0.
         13    1    1    2    0    0 -0.16087799396E+02 -0.66786801010E+01  0.70086591743E+02  0.72218858780E+02  0.10566000000E+00 0. -1.
        994    1    1    2    0    0  0.17080978288E+02 -0.26974539898E+01  0.30974708989E+01  0.17209901337E+03  0.17120000000E+03 0.  0.
        998    1    1    2    0    0 -0.99317889192E+00  0.93761340908E+01  0.14268159336E+04  0.14268821278E+04  0.10000000000E+02 0. -1.
</event>
<event>
 5    1  0.1271464E-008  0.3773140E+03  0.7957747E-01  0.3462938E+00
         13   -1    0    0    0    0  0.00000000000E+00  0.00000000000E+00  0.14999999963E+04  0.15000000000E+04  0.10566000000E+00 0.  1.
        994   -1    0    0    0    0 -0.00000000000E+00 -0.00000000000E+00  0.11368683772E-12  0.17120000000E+03  0.17120000000E+03 0.  0.
         13    1    1    2    0    0  0.28539773912E+02  0.14563310998E+02  0.27822476483E+02  0.42434774465E+02  0.10566000000E+00 0.  1.
        994    1    1    2    0    0 -0.29946590653E+02 -0.16656922417E+02  0.19084636826E+02  0.17563574442E+03  0.17120000000E+03 0.  0.
        998    1    1    2    0    0  0.14068167414E+01  0.20936114186E+01  0.14530928830E+04  0.14531294811E+04  0.10000000000E+02 0.  1.
</event>
<event>
 5    1  0.1271464E-008  0.3708343E+03  0.7957747E-01  0.3492065E+00
         13   -1    0    0    0    0  0.00000000000E+00  0.00000000000E+00  0.14999999963E+04  0.15000000000E+04  0.10566000000E+00 0. -1.
        994   -1    0    0    0    0 -0.00000000000E+00 -0.00000000000E+00  0.11368683772E-12  0.17120000000E+03  0.17120000000E+03 0.  0.
         13    1    1    2    0    0 -0.19224866860E+02  0.59774924267E+01  0.12691553714E+02  0.23799424809E+02  0.10566000000E+00 0. -1.
        994    1    1    2    0    0  0.19240783266E+02 -0.43359194605E+01  0.12745763259E+02  0.17280307410E+03  0.17120000000E+03 0.  0.
        998    1    1    2    0    0 -0.15916405393E-01 -0.16415729662E+01  0.14745626793E+04  0.14745975011E+04  0.10000000000E+02 0. -1.
</event>
<event>
 5    1  0.1271464E-008  0.3807324E+03  0.7957747E-01  0.3447976E+00
         13   -1    0    0    0    0  0.00000000000E+00  0.00000000000E+00  0.14999999963E+04  0.15000000000E+04  0.10566000000E+00 0.  1.
        994   -1    0    0    0    0 -0.00000000000E+00 -0.00000000000E+00  0.11368683772E-12  0.17120000000E+03  0.17120000000E+03 0.  0.
         13    1    1    2    0    0  0.59502093686E+01 -0.87861003239E+01  0.13357709766E+02  0.17059898143E+02  0.10566000000E+00 0.  1.
        994    1    1    2    0    0 -0.39091738571E+01  0.59812060025E+01  0.39341710429E+01  0.17139420692E+03  0.17120000000E+03 0.  0.
        998    1    1    2    0    0 -0.20410355115E+01  0.28048943214E+01  0.14827081155E+04  0.14827458949E+04  0.10000000000E+02 0.  1.
</event>
<event>
 5    1  0.1271464E-008  0.3802625E+03  0.7957747E-01  0.3450017E+00
         13   -1    0    0    0    0  0.00000000000E+00  0.00000000000E+00  0.14999999963E+04  0.15000000000E+04  0.10566000000E+00 0. -1.
        994   -1    0    0    0    0 -0.00000000000E+00 -0.00000000000E+00  0.11368683772E-12  0.17120000000E+03  0.17120000000E+03 0.  0.
         13    1    1    2    0    0  0.20736069704E+02 -0.36460914076E+01  0.53303360246E+02  0.57310888554E+02  0.10566000000E+00 0. -1.
        994    1    1    2    0    0 -0.17691240572E+02 -0.43614745069E+01  0.51103942549E+01  0.17224273158E+03  0.17120000000E+03 0.  0.
        998    1    1    2    0    0 -0.30448291319E+01  0.80075659145E+01  0.14415862418E+04  0.14416463799E+04  0.10000000000E+02 0. -1.
</event>
<event>
 5    1  0.1271464E-008  0.3838346E+03  0.7957747E-01  0.3434630E+00
         13   -1    0    0    0    0  0.00000000000E+00  0.00000000000E+00  0.14999999963E+04  0.15000000000E+04  0.10566000000E+00 0. -1.
        994   -1    0    0    0    0 -0.00000000000E+00 -0.00000000000E+00  0.11368683772E-12  0.17120000000E+03  0.17120000000E+03 0.  0.
         13    1    1    2    0    0 -0.11126033866E+02 -0.43755961883E+01  0.30693204201E+02  0.32939617783E+02  0.10566000000E+00 0. -1.
        994    1    1    2    0    0  0.15506060726E+02  0.56121943508E+01  0.31080226166E+01  0.17202044776E+03  0.17120000000E+03 0.  0.
        998    1    1    2    0    0 -0.43800268596E+01 -0.12365981626E+01  0.14661987695E+04  0.14662399345E+04  0.10000000000E+02 0. -1.
</event>
<event>
 5    1  0.1271464E-008  0.3813142E+03  0.7957747E-01  0.3445456E+00
         13   -1    0    0    0    0  0.00000000000E+00  0.00000000000E+00  0.14999999963E+04  0.15000000000E+04  0.10566000000E+00 0. -1.
        994   -1    0    0    0    0 -0.00000000000E+00 -0.00000000000E+00  0.11368683772E-12  0.17120000000E+03  0.17120000000E+03 0.  0.
         13    1    1    2    0    0  0.85158350447E+02 -0.53486403551E+02  0.31773637747E+03  0.33327039585E+03  0.10566000000E+00 0. -1.
        994    1    1    2    0    0 -0.36770054974E+01  0.84168320643E+02  0.43376135981E+02  0.19567512806E+03  0.17120000000E+03 0.  0.
        998    1    1    2    0    0 -0.81481344949E+02 -0.30681917092E+02  0.11388874828E+04  0.11422544761E+04  0.10000000000E+02 0. -1.
</event>
<event>
 5    1  0.1271464E-008  0.3183213E+03  0.7957747E-01  0.3773323E+00
         13   -1    0    0    0    0  0.00000000000E+00  0.00000000000E+00  0.14999999963E+04  0.15000000000E+04  0.10566000000E+00 0. -1.
        994   -1    0    0    0    0 -0.00000000000E+00 -0.00000000000E+00  0.11368683772E-12  0.17120000000E+03  0.17120000000E+03 0.  0.
         13    1    1    2    0    0 -0.16648051050E+03  0.11070443484E+03  0.80744918966E+03  0.83183257770E+03  0.10566000000E+00 0. -1.
        994    1    1    2    0    0  0.12353543926E+03 -0.11810589920E+03  0.12920586218E+03  0.27425098541E+03  0.17120000000E+03 0.  0.
        998    1    1    2    0    0  0.42945071244E+02  0.74014643526E+01  0.56334494444E+03  0.56511643689E+03  0.10000000000E+02 0. -1.
</event>
<event>
 5    1  0.1271464E-008  0.3684987E+03  0.7957747E-01  0.3502819E+00
         13   -1    0    0    0    0  0.00000000000E+00  0.00000000000E+00  0.14999999963E+04  0.15000000000E+04  0.10566000000E+00 0.  1.
        994   -1    0    0    0    0 -0.00000000000E+00 -0.00000000000E+00  0.11368683772E-12  0.17120000000E+03  0.17120000000E+03 0.  0.
         13    1    1    2    0    0 -0.82783155905E+01  0.34642081853E+02  0.59229667942E+02  0.69114174181E+02  0.10566000000E+00 0.  1.
        994    1    1    2    0    0  0.14774023886E+02 -0.17634124651E+02  0.11989839345E+02  0.17315435421E+03  0.17120000000E+03 0.  0.
        998    1    1    2    0    0 -0.64957082956E+01 -0.17007957202E+02  0.14287804890E+04  0.14289314716E+04  0.10000000000E+02 0.  1.
</event>
<event>
 5    1  0.1271464E-008  0.3787223E+03  0.7957747E-01  0.3456741E+00
         13   -1    0    0    0    0  0.00000000000E+00  0.00000000000E+00  0.14999999963E+04  0.15000000000E+04  0.10566000000E+00 0.  1.
        994   -1    0    0    0    0 -0.00000000000E+00 -0.00000000000E+00  0.11368683772E-12  0.17120000000E+03  0.17120000000E+03 0.  0.
         13    1    1    2    0    0 -0.52207998824E+01  0.94558599386E+01  0.10109860941E+02  0.14794948154E+02  0.10566000000E+00 0.  1.
        994    1    1    2    0    0  0.53453366102E+01 -0.41010303257E+01  0.49318990373E+01  0.17140348509E+03  0.17120000000E+03 0.  0.
        998    1    1    2    0    0 -0.12453672781E+00 -0.53548296129E+01  0.14849582363E+04  0.14850015668E+04  0.10000000000E+02 0.  1.
</event>
<event>
 5    1  0.1271464E-008  0.3720493E+03  0.7957747E-01  0.3486525E+00
         13   -1    0    0    0    0  0.00000000000E+00  0.00000000000E+00  0.14999999963E+04  0.15000000000E+04  0.10566000000E+00 0.  1.
        994   -1    0    0    0    0 -0.00000000000E+00 -0.00000000000E+00  0.11368683772E-12  0.17120000000E+03  0.17120000000E+03 0.  0.
         13    1    1    2    0    0  0.29920889321E+02 -0.42190653279E+02  0.19009764236E+03  0.19700871970E+03  0.10566000000E+00 0.  1.
        994    1    1    2    0    0 -0.24030575738E+02 -0.16994763447E+02  0.11181930818E+02  0.17407115250E+03  0.17120000000E+03 0.  0.
        998    1    1    2    0    0 -0.58903135830E+01  0.59185416726E+02  0.12987204231E+04  0.13001201278E+04  0.10000000000E+02 0.  1.
</event>
<event>
 5    1  0.1271464E-008  0.3852291E+03  0.7957747E-01  0.3428701E+00
         13   -1    0    0    0    0  0.00000000000E+00  0.00000000000E+00  0.14999999963E+04  0.15000000000E+04  0.10566000000E+00 0. -1.
        994   -1    0    0    0    0 -0.00000000000E+00 -0.00000000000E+00  0.11368683772E-12  0.17120000000E+03  0.17120000000E+03 0.  0.
         13    1    1    2    0    0 -0.12507618574E+02  0.31920238531E+01  0.51277411207E+02  0.52877344892E+02  0.10566000000E+00 0. -1.
        994    1    1    2    0    0  0.19640540756E+02 -0.74427290834E+01  0.29674612141E+01  0.17250910377E+03  0.17120000000E+03 0.  0.
        998    1    1    2    0    0 -0.71329221828E+01  0.42507052302E+01  0.14457551239E+04  0.14458135513E+04  0.10000000000E+02 0. -1.
</event>
<event>
 5    1  0.1884595E-008  0.3861664E+03  0.7957747E-01  0.3424741E+00
         13   -1    0    0    0    0  0.00000000000E+00  0.00000000000E+00  0.14999999963E+04  0.15000000000E+04  0.10566000000E+00 0.  1.
        994   -1    0    0    0    0 -0.00000000000E+00 -0.00000000000E+00  0.11368683772E-12  0.17120000000E+03  0.17120000000E+03 0.  0.
         13    1    1    2    0    0  0.80349546194E+01  0.84220897142E+01  0.64306112744E+02  0.65351200381E+02  0.10566000000E+00 0.  1.
        994    1    1    2    0    0 -0.45371492562E+01 -0.92299948821E+01  0.13987947322E+01  0.17151435845E+03  0.17120000000E+03 0.  0.
        998    1    1    2    0    0 -0.34978053632E+01  0.80790516793E+00  0.14342950888E+04  0.14343344412E+04  0.10000000000E+02 0.  1.
</event>
<event>
 5    1  0.1271464E-008  0.3817148E+03  0.7957747E-01  0.3443726E+00
         13   -1    0    0    0    0  0.00000000000E+00  0.00000000000E+00  0.14999999963E+04  0.15000000000E+04  0.10566000000E+00 0.  1.
        994   -1    0    0    0    0 -0.00000000000E+00 -0.00000000000E+00  0.11368683772E-12  0.17120000000E+03  0.17120000000E+03 0.  0.
         13    1    1    2    0    0  0.24536884912E+02  0.26478051180E+02  0.21768932934E+03  0.22066218794E+03  0.10566000000E+00 0.  1.
        994    1    1    2    0    0 -0.13924782381E+02 -0.12256241787E+01  0.39198334743E+01  0.17181445461E+03  0.17120000000E+03 0.  0.
        998    1    1    2    0    0 -0.10612102531E+02 -0.25252427001E+02  0.12783908335E+04  0.12787233574E+04  0.10000000000E+02 0.  1.
</event>
<event>
 5    1  0.1271464E-008  0.3730680E+03  0.7957747E-01  0.3481909E+00
         13   -1    0    0    0    0  0.00000000000E+00  0.00000000000E+00  0.14999999963E+04  0.15000000000E+04  0.10566000000E+00 0.  1.
        994   -1    0    0    0    0 -0.00000000000E+00 -0.00000000000E+00  0.11368683772E-12  0.17120000000E+03  0.17120000000E+03 0.  0.
         13    1    1    2    0    0 -0.90374272291E+02  0.26129370365E+02  0.33630135605E+03  0.34921177863E+03  0.10566000000E+00 0.  1.
        994    1    1    2    0    0  0.68514454117E+02  0.15035535182E+02  0.30168694676E+02  0.18745636260E+03  0.17120000000E+03 0.  0.
        998    1    1    2    0    0  0.21859818174E+02 -0.41164905547E+02  0.11335299456E+04  0.11345318588E+04  0.10000000000E+02 0.  1.
</event>
<event>
 5    1  0.1271464E-008  0.3852723E+03  0.7957747E-01  0.3428518E+00
         13   -1    0    0    0    0  0.00000000000E+00  0.00000000000E+00  0.14999999963E+04  0.15000000000E+04  0.10566000000E+00 0. -1.
        994   -1    0    0    0    0 -0.00000000000E+00 -0.00000000000E+00  0.11368683772E-12  0.17120000000E+03  0.17120000000E+03 0.  0.
         13    1    1    2    0    0 -0.39208751127E+00  0.13350526973E+02  0.56840074932E+02  0.58388317199E+02  0.10566000000E+00 0. -1.
        994    1    1    2    0    0 -0.25337226886E+01 -0.17286811482E+02  0.24986335208E+01  0.17210734084E+03  0.17120000000E+03 0.  0.
        998    1    1    2    0    0  0.29258101998E+01  0.39362845081E+01  0.14406612878E+04  0.14407043420E+04  0.10000000000E+02 0. -1.
</event>
<event>
 5    1  0.1271464E-008  0.3857661E+03  0.7957747E-01  0.3426430E+00
         13   -1    0    0    0    0  0.00000000000E+00  0.00000000000E+00  0.14999999963E+04  0.15000000000E+04  0.10566000000E+00 0.  1.
        994   -1    0    0    0    0 -0.00000000000E+00 -0.00000000000E+00  0.11368683772E-12  0.17120000000E+03  0.17120000000E+03 0.  0.
         13    1    1    2    0    0 -0.20918977494E+01  0.12406008975E+02  0.69873949669E+02  0.70997641519E+02  0.10566000000E+00 0.  1.
        994    1    1    2    0    0 -0.91625317226E+01  0.19556196476E+01  0.15382649596E+01  0.17146306510E+03  0.17120000000E+03 0.  0.
        998    1    1    2    0    0  0.11254429472E+02 -0.14361628623E+02  0.14285877817E+04  0.14287392934E+04  0.10000000000E+02 0.  1.
</event>
<event>
 5    1  0.1271464E-008  0.3702964E+03  0.7957747E-01  0.3494530E+00
         13   -1    0    0    0    0  0.00000000000E+00  0.00000000000E+00  0.14999999963E+04  0.15000000000E+04  0.10566000000E+00 0.  1.
        994   -1    0    0    0    0 -0.00000000000E+00 -0.00000000000E+00  0.11368683772E-12  0.17120000000E+03  0.17120000000E+03 0.  0.
         13    1    1    2    0    0  0.27987118989E+02 -0.11268434658E+02  0.40557658429E+02  0.50548899793E+02  0.10566000000E+00 0.  1.
        994    1    1    2    0    0  0.22955990536E+02  0.52007488288E+01  0.13036891594E+02  0.17330154596E+03  0.17120000000E+03 0.  0.
        998    1    1    2    0    0 -0.50943109526E+02  0.60676858293E+01  0.14464054463E+04  0.14473495542E+04  0.10000000000E+02 0.  1.
</event>
<event>
 5    1  0.1271464E-008  0.3790151E+03  0.7957747E-01  0.3455458E+00
         13   -1    0    0    0    0  0.00000000000E+00  0.00000000000E+00  0.14999999963E+04  0.15000000000E+04  0.10566000000E+00 0. -1.
        994   -1    0    0    0    0 -0.00000000000E+00 -0.00000000000E+00  0.11368683772E-12  0.17120000000E+03  0.17120000000E+03 0.  0.
         13    1    1    2    0    0 -0.80228961288E+01  0.34814571286E+02  0.12789774318E+03  0.13279407031E+03  0.10566000000E+00 0. -1.
        994    1    1    2    0    0  0.93290288504E+01 -0.31394382167E+02  0.82369677734E+01  0.17449907063E+03  0.17120000000E+03 0.  0.
        998    1    1    2    0    0 -0.13061327216E+01 -0.34201891191E+01  0.13638652853E+04  0.13639068591E+04  0.10000000000E+02 0. -1.
</event>
<event>
 5    1  0.1271464E-008  0.3839432E+03  0.7957747E-01  0.3434167E+00
         13   -1    0    0    0    0  0.00000000000E+00  0.00000000000E+00  0.14999999963E+04  0.15000000000E+04  0.10566000000E+00 0.  1.
        994   -1    0    0    0    0 -0.00000000000E+00 -0.00000000000E+00  0.11368683772E-12  0.17120000000E+03  0.17120000000E+03 0.  0.
         13    1    1    2    0    0 -0.11839650696E+02  0.92447605294E+01  0.46525746679E+02  0.48890686168E+02  0.10566000000E+00 0.  1.
        994    1    1    2    0    0  0.39562957319E+02 -0.34065621124E+01  0.73766576251E+01  0.17589965132E+03  0.17120000000E+03 0.  0.
        998    1    1    2    0    0 -0.27723306623E+02 -0.58381984170E+01  0.14460975920E+04  0.14464096625E+04  0.10000000000E+02 0.  1.
</event>
<event>
 5    1  0.1271464E-008  0.3856207E+03  0.7957747E-01  0.3427044E+00
         13   -1    0    0    0    0  0.00000000000E+00  0.00000000000E+00  0.14999999963E+04  0.15000000000E+04  0.10566000000E+00 0. -1.
        994   -1    0    0    0    0 -0.00000000000E+00 -0.00000000000E+00  0.11368683772E-12  0.17120000000E+03  0.17120000000E+03 0.  0.
         13    1    1    2    0    0 -0.20557603136E+01 -0.10681204465E+02  0.44595315990E+02  0.45902806576E+02  0.10566000000E+00 0. -1.
        994    1    1    2    0    0  0.42282905616E+01  0.81713725904E+01  0.16001825992E+01  0.17145451395E+03  0.17120000000E+03 0.  0.
        998    1    1    2    0    0 -0.21725302479E+01  0.25098318746E+01  0.14538044977E+04  0.14538426795E+04  0.10000000000E+02 0. -1.
</event>
<event>
 5    1  0.1271464E-008  0.3742395E+03  0.7957747E-01  0.3476631E+00
         13   -1    0    0    0    0  0.00000000000E+00  0.00000000000E+00  0.14999999963E+04  0.15000000000E+04  0.10566000000E+00 0. -1.
        994   -1    0    0    0    0 -0.00000000000E+00 -0.00000000000E+00  0.11368683772E-12  0.17120000000E+03  0.17120000000E+03 0.  0.
         13    1    1    2    0    0  0.47646114492E+02 -0.20083577578E+02  0.16542415892E+03  0.17331666346E+03  0.10566000000E+00 0. -1.
        994    1    1    2    0    0 -0.47552789231E+02  0.25107614020E+02  0.16989107029E+02  0.18024907712E+03  0.17120000000E+03 0.  0.
        998    1    1    2    0    0 -0.93325260481E-01 -0.50240364418E+01  0.13175867303E+04  0.13176342594E+04  0.10000000000E+02 0. -1.
</event>
<event>
 5    1  0.1271464E-008  0.3857263E+03  0.7957747E-01  0.3426598E+00
         13   -1    0    0    0    0  0.00000000000E+00  0.00000000000E+00  0.14999999963E+04  0.15000000000E+04  0.10566000000E+00 0.  1.
        994   -1    0    0    0    0 -0.00000000000E+00 -0.00000000000E+00  0.11368683772E-12  0.17120000000E+03  0.17120000000E+03 0.  0.
         13    1    1    2    0    0  0.12245003552E+02  0.19167893374E+01  0.67146064853E+02  0.68280446561E+02  0.10566000000E+00 0.  1.
        994    1    1    2    0    0  0.62625645697E+01 -0.97472581393E+01  0.17104971403E+01  0.17160010069E+03  0.17120000000E+03 0.  0.
        998    1    1    2    0    0 -0.18507568121E+02  0.78304688019E+01  0.14311434343E+04  0.14313194527E+04  0.10000000000E+02 0.  1.
</event>
<event>
 5    1  0.1271464E-008  0.3834337E+03  0.7957747E-01  0.3436342E+00
         13   -1    0    0    0    0  0.00000000000E+00  0.00000000000E+00  0.14999999963E+04  0.15000000000E+04  0.10566000000E+00 0. -1.
        994   -1    0    0    0    0 -0.00000000000E+00 -0.00000000000E+00  0.11368683772E-12  0.17120000000E+03  0.17120000000E+03 0.  0.
         13    1    1    2    0    0  0.10370401512E+02 -0.14809497374E+02  0.64812161595E+02  0.67286654655E+02  0.10566000000E+00 0. -1.
        994    1    1    2    0    0 -0.14777899207E+02  0.12332505860E+02  0.36352969705E+01  0.17231695329E+03  0.17120000000E+03 0.  0.
        998    1    1    2    0    0  0.44074976944E+01  0.24769915138E+01  0.14315525377E+04  0.14315963921E+04  0.10000000000E+02 0. -1.
</event>
<event>
 5    1  0.1271464E-008  0.3774783E+03  0.7957747E-01  0.3462213E+00
         13   -1    0    0    0    0  0.00000000000E+00  0.00000000000E+00  0.14999999963E+04  0.15000000000E+04  0.10566000000E+00 0. -1.
        994   -1    0    0    0    0 -0.00000000000E+00 -0.00000000000E+00  0.11368683772E-12  0.17120000000E+03  0.17120000000E+03 0.  0.
         13    1    1    2    0    0 -0.24663516889E+02 -0.20513017868E+02  0.87959085184E+02  0.93626303984E+02  0.10566000000E+00 0. -1.
        994    1    1    2    0    0  0.26992708186E+02  0.19167948139E+02  0.91151170807E+01  0.17460968441E+03  0.17120000000E+03 0.  0.
        998    1    1    2    0    0 -0.23291912975E+01  0.13450697291E+01  0.14029257940E+04  0.14029640116E+04  0.10000000000E+02 0. -1.
</event>
<event>
 5    1  0.1271464E-008  0.3845881E+03  0.7957747E-01  0.3431421E+00
         13   -1    0    0    0    0  0.00000000000E+00  0.00000000000E+00  0.14999999963E+04  0.15000000000E+04  0.10566000000E+00 0.  1.
        994   -1    0    0    0    0 -0.00000000000E+00 -0.00000000000E+00  0.11368683772E-12  0.17120000000E+03  0.17120000000E+03 0.  0.
         13    1    1    2    0    0  0.13978606935E+02  0.69076298061E+01  0.60746437425E+02  0.62715688828E+02  0.10566000000E+00 0.  1.
        994    1    1    2    0    0 -0.25012646821E+02 -0.56423633236E+01  0.40028561903E+01  0.17315580159E+03  0.17120000000E+03 0.  0.
        998    1    1    2    0    0  0.11034039886E+02 -0.12652664825E+01  0.14352507027E+04  0.14353285096E+04  0.10000000000E+02 0.  1.
</event>
<event>
 5    1  0.1271464E-008  0.3839174E+03  0.7957747E-01  0.3434277E+00
         13   -1    0    0    0    0  0.00000000000E+00  0.00000000000E+00  0.14999999963E+04  0.15000000000E+04  0.10566000000E+00 0. -1.
        994   -1    0    0    0    0 -0.00000000000E+00 -0.00000000000E+00  0.11368683772E-12  0.17120000000E+03  0.17120000000E+03 0.  0.
         13    1    1    2    0    0 -0.56969240289E+01  0.13288984613E+02  0.47470187956E+02  0.49623401376E+02  0.10566000000E+00 0. -1.
        994    1    1    2    0    0  0.25253416586E+01 -0.10452256587E+02  0.25502555724E+01  0.17155631968E+03  0.17120000000E+03 0.  0.
        998    1    1    2    0    0  0.31715823703E+01 -0.28367280256E+01  0.14499795527E+04  0.14500202789E+04  0.10000000000E+02 0. -1.
</event>
<event>
 5    1  0.1271464E-008  0.3823540E+03  0.7957747E-01  0.3440972E+00
         13   -1    0    0    0    0  0.00000000000E+00  0.00000000000E+00  0.14999999963E+04  0.15000000000E+04  0.10566000000E+00 0.  1.
        994   -1    0    0    0    0 -0.00000000000E+00 -0.00000000000E+00  0.11368683772E-12  0.17120000000E+03  0.17120000000E+03 0.  0.
         13    1    1    2    0    0 -0.82643239366E+01 -0.17228877846E+02  0.61695747723E+02  0.64587225774E+02  0.10566000000E+00 0.  1.
        994    1    1    2    0    0  0.34614774759E+01  0.91842332681E+01  0.32691731170E+01  0.17151227204E+03  0.17120000000E+03 0.  0.
        998    1    1    2    0    0  0.48028464607E+01  0.80446445782E+01  0.14350350754E+04  0.14351005022E+04  0.10000000000E+02 0.  1.
</event>
<event>
 5    1  0.1271464E-008  0.3835590E+03  0.7957747E-01  0.3435807E+00
         13   -1    0    0    0    0  0.00000000000E+00  0.00000000000E+00  0.14999999963E+04  0.15000000000E+04  0.10566000000E+00 0. -1.
        994   -1    0    0    0    0 -0.00000000000E+00 -0.00000000000E+00  0.11368683772E-12  0.17120000000E+03  0.17120000000E+03 0.  0.
         13    1    1    2    0    0  0.99824685249E+01 -0.19801016698E+02  0.91038380317E+02  0.93700201680E+02  0.10566000000E+00 0. -1.
        994    1    1    2    0    0 -0.31741801611E+02  0.24280078001E+02  0.76420549866E+01  0.17596847775E+03  0.17120000000E+03 0.  0.
        998    1    1    2    0    0  0.21759333086E+02 -0.44790613028E+01  0.14013195610E+04  0.14015313206E+04  0.10000000000E+02 0. -1.
</event>
<event>
 5    1  0.1271464E-008  0.3784440E+03  0.7957747E-01  0.3457962E+00
         13   -1    0    0    0    0  0.00000000000E+00  0.00000000000E+00  0.14999999963E+04  0.15000000000E+04  0.10566000000E+00 0. -1.
        994   -1    0    0    0    0 -0.00000000000E+00 -0.00000000000E+00  0.11368683772E-12  0.17120000000E+03  0.17120000000E+03 0.  0.
         13    1    1    2    0    0 -0.41919352877E+01  0.12554097153E+02  0.15592737145E+02  0.20452928702E+02  0.10566000000E+00 0. -1.
        994    1    1    2    0    0  0.13312145090E+01 -0.11617582840E+02  0.53802755978E+01  0.17168321912E+03  0.17120000000E+03 0.  0.
        998    1    1    2    0    0  0.28607207788E+01 -0.93651431254E+00  0.14790269835E+04  0.14790638522E+04  0.10000000000E+02 0. -1.
</event>
<event>
 5    1  0.1271464E-008  0.3848247E+03  0.7957747E-01  0.3430416E+00
         13   -1    0    0    0    0  0.00000000000E+00  0.00000000000E+00  0.14999999963E+04  0.15000000000E+04  0.10566000000E+00 0.  1.
        994   -1    0    0    0    0 -0.00000000000E+00 -0.00000000000E+00  0.11368683772E-12  0.17120000000E+03  0.17120000000E+03 0.  0.
         13    1    1    2    0    0 -0.12783866307E+02  0.32224456365E+00  0.47132288833E+02  0.48836409512E+02  0.10566000000E+00 0.  1.
        994    1    1    2    0    0  0.97810310899E+01 -0.48598535231E+01  0.21097885516E+01  0.17156100359E+03  0.17120000000E+03 0.  0.
        998    1    1    2    0    0  0.30028352167E+01  0.45376089594E+01  0.14507579189E+04  0.14508025869E+04  0.10000000000E+02 0.  1.
</event>
<event>
 5    1  0.1271464E-008  0.3688118E+03  0.7957747E-01  0.3501370E+00
         13   -1    0    0    0    0  0.00000000000E+00  0.00000000000E+00  0.14999999963E+04  0.15000000000E+04  0.10566000000E+00 0.  1.
        994   -1    0    0    0    0 -0.00000000000E+00 -0.00000000000E+00  0.11368683772E-12  0.17120000000E+03  0.17120000000E+03 0.  0.
         13    1    1    2    0    0  0.13582435567E+02 -0.41480024754E+02  0.81897969440E+02  0.92802820927E+02  0.10566000000E+00 0.  1.
        994    1    1    2    0    0 -0.99854883065E+01  0.51222539388E+02  0.19854425593E+02  0.18007525297E+03  0.17120000000E+03 0.  0.
        998    1    1    2    0    0 -0.35969472603E+01 -0.97425146342E+01  0.13982476012E+04  0.13983219261E+04  0.10000000000E+02 0.  1.
</event>
<event>
 5    1  0.1271464E-008  0.3041085E+03  0.7957747E-01  0.3867118E+00
         13   -1    0    0    0    0  0.00000000000E+00  0.00000000000E+00  0.14999999963E+04  0.15000000000E+04  0.10566000000E+00 0. -1.
        994   -1    0    0    0    0 -0.00000000000E+00 -0.00000000000E+00  0.11368683772E-12  0.17120000000E+03  0.17120000000E+03 0.  0.
         13    1    1    2    0    0  0.17024925969E+03 -0.45765832496E+01  0.86630079787E+03  0.88288325337E+03  0.10566000000E+00 0. -1.
        994    1    1    2    0    0 -0.65106064398E+02  0.32810370053E+02  0.47546620410E+02  0.19205582813E+03  0.17120000000E+03 0.  0.
        998    1    1    2    0    0 -0.10514319529E+03 -0.28233786804E+02  0.58615257800E+03  0.59626091850E+03  0.10000000000E+02 0. -1.
</event>
<event>
 5    1  0.1271464E-008  0.3768563E+03  0.7957747E-01  0.3464962E+00
         13   -1    0    0    0    0  0.00000000000E+00  0.00000000000E+00  0.14999999963E+04  0.15000000000E+04  0.10566000000E+00 0. -1.
        994   -1    0    0    0    0 -0.00000000000E+00 -0.00000000000E+00  0.11368683772E-12  0.17120000000E+03  0.17120000000E+03 0.  0.
         13    1    1    2    0    0 -0.25244181329E+02  0.33829322301E+02  0.14466360141E+03  0.15069592056E+03  0.10566000000E+00 0. -1.
        994    1    1    2    0    0  0.10955011815E+02 -0.36976052442E+02  0.10769052636E+02  0.17581994549E+03  0.17120000000E+03 0.  0.
        998    1    1    2    0    0  0.14289169514E+02  0.31467301411E+01  0.13445673422E+04  0.13446841339E+04  0.10000000000E+02 0. -1.
</event>
<event>
 5    1  0.1271464E-008  0.3850145E+03  0.7957747E-01  0.3429611E+00
         13   -1    0    0    0    0  0.00000000000E+00  0.00000000000E+00  0.14999999963E+04  0.15000000000E+04  0.10566000000E+00 0. -1.
        994   -1    0    0    0    0 -0.00000000000E+00 -0.00000000000E+00  0.11368683772E-12  0.17120000000E+03  0.17120000000E+03 0.  0.
         13    1    1    2    0    0  0.37073516245E+01  0.11857707954E+02  0.46561739818E+02  0.48190833909E+02  0.10566000000E+00 0. -1.
        994    1    1    2    0    0 -0.50006055992E+01 -0.10989892126E+02  0.21024967290E+01  0.17163812012E+03  0.17120000000E+03 0.  0.
        998    1    1    2    0    0  0.12932539747E+01 -0.86781582763E+00  0.14513357597E+04  0.14513710460E+04  0.10000000000E+02 0. -1.
</event>
<event>
 5    1  0.1271464E-008  0.3725898E+03  0.7957747E-01  0.3484073E+00
         13   -1    0    0    0    0  0.00000000000E+00  0.00000000000E+00  0.14999999963E+04  0.15000000000E+04  0.10566000000E+00 0. -1.
        994   -1    0    0    0    0 -0.00000000000E+00 -0.00000000000E+00  0.11368683772E-12  0.17120000000E+03  0.17120000000E+03 0.  0.
         13    1    1    2    0    0  0.72194299554E+02  0.63902187577E+01  0.27984239445E+03  0.28907547229E+03  0.10566000000E+00 0. -1.
        994    1    1    2    0    0 -0.66703806799E+02  0.22215904557E+01  0.23344625560E+02  0.18522619914E+03  0.17120000000E+03 0.  0.
        998    1    1    2    0    0 -0.54904927549E+01 -0.86118092134E+01  0.11968129763E+04  0.11968983286E+04  0.10000000000E+02 0. -1.
</event>
<event>
 5    1  0.1271464E-008  0.3766568E+03  0.7957747E-01  0.3465846E+00
         13   -1    0    0    0    0  0.00000000000E+00  0.00000000000E+00  0.14999999963E+04  0.15000000000E+04  0.10566000000E+00 0. -1.
        994   -1    0    0    0    0 -0.00000000000E+00 -0.00000000000E+00  0.11368683772E-12  0.17120000000E+03  0.17120000000E+03 0.  0.
         13    1    1    2    0    0  0.18801627634E+02 -0.33958530579E+02  0.44974836914E+02  0.59409007064E+02  0.10566000000E+00 0. -1.
        994    1    1    2    0    0 -0.22489268887E+02  0.32890437387E+02  0.20207247187E+02  0.17693309731E+03  0.17120000000E+03 0.  0.
        998    1    1    2    0    0  0.36876412525E+01  0.10680931916E+01  0.14348179122E+04  0.14348578956E+04  0.10000000000E+02 0. -1.
</event>
<event>
 5    1  0.1271464E-008  0.3051263E+03  0.7957747E-01  0.3860088E+00
         13   -1    0    0    0    0  0.00000000000E+00  0.00000000000E+00  0.14999999963E+04  0.15000000000E+04  0.10566000000E+00 0. -1.
        994   -1    0    0    0    0 -0.00000000000E+00 -0.00000000000E+00  0.11368683772E-12  0.17120000000E+03  0.17120000000E+03 0.  0.
         13    1    1    2    0    0 -0.16031582015E+03  0.58828167145E+02  0.81531606517E+03  0.83300793077E+03  0.10566000000E+00 0. -1.
        994    1    1    2    0    0  0.77808279524E+02 -0.69543228095E+02  0.61959060629E+02  0.20985412584E+03  0.17120000000E+03 0.  0.
        998    1    1    2    0    0  0.82507540629E+02  0.10715060950E+02  0.62272487048E+03  0.62833794339E+03  0.10000000000E+02 0. -1.
</event>
<event>
 5    1  0.1271464E-008  0.3742209E+03  0.7957747E-01  0.3476715E+00
         13   -1    0    0    0    0  0.00000000000E+00  0.00000000000E+00  0.14999999963E+04  0.15000000000E+04  0.10566000000E+00 0. -1.
        994   -1    0    0    0    0 -0.00000000000E+00 -0.00000000000E+00  0.11368683772E-12  0.17120000000E+03  0.17120000000E+03 0.  0.
         13    1    1    2    0    0  0.56929138724E+02  0.25155912800E+02  0.22925842056E+03  0.23755669081E+03  0.10566000000E+00 0. -1.
        994    1    1    2    0    0 -0.61381408994E+02 -0.17552329055E+02  0.21099766152E+02  0.18393042640E+03  0.17120000000E+03 0.  0.
        998    1    1    2    0    0  0.44522702696E+01 -0.76035837450E+01  0.12496418096E+04  0.12497128828E+04  0.10000000000E+02 0. -1.
</event>
<event>
 5    1  0.1271464E-008  0.3690788E+03  0.7957747E-01  0.3500135E+00
         13   -1    0    0    0    0  0.00000000000E+00  0.00000000000E+00  0.14999999963E+04  0.15000000000E+04  0.10566000000E+00 0. -1.
        994   -1    0    0    0    0 -0.00000000000E+00 -0.00000000000E+00  0.11368683772E-12  0.17120000000E+03  0.17120000000E+03 0.  0.
         13    1    1    2    0    0  0.13806816046E+03  0.20765169055E+02  0.66201833005E+03  0.67658132524E+03  0.10566000000E+00 0. -1.
        994    1    1    2    0    0 -0.11726220060E+03 -0.41448287064E+02  0.65496733303E+02  0.22151218084E+03  0.17120000000E+03 0.  0.
        998    1    1    2    0    0 -0.20805959860E+02  0.20683118009E+02  0.77248493293E+03  0.77310649392E+03  0.10000000000E+02 0. -1.
</event>
<event>
 5    1  0.1271464E-008  0.3844146E+03  0.7957747E-01  0.3432159E+00
         13   -1    0    0    0    0  0.00000000000E+00  0.00000000000E+00  0.14999999963E+04  0.15000000000E+04  0.10566000000E+00 0. -1.
        994   -1    0    0    0    0 -0.00000000000E+00 -0.00000000000E+00  0.11368683772E-12  0.17120000000E+03  0.17120000000E+03 0.  0.
         13    1    1    2    0    0 -0.12088362188E+02 -0.33161097599E+01  0.40320459787E+02  0.42224113084E+02  0.10566000000E+00 0. -1.
        994    1    1    2    0    0  0.78963212524E+01  0.73383416367E+01  0.23040522152E+01  0.17155451555E+03  0.17120000000E+03 0.  0.
        998    1    1    2    0    0  0.41920409354E+01 -0.40222318767E+01  0.14573754843E+04  0.14574213714E+04  0.10000000000E+02 0. -1.
</event>
<event>
 5    1  0.1271464E-008  0.3796979E+03  0.7957747E-01  0.3452475E+00
         13   -1    0    0    0    0  0.00000000000E+00  0.00000000000E+00  0.14999999963E+04  0.15000000000E+04  0.10566000000E+00 0. -1.
        994   -1    0    0    0    0 -0.00000000000E+00 -0.00000000000E+00  0.11368683772E-12  0.17120000000E+03  0.17120000000E+03 0.  0.
         13    1    1    2    0    0  0.11500196122E+02 -0.24175459375E+02  0.79031051130E+02  0.83442348682E+02  0.10566000000E+00 0. -1.
        994    1    1    2    0    0 -0.22898957543E+02  0.16965547979E+02  0.70082681099E+01  0.17369728811E+03  0.17120000000E+03 0.  0.
        998    1    1    2    0    0  0.11398761421E+02  0.72099113966E+01  0.14139606770E+04  0.14140603632E+04  0.10000000000E+02 0. -1.
</event>
<event>
 5    1  0.1271464E-008  0.3802427E+03  0.7957747E-01  0.3450102E+00
         13   -1    0    0    0    0  0.00000000000E+00  0.00000000000E+00  0.14999999963E+04  0.15000000000E+04  0.10566000000E+00 0.  1.
        994   -1    0    0    0    0 -0.00000000000E+00 -0.00000000000E+00  0.11368683772E-12  0.17120000000E+03  0.17120000000E+03 0.  0.
         13    1    1    2    0    0 -0.12244100278E+02  0.88670688631E+01  0.27472074094E+02  0.31357119142E+02  0.10566000000E+00 0.  1.
        994    1    1    2    0    0 -0.78166999821E+00 -0.65648335972E+01  0.41566907589E+01  0.17137802113E+03  0.17120000000E+03 0.  0.
        998    1    1    2    0    0  0.13025770276E+02 -0.23022352659E+01  0.14683712314E+04  0.14684648597E+04  0.10000000000E+02 0.  1.
</event>
<event>
 5    1  0.1271464E-008  0.3829922E+03  0.7957747E-01  0.3438232E+00
         13   -1    0    0    0    0  0.00000000000E+00  0.00000000000E+00  0.14999999963E+04  0.15000000000E+04  0.10566000000E+00 0.  1.
        994   -1    0    0    0    0 -0.00000000000E+00 -0.00000000000E+00  0.11368683772E-12  0.17120000000E+03  0.17120000000E+03 0.  0.
         13    1    1    2    0    0  0.21808495896E+02 -0.10830060081E+02  0.85299919971E+01  0.25800632204E+02  0.10566000000E+00 0.  1.
        994    1    1    2    0    0 -0.21363773402E+02  0.16776724469E+02  0.20688555452E+02  0.17457183514E+03  0.17120000000E+03 0.  0.
        998    1    1    2    0    0 -0.44472249410E+00 -0.59466643872E+01  0.14707814488E+04  0.14708275327E+04  0.10000000000E+02 0.  1.
</event>
<event>
 5    1  0.1271464E-008  0.3770598E+03  0.7957747E-01  0.3464061E+00
         13   -1    0    0    0    0  0.00000000000E+00  0.00000000000E+00  0.14999999963E+04  0.15000000000E+04  0.10566000000E+00 0. -1.
        994   -1    0    0    0    0 -0.00000000000E+00 -0.00000000000E+00  0.11368683772E-12  0.17120000000E+03  0.17120000000E+03 0.  0.
         13    1    1    2    0    0  0.31807698220E+02 -0.46483241577E+02  0.33713944925E+03  0.34181199630E+03  0.10566000000E+00 0. -1.
        994    1    1    2    0    0 -0.40012105516E+01  0.11368342828E+02  0.61152054203E+01  0.17173259633E+03  0.17120000000E+03 0.  0.
        998    1    1    2    0    0 -0.27806487668E+02  0.35114898749E+02  0.11567453416E+04  0.11576554074E+04  0.10000000000E+02 0. -1.
</event>
<event>
 5    1  0.1271464E-008  0.3729445E+03  0.7957747E-01  0.3482467E+00
         13   -1    0    0    0    0  0.00000000000E+00  0.00000000000E+00  0.14999999963E+04  0.15000000000E+04  0.10566000000E+00 0. -1.
        994   -1    0    0    0    0 -0.00000000000E+00 -0.00000000000E+00  0.11368683772E-12  0.17120000000E+03  0.17120000000E+03 0.  0.
         13    1    1    2    0    0 -0.62326310357E+02 -0.28725608411E+02  0.22552550305E+03  0.23573606689E+03  0.10566000000E+00 0. -1.
        994    1    1    2    0    0  0.79081887254E+02  0.42373924384E+02  0.35814042597E+02  0.19657461689E+03  0.17120000000E+03 0.  0.
        998    1    1    2    0    0 -0.16755576897E+02 -0.13648315974E+02  0.12386604506E+04  0.12388893162E+04  0.10000000000E+02 0. -1.
</event>
<event>
 5    1  0.1271464E-008  0.3728528E+03  0.7957747E-01  0.3482882E+00
         13   -1    0    0    0    0  0.00000000000E+00  0.00000000000E+00  0.14999999963E+04  0.15000000000E+04  0.10566000000E+00 0.  1.
        994   -1    0    0    0    0 -0.00000000000E+00 -0.00000000000E+00  0.11368683772E-12  0.17120000000E+03  0.17120000000E+03 0.  0.
         13    1    1    2    0    0  0.15655956125E+03  0.67371243818E+02  0.65076585888E+03  0.67271538927E+03  0.10566000000E+00 0.  1.
        994    1    1    2    0    0 -0.17205064187E+03 -0.97959042949E+02  0.15676201778E+03  0.30509206428E+03  0.17120000000E+03 0.  0.
        998    1    1    2    0    0  0.15491080628E+02  0.30587799130E+02  0.69247211962E+03  0.69339254646E+03  0.10000000000E+02 0. -1.
</event>
<event>
 5    1  0.1271464E-008  0.3833629E+03  0.7957747E-01  0.3436645E+00
         13   -1    0    0    0    0  0.00000000000E+00  0.00000000000E+00  0.14999999963E+04  0.15000000000E+04  0.10566000000E+00 0.  1.
        994   -1    0    0    0    0 -0.00000000000E+00 -0.00000000000E+00  0.11368683772E-12  0.17120000000E+03  0.17120000000E+03 0.  0.
         13    1    1    2    0    0  0.13648784194E+02 -0.99084751375E+01  0.56828636096E+02  0.59278767144E+02  0.10566000000E+00 0.  1.
        994    1    1    2    0    0 -0.88088609514E+01  0.10765382505E+02  0.30851071844E+01  0.17179187227E+03  0.17120000000E+03 0.  0.
        998    1    1    2    0    0 -0.48399232430E+01 -0.85690736707E+00  0.14400862530E+04  0.14401293606E+04  0.10000000000E+02 0.  1.
</event>
<event>
 5    1  0.1271464E-008  0.3706379E+03  0.7957747E-01  0.3492964E+00
         13   -1    0    0    0    0  0.00000000000E+00  0.00000000000E+00  0.14999999963E+04  0.15000000000E+04  0.10566000000E+00 0.  1.
        994   -1    0    0    0    0 -0.00000000000E+00 -0.00000000000E+00  0.11368683772E-12  0.17120000000E+03  0.17120000000E+03 0.  0.
         13    1    1    2    0    0 -0.64344622839E+01  0.64088691708E+02  0.21301648698E+03  0.22254167610E+03  0.10566000000E+00 0.  1.
        994    1    1    2    0    0 -0.99763791525E+01 -0.52602166275E+02  0.18891441548E+02  0.18036862976E+03  0.17120000000E+03 0.  0.
        998    1    1    2    0    0  0.16410841436E+02 -0.11486525433E+02  0.12680920677E+04  0.12682896941E+04  0.10000000000E+02 0.  1.
</event>
<event>
 5    1  0.1271464E-008  0.3835954E+03  0.7957747E-01  0.3435651E+00
         13   -1    0    0    0    0  0.00000000000E+00  0.00000000000E+00  0.14999999963E+04  0.15000000000E+04  0.10566000000E+00 0.  1.
        994   -1    0    0    0    0 -0.00000000000E+00 -0.00000000000E+00  0.11368683772E-12  0.17120000000E+03  0.17120000000E+03 0.  0.
         13    1    1    2    0    0  0.92925393167E+01 -0.15093490414E+02  0.65695993158E+02  0.68045127826E+02  0.10566000000E+00 0.  1.
        994    1    1    2    0    0 -0.13296991804E+01  0.16585832014E+02  0.32442736511E+01  0.17203727281E+03  0.17120000000E+03 0.  0.
        998    1    1    2    0    0 -0.79628401363E+01 -0.14923416000E+01  0.14310597295E+04  0.14311175994E+04  0.10000000000E+02 0.  1.
</event>
<event>
 5    1  0.1271464E-008  0.4084399E+03  0.7957747E-01  0.3335963E+00
         13   -1    0    0    0    0  0.00000000000E+00  0.00000000000E+00  0.14999999963E+04  0.15000000000E+04  0.10566000000E+00 0. -1.
        994   -1    0    0    0    0 -0.00000000000E+00 -0.00000000000E+00  0.11368683772E-12  0.17120000000E+03  0.17120000000E+03 0.  0.
         13    1    1    2    0    0 -0.18657651574E+02 -0.23870857722E+02  0.13925188778E+00  0.30297794735E+02  0.10566000000E+00 0. -1.
        994    1    1    2    0    0  0.18964419273E+02  0.24668881154E+02  0.36858653601E+02  0.17786568877E+03  0.17120000000E+03 0.  0.
        998    1    1    2    0    0 -0.30676769860E+00 -0.79802343169E+00  0.14630020908E+04  0.14630365165E+04  0.10000000000E+02 0. -1.
</event>
<event>
 5    1  0.1630514E-008  0.3862836E+03  0.7957747E-01  0.3424246E+00
         13   -1    0    0    0    0  0.00000000000E+00  0.00000000000E+00  0.14999999963E+04  0.15000000000E+04  0.10566000000E+00 0. -1.
        994   -1    0    0    0    0 -0.00000000000E+00 -0.00000000000E+00  0.11368683772E-12  0.17120000000E+03  0.17120000000E+03 0.  0.
         13    1    1    2    0    0  0.43018008851E+01  0.90567699642E+01  0.51881255282E+02  0.52841332182E+02  0.10566000000E+00 0. -1.
        994    1    1    2    0    0  0.11176595600E+01 -0.66883582756E+01  0.11447833909E+01  0.17133806882E+03  0.17120000000E+03 0.  0.
        998    1    1    2    0    0 -0.54194604451E+01 -0.23684116886E+01  0.14469739576E+04  0.14470205990E+04  0.10000000000E+02 0. -1.
</event>
<event>
 5    1  0.1919531E-008  0.3865501E+03  0.7957747E-01  0.3423124E+00
         13   -1    0    0    0    0  0.00000000000E+00  0.00000000000E+00  0.14999999963E+04  0.15000000000E+04  0.10566000000E+00 0.  1.
        994   -1    0    0    0    0 -0.00000000000E+00 -0.00000000000E+00  0.11368683772E-12  0.17120000000E+03  0.17120000000E+03 0.  0.
         13    1    1    2    0    0  0.93107112601E+01 -0.43306004030E+01  0.61893271293E+02  0.62739394637E+02  0.10566000000E+00 0.  1.
        994    1    1    2    0    0 -0.60149047017E+01  0.64077612370E+01  0.11152537963E+01  0.17142905901E+03  0.17120000000E+03 0.  0.
        998    1    1    2    0    0 -0.32958065584E+01 -0.20771608340E+01  0.14369914712E+04  0.14370315464E+04  0.10000000000E+02 0.  1.
</event>
<event>
 5    1  0.1271464E-008  0.3745448E+03  0.7957747E-01  0.3475261E+00
         13   -1    0    0    0    0  0.00000000000E+00  0.00000000000E+00  0.14999999963E+04  0.15000000000E+04  0.10566000000E+00 0.  1.
        994   -1    0    0    0    0 -0.00000000000E+00 -0.00000000000E+00  0.11368683772E-12  0.17120000000E+03  0.17120000000E+03 0.  0.
         13    1    1    2    0    0  0.24318915480E+03  0.23115526989E+03  0.63645256296E+03  0.71947592029E+03  0.10566000000E+00 0.  1.
        994    1    1    2    0    0 -0.23667267473E+03 -0.23029146588E+03  0.74621725948E+03  0.83378519570E+03  0.17120000000E+03 0.  0.
        998    1    1    2    0    0 -0.65164800639E+01 -0.86380401188E+00  0.11733017384E+03  0.11793888401E+03  0.10000000000E+02 0. -1.
</event>
<event>
 5    1  0.1271464E-008  0.3804540E+03  0.7957747E-01  0.3449184E+00
         13   -1    0    0    0    0  0.00000000000E+00  0.00000000000E+00  0.14999999963E+04  0.15000000000E+04  0.10566000000E+00 0. -1.
        994   -1    0    0    0    0 -0.00000000000E+00 -0.00000000000E+00  0.11368683772E-12  0.17120000000E+03  0.17120000000E+03 0.  0.
         13    1    1    2    0    0 -0.22144521143E+01  0.28392199257E+02  0.10198976097E+03  0.10589118606E+03  0.10566000000E+00 0. -1.
        994    1    1    2    0    0 -0.88889603738E+01 -0.19153680624E+02  0.53938339730E+01  0.17258160546E+03  0.17120000000E+03 0.  0.
        998    1    1    2    0    0  0.11103412488E+02 -0.92385186331E+01  0.13926164013E+04  0.13927272085E+04  0.10000000000E+02 0. -1.
</event>
<event>
 5    1  0.1271464E-008  0.3785017E+03  0.7957747E-01  0.3457708E+00
         13   -1    0    0    0    0  0.00000000000E+00  0.00000000000E+00  0.14999999963E+04  0.15000000000E+04  0.10566000000E+00 0. -1.
        994   -1    0    0    0    0 -0.00000000000E+00 -0.00000000000E+00  0.11368683772E-12  0.17120000000E+03  0.17120000000E+03 0.  0.
         13    1    1    2    0    0 -0.20035862018E+02 -0.44287418969E+02  0.26237436402E+03  0.26683914500E+03  0.10566000000E+00 0. -1.
        994    1    1    2    0    0  0.51143901847E+00  0.18218504800E+02  0.60081406637E+01  0.17227220682E+03  0.17120000000E+03 0.  0.
        998    1    1    2    0    0  0.19524422999E+02  0.26068914169E+02  0.12316174916E+04  0.12320886482E+04  0.10000000000E+02 0. -1.
</event>
<event>
 5    1  0.1271464E-008  0.3841726E+03  0.7957747E-01  0.3433189E+00
         13   -1    0    0    0    0  0.00000000000E+00  0.00000000000E+00  0.14999999963E+04  0.15000000000E+04  0.10566000000E+00 0. -1.
        994   -1    0    0    0    0 -0.00000000000E+00 -0.00000000000E+00  0.11368683772E-12  0.17120000000E+03  0.17120000000E+03 0.  0.
         13    1    1    2    0    0 -0.16567986820E+02  0.47301477166E+01  0.68572637064E+02  0.70704244587E+02  0.10566000000E+00 0. -1.
        994    1    1    2    0    0  0.20054582256E+02 -0.41157134893E+01  0.34247511609E+01  0.17245374536E+03  0.17120000000E+03 0.  0.
        998    1    1    2    0    0 -0.34865954360E+01 -0.61443422723E+00  0.14280026081E+04  0.14280420101E+04  0.10000000000E+02 0. -1.
</event>
<event>
 5    1  0.1271464E-008  0.3792460E+03  0.7957747E-01  0.3454448E+00
         13   -1    0    0    0    0  0.00000000000E+00  0.00000000000E+00  0.14999999963E+04  0.15000000000E+04  0.10566000000E+00 0.  1.
        994   -1    0    0    0    0 -0.00000000000E+00 -0.00000000000E+00  0.11368683772E-12  0.17120000000E+03  0.17120000000E+03 0.  0.
         13    1    1    2    0    0  0.27956578061E+02  0.12322953691E+02  0.98110152048E+02  0.10275718244E+03  0.10566000000E+00 0.  1.
        994    1    1    2    0    0 -0.22700979259E+02 -0.13341722601E+02  0.68412831444E+01  0.17334814443E+03  0.17120000000E+03 0.  0.
        998    1    1    2    0    0 -0.52555988015E+01  0.10187689094E+01  0.13950485611E+04  0.13950946731E+04  0.10000000000E+02 0.  1.
</event>
<event>
 5    1  0.1271464E-008  0.3832251E+03  0.7957747E-01  0.3437235E+00
         13   -1    0    0    0    0  0.00000000000E+00  0.00000000000E+00  0.14999999963E+04  0.15000000000E+04  0.10566000000E+00 0. -1.
        994   -1    0    0    0    0 -0.00000000000E+00 -0.00000000000E+00  0.11368683772E-12  0.17120000000E+03  0.17120000000E+03 0.  0.
         13    1    1    2    0    0 -0.12953664021E+02 -0.78906986691E+01  0.45941584951E+02  0.48380790908E+02  0.10566000000E+00 0. -1.
        994    1    1    2    0    0  0.48882951236E+01  0.25762540416E+01  0.26148944843E+01  0.17130910713E+03  0.17120000000E+03 0.  0.
        998    1    1    2    0    0  0.80653688973E+01  0.53144446275E+01  0.14514435168E+04  0.14515101020E+04  0.10000000000E+02 0. -1.
</event>
<event>
 5    1  0.1271464E-008  0.3813496E+03  0.7957747E-01  0.3445303E+00
         13   -1    0    0    0    0  0.00000000000E+00  0.00000000000E+00  0.14999999963E+04  0.15000000000E+04  0.10566000000E+00 0.  1.
        994   -1    0    0    0    0 -0.00000000000E+00 -0.00000000000E+00  0.11368683772E-12  0.17120000000E+03  0.17120000000E+03 0.  0.
         13    1    1    2    0    0  0.17461448515E+02 -0.29667879902E+01  0.42543720595E+02  0.46083438906E+02  0.10566000000E+00 0.  1.
        994    1    1    2    0    0 -0.21262984476E+02  0.45543510996E+01  0.50287135720E+01  0.17264873177E+03  0.17120000000E+03 0.  0.
        998    1    1    2    0    0  0.38015359604E+01 -0.15875631094E+01  0.14524275621E+04  0.14524678293E+04  0.10000000000E+02 0.  1.
</event>
<event>
 5    1  0.1271464E-008  0.3854589E+03  0.7957747E-01  0.3427728E+00
         13   -1    0    0    0    0  0.00000000000E+00  0.00000000000E+00  0.14999999963E+04  0.15000000000E+04  0.10566000000E+00 0.  1.
        994   -1    0    0    0    0 -0.00000000000E+00 -0.00000000000E+00  0.11368683772E-12  0.17120000000E+03  0.17120000000E+03 0.  0.
         13    1    1    2    0    0 -0.11808707223E+02  0.59896273044E+01  0.66029697839E+02  0.67344289753E+02  0.10566000000E+00 0.  1.
        994    1    1    2    0    0 -0.39044202298E+01 -0.11490826556E+02  0.18862427122E+01  0.17163997642E+03  0.17120000000E+03 0.  0.
        998    1    1    2    0    0  0.15713127453E+02  0.55011992520E+01  0.14320840557E+04  0.14322157338E+04  0.10000000000E+02 0.  1.
</event>
<event>
 5    1  0.1271464E-008  0.3791625E+03  0.7957747E-01  0.3454813E+00
         13   -1    0    0    0    0  0.00000000000E+00  0.00000000000E+00  0.14999999963E+04  0.15000000000E+04  0.10566000000E+00 0.  1.
        994   -1    0    0    0    0 -0.00000000000E+00 -0.00000000000E+00  0.11368683772E-12  0.17120000000E+03  0.17120000000E+03 0.  0.
         13    1    1    2    0    0 -0.10949358810E+02 -0.17396344571E+02  0.45292037359E+02  0.49738326017E+02  0.10566000000E+00 0.  1.
        994    1    1    2    0    0  0.69265338137E+01  0.65332892884E+01  0.48604981196E+01  0.17153345208E+03  0.17120000000E+03 0.  0.
        998    1    1    2    0    0  0.40228249964E+01  0.10863055282E+02  0.14498474608E+04  0.14499282219E+04  0.10000000000E+02 0.  1.
</event>
<event>
 5    1  0.2151639E-008  0.3856507E+03  0.7957747E-01  0.3426917E+00
         13   -1    0    0    0    0  0.00000000000E+00  0.00000000000E+00  0.14999999963E+04  0.15000000000E+04  0.10566000000E+00 0. -1.
        994   -1    0    0    0    0 -0.00000000000E+00 -0.00000000000E+00  0.11368683772E-12  0.17120000000E+03  0.17120000000E+03 0.  0.
         13    1    1    2    0    0  0.94359829900E+01 -0.76893169855E+01  0.56468850081E+02  0.57765955062E+02  0.10566000000E+00 0. -1.
        994    1    1    2    0    0 -0.84098228601E+01  0.50028026067E+01  0.16217382252E+01  0.17148709336E+03  0.17120000000E+03 0.  0.
        998    1    1    2    0    0 -0.10261601299E+01  0.26865143787E+01  0.14419094080E+04  0.14419469516E+04  0.10000000000E+02 0. -1.
</event>
<event>
 5    1  0.1271464E-008  0.3741369E+03  0.7957747E-01  0.3477092E+00
         13   -1    0    0    0    0  0.00000000000E+00  0.00000000000E+00  0.14999999963E+04  0.15000000000E+04  0.10566000000E+00 0. -1.
        994   -1    0    0    0    0 -0.00000000000E+00 -0.00000000000E+00  0.11368683772E-12  0.17120000000E+03  0.17120000000E+03 0.  0.
         13    1    1    2    0    0  0.16981904940E+02 -0.71881185534E+02  0.23059753681E+03  0.24213740949E+03  0.10566000000E+00 0. -1.
        994    1    1    2    0    0  0.46623329895E+02  0.32564084528E+02  0.24706468500E+02  0.18208241013E+03  0.17120000000E+03 0.  0.
        998    1    1    2    0    0 -0.63605234835E+02  0.39317101006E+02  0.12446959910E+04  0.12469801804E+04  0.10000000000E+02 0. -1.
</event>
<event>
 5    1  0.1271464E-008  0.3840641E+03  0.7957747E-01  0.3433651E+00
         13   -1    0    0    0    0  0.00000000000E+00  0.00000000000E+00  0.14999999963E+04  0.15000000000E+04  0.10566000000E+00 0.  1.
        994   -1    0    0    0    0 -0.00000000000E+00 -0.00000000000E+00  0.11368683772E-12  0.17120000000E+03  0.17120000000E+03 0.  0.
         13    1    1    2    0    0  0.76738395424E+01  0.95909423473E+01  0.38102432933E+02  0.40033492826E+02  0.10566000000E+00 0.  1.
        994    1    1    2    0    0 -0.56775164258E+01  0.14368815301E+02  0.28833007753E+01  0.17191989550E+03  0.17120000000E+03 0.  0.
        998    1    1    2    0    0 -0.19963231166E+01 -0.23959757648E+02  0.14590142626E+04  0.14592466117E+04  0.10000000000E+02 0.  1.
</event>
<event>
 5    1  0.1271464E-008  0.3845412E+03  0.7957747E-01  0.3431620E+00
         13   -1    0    0    0    0  0.00000000000E+00  0.00000000000E+00  0.14999999963E+04  0.15000000000E+04  0.10566000000E+00 0.  1.
        994   -1    0    0    0    0 -0.00000000000E+00 -0.00000000000E+00  0.11368683772E-12  0.17120000000E+03  0.17120000000E+03 0.  0.
         13    1    1    2    0    0  0.80698429433E+01  0.15902409498E+02  0.89275878093E+02  0.91039565939E+02  0.10566000000E+00 0.  1.
        994    1    1    2    0    0 -0.43533759117E+01 -0.35113052731E+01  0.19611300404E+01  0.17130256034E+03  0.17120000000E+03 0.  0.
        998    1    1    2    0    0 -0.37164670316E+01 -0.12391104224E+02  0.14087629881E+04  0.14088578737E+04  0.10000000000E+02 0.  1.
</event>
<event>
 5    1  0.1271464E-008  0.3698657E+03  0.7957747E-01  0.3496508E+00
         13   -1    0    0    0    0  0.00000000000E+00  0.00000000000E+00  0.14999999963E+04  0.15000000000E+04  0.10566000000E+00 0.  1.
        994   -1    0    0    0    0 -0.00000000000E+00 -0.00000000000E+00  0.11368683772E-12  0.17120000000E+03  0.17120000000E+03 0.  0.
         13    1    1    2    0    0  0.63209584233E+02  0.23632710622E+02  0.19455978212E+03  0.20593075665E+03  0.10566000000E+00 0.  1.
        994    1    1    2    0    0 -0.62592280573E+02  0.16444340136E+02  0.25649756720E+02  0.18481222884E+03  0.17120000000E+03 0.  0.
        998    1    1    2    0    0 -0.61730366025E+00 -0.40077050758E+02  0.12797904574E+04  0.12804570145E+04  0.10000000000E+02 0.  1.
</event>
<event>
 5    1  0.1271464E-008  0.3811746E+03  0.7957747E-01  0.3446060E+00
         13   -1    0    0    0    0  0.00000000000E+00  0.00000000000E+00  0.14999999963E+04  0.15000000000E+04  0.10566000000E+00 0.  1.
        994   -1    0    0    0    0 -0.00000000000E+00 -0.00000000000E+00  0.11368683772E-12  0.17120000000E+03  0.17120000000E+03 0.  0.
         13    1    1    2    0    0 -0.22242305395E+02  0.92078148009E+02  0.23817768411E+03  0.25632347896E+03  0.10566000000E+00 0.  1.
        994    1    1    2    0    0  0.34399151388E+02 -0.70110512059E+02  0.39520642178E+02  0.19227612092E+03  0.17120000000E+03 0.  0.
        998    1    1    2    0    0 -0.12156845994E+02 -0.21967635950E+02  0.12223016700E+04  0.12226004001E+04  0.10000000000E+02 0.  1.
</event>
<event>
 5    1  0.1271464E-008  0.3743678E+03  0.7957747E-01  0.3476055E+00
         13   -1    0    0    0    0  0.00000000000E+00  0.00000000000E+00  0.14999999963E+04  0.15000000000E+04  0.10566000000E+00 0.  1.
        994   -1    0    0    0    0 -0.00000000000E+00 -0.00000000000E+00  0.11368683772E-12  0.17120000000E+03  0.17120000000E+03 0.  0.
         13    1    1    2    0    0 -0.10222858092E+03  0.58817099386E+02  0.64127149227E+03  0.65202704844E+03  0.10566000000E+00 0.  1.
        994    1    1    2    0    0  0.97687887989E+02 -0.43794515019E+02  0.47107899848E+02  0.20733903934E+03  0.17120000000E+03 0.  0.
        998    1    1    2    0    0  0.45406929309E+01 -0.15022584366E+02  0.81162060416E+03  0.81183391222E+03  0.10000000000E+02 0.  1.
</event>
<event>
 5    1  0.1271464E-008  0.3753471E+03  0.7957747E-01  0.3471672E+00
         13   -1    0    0    0    0  0.00000000000E+00  0.00000000000E+00  0.14999999963E+04  0.15000000000E+04  0.10566000000E+00 0.  1.
        994   -1    0    0    0    0 -0.00000000000E+00 -0.00000000000E+00  0.11368683772E-12  0.17120000000E+03  0.17120000000E+03 0.  0.
         13    1    1    2    0    0 -0.25449106819E+02 -0.48583275506E+02  0.22168991865E+03  0.22837342860E+03  0.10566000000E+00 0.  1.
        994    1    1    2    0    0  0.22202155676E+02  0.30005187395E+02  0.11245634388E+02  0.17558232052E+03  0.17120000000E+03 0.  0.
        998    1    1    2    0    0  0.32469511433E+01  0.18578088112E+02  0.12670644432E+04  0.12672442509E+04  0.10000000000E+02 0.  1.
</event>
<event>
 5    1  0.1271464E-008  0.3846533E+03  0.7957747E-01  0.3431144E+00
         13   -1    0    0    0    0  0.00000000000E+00  0.00000000000E+00  0.14999999963E+04  0.15000000000E+04  0.10566000000E+00 0. -1.
        994   -1    0    0    0    0 -0.00000000000E+00 -0.00000000000E+00  0.11368683772E-12  0.17120000000E+03  0.17120000000E+03 0.  0.
         13    1    1    2    0    0  0.94752331377E+01  0.21720501990E+02  0.14038570101E+03  0.14237175444E+03  0.10566000000E+00 0. -1.
        994    1    1    2    0    0 -0.11473955892E+02 -0.23615518660E+02  0.40752408209E+01  0.17324950786E+03  0.17120000000E+03 0.  0.
        998    1    1    2    0    0  0.19987227544E+01  0.18950166707E+01  0.13555390544E+04  0.13555787377E+04  0.10000000000E+02 0.  0.
</event>
<event>
 5    1  0.1271464E-008  0.3845555E+03  0.7957747E-01  0.3431559E+00
         13   -1    0    0    0    0  0.00000000000E+00  0.00000000000E+00  0.14999999963E+04  0.15000000000E+04  0.10566000000E+00 0. -1.
        994   -1    0    0    0    0 -0.00000000000E+00 -0.00000000000E+00  0.11368683772E-12  0.17120000000E+03  0.17120000000E+03 0.  0.
         13    1    1    2    0    0  0.14981441456E+02 -0.30804348360E+01  0.63677105906E+02  0.65488301608E+02  0.10566000000E+00 0. -1.
        994    1    1    2    0    0 -0.79442698430E+01  0.20529139429E+01  0.20727335780E+01  0.17140904907E+03  0.17120000000E+03 0.  0.
        998    1    1    2    0    0 -0.70371716135E+01  0.10275208932E+01  0.14342501568E+04  0.14343026493E+04  0.10000000000E+02 0. -1.
</event>
<event>
 5    1  0.1271464E-008  0.3732771E+03  0.7957747E-01  0.3480964E+00
         13   -1    0    0    0    0  0.00000000000E+00  0.00000000000E+00  0.14999999963E+04  0.15000000000E+04  0.10566000000E+00 0.  1.
        994   -1    0    0    0    0 -0.00000000000E+00 -0.00000000000E+00  0.11368683772E-12  0.17120000000E+03  0.17120000000E+03 0.  0.
         13    1    1    2    0    0  0.22414546555E+02  0.13449981044E+03  0.45034082763E+03  0.47053106497E+03  0.10566000000E+00 0.  1.
        994    1    1    2    0    0 -0.26208770983E+02 -0.14279915124E+03  0.91485340006E+02  0.24239947340E+03  0.17120000000E+03 0.  0.
        998    1    1    2    0    0  0.37942244278E+01  0.82993408006E+01  0.95817382864E+03  0.95826946163E+03  0.10000000000E+02 0.  1.
</event>
<event>
 5    1  0.1271464E-008  0.3697855E+03  0.7957747E-01  0.3496877E+00
         13   -1    0    0    0    0  0.00000000000E+00  0.00000000000E+00  0.14999999963E+04  0.15000000000E+04  0.10566000000E+00 0. -1.
        994   -1    0    0    0    0 -0.00000000000E+00 -0.00000000000E+00  0.11368683772E-12  0.17120000000E+03  0.17120000000E+03 0.  0.
         13    1    1    2    0    0  0.70074071529E+02 -0.33161011600E+02  0.23234493676E+03  0.24493715315E+03  0.10566000000E+00 0. -1.
        994    1    1    2    0    0 -0.67927681123E+02  0.36369497965E+02  0.31863590558E+02  0.19042488978E+03  0.17120000000E+03 0.  0.
        998    1    1    2    0    0 -0.21463904064E+01 -0.32084863643E+01  0.12357914690E+04  0.12358379571E+04  0.10000000000E+02 0. -1.
</event>
<event>
 5    1  0.1271464E-008  0.3805030E+03  0.7957747E-01  0.3448971E+00
         13   -1    0    0    0    0  0.00000000000E+00  0.00000000000E+00  0.14999999963E+04  0.15000000000E+04  0.10566000000E+00 0. -1.
        994   -1    0    0    0    0 -0.00000000000E+00 -0.00000000000E+00  0.11368683772E-12  0.17120000000E+03  0.17120000000E+03 0.  0.
         13    1    1    2    0    0  0.15853363907E+02  0.14599285001E+02  0.62333188189E+02  0.65953815534E+02  0.10566000000E+00 0. -1.
        994    1    1    2    0    0 -0.17759428481E+01  0.36914781537E+01  0.39354813202E+01  0.17129421764E+03  0.17120000000E+03 0.  0.
        998    1    1    2    0    0 -0.14077421058E+02 -0.18290763155E+02  0.14337313268E+04  0.14339519668E+04  0.10000000000E+02 0. -1.
</event>
<event>
 5    1  0.1271464E-008  0.3699467E+03  0.7957747E-01  0.3496136E+00
         13   -1    0    0    0    0  0.00000000000E+00  0.00000000000E+00  0.14999999963E+04  0.15000000000E+04  0.10566000000E+00 0.  1.
        994   -1    0    0    0    0 -0.00000000000E+00 -0.00000000000E+00  0.11368683772E-12  0.17120000000E+03  0.17120000000E+03 0.  0.
         13    1    1    2    0    0  0.19469560430E+02 -0.16187361808E+02  0.25793651040E+02  0.36144405704E+02  0.10566000000E+00 0.  1.
        994    1    1    2    0    0  0.38850707518E+01  0.82262678666E+01  0.11199976378E+02  0.17180699849E+03  0.17120000000E+03 0.  0.
        998    1    1    2    0    0 -0.23354631182E+02  0.79610939418E+01  0.14630063689E+04  0.14632485958E+04  0.10000000000E+02 0.  1.
</event>
<event>
 5    1  0.1271464E-008  0.3842893E+03  0.7957747E-01  0.3432692E+00
         13   -1    0    0    0    0  0.00000000000E+00  0.00000000000E+00  0.14999999963E+04  0.15000000000E+04  0.10566000000E+00 0.  1.
        994   -1    0    0    0    0 -0.00000000000E+00 -0.00000000000E+00  0.11368683772E-12  0.17120000000E+03  0.17120000000E+03 0.  0.
         13    1    1    2    0    0 -0.98016208309E+01 -0.89106959357E+01  0.45059351751E+02  0.46966249767E+02  0.10566000000E+00 0.  1.
        994    1    1    2    0    0  0.55659907725E+01 -0.12339137965E+01  0.20905559791E+01  0.17130765663E+03  0.17120000000E+03 0.  0.
        998    1    1    2    0    0  0.42356300585E+01  0.10144609732E+02  0.14528500885E+04  0.14529260936E+04  0.10000000000E+02 0.  1.
</event>
<event>
 5    1  0.1271464E-008  0.3814425E+03  0.7957747E-01  0.3444902E+00
         13   -1    0    0    0    0  0.00000000000E+00  0.00000000000E+00  0.14999999963E+04  0.15000000000E+04  0.10566000000E+00 0. -1.
        994   -1    0    0    0    0 -0.00000000000E+00 -0.00000000000E+00  0.11368683772E-12  0.17120000000E+03  0.17120000000E+03 0.  0.
         13    1    1    2    0    0 -0.62115621281E+01 -0.80078203670E+01  0.13559102069E+02  0.16928352077E+02  0.10566000000E+00 0. -1.
        994    1    1    2    0    0  0.47109789041E+01  0.82673586675E+01  0.37080710565E+01  0.17150432161E+03  0.17120000000E+03 0.  0.
        998    1    1    2    0    0  0.15005832241E+01 -0.25953830044E+00  0.14827328232E+04  0.14827673263E+04  0.10000000000E+02 0. -1.
</event>
<event>
 5    1  0.1271464E-008  0.3811408E+03  0.7957747E-01  0.3446206E+00
         13   -1    0    0    0    0  0.00000000000E+00  0.00000000000E+00  0.14999999963E+04  0.15000000000E+04  0.10566000000E+00 0.  1.
        994   -1    0    0    0    0 -0.00000000000E+00 -0.00000000000E+00  0.11368683772E-12  0.17120000000E+03  0.17120000000E+03 0.  0.
         13    1    1    2    0    0  0.71472866480E+01 -0.11554490827E+02  0.24755396942E+02  0.28238817371E+02  0.10566000000E+00 0.  1.
        994    1    1    2    0    0 -0.11557340627E+02  0.30330469794E+00  0.40036620051E+01  0.17163663195E+03  0.17120000000E+03 0.  0.
        998    1    1    2    0    0  0.44100539786E+01  0.11251186129E+02  0.14712409373E+04  0.14713245507E+04  0.10000000000E+02 0.  1.
</event>
<event>
 5    1  0.1271464E-008  0.3855686E+03  0.7957747E-01  0.3427264E+00
         13   -1    0    0    0    0  0.00000000000E+00  0.00000000000E+00  0.14999999963E+04  0.15000000000E+04  0.10566000000E+00 0.  1.
        994   -1    0    0    0    0 -0.00000000000E+00 -0.00000000000E+00  0.11368683772E-12  0.17120000000E+03  0.17120000000E+03 0.  0.
         13    1    1    2    0    0 -0.16797553541E+01 -0.12273649830E+02  0.56573585603E+02  0.57914124445E+02  0.10566000000E+00 0.  1.
        994    1    1    2    0    0 -0.74762689688E+01  0.11310748120E+02  0.19517516809E+01  0.17174713085E+03  0.17120000000E+03 0.  0.
        998    1    1    2    0    0  0.91560243229E+01  0.96290170980E+00  0.14414746590E+04  0.14415387447E+04  0.10000000000E+02 0.  1.
</event>
<event>
 5    1  0.1271464E-008  0.3849806E+03  0.7957747E-01  0.3429755E+00
         13   -1    0    0    0    0  0.00000000000E+00  0.00000000000E+00  0.14999999963E+04  0.15000000000E+04  0.10566000000E+00 0. -1.
        994   -1    0    0    0    0 -0.00000000000E+00 -0.00000000000E+00  0.11368683772E-12  0.17120000000E+03  0.17120000000E+03 0.  0.
         13    1    1    2    0    0 -0.49699981033E+01  0.17291731870E+02  0.97369353463E+02  0.99017710689E+02  0.10566000000E+00 0. -1.
        994    1    1    2    0    0 -0.14388489768E+02 -0.18611957058E+02  0.34620745786E+01  0.17284345386E+03  0.17120000000E+03 0.  0.
        998    1    1    2    0    0  0.19358487872E+02  0.13202251883E+01  0.13991685682E+04  0.13993388354E+04  0.10000000000E+02 0. -1.
</event>
<event>
 5    1  0.1271464E-008  0.3727348E+03  0.7957747E-01  0.3483416E+00
         13   -1    0    0    0    0  0.00000000000E+00  0.00000000000E+00  0.14999999963E+04  0.15000000000E+04  0.10566000000E+00 0. -1.
        994   -1    0    0    0    0 -0.00000000000E+00 -0.00000000000E+00  0.11368683772E-12  0.17120000000E+03  0.17120000000E+03 0.  0.
         13    1    1    2    0    0 -0.57725090908E+02 -0.26864660136E+02  0.22956519978E+03  0.23823116547E+03  0.10566000000E+00 0. -1.
        994    1    1    2    0    0  0.56234531659E+02  0.10012339954E+02  0.19105942175E+02  0.18148566480E+03  0.17120000000E+03 0.  0.
        998    1    1    2    0    0  0.14905592494E+01  0.16852320182E+02  0.12513288543E+04  0.12514831697E+04  0.10000000000E+02 0. -1.
</event>
<event>
 5    1  0.1271464E-008  0.3733458E+03  0.7957747E-01  0.3480654E+00
         13   -1    0    0    0    0  0.00000000000E+00  0.00000000000E+00  0.14999999963E+04  0.15000000000E+04  0.10566000000E+00 0. -1.
        994   -1    0    0    0    0 -0.00000000000E+00 -0.00000000000E+00  0.11368683772E-12  0.17120000000E+03  0.17120000000E+03 0.  0.
         13    1    1    2    0    0 -0.62041128860E+02  0.16434325880E+02  0.26596839762E+03  0.27360261043E+03  0.10566000000E+00 0. -1.
        994    1    1    2    0    0  0.39216050761E+02 -0.71648058144E+01  0.12982602558E+02  0.17625896019E+03  0.17120000000E+03 0.  0.
        998    1    1    2    0    0  0.22825078099E+02 -0.92695200656E+01  0.12210489961E+04  0.12213384294E+04  0.10000000000E+02 0. -1.
</event>
<event>
 5    1  0.1271464E-008  0.3740189E+03  0.7957747E-01  0.3477622E+00
         13   -1    0    0    0    0  0.00000000000E+00  0.00000000000E+00  0.14999999963E+04  0.15000000000E+04  0.10566000000E+00 0. -1.
        994   -1    0    0    0    0 -0.00000000000E+00 -0.00000000000E+00  0.11368683772E-12  0.17120000000E+03  0.17120000000E+03 0.  0.
         13    1    1    2    0    0  0.17401006453E+02  0.40528800790E+02  0.12939368263E+03  0.13670448049E+03  0.10566000000E+00 0. -1.
        994    1    1    2    0    0 -0.20775884768E+02 -0.26299192384E+02  0.11023966779E+02  0.17479774813E+03  0.17120000000E+03 0.  0.
        998    1    1    2    0    0  0.33748783150E+01 -0.14229608406E+02  0.13595823469E+04  0.13596977714E+04  0.10000000000E+02 0. -1.
</event>
<event>
 5    1  0.1271464E-008  0.3742524E+03  0.7957747E-01  0.3476573E+00
         13   -1    0    0    0    0  0.00000000000E+00  0.00000000000E+00  0.14999999963E+04  0.15000000000E+04  0.10566000000E+00 0.  1.
        994   -1    0    0    0    0 -0.00000000000E+00 -0.00000000000E+00  0.11368683772E-12  0.17120000000E+03  0.17120000000E+03 0.  0.
         13    1    1    2    0    0 -0.63520581760E+02  0.86295218732E+02  0.64027896106E+03  0.64918324703E+03  0.10566000000E+00 0.  1.
        994    1    1    2    0    0  0.31710675452E+02 -0.90604720866E+01  0.17074959899E+02  0.17518177230E+03  0.17120000000E+03 0.  0.
        998    1    1    2    0    0  0.31809906308E+02 -0.77234746645E+02  0.84264607532E+03  0.84683498067E+03  0.10000000000E+02 0.  1.
</event>
<event>
 5    1  0.1271464E-008  0.3722506E+03  0.7957747E-01  0.3485611E+00
         13   -1    0    0    0    0  0.00000000000E+00  0.00000000000E+00  0.14999999963E+04  0.15000000000E+04  0.10566000000E+00 0.  1.
        994   -1    0    0    0    0 -0.00000000000E+00 -0.00000000000E+00  0.11368683772E-12  0.17120000000E+03  0.17120000000E+03 0.  0.
         13    1    1    2    0    0 -0.66452454049E+02 -0.13089133391E+02  0.17142893887E+03  0.18432348279E+03  0.10566000000E+00 0.  1.
        994    1    1    2    0    0  0.60882301327E+02 -0.43414858936E+01  0.25380001223E+02  0.18351863005E+03  0.17120000000E+03 0.  0.
        998    1    1    2    0    0  0.55701527224E+01  0.17430619285E+02  0.13031910562E+04  0.13033578872E+04  0.10000000000E+02 0.  1.
</event>
<event>
 5    1  0.1271464E-008  0.3773793E+03  0.7957747E-01  0.3462650E+00
         13   -1    0    0    0    0  0.00000000000E+00  0.00000000000E+00  0.14999999963E+04  0.15000000000E+04  0.10566000000E+00 0.  1.
        994   -1    0    0    0    0 -0.00000000000E+00 -0.00000000000E+00  0.11368683772E-12  0.17120000000E+03  0.17120000000E+03 0.  0.
         13    1    1    2    0    0  0.35207291240E+02 -0.12656149792E+02  0.13297427970E+03  0.13813725678E+03  0.10566000000E+00 0.  1.
        994    1    1    2    0    0 -0.16357435264E+01  0.34821206262E+02  0.95706941565E+01  0.17497494177E+03  0.17120000000E+03 0.  0.
        998    1    1    2    0    0 -0.33571547714E+02 -0.22165056471E+02  0.13574550224E+04  0.13580878014E+04  0.10000000000E+02 0.  1.
</event>
<event>
 5    1  0.1271464E-008  0.3719703E+03  0.7957747E-01  0.3486885E+00
         13   -1    0    0    0    0  0.00000000000E+00  0.00000000000E+00  0.14999999963E+04  0.15000000000E+04  0.10566000000E+00 0.  1.
        994   -1    0    0    0    0 -0.00000000000E+00 -0.00000000000E+00  0.11368683772E-12  0.17120000000E+03  0.17120000000E+03 0.  0.
         13    1    1    2    0    0  0.17032601188E+02  0.11216167658E+02  0.21786550416E+02  0.29842534464E+02  0.10566000000E+00 0.  1.
        994    1    1    2    0    0 -0.10430614115E+02 -0.83837728659E+01  0.88581196175E+01  0.17195054999E+03  0.17120000000E+03 0.  0.
        998    1    1    2    0    0 -0.66019870731E+01 -0.28323947922E+01  0.14693553262E+04  0.14694069155E+04  0.10000000000E+02 0.  1.
</event>
<event>
 5    1  0.1271464E-008  0.3762943E+03  0.7957747E-01  0.3467454E+00
         13   -1    0    0    0    0  0.00000000000E+00  0.00000000000E+00  0.14999999963E+04  0.15000000000E+04  0.10566000000E+00 0. -1.
        994   -1    0    0    0    0 -0.00000000000E+00 -0.00000000000E+00  0.11368683772E-12  0.17120000000E+03  0.17120000000E+03 0.  0.
         13    1    1    2    0    0 -0.99585585615E+02 -0.62573846625E+02  0.66063495538E+03  0.67102260064E+03  0.10566000000E+00 0. -1.
        994    1    1    2    0    0  0.94359696513E+02  0.62128933683E+02  0.50514563487E+02  0.21124610730E+03  0.17120000000E+03 0.  0.
        998    1    1    2    0    0  0.52258891020E+01  0.44491294209E+00  0.78885047742E+03  0.78893129206E+03  0.10000000000E+02 0. -1.
</event>
<event>
 5    1  0.1271464E-008  0.3772461E+03  0.7957747E-01  0.3463238E+00
         13   -1    0    0    0    0  0.00000000000E+00  0.00000000000E+00  0.14999999963E+04  0.15000000000E+04  0.10566000000E+00 0.  1.
        994   -1    0    0    0    0 -0.00000000000E+00 -0.00000000000E+00  0.11368683772E-12  0.17120000000E+03  0.17120000000E+03 0.  0.
         13    1    1    2    0    0 -0.27129310621E+02  0.17836144213E+02  0.85053064147E+02  0.91039345450E+02  0.10566000000E+00 0.  1.
        994    1    1    2    0    0  0.12798391038E+02 -0.58268828110E+02  0.17632491295E+02  0.18215213392E+03  0.17120000000E+03 0.  0.
        998    1    1    2    0    0  0.14330919583E+02  0.40432683898E+02  0.13973144408E+04  0.13980085206E+04  0.10000000000E+02 0.  1.
</event>
<event>
 5    1  0.1271464E-008  0.3815369E+03  0.7957747E-01  0.3444494E+00
         13   -1    0    0    0    0  0.00000000000E+00  0.00000000000E+00  0.14999999963E+04  0.15000000000E+04  0.10566000000E+00 0.  1.
        994   -1    0    0    0    0 -0.00000000000E+00 -0.00000000000E+00  0.11368683772E-12  0.17120000000E+03  0.17120000000E+03 0.  0.
         13    1    1    2    0    0  0.22094577252E+01 -0.11712760899E+02  0.20633902105E+02  0.23829384202E+02  0.10566000000E+00 0.  1.
        994    1    1    2    0    0  0.48718485843E+01 -0.52556961189E+01  0.35301732774E+01  0.17138628701E+03  0.17120000000E+03 0.  0.
        998    1    1    2    0    0 -0.70813063095E+01  0.16968457018E+02  0.14758359209E+04  0.14759843288E+04  0.10000000000E+02 0.  1.
</event>
<event>
 5    1  0.1309442E-008  0.3862128E+03  0.7957747E-01  0.3424545E+00
         13   -1    0    0    0    0  0.00000000000E+00  0.00000000000E+00  0.14999999963E+04  0.15000000000E+04  0.10566000000E+00 0.  1.
        994   -1    0    0    0    0 -0.00000000000E+00 -0.00000000000E+00  0.11368683772E-12  0.17120000000E+03  0.17120000000E+03 0.  0.
         13    1    1    2    0    0  0.31924914460E+01 -0.12010116861E+02  0.66302825563E+02  0.67457473643E+02  0.10566000000E+00 0.  1.
        994    1    1    2    0    0 -0.78860978114E+01  0.24900057085E+02  0.32671439270E+01  0.17321177099E+03  0.17120000000E+03 0.  0.
        998    1    1    2    0    0  0.46936063654E+01 -0.12889940223E+02  0.14304300268E+04  0.14305307554E+04  0.10000000000E+02 0.  1.
</event>
<event>
 5    1  0.1271464E-008  0.3749242E+03  0.7957747E-01  0.3473562E+00
         13   -1    0    0    0    0  0.00000000000E+00  0.00000000000E+00  0.14999999963E+04  0.15000000000E+04  0.10566000000E+00 0. -1.
        994   -1    0    0    0    0 -0.00000000000E+00 -0.00000000000E+00  0.11368683772E-12  0.17120000000E+03  0.17120000000E+03 0.  0.
         13    1    1    2    0    0 -0.17853953906E+01  0.47114230655E+02  0.21897458010E+03  0.22399289333E+03  0.10566000000E+00 0. -1.
        994    1    1    2    0    0  0.25218666293E+02  0.17507005694E+02  0.99288132275E+01  0.17421394235E+03  0.17120000000E+03 0.  0.
        998    1    1    2    0    0 -0.23433270903E+02 -0.64621236349E+02  0.12710966030E+04  0.12729931643E+04  0.10000000000E+02 0. -1.
</event>
<event>
 5    1  0.1271464E-008  0.3700288E+03  0.7957747E-01  0.3495758E+00
         13   -1    0    0    0    0  0.00000000000E+00  0.00000000000E+00  0.14999999963E+04  0.15000000000E+04  0.10566000000E+00 0. -1.
        994   -1    0    0    0    0 -0.00000000000E+00 -0.00000000000E+00  0.11368683772E-12  0.17120000000E+03  0.17120000000E+03 0.  0.
         13    1    1    2    0    0  0.32811568914E+02 -0.42775869836E+00  0.55510097207E+02  0.64483828112E+02  0.10566000000E+00 0. -1.
        994    1    1    2    0    0 -0.16457885649E+02  0.54602503794E+01  0.10294196335E+02  0.17238354565E+03  0.17120000000E+03 0.  0.
        998    1    1    2    0    0 -0.16353683264E+02 -0.50324916811E+01  0.14341957027E+04  0.14343326262E+04  0.10000000000E+02 0. -1.
</event>
<event>
 5    1  0.1271464E-008  0.3854911E+03  0.7957747E-01  0.3427592E+00
         13   -1    0    0    0    0  0.00000000000E+00  0.00000000000E+00  0.14999999963E+04  0.15000000000E+04  0.10566000000E+00 0.  1.
        994   -1    0    0    0    0 -0.00000000000E+00 -0.00000000000E+00  0.11368683772E-12  0.17120000000E+03  0.17120000000E+03 0.  0.
         13    1    1    2    0    0 -0.13624574014E+02 -0.25331714862E+01  0.69757087361E+02  0.71120379470E+02  0.10566000000E+00 0.  1.
        994    1    1    2    0    0  0.43032458703E+01  0.33172160064E+02  0.50690188881E+01  0.17451087382E+03  0.17120000000E+03 0.  0.
        998    1    1    2    0    0  0.93213281435E+01 -0.30638988577E+02  0.14251738900E+04  0.14255687467E+04  0.10000000000E+02 0.  1.
</event>
<event>
 5    1  0.1271464E-008  0.3825827E+03  0.7957747E-01  0.3439989E+00
         13   -1    0    0    0    0  0.00000000000E+00  0.00000000000E+00  0.14999999963E+04  0.15000000000E+04  0.10566000000E+00 0.  1.
        994   -1    0    0    0    0 -0.00000000000E+00 -0.00000000000E+00  0.11368683772E-12  0.17120000000E+03  0.17120000000E+03 0.  0.
         13    1    1    2    0    0 -0.29724258479E+02 -0.81590574741E+01  0.17632226937E+03  0.17899624466E+03  0.10566000000E+00 0.  1.
        994    1    1    2    0    0  0.13155723729E+02 -0.46180536460E+01  0.34796860566E+01  0.17180205965E+03  0.17120000000E+03 0.  0.
        998    1    1    2    0    0  0.16568534750E+02  0.12777111120E+02  0.13201980409E+04  0.13204016957E+04  0.10000000000E+02 0.  1.
</event>
<event>
 5    1  0.1271464E-008  0.3834337E+03  0.7957747E-01  0.3436342E+00
         13   -1    0    0    0    0  0.00000000000E+00  0.00000000000E+00  0.14999999963E+04  0.15000000000E+04  0.10566000000E+00 0.  1.
        994   -1    0    0    0    0 -0.00000000000E+00 -0.00000000000E+00  0.11368683772E-12  0.17120000000E+03  0.17120000000E+03 0.  0.
         13    1    1    2    0    0 -0.54397651696E+01  0.16281746872E+02  0.62029595558E+02  0.64361232240E+02  0.10566000000E+00 0.  1.
        994    1    1    2    0    0  0.32301434797E+01 -0.56853128269E+01  0.25510969052E+01  0.17134382015E+03  0.17120000000E+03 0.  0.
        998    1    1    2    0    0  0.22096216899E+01 -0.10596434045E+02  0.14354193038E+04  0.14354949476E+04  0.10000000000E+02 0.  1.
</event>
<event>
 5    1  0.1271464E-008  0.3851334E+03  0.7957747E-01  0.3429107E+00
         13   -1    0    0    0    0  0.00000000000E+00  0.00000000000E+00  0.14999999963E+04  0.15000000000E+04  0.10566000000E+00 0.  1.
        994   -1    0    0    0    0 -0.00000000000E+00 -0.00000000000E+00  0.11368683772E-12  0.17120000000E+03  0.17120000000E+03 0.  0.
         13    1    1    2    0    0 -0.92383124307E+00 -0.15393345782E+02  0.75853992602E+02  0.77405735681E+02  0.10566000000E+00 0.  1.
        994    1    1    2    0    0  0.71517251530E+01  0.10290836518E+02  0.20803523587E+01  0.17167066248E+03  0.17120000000E+03 0.  0.
        998    1    1    2    0    0 -0.62278939100E+01  0.51025092631E+01  0.14220656513E+04  0.14221236018E+04  0.10000000000E+02 0.  1.
</event>
<event>
 5    1  0.1271464E-008  0.3814748E+03  0.7957747E-01  0.3444762E+00
         13   -1    0    0    0    0  0.00000000000E+00  0.00000000000E+00  0.14999999963E+04  0.15000000000E+04  0.10566000000E+00 0. -1.
        994   -1    0    0    0    0 -0.00000000000E+00 -0.00000000000E+00  0.11368683772E-12  0.17120000000E+03  0.17120000000E+03 0.  0.
         13    1    1    2    0    0  0.65983085108E+02 -0.35981003156E+02  0.17018847277E+03  0.18604442355E+03  0.10566000000E+00 0. -1.
        994    1    1    2    0    0  0.10858292636E+02  0.86694001212E+02  0.45511391395E+02  0.19752083210E+03  0.17120000000E+03 0.  0.
        998    1    1    2    0    0 -0.76841377744E+02 -0.50712998056E+02  0.12843001321E+04  0.12876347444E+04  0.10000000000E+02 0. -1.
</event>
<event>
 5    1  0.1271464E-008  0.3850395E+03  0.7957747E-01  0.3429505E+00
         13   -1    0    0    0    0  0.00000000000E+00  0.00000000000E+00  0.14999999963E+04  0.15000000000E+04  0.10566000000E+00 0. -1.
        994   -1    0    0    0    0 -0.00000000000E+00 -0.00000000000E+00  0.11368683772E-12  0.17120000000E+03  0.17120000000E+03 0.  0.
         13    1    1    2    0    0 -0.13074872020E+02  0.15430095785E+02  0.11679827907E+03  0.11853644710E+03  0.10566000000E+00 0. -1.
        994    1    1    2    0    0  0.24587170839E+02 -0.93022478548E+01  0.38861832297E+01  0.17325011748E+03  0.17120000000E+03 0.  0.
        998    1    1    2    0    0 -0.11512298820E+02 -0.61278479301E+01  0.13793155340E+04  0.13794134354E+04  0.10000000000E+02 0. -1.
</event>
<event>
 5    1  0.1271464E-008  0.3832595E+03  0.7957747E-01  0.3437088E+00
         13   -1    0    0    0    0  0.00000000000E+00  0.00000000000E+00  0.14999999963E+04  0.15000000000E+04  0.10566000000E+00 0. -1.
        994   -1    0    0    0    0 -0.00000000000E+00 -0.00000000000E+00  0.11368683772E-12  0.17120000000E+03  0.17120000000E+03 0.  0.
         13    1    1    2    0    0  0.13100030282E+02 -0.25158288630E+01  0.34132716912E+02  0.36646878668E+02  0.10566000000E+00 0. -1.
        994    1    1    2    0    0 -0.14052614083E+02  0.31240150398E+01  0.31824279928E+01  0.17183365002E+03  0.17120000000E+03 0.  0.
        998    1    1    2    0    0  0.95258380110E+00 -0.60818617686E+00  0.14626848514E+04  0.14627194713E+04  0.10000000000E+02 0. -1.
</event>
<event>
 5    1  0.1271464E-008  0.3762091E+03  0.7957747E-01  0.3467833E+00
         13   -1    0    0    0    0  0.00000000000E+00  0.00000000000E+00  0.14999999963E+04  0.15000000000E+04  0.10566000000E+00 0.  1.
        994   -1    0    0    0    0 -0.00000000000E+00 -0.00000000000E+00  0.11368683772E-12  0.17120000000E+03  0.17120000000E+03 0.  0.
         13    1    1    2    0    0 -0.39375215083E+02 -0.11724682512E+03  0.69555005341E+03  0.70646097806E+03  0.10566000000E+00 0.  1.
        994    1    1    2    0    0  0.30208758705E+02  0.11519770967E+03  0.55693769668E+02  0.21585716897E+03  0.17120000000E+03 0.  0.
        998    1    1    2    0    0  0.91664563782E+01  0.20491154482E+01  0.74875617320E+03  0.74888185297E+03  0.10000000000E+02 0. -1.
</event>
<event>
 5    1  0.1271464E-008  0.3724379E+03  0.7957747E-01  0.3484761E+00
         13   -1    0    0    0    0  0.00000000000E+00  0.00000000000E+00  0.14999999963E+04  0.15000000000E+04  0.10566000000E+00 0.  1.
        994   -1    0    0    0    0 -0.00000000000E+00 -0.00000000000E+00  0.11368683772E-12  0.17120000000E+03  0.17120000000E+03 0.  0.
         13    1    1    2    0    0 -0.26854477480E+02 -0.12600472311E+02  0.29368105422E+02  0.41742444147E+02  0.10566000000E+00 0.  1.
        994    1    1    2    0    0  0.31913836651E+02  0.32869867053E+02  0.19671645909E+02  0.17831246390E+03  0.17120000000E+03 0.  0.
        998    1    1    2    0    0 -0.50593591710E+01 -0.20269394742E+02  0.14509602449E+04  0.14511450920E+04  0.10000000000E+02 0.  1.
</event>
<event>
 5    1  0.1271464E-008  0.3831558E+03  0.7957747E-01  0.3437532E+00
         13   -1    0    0    0    0  0.00000000000E+00  0.00000000000E+00  0.14999999963E+04  0.15000000000E+04  0.10566000000E+00 0. -1.
        994   -1    0    0    0    0 -0.00000000000E+00 -0.00000000000E+00  0.11368683772E-12  0.17120000000E+03  0.17120000000E+03 0.  0.
         13    1    1    2    0    0 -0.12237121278E+02 -0.96841510586E+01  0.46670869936E+02  0.49210884808E+02  0.10566000000E+00 0. -1.
        994    1    1    2    0    0  0.13350031137E+02  0.25899381929E+01  0.31606022818E+01  0.17176833386E+03  0.17120000000E+03 0.  0.
        998    1    1    2    0    0 -0.11129098593E+01  0.70942128657E+01  0.14501685241E+04  0.14502207813E+04  0.10000000000E+02 0. -1.
</event>
<event>
 5    1  0.1271464E-008  0.3814177E+03  0.7957747E-01  0.3445008E+00
         13   -1    0    0    0    0  0.00000000000E+00  0.00000000000E+00  0.14999999963E+04  0.15000000000E+04  0.10566000000E+00 0. -1.
        994   -1    0    0    0    0 -0.00000000000E+00 -0.00000000000E+00  0.11368683772E-12  0.17120000000E+03  0.17120000000E+03 0.  0.
         13    1    1    2    0    0  0.67283278040E+01  0.28585030824E+02  0.14557670354E+03  0.14850913157E+03  0.10566000000E+00 0. -1.
        994    1    1    2    0    0 -0.55958488728E+00  0.46626795168E+01  0.34925760027E+01  0.17130000526E+03  0.17120000000E+03 0.  0.
        998    1    1    2    0    0 -0.61687429167E+01 -0.33247710341E+02  0.13509307167E+04  0.13513908632E+04  0.10000000000E+02 0.  1.
</event>
<event>
 5    1  0.1271464E-008  0.3833179E+03  0.7957747E-01  0.3436837E+00
         13   -1    0    0    0    0  0.00000000000E+00  0.00000000000E+00  0.14999999963E+04  0.15000000000E+04  0.10566000000E+00 0. -1.
        994   -1    0    0    0    0 -0.00000000000E+00 -0.00000000000E+00  0.11368683772E-12  0.17120000000E+03  0.17120000000E+03 0.  0.
         13    1    1    2    0    0 -0.20326484711E+02  0.18886662588E+01  0.96496940004E+02  0.98632670221E+02  0.10566000000E+00 0. -1.
        994    1    1    2    0    0 -0.88395025788E+01 -0.30077469040E-01  0.27259756639E+01  0.17144972632E+03  0.17120000000E+03 0.  0.
        998    1    1    2    0    0  0.29165987290E+02 -0.18585887898E+01  0.14007770806E+04  0.14011176035E+04  0.10000000000E+02 0. -1.
</event>
<event>
 5    1  0.1271464E-008  0.3343261E+03  0.7957747E-01  0.3677836E+00
         13   -1    0    0    0    0  0.00000000000E+00  0.00000000000E+00  0.14999999963E+04  0.15000000000E+04  0.10566000000E+00 0. -1.
        994   -1    0    0    0    0 -0.00000000000E+00 -0.00000000000E+00  0.11368683772E-12  0.17120000000E+03  0.17120000000E+03 0.  0.
         13    1    1    2    0    0 -0.16926689213E+03 -0.12797622077E+03  0.10686074789E+04  0.10894728766E+04  0.10566000000E+00 0. -1.
        994    1    1    2    0    0  0.72935988718E+02  0.12331235119E+03  0.11561713215E+03  0.25140078690E+03  0.17120000000E+03 0.  0.
        998    1    1    2    0    0  0.96330903410E+02  0.46638695743E+01  0.31577538526E+03  0.33032633648E+03  0.10000000000E+02 0.  1.
</event>
<event>
 5    1  0.1271464E-008  0.3808309E+03  0.7957747E-01  0.3447549E+00
         13   -1    0    0    0    0  0.00000000000E+00  0.00000000000E+00  0.14999999963E+04  0.15000000000E+04  0.10566000000E+00 0. -1.
        994   -1    0    0    0    0 -0.00000000000E+00 -0.00000000000E+00  0.11368683772E-12  0.17120000000E+03  0.17120000000E+03 0.  0.
         13    1    1    2    0    0 -0.29439953481E+02  0.25268732120E+02  0.22504506956E+03  0.22836487073E+03  0.10566000000E+00 0. -1.
        994    1    1    2    0    0  0.61895746111E+01 -0.69585492441E+01  0.40034968955E+01  0.17149985489E+03  0.17120000000E+03 0.  0.
        998    1    1    2    0    0  0.23250378870E+02 -0.18310182876E+02  0.12709514298E+04  0.12713352744E+04  0.10000000000E+02 0. -1.
</event>
<event>
 5    1  0.1271464E-008  0.3797837E+03  0.7957747E-01  0.3452101E+00
         13   -1    0    0    0    0  0.00000000000E+00  0.00000000000E+00  0.14999999963E+04  0.15000000000E+04  0.10566000000E+00 0.  1.
        994   -1    0    0    0    0 -0.00000000000E+00 -0.00000000000E+00  0.11368683772E-12  0.17120000000E+03  0.17120000000E+03 0.  0.
         13    1    1    2    0    0  0.26848107963E+02 -0.76301823818E+01  0.11991151152E+03  0.12311710825E+03  0.10566000000E+00 0.  1.
        994    1    1    2    0    0  0.26511149057E+02 -0.21782369328E+02  0.81908963544E+01  0.17479657726E+03  0.17120000000E+03 0.  0.
        998    1    1    2    0    0 -0.53359257020E+02  0.29412551709E+02  0.13718975884E+04  0.13732863145E+04  0.10000000000E+02 0.  1.
</event>
<event>
 5    1  0.1271464E-008  0.3736395E+03  0.7957747E-01  0.3479330E+00
         13   -1    0    0    0    0  0.00000000000E+00  0.00000000000E+00  0.14999999963E+04  0.15000000000E+04  0.10566000000E+00 0.  1.
        994   -1    0    0    0    0 -0.00000000000E+00 -0.00000000000E+00  0.11368683772E-12  0.17120000000E+03  0.17120000000E+03 0.  0.
         13    1    1    2    0    0  0.54180027854E+02 -0.21854679772E+02  0.30847643743E+03  0.31395991155E+03  0.10566000000E+00 0.  1.
        994    1    1    2    0    0  0.30400002606E+01 -0.60603906021E+01  0.75360122536E+01  0.17149985836E+03  0.17120000000E+03 0.  0.
        998    1    1    2    0    0 -0.57220028114E+02  0.27915070374E+02  0.11839875466E+04  0.11857402301E+04  0.10000000000E+02 0.  1.
</event>
<event>
 5    1  0.1271464E-008  0.3794765E+03  0.7957747E-01  0.3453441E+00
         13   -1    0    0    0    0  0.00000000000E+00  0.00000000000E+00  0.14999999963E+04  0.15000000000E+04  0.10566000000E+00 0. -1.
        994   -1    0    0    0    0 -0.00000000000E+00 -0.00000000000E+00  0.11368683772E-12  0.17120000000E+03  0.17120000000E+03 0.  0.
         13    1    1    2    0    0  0.29786891681E+02  0.16482189405E+02  0.13339949395E+03  0.13767482571E+03  0.10566000000E+00 0. -1.
        994    1    1    2    0    0 -0.13260062141E+02 -0.93105654408E+01  0.52771963526E+01  0.17204593770E+03  0.17120000000E+03 0.  0.
        998    1    1    2    0    0 -0.16526829539E+02 -0.71716239645E+01  0.13613233060E+04  0.13614792366E+04  0.10000000000E+02 0. -1.
</event>
<event>
 5    1  0.1271464E-008  0.3764697E+03  0.7957747E-01  0.3466676E+00
         13   -1    0    0    0    0  0.00000000000E+00  0.00000000000E+00  0.14999999963E+04  0.15000000000E+04  0.10566000000E+00 0. -1.
        994   -1    0    0    0    0 -0.00000000000E+00 -0.00000000000E+00  0.11368683772E-12  0.17120000000E+03  0.17120000000E+03 0.  0.
         13    1    1    2    0    0 -0.58903062548E+01 -0.11680086707E+02  0.12130711189E+02  0.17840556360E+02  0.10566000000E+00 0. -1.
        994    1    1    2    0    0 -0.12185353986E+02  0.31608688657E+01  0.64621546714E+01  0.17178379838E+03  0.17120000000E+03 0.  0.
        998    1    1    2    0    0  0.18075660241E+02  0.85192178410E+01  0.14814071304E+04  0.14815756453E+04  0.10000000000E+02 0. -1.
</event>
<event>
 5    1  0.1271464E-008  0.3850085E+03  0.7957747E-01  0.3429636E+00
         13   -1    0    0    0    0  0.00000000000E+00  0.00000000000E+00  0.14999999963E+04  0.15000000000E+04  0.10566000000E+00 0. -1.
        994   -1    0    0    0    0 -0.00000000000E+00 -0.00000000000E+00  0.11368683772E-12  0.17120000000E+03  0.17120000000E+03 0.  0.
         13    1    1    2    0    0  0.13356234054E+02 -0.17338253043E+01  0.54039897499E+02  0.55693059029E+02  0.10566000000E+00 0. -1.
        994    1    1    2    0    0 -0.14846023960E+02 -0.23401547569E+01  0.23690707825E+01  0.17187476036E+03  0.17120000000E+03 0.  0.
        998    1    1    2    0    0  0.14897899058E+01  0.40739800612E+01  0.14435910280E+04  0.14436321806E+04  0.10000000000E+02 0. -1.
</event>
<event>
 5    1  0.1271464E-008  0.3749650E+03  0.7957747E-01  0.3473379E+00
         13   -1    0    0    0    0  0.00000000000E+00  0.00000000000E+00  0.14999999963E+04  0.15000000000E+04  0.10566000000E+00 0. -1.
        994   -1    0    0    0    0 -0.00000000000E+00 -0.00000000000E+00  0.11368683772E-12  0.17120000000E+03  0.17120000000E+03 0.  0.
         13    1    1    2    0    0  0.34797979698E+02  0.31672327145E+02  0.74268910286E+02  0.87919951644E+02  0.10566000000E+00 0. -1.
        994    1    1    2    0    0 -0.21574718642E+02 -0.38584621668E+02  0.20574205715E+02  0.17800836906E+03  0.17120000000E+03 0.  0.
        998    1    1    2    0    0 -0.13223261056E+02  0.69122945228E+01  0.14051568803E+04  0.14052716793E+04  0.10000000000E+02 0. -1.
</event>
<event>
 5    1  0.1271464E-008  0.3840207E+03  0.7957747E-01  0.3433836E+00
         13   -1    0    0    0    0  0.00000000000E+00  0.00000000000E+00  0.14999999963E+04  0.15000000000E+04  0.10566000000E+00 0. -1.
        994   -1    0    0    0    0 -0.00000000000E+00 -0.00000000000E+00  0.11368683772E-12  0.17120000000E+03  0.17120000000E+03 0.  0.
         13    1    1    2    0    0 -0.57942654232E+01  0.16340928542E+02  0.72750970998E+02  0.74788464369E+02  0.10566000000E+00 0. -1.
        994    1    1    2    0    0 -0.10900193529E+02 -0.10582518379E+02  0.28789247743E+01  0.17189686478E+03  0.17120000000E+03 0.  0.
        998    1    1    2    0    0  0.16694458953E+02 -0.57584101636E+01  0.14243701005E+04  0.14245146708E+04  0.10000000000E+02 0. -1.
</event>
<event>
 5    1  0.1605857E-008  0.3863151E+03  0.7957747E-01  0.3424114E+00
         13   -1    0    0    0    0  0.00000000000E+00  0.00000000000E+00  0.14999999963E+04  0.15000000000E+04  0.10566000000E+00 0. -1.
        994   -1    0    0    0    0 -0.00000000000E+00 -0.00000000000E+00  0.11368683772E-12  0.17120000000E+03  0.17120000000E+03 0.  0.
         13    1    1    2    0    0 -0.75492625240E+01 -0.77256741757E+01  0.57257771578E+02  0.58267838266E+02  0.10566000000E+00 0. -1.
        994    1    1    2    0    0  0.11276302176E+02  0.98634417907E+01  0.17139597772E+01  0.17186279450E+03  0.17120000000E+03 0.  0.
        998    1    1    2    0    0 -0.37270396519E+01 -0.21377676150E+01  0.14410282649E+04  0.14410693672E+04  0.10000000000E+02 0. -1.
</event>
<event>
 5    1  0.1271464E-008  0.3864381E+03  0.7957747E-01  0.3423596E+00
         13   -1    0    0    0    0  0.00000000000E+00  0.00000000000E+00  0.14999999963E+04  0.15000000000E+04  0.10566000000E+00 0.  1.
        994   -1    0    0    0    0 -0.00000000000E+00 -0.00000000000E+00  0.11368683772E-12  0.17120000000E+03  0.17120000000E+03 0.  0.
         13    1    1    2    0    0  0.48876371847E+01 -0.13981600287E+03  0.47341798318E+03  0.49365676499E+03  0.10566000000E+00 0.  1.
        994    1    1    2    0    0 -0.25047928091E+02  0.86870178549E+02  0.50924876552E+02  0.20019143257E+03  0.17120000000E+03 0.  0.
        998    1    1    2    0    0  0.20160290906E+02  0.52945824320E+02  0.97565713655E+03  0.97735180244E+03  0.10000000000E+02 0.  1.
</event>
<event>
 5    1  0.1271464E-008  0.3792578E+03  0.7957747E-01  0.3454396E+00
         13   -1    0    0    0    0  0.00000000000E+00  0.00000000000E+00  0.14999999963E+04  0.15000000000E+04  0.10566000000E+00 0. -1.
        994   -1    0    0    0    0 -0.00000000000E+00 -0.00000000000E+00  0.11368683772E-12  0.17120000000E+03  0.17120000000E+03 0.  0.
         13    1    1    2    0    0  0.33395102784E+01  0.16055528349E+02  0.29327139850E+02  0.33600961524E+02  0.10566000000E+00 0. -1.
        994    1    1    2    0    0  0.12495977054E+00  0.44787119449E+01  0.45755363813E+01  0.17131973035E+03  0.17120000000E+03 0.  0.
        998    1    1    2    0    0 -0.34644700489E+01 -0.20534240294E+02  0.14660973200E+04  0.14662793081E+04  0.10000000000E+02 0. -1.
</event>
<event>
 5    1  0.1271464E-008  0.3782229E+03  0.7957747E-01  0.3458933E+00
         13   -1    0    0    0    0  0.00000000000E+00  0.00000000000E+00  0.14999999963E+04  0.15000000000E+04  0.10566000000E+00 0.  1.
        994   -1    0    0    0    0 -0.00000000000E+00 -0.00000000000E+00  0.11368683772E-12  0.17120000000E+03  0.17120000000E+03 0.  0.
         13    1    1    2    0    0  0.13205487508E+02 -0.80044594013E+02  0.47044702166E+03  0.47739075534E+03  0.10566000000E+00 0.  1.
        994    1    1    2    0    0 -0.19307599476E+02  0.74514143553E+02  0.25223122669E+02  0.18939584711E+03  0.17120000000E+03 0.  0.
        998    1    1    2    0    0  0.61021119681E+01  0.55304504604E+01  0.10043298519E+04  0.10044133975E+04  0.10000000000E+02 0.  1.
</event>
<event>
 5    1  0.1271464E-008  0.3796670E+03  0.7957747E-01  0.3452610E+00
         13   -1    0    0    0    0  0.00000000000E+00  0.00000000000E+00  0.14999999963E+04  0.15000000000E+04  0.10566000000E+00 0.  1.
        994   -1    0    0    0    0 -0.00000000000E+00 -0.00000000000E+00  0.11368683772E-12  0.17120000000E+03  0.17120000000E+03 0.  0.
         13    1    1    2    0    0  0.31201210086E+02 -0.21671490769E+02  0.16078709747E+03  0.16521401545E+03  0.10566000000E+00 0.  1.
        994    1    1    2    0    0 -0.32703739892E+02  0.16543514153E+01  0.78981455607E+01  0.17448235494E+03  0.17120000000E+03 0.  0.
        998    1    1    2    0    0  0.15025298059E+01  0.20017139354E+02  0.13313147532E+04  0.13315036296E+04  0.10000000000E+02 0.  1.
</event>
<event>
 5    1  0.1271464E-008  0.3771866E+03  0.7957747E-01  0.3463501E+00
         13   -1    0    0    0    0  0.00000000000E+00  0.00000000000E+00  0.14999999963E+04  0.15000000000E+04  0.10566000000E+00 0. -1.
        994   -1    0    0    0    0 -0.00000000000E+00 -0.00000000000E+00  0.11368683772E-12  0.17120000000E+03  0.17120000000E+03 0.  0.
         13    1    1    2    0    0  0.10765534245E+02  0.12454378505E+02  0.21787256659E+02  0.27307581151E+02  0.10566000000E+00 0. -1.
        994    1    1    2    0    0 -0.97531169840E+01 -0.12251177495E+02  0.63879669810E+01  0.17203331295E+03  0.17120000000E+03 0.  0.
        998    1    1    2    0    0 -0.10124172610E+01 -0.20320101013E+00  0.14718247726E+04  0.14718591059E+04  0.10000000000E+02 0. -1.
</event>
<event>
 5    1  0.1271464E-008  0.3817717E+03  0.7957747E-01  0.3443480E+00
         13   -1    0    0    0    0  0.00000000000E+00  0.00000000000E+00  0.14999999963E+04  0.15000000000E+04  0.10566000000E+00 0.  1.
        994   -1    0    0    0    0 -0.00000000000E+00 -0.00000000000E+00  0.11368683772E-12  0.17120000000E+03  0.17120000000E+03 0.  0.
         13    1    1    2    0    0 -0.35636465292E+02 -0.67902522651E+01  0.18537573476E+03  0.18889213691E+03  0.10566000000E+00 0.  1.
        994    1    1    2    0    0  0.30558707467E+02  0.11121719867E+02  0.67640889330E+01  0.17439243147E+03  0.17120000000E+03 0.  0.
        998    1    1    2    0    0  0.50777578253E+01 -0.43314676020E+01  0.13078601726E+04  0.13079154316E+04  0.10000000000E+02 0.  1.
</event>
<event>
 5    1  0.1271464E-008  0.3854179E+03  0.7957747E-01  0.3427902E+00
         13   -1    0    0    0    0  0.00000000000E+00  0.00000000000E+00  0.14999999963E+04  0.15000000000E+04  0.10566000000E+00 0.  1.
        994   -1    0    0    0    0 -0.00000000000E+00 -0.00000000000E+00  0.11368683772E-12  0.17120000000E+03  0.17120000000E+03 0.  0.
         13    1    1    2    0    0  0.56286007155E+01 -0.83436590629E+01  0.34844452564E+02  0.36269061624E+02  0.10566000000E+00 0.  1.
        994    1    1    2    0    0 -0.30634884706E+01  0.11476689361E+02  0.18863386720E+01  0.17162196140E+03  0.17120000000E+03 0.  0.
        998    1    1    2    0    0 -0.25651122449E+01 -0.31330302981E+01  0.14632692050E+04  0.14633089770E+04  0.10000000000E+02 0.  1.
</event>
<event>
 5    1  0.1271464E-008  0.3785163E+03  0.7957747E-01  0.3457644E+00
         13   -1    0    0    0    0  0.00000000000E+00  0.00000000000E+00  0.14999999963E+04  0.15000000000E+04  0.10566000000E+00 0.  1.
        994   -1    0    0    0    0 -0.00000000000E+00 -0.00000000000E+00  0.11368683772E-12  0.17120000000E+03  0.17120000000E+03 0.  0.
         13    1    1    2    0    0  0.58327636441E+01 -0.14515968611E+02  0.23768230143E+02  0.28454778239E+02  0.10566000000E+00 0.  1.
        994    1    1    2    0    0 -0.47334149392E+01 -0.29924434193E+01  0.49893246533E+01  0.17136421241E+03  0.17120000000E+03 0.  0.
        998    1    1    2    0    0 -0.10993487049E+01  0.17508412030E+02  0.14712424415E+04  0.14713810094E+04  0.10000000000E+02 0.  1.
</event>
<event>
 5    1  0.1271464E-008  0.4266522E+03  0.7957747E-01  0.3270195E+00
         13   -1    0    0    0    0  0.00000000000E+00  0.00000000000E+00  0.14999999963E+04  0.15000000000E+04  0.10566000000E+00 0. -1.
        994   -1    0    0    0    0 -0.00000000000E+00 -0.00000000000E+00  0.11368683772E-12  0.17120000000E+03  0.17120000000E+03 0.  0.
         13    1    1    2    0    0  0.17704373497E+00 -0.92993906051E+02  0.10848785510E+03  0.14288990088E+03  0.10566000000E+00 0. -1.
        994    1    1    2    0    0  0.68353072203E+02 -0.25106453631E+02  0.68530542013E+02  0.19826333923E+03  0.17120000000E+03 0.  0.
        998    1    1    2    0    0 -0.68530115938E+02  0.11810035968E+03  0.13229815992E+04  0.13300467599E+04  0.10000000000E+02 0. -1.
</event>
<event>
 5    1  0.1271464E-008  0.3771609E+03  0.7957747E-01  0.3463615E+00
         13   -1    0    0    0    0  0.00000000000E+00  0.00000000000E+00  0.14999999963E+04  0.15000000000E+04  0.10566000000E+00 0. -1.
        994   -1    0    0    0    0 -0.00000000000E+00 -0.00000000000E+00  0.11368683772E-12  0.17120000000E+03  0.17120000000E+03 0.  0.
         13    1    1    2    0    0 -0.18465050855E+01 -0.26762040548E+02  0.57484408654E+02  0.63435674487E+02  0.10566000000E+00 0. -1.
        994    1    1    2    0    0  0.66592462137E+01  0.40130611794E+02  0.11178008486E+02  0.17632129604E+03  0.17120000000E+03 0.  0.
        998    1    1    2    0    0 -0.48127411283E+01 -0.13368571246E+02  0.14313375791E+04  0.14314430295E+04  0.10000000000E+02 0. -1.
</event>
<event>
 5    1  0.1271464E-008  0.3813065E+03  0.7957747E-01  0.3445489E+00
         13   -1    0    0    0    0  0.00000000000E+00  0.00000000000E+00  0.14999999963E+04  0.15000000000E+04  0.10566000000E+00 0.  1.
        994   -1    0    0    0    0 -0.00000000000E+00 -0.00000000000E+00  0.11368683772E-12  0.17120000000E+03  0.17120000000E+03 0.  0.
         13    1    1    2    0    0 -0.11405653714E+02 -0.14633166468E+02  0.49441025018E+02  0.52807618924E+02  0.10566000000E+00 0.  1.
        994    1    1    2    0    0 -0.17855453140E+01  0.93718171402E+01  0.37780879086E+01  0.17150723914E+03  0.17120000000E+03 0.  0.
        998    1    1    2    0    0  0.13191199028E+02  0.52613493277E+01  0.14467808834E+04  0.14468851419E+04  0.10000000000E+02 0.  1.
</event>
<event>
 5    1  0.1271464E-008  0.3841032E+03  0.7957747E-01  0.3433484E+00
         13   -1    0    0    0    0  0.00000000000E+00  0.00000000000E+00  0.14999999963E+04  0.15000000000E+04  0.10566000000E+00 0.  1.
        994   -1    0    0    0    0 -0.00000000000E+00 -0.00000000000E+00  0.11368683772E-12  0.17120000000E+03  0.17120000000E+03 0.  0.
         13    1    1    2    0    0 -0.88960310015E+01  0.11542589699E+02  0.49065991311E+02  0.51184503631E+02  0.10566000000E+00 0.  1.
        994    1    1    2    0    0  0.50578109944E+01 -0.16821701344E+02  0.30943529473E+01  0.17212659907E+03  0.17120000000E+03 0.  0.
        998    1    1    2    0    0  0.38382200071E+01  0.52791116455E+01  0.14478396520E+04  0.14478888973E+04  0.10000000000E+02 0.  1.
</event>
<event>
 5    1  0.1271464E-008  0.3817896E+03  0.7957747E-01  0.3443403E+00
         13   -1    0    0    0    0  0.00000000000E+00  0.00000000000E+00  0.14999999963E+04  0.15000000000E+04  0.10566000000E+00 0.  1.
        994   -1    0    0    0    0 -0.00000000000E+00 -0.00000000000E+00  0.11368683772E-12  0.17120000000E+03  0.17120000000E+03 0.  0.
         13    1    1    2    0    0  0.18051245201E+02 -0.91537359913E+01  0.63863188536E+02  0.66993703808E+02  0.10566000000E+00 0.  1.
        994    1    1    2    0    0 -0.88968016726E+01 -0.78749296636E+00  0.34976492661E+01  0.17146850083E+03  0.17120000000E+03 0.  0.
        998    1    1    2    0    0 -0.91544435281E+01  0.99412289577E+01  0.14326391585E+04  0.14327377954E+04  0.10000000000E+02 0.  1.
</event>
<event>
 5    1  0.1271464E-008  0.3732395E+03  0.7957747E-01  0.3481134E+00
         13   -1    0    0    0    0  0.00000000000E+00  0.00000000000E+00  0.14999999963E+04  0.15000000000E+04  0.10566000000E+00 0.  1.
        994   -1    0    0    0    0 -0.00000000000E+00 -0.00000000000E+00  0.11368683772E-12  0.17120000000E+03  0.17120000000E+03 0.  0.
         13    1    1    2    0    0 -0.13388664986E+03  0.14917106811E+03  0.94149009580E+03  0.96259090700E+03  0.10566000000E+00 0.  1.
        994    1    1    2    0    0  0.14976227316E+03 -0.12556409504E+03  0.15206139190E+03  0.30104349741E+03  0.17120000000E+03 0.  0.
        998    1    1    2    0    0 -0.15875623294E+02 -0.23606973075E+02  0.40644850857E+03  0.40756559560E+03  0.10000000000E+02 0. -1.
</event>
<event>
 5    1  0.1271464E-008  0.3827402E+03  0.7957747E-01  0.3439313E+00
         13   -1    0    0    0    0  0.00000000000E+00  0.00000000000E+00  0.14999999963E+04  0.15000000000E+04  0.10566000000E+00 0.  1.
        994   -1    0    0    0    0 -0.00000000000E+00 -0.00000000000E+00  0.11368683772E-12  0.17120000000E+03  0.17120000000E+03 0.  0.
         13    1    1    2    0    0  0.67477428065E+01 -0.92014488017E+01  0.22371700134E+02  0.25113797482E+02  0.10566000000E+00 0.  1.
        994    1    1    2    0    0 -0.57193281809E+01  0.95946375893E+01  0.31696980578E+01  0.17159328300E+03  0.17120000000E+03 0.  0.
        998    1    1    2    0    0 -0.10284146256E+01 -0.39318878759E+00  0.14744585981E+04  0.14744929195E+04  0.10000000000E+02 0.  1.
</event>
<event>
 5    1  0.1271464E-008  0.3829734E+03  0.7957747E-01  0.3438313E+00
         13   -1    0    0    0    0  0.00000000000E+00  0.00000000000E+00  0.14999999963E+04  0.15000000000E+04  0.10566000000E+00 0.  1.
        994   -1    0    0    0    0 -0.00000000000E+00 -0.00000000000E+00  0.11368683772E-12  0.17120000000E+03  0.17120000000E+03 0.  0.
         13    1    1    2    0    0  0.24169333345E+01 -0.17471955656E+02  0.55773387179E+02  0.58496091174E+02  0.10566000000E+00 0.  1.
        994    1    1    2    0    0 -0.39718269661E+01  0.20004365084E+02  0.40178192419E+01  0.17245733647E+03  0.17120000000E+03 0.  0.
        998    1    1    2    0    0  0.15548936317E+01 -0.25324094280E+01  0.14402087899E+04  0.14402465724E+04  0.10000000000E+02 0.  1.
</event>
<event>
 5    1  0.1271464E-008  0.3852726E+03  0.7957747E-01  0.3428517E+00
         13   -1    0    0    0    0  0.00000000000E+00  0.00000000000E+00  0.14999999963E+04  0.15000000000E+04  0.10566000000E+00 0.  1.
        994   -1    0    0    0    0 -0.00000000000E+00 -0.00000000000E+00  0.11368683772E-12  0.17120000000E+03  0.17120000000E+03 0.  0.
         13    1    1    2    0    0  0.16627519891E+01 -0.11546979825E+02  0.45372078676E+02  0.46847990082E+02  0.10566000000E+00 0.  1.
        994    1    1    2    0    0 -0.10103468704E+02  0.73513374385E+01  0.20080124664E+01  0.17166710330E+03  0.17120000000E+03 0.  0.
        998    1    1    2    0    0  0.84407167151E+01  0.41956423867E+01  0.14526199051E+04  0.14526849066E+04  0.10000000000E+02 0.  1.
</event>
<event>
 5    1  0.1271464E-008  0.3797423E+03  0.7957747E-01  0.3452282E+00
         13   -1    0    0    0    0  0.00000000000E+00  0.00000000000E+00  0.14999999963E+04  0.15000000000E+04  0.10566000000E+00 0. -1.
        994   -1    0    0    0    0 -0.00000000000E+00 -0.00000000000E+00  0.11368683772E-12  0.17120000000E+03  0.17120000000E+03 0.  0.
         13    1    1    2    0    0  0.28599004201E+01  0.44536405359E+02  0.26664622194E+03  0.27035511697E+03  0.10566000000E+00 0. -1.
        994    1    1    2    0    0 -0.10533075474E+02 -0.93243361575E+01  0.49256729097E+01  0.17184758124E+03  0.17120000000E+03 0.  0.
        998    1    1    2    0    0  0.76731750539E+01 -0.35212069202E+02  0.12284281014E+04  0.12289973018E+04  0.10000000000E+02 0. -1.
</event>
<event>
 5    1  0.1271464E-008  0.4221444E+03  0.7957747E-01  0.3285955E+00
         13   -1    0    0    0    0  0.00000000000E+00  0.00000000000E+00  0.14999999963E+04  0.15000000000E+04  0.10566000000E+00 0.  1.
        994   -1    0    0    0    0 -0.00000000000E+00 -0.00000000000E+00  0.11368683772E-12  0.17120000000E+03  0.17120000000E+03 0.  0.
         13    1    1    2    0    0  0.93551274718E+02  0.12097654663E+03  0.33858001139E+03  0.37151527709E+03  0.10566000000E+00 0.  1.
        994    1    1    2    0    0 -0.79316739516E+01 -0.56290491862E+02  0.55799769780E+02  0.18882421781E+03  0.17120000000E+03 0.  0.
        998    1    1    2    0    0 -0.85619600766E+02 -0.64686054770E+02  0.11056202151E+04  0.11108605051E+04  0.10000000000E+02 0.  1.
</event>
<event>
 5    1  0.1271464E-008  0.3795618E+03  0.7957747E-01  0.3453069E+00
         13   -1    0    0    0    0  0.00000000000E+00  0.00000000000E+00  0.14999999963E+04  0.15000000000E+04  0.10566000000E+00 0. -1.
        994   -1    0    0    0    0 -0.00000000000E+00 -0.00000000000E+00  0.11368683772E-12  0.17120000000E+03  0.17120000000E+03 0.  0.
         13    1    1    2    0    0  0.28359882668E+02 -0.38641257421E+01  0.95512184487E+02  0.99708590213E+02  0.10566000000E+00 0. -1.
        994    1    1    2    0    0 -0.12404401160E+02 -0.81756572219E+01  0.50937394687E+01  0.17191886668E+03  0.17120000000E+03 0.  0.
        998    1    1    2    0    0 -0.15955481509E+02  0.12039782964E+02  0.13993940723E+04  0.13995725431E+04  0.10000000000E+02 0. -1.
</event>
<event>
 5    1  0.1271464E-008  0.3812053E+03  0.7957747E-01  0.3445927E+00
         13   -1    0    0    0    0  0.00000000000E+00  0.00000000000E+00  0.14999999963E+04  0.15000000000E+04  0.10566000000E+00 0.  1.
        994   -1    0    0    0    0 -0.00000000000E+00 -0.00000000000E+00  0.11368683772E-12  0.17120000000E+03  0.17120000000E+03 0.  0.
         13    1    1    2    0    0  0.13983973137E+02  0.86460867729E+01  0.39856048530E+02  0.43114059072E+02  0.10566000000E+00 0.  1.
        994    1    1    2    0    0  0.51142691962E+01  0.92898755274E+01  0.39004722508E+01  0.17157246638E+03  0.17120000000E+03 0.  0.
        998    1    1    2    0    0 -0.19098242333E+02 -0.17935962300E+02  0.14562434755E+04  0.14565134745E+04  0.10000000000E+02 0.  1.
</event>
<event>
 5    1  0.1271464E-008  0.3847657E+03  0.7957747E-01  0.3430666E+00
         13   -1    0    0    0    0  0.00000000000E+00  0.00000000000E+00  0.14999999963E+04  0.15000000000E+04  0.10566000000E+00 0. -1.
        994   -1    0    0    0    0 -0.00000000000E+00 -0.00000000000E+00  0.11368683772E-12  0.17120000000E+03  0.17120000000E+03 0.  0.
         13    1    1    2    0    0  0.13468097679E+02 -0.13830931518E+02  0.10999324330E+03  0.11167456764E+03  0.10566000000E+00 0. -1.
        994    1    1    2    0    0 -0.12147989513E+01  0.10517202457E+02  0.21154798677E+01  0.17154009018E+03  0.17120000000E+03 0.  0.
        998    1    1    2    0    0 -0.12253298727E+02  0.33137290607E+01  0.13878912731E+04  0.13879853422E+04  0.10000000000E+02 0. -1.
</event>
<event>
 5    1  0.1271464E-008  0.3773738E+03  0.7957747E-01  0.3462674E+00
         13   -1    0    0    0    0  0.00000000000E+00  0.00000000000E+00  0.14999999963E+04  0.15000000000E+04  0.10566000000E+00 0. -1.
        994   -1    0    0    0    0 -0.00000000000E+00 -0.00000000000E+00  0.11368683772E-12  0.17120000000E+03  0.17120000000E+03 0.  0.
         13    1    1    2    0    0  0.74442991385E+02  0.12451617334E+03  0.44545021217E+03  0.46847832296E+03  0.10566000000E+00 0. -1.
        994    1    1    2    0    0 -0.78124970464E+02 -0.12854465195E+03  0.10128684248E+03  0.24939066345E+03  0.17120000000E+03 0.  0.
        998    1    1    2    0    0  0.36819790792E+01  0.40284786089E+01  0.95326294162E+03  0.95333101359E+03  0.10000000000E+02 0.  0.
</event>
<event>
 5    1  0.1271464E-008  0.3759013E+03  0.7957747E-01  0.3469202E+00
         13   -1    0    0    0    0  0.00000000000E+00  0.00000000000E+00  0.14999999963E+04  0.15000000000E+04  0.10566000000E+00 0. -1.
        994   -1    0    0    0    0 -0.00000000000E+00 -0.00000000000E+00  0.11368683772E-12  0.17120000000E+03  0.17120000000E+03 0.  0.
         13    1    1    2    0    0  0.65158157318E+02  0.22565009592E+02  0.14965645725E+03  0.16477812805E+03  0.10566000000E+00 0. -1.
        994    1    1    2    0    0 -0.65726912758E+02 -0.14152031325E+02  0.30412520251E+02  0.18642604013E+03  0.17120000000E+03 0.  0.
        998    1    1    2    0    0  0.56875543930E+00 -0.84129782669E+01  0.13199310188E+04  0.13199958318E+04  0.10000000000E+02 0. -1.
</event>
<event>
 5    1  0.1271464E-008  0.3837166E+03  0.7957747E-01  0.3435134E+00
         13   -1    0    0    0    0  0.00000000000E+00  0.00000000000E+00  0.14999999963E+04  0.15000000000E+04  0.10566000000E+00 0. -1.
        994   -1    0    0    0    0 -0.00000000000E+00 -0.00000000000E+00  0.11368683772E-12  0.17120000000E+03  0.17120000000E+03 0.  0.
         13    1    1    2    0    0  0.61815807316E+01  0.10174624901E+02  0.30393994512E+02  0.32642625486E+02  0.10566000000E+00 0. -1.
        994    1    1    2    0    0 -0.36875277730E+01 -0.89502357622E+01  0.25781726594E+01  0.17149283237E+03  0.17120000000E+03 0.  0.
        998    1    1    2    0    0 -0.24940529586E+01 -0.12243891387E+01  0.14670278291E+04  0.14670645421E+04  0.10000000000E+02 0. -1.
</event>
<event>
 5    1  0.1271464E-008  0.3845406E+03  0.7957747E-01  0.3431623E+00
         13   -1    0    0    0    0  0.00000000000E+00  0.00000000000E+00  0.14999999963E+04  0.15000000000E+04  0.10566000000E+00 0.  1.
        994   -1    0    0    0    0 -0.00000000000E+00 -0.00000000000E+00  0.11368683772E-12  0.17120000000E+03  0.17120000000E+03 0.  0.
         13    1    1    2    0    0  0.40868700154E+01 -0.18934077377E+02  0.11057999272E+03  0.11226374191E+03  0.10566000000E+00 0.  1.
        994    1    1    2    0    0 -0.70994851932E+01 -0.95657707098E+00  0.20274315254E+01  0.17136180499E+03  0.17120000000E+03 0.  0.
        998    1    1    2    0    0  0.30126151778E+01  0.19890654448E+02  0.13873925720E+04  0.13875744531E+04  0.10000000000E+02 0.  1.
</event>
<event>
 5    1  0.1271464E-008  0.3824056E+03  0.7957747E-01  0.3440750E+00
         13   -1    0    0    0    0  0.00000000000E+00  0.00000000000E+00  0.14999999963E+04  0.15000000000E+04  0.10566000000E+00 0. -1.
        994   -1    0    0    0    0 -0.00000000000E+00 -0.00000000000E+00  0.11368683772E-12  0.17120000000E+03  0.17120000000E+03 0.  0.
         13    1    1    2    0    0  0.22225039137E+02 -0.16868596278E+02  0.11864427130E+03  0.12188099188E+03  0.10566000000E+00 0. -1.
        994    1    1    2    0    0 -0.28125013524E+02  0.18676032767E+02  0.67131597519E+01  0.17462622111E+03  0.17120000000E+03 0.  0.
        998    1    1    2    0    0  0.58999743876E+01 -0.18074364892E+01  0.13746425652E+04  0.13746927870E+04  0.10000000000E+02 0. -1.
</event>
<event>
 5    1  0.1271464E-008  0.3858804E+03  0.7957747E-01  0.3425947E+00
         13   -1    0    0    0    0  0.00000000000E+00  0.00000000000E+00  0.14999999963E+04  0.15000000000E+04  0.10566000000E+00 0. -1.
        994   -1    0    0    0    0 -0.00000000000E+00 -0.00000000000E+00  0.11368683772E-12  0.17120000000E+03  0.17120000000E+03 0.  0.
         13    1    1    2    0    0  0.98303562824E+01  0.61428776941E+01  0.61629941852E+02  0.62710698829E+02  0.10566000000E+00 0. -1.
        994    1    1    2    0    0 -0.39362152070E+01  0.12192263532E+02  0.17321037748E+01  0.17168746391E+03  0.17120000000E+03 0.  0.
        998    1    1    2    0    0 -0.58941410754E+01 -0.18335141226E+02  0.14366379507E+04  0.14368018373E+04  0.10000000000E+02 0. -1.
</event>
<event>
 5    1  0.1271464E-008  0.3757864E+03  0.7957747E-01  0.3469713E+00
         13   -1    0    0    0    0  0.00000000000E+00  0.00000000000E+00  0.14999999963E+04  0.15000000000E+04  0.10566000000E+00 0.  1.
        994   -1    0    0    0    0 -0.00000000000E+00 -0.00000000000E+00  0.11368683772E-12  0.17120000000E+03  0.17120000000E+03 0.  0.
         13    1    1    2    0    0  0.12764380671E+01  0.10021485425E+03  0.50489184772E+03  0.51474307704E+03  0.10566000000E+00 0.  1.
        994    1    1    2    0    0  0.15615178022E+01 -0.10264921595E+03  0.42887699448E+02  0.20417662608E+03  0.17120000000E+03 0.  0.
        998    1    1    2    0    0 -0.28379558693E+01  0.24343617020E+01  0.95222044911E+03  0.95228029688E+03  0.10000000000E+02 0. -1.
</event>
<event>
 5    1  0.1271464E-008  0.3847389E+03  0.7957747E-01  0.3430780E+00
         13   -1    0    0    0    0  0.00000000000E+00  0.00000000000E+00  0.14999999963E+04  0.15000000000E+04  0.10566000000E+00 0. -1.
        994   -1    0    0    0    0 -0.00000000000E+00 -0.00000000000E+00  0.11368683772E-12  0.17120000000E+03  0.17120000000E+03 0.  0.
         13    1    1    2    0    0 -0.94078280782E+01  0.15725842773E+02  0.10799908745E+03  0.10954279261E+03  0.10566000000E+00 0. -1.
        994    1    1    2    0    0 -0.98758277449E+01 -0.16582614468E+01  0.20899793285E+01  0.17150536382E+03  0.17120000000E+03 0.  0.
        998    1    1    2    0    0  0.19283655823E+02 -0.14067581326E+02  0.13899109295E+04  0.13901518436E+04  0.10000000000E+02 0. -1.
</event>
<event>
 5    1  0.1271464E-008  0.3778103E+03  0.7957747E-01  0.3460749E+00
         13   -1    0    0    0    0  0.00000000000E+00  0.00000000000E+00  0.14999999963E+04  0.15000000000E+04  0.10566000000E+00 0. -1.
        994   -1    0    0    0    0 -0.00000000000E+00 -0.00000000000E+00  0.11368683772E-12  0.17120000000E+03  0.17120000000E+03 0.  0.
         13    1    1    2    0    0  0.41100172492E+02  0.25192550887E+02  0.28643983233E+03  0.29046803182E+03  0.10566000000E+00 0. -1.
        994    1    1    2    0    0  0.18655143235E+01  0.32248099221E+01  0.52893384757E+01  0.17132220126E+03  0.17120000000E+03 0.  0.
        998    1    1    2    0    0 -0.42965686816E+02 -0.28417360809E+02  0.12082708255E+04  0.12094097669E+04  0.10000000000E+02 0. -1.
</event>
<event>
 5    1  0.1271464E-008  0.3840366E+03  0.7957747E-01  0.3433768E+00
         13   -1    0    0    0    0  0.00000000000E+00  0.00000000000E+00  0.14999999963E+04  0.15000000000E+04  0.10566000000E+00 0.  1.
        994   -1    0    0    0    0 -0.00000000000E+00 -0.00000000000E+00  0.11368683772E-12  0.17120000000E+03  0.17120000000E+03 0.  0.
         13    1    1    2    0    0  0.18254365947E+01 -0.15065417863E+02  0.52281931674E+02  0.54439972243E+02  0.10566000000E+00 0.  1.
        994    1    1    2    0    0 -0.93464071805E+01  0.16019862533E+02  0.32448313889E+01  0.17223228575E+03  0.17120000000E+03 0.  0.
        998    1    1    2    0    0  0.75209705858E+01 -0.95444467075E+00  0.14444732332E+04  0.14445277420E+04  0.10000000000E+02 0.  1.
</event>
<event>
 5    1  0.1271464E-008  0.3727602E+03  0.7957747E-01  0.3483301E+00
         13   -1    0    0    0    0  0.00000000000E+00  0.00000000000E+00  0.14999999963E+04  0.15000000000E+04  0.10566000000E+00 0.  1.
        994   -1    0    0    0    0 -0.00000000000E+00 -0.00000000000E+00  0.11368683772E-12  0.17120000000E+03  0.17120000000E+03 0.  0.
         13    1    1    2    0    0 -0.85672317218E+01  0.80894352436E+01  0.52539016787E+01  0.12901591717E+02  0.10566000000E+00 0.  1.
        994    1    1    2    0    0  0.60571319771E+01 -0.69039298888E+01  0.81223863748E+01  0.17163847545E+03  0.17120000000E+03 0.  0.
        998    1    1    2    0    0  0.25100997447E+01 -0.11855053548E+01  0.14866237082E+04  0.14866599328E+04  0.10000000000E+02 0.  1.
</event>
<event>
 5    1  0.1271464E-008  0.3763514E+03  0.7957747E-01  0.3467201E+00
         13   -1    0    0    0    0  0.00000000000E+00  0.00000000000E+00  0.14999999963E+04  0.15000000000E+04  0.10566000000E+00 0.  1.
        994   -1    0    0    0    0 -0.00000000000E+00 -0.00000000000E+00  0.11368683772E-12  0.17120000000E+03  0.17120000000E+03 0.  0.
         13    1    1    2    0    0  0.25356371864E+02  0.66129213790E+02  0.32972374980E+03  0.33724439337E+03  0.10566000000E+00 0.  1.
        994    1    1    2    0    0 -0.13143533546E+02 -0.69467725003E+02  0.23092063349E+02  0.18665797781E+03  0.17120000000E+03 0.  0.
        998    1    1    2    0    0 -0.12212838318E+02  0.33385112131E+01  0.11471841831E+04  0.11472976288E+04  0.10000000000E+02 0.  0.
</event>
<event>
 5    1  0.1428668E-008  0.3853007E+03  0.7957747E-01  0.3428398E+00
         13   -1    0    0    0    0  0.00000000000E+00  0.00000000000E+00  0.14999999963E+04  0.15000000000E+04  0.10566000000E+00 0.  1.
        994   -1    0    0    0    0 -0.00000000000E+00 -0.00000000000E+00  0.11368683772E-12  0.17120000000E+03  0.17120000000E+03 0.  0.
         13    1    1    2    0    0  0.90284528327E+01  0.43961543101E+01  0.33291094462E+02  0.34772794938E+02  0.10566000000E+00 0.  1.
        994    1    1    2    0    0 -0.99163009680E+01 -0.50636819770E+01  0.18883345105E+01  0.17157208312E+03  0.17120000000E+03 0.  0.
        998    1    1    2    0    0  0.88784813530E+00  0.66752766693E+00  0.14648205673E+04  0.14648551219E+04  0.10000000000E+02 0.  1.
</event>
<event>
 5    1  0.1271464E-008  0.3856476E+03  0.7957747E-01  0.3426930E+00
         13   -1    0    0    0    0  0.00000000000E+00  0.00000000000E+00  0.14999999963E+04  0.15000000000E+04  0.10566000000E+00 0.  1.
        994   -1    0    0    0    0 -0.00000000000E+00 -0.00000000000E+00  0.11368683772E-12  0.17120000000E+03  0.17120000000E+03 0.  0.
         13    1    1    2    0    0 -0.96129091947E+01  0.62390987286E+01  0.51296854565E+02  0.52561514708E+02  0.10566000000E+00 0.  1.
        994    1    1    2    0    0  0.24937524698E+01 -0.56646259228E+01  0.14346751182E+01  0.17131784811E+03  0.17120000000E+03 0.  0.
        998    1    1    2    0    0  0.71191567249E+01 -0.57447280578E+00  0.14472684666E+04  0.14473206372E+04  0.10000000000E+02 0.  1.
</event>
<event>
 5    1  0.1271464E-008  0.3762992E+03  0.7957747E-01  0.3467432E+00
         13   -1    0    0    0    0  0.00000000000E+00  0.00000000000E+00  0.14999999963E+04  0.15000000000E+04  0.10566000000E+00 0. -1.
        994   -1    0    0    0    0 -0.00000000000E+00 -0.00000000000E+00  0.11368683772E-12  0.17120000000E+03  0.17120000000E+03 0.  0.
         13    1    1    2    0    0 -0.50525455846E+02 -0.63594276253E+02  0.38441529548E+03  0.39290225785E+03  0.10566000000E+00 0. -1.
        994    1    1    2    0    0  0.49539363860E+02  0.71181829715E+02  0.31907013651E+02  0.19454690687E+03  0.17120000000E+03 0.  0.
        998    1    1    2    0    0  0.98609198656E+00 -0.75875534622E+01  0.10836776872E+04  0.10837508353E+04  0.10000000000E+02 0.  0.
</event>
<event>
 5    1  0.1271464E-008  0.3739530E+03  0.7957747E-01  0.3477919E+00
         13   -1    0    0    0    0  0.00000000000E+00  0.00000000000E+00  0.14999999963E+04  0.15000000000E+04  0.10566000000E+00 0. -1.
        994   -1    0    0    0    0 -0.00000000000E+00 -0.00000000000E+00  0.11368683772E-12  0.17120000000E+03  0.17120000000E+03 0.  0.
         13    1    1    2    0    0  0.97874870539E+01 -0.18480423179E+02  0.27590942819E+02  0.34620690827E+02  0.10566000000E+00 0. -1.
        994    1    1    2    0    0 -0.32528206492E+01  0.99250444865E+01  0.75895712555E+01  0.17168613497E+03  0.17120000000E+03 0.  0.
        998    1    1    2    0    0 -0.65346664047E+01  0.85553786928E+01  0.14648194822E+04  0.14648931742E+04  0.10000000000E+02 0. -1.
</event>
<event>
 5    1  0.1271464E-008  0.3849812E+03  0.7957747E-01  0.3429752E+00
         13   -1    0    0    0    0  0.00000000000E+00  0.00000000000E+00  0.14999999963E+04  0.15000000000E+04  0.10566000000E+00 0. -1.
        994   -1    0    0    0    0 -0.00000000000E+00 -0.00000000000E+00  0.11368683772E-12  0.17120000000E+03  0.17120000000E+03 0.  0.
         13    1    1    2    0    0 -0.50769649509E+01  0.15673618254E+02  0.82356278740E+02  0.83988128293E+02  0.10566000000E+00 0. -1.
        994    1    1    2    0    0  0.39783239056E+01 -0.10772039081E+02  0.20732888803E+01  0.17159720981E+03  0.17120000000E+03 0.  0.
        998    1    1    2    0    0  0.10986410453E+01 -0.49015791731E+01  0.14155704287E+04  0.14156146619E+04  0.10000000000E+02 0. -1.
</event>
<event>
 5    1  0.1271464E-008  0.3849707E+03  0.7957747E-01  0.3429797E+00
         13   -1    0    0    0    0  0.00000000000E+00  0.00000000000E+00  0.14999999963E+04  0.15000000000E+04  0.10566000000E+00 0.  1.
        994   -1    0    0    0    0 -0.00000000000E+00 -0.00000000000E+00  0.11368683772E-12  0.17120000000E+03  0.17120000000E+03 0.  0.
         13    1    1    2    0    0  0.11715476285E+02 -0.10092779368E+02  0.66050912308E+02  0.67836942448E+02  0.10566000000E+00 0.  1.
        994    1    1    2    0    0 -0.24987625356E+02  0.10199189590E+02  0.40440595299E+01  0.17336147008E+03  0.17120000000E+03 0.  0.
        998    1    1    2    0    0  0.13272149071E+02 -0.10641022187E+00  0.14299050244E+04  0.14300015875E+04  0.10000000000E+02 0.  1.
</event>
<event>
 5    1  0.1271464E-008  0.3818087E+03  0.7957747E-01  0.3443320E+00
         13   -1    0    0    0    0  0.00000000000E+00  0.00000000000E+00  0.14999999963E+04  0.15000000000E+04  0.10566000000E+00 0. -1.
        994   -1    0    0    0    0 -0.00000000000E+00 -0.00000000000E+00  0.11368683772E-12  0.17120000000E+03  0.17120000000E+03 0.  0.
         13    1    1    2    0    0  0.20980418972E+02 -0.29097987774E+02  0.21269086568E+03  0.21569489188E+03  0.10566000000E+00 0. -1.
        994    1    1    2    0    0 -0.12988361401E+02  0.66087631781E+01  0.39289288563E+01  0.17186404442E+03  0.17120000000E+03 0.  0.
        998    1    1    2    0    0 -0.79920575712E+01  0.22489224596E+02  0.12833802017E+04  0.12836410637E+04  0.10000000000E+02 0. -1.
</event>
<event>
 5    1  0.1271464E-008  0.4410624E+03  0.7957747E-01  0.3221927E+00
         13   -1    0    0    0    0  0.00000000000E+00  0.00000000000E+00  0.14999999963E+04  0.15000000000E+04  0.10566000000E+00 0.  1.
        994   -1    0    0    0    0 -0.00000000000E+00 -0.00000000000E+00  0.11368683772E-12  0.17120000000E+03  0.17120000000E+03 0.  0.
         13    1    1    2    0    0 -0.70784978809E+02  0.10840697521E+03  0.12936071633E+03  0.18302128727E+03  0.10566000000E+00 0.  1.
        994    1    1    2    0    0  0.36988527390E+02 -0.11661531417E+03  0.13069248631E+03  0.24770395361E+03  0.17120000000E+03 0.  0.
        998    1    1    2    0    0  0.33796451419E+02  0.82083389554E+01  0.12399467936E+04  0.12404747591E+04  0.10000000000E+02 0.  1.
</event>
<event>
 5    1  0.1271464E-008  0.3832143E+03  0.7957747E-01  0.3437281E+00
         13   -1    0    0    0    0  0.00000000000E+00  0.00000000000E+00  0.14999999963E+04  0.15000000000E+04  0.10566000000E+00 0.  1.
        994   -1    0    0    0    0 -0.00000000000E+00 -0.00000000000E+00  0.11368683772E-12  0.17120000000E+03  0.17120000000E+03 0.  0.
         13    1    1    2    0    0  0.46496837619E+01 -0.15319082465E+02  0.48797417524E+02  0.51356527995E+02  0.10566000000E+00 0.  1.
        994    1    1    2    0    0 -0.61466721460E+01  0.15441492674E+02  0.34335166272E+01  0.17203909530E+03  0.17120000000E+03 0.  0.
        998    1    1    2    0    0  0.14969883840E+01 -0.12241020889E+00  0.14477690621E+04  0.14478043767E+04  0.10000000000E+02 0.  1.
</event>
<event>
 5    1  0.1271464E-008  0.3944268E+03  0.7957747E-01  0.3390650E+00
         13   -1    0    0    0    0  0.00000000000E+00  0.00000000000E+00  0.14999999963E+04  0.15000000000E+04  0.10566000000E+00 0.  1.
        994   -1    0    0    0    0 -0.00000000000E+00 -0.00000000000E+00  0.11368683772E-12  0.17120000000E+03  0.17120000000E+03 0.  0.
         13    1    1    2    0    0 -0.62573108419E+02  0.13610611298E+03  0.35049161520E+03  0.38116223760E+03  0.10566000000E+00 0.  1.
        994    1    1    2    0    0  0.53142719338E+02 -0.12846161641E+03  0.10298562329E+03  0.24339682437E+03  0.17120000000E+03 0.  0.
        998    1    1    2    0    0  0.94303890818E+01 -0.76444965629E+01  0.10465227578E+04  0.10466409380E+04  0.10000000000E+02 0.  1.
</event>
<event>
 5    1  0.1271464E-008  0.3722058E+03  0.7957747E-01  0.3485815E+00
         13   -1    0    0    0    0  0.00000000000E+00  0.00000000000E+00  0.14999999963E+04  0.15000000000E+04  0.10566000000E+00 0.  1.
        994   -1    0    0    0    0 -0.00000000000E+00 -0.00000000000E+00  0.11368683772E-12  0.17120000000E+03  0.17120000000E+03 0.  0.
         13    1    1    2    0    0 -0.10377525784E+02  0.22316849654E+02  0.33256438124E+02  0.41373139362E+02  0.10566000000E+00 0.  1.
        994    1    1    2    0    0  0.51381050716E+01 -0.25343002229E+02  0.10418654160E+02  0.17345505539E+03  0.17120000000E+03 0.  0.
        998    1    1    2    0    0  0.52394207119E+01  0.30261525748E+01  0.14563249040E+04  0.14563718052E+04  0.10000000000E+02 0.  1.
</event>
<event>
 5    1  0.1271464E-008  0.3841548E+03  0.7957747E-01  0.3433265E+00
         13   -1    0    0    0    0  0.00000000000E+00  0.00000000000E+00  0.14999999963E+04  0.15000000000E+04  0.10566000000E+00 0. -1.
        994   -1    0    0    0    0 -0.00000000000E+00 -0.00000000000E+00  0.11368683772E-12  0.17120000000E+03  0.17120000000E+03 0.  0.
         13    1    1    2    0    0  0.12840468721E+02  0.73312400120E+01  0.56619500414E+02  0.58518404868E+02  0.10566000000E+00 0. -1.
        994    1    1    2    0    0  0.63385686764E+00  0.44867456676E+01  0.21180765959E+01  0.17127305366E+03  0.17120000000E+03 0.  0.
        998    1    1    2    0    0 -0.13474325589E+02 -0.11817985680E+02  0.14412624193E+04  0.14414085415E+04  0.10000000000E+02 0. -1.
</event>
<event>
 5    1  0.1271464E-008  0.3859976E+03  0.7957747E-01  0.3425452E+00
         13   -1    0    0    0    0  0.00000000000E+00  0.00000000000E+00  0.14999999963E+04  0.15000000000E+04  0.10566000000E+00 0. -1.
        994   -1    0    0    0    0 -0.00000000000E+00 -0.00000000000E+00  0.11368683772E-12  0.17120000000E+03  0.17120000000E+03 0.  0.
         13    1    1    2    0    0  0.20657168703E+01  0.12740409865E+02  0.66196984834E+02  0.67443585276E+02  0.10566000000E+00 0. -1.
        994    1    1    2    0    0 -0.18892183252E+02 -0.21494356193E+02  0.38247136205E+01  0.17361736771E+03  0.17120000000E+03 0.  0.
        998    1    1    2    0    0  0.16826466382E+02  0.87539463281E+01  0.14299782978E+04  0.14301390470E+04  0.10000000000E+02 0. -1.
</event>
<event>
 5    1  0.1271464E-008  0.3853551E+03  0.7957747E-01  0.3428168E+00
         13   -1    0    0    0    0  0.00000000000E+00  0.00000000000E+00  0.14999999963E+04  0.15000000000E+04  0.10566000000E+00 0. -1.
        994   -1    0    0    0    0 -0.00000000000E+00 -0.00000000000E+00  0.11368683772E-12  0.17120000000E+03  0.17120000000E+03 0.  0.
         13    1    1    2    0    0  0.48321196189E+01  0.15698011397E+02  0.98757143823E+02  0.10011374312E+03  0.10566000000E+00 0. -1.
        994    1    1    2    0    0 -0.48128711502E+01 -0.22187902896E+01  0.15462055484E+01  0.17128898829E+03  0.17120000000E+03 0.  0.
        998    1    1    2    0    0 -0.19248468705E-01 -0.13479221107E+02  0.13996966469E+04  0.13997972686E+04  0.10000000000E+02 0. -1.
</event>
<event>
 5    1  0.1271464E-008  0.3688753E+03  0.7957747E-01  0.3501076E+00
         13   -1    0    0    0    0  0.00000000000E+00  0.00000000000E+00  0.14999999963E+04  0.15000000000E+04  0.10566000000E+00 0.  1.
        994   -1    0    0    0    0 -0.00000000000E+00 -0.00000000000E+00  0.11368683772E-12  0.17120000000E+03  0.17120000000E+03 0.  0.
         13    1    1    2    0    0  0.19460400802E+02 -0.21309815214E+02  0.34219363293E+02  0.44763728755E+02  0.10566000000E+00 0.  1.
        994    1    1    2    0    0 -0.28183923071E+02  0.29442216657E+02  0.16152314117E+02  0.17672440378E+03  0.17120000000E+03 0.  0.
        998    1    1    2    0    0  0.87235222687E+01 -0.81324014429E+01  0.14496283189E+04  0.14497118675E+04  0.10000000000E+02 0.  1.
</event>
<event>
 5    1  0.1271464E-008  0.3845621E+03  0.7957747E-01  0.3431531E+00
         13   -1    0    0    0    0  0.00000000000E+00  0.00000000000E+00  0.14999999963E+04  0.15000000000E+04  0.10566000000E+00 0. -1.
        994   -1    0    0    0    0 -0.00000000000E+00 -0.00000000000E+00  0.11368683772E-12  0.17120000000E+03  0.17120000000E+03 0.  0.
         13    1    1    2    0    0 -0.10734646535E+02  0.46855871945E+01  0.36416125797E+02  0.38253532460E+02  0.10566000000E+00 0. -1.
        994    1    1    2    0    0  0.12505970712E+02  0.31967859422E+01  0.23966121794E+01  0.17170265721E+03  0.17120000000E+03 0.  0.
        998    1    1    2    0    0 -0.17713241775E+01 -0.78823731367E+01  0.14611872583E+04  0.14612438103E+04  0.10000000000E+02 0. -1.
</event>
<event>
 5    1  0.1271464E-008  0.3734999E+03  0.7957747E-01  0.3479959E+00
         13   -1    0    0    0    0  0.00000000000E+00  0.00000000000E+00  0.14999999963E+04  0.15000000000E+04  0.10566000000E+00 0. -1.
        994   -1    0    0    0    0 -0.00000000000E+00 -0.00000000000E+00  0.11368683772E-12  0.17120000000E+03  0.17120000000E+03 0.  0.
         13    1    1    2    0    0 -0.96866003002E+01  0.87991344569E+01  0.80755430288E+01  0.15377924171E+02  0.10566000000E+00 0. -1.
        994    1    1    2    0    0  0.80489860511E+01 -0.85001392149E+01  0.79194110640E+01  0.17178240776E+03  0.17120000000E+03 0.  0.
        998    1    1    2    0    0  0.16376142491E+01 -0.29899524201E+00  0.14840050422E+04  0.14840396681E+04  0.10000000000E+02 0. -1.
</event>
<event>
 5    1  0.1271464E-008  0.3773993E+03  0.7957747E-01  0.3462561E+00
         13   -1    0    0    0    0  0.00000000000E+00  0.00000000000E+00  0.14999999963E+04  0.15000000000E+04  0.10566000000E+00 0. -1.
        994   -1    0    0    0    0 -0.00000000000E+00 -0.00000000000E+00  0.11368683772E-12  0.17120000000E+03  0.17120000000E+03 0.  0.
         13    1    1    2    0    0 -0.39092046281E+02 -0.26199334072E+02  0.21792589788E+03  0.22294910029E+03  0.10566000000E+00 0. -1.
        994    1    1    2    0    0  0.13836260175E+02  0.74362161902E+01  0.62842007695E+01  0.17203392278E+03  0.17120000000E+03 0.  0.
        998    1    1    2    0    0  0.25255786107E+02  0.18763117882E+02  0.12757898976E+04  0.12762169769E+04  0.10000000000E+02 0. -1.
</event>
<event>
 5    1  0.1271464E-008  0.3856941E+03  0.7957747E-01  0.3426734E+00
         13   -1    0    0    0    0  0.00000000000E+00  0.00000000000E+00  0.14999999963E+04  0.15000000000E+04  0.10566000000E+00 0.  1.
        994   -1    0    0    0    0 -0.00000000000E+00 -0.00000000000E+00  0.11368683772E-12  0.17120000000E+03  0.17120000000E+03 0.  0.
         13    1    1    2    0    0 -0.51282020934E+01  0.98241979870E+01  0.47358572147E+02  0.48638039050E+02  0.10566000000E+00 0.  1.
        994    1    1    2    0    0  0.24242703463E+01 -0.99651467244E+01  0.16311169500E+01  0.17151466928E+03  0.17120000000E+03 0.  0.
        998    1    1    2    0    0  0.27039317471E+01  0.14094873737E+00  0.14510103072E+04  0.14510472917E+04  0.10000000000E+02 0.  1.
</event>
<event>
 5    1  0.1271464E-008  0.3854067E+03  0.7957747E-01  0.3427949E+00
         13   -1    0    0    0    0  0.00000000000E+00  0.00000000000E+00  0.14999999963E+04  0.15000000000E+04  0.10566000000E+00 0. -1.
        994   -1    0    0    0    0 -0.00000000000E+00 -0.00000000000E+00  0.11368683772E-12  0.17120000000E+03  0.17120000000E+03 0.  0.
         13    1    1    2    0    0  0.29873149141E+01  0.12125949900E+02  0.55845921771E+02  0.57225351497E+02  0.10566000000E+00 0. -1.
        994    1    1    2    0    0  0.63973359061E+01 -0.71309681325E+01  0.17298205393E+01  0.17147655493E+03  0.17120000000E+03 0.  0.
        998    1    1    2    0    0 -0.93846508203E+01 -0.49949817677E+01  0.14424242540E+04  0.14424980936E+04  0.10000000000E+02 0. -1.
</event>
<event>
 5    1  0.1271464E-008  0.3820344E+03  0.7957747E-01  0.3442348E+00
         13   -1    0    0    0    0  0.00000000000E+00  0.00000000000E+00  0.14999999963E+04  0.15000000000E+04  0.10566000000E+00 0.  1.
        994   -1    0    0    0    0 -0.00000000000E+00 -0.00000000000E+00  0.11368683772E-12  0.17120000000E+03  0.17120000000E+03 0.  0.
         13    1    1    2    0    0  0.36437329353E+01  0.15923745310E+02  0.44025060973E+02  0.46958062269E+02  0.10566000000E+00 0.  1.
        994    1    1    2    0    0  0.73620630366E+01  0.32064488911E+00  0.32900248896E+01  0.17139010196E+03  0.17120000000E+03 0.  0.
        998    1    1    2    0    0 -0.11005795972E+02 -0.16244390199E+02  0.14526849104E+04  0.14528518358E+04  0.10000000000E+02 0.  1.
</event>
<event>
 5    1  0.1271464E-008  0.3829733E+03  0.7957747E-01  0.3438313E+00
         13   -1    0    0    0    0  0.00000000000E+00  0.00000000000E+00  0.14999999963E+04  0.15000000000E+04  0.10566000000E+00 0.  1.
        994   -1    0    0    0    0 -0.00000000000E+00 -0.00000000000E+00  0.11368683772E-12  0.17120000000E+03  0.17120000000E+03 0.  0.
         13    1    1    2    0    0  0.95066037695E+01  0.46236019450E+01  0.20178379594E+02  0.22780065348E+02  0.10566000000E+00 0.  1.
        994    1    1    2    0    0 -0.66539779026E+01 -0.35571606119E+01  0.28281936578E+01  0.17138951979E+03  0.17120000000E+03 0.  0.
        998    1    1    2    0    0 -0.28526258669E+01 -0.10664413331E+01  0.14769934230E+04  0.14770304149E+04  0.10000000000E+02 0.  1.
</event>
<event>
 5    1  0.1271464E-008  0.3833856E+03  0.7957747E-01  0.3436548E+00
         13   -1    0    0    0    0  0.00000000000E+00  0.00000000000E+00  0.14999999963E+04  0.15000000000E+04  0.10566000000E+00 0. -1.
        994   -1    0    0    0    0 -0.00000000000E+00 -0.00000000000E+00  0.11368683772E-12  0.17120000000E+03  0.17120000000E+03 0.  0.
         13    1    1    2    0    0  0.52010568517E+01  0.13868120261E+02  0.45681068135E+02  0.48022358354E+02  0.10566000000E+00 0. -1.
        994    1    1    2    0    0  0.35711822079E+00 -0.37824577851E+01  0.24815255193E+01  0.17126013106E+03  0.17120000000E+03 0.  0.
        998    1    1    2    0    0 -0.55581750725E+01 -0.10085662476E+02  0.14518374026E+04  0.14519175106E+04  0.10000000000E+02 0. -1.
</event>
<event>
 5    1  0.1271464E-008  0.3822337E+03  0.7957747E-01  0.3441490E+00
         13   -1    0    0    0    0  0.00000000000E+00  0.00000000000E+00  0.14999999963E+04  0.15000000000E+04  0.10566000000E+00 0. -1.
        994   -1    0    0    0    0 -0.00000000000E+00 -0.00000000000E+00  0.11368683772E-12  0.17120000000E+03  0.17120000000E+03 0.  0.
         13    1    1    2    0    0  0.19006770810E+02  0.27512958932E+01  0.61568685574E+02  0.64494504983E+02  0.10566000000E+00 0. -1.
        994    1    1    2    0    0 -0.75639927943E+01 -0.32090945474E+01  0.32339074263E+01  0.17142756614E+03  0.17120000000E+03 0.  0.
        998    1    1    2    0    0 -0.11442778016E+02  0.45779865426E+00  0.14351974033E+04  0.14352779289E+04  0.10000000000E+02 0. -1.
</event>
<event>
 5    1  0.1271464E-008  0.3839781E+03  0.7957747E-01  0.3434018E+00
         13   -1    0    0    0    0  0.00000000000E+00  0.00000000000E+00  0.14999999963E+04  0.15000000000E+04  0.10566000000E+00 0.  1.
        994   -1    0    0    0    0 -0.00000000000E+00 -0.00000000000E+00  0.11368683772E-12  0.17120000000E+03  0.17120000000E+03 0.  0.
         13    1    1    2    0    0 -0.63345996914E-01  0.18166851573E+02  0.74769792380E+02  0.76945250181E+02  0.10566000000E+00 0.  1.
        994    1    1    2    0    0 -0.85653115887E+01 -0.16165581736E+02  0.32434597672E+01  0.17220525726E+03  0.17120000000E+03 0.  0.
        998    1    1    2    0    0  0.86286575856E+01 -0.20012698364E+01  0.14219867441E+04  0.14220494926E+04  0.10000000000E+02 0.  1.
</event>
<event>
 5    1  0.1271464E-008  0.3809026E+03  0.7957747E-01  0.3447238E+00
         13   -1    0    0    0    0  0.00000000000E+00  0.00000000000E+00  0.14999999963E+04  0.15000000000E+04  0.10566000000E+00 0.  1.
        994   -1    0    0    0    0 -0.00000000000E+00 -0.00000000000E+00  0.11368683772E-12  0.17120000000E+03  0.17120000000E+03 0.  0.
         13    1    1    2    0    0 -0.28065057055E+01 -0.21215299022E+02  0.58633178304E+02  0.62416553484E+02  0.10566000000E+00 0.  1.
        994    1    1    2    0    0  0.31391902730E+01  0.22755606748E+02  0.54388863757E+01  0.17281982999E+03  0.17120000000E+03 0.  0.
        998    1    1    2    0    0 -0.33268456749E+00 -0.15403077262E+01  0.14359279316E+04  0.14359636165E+04  0.10000000000E+02 0.  1.
</event>
<event>
 5    1  0.1271464E-008  0.3814411E+03  0.7957747E-01  0.3444907E+00
         13   -1    0    0    0    0  0.00000000000E+00  0.00000000000E+00  0.14999999963E+04  0.15000000000E+04  0.10566000000E+00 0.  1.
        994   -1    0    0    0    0 -0.00000000000E+00 -0.00000000000E+00  0.11368683772E-12  0.17120000000E+03  0.17120000000E+03 0.  0.
         13    1    1    2    0    0  0.12808999803E+02 -0.63739679501E-01  0.23105962528E+02  0.26419144707E+02  0.10566000000E+00 0.  1.
        994    1    1    2    0    0 -0.34027910195E+01 -0.15315204561E+02  0.42267631502E+01  0.17196929960E+03  0.17120000000E+03 0.  0.
        998    1    1    2    0    0 -0.94062087834E+01  0.15378944240E+02  0.14726672706E+04  0.14728115557E+04  0.10000000000E+02 0.  1.
</event>
<event>
 5    1  0.1271464E-008  0.3705384E+03  0.7957747E-01  0.3493420E+00
         13   -1    0    0    0    0  0.00000000000E+00  0.00000000000E+00  0.14999999963E+04  0.15000000000E+04  0.10566000000E+00 0.  1.
        994   -1    0    0    0    0 -0.00000000000E+00 -0.00000000000E+00  0.11368683772E-12  0.17120000000E+03  0.17120000000E+03 0.  0.
         13    1    1    2    0    0 -0.17087473433E+02  0.57866089509E+02  0.12883021015E+03  0.14225927132E+03  0.10566000000E+00 0.  1.
        994    1    1    2    0    0  0.54650429380E+02 -0.77222269273E+02  0.43267201767E+02  0.20032832813E+03  0.17120000000E+03 0.  0.
        998    1    1    2    0    0 -0.37562955947E+02  0.19356179764E+02  0.13279025844E+04  0.13286124006E+04  0.10000000000E+02 0.  1.
</event>
<event>
 5    1  0.1271464E-008  0.3839851E+03  0.7957747E-01  0.3433988E+00
         13   -1    0    0    0    0  0.00000000000E+00  0.00000000000E+00  0.14999999963E+04  0.15000000000E+04  0.10566000000E+00 0. -1.
        994   -1    0    0    0    0 -0.00000000000E+00 -0.00000000000E+00  0.11368683772E-12  0.17120000000E+03  0.17120000000E+03 0.  0.
         13    1    1    2    0    0  0.25210896019E+01  0.14008211967E+02  0.45756203122E+02  0.47918964758E+02  0.10566000000E+00 0. -1.
        994    1    1    2    0    0 -0.53527611349E+01 -0.14261323655E+02  0.29008133510E+01  0.17190082060E+03  0.17120000000E+03 0.  0.
        998    1    1    2    0    0  0.28316715330E+01  0.25311168762E+00  0.14513429798E+04  0.14513802146E+04  0.10000000000E+02 0. -1.
</event>
<event>
 5    1  0.1271464E-008  0.3805714E+03  0.7957747E-01  0.3448674E+00
         13   -1    0    0    0    0  0.00000000000E+00  0.00000000000E+00  0.14999999963E+04  0.15000000000E+04  0.10566000000E+00 0. -1.
        994   -1    0    0    0    0 -0.00000000000E+00 -0.00000000000E+00  0.11368683772E-12  0.17120000000E+03  0.17120000000E+03 0.  0.
         13    1    1    2    0    0  0.33737904838E+02 -0.20050871448E+02  0.19298580338E+03  0.19693606866E+03  0.10566000000E+00 0. -1.
        994    1    1    2    0    0 -0.25498924860E+02  0.96553703366E+01  0.63294548580E+01  0.17347311995E+03  0.17120000000E+03 0.  0.
        998    1    1    2    0    0 -0.82389799777E+01  0.10395501112E+02  0.13006847380E+04  0.13007908114E+04  0.10000000000E+02 0. -1.
</event>
<event>
 5    1  0.1271464E-008  0.3852941E+03  0.7957747E-01  0.3428426E+00
         13   -1    0    0    0    0  0.00000000000E+00  0.00000000000E+00  0.14999999963E+04  0.15000000000E+04  0.10566000000E+00 0. -1.
        994   -1    0    0    0    0 -0.00000000000E+00 -0.00000000000E+00  0.11368683772E-12  0.17120000000E+03  0.17120000000E+03 0.  0.
         13    1    1    2    0    0 -0.71688392368E+01  0.96795104930E+01  0.49632747720E+02  0.51073535120E+02  0.10566000000E+00 0. -1.
        994    1    1    2    0    0  0.27657170501E+01 -0.51196688970E+01  0.15954536390E+01  0.17130629198E+03  0.17120000000E+03 0.  0.
        998    1    1    2    0    0  0.44031221867E+01 -0.45598415960E+01  0.14487717949E+04  0.14488201729E+04  0.10000000000E+02 0. -1.
</event>
<event>
 5    1  0.1271464E-008  0.3806271E+03  0.7957747E-01  0.3448433E+00
         13   -1    0    0    0    0  0.00000000000E+00  0.00000000000E+00  0.14999999963E+04  0.15000000000E+04  0.10566000000E+00 0. -1.
        994   -1    0    0    0    0 -0.00000000000E+00 -0.00000000000E+00  0.11368683772E-12  0.17120000000E+03  0.17120000000E+03 0.  0.
         13    1    1    2    0    0  0.61148724717E+01  0.11099748491E+02  0.18871705216E+02  0.22732102932E+02  0.10566000000E+00 0. -1.
        994    1    1    2    0    0 -0.23646597090E+01 -0.21661546896E+02  0.54025272682E+01  0.17266569297E+03  0.17120000000E+03 0.  0.
        998    1    1    2    0    0 -0.37502127627E+01  0.10561798405E+02  0.14757257638E+04  0.14758022041E+04  0.10000000000E+02 0. -1.
</event>
<event>
 5    1  0.1611673E-008  0.3856990E+03  0.7957747E-01  0.3426713E+00
         13   -1    0    0    0    0  0.00000000000E+00  0.00000000000E+00  0.14999999963E+04  0.15000000000E+04  0.10566000000E+00 0.  1.
        994   -1    0    0    0    0 -0.00000000000E+00 -0.00000000000E+00  0.11368683772E-12  0.17120000000E+03  0.17120000000E+03 0.  0.
         13    1    1    2    0    0 -0.88112549985E+01  0.89310286930E+01  0.64859951767E+02  0.66062288754E+02  0.10566000000E+00 0.  1.
        994    1    1    2    0    0  0.44021762798E+01  0.21412190107E+01  0.13621257045E+01  0.17127539041E+03  0.17120000000E+03 0.  0.
        998    1    1    2    0    0  0.44090787187E+01 -0.11072247704E+02  0.14337779188E+04  0.14338623208E+04  0.10000000000E+02 0.  1.
</event>
<event>
 5    1  0.1271464E-008  0.3841874E+03  0.7957747E-01  0.3433126E+00
         13   -1    0    0    0    0  0.00000000000E+00  0.00000000000E+00  0.14999999963E+04  0.15000000000E+04  0.10566000000E+00 0. -1.
        994   -1    0    0    0    0 -0.00000000000E+00 -0.00000000000E+00  0.11368683772E-12  0.17120000000E+03  0.17120000000E+03 0.  0.
         13    1    1    2    0    0 -0.13667339424E+02 -0.13461437222E+02  0.86421319873E+02  0.88524923901E+02  0.10566000000E+00 0. -1.
        994    1    1    2    0    0  0.17102205980E+02  0.92147874730E+01  0.32795255989E+01  0.17232989597E+03  0.17120000000E+03 0.  0.
        998    1    1    2    0    0 -0.34348665561E+01  0.42466497488E+01  0.14102991508E+04  0.14103451801E+04  0.10000000000E+02 0. -1.
</event>
<event>
 5    1  0.1271464E-008  0.3861599E+03  0.7957747E-01  0.3424768E+00
         13   -1    0    0    0    0  0.00000000000E+00  0.00000000000E+00  0.14999999963E+04  0.15000000000E+04  0.10566000000E+00 0. -1.
        994   -1    0    0    0    0 -0.00000000000E+00 -0.00000000000E+00  0.11368683772E-12  0.17120000000E+03  0.17120000000E+03 0.  0.
         13    1    1    2    0    0 -0.13882689392E+02  0.83884069970E+01  0.87539641718E+02  0.89029739261E+02  0.10566000000E+00 0. -1.
        994    1    1    2    0    0  0.33865046353E+02 -0.50338121211E+02  0.13208831295E+02  0.18211172679E+03  0.17120000000E+03 0.  0.
        998    1    1    2    0    0 -0.19982356961E+02  0.41949714214E+02  0.13992515233E+04  0.14000585339E+04  0.10000000000E+02 0. -1.
</event>
<event>
 5    1  0.1271464E-008  0.3825442E+03  0.7957747E-01  0.3440155E+00
         13   -1    0    0    0    0  0.00000000000E+00  0.00000000000E+00  0.14999999963E+04  0.15000000000E+04  0.10566000000E+00 0.  1.
        994   -1    0    0    0    0 -0.00000000000E+00 -0.00000000000E+00  0.11368683772E-12  0.17120000000E+03  0.17120000000E+03 0.  0.
         13    1    1    2    0    0  0.16436280667E+02  0.60975970617E+01  0.50480397205E+02  0.53437942308E+02  0.10566000000E+00 0.  1.
        994    1    1    2    0    0 -0.19351714393E+02 -0.12081375922E+02  0.45815446784E+01  0.17277406937E+03  0.17120000000E+03 0.  0.
        998    1    1    2    0    0  0.29154337255E+01  0.59837788600E+01  0.14449380544E+04  0.14449879883E+04  0.10000000000E+02 0.  1.
</event>
<event>
 5    1  0.1271464E-008  0.3806373E+03  0.7957747E-01  0.3448388E+00
         13   -1    0    0    0    0  0.00000000000E+00  0.00000000000E+00  0.14999999963E+04  0.15000000000E+04  0.10566000000E+00 0. -1.
        994   -1    0    0    0    0 -0.00000000000E+00 -0.00000000000E+00  0.11368683772E-12  0.17120000000E+03  0.17120000000E+03 0.  0.
         13    1    1    2    0    0 -0.20286819950E+02  0.17720162214E+01  0.50251365900E+01  0.20975182167E+02  0.10566000000E+00 0. -1.
        994    1    1    2    0    0  0.17828665007E+02 -0.85757713226E+00  0.17835783957E+02  0.17304956493E+03  0.17120000000E+03 0.  0.
        998    1    1    2    0    0  0.24581549422E+01 -0.91443908913E+00  0.14771390757E+04  0.14771752529E+04  0.10000000000E+02 0. -1.
</event>
<event>
 5    1  0.1271464E-008  0.3766521E+03  0.7957747E-01  0.3465867E+00
         13   -1    0    0    0    0  0.00000000000E+00  0.00000000000E+00  0.14999999963E+04  0.15000000000E+04  0.10566000000E+00 0.  1.
        994   -1    0    0    0    0 -0.00000000000E+00 -0.00000000000E+00  0.11368683772E-12  0.17120000000E+03  0.17120000000E+03 0.  0.
         13    1    1    2    0    0  0.35691245729E+02  0.32603854134E+02  0.17721632993E+03  0.18369135822E+03  0.10566000000E+00 0.  1.
        994    1    1    2    0    0 -0.43529359413E+02 -0.22770939521E+02  0.14034570794E+02  0.17866093584E+03  0.17120000000E+03 0.  0.
        998    1    1    2    0    0  0.78381136838E+01 -0.98329146128E+01  0.13087490956E+04  0.13088477059E+04  0.10000000000E+02 0.  1.
</event>
<event>
 5    1  0.1271464E-008  0.3752250E+03  0.7957747E-01  0.3472217E+00
         13   -1    0    0    0    0  0.00000000000E+00  0.00000000000E+00  0.14999999963E+04  0.15000000000E+04  0.10566000000E+00 0. -1.
        994   -1    0    0    0    0 -0.00000000000E+00 -0.00000000000E+00  0.11368683772E-12  0.17120000000E+03  0.17120000000E+03 0.  0.
         13    1    1    2    0    0  0.12778586154E+02  0.10115930179E+03  0.59069564467E+03  0.59943127413E+03  0.10566000000E+00 0. -1.
        994    1    1    2    0    0 -0.16475315468E+02 -0.11094684651E+02  0.15134924095E+02  0.17301165849E+03  0.17120000000E+03 0.  0.
        998    1    1    2    0    0  0.36967293142E+01 -0.90064617139E+02  0.89416942751E+03  0.89875706738E+03  0.10000000000E+02 0. -1.
</event>
<event>
 5    1  0.1271464E-008  0.3890212E+03  0.7957747E-01  0.3412795E+00
         13   -1    0    0    0    0  0.00000000000E+00  0.00000000000E+00  0.14999999963E+04  0.15000000000E+04  0.10566000000E+00 0. -1.
        994   -1    0    0    0    0 -0.00000000000E+00 -0.00000000000E+00  0.11368683772E-12  0.17120000000E+03  0.17120000000E+03 0.  0.
         13    1    1    2    0    0  0.13434986710E+02 -0.91035401703E+01 -0.35120695760E+01  0.16604791726E+02  0.10566000000E+00 0. -1.
        994    1    1    2    0    0 -0.12269315631E+02  0.11402969956E+02  0.22425996513E+02  0.17347313668E+03  0.17120000000E+03 0.  0.
        998    1    1    2    0    0 -0.11656710787E+01 -0.22994297859E+01  0.14810860693E+04  0.14811220716E+04  0.10000000000E+02 0. -1.
</event>
<event>
 5    1  0.1271464E-008  0.3833283E+03  0.7957747E-01  0.3436793E+00
         13   -1    0    0    0    0  0.00000000000E+00  0.00000000000E+00  0.14999999963E+04  0.15000000000E+04  0.10566000000E+00 0. -1.
        994   -1    0    0    0    0 -0.00000000000E+00 -0.00000000000E+00  0.11368683772E-12  0.17120000000E+03  0.17120000000E+03 0.  0.
         13    1    1    2    0    0 -0.30103820734E+02  0.86352617313E+01  0.17505521262E+03  0.17783460405E+03  0.10566000000E+00 0. -1.
        994    1    1    2    0    0  0.28895745652E+02 -0.20557469377E+02  0.66317524189E+01  0.17495997772E+03  0.17120000000E+03 0.  0.
        998    1    1    2    0    0  0.12080750816E+01  0.11922207646E+02  0.13183130312E+04  0.13184054182E+04  0.10000000000E+02 0. -1.
</event>
<event>
 5    1  0.1271464E-008  0.3842699E+03  0.7957747E-01  0.3432775E+00
         13   -1    0    0    0    0  0.00000000000E+00  0.00000000000E+00  0.14999999963E+04  0.15000000000E+04  0.10566000000E+00 0.  1.
        994   -1    0    0    0    0 -0.00000000000E+00 -0.00000000000E+00  0.11368683772E-12  0.17120000000E+03  0.17120000000E+03 0.  0.
         13    1    1    2    0    0  0.18092031288E+01 -0.16223783515E+02  0.73405812462E+02  0.75199127886E+02  0.10566000000E+00 0.  1.
        994    1    1    2    0    0 -0.86179018769E+01 -0.60545851266E+01  0.23587972930E+01  0.17153987921E+03  0.17120000000E+03 0.  0.
        998    1    1    2    0    0  0.68086987480E+01  0.22278368641E+02  0.14242353865E+04  0.14244609929E+04  0.10000000000E+02 0.  1.
</event>
<event>
 5    1  0.1271464E-008  0.3806792E+03  0.7957747E-01  0.3448207E+00
         13   -1    0    0    0    0  0.00000000000E+00  0.00000000000E+00  0.14999999963E+04  0.15000000000E+04  0.10566000000E+00 0. -1.
        994   -1    0    0    0    0 -0.00000000000E+00 -0.00000000000E+00  0.11368683772E-12  0.17120000000E+03  0.17120000000E+03 0.  0.
         13    1    1    2    0    0  0.12328220700E+02  0.30310695622E+01  0.19816097633E+02  0.23534257961E+02  0.10566000000E+00 0. -1.
        994    1    1    2    0    0 -0.63381038012E+01 -0.23370435250E+01  0.39429286447E+01  0.17137858681E+03  0.17120000000E+03 0.  0.
        998    1    1    2    0    0 -0.59901168990E+01 -0.69402603714E+00  0.14762409700E+04  0.14762871552E+04  0.10000000000E+02 0. -1.
</event>
<event>
 5    1  0.1271464E-008  0.3786957E+03  0.7957747E-01  0.3456857E+00
         13   -1    0    0    0    0  0.00000000000E+00  0.00000000000E+00  0.14999999963E+04  0.15000000000E+04  0.10566000000E+00 0. -1.
        994   -1    0    0    0    0 -0.00000000000E+00 -0.00000000000E+00  0.11368683772E-12  0.17120000000E+03  0.17120000000E+03 0.  0.
         13    1    1    2    0    0 -0.27890349908E+02  0.10926234434E+01  0.10573512939E+03  0.10935718630E+03  0.10566000000E+00 0. -1.
        994    1    1    2    0    0 -0.38328078584E+02 -0.21004080272E+02  0.11233214541E+02  0.17704755888E+03  0.17120000000E+03 0.  0.
        998    1    1    2    0    0  0.66218428492E+02  0.19911456828E+02  0.13830316523E+04  0.13847952548E+04  0.10000000000E+02 0. -1.
</event>
<event>
 5    1  0.1271464E-008  0.3814598E+03  0.7957747E-01  0.3444827E+00
         13   -1    0    0    0    0  0.00000000000E+00  0.00000000000E+00  0.14999999963E+04  0.15000000000E+04  0.10566000000E+00 0. -1.
        994   -1    0    0    0    0 -0.00000000000E+00 -0.00000000000E+00  0.11368683772E-12  0.17120000000E+03  0.17120000000E+03 0.  0.
         13    1    1    2    0    0  0.12773600559E+02 -0.41871430000E+01  0.25730718033E+02  0.29030639887E+02  0.10566000000E+00 0. -1.
        994    1    1    2    0    0 -0.28859208605E+01  0.20721333802E+01  0.34400782326E+01  0.17127141155E+03  0.17120000000E+03 0.  0.
        998    1    1    2    0    0 -0.98876796986E+01  0.21150096198E+01  0.14708292000E+04  0.14708979486E+04  0.10000000000E+02 0. -1.
</event>
<event>
 5    1  0.1271464E-008  0.3785761E+03  0.7957747E-01  0.3457382E+00
         13   -1    0    0    0    0  0.00000000000E+00  0.00000000000E+00  0.14999999963E+04  0.15000000000E+04  0.10566000000E+00 0.  1.
        994   -1    0    0    0    0 -0.00000000000E+00 -0.00000000000E+00  0.11368683772E-12  0.17120000000E+03  0.17120000000E+03 0.  0.
         13    1    1    2    0    0  0.74523682628E+02 -0.56255435476E+02  0.49420313414E+03  0.50294652027E+03  0.10566000000E+00 0.  1.
        994    1    1    2    0    0 -0.81982286517E+02  0.70879793427E+02  0.45372853947E+02  0.20763712648E+03  0.17120000000E+03 0.  0.
        998    1    1    2    0    0  0.74586038883E+01 -0.14624357950E+02  0.96042400819E+03  0.96061635325E+03  0.10000000000E+02 0. -1.
</event>
<event>
 5    1  0.1271464E-008  0.3795480E+03  0.7957747E-01  0.3453129E+00
         13   -1    0    0    0    0  0.00000000000E+00  0.00000000000E+00  0.14999999963E+04  0.15000000000E+04  0.10566000000E+00 0. -1.
        994   -1    0    0    0    0 -0.00000000000E+00 -0.00000000000E+00  0.11368683772E-12  0.17120000000E+03  0.17120000000E+03 0.  0.
         13    1    1    2    0    0 -0.73542942023E+01 -0.12096880970E+02  0.20860928043E+02  0.25211300151E+02  0.10566000000E+00 0. -1.
        994    1    1    2    0    0  0.11422103068E+02  0.10765813188E+02  0.51867531590E+01  0.17199624874E+03  0.17120000000E+03 0.  0.
        998    1    1    2    0    0 -0.40678088660E+01  0.13310677819E+01  0.14739523151E+04  0.14739924511E+04  0.10000000000E+02 0. -1.
</event>
<event>
 5    1  0.1271464E-008  0.3766562E+03  0.7957747E-01  0.3465848E+00
         13   -1    0    0    0    0  0.00000000000E+00  0.00000000000E+00  0.14999999963E+04  0.15000000000E+04  0.10566000000E+00 0.  1.
        994   -1    0    0    0    0 -0.00000000000E+00 -0.00000000000E+00  0.11368683772E-12  0.17120000000E+03  0.17120000000E+03 0.  0.
         13    1    1    2    0    0  0.41694016901E+02  0.47943836059E+02  0.25847932156E+03  0.26617395308E+03  0.10566000000E+00 0.  1.
        994    1    1    2    0    0 -0.75659524022E+02 -0.37956563749E+02  0.30448183239E+02  0.19339492281E+03  0.17120000000E+03 0.  0.
        998    1    1    2    0    0  0.33965507120E+02 -0.99872723101E+01  0.12110724915E+04  0.12116311241E+04  0.10000000000E+02 0.  1.
</event>
<event>
 5    1  0.1271464E-008  0.3832220E+03  0.7957747E-01  0.3437248E+00
         13   -1    0    0    0    0  0.00000000000E+00  0.00000000000E+00  0.14999999963E+04  0.15000000000E+04  0.10566000000E+00 0.  1.
        994   -1    0    0    0    0 -0.00000000000E+00 -0.00000000000E+00  0.11368683772E-12  0.17120000000E+03  0.17120000000E+03 0.  0.
         13    1    1    2    0    0 -0.64225528376E+01  0.12592411749E+02  0.38590275060E+02  0.41097913716E+02  0.10566000000E+00 0.  1.
        994    1    1    2    0    0  0.77493819615E+01 -0.92495025550E+01  0.29972479503E+01  0.17165089488E+03  0.17120000000E+03 0.  0.
        998    1    1    2    0    0 -0.13268291239E+01 -0.33429091939E+01  0.14584124733E+04  0.14584511914E+04  0.10000000000E+02 0.  1.
</event>
<event>
 5    1  0.1271464E-008  0.3860408E+03  0.7957747E-01  0.3425270E+00
         13   -1    0    0    0    0  0.00000000000E+00  0.00000000000E+00  0.14999999963E+04  0.15000000000E+04  0.10566000000E+00 0.  1.
        994   -1    0    0    0    0 -0.00000000000E+00 -0.00000000000E+00  0.11368683772E-12  0.17120000000E+03  0.17120000000E+03 0.  0.
         13    1    1    2    0    0  0.25104906484E+03  0.76143673408E+02  0.11351184546E+04  0.11650396599E+04  0.10566000000E+00 0.  1.
        994    1    1    2    0    0 -0.25689916456E+03 -0.83551467234E+02  0.29553476032E+03  0.43546327398E+03  0.17120000000E+03 0.  0.
        998    1    1    2    0    0  0.58500997134E+01  0.74077938258E+01  0.69346781326E+02  0.70697066108E+02  0.10000000000E+02 0.  1.
</event>
<event>
 5    1  0.1271464E-008  0.3828894E+03  0.7957747E-01  0.3438673E+00
         13   -1    0    0    0    0  0.00000000000E+00  0.00000000000E+00  0.14999999963E+04  0.15000000000E+04  0.10566000000E+00 0.  1.
        994   -1    0    0    0    0 -0.00000000000E+00 -0.00000000000E+00  0.11368683772E-12  0.17120000000E+03  0.17120000000E+03 0.  0.
         13    1    1    2    0    0  0.12861957790E+02 -0.69988995732E+01  0.40339071081E+02  0.42914640545E+02  0.10566000000E+00 0.  1.
        994    1    1    2    0    0 -0.57215226438E+01 -0.57112971447E+01  0.28980990081E+01  0.17141526686E+03  0.17120000000E+03 0.  0.
        998    1    1    2    0    0 -0.71404351465E+01  0.12710196718E+02  0.14567628262E+04  0.14568700926E+04  0.10000000000E+02 0.  1.
</event>
<event>
 5    1  0.1271464E-008  0.3834697E+03  0.7957747E-01  0.3436189E+00
         13   -1    0    0    0    0  0.00000000000E+00  0.00000000000E+00  0.14999999963E+04  0.15000000000E+04  0.10566000000E+00 0.  1.
        994   -1    0    0    0    0 -0.00000000000E+00 -0.00000000000E+00  0.11368683772E-12  0.17120000000E+03  0.17120000000E+03 0.  0.
         13    1    1    2    0    0 -0.20869899461E+01  0.59623373755E+02  0.29331043122E+03  0.29931642530E+03  0.10566000000E+00 0.  1.
        994    1    1    2    0    0  0.24303539244E+02 -0.12666317523E+03  0.59460587208E+02  0.22243925780E+03  0.17120000000E+03 0.  0.
        998    1    1    2    0    0 -0.22216549297E+02  0.67039801476E+02  0.11472289778E+04  0.11494443169E+04  0.10000000000E+02 0.  1.
</event>
<event>
 5    1  0.1271464E-008  0.3852394E+03  0.7957747E-01  0.3428658E+00
         13   -1    0    0    0    0  0.00000000000E+00  0.00000000000E+00  0.14999999963E+04  0.15000000000E+04  0.10566000000E+00 0. -1.
        994   -1    0    0    0    0 -0.00000000000E+00 -0.00000000000E+00  0.11368683772E-12  0.17120000000E+03  0.17120000000E+03 0.  0.
         13    1    1    2    0    0 -0.14834249418E+02  0.96774638618E+01  0.10004796608E+03  0.10160371521E+03  0.10566000000E+00 0. -1.
        994    1    1    2    0    0  0.14455075674E+02 -0.73917491447E+01  0.23779816404E+01  0.17198453990E+03  0.17120000000E+03 0.  0.
        998    1    1    2    0    0  0.37917374379E+00 -0.22857147171E+01  0.13975740486E+04  0.13976117449E+04  0.10000000000E+02 0. -1.
</event>
<event>
 5    1  0.1271464E-008  0.3724268E+03  0.7957747E-01  0.3484812E+00
         13   -1    0    0    0    0  0.00000000000E+00  0.00000000000E+00  0.14999999963E+04  0.15000000000E+04  0.10566000000E+00 0. -1.
        994   -1    0    0    0    0 -0.00000000000E+00 -0.00000000000E+00  0.11368683772E-12  0.17120000000E+03  0.17120000000E+03 0.  0.
         13    1    1    2    0    0 -0.80807279361E+02 -0.80927347887E+02  0.51078864397E+03  0.52343490713E+03  0.10566000000E+00 0. -1.
        994    1    1    2    0    0  0.81791910219E+02  0.82269621508E+02  0.55665471857E+02  0.21416417057E+03  0.17120000000E+03 0.  0.
        998    1    1    2    0    0 -0.98463085821E+00 -0.13422736210E+01  0.93354588045E+03  0.93360092230E+03  0.10000000000E+02 0.  0.
</event>
<event>
 5    1  0.1271464E-008  0.3789061E+03  0.7957747E-01  0.3455936E+00
         13   -1    0    0    0    0  0.00000000000E+00  0.00000000000E+00  0.14999999963E+04  0.15000000000E+04  0.10566000000E+00 0.  1.
        994   -1    0    0    0    0 -0.00000000000E+00 -0.00000000000E+00  0.11368683772E-12  0.17120000000E+03  0.17120000000E+03 0.  0.
         13    1    1    2    0    0  0.65491276849E+02  0.72038540778E+01  0.27431823475E+03  0.28211966953E+03  0.10566000000E+00 0.  1.
        994    1    1    2    0    0 -0.10339406248E+03 -0.17032428963E+02  0.42455597386E+02  0.20516421116E+03  0.17120000000E+03 0.  0.
        998    1    1    2    0    0  0.37902785628E+02  0.98285748855E+01  0.11832261641E+04  0.11839161193E+04  0.10000000000E+02 0.  1.
</event>
<event>
 5    1  0.1271464E-008  0.3773686E+03  0.7957747E-01  0.3462697E+00
         13   -1    0    0    0    0  0.00000000000E+00  0.00000000000E+00  0.14999999963E+04  0.15000000000E+04  0.10566000000E+00 0. -1.
        994   -1    0    0    0    0 -0.00000000000E+00 -0.00000000000E+00  0.11368683772E-12  0.17120000000E+03  0.17120000000E+03 0.  0.
         13    1    1    2    0    0  0.78831793506E+01 -0.14270317766E+02  0.21991864448E+02  0.27375897278E+02  0.10566000000E+00 0. -1.
        994    1    1    2    0    0 -0.82591175058E+01  0.85723690018E+01  0.59453647432E+01  0.17171629478E+03  0.17120000000E+03 0.  0.
        998    1    1    2    0    0  0.37593815514E+00  0.56979487641E+01  0.14720627671E+04  0.14721078079E+04  0.10000000000E+02 0. -1.
</event>
<event>
 5    1  0.1271464E-008  0.3721201E+03  0.7957747E-01  0.3486204E+00
         13   -1    0    0    0    0  0.00000000000E+00  0.00000000000E+00  0.14999999963E+04  0.15000000000E+04  0.10566000000E+00 0. -1.
        994   -1    0    0    0    0 -0.00000000000E+00 -0.00000000000E+00  0.11368683772E-12  0.17120000000E+03  0.17120000000E+03 0.  0.
         13    1    1    2    0    0  0.11581779359E+02 -0.44429197956E+01  0.76715939104E+00  0.12428871509E+02  0.10566000000E+00 0. -1.
        994    1    1    2    0    0 -0.12407725470E+02  0.22675849625E+01  0.12624786243E+02  0.17212762364E+03  0.17120000000E+03 0.  0.
        998    1    1    2    0    0  0.82594611099E+00  0.21753348331E+01  0.14866080506E+04  0.14866435048E+04  0.10000000000E+02 0. -1.
</event>
<event>
 5    1  0.1271464E-008  0.3842652E+03  0.7957747E-01  0.3432794E+00
         13   -1    0    0    0    0  0.00000000000E+00  0.00000000000E+00  0.14999999963E+04  0.15000000000E+04  0.10566000000E+00 0. -1.
        994   -1    0    0    0    0 -0.00000000000E+00 -0.00000000000E+00  0.11368683772E-12  0.17120000000E+03  0.17120000000E+03 0.  0.
         13    1    1    2    0    0 -0.22650326057E+02 -0.18649428122E+01  0.10623701215E+03  0.10864082656E+03  0.10566000000E+00 0. -1.
        994    1    1    2    0    0  0.41713397947E+02 -0.95009183803E+00  0.77555134388E+01  0.17638168338E+03  0.17120000000E+03 0.  0.
        998    1    1    2    0    0 -0.19063071890E+02  0.28150346503E+01  0.13860074707E+04  0.13861774901E+04  0.10000000000E+02 0. -1.
</event>
<event>
 5    1  0.1271464E-008  0.3691108E+03  0.7957747E-01  0.3499987E+00
         13   -1    0    0    0    0  0.00000000000E+00  0.00000000000E+00  0.14999999963E+04  0.15000000000E+04  0.10566000000E+00 0.  1.
        994   -1    0    0    0    0 -0.00000000000E+00 -0.00000000000E+00  0.11368683772E-12  0.17120000000E+03  0.17120000000E+03 0.  0.
         13    1    1    2    0    0 -0.14201191528E+03 -0.51592796350E+02  0.70419574990E+03  0.72022278919E+03  0.10566000000E+00 0.  1.
        994    1    1    2    0    0  0.12632899523E+03  0.33049661775E+02  0.72496231453E+02  0.22719251474E+03  0.17120000000E+03 0.  0.
        998    1    1    2    0    0  0.15682920045E+02  0.18543134575E+02  0.72330801492E+03  0.72378469607E+03  0.10000000000E+02 0.  1.
</event>
<event>
 5    1  0.1271464E-008  0.3784166E+03  0.7957747E-01  0.3458082E+00
         13   -1    0    0    0    0  0.00000000000E+00  0.00000000000E+00  0.14999999963E+04  0.15000000000E+04  0.10566000000E+00 0. -1.
        994   -1    0    0    0    0 -0.00000000000E+00 -0.00000000000E+00  0.11368683772E-12  0.17120000000E+03  0.17120000000E+03 0.  0.
         13    1    1    2    0    0  0.72630069771E+01  0.97580744987E+01  0.12992189380E+02  0.17798298716E+02  0.10566000000E+00 0. -1.
        994    1    1    2    0    0 -0.85002152266E+01  0.24130951028E+01  0.51969808505E+01  0.17150663339E+03  0.17120000000E+03 0.  0.
        998    1    1    2    0    0  0.12372082495E+01 -0.12171169601E+02  0.14818108260E+04  0.14818950679E+04  0.10000000000E+02 0. -1.
</event>
<event>
 5    1  0.1271464E-008  0.3789513E+03  0.7957747E-01  0.3455738E+00
         13   -1    0    0    0    0  0.00000000000E+00  0.00000000000E+00  0.14999999963E+04  0.15000000000E+04  0.10566000000E+00 0. -1.
        994   -1    0    0    0    0 -0.00000000000E+00 -0.00000000000E+00  0.11368683772E-12  0.17120000000E+03  0.17120000000E+03 0.  0.
         13    1    1    2    0    0  0.10448951933E+03  0.19506126027E+03  0.10880430576E+04  0.11103173696E+04  0.10566000000E+00 0. -1.
        994    1    1    2    0    0 -0.99544644450E+02 -0.19085915825E+03  0.18018549357E+03  0.32880481539E+03  0.17120000000E+03 0.  0.
        998    1    1    2    0    0 -0.49448748777E+01 -0.42021020138E+01  0.23177144507E+03  0.23207781497E+03  0.10000000000E+02 0.  1.
</event>
<event>
 5    1  0.1271464E-008  0.3829323E+03  0.7957747E-01  0.3438489E+00
         13   -1    0    0    0    0  0.00000000000E+00  0.00000000000E+00  0.14999999963E+04  0.15000000000E+04  0.10566000000E+00 0. -1.
        994   -1    0    0    0    0 -0.00000000000E+00 -0.00000000000E+00  0.11368683772E-12  0.17120000000E+03  0.17120000000E+03 0.  0.
         13    1    1    2    0    0  0.44549065797E+01  0.10016965357E+02  0.21389881379E+02  0.24035889354E+02  0.10566000000E+00 0. -1.
        994    1    1    2    0    0  0.93323765660E+01 -0.16072281361E+02  0.38046438737E+01  0.17224786441E+03  0.17120000000E+03 0.  0.
        998    1    1    2    0    0 -0.13787283146E+02  0.60553160043E+01  0.14748054710E+04  0.14749162462E+04  0.10000000000E+02 0. -1.
</event>
<event>
 5    1  0.1271464E-008  0.3848484E+03  0.7957747E-01  0.3430316E+00
         13   -1    0    0    0    0  0.00000000000E+00  0.00000000000E+00  0.14999999963E+04  0.15000000000E+04  0.10566000000E+00 0.  1.
        994   -1    0    0    0    0 -0.00000000000E+00 -0.00000000000E+00  0.11368683772E-12  0.17120000000E+03  0.17120000000E+03 0.  0.
         13    1    1    2    0    0  0.81508979279E+01  0.10003540577E+02  0.51127607357E+02  0.52730933608E+02  0.10566000000E+00 0.  1.
        994    1    1    2    0    0 -0.93043554694E+01  0.76246919316E+01  0.21817106732E+01  0.17163597181E+03  0.17120000000E+03 0.  0.
        998    1    1    2    0    0  0.11534575415E+01 -0.17628232509E+02  0.14466906782E+04  0.14468330946E+04  0.10000000000E+02 0.  1.
</event>
<event>
 5    1  0.1271464E-008  0.3784149E+03  0.7957747E-01  0.3458089E+00
         13   -1    0    0    0    0  0.00000000000E+00  0.00000000000E+00  0.14999999963E+04  0.15000000000E+04  0.10566000000E+00 0.  1.
        994   -1    0    0    0    0 -0.00000000000E+00 -0.00000000000E+00  0.11368683772E-12  0.17120000000E+03  0.17120000000E+03 0.  0.
         13    1    1    2    0    0  0.93046685495E+00 -0.16605730796E+02  0.26487220340E+02  0.31276190133E+02  0.10566000000E+00 0.  1.
        994    1    1    2    0    0  0.42964866889E+01  0.49043312150E+01  0.50783002764E+01  0.17139936230E+03  0.17120000000E+03 0.  0.
        998    1    1    2    0    0 -0.52269535438E+01  0.11701399581E+02  0.14684344757E+04  0.14685244476E+04  0.10000000000E+02 0.  1.
</event>
<event>
 5    1  0.1271464E-008  0.3850194E+03  0.7957747E-01  0.3429590E+00
         13   -1    0    0    0    0  0.00000000000E+00  0.00000000000E+00  0.14999999963E+04  0.15000000000E+04  0.10566000000E+00 0.  1.
        994   -1    0    0    0    0 -0.00000000000E+00 -0.00000000000E+00  0.11368683772E-12  0.17120000000E+03  0.17120000000E+03 0.  0.
         13    1    1    2    0    0  0.16486463293E+02 -0.75884152851E+01  0.91387615318E+02  0.93172393529E+02  0.10566000000E+00 0.  1.
        994    1    1    2    0    0 -0.14128456936E+02  0.34062674945E+02  0.61052139042E+01  0.17523296709E+03  0.17120000000E+03 0.  0.
        998    1    1    2    0    0 -0.23580063569E+01 -0.26474259660E+02  0.14025071671E+04  0.14027946394E+04  0.10000000000E+02 0.  1.
</event>
<event>
 5    1  0.1271464E-008  0.3834834E+03  0.7957747E-01  0.3436130E+00
         13   -1    0    0    0    0  0.00000000000E+00  0.00000000000E+00  0.14999999963E+04  0.15000000000E+04  0.10566000000E+00 0. -1.
        994   -1    0    0    0    0 -0.00000000000E+00 -0.00000000000E+00  0.11368683772E-12  0.17120000000E+03  0.17120000000E+03 0.  0.
         13    1    1    2    0    0  0.89880702453E+01  0.59875626320E+01  0.23857501951E+02  0.26188315647E+02  0.10566000000E+00 0. -1.
        994    1    1    2    0    0 -0.24845305044E+01 -0.51175940657E+01  0.24919624806E+01  0.17131261640E+03  0.17120000000E+03 0.  0.
        998    1    1    2    0    0 -0.65035397409E+01 -0.86996856636E+00  0.14736505318E+04  0.14736990680E+04  0.10000000000E+02 0. -1.
</event>
<event>
 5    1  0.1271464E-008  0.3825550E+03  0.7957747E-01  0.3440108E+00
         13   -1    0    0    0    0  0.00000000000E+00  0.00000000000E+00  0.14999999963E+04  0.15000000000E+04  0.10566000000E+00 0. -1.
        994   -1    0    0    0    0 -0.00000000000E+00 -0.00000000000E+00  0.11368683772E-12  0.17120000000E+03  0.17120000000E+03 0.  0.
         13    1    1    2    0    0 -0.87033274307E+01  0.67722901221E+01  0.19690086871E+02  0.22568174647E+02  0.10566000000E+00 0. -1.
        994    1    1    2    0    0  0.29504798590E+01 -0.23943671576E+02  0.47805991888E+01  0.17295750596E+03  0.17120000000E+03 0.  0.
        998    1    1    2    0    0  0.57528475717E+01  0.17171381454E+02  0.14755293102E+04  0.14756743194E+04  0.10000000000E+02 0. -1.
</event>
<event>
 5    1  0.1271464E-008  0.3798478E+03  0.7957747E-01  0.3451822E+00
         13   -1    0    0    0    0  0.00000000000E+00  0.00000000000E+00  0.14999999963E+04  0.15000000000E+04  0.10566000000E+00 0. -1.
        994   -1    0    0    0    0 -0.00000000000E+00 -0.00000000000E+00  0.11368683772E-12  0.17120000000E+03  0.17120000000E+03 0.  0.
         13    1    1    2    0    0  0.78596229944E+01 -0.32833427772E+02  0.12743302733E+03  0.13182941732E+03  0.10566000000E+00 0. -1.
        994    1    1    2    0    0 -0.73805875417E+01  0.27806116853E+02  0.69831132768E+01  0.17374077552E+03  0.17120000000E+03 0.  0.
        998    1    1    2    0    0 -0.47903545266E+00  0.50273109190E+01  0.13655838557E+04  0.13656298072E+04  0.10000000000E+02 0.  0.
</event>
<event>
 5    1  0.1271464E-008  0.3830939E+03  0.7957747E-01  0.3437797E+00
         13   -1    0    0    0    0  0.00000000000E+00  0.00000000000E+00  0.14999999963E+04  0.15000000000E+04  0.10566000000E+00 0.  1.
        994   -1    0    0    0    0 -0.00000000000E+00 -0.00000000000E+00  0.11368683772E-12  0.17120000000E+03  0.17120000000E+03 0.  0.
         13    1    1    2    0    0  0.93963977739E+01 -0.10166189078E+02  0.35692048854E+02  0.38282857873E+02  0.10566000000E+00 0.  1.
        994    1    1    2    0    0 -0.10768195402E+02  0.88998786509E+01  0.32255376828E+01  0.17179931887E+03  0.17120000000E+03 0.  0.
        998    1    1    2    0    0  0.13717976282E+01  0.12663104267E+01  0.14610824097E+04  0.14611178233E+04  0.10000000000E+02 0.  1.
</event>
<event>
 5    1  0.1271464E-008  0.3846149E+03  0.7957747E-01  0.3431307E+00
         13   -1    0    0    0    0  0.00000000000E+00  0.00000000000E+00  0.14999999963E+04  0.15000000000E+04  0.10566000000E+00 0.  1.
        994   -1    0    0    0    0 -0.00000000000E+00 -0.00000000000E+00  0.11368683772E-12  0.17120000000E+03  0.17120000000E+03 0.  0.
         13    1    1    2    0    0 -0.67652921910E+00 -0.13236520200E+02  0.47189695580E+02  0.49015729024E+02  0.10566000000E+00 0.  1.
        994    1    1    2    0    0  0.50969083922E+00  0.12065284904E+02  0.23017967891E+01  0.17164081436E+03  0.17120000000E+03 0.  0.
        998    1    1    2    0    0  0.16683837988E+00  0.11712352963E+01  0.14505085039E+04  0.14505434566E+04  0.10000000000E+02 0.  1.
</event>
<event>
 5    1  0.1271464E-008  0.3737468E+03  0.7957747E-01  0.3478846E+00
         13   -1    0    0    0    0  0.00000000000E+00  0.00000000000E+00  0.14999999963E+04  0.15000000000E+04  0.10566000000E+00 0.  1.
        994   -1    0    0    0    0 -0.00000000000E+00 -0.00000000000E+00  0.11368683772E-12  0.17120000000E+03  0.17120000000E+03 0.  0.
         13    1    1    2    0    0  0.54571243721E+01  0.20185193820E+02  0.27376176342E+02  0.34448344679E+02  0.10566000000E+00 0.  1.
        994    1    1    2    0    0 -0.85171184252E+01 -0.40594987007E+01  0.76276068266E+01  0.17162937168E+03  0.17120000000E+03 0.  0.
        998    1    1    2    0    0  0.30599940532E+01 -0.16125695120E+02  0.14649962131E+04  0.14651222836E+04  0.10000000000E+02 0.  1.
</event>
<event>
 5    1  0.1271464E-008  0.3833193E+03  0.7957747E-01  0.3436832E+00
         13   -1    0    0    0    0  0.00000000000E+00  0.00000000000E+00  0.14999999963E+04  0.15000000000E+04  0.10566000000E+00 0. -1.
        994   -1    0    0    0    0 -0.00000000000E+00 -0.00000000000E+00  0.11368683772E-12  0.17120000000E+03  0.17120000000E+03 0.  0.
         13    1    1    2    0    0 -0.13322844191E+02 -0.13307373059E+02  0.70690717636E+02  0.73155813706E+02  0.10566000000E+00 0. -1.
        994    1    1    2    0    0  0.59030979743E+01  0.13142620694E+02  0.31535673088E+01  0.17183410613E+03  0.17120000000E+03 0.  0.
        998    1    1    2    0    0  0.74197462166E+01  0.16475236460E+00  0.14261557113E+04  0.14262100802E+04  0.10000000000E+02 0. -1.
</event>
<event>
 5    1  0.1271464E-008  0.3846335E+03  0.7957747E-01  0.3431228E+00
         13   -1    0    0    0    0  0.00000000000E+00  0.00000000000E+00  0.14999999963E+04  0.15000000000E+04  0.10566000000E+00 0. -1.
        994   -1    0    0    0    0 -0.00000000000E+00 -0.00000000000E+00  0.11368683772E-12  0.17120000000E+03  0.17120000000E+03 0.  0.
         13    1    1    2    0    0  0.10658635029E+02 -0.15750163731E+02  0.90942298214E+02  0.92909563160E+02  0.10566000000E+00 0. -1.
        994    1    1    2    0    0 -0.14530404338E+02  0.20533167372E+02  0.38983232877E+01  0.17308200524E+03  0.17120000000E+03 0.  0.
        998    1    1    2    0    0  0.38717693090E+01 -0.47830036418E+01  0.14051593748E+04  0.14052084316E+04  0.10000000000E+02 0. -1.
</event>
<event>
 5    1  0.1271464E-008  0.3858878E+03  0.7957747E-01  0.3425915E+00
         13   -1    0    0    0    0  0.00000000000E+00  0.00000000000E+00  0.14999999963E+04  0.15000000000E+04  0.10566000000E+00 0.  1.
        994   -1    0    0    0    0 -0.00000000000E+00 -0.00000000000E+00  0.11368683772E-12  0.17120000000E+03  0.17120000000E+03 0.  0.
         13    1    1    2    0    0 -0.90573946732E+01 -0.10100588249E+02  0.75250419722E+02  0.76463684933E+02  0.10566000000E+00 0.  1.
        994    1    1    2    0    0  0.83769068958E+01  0.10816000046E+02  0.18039534721E+01  0.17175521149E+03  0.17120000000E+03 0.  0.
        998    1    1    2    0    0  0.68048777738E+00 -0.71541179699E+00  0.14229456231E+04  0.14229811036E+04  0.10000000000E+02 0.  0.
</event>
<event>
 5    1  0.1271464E-008  0.3767837E+03  0.7957747E-01  0.3465284E+00
         13   -1    0    0    0    0  0.00000000000E+00  0.00000000000E+00  0.14999999963E+04  0.15000000000E+04  0.10566000000E+00 0.  1.
        994   -1    0    0    0    0 -0.00000000000E+00 -0.00000000000E+00  0.11368683772E-12  0.17120000000E+03  0.17120000000E+03 0.  0.
         13    1    1    2    0    0 -0.99938407421E+01 -0.26804296212E+02  0.65904271074E+02  0.71845189526E+02  0.10566000000E+00 0.  1.
        994    1    1    2    0    0  0.36708231446E+01  0.30442111102E+02  0.89489702387E+01  0.17415430267E+03  0.17120000000E+03 0.  0.
        998    1    1    2    0    0  0.63230175975E+01 -0.36378148908E+01  0.14251467550E+04  0.14252005078E+04  0.10000000000E+02 0.  1.
</event>
<event>
 5    1  0.1271464E-008  0.3752637E+03  0.7957747E-01  0.3472044E+00
         13   -1    0    0    0    0  0.00000000000E+00  0.00000000000E+00  0.14999999963E+04  0.15000000000E+04  0.10566000000E+00 0. -1.
        994   -1    0    0    0    0 -0.00000000000E+00 -0.00000000000E+00  0.11368683772E-12  0.17120000000E+03  0.17120000000E+03 0.  0.
         13    1    1    2    0    0 -0.34459641962E+02  0.36194649993E+02  0.81267673179E+02  0.95404221501E+02  0.10566000000E+00 0. -1.
        994    1    1    2    0    0  0.44220488306E+02 -0.28977032165E+02  0.23772843130E+02  0.18074763636E+03  0.17120000000E+03 0.  0.
        998    1    1    2    0    0 -0.97608463442E+01 -0.72176178279E+01  0.13949594800E+04  0.13950481421E+04  0.10000000000E+02 0. -1.
</event>
<event>
 5    1  0.1271464E-008  0.3838347E+03  0.7957747E-01  0.3434629E+00
         13   -1    0    0    0    0  0.00000000000E+00  0.00000000000E+00  0.14999999963E+04  0.15000000000E+04  0.10566000000E+00 0. -1.
        994   -1    0    0    0    0 -0.00000000000E+00 -0.00000000000E+00  0.11368683772E-12  0.17120000000E+03  0.17120000000E+03 0.  0.
         13    1    1    2    0    0  0.12339996748E+02 -0.16616651747E+02  0.90297824709E+02  0.92639607870E+02  0.10566000000E+00 0. -1.
        994    1    1    2    0    0 -0.11492163959E+02  0.20540136167E+02  0.40406339240E+01  0.17285755335E+03  0.17120000000E+03 0.  0.
        998    1    1    2    0    0 -0.84783278946E+00 -0.39234844198E+01  0.14056615376E+04  0.14057028388E+04  0.10000000000E+02 0. -1.
</event>
<event>
 5    1  0.1271464E-008  0.3851447E+03  0.7957747E-01  0.3429059E+00
         13   -1    0    0    0    0  0.00000000000E+00  0.00000000000E+00  0.14999999963E+04  0.15000000000E+04  0.10566000000E+00 0.  1.
        994   -1    0    0    0    0 -0.00000000000E+00 -0.00000000000E+00  0.11368683772E-12  0.17120000000E+03  0.17120000000E+03 0.  0.
         13    1    1    2    0    0  0.61259096349E+01 -0.94605938432E+01  0.39487653092E+02  0.41064772196E+02  0.10566000000E+00 0.  1.
        994    1    1    2    0    0 -0.13400583628E+02  0.75306150427E+01  0.23353934105E+01  0.17190456616E+03  0.17120000000E+03 0.  0.
        998    1    1    2    0    0  0.72746739931E+01  0.19299788005E+01  0.14581769498E+04  0.14582306616E+04  0.10000000000E+02 0.  1.
</event>
<event>
 5    1  0.1271464E-008  0.3844586E+03  0.7957747E-01  0.3431971E+00
         13   -1    0    0    0    0  0.00000000000E+00  0.00000000000E+00  0.14999999963E+04  0.15000000000E+04  0.10566000000E+00 0.  1.
        994   -1    0    0    0    0 -0.00000000000E+00 -0.00000000000E+00  0.11368683772E-12  0.17120000000E+03  0.17120000000E+03 0.  0.
         13    1    1    2    0    0  0.27216543806E+01 -0.16214739238E+02  0.76706148930E+02  0.78448515721E+02  0.10566000000E+00 0.  1.
        994    1    1    2    0    0  0.83709576630E+01  0.91965678696E-01  0.21300700928E+01  0.17141778959E+03  0.17120000000E+03 0.  0.
        998    1    1    2    0    0 -0.11092612044E+02  0.16122773560E+02  0.14211637773E+04  0.14213336947E+04  0.10000000000E+02 0.  1.
</event>
<event>
 5    1  0.1271464E-008  0.3850787E+03  0.7957747E-01  0.3429338E+00
         13   -1    0    0    0    0  0.00000000000E+00  0.00000000000E+00  0.14999999963E+04  0.15000000000E+04  0.10566000000E+00 0.  1.
        994   -1    0    0    0    0 -0.00000000000E+00 -0.00000000000E+00  0.11368683772E-12  0.17120000000E+03  0.17120000000E+03 0.  0.
         13    1    1    2    0    0 -0.12705397308E+02 -0.67339393361E+01  0.58784778855E+02  0.60518050603E+02  0.10566000000E+00 0.  1.
        994    1    1    2    0    0  0.21570099044E+02  0.15606699679E+02  0.39250690304E+01  0.17330229201E+03  0.17120000000E+03 0.  0.
        998    1    1    2    0    0 -0.88647017358E+01 -0.88727603431E+01  0.14372901484E+04  0.14373796574E+04  0.10000000000E+02 0.  1.
</event>
<event>
 5    1  0.1271464E-008  0.3861140E+03  0.7957747E-01  0.3424961E+00
         13   -1    0    0    0    0  0.00000000000E+00  0.00000000000E+00  0.14999999963E+04  0.15000000000E+04  0.10566000000E+00 0.  1.
        994   -1    0    0    0    0 -0.00000000000E+00 -0.00000000000E+00  0.11368683772E-12  0.17120000000E+03  0.17120000000E+03 0.  0.
         13    1    1    2    0    0  0.36997418142E+01  0.11705569057E+02  0.73303086078E+02  0.74324033994E+02  0.10566000000E+00 0.  1.
        994    1    1    2    0    0  0.44100207920E+01 -0.56569604969E+01  0.12466517605E+01  0.17135473039E+03  0.17120000000E+03 0.  0.
        998    1    1    2    0    0 -0.81097626063E+01 -0.60486085602E+01  0.14254502584E+04  0.14255212356E+04  0.10000000000E+02 0.  1.
</event>
<event>
 5    1  0.1271464E-008  0.3745684E+03  0.7957747E-01  0.3475155E+00
         13   -1    0    0    0    0  0.00000000000E+00  0.00000000000E+00  0.14999999963E+04  0.15000000000E+04  0.10566000000E+00 0.  1.
        994   -1    0    0    0    0 -0.00000000000E+00 -0.00000000000E+00  0.11368683772E-12  0.17120000000E+03  0.17120000000E+03 0.  0.
         13    1    1    2    0    0 -0.70754692490E+02  0.12919214444E+02  0.22594799262E+03  0.23711946175E+03  0.10566000000E+00 0.  1.
        994    1    1    2    0    0  0.11259297551E+03 -0.11220423986E+03  0.98455704307E+02  0.25351515791E+03  0.17120000000E+03 0.  0.
        998    1    1    2    0    0 -0.41838283019E+02  0.99285025421E+02  0.11755962994E+04  0.11805653803E+04  0.10000000000E+02 0.  1.
</event>
<event>
 5    1  0.1494251E-008  0.3852754E+03  0.7957747E-01  0.3428505E+00
         13   -1    0    0    0    0  0.00000000000E+00  0.00000000000E+00  0.14999999963E+04  0.15000000000E+04  0.10566000000E+00 0.  1.
        994   -1    0    0    0    0 -0.00000000000E+00 -0.00000000000E+00  0.11368683772E-12  0.17120000000E+03  0.17120000000E+03 0.  0.
         13    1    1    2    0    0  0.90228857584E+01  0.70651866771E+01  0.43718449149E+02  0.45195611405E+02  0.10566000000E+00 0.  1.
        994    1    1    2    0    0 -0.51531804281E+01 -0.79063420980E+01  0.17861522355E+01  0.17146922713E+03  0.17120000000E+03 0.  0.
        998    1    1    2    0    0 -0.38697053303E+01  0.84115542089E+00  0.14544953949E+04  0.14545351615E+04  0.10000000000E+02 0.  1.
</event>
<event>
 5    1  0.1271464E-008  0.3846216E+03  0.7957747E-01  0.3431279E+00
         13   -1    0    0    0    0  0.00000000000E+00  0.00000000000E+00  0.14999999963E+04  0.15000000000E+04  0.10566000000E+00 0. -1.
        994   -1    0    0    0    0 -0.00000000000E+00 -0.00000000000E+00  0.11368683772E-12  0.17120000000E+03  0.17120000000E+03 0.  0.
         13    1    1    2    0    0 -0.89510959234E+01 -0.77047725441E+01  0.39610261409E+02  0.41333637767E+02  0.10566000000E+00 0. -1.
        994    1    1    2    0    0 -0.47231980622E+01  0.49673096306E+01  0.19728467196E+01  0.17134851878E+03  0.17120000000E+03 0.  0.
        998    1    1    2    0    0  0.13674293986E+02  0.27374629136E+01  0.14584168882E+04  0.14585178434E+04  0.10000000000E+02 0. -1.
</event>
<event>
 5    1  0.1271464E-008  0.3743168E+03  0.7957747E-01  0.3476284E+00
         13   -1    0    0    0    0  0.00000000000E+00  0.00000000000E+00  0.14999999963E+04  0.15000000000E+04  0.10566000000E+00 0.  1.
        994   -1    0    0    0    0 -0.00000000000E+00 -0.00000000000E+00  0.11368683772E-12  0.17120000000E+03  0.17120000000E+03 0.  0.
         13    1    1    2    0    0  0.11669306064E+02 -0.85811552956E+02  0.23877619136E+03  0.25399581896E+03  0.10566000000E+00 0.  1.
        994    1    1    2    0    0  0.69164331185E+01  0.84697556626E+02  0.39339684809E+02  0.19513729512E+03  0.17120000000E+03 0.  0.
        998    1    1    2    0    0 -0.18585739183E+02  0.11139963296E+01  0.12218841201E+04  0.12220668859E+04  0.10000000000E+02 0.  1.
</event>
<event>
 5    1  0.1271464E-008  0.3731437E+03  0.7957747E-01  0.3481566E+00
         13   -1    0    0    0    0  0.00000000000E+00  0.00000000000E+00  0.14999999963E+04  0.15000000000E+04  0.10566000000E+00 0.  1.
        994   -1    0    0    0    0 -0.00000000000E+00 -0.00000000000E+00  0.11368683772E-12  0.17120000000E+03  0.17120000000E+03 0.  0.
         13    1    1    2    0    0  0.30363412449E+02 -0.15277955602E+02  0.69822828780E+02  0.77656882025E+02  0.10566000000E+00 0.  1.
        994    1    1    2    0    0 -0.33105280901E+02  0.96901810767E+01  0.11715990066E+02  0.17503303590E+03  0.17120000000E+03 0.  0.
        998    1    1    2    0    0  0.27418684517E+01  0.55877745254E+01  0.14184611774E+04  0.14185100821E+04  0.10000000000E+02 0.  1.
</event>
<event>
 5    1  0.1491444E-008  0.3849008E+03  0.7957747E-01  0.3430093E+00
         13   -1    0    0    0    0  0.00000000000E+00  0.00000000000E+00  0.14999999963E+04  0.15000000000E+04  0.10566000000E+00 0. -1.
        994   -1    0    0    0    0 -0.00000000000E+00 -0.00000000000E+00  0.11368683772E-12  0.17120000000E+03  0.17120000000E+03 0.  0.
         13    1    1    2    0    0  0.64672366070E+01 -0.87272623851E+01  0.34281995588E+02  0.35961877643E+02  0.10566000000E+00 0. -1.
        994    1    1    2    0    0 -0.49826966600E+01  0.10360739321E+02  0.21143132639E+01  0.17159860869E+03  0.17120000000E+03 0.  0.
        998    1    1    2    0    0 -0.14845399469E+01 -0.16334769360E+01  0.14636036874E+04  0.14636395137E+04  0.10000000000E+02 0. -1.
</event>
<event>
 5    1  0.1271464E-008  0.3780422E+03  0.7957747E-01  0.3459728E+00
         13   -1    0    0    0    0  0.00000000000E+00  0.00000000000E+00  0.14999999963E+04  0.15000000000E+04  0.10566000000E+00 0.  1.
        994   -1    0    0    0    0 -0.00000000000E+00 -0.00000000000E+00  0.11368683772E-12  0.17120000000E+03  0.17120000000E+03 0.  0.
         13    1    1    2    0    0 -0.12386644925E+02  0.58523232040E+01  0.16266628175E+02  0.21267181656E+02  0.10566000000E+00 0.  1.
        994    1    1    2    0    0  0.15747847299E+01 -0.91051045076E+01  0.54120689143E+01  0.17153458358E+03  0.17120000000E+03 0.  0.
        998    1    1    2    0    0  0.10811860195E+02  0.32527813036E+01  0.14783212992E+04  0.14783982348E+04  0.10000000000E+02 0.  1.
</event>
<event>
 5    1  0.1271464E-008  0.3720433E+03  0.7957747E-01  0.3486553E+00
         13   -1    0    0    0    0  0.00000000000E+00  0.00000000000E+00  0.14999999963E+04  0.15000000000E+04  0.10566000000E+00 0. -1.
        994   -1    0    0    0    0 -0.00000000000E+00 -0.00000000000E+00  0.11368683772E-12  0.17120000000E+03  0.17120000000E+03 0.  0.
         13    1    1    2    0    0  0.14680128843E+02 -0.42827979411E+01  0.10620973365E+02  0.18618936069E+02  0.10566000000E+00 0. -1.
        994    1    1    2    0    0 -0.71468905894E+01  0.10103170303E+02  0.87309472862E+01  0.17186861708E+03  0.17120000000E+03 0.  0.
        998    1    1    2    0    0 -0.75332382540E+01 -0.58203723619E+01  0.14806480756E+04  0.14807124469E+04  0.10000000000E+02 0. -1.
</event>
<event>
 5    1  0.1271464E-008  0.3843563E+03  0.7957747E-01  0.3432407E+00
         13   -1    0    0    0    0  0.00000000000E+00  0.00000000000E+00  0.14999999963E+04  0.15000000000E+04  0.10566000000E+00 0. -1.
        994   -1    0    0    0    0 -0.00000000000E+00 -0.00000000000E+00  0.11368683772E-12  0.17120000000E+03  0.17120000000E+03 0.  0.
         13    1    1    2    0    0 -0.36947278443E+01 -0.15517605716E+02  0.65864833849E+02  0.67768979651E+02  0.10566000000E+00 0. -1.
        994    1    1    2    0    0  0.54457229953E+01  0.69932348179E+01  0.22090238465E+01  0.17144352137E+03  0.17120000000E+03 0.  0.
        998    1    1    2    0    0 -0.17509951511E+01  0.85243708985E+01  0.14319261386E+04  0.14319874990E+04  0.10000000000E+02 0. -1.
</event>
<event>
 5    1  0.1271464E-008  0.3750014E+03  0.7957747E-01  0.3473217E+00
         13   -1    0    0    0    0  0.00000000000E+00  0.00000000000E+00  0.14999999963E+04  0.15000000000E+04  0.10566000000E+00 0.  1.
        994   -1    0    0    0    0 -0.00000000000E+00 -0.00000000000E+00  0.11368683772E-12  0.17120000000E+03  0.17120000000E+03 0.  0.
         13    1    1    2    0    0  0.67907836914E+02 -0.64511094526E+02  0.46217059605E+03  0.47156635445E+03  0.10566000000E+00 0.  1.
        994    1    1    2    0    0 -0.62155648097E+02  0.65968309865E+02  0.35136656416E+02  0.19687347998E+03  0.17120000000E+03 0.  0.
        998    1    1    2    0    0 -0.57521888171E+01 -0.14572153387E+01  0.10026927438E+04  0.10027601656E+04  0.10000000000E+02 0.  0.
</event>
<event>
 5    1  0.1271464E-008  0.3797819E+03  0.7957747E-01  0.3452109E+00
         13   -1    0    0    0    0  0.00000000000E+00  0.00000000000E+00  0.14999999963E+04  0.15000000000E+04  0.10566000000E+00 0. -1.
        994   -1    0    0    0    0 -0.00000000000E+00 -0.00000000000E+00  0.11368683772E-12  0.17120000000E+03  0.17120000000E+03 0.  0.
         13    1    1    2    0    0 -0.13262185456E+03  0.12675570437E+01  0.79030503608E+03  0.80135649010E+03  0.10566000000E+00 0. -1.
        994    1    1    2    0    0  0.13955042726E+03  0.18594018811E+01  0.72424081699E+02  0.23244884756E+03  0.17120000000E+03 0.  0.
        998    1    1    2    0    0 -0.69285726952E+01 -0.31269589248E+01  0.63727087850E+03  0.63739466234E+03  0.10000000000E+02 0. -1.
</event>
<event>
 5    1  0.1271464E-008  0.3241583E+03  0.7957747E-01  0.3737344E+00
         13   -1    0    0    0    0  0.00000000000E+00  0.00000000000E+00  0.14999999963E+04  0.15000000000E+04  0.10566000000E+00 0.  1.
        994   -1    0    0    0    0 -0.00000000000E+00 -0.00000000000E+00  0.11368683772E-12  0.17120000000E+03  0.17120000000E+03 0.  0.
         13    1    1    2    0    0 -0.21219638039E+03 -0.80075983390E+02  0.71337228397E+03  0.74855827673E+03  0.10566000000E+00 0.  1.
        994    1    1    2    0    0  0.23269028523E+03  0.65957887544E+02  0.25672786414E+03  0.39206357647E+03  0.17120000000E+03 0.  0.
        998    1    1    2    0    0 -0.20493904844E+02  0.14118095845E+02  0.52989984817E+03  0.53057814680E+03  0.10000000000E+02 0.  1.
</event>
<event>
 5    1  0.1271464E-008  0.3858799E+03  0.7957747E-01  0.3425949E+00
         13   -1    0    0    0    0  0.00000000000E+00  0.00000000000E+00  0.14999999963E+04  0.15000000000E+04  0.10566000000E+00 0. -1.
        994   -1    0    0    0    0 -0.00000000000E+00 -0.00000000000E+00  0.11368683772E-12  0.17120000000E+03  0.17120000000E+03 0.  0.
         13    1    1    2    0    0  0.11858223361E+02  0.44279680453E+01  0.69376579882E+02  0.70521949508E+02  0.10566000000E+00 0. -1.
        994    1    1    2    0    0 -0.43394968664E+01 -0.35724430769E+01  0.12975383829E+01  0.17129716048E+03  0.17120000000E+03 0.  0.
        998    1    1    2    0    0 -0.75187264950E+01 -0.85552496841E+00  0.14293258780E+04  0.14293808900E+04  0.10000000000E+02 0. -1.
</event>
<event>
 5    1  0.1271464E-008  0.3703882E+03  0.7957747E-01  0.3494109E+00
         13   -1    0    0    0    0  0.00000000000E+00  0.00000000000E+00  0.14999999963E+04  0.15000000000E+04  0.10566000000E+00 0. -1.
        994   -1    0    0    0    0 -0.00000000000E+00 -0.00000000000E+00  0.11368683772E-12  0.17120000000E+03  0.17120000000E+03 0.  0.
         13    1    1    2    0    0  0.35036177024E+02  0.18027278243E+02  0.84683975254E+02  0.93401837724E+02  0.10566000000E+00 0. -1.
        994    1    1    2    0    0 -0.54847105679E+01 -0.26826800014E+02  0.11659592463E+02  0.17376750371E+03  0.17120000000E+03 0.  0.
        998    1    1    2    0    0 -0.29551466457E+02  0.87995217714E+01  0.14036564286E+04  0.14040306586E+04  0.10000000000E+02 0. -1.
</event>
<event>
 5    1  0.1271464E-008  0.3800679E+03  0.7957747E-01  0.3450863E+00
         13   -1    0    0    0    0  0.00000000000E+00  0.00000000000E+00  0.14999999963E+04  0.15000000000E+04  0.10566000000E+00 0. -1.
        994   -1    0    0    0    0 -0.00000000000E+00 -0.00000000000E+00  0.11368683772E-12  0.17120000000E+03  0.17120000000E+03 0.  0.
         13    1    1    2    0    0 -0.96340390193E+01 -0.19921479100E+02  0.55800867219E+02  0.60028559734E+02  0.10566000000E+00 0. -1.
        994    1    1    2    0    0 -0.28548784156E+01  0.29317890210E+02  0.70042588235E+01  0.17385680504E+03  0.17120000000E+03 0.  0.
        998    1    1    2    0    0  0.12488917435E+02 -0.93964111101E+01  0.14371948702E+04  0.14373146352E+04  0.10000000000E+02 0. -1.
</event>
<event>
 5    1  0.1271464E-008  0.3767552E+03  0.7957747E-01  0.3465410E+00
         13   -1    0    0    0    0  0.00000000000E+00  0.00000000000E+00  0.14999999963E+04  0.15000000000E+04  0.10566000000E+00 0. -1.
        994   -1    0    0    0    0 -0.00000000000E+00 -0.00000000000E+00  0.11368683772E-12  0.17120000000E+03  0.17120000000E+03 0.  0.
         13    1    1    2    0    0  0.15287667369E+02 -0.27576099418E+02  0.77801844036E+02  0.83948151452E+02  0.10566000000E+00 0. -1.
        994    1    1    2    0    0 -0.24999579229E+02  0.30256665367E+02  0.11003376187E+02  0.17598567853E+03  0.17120000000E+03 0.  0.
        998    1    1    2    0    0  0.97119118595E+01 -0.26805659489E+01  0.14111947761E+04  0.14112661700E+04  0.10000000000E+02 0. -1.
</event>
<event>
 5    1  0.1271464E-008  0.3779231E+03  0.7957747E-01  0.3460252E+00
         13   -1    0    0    0    0  0.00000000000E+00  0.00000000000E+00  0.14999999963E+04  0.15000000000E+04  0.10566000000E+00 0. -1.
        994   -1    0    0    0    0 -0.00000000000E+00 -0.00000000000E+00  0.11368683772E-12  0.17120000000E+03  0.17120000000E+03 0.  0.
         13    1    1    2    0    0  0.12042690736E+02  0.41521156937E+02  0.16310447248E+03  0.16873681572E+03  0.10566000000E+00 0. -1.
        994    1    1    2    0    0 -0.15473821744E+02 -0.37647967501E+02  0.10782463819E+02  0.17630232597E+03  0.17120000000E+03 0.  0.
        998    1    1    2    0    0  0.34311310086E+01 -0.38731894358E+01  0.13261130600E+04  0.13261608583E+04  0.10000000000E+02 0. -1.
</event>
<event>
 5    1  0.1271464E-008  0.3754362E+03  0.7957747E-01  0.3471274E+00
         13   -1    0    0    0    0  0.00000000000E+00  0.00000000000E+00  0.14999999963E+04  0.15000000000E+04  0.10566000000E+00 0. -1.
        994   -1    0    0    0    0 -0.00000000000E+00 -0.00000000000E+00  0.11368683772E-12  0.17120000000E+03  0.17120000000E+03 0.  0.
         13    1    1    2    0    0 -0.11955491371E+02 -0.19695878946E+02  0.37491661410E+02  0.44005650327E+02  0.10566000000E+00 0. -1.
        994    1    1    2    0    0  0.55086831479E+01  0.25788957524E+02  0.88188890203E+01  0.17344344532E+03  0.17120000000E+03 0.  0.
        998    1    1    2    0    0  0.64468082236E+01 -0.60930785779E+01  0.14536894458E+04  0.14537509044E+04  0.10000000000E+02 0. -1.
</event>
<event>
 5    1  0.1271464E-008  0.3816163E+03  0.7957747E-01  0.3444151E+00
         13   -1    0    0    0    0  0.00000000000E+00  0.00000000000E+00  0.14999999963E+04  0.15000000000E+04  0.10566000000E+00 0. -1.
        994   -1    0    0    0    0 -0.00000000000E+00 -0.00000000000E+00  0.11368683772E-12  0.17120000000E+03  0.17120000000E+03 0.  0.
         13    1    1    2    0    0 -0.23700567679E+01 -0.39426179678E+02  0.23187529949E+03  0.23521523440E+03  0.10566000000E+00 0. -1.
        994    1    1    2    0    0 -0.55451812605E+00  0.23764097461E+02  0.52005936573E+01  0.17292057712E+03  0.17120000000E+03 0.  0.
        998    1    1    2    0    0  0.29245748939E+01  0.15662082218E+02  0.12629241031E+04  0.12630641885E+04  0.10000000000E+02 0. -1.
</event>
<event>
 5    1  0.1271464E-008  0.3781381E+03  0.7957747E-01  0.3459306E+00
         13   -1    0    0    0    0  0.00000000000E+00  0.00000000000E+00  0.14999999963E+04  0.15000000000E+04  0.10566000000E+00 0. -1.
        994   -1    0    0    0    0 -0.00000000000E+00 -0.00000000000E+00  0.11368683772E-12  0.17120000000E+03  0.17120000000E+03 0.  0.
         13    1    1    2    0    0  0.23886586700E+02 -0.21884412226E+02  0.98064469238E+02  0.10327704398E+03  0.10566000000E+00 0. -1.
        994    1    1    2    0    0 -0.28092531383E+02  0.98514995812E+01  0.80627229125E+01  0.17395599979E+03  0.17120000000E+03 0.  0.
        998    1    1    2    0    0  0.42059446837E+01  0.12032912645E+02  0.13938728041E+04  0.13939669562E+04  0.10000000000E+02 0. -1.
</event>
<event>
 5    1  0.1271464E-008  0.3843726E+03  0.7957747E-01  0.3432337E+00
         13   -1    0    0    0    0  0.00000000000E+00  0.00000000000E+00  0.14999999963E+04  0.15000000000E+04  0.10566000000E+00 0.  1.
        994   -1    0    0    0    0 -0.00000000000E+00 -0.00000000000E+00  0.11368683772E-12  0.17120000000E+03  0.17120000000E+03 0.  0.
         13    1    1    2    0    0  0.22217857115E+02 -0.22689404993E+01  0.13220361021E+03  0.13407679509E+03  0.10566000000E+00 0.  1.
        994    1    1    2    0    0 -0.10718343901E+02 -0.53103711690E+01  0.24136040431E+01  0.17163434511E+03  0.17120000000E+03 0.  0.
        998    1    1    2    0    0 -0.11499513214E+02  0.75793116683E+01  0.13653827820E+04  0.13654888598E+04  0.10000000000E+02 0.  1.
</event>
<event>
 5    1  0.1271464E-008  0.3761641E+03  0.7957747E-01  0.3468033E+00
         13   -1    0    0    0    0  0.00000000000E+00  0.00000000000E+00  0.14999999963E+04  0.15000000000E+04  0.10566000000E+00 0. -1.
        994   -1    0    0    0    0 -0.00000000000E+00 -0.00000000000E+00  0.11368683772E-12  0.17120000000E+03  0.17120000000E+03 0.  0.
         13    1    1    2    0    0  0.44897424729E+02 -0.16112697889E+02  0.15988677355E+03  0.16685079952E+03  0.10566000000E+00 0. -1.
        994    1    1    2    0    0 -0.52097602956E+02  0.16893550428E+02  0.16306791844E+02  0.18048518981E+03  0.17120000000E+03 0.  0.
        998    1    1    2    0    0  0.72001782270E+01 -0.78085253941E+00  0.13238064309E+04  0.13238640107E+04  0.10000000000E+02 0. -1.
</event>
<event>
 5    1  0.1271464E-008  0.3832787E+03  0.7957747E-01  0.3437005E+00
         13   -1    0    0    0    0  0.00000000000E+00  0.00000000000E+00  0.14999999963E+04  0.15000000000E+04  0.10566000000E+00 0. -1.
        994   -1    0    0    0    0 -0.00000000000E+00 -0.00000000000E+00  0.11368683772E-12  0.17120000000E+03  0.17120000000E+03 0.  0.
         13    1    1    2    0    0  0.23728647724E+02  0.56989671809E+00  0.11207637685E+03  0.11456220545E+03  0.10566000000E+00 0. -1.
        994    1    1    2    0    0 -0.15337409167E+02  0.27928499976E+01  0.32912842745E+01  0.17193984030E+03  0.17120000000E+03 0.  0.
        998    1    1    2    0    0 -0.83912385574E+01 -0.33627467157E+01  0.13846323352E+04  0.13846979543E+04  0.10000000000E+02 0. -1.
</event>
<event>
 5    1  0.1271464E-008  0.3932685E+03  0.7957747E-01  0.3395344E+00
         13   -1    0    0    0    0  0.00000000000E+00  0.00000000000E+00  0.14999999963E+04  0.15000000000E+04  0.10566000000E+00 0.  1.
        994   -1    0    0    0    0 -0.00000000000E+00 -0.00000000000E+00  0.11368683772E-12  0.17120000000E+03  0.17120000000E+03 0.  0.
         13    1    1    2    0    0  0.40410904036E+02  0.73215057623E+02  0.16246048423E+03  0.18272084152E+03  0.10566000000E+00 0.  1.
        994    1    1    2    0    0  0.42760722688E+02 -0.37530009977E+02  0.36255384808E+02  0.18401324404E+03  0.17120000000E+03 0.  0.
        998    1    1    2    0    0 -0.83171626724E+02 -0.35685047646E+02  0.13012841272E+04  0.13044659144E+04  0.10000000000E+02 0.  1.
</event>
<event>
 5    1  0.1271464E-008  0.3829083E+03  0.7957747E-01  0.3438592E+00
         13   -1    0    0    0    0  0.00000000000E+00  0.00000000000E+00  0.14999999963E+04  0.15000000000E+04  0.10566000000E+00 0.  1.
        994   -1    0    0    0    0 -0.00000000000E+00 -0.00000000000E+00  0.11368683772E-12  0.17120000000E+03  0.17120000000E+03 0.  0.
         13    1    1    2    0    0 -0.48307970360E+01 -0.17317527209E+02  0.57195237016E+02  0.59954479816E+02  0.10566000000E+00 0.  1.
        994    1    1    2    0    0  0.35377173848E+01  0.20484961061E+02  0.41043935084E+01  0.17250633357E+03  0.17120000000E+03 0.  0.
        998    1    1    2    0    0  0.12930796512E+01 -0.31674338524E+01  0.14387003658E+04  0.14387391866E+04  0.10000000000E+02 0.  1.
</event>
<event>
 5    1  0.1271464E-008  0.3778644E+03  0.7957747E-01  0.3460511E+00
         13   -1    0    0    0    0  0.00000000000E+00  0.00000000000E+00  0.14999999963E+04  0.15000000000E+04  0.10566000000E+00 0. -1.
        994   -1    0    0    0    0 -0.00000000000E+00 -0.00000000000E+00  0.11368683772E-12  0.17120000000E+03  0.17120000000E+03 0.  0.
         13    1    1    2    0    0 -0.88331425154E+02  0.25374430989E+02  0.50954997486E+03  0.51777165861E+03  0.10566000000E+00 0. -1.
        994    1    1    2    0    0  0.90713811561E+02 -0.26426790901E+02  0.35885510448E+02  0.19880789910E+03  0.17120000000E+03 0.  0.
        998    1    1    2    0    0 -0.23823864063E+01  0.10523599118E+01  0.95456451097E+03  0.95462044229E+03  0.10000000000E+02 0.  0.
</event>
<event>
 5    1  0.1271464E-008  0.3923687E+03  0.7957747E-01  0.3399009E+00
         13   -1    0    0    0    0  0.00000000000E+00  0.00000000000E+00  0.14999999963E+04  0.15000000000E+04  0.10566000000E+00 0.  1.
        994   -1    0    0    0    0 -0.00000000000E+00 -0.00000000000E+00  0.11368683772E-12  0.17120000000E+03  0.17120000000E+03 0.  0.
         13    1    1    2    0    0 -0.81668706663E+01  0.31476818141E+02  0.12969269637E+02  0.35010012507E+02  0.10566000000E+00 0.  1.
        994    1    1    2    0    0  0.37481196682E+01 -0.30343372390E+02  0.26851447542E+02  0.17596934075E+03  0.17120000000E+03 0.  0.
        998    1    1    2    0    0  0.44187509981E+01 -0.11334457507E+01  0.14601792791E+04  0.14602206467E+04  0.10000000000E+02 0.  1.
</event>
<event>
 5    1  0.1271464E-008  0.3843097E+03  0.7957747E-01  0.3432605E+00
         13   -1    0    0    0    0  0.00000000000E+00  0.00000000000E+00  0.14999999963E+04  0.15000000000E+04  0.10566000000E+00 0.  1.
        994   -1    0    0    0    0 -0.00000000000E+00 -0.00000000000E+00  0.11368683772E-12  0.17120000000E+03  0.17120000000E+03 0.  0.
         13    1    1    2    0    0 -0.11344497598E+02  0.18287621512E+02  0.12934110707E+03  0.13111928870E+03  0.10566000000E+00 0.  1.
        994    1    1    2    0    0  0.10556612844E+02  0.46212262681E+01  0.24110568251E+01  0.17160434436E+03  0.17120000000E+03 0.  0.
        998    1    1    2    0    0  0.78788475384E+00 -0.22908847780E+02  0.13682478324E+04  0.13684763669E+04  0.10000000000E+02 0.  1.
</event>
<event>
 5    1  0.1271464E-008  0.3845145E+03  0.7957747E-01  0.3431734E+00
         13   -1    0    0    0    0  0.00000000000E+00  0.00000000000E+00  0.14999999963E+04  0.15000000000E+04  0.10566000000E+00 0.  1.
        994   -1    0    0    0    0 -0.00000000000E+00 -0.00000000000E+00  0.11368683772E-12  0.17120000000E+03  0.17120000000E+03 0.  0.
         13    1    1    2    0    0  0.13751452259E+02  0.20605199763E+02  0.14940291405E+03  0.15144278981E+03  0.10566000000E+00 0.  1.
        994    1    1    2    0    0 -0.15100255705E+02 -0.20318744906E+02  0.39851617031E+01  0.17310745400E+03  0.17120000000E+03 0.  0.
        998    1    1    2    0    0  0.13488034462E+01 -0.28645485764E+00  0.13466119205E+04  0.13466497562E+04  0.10000000000E+02 0.  1.
</event>
<event>
 5    1  0.1271464E-008  0.3821752E+03  0.7957747E-01  0.3441742E+00
         13   -1    0    0    0    0  0.00000000000E+00  0.00000000000E+00  0.14999999963E+04  0.15000000000E+04  0.10566000000E+00 0. -1.
        994   -1    0    0    0    0 -0.00000000000E+00 -0.00000000000E+00  0.11368683772E-12  0.17120000000E+03  0.17120000000E+03 0.  0.
         13    1    1    2    0    0  0.22704333689E+00  0.10131028094E+02  0.15518762805E+02  0.18534628185E+02  0.10566000000E+00 0. -1.
        994    1    1    2    0    0 -0.26857160677E+01 -0.10441416289E+02  0.34250226580E+01  0.17157332842E+03  0.17120000000E+03 0.  0.
        998    1    1    2    0    0  0.24586727308E+01  0.31038819514E+00  0.14810562108E+04  0.14810920434E+04  0.10000000000E+02 0. -1.
</event>
<event>
 5    1  0.1271464E-008  0.3846581E+03  0.7957747E-01  0.3431124E+00
         13   -1    0    0    0    0  0.00000000000E+00  0.00000000000E+00  0.14999999963E+04  0.15000000000E+04  0.10566000000E+00 0.  1.
        994   -1    0    0    0    0 -0.00000000000E+00 -0.00000000000E+00  0.11368683772E-12  0.17120000000E+03  0.17120000000E+03 0.  0.
         13    1    1    2    0    0 -0.80338993542E+00 -0.11828884176E+02  0.40509458940E+02  0.42208948860E+02  0.10566000000E+00 0.  1.
        994    1    1    2    0    0  0.57630576214E+01 -0.14181675483E+01  0.19159791887E+01  0.17131355757E+03  0.17120000000E+03 0.  0.
        998    1    1    2    0    0 -0.49596676860E+01  0.13247051724E+02  0.14575745582E+04  0.14576774936E+04  0.10000000000E+02 0.  1.
</event>
<event>
 5    1  0.1271464E-008  0.3842631E+03  0.7957747E-01  0.3432803E+00
         13   -1    0    0    0    0  0.00000000000E+00  0.00000000000E+00  0.14999999963E+04  0.15000000000E+04  0.10566000000E+00 0. -1.
        994   -1    0    0    0    0 -0.00000000000E+00 -0.00000000000E+00  0.11368683772E-12  0.17120000000E+03  0.17120000000E+03 0.  0.
         13    1    1    2    0    0 -0.50266222101E+02 -0.46491904550E+02  0.32495676413E+03  0.33209200531E+03  0.10566000000E+00 0. -1.
        994    1    1    2    0    0 -0.15809995455E+03  0.17121935448E+02  0.11892781331E+03  0.26218699640E+03  0.17120000000E+03 0.  0.
        998    1    1    2    0    0  0.20836617665E+03  0.29369969102E+02  0.10561154188E+04  0.10769209983E+04  0.10000000000E+02 0. -1.
</event>
<event>
 5    1  0.1271464E-008  0.3774138E+03  0.7957747E-01  0.3462497E+00
         13   -1    0    0    0    0  0.00000000000E+00  0.00000000000E+00  0.14999999963E+04  0.15000000000E+04  0.10566000000E+00 0. -1.
        994   -1    0    0    0    0 -0.00000000000E+00 -0.00000000000E+00  0.11368683772E-12  0.17120000000E+03  0.17120000000E+03 0.  0.
         13    1    1    2    0    0  0.39802165895E+02 -0.15871715343E+02  0.14411684797E+03  0.15035225569E+03  0.10566000000E+00 0. -1.
        994    1    1    2    0    0 -0.52078015357E+02  0.10571493506E+02  0.15025676302E+02  0.17988631718E+03  0.17120000000E+03 0.  0.
        998    1    1    2    0    0  0.12275849462E+02  0.53002218371E+01  0.13408574720E+04  0.13409614271E+04  0.10000000000E+02 0. -1.
</event>
<event>
 5    1  0.1271464E-008  0.3810154E+03  0.7957747E-01  0.3446749E+00
         13   -1    0    0    0    0  0.00000000000E+00  0.00000000000E+00  0.14999999963E+04  0.15000000000E+04  0.10566000000E+00 0.  1.
        994   -1    0    0    0    0 -0.00000000000E+00 -0.00000000000E+00  0.11368683772E-12  0.17120000000E+03  0.17120000000E+03 0.  0.
         13    1    1    2    0    0 -0.84615988867E+01 -0.12495221105E+02  0.28762256687E+02  0.32480883300E+02  0.10566000000E+00 0.  1.
        994    1    1    2    0    0  0.74952799989E+01  0.23884960830E+02  0.57121306121E+01  0.17311481454E+03  0.17120000000E+03 0.  0.
        998    1    1    2    0    0  0.96631888780E+00 -0.11389739725E+02  0.14655256090E+04  0.14656043022E+04  0.10000000000E+02 0.  1.
</event>
<event>
 5    1  0.1271464E-008  0.3842203E+03  0.7957747E-01  0.3432986E+00
         13   -1    0    0    0    0  0.00000000000E+00  0.00000000000E+00  0.14999999963E+04  0.15000000000E+04  0.10566000000E+00 0. -1.
        994   -1    0    0    0    0 -0.00000000000E+00 -0.00000000000E+00  0.11368683772E-12  0.17120000000E+03  0.17120000000E+03 0.  0.
         13    1    1    2    0    0 -0.18954840713E+02  0.12741730325E+01  0.11055087310E+03  0.11217136984E+03  0.10566000000E+00 0. -1.
        994    1    1    2    0    0 -0.15943258690E+02 -0.57089655844E+01  0.29638071102E+01  0.17206104713E+03  0.17120000000E+03 0.  0.
        998    1    1    2    0    0  0.34898099403E+02  0.44347925520E+01  0.13864853161E+04  0.13869675830E+04  0.10000000000E+02 0. -1.
</event>
<event>
 5    1  0.1271464E-008  0.3785507E+03  0.7957747E-01  0.3457494E+00
         13   -1    0    0    0    0  0.00000000000E+00  0.00000000000E+00  0.14999999963E+04  0.15000000000E+04  0.10566000000E+00 0.  1.
        994   -1    0    0    0    0 -0.00000000000E+00 -0.00000000000E+00  0.11368683772E-12  0.17120000000E+03  0.17120000000E+03 0.  0.
         13    1    1    2    0    0  0.19522017916E+02 -0.36096311360E+01  0.41289361932E+02  0.45814421236E+02  0.10566000000E+00 0.  1.
        994    1    1    2    0    0  0.72801113814E+01 -0.18752047462E+01  0.50564185820E+01  0.17143956306E+03  0.17120000000E+03 0.  0.
        998    1    1    2    0    0 -0.26802129297E+02  0.54848358822E+01  0.14536542158E+04  0.14539460157E+04  0.10000000000E+02 0.  1.
</event>
<event>
 5    1  0.2088045E-008  0.3859483E+03  0.7957747E-01  0.3425660E+00
         13   -1    0    0    0    0  0.00000000000E+00  0.00000000000E+00  0.14999999963E+04  0.15000000000E+04  0.10566000000E+00 0. -1.
        994   -1    0    0    0    0 -0.00000000000E+00 -0.00000000000E+00  0.11368683772E-12  0.17120000000E+03  0.17120000000E+03 0.  0.
         13    1    1    2    0    0 -0.96775241022E+01 -0.74999055223E+01  0.69907472632E+02  0.70971606642E+02  0.10566000000E+00 0. -1.
        994    1    1    2    0    0  0.24360435033E+01 -0.39507534990E+01  0.12306785913E+01  0.17126732710E+03  0.17120000000E+03 0.  0.
        998    1    1    2    0    0  0.72414805989E+01  0.11450659021E+02  0.14288618451E+04  0.14289610663E+04  0.10000000000E+02 0. -1.
</event>
<event>
 5    1  0.1271464E-008  0.3722986E+03  0.7957747E-01  0.3485393E+00
         13   -1    0    0    0    0  0.00000000000E+00  0.00000000000E+00  0.14999999963E+04  0.15000000000E+04  0.10566000000E+00 0. -1.
        994   -1    0    0    0    0 -0.00000000000E+00 -0.00000000000E+00  0.11368683772E-12  0.17120000000E+03  0.17120000000E+03 0.  0.
         13    1    1    2    0    0  0.55818477032E+02 -0.54557923049E+02  0.45205123877E+03  0.45874023475E+03  0.10566000000E+00 0. -1.
        994    1    1    2    0    0 -0.15774072196E+02  0.19443395190E+02  0.10225991409E+02  0.17332304483E+03  0.17120000000E+03 0.  0.
        998    1    1    2    0    0 -0.40044404836E+02  0.35114527859E+02  0.10377227661E+04  0.10391367204E+04  0.10000000000E+02 0. -1.
</event>
<event>
 5    1  0.1271464E-008  0.3859064E+03  0.7957747E-01  0.3425837E+00
         13   -1    0    0    0    0  0.00000000000E+00  0.00000000000E+00  0.14999999963E+04  0.15000000000E+04  0.10566000000E+00 0.  1.
        994   -1    0    0    0    0 -0.00000000000E+00 -0.00000000000E+00  0.11368683772E-12  0.17120000000E+03  0.17120000000E+03 0.  0.
         13    1    1    2    0    0 -0.11016810443E+02 -0.26937208351E+01  0.55788054510E+02  0.56929293288E+02  0.10566000000E+00 0.  1.
        994    1    1    2    0    0  0.58123055458E+01 -0.15158988653E+00  0.12916510605E+01  0.17130357334E+03  0.17120000000E+03 0.  0.
        998    1    1    2    0    0  0.52045048975E+01  0.28453107217E+01  0.14429202907E+04  0.14429671334E+04  0.10000000000E+02 0.  1.
</event>
<event>
 5    1  0.1271464E-008  0.3730205E+03  0.7957747E-01  0.3482123E+00
         13   -1    0    0    0    0  0.00000000000E+00  0.00000000000E+00  0.14999999963E+04  0.15000000000E+04  0.10566000000E+00 0. -1.
        994   -1    0    0    0    0 -0.00000000000E+00 -0.00000000000E+00  0.11368683772E-12  0.17120000000E+03  0.17120000000E+03 0.  0.
         13    1    1    2    0    0 -0.41566617502E+02  0.26161144964E+02  0.87325629973E+02  0.10018965022E+03  0.10566000000E+00 0. -1.
        994    1    1    2    0    0  0.43904934218E+02 -0.19072170951E+02  0.20685666969E+02  0.17896571675E+03  0.17120000000E+03 0.  0.
        998    1    1    2    0    0 -0.23383167165E+01 -0.70889740125E+01  0.13919886993E+04  0.13920446330E+04  0.10000000000E+02 0. -1.
</event>
<event>
 5    1  0.1271464E-008  0.3852137E+03  0.7957747E-01  0.3428767E+00
         13   -1    0    0    0    0  0.00000000000E+00  0.00000000000E+00  0.14999999963E+04  0.15000000000E+04  0.10566000000E+00 0.  1.
        994   -1    0    0    0    0 -0.00000000000E+00 -0.00000000000E+00  0.11368683772E-12  0.17120000000E+03  0.17120000000E+03 0.  0.
         13    1    1    2    0    0  0.18193252855E+02 -0.13691714748E+02  0.10697778289E+03  0.10937419576E+03  0.10566000000E+00 0.  1.
        994    1    1    2    0    0 -0.66282368260E+02  0.36001136613E+02  0.20450455486E+02  0.18819430201E+03  0.17120000000E+03 0.  0.
        998    1    1    2    0    0  0.48089115405E+02 -0.22309421865E+02  0.13725717579E+04  0.13736315022E+04  0.10000000000E+02 0.  1.
</event>
<event>
 5    1  0.1271464E-008  0.3851218E+03  0.7957747E-01  0.3429156E+00
         13   -1    0    0    0    0  0.00000000000E+00  0.00000000000E+00  0.14999999963E+04  0.15000000000E+04  0.10566000000E+00 0.  1.
        994   -1    0    0    0    0 -0.00000000000E+00 -0.00000000000E+00  0.11368683772E-12  0.17120000000E+03  0.17120000000E+03 0.  0.
         13    1    1    2    0    0 -0.11820282457E+02  0.79844119721E+01  0.63681872297E+02  0.65259956598E+02  0.10566000000E+00 0.  1.
        994    1    1    2    0    0  0.85758347651E+01 -0.94568077003E+01  0.21056019963E+01  0.17168823406E+03  0.17120000000E+03 0.  0.
        998    1    1    2    0    0  0.32444476916E+01  0.14723957282E+01  0.14342125220E+04  0.14342518093E+04  0.10000000000E+02 0.  1.
</event>
<event>
 5    1  0.1271464E-008  0.3848063E+03  0.7957747E-01  0.3430494E+00
         13   -1    0    0    0    0  0.00000000000E+00  0.00000000000E+00  0.14999999963E+04  0.15000000000E+04  0.10566000000E+00 0. -1.
        994   -1    0    0    0    0 -0.00000000000E+00 -0.00000000000E+00  0.11368683772E-12  0.17120000000E+03  0.17120000000E+03 0.  0.
         13    1    1    2    0    0  0.17075249502E+02  0.71653188137E+00  0.88543536747E+02  0.90177861071E+02  0.10566000000E+00 0. -1.
        994    1    1    2    0    0 -0.47251959214E+01  0.19732320481E+01  0.18126082044E+01  0.17128615434E+03  0.17120000000E+03 0.  0.
        998    1    1    2    0    0 -0.12350053581E+02 -0.26897639295E+01  0.14096438513E+04  0.14097359846E+04  0.10000000000E+02 0. -1.
</event>
<event>
 5    1  0.1271464E-008  0.3809014E+03  0.7957747E-01  0.3447243E+00
         13   -1    0    0    0    0  0.00000000000E+00  0.00000000000E+00  0.14999999963E+04  0.15000000000E+04  0.10566000000E+00 0. -1.
        994   -1    0    0    0    0 -0.00000000000E+00 -0.00000000000E+00  0.11368683772E-12  0.17120000000E+03  0.17120000000E+03 0.  0.
         13    1    1    2    0    0  0.39195304837E+02 -0.28089713829E+00  0.19758775251E+03  0.20143803497E+03  0.10566000000E+00 0. -1.
        994    1    1    2    0    0 -0.29077342777E+02  0.54796901430E+01  0.66023891546E+01  0.17386359714E+03  0.17120000000E+03 0.  0.
        998    1    1    2    0    0 -0.10117962060E+02 -0.51987930047E+01  0.12958098546E+04  0.12958983679E+04  0.10000000000E+02 0. -1.
</event>
<event>
 5    1  0.1271464E-008  0.3705598E+03  0.7957747E-01  0.3493322E+00
         13   -1    0    0    0    0  0.00000000000E+00  0.00000000000E+00  0.14999999963E+04  0.15000000000E+04  0.10566000000E+00 0. -1.
        994   -1    0    0    0    0 -0.00000000000E+00 -0.00000000000E+00  0.11368683772E-12  0.17120000000E+03  0.17120000000E+03 0.  0.
         13    1    1    2    0    0 -0.12427093128E+03 -0.10126730249E+03  0.67062286385E+03  0.68951676383E+03  0.10566000000E+00 0. -1.
        994    1    1    2    0    0  0.13021899514E+03  0.74955846961E+02  0.95091704722E+02  0.24683443438E+03  0.17120000000E+03 0.  0.
        998    1    1    2    0    0 -0.59480638620E+01  0.26311455533E+02  0.73428542771E+03  0.73484880179E+03  0.10000000000E+02 0. -1.
</event>
<event>
 5    1  0.1271464E-008  0.3788789E+03  0.7957747E-01  0.3456055E+00
         13   -1    0    0    0    0  0.00000000000E+00  0.00000000000E+00  0.14999999963E+04  0.15000000000E+04  0.10566000000E+00 0.  1.
        994   -1    0    0    0    0 -0.00000000000E+00 -0.00000000000E+00  0.11368683772E-12  0.17120000000E+03  0.17120000000E+03 0.  0.
         13    1    1    2    0    0  0.17852835310E+02  0.21078146442E+01  0.31683571672E+02  0.36428374780E+02  0.10566000000E+00 0.  1.
        994    1    1    2    0    0 -0.20409113165E+02 -0.26237706732E+01  0.61221459581E+01  0.17254082631E+03  0.17120000000E+03 0.  0.
        998    1    1    2    0    0  0.25562778550E+01  0.51595602904E+00  0.14621942786E+04  0.14622307989E+04  0.10000000000E+02 0.  1.
</event>
<event>
 5    1  0.1271464E-008  0.3859177E+03  0.7957747E-01  0.3425789E+00
         13   -1    0    0    0    0  0.00000000000E+00  0.00000000000E+00  0.14999999963E+04  0.15000000000E+04  0.10566000000E+00 0. -1.
        994   -1    0    0    0    0 -0.00000000000E+00 -0.00000000000E+00  0.11368683772E-12  0.17120000000E+03  0.17120000000E+03 0.  0.
         13    1    1    2    0    0 -0.11664248942E+02  0.53113096912E+01  0.64191704586E+02  0.65458771877E+02  0.10566000000E+00 0. -1.
        994    1    1    2    0    0  0.21512863642E+02 -0.51839308503E+01  0.27824301633E+01  0.17264662858E+03  0.17120000000E+03 0.  0.
        998    1    1    2    0    0 -0.98486147001E+01 -0.12737884095E+00  0.14330258615E+04  0.14330945995E+04  0.10000000000E+02 0. -1.
</event>
<event>
 5    1  0.1271464E-008  0.3854115E+03  0.7957747E-01  0.3427929E+00
         13   -1    0    0    0    0  0.00000000000E+00  0.00000000000E+00  0.14999999963E+04  0.15000000000E+04  0.10566000000E+00 0.  1.
        994   -1    0    0    0    0 -0.00000000000E+00 -0.00000000000E+00  0.11368683772E-12  0.17120000000E+03  0.17120000000E+03 0.  0.
         13    1    1    2    0    0 -0.65451793678E+01  0.77580926304E+01  0.36576986385E+02  0.37959379227E+02  0.10566000000E+00 0.  1.
        994    1    1    2    0    0 -0.21893599352E+01 -0.79077570904E+01  0.16471271672E+01  0.17140443094E+03  0.17120000000E+03 0.  0.
        998    1    1    2    0    0  0.87345393030E+01  0.14966446007E+00  0.14617758827E+04  0.14618361898E+04  0.10000000000E+02 0.  1.
</event>
<event>
 5    1  0.1271464E-008  0.3843912E+03  0.7957747E-01  0.3432258E+00
         13   -1    0    0    0    0  0.00000000000E+00  0.00000000000E+00  0.14999999963E+04  0.15000000000E+04  0.10566000000E+00 0. -1.
        994   -1    0    0    0    0 -0.00000000000E+00 -0.00000000000E+00  0.11368683772E-12  0.17120000000E+03  0.17120000000E+03 0.  0.
         13    1    1    2    0    0  0.10759660360E+02 -0.64005198930E+01  0.36229403765E+02  0.38331681507E+02  0.10566000000E+00 0. -1.
        994    1    1    2    0    0 -0.19674253352E+02  0.29382619020E+02  0.60638905718E+01  0.17491891068E+03  0.17120000000E+03 0.  0.
        998    1    1    2    0    0  0.89145929914E+01 -0.22982099127E+02  0.14577067019E+04  0.14579494078E+04  0.10000000000E+02 0. -1.
</event>
<event>
 5    1  0.1271464E-008  0.3717115E+03  0.7957747E-01  0.3488062E+00
         13   -1    0    0    0    0  0.00000000000E+00  0.00000000000E+00  0.14999999963E+04  0.15000000000E+04  0.10566000000E+00 0.  1.
        994   -1    0    0    0    0 -0.00000000000E+00 -0.00000000000E+00  0.11368683772E-12  0.17120000000E+03  0.17120000000E+03 0.  0.
         13    1    1    2    0    0  0.46111047740E+02 -0.27172446963E+02  0.19913832798E+03  0.20620537198E+03  0.10566000000E+00 0.  1.
        994    1    1    2    0    0 -0.15232011298E+02 -0.22576827899E+02  0.10931048315E+02  0.17369702111E+03  0.17120000000E+03 0.  0.
        998    1    1    2    0    0 -0.30879036442E+02  0.49749274862E+02  0.12899306200E+04  0.12912976069E+04  0.10000000000E+02 0.  1.
</event>
<event>
 5    1  0.1271464E-008  0.3792893E+03  0.7957747E-01  0.3454259E+00
         13   -1    0    0    0    0  0.00000000000E+00  0.00000000000E+00  0.14999999963E+04  0.15000000000E+04  0.10566000000E+00 0.  1.
        994   -1    0    0    0    0 -0.00000000000E+00 -0.00000000000E+00  0.11368683772E-12  0.17120000000E+03  0.17120000000E+03 0.  0.
         13    1    1    2    0    0  0.13749171473E+02 -0.59905128521E+01  0.24094492522E+02  0.28381009396E+02  0.10566000000E+00 0.  1.
        994    1    1    2    0    0  0.25584327005E+01 -0.31023234629E+01  0.45465173790E+01  0.17130756203E+03  0.17120000000E+03 0.  0.
        998    1    1    2    0    0 -0.16307604173E+02  0.90928363151E+01  0.14713589864E+04  0.14715114286E+04  0.10000000000E+02 0.  1.
</event>
<event>
 5    1  0.1271464E-008  0.3822326E+03  0.7957747E-01  0.3441494E+00
         13   -1    0    0    0    0  0.00000000000E+00  0.00000000000E+00  0.14999999963E+04  0.15000000000E+04  0.10566000000E+00 0.  1.
        994   -1    0    0    0    0 -0.00000000000E+00 -0.00000000000E+00  0.11368683772E-12  0.17120000000E+03  0.17120000000E+03 0.  0.
         13    1    1    2    0    0 -0.54225347191E+01  0.16447130264E+02  0.47909546735E+02  0.50943574757E+02  0.10566000000E+00 0.  1.
        994    1    1    2    0    0 -0.28338901971E+01 -0.17649292497E+02  0.40714070221E+01  0.17217881639E+03  0.17120000000E+03 0.  0.
        998    1    1    2    0    0  0.82564249162E+01  0.12021622334E+01  0.14480190425E+04  0.14480776089E+04  0.10000000000E+02 0.  1.
</event>
<event>
 5    1  0.1271464E-008  0.3690486E+03  0.7957747E-01  0.3500275E+00
         13   -1    0    0    0    0  0.00000000000E+00  0.00000000000E+00  0.14999999963E+04  0.15000000000E+04  0.10566000000E+00 0.  1.
        994   -1    0    0    0    0 -0.00000000000E+00 -0.00000000000E+00  0.11368683772E-12  0.17120000000E+03  0.17120000000E+03 0.  0.
         13    1    1    2    0    0 -0.47387091613E+01 -0.31974611685E+02  0.44297272606E+02  0.54836946316E+02  0.10566000000E+00 0.  1.
        994    1    1    2    0    0  0.41408053222E+01  0.35615887602E+02  0.14929575304E+02  0.17555047689E+03  0.17120000000E+03 0.  0.
        998    1    1    2    0    0  0.59790383910E+00 -0.36412759162E+01  0.14407731484E+04  0.14408125768E+04  0.10000000000E+02 0.  1.
</event>
<event>
 5    1  0.1332112E-008  0.3854533E+03  0.7957747E-01  0.3427752E+00
         13   -1    0    0    0    0  0.00000000000E+00  0.00000000000E+00  0.14999999963E+04  0.15000000000E+04  0.10566000000E+00 0.  1.
        994   -1    0    0    0    0 -0.00000000000E+00 -0.00000000000E+00  0.11368683772E-12  0.17120000000E+03  0.17120000000E+03 0.  0.
         13    1    1    2    0    0  0.98266887552E+01 -0.88854794362E+01  0.60336587301E+02  0.61774027615E+02  0.10566000000E+00 0.  1.
        994    1    1    2    0    0 -0.10651657694E+02  0.10259532587E+02  0.21238209350E+01  0.17185070973E+03  0.17120000000E+03 0.  0.
        998    1    1    2    0    0  0.82496893834E+00 -0.13740531505E+01  0.14375395880E+04  0.14375752627E+04  0.10000000000E+02 0.  1.
</event>
<event>
 5    1  0.1271464E-008  0.3851465E+03  0.7957747E-01  0.3429051E+00
         13   -1    0    0    0    0  0.00000000000E+00  0.00000000000E+00  0.14999999963E+04  0.15000000000E+04  0.10566000000E+00 0. -1.
        994   -1    0    0    0    0 -0.00000000000E+00 -0.00000000000E+00  0.11368683772E-12  0.17120000000E+03  0.17120000000E+03 0.  0.
         13    1    1    2    0    0  0.13419057539E+01  0.13309826698E+02  0.56095322562E+02  0.57668436559E+02  0.10566000000E+00 0. -1.
        994    1    1    2    0    0  0.60252251701E+00 -0.13196629074E+02  0.21312534703E+01  0.17172214852E+03  0.17120000000E+03 0.  0.
        998    1    1    2    0    0 -0.19444282710E+01 -0.11319762430E+00  0.14417734202E+04  0.14418094149E+04  0.10000000000E+02 0. -1.
</event>
<event>
 5    1  0.1271464E-008  0.3824476E+03  0.7957747E-01  0.3440570E+00
         13   -1    0    0    0    0  0.00000000000E+00  0.00000000000E+00  0.14999999963E+04  0.15000000000E+04  0.10566000000E+00 0.  1.
        994   -1    0    0    0    0 -0.00000000000E+00 -0.00000000000E+00  0.11368683772E-12  0.17120000000E+03  0.17120000000E+03 0.  0.
         13    1    1    2    0    0 -0.10590823374E+02 -0.30483447044E+02  0.16124276693E+03  0.16444040602E+03  0.10566000000E+00 0.  1.
        994    1    1    2    0    0  0.16871082448E+02  0.28494298704E+02  0.65474945784E+01  0.17449604055E+03  0.17120000000E+03 0.  0.
        998    1    1    2    0    0 -0.62802590738E+01  0.19891483397E+01  0.13322097348E+04  0.13322635534E+04  0.10000000000E+02 0.  1.
</event>
<event>
 5    1  0.1271464E-008  0.3726151E+03  0.7957747E-01  0.3483958E+00
         13   -1    0    0    0    0  0.00000000000E+00  0.00000000000E+00  0.14999999963E+04  0.15000000000E+04  0.10566000000E+00 0. -1.
        994   -1    0    0    0    0 -0.00000000000E+00 -0.00000000000E+00  0.11368683772E-12  0.17120000000E+03  0.17120000000E+03 0.  0.
         13    1    1    2    0    0  0.70561642748E+02  0.26008684168E+02  0.45120870288E+03  0.45743272926E+03  0.10566000000E+00 0. -1.
        994    1    1    2    0    0 -0.18687569260E+02 -0.16778164962E+01  0.91158252374E+01  0.17246616649E+03  0.17120000000E+03 0.  0.
        998    1    1    2    0    0 -0.51874073488E+02 -0.24330867672E+02  0.10396754682E+04  0.10413011042E+04  0.10000000000E+02 0. -1.
</event>
<event>
 5    1  0.1271464E-008  0.3745737E+03  0.7957747E-01  0.3475132E+00
         13   -1    0    0    0    0  0.00000000000E+00  0.00000000000E+00  0.14999999963E+04  0.15000000000E+04  0.10566000000E+00 0. -1.
        994   -1    0    0    0    0 -0.00000000000E+00 -0.00000000000E+00  0.11368683772E-12  0.17120000000E+03  0.17120000000E+03 0.  0.
         13    1    1    2    0    0  0.13568042410E+02  0.56939919007E+02  0.12615791870E+03  0.13907579863E+03  0.10566000000E+00 0. -1.
        994    1    1    2    0    0 -0.33535441134E+02 -0.24593407237E+02  0.19547922399E+02  0.17725976070E+03  0.17120000000E+03 0.  0.
        998    1    1    2    0    0  0.19967398724E+02 -0.32346511770E+02  0.13542941552E+04  0.13548644407E+04  0.10000000000E+02 0.  1.
</event>
<event>
 5    1  0.1271464E-008  0.3832981E+03  0.7957747E-01  0.3436922E+00
         13   -1    0    0    0    0  0.00000000000E+00  0.00000000000E+00  0.14999999963E+04  0.15000000000E+04  0.10566000000E+00 0. -1.
        994   -1    0    0    0    0 -0.00000000000E+00 -0.00000000000E+00  0.11368683772E-12  0.17120000000E+03  0.17120000000E+03 0.  0.
         13    1    1    2    0    0 -0.70980169125E+02 -0.88361741159E+02  0.28921963794E+03  0.31063482072E+03  0.10566000000E+00 0. -1.
        994    1    1    2    0    0  0.65543785176E+02  0.82447158994E+02  0.60077753106E+02  0.20979108232E+03  0.17120000000E+03 0.  0.
        998    1    1    2    0    0  0.54363839490E+01  0.59145821645E+01  0.11507026052E+04  0.11507740970E+04  0.10000000000E+02 0.  1.
</event>
<event>
 5    1  0.1271464E-008  0.3727137E+03  0.7957747E-01  0.3483511E+00
         13   -1    0    0    0    0  0.00000000000E+00  0.00000000000E+00  0.14999999963E+04  0.15000000000E+04  0.10566000000E+00 0.  1.
        994   -1    0    0    0    0 -0.00000000000E+00 -0.00000000000E+00  0.11368683772E-12  0.17120000000E+03  0.17120000000E+03 0.  0.
         13    1    1    2    0    0 -0.44550518464E+02  0.13010017939E+02  0.92044225490E+02  0.10308326669E+03  0.10566000000E+00 0.  1.
        994    1    1    2    0    0  0.41408628301E+00  0.10834696639E+02  0.12796058356E+02  0.17201959548E+03  0.17120000000E+03 0.  0.
        998    1    1    2    0    0  0.44136432181E+02 -0.23844714578E+02  0.13951597124E+04  0.13960971378E+04  0.10000000000E+02 0.  1.
</event>
<event>
 5    1  0.1271464E-008  0.3840539E+03  0.7957747E-01  0.3433695E+00
         13   -1    0    0    0    0  0.00000000000E+00  0.00000000000E+00  0.14999999963E+04  0.15000000000E+04  0.10566000000E+00 0.  1.
        994   -1    0    0    0    0 -0.00000000000E+00 -0.00000000000E+00  0.11368683772E-12  0.17120000000E+03  0.17120000000E+03 0.  0.
         13    1    1    2    0    0 -0.16860824120E+02 -0.41542455198E+01  0.67027316298E+02  0.69240287694E+02  0.10566000000E+00 0.  1.
        994    1    1    2    0    0  0.21787234708E+02  0.49745005747E+01  0.37498458269E+01  0.17269316893E+03  0.17120000000E+03 0.  0.
        998    1    1    2    0    0 -0.49264105878E+01 -0.82025505486E+00  0.14292228342E+04  0.14292665434E+04  0.10000000000E+02 0.  1.
</event>
<event>
 5    1  0.1271464E-008  0.3834570E+03  0.7957747E-01  0.3436243E+00
         13   -1    0    0    0    0  0.00000000000E+00  0.00000000000E+00  0.14999999963E+04  0.15000000000E+04  0.10566000000E+00 0.  1.
        994   -1    0    0    0    0 -0.00000000000E+00 -0.00000000000E+00  0.11368683772E-12  0.17120000000E+03  0.17120000000E+03 0.  0.
         13    1    1    2    0    0  0.13897362390E+02 -0.18875554224E+02  0.11168874068E+03  0.11412190494E+03  0.10566000000E+00 0.  1.
        994    1    1    2    0    0 -0.50958615248E+00  0.21372782104E+02  0.39102589962E+01  0.17257400041E+03  0.17120000000E+03 0.  0.
        998    1    1    2    0    0 -0.13387776237E+02 -0.24972278795E+01  0.13844009966E+04  0.13845040946E+04  0.10000000000E+02 0.  1.
</event>
<event>
 5    1  0.1271464E-008  0.3830494E+03  0.7957747E-01  0.3437987E+00
         13   -1    0    0    0    0  0.00000000000E+00  0.00000000000E+00  0.14999999963E+04  0.15000000000E+04  0.10566000000E+00 0.  1.
        994   -1    0    0    0    0 -0.00000000000E+00 -0.00000000000E+00  0.11368683772E-12  0.17120000000E+03  0.17120000000E+03 0.  0.
         13    1    1    2    0    0 -0.48075668468E+02 -0.10632851186E+02  0.27596923238E+03  0.28032722988E+03  0.10566000000E+00 0.  1.
        994    1    1    2    0    0  0.10109118195E+03 -0.41515620261E+02  0.43187175241E+02  0.20764764843E+03  0.17120000000E+03 0.  0.
        998    1    1    2    0    0 -0.53015513480E+02  0.52148471448E+02  0.11808435887E+04  0.11832251217E+04  0.10000000000E+02 0.  1.
</event>
<event>
 5    1  0.1271464E-008  0.3839211E+03  0.7957747E-01  0.3434261E+00
         13   -1    0    0    0    0  0.00000000000E+00  0.00000000000E+00  0.14999999963E+04  0.15000000000E+04  0.10566000000E+00 0. -1.
        994   -1    0    0    0    0 -0.00000000000E+00 -0.00000000000E+00  0.11368683772E-12  0.17120000000E+03  0.17120000000E+03 0.  0.
         13    1    1    2    0    0 -0.77796174661E+00 -0.14639686531E+02  0.48534127586E+02  0.50700082355E+02  0.10566000000E+00 0. -1.
        994    1    1    2    0    0 -0.39443188810E+01  0.12361178457E+02  0.27225264645E+01  0.17171257535E+03  0.17120000000E+03 0.  0.
        998    1    1    2    0    0  0.47222806277E+01  0.22785080745E+01  0.14487433422E+04  0.14487873423E+04  0.10000000000E+02 0. -1.
</event>
<event>
 5    1  0.1271464E-008  0.3733641E+03  0.7957747E-01  0.3480572E+00
         13   -1    0    0    0    0  0.00000000000E+00  0.00000000000E+00  0.14999999963E+04  0.15000000000E+04  0.10566000000E+00 0. -1.
        994   -1    0    0    0    0 -0.00000000000E+00 -0.00000000000E+00  0.11368683772E-12  0.17120000000E+03  0.17120000000E+03 0.  0.
         13    1    1    2    0    0  0.15139050397E+02  0.21350046311E+02  0.40944754393E+02  0.48595261094E+02  0.10566000000E+00 0. -1.
        994    1    1    2    0    0 -0.17396976279E+02 -0.25651110172E+02  0.10811756655E+02  0.17431858283E+03  0.17120000000E+03 0.  0.
        998    1    1    2    0    0  0.22579258815E+01  0.43010638605E+01  0.14482434852E+04  0.14482861561E+04  0.10000000000E+02 0. -1.
</event>
<event>
 5    1  0.1271464E-008  0.3820849E+03  0.7957747E-01  0.3442130E+00
         13   -1    0    0    0    0  0.00000000000E+00  0.00000000000E+00  0.14999999963E+04  0.15000000000E+04  0.10566000000E+00 0. -1.
        994   -1    0    0    0    0 -0.00000000000E+00 -0.00000000000E+00  0.11368683772E-12  0.17120000000E+03  0.17120000000E+03 0.  0.
         13    1    1    2    0    0  0.11759248608E+02 -0.14957777298E+00  0.21035182093E+02  0.24099633836E+02  0.10566000000E+00 0. -1.
        994    1    1    2    0    0 -0.10778475364E+02  0.19705256256E+02  0.47610722251E+01  0.17273268499E+03  0.17120000000E+03 0.  0.
        998    1    1    2    0    0 -0.98077324327E+00 -0.19555678483E+02  0.14742037420E+04  0.14743676812E+04  0.10000000000E+02 0. -1.
</event>
<event>
 5    1  0.1271464E-008  0.3830755E+03  0.7957747E-01  0.3437875E+00
         13   -1    0    0    0    0  0.00000000000E+00  0.00000000000E+00  0.14999999963E+04  0.15000000000E+04  0.10566000000E+00 0.  1.
        994   -1    0    0    0    0 -0.00000000000E+00 -0.00000000000E+00  0.11368683772E-12  0.17120000000E+03  0.17120000000E+03 0.  0.
         13    1    1    2    0    0 -0.22964981047E+02 -0.24402144856E+02  0.18111866588E+03  0.18419239214E+03  0.10566000000E+00 0.  1.
        994    1    1    2    0    0  0.30047058311E+02  0.27570281364E+02  0.81113888452E+01  0.17617656131E+03  0.17120000000E+03 0.  0.
        998    1    1    2    0    0 -0.70820772631E+01 -0.31681365072E+01  0.13107699416E+04  0.13108310465E+04  0.10000000000E+02 0.  1.
</event>
<event>
 5    1  0.1271464E-008  0.3803864E+03  0.7957747E-01  0.3449478E+00
         13   -1    0    0    0    0  0.00000000000E+00  0.00000000000E+00  0.14999999963E+04  0.15000000000E+04  0.10566000000E+00 0. -1.
        994   -1    0    0    0    0 -0.00000000000E+00 -0.00000000000E+00  0.11368683772E-12  0.17120000000E+03  0.17120000000E+03 0.  0.
         13    1    1    2    0    0  0.23920436033E+02 -0.16487900322E+00  0.67688412415E+02  0.71790993756E+02  0.10566000000E+00 0. -1.
        994    1    1    2    0    0 -0.26875757893E+02  0.42860258227E+01  0.64150115713E+01  0.17346835087E+03  0.17120000000E+03 0.  0.
        998    1    1    2    0    0  0.29553218602E+01 -0.41211468195E+01  0.14258965723E+04  0.14259406554E+04  0.10000000000E+02 0. -1.
</event>
<event>
 5    1  0.1271464E-008  0.3841425E+03  0.7957747E-01  0.3433317E+00
         13   -1    0    0    0    0  0.00000000000E+00  0.00000000000E+00  0.14999999963E+04  0.15000000000E+04  0.10566000000E+00 0. -1.
        994   -1    0    0    0    0 -0.00000000000E+00 -0.00000000000E+00  0.11368683772E-12  0.17120000000E+03  0.17120000000E+03 0.  0.
         13    1    1    2    0    0  0.30862785347E+01 -0.13644025168E+02  0.46532187762E+02  0.48589507097E+02  0.10566000000E+00 0. -1.
        994    1    1    2    0    0 -0.19640022238E+01  0.11896432365E+02  0.25360718148E+01  0.17164280954E+03  0.17120000000E+03 0.  0.
        998    1    1    2    0    0 -0.11222763110E+01  0.17475928033E+01  0.14509317367E+04  0.14509676834E+04  0.10000000000E+02 0. -1.
</event>
<event>
 5    1  0.1271464E-008  0.3689189E+03  0.7957747E-01  0.3500874E+00
         13   -1    0    0    0    0  0.00000000000E+00  0.00000000000E+00  0.14999999963E+04  0.15000000000E+04  0.10566000000E+00 0. -1.
        994   -1    0    0    0    0 -0.00000000000E+00 -0.00000000000E+00  0.11368683772E-12  0.17120000000E+03  0.17120000000E+03 0.  0.
         13    1    1    2    0    0  0.27982112928E+02  0.94655858943E+02  0.52472332208E+03  0.53392631156E+03  0.10566000000E+00 0. -1.
        994    1    1    2    0    0 -0.23743649621E+02 -0.45882159632E+02  0.19155855945E+02  0.17984804777E+03  0.17120000000E+03 0.  0.
        998    1    1    2    0    0 -0.42384633071E+01 -0.48773699311E+02  0.95612081825E+03  0.95742564067E+03  0.10000000000E+02 0. -1.
</event>
<event>
 5    1  0.1271464E-008  0.3796908E+03  0.7957747E-01  0.3452506E+00
         13   -1    0    0    0    0  0.00000000000E+00  0.00000000000E+00  0.14999999963E+04  0.15000000000E+04  0.10566000000E+00 0.  1.
        994   -1    0    0    0    0 -0.00000000000E+00 -0.00000000000E+00  0.11368683772E-12  0.17120000000E+03  0.17120000000E+03 0.  0.
         13    1    1    2    0    0  0.22351485991E+01  0.99369880032E+01  0.10165495166E+02  0.14390555091E+02  0.10566000000E+00 0.  1.
        994    1    1    2    0    0 -0.10800705576E+01 -0.83709426050E+01  0.45277148541E+01  0.17146772126E+03  0.17120000000E+03 0.  0.
        998    1    1    2    0    0 -0.11550780415E+01 -0.15660453982E+01  0.14853067863E+04  0.14853417236E+04  0.10000000000E+02 0.  1.
</event>
<event>
 5    1  0.1271464E-008  0.3820681E+03  0.7957747E-01  0.3442203E+00
         13   -1    0    0    0    0  0.00000000000E+00  0.00000000000E+00  0.14999999963E+04  0.15000000000E+04  0.10566000000E+00 0.  1.
        994   -1    0    0    0    0 -0.00000000000E+00 -0.00000000000E+00  0.11368683772E-12  0.17120000000E+03  0.17120000000E+03 0.  0.
         13    1    1    2    0    0 -0.50110807674E+02  0.28041341580E+02  0.31521432000E+03  0.32040207331E+03  0.10566000000E+00 0.  1.
        994    1    1    2    0    0  0.69004662097E+02 -0.51196242226E+02  0.28005238908E+02  0.19358830547E+03  0.17120000000E+03 0.  0.
        998    1    1    2    0    0 -0.18893854423E+02  0.23154900646E+02  0.11567804374E+04  0.11572096212E+04  0.10000000000E+02 0.  1.
</event>
<event>
 5    1  0.1271464E-008  0.3777703E+03  0.7957747E-01  0.3460925E+00
         13   -1    0    0    0    0  0.00000000000E+00  0.00000000000E+00  0.14999999963E+04  0.15000000000E+04  0.10566000000E+00 0.  1.
        994   -1    0    0    0    0 -0.00000000000E+00 -0.00000000000E+00  0.11368683772E-12  0.17120000000E+03  0.17120000000E+03 0.  0.
         13    1    1    2    0    0  0.97442398337E+01 -0.55702693961E+01  0.95472743940E+01  0.14735661623E+02  0.10566000000E+00 0.  1.
        994    1    1    2    0    0 -0.82313240507E+01  0.72938386593E+01  0.56704089033E+01  0.17164657968E+03  0.17120000000E+03 0.  0.
        998    1    1    2    0    0 -0.15129157830E+01 -0.17235692632E+01  0.14847823130E+04  0.14848177587E+04  0.10000000000E+02 0.  1.
</event>
<event>
 5    1  0.1271464E-008  0.3824660E+03  0.7957747E-01  0.3440491E+00
         13   -1    0    0    0    0  0.00000000000E+00  0.00000000000E+00  0.14999999963E+04  0.15000000000E+04  0.10566000000E+00 0.  1.
        994   -1    0    0    0    0 -0.00000000000E+00 -0.00000000000E+00  0.11368683772E-12  0.17120000000E+03  0.17120000000E+03 0.  0.
         13    1    1    2    0    0  0.24380200160E+02  0.85917836399E+01  0.13772243043E+03  0.14012741314E+03  0.10566000000E+00 0.  1.
        994    1    1    2    0    0  0.11046253361E+02 -0.32306565632E+01  0.33327959221E+01  0.17161877631E+03  0.17120000000E+03 0.  0.
        998    1    1    2    0    0 -0.35426453521E+02 -0.53611270768E+01  0.13589447699E+04  0.13594538105E+04  0.10000000000E+02 0.  1.
</event>
<event>
 5    1  0.1271464E-008  0.3837172E+03  0.7957747E-01  0.3435131E+00
         13   -1    0    0    0    0  0.00000000000E+00  0.00000000000E+00  0.14999999963E+04  0.15000000000E+04  0.10566000000E+00 0. -1.
        994   -1    0    0    0    0 -0.00000000000E+00 -0.00000000000E+00  0.11368683772E-12  0.17120000000E+03  0.17120000000E+03 0.  0.
         13    1    1    2    0    0 -0.10156354130E+02  0.69473369853E+01  0.32592075445E+02  0.34837789342E+02  0.10566000000E+00 0. -1.
        994    1    1    2    0    0  0.92982195984E+01 -0.29486314594E+01  0.25826706862E+01  0.17149711806E+03  0.17120000000E+03 0.  0.
        998    1    1    2    0    0  0.85813453137E+00 -0.39987055259E+01  0.14648252501E+04  0.14648650926E+04  0.10000000000E+02 0. -1.
</event>
<event>
 5    1  0.1271464E-008  0.3829272E+03  0.7957747E-01  0.3438511E+00
         13   -1    0    0    0    0  0.00000000000E+00  0.00000000000E+00  0.14999999963E+04  0.15000000000E+04  0.10566000000E+00 0.  1.
        994   -1    0    0    0    0 -0.00000000000E+00 -0.00000000000E+00  0.11368683772E-12  0.17120000000E+03  0.17120000000E+03 0.  0.
         13    1    1    2    0    0 -0.88954397930E+01  0.26793261419E+02  0.13961500388E+03  0.14244075323E+03  0.10566000000E+00 0.  1.
        994    1    1    2    0    0  0.85531197906E+01 -0.24163921890E+02  0.48412282076E+01  0.17317600431E+03  0.17120000000E+03 0.  0.
        998    1    1    2    0    0  0.34232000246E+00 -0.26293395285E+01  0.13555437642E+04  0.13555832425E+04  0.10000000000E+02 0.  1.
</event>
<event>
 5    1  0.1271464E-008  0.3726544E+03  0.7957747E-01  0.3483780E+00
         13   -1    0    0    0    0  0.00000000000E+00  0.00000000000E+00  0.14999999963E+04  0.15000000000E+04  0.10566000000E+00 0.  1.
        994   -1    0    0    0    0 -0.00000000000E+00 -0.00000000000E+00  0.11368683772E-12  0.17120000000E+03  0.17120000000E+03 0.  0.
         13    1    1    2    0    0  0.12038997463E+02  0.68762862808E+01  0.86403560110E+01  0.16336697615E+02  0.10566000000E+00 0.  1.
        994    1    1    2    0    0 -0.10023840324E+02 -0.11861507048E+01  0.82373494481E+01  0.17169501523E+03  0.17120000000E+03 0.  0.
        998    1    1    2    0    0 -0.20151571391E+01 -0.56901355760E+01  0.14831222908E+04  0.14831682872E+04  0.10000000000E+02 0.  1.
</event>
<event>
 5    1  0.1271464E-008  0.3790484E+03  0.7957747E-01  0.3455312E+00
         13   -1    0    0    0    0  0.00000000000E+00  0.00000000000E+00  0.14999999963E+04  0.15000000000E+04  0.10566000000E+00 0.  1.
        994   -1    0    0    0    0 -0.00000000000E+00 -0.00000000000E+00  0.11368683772E-12  0.17120000000E+03  0.17120000000E+03 0.  0.
         13    1    1    2    0    0 -0.38195728959E+02  0.22864475874E+01  0.14158676437E+03  0.14666616706E+03  0.10566000000E+00 0.  1.
        994    1    1    2    0    0  0.41399208901E+02  0.10637291599E+02  0.10765719754E+02  0.17678344717E+03  0.17120000000E+03 0.  0.
        998    1    1    2    0    0 -0.32034799415E+01 -0.12923739186E+02  0.13476475122E+04  0.13477503858E+04  0.10000000000E+02 0.  1.
</event>
<event>
 5    1  0.1271464E-008  0.3834277E+03  0.7957747E-01  0.3436368E+00
         13   -1    0    0    0    0  0.00000000000E+00  0.00000000000E+00  0.14999999963E+04  0.15000000000E+04  0.10566000000E+00 0.  1.
        994   -1    0    0    0    0 -0.00000000000E+00 -0.00000000000E+00  0.11368683772E-12  0.17120000000E+03  0.17120000000E+03 0.  0.
         13    1    1    2    0    0  0.57245492624E+01 -0.20950370573E+02  0.94608468255E+02  0.97069366543E+02  0.10566000000E+00 0.  1.
        994    1    1    2    0    0 -0.12303723863E+02  0.15092395374E+02  0.36670694336E+01  0.17234282526E+03  0.17120000000E+03 0.  0.
        998    1    1    2    0    0  0.65791746011E+01  0.58579751988E+01  0.14017244586E+04  0.14017878082E+04  0.10000000000E+02 0.  1.
</event>
<event>
 5    1  0.1271464E-008  0.3847894E+03  0.7957747E-01  0.3430566E+00
         13   -1    0    0    0    0  0.00000000000E+00  0.00000000000E+00  0.14999999963E+04  0.15000000000E+04  0.10566000000E+00 0. -1.
        994   -1    0    0    0    0 -0.00000000000E+00 -0.00000000000E+00  0.11368683772E-12  0.17120000000E+03  0.17120000000E+03 0.  0.
         13    1    1    2    0    0 -0.14333318059E+01 -0.10365053307E+02  0.31713608378E+02  0.33395402236E+02  0.10566000000E+00 0. -1.
        994    1    1    2    0    0  0.23425289646E+01  0.35419361022E+01  0.17940940952E+01  0.17126205513E+03  0.17120000000E+03 0.  0.
        998    1    1    2    0    0 -0.90919715863E+00  0.68231172049E+01  0.14664922938E+04  0.14665425426E+04  0.10000000000E+02 0. -1.
</event>
<event>
 5    1  0.1271464E-008  0.3819911E+03  0.7957747E-01  0.3442534E+00
         13   -1    0    0    0    0  0.00000000000E+00  0.00000000000E+00  0.14999999963E+04  0.15000000000E+04  0.10566000000E+00 0. -1.
        994   -1    0    0    0    0 -0.00000000000E+00 -0.00000000000E+00  0.11368683772E-12  0.17120000000E+03  0.17120000000E+03 0.  0.
         13    1    1    2    0    0 -0.49437984829E+01  0.20398793779E+02  0.69201119485E+02  0.72314300336E+02  0.10566000000E+00 0. -1.
        994    1    1    2    0    0  0.82568619819E+01 -0.12126529818E+02  0.38465262279E+01  0.17187048688E+03  0.17120000000E+03 0.  0.
        998    1    1    2    0    0 -0.33130634990E+01 -0.82722639616E+01  0.14269523506E+04  0.14270152128E+04  0.10000000000E+02 0. -1.
</event>
<event>
 5    1  0.1271464E-008  0.3744470E+03  0.7957747E-01  0.3475700E+00
         13   -1    0    0    0    0  0.00000000000E+00  0.00000000000E+00  0.14999999963E+04  0.15000000000E+04  0.10566000000E+00 0.  1.
        994   -1    0    0    0    0 -0.00000000000E+00 -0.00000000000E+00  0.11368683772E-12  0.17120000000E+03  0.17120000000E+03 0.  0.
         13    1    1    2    0    0 -0.36257482814E+02 -0.43755040818E+02  0.26533523949E+03  0.27135200227E+03  0.10566000000E+00 0.  1.
        994    1    1    2    0    0 -0.65636420477E+01  0.21773538624E+02  0.87262019286E+01  0.17292413071E+03  0.17120000000E+03 0.  0.
        998    1    1    2    0    0  0.42821124862E+02  0.21981502194E+02  0.12259385549E+04  0.12269238670E+04  0.10000000000E+02 0.  1.
</event>
<event>
 5    1  0.1271464E-008  0.3784423E+03  0.7957747E-01  0.3457969E+00
         13   -1    0    0    0    0  0.00000000000E+00  0.00000000000E+00  0.14999999963E+04  0.15000000000E+04  0.10566000000E+00 0.  1.
        994   -1    0    0    0    0 -0.00000000000E+00 -0.00000000000E+00  0.11368683772E-12  0.17120000000E+03  0.17120000000E+03 0.  0.
         13    1    1    2    0    0  0.46301756578E+01  0.28776625053E+02  0.81766928539E+02  0.86806534563E+02  0.10566000000E+00 0.  1.
        994    1    1    2    0    0 -0.53703978145E+01 -0.25204799348E+02  0.71563394031E+01  0.17327658895E+03  0.17120000000E+03 0.  0.
        998    1    1    2    0    0  0.74022215664E+00 -0.35718257051E+01  0.14110767283E+04  0.14111168765E+04  0.10000000000E+02 0.  1.
</event>
<event>
 5    1  0.1271464E-008  0.3850447E+03  0.7957747E-01  0.3429483E+00
         13   -1    0    0    0    0  0.00000000000E+00  0.00000000000E+00  0.14999999963E+04  0.15000000000E+04  0.10566000000E+00 0. -1.
        994   -1    0    0    0    0 -0.00000000000E+00 -0.00000000000E+00  0.11368683772E-12  0.17120000000E+03  0.17120000000E+03 0.  0.
         13    1    1    2    0    0 -0.14361508143E+02  0.87817043361E+01  0.82228499391E+02  0.83933953340E+02  0.10566000000E+00 0. -1.
        994    1    1    2    0    0  0.18320919686E+02 -0.99253667834E+01  0.30368863491E+01  0.17249009155E+03  0.17120000000E+03 0.  0.
        998    1    1    2    0    0 -0.39594115423E+01  0.11436624473E+01  0.14147346105E+04  0.14147759551E+04  0.10000000000E+02 0. -1.
</event>
<event>
 5    1  0.1271464E-008  0.4054726E+03  0.7957747E-01  0.3347230E+00
         13   -1    0    0    0    0  0.00000000000E+00  0.00000000000E+00  0.14999999963E+04  0.15000000000E+04  0.10566000000E+00 0.  1.
        994   -1    0    0    0    0 -0.00000000000E+00 -0.00000000000E+00  0.11368683772E-12  0.17120000000E+03  0.17120000000E+03 0.  0.
         13    1    1    2    0    0  0.16627560238E+02 -0.96647589961E+02  0.11115901191E+03  0.14823484576E+03  0.10566000000E+00 0.  1.
        994    1    1    2    0    0 -0.15901343766E+03  0.10746967717E+03  0.20068989877E+03  0.32622213343E+03  0.17120000000E+03 0.  0.
        998    1    1    2    0    0  0.14238587742E+03 -0.10822087209E+02  0.11881510856E+04  0.11967430208E+04  0.10000000000E+02 0.  1.
</event>
<event>
 5    1  0.1271464E-008  0.3891698E+03  0.7957747E-01  0.3412178E+00
         13   -1    0    0    0    0  0.00000000000E+00  0.00000000000E+00  0.14999999963E+04  0.15000000000E+04  0.10566000000E+00 0. -1.
        994   -1    0    0    0    0 -0.00000000000E+00 -0.00000000000E+00  0.11368683772E-12  0.17120000000E+03  0.17120000000E+03 0.  0.
         13    1    1    2    0    0 -0.79051904546E+02 -0.33257175398E+02  0.14352914526E+03  0.16720008981E+03  0.10566000000E+00 0. -1.
        994    1    1    2    0    0  0.55963834247E+02  0.10974414060E+03  0.80912361115E+02  0.22590258370E+03  0.17120000000E+03 0.  0.
        998    1    1    2    0    0  0.23088070299E+02 -0.76486965202E+02  0.12755584899E+04  0.12780973265E+04  0.10000000000E+02 0. -1.
</event>
<event>
 5    1  0.1271464E-008  0.3815861E+03  0.7957747E-01  0.3444281E+00
         13   -1    0    0    0    0  0.00000000000E+00  0.00000000000E+00  0.14999999963E+04  0.15000000000E+04  0.10566000000E+00 0. -1.
        994   -1    0    0    0    0 -0.00000000000E+00 -0.00000000000E+00  0.11368683772E-12  0.17120000000E+03  0.17120000000E+03 0.  0.
         13    1    1    2    0    0 -0.70692483638E+01  0.92986598274E+01  0.19015375880E+02  0.22316698477E+02  0.10566000000E+00 0. -1.
        994    1    1    2    0    0  0.61696943665E+01 -0.78565695703E+01  0.36665300306E+01  0.17153038873E+03  0.17120000000E+03 0.  0.
        998    1    1    2    0    0  0.89955399731E+00 -0.14420902571E+01  0.14773180904E+04  0.14773529128E+04  0.10000000000E+02 0. -1.
</event>
<event>
 5    1  0.1271464E-008  0.3842144E+03  0.7957747E-01  0.3433011E+00
         13   -1    0    0    0    0  0.00000000000E+00  0.00000000000E+00  0.14999999963E+04  0.15000000000E+04  0.10566000000E+00 0.  1.
        994   -1    0    0    0    0 -0.00000000000E+00 -0.00000000000E+00  0.11368683772E-12  0.17120000000E+03  0.17120000000E+03 0.  0.
         13    1    1    2    0    0  0.11263597275E+02 -0.10714506977E+02  0.59270756536E+02  0.61275631598E+02  0.10566000000E+00 0.  1.
        994    1    1    2    0    0 -0.14679439339E+02  0.27792576540E+00  0.27316944082E+01  0.17185012463E+03  0.17120000000E+03 0.  0.
        998    1    1    2    0    0  0.34158420641E+01  0.10436581212E+02  0.14379975453E+04  0.14380742438E+04  0.10000000000E+02 0.  1.
</event>
<event>
 5    1  0.1271464E-008  0.4302814E+03  0.7957747E-01  0.3257743E+00
         13   -1    0    0    0    0  0.00000000000E+00  0.00000000000E+00  0.14999999963E+04  0.15000000000E+04  0.10566000000E+00 0. -1.
        994   -1    0    0    0    0 -0.00000000000E+00 -0.00000000000E+00  0.11368683772E-12  0.17120000000E+03  0.17120000000E+03 0.  0.
         13    1    1    2    0    0  0.46618091204E+01  0.39896999722E+02 -0.81163035202E+00  0.40176771385E+02  0.10566000000E+00 0. -1.
        994    1    1    2    0    0 -0.34167303768E+02 -0.15152020353E+02  0.53574499203E+02  0.18323933893E+03  0.17120000000E+03 0.  0.
        998    1    1    2    0    0  0.29505494648E+02 -0.24744979369E+02  0.14472371274E+04  0.14477838897E+04  0.10000000000E+02 0. -1.
</event>
<event>
 5    1  0.1271464E-008  0.3797798E+03  0.7957747E-01  0.3452118E+00
         13   -1    0    0    0    0  0.00000000000E+00  0.00000000000E+00  0.14999999963E+04  0.15000000000E+04  0.10566000000E+00 0.  1.
        994   -1    0    0    0    0 -0.00000000000E+00 -0.00000000000E+00  0.11368683772E-12  0.17120000000E+03  0.17120000000E+03 0.  0.
         13    1    1    2    0    0 -0.19949234811E+02  0.55541350019E+01  0.50750613893E+02  0.54812921466E+02  0.10566000000E+00 0.  1.
        994    1    1    2    0    0  0.92060817437E+01  0.18727923607E+02  0.57025426236E+01  0.17256142691E+03  0.17120000000E+03 0.  0.
        998    1    1    2    0    0  0.10743153067E+02 -0.24282058609E+02  0.14435468398E+04  0.14438256516E+04  0.10000000000E+02 0.  1.
</event>
<event>
 5    1  0.1271464E-008  0.3776269E+03  0.7957747E-01  0.3461557E+00
         13   -1    0    0    0    0  0.00000000000E+00  0.00000000000E+00  0.14999999963E+04  0.15000000000E+04  0.10566000000E+00 0.  1.
        994   -1    0    0    0    0 -0.00000000000E+00 -0.00000000000E+00  0.11368683772E-12  0.17120000000E+03  0.17120000000E+03 0.  0.
         13    1    1    2    0    0 -0.12456818208E+02  0.83100560346E+01  0.18635145382E+02  0.23906257729E+02  0.10566000000E+00 0.  1.
        994    1    1    2    0    0  0.91520208354E+01 -0.88612109658E+01  0.58828620575E+01  0.17177406268E+03  0.17120000000E+03 0.  0.
        998    1    1    2    0    0  0.33047973730E+01  0.55115493118E+00  0.14754819888E+04  0.14755196796E+04  0.10000000000E+02 0.  1.
</event>
<event>
 5    1  0.1271464E-008  0.3801520E+03  0.7957747E-01  0.3450497E+00
         13   -1    0    0    0    0  0.00000000000E+00  0.00000000000E+00  0.14999999963E+04  0.15000000000E+04  0.10566000000E+00 0. -1.
        994   -1    0    0    0    0 -0.00000000000E+00 -0.00000000000E+00  0.11368683772E-12  0.17120000000E+03  0.17120000000E+03 0.  0.
         13    1    1    2    0    0 -0.17977512735E+02  0.26909064124E+02  0.11660527637E+03  0.12101276932E+03  0.10566000000E+00 0. -1.
        994    1    1    2    0    0  0.95798630423E+01 -0.36811176084E+02  0.89058409561E+01  0.17560065622E+03  0.17120000000E+03 0.  0.
        998    1    1    2    0    0  0.83976496932E+01  0.99021119591E+01  0.13744888790E+04  0.13745865745E+04  0.10000000000E+02 0. -1.
</event>
<event>
 5    1  0.1271464E-008  0.3817846E+03  0.7957747E-01  0.3443425E+00
         13   -1    0    0    0    0  0.00000000000E+00  0.00000000000E+00  0.14999999963E+04  0.15000000000E+04  0.10566000000E+00 0.  1.
        994   -1    0    0    0    0 -0.00000000000E+00 -0.00000000000E+00  0.11368683772E-12  0.17120000000E+03  0.17120000000E+03 0.  0.
         13    1    1    2    0    0 -0.11403145812E+01  0.24685210740E+02  0.86629155338E+02  0.90084858135E+02  0.10566000000E+00 0.  1.
        994    1    1    2    0    0  0.68912587456E+01 -0.29125437448E+02  0.62176645132E+01  0.17390767639E+03  0.17120000000E+03 0.  0.
        998    1    1    2    0    0 -0.57509441644E+01  0.44402267076E+01  0.14071531764E+04  0.14072074655E+04  0.10000000000E+02 0.  1.
</event>
<event>
 5    1  0.1271464E-008  0.3806932E+03  0.7957747E-01  0.3448146E+00
         13   -1    0    0    0    0  0.00000000000E+00  0.00000000000E+00  0.14999999963E+04  0.15000000000E+04  0.10566000000E+00 0. -1.
        994   -1    0    0    0    0 -0.00000000000E+00 -0.00000000000E+00  0.11368683772E-12  0.17120000000E+03  0.17120000000E+03 0.  0.
         13    1    1    2    0    0  0.12146184558E+02 -0.13010594712E+02  0.39531836065E+02  0.43354153213E+02  0.10566000000E+00 0. -1.
        994    1    1    2    0    0 -0.14333638040E+02  0.11700355347E+02  0.49263062312E+01  0.17226740837E+03  0.17120000000E+03 0.  0.
        998    1    1    2    0    0  0.21874534813E+01  0.13102393655E+01  0.14555418540E+04  0.14555784384E+04  0.10000000000E+02 0. -1.
</event>
<event>
 5    1  0.1271464E-008  0.3755560E+03  0.7957747E-01  0.3470740E+00
         13   -1    0    0    0    0  0.00000000000E+00  0.00000000000E+00  0.14999999963E+04  0.15000000000E+04  0.10566000000E+00 0. -1.
        994   -1    0    0    0    0 -0.00000000000E+00 -0.00000000000E+00  0.11368683772E-12  0.17120000000E+03  0.17120000000E+03 0.  0.
         13    1    1    2    0    0 -0.97794246058E+01  0.85860954796E+01  0.10272351838E+02  0.16579823809E+02  0.10566000000E+00 0. -1.
        994    1    1    2    0    0  0.11553797290E+02 -0.79200651694E+01  0.70595172044E+01  0.17191711505E+03  0.17120000000E+03 0.  0.
        998    1    1    2    0    0 -0.17743726844E+01 -0.66603031018E+00  0.14826681272E+04  0.14827030611E+04  0.10000000000E+02 0. -1.
</event>
<event>
 5    1  0.1271464E-008  0.3753323E+03  0.7957747E-01  0.3471738E+00
         13   -1    0    0    0    0  0.00000000000E+00  0.00000000000E+00  0.14999999963E+04  0.15000000000E+04  0.10566000000E+00 0. -1.
        994   -1    0    0    0    0 -0.00000000000E+00 -0.00000000000E+00  0.11368683772E-12  0.17120000000E+03  0.17120000000E+03 0.  0.
         13    1    1    2    0    0  0.65410574283E+02 -0.72303886550E+02  0.45915012559E+03  0.46938815945E+03  0.10566000000E+00 0. -1.
        994    1    1    2    0    0 -0.72862768830E+02  0.75656026212E+02  0.44942210141E+02  0.20582045485E+03  0.17120000000E+03 0.  0.
        998    1    1    2    0    0  0.74521945471E+01 -0.33521396620E+01  0.99590766054E+03  0.99599138569E+03  0.10000000000E+02 0.  0.
</event>
<event>
 5    1  0.1271464E-008  0.3746999E+03  0.7957747E-01  0.3474566E+00
         13   -1    0    0    0    0  0.00000000000E+00  0.00000000000E+00  0.14999999963E+04  0.15000000000E+04  0.10566000000E+00 0.  1.
        994   -1    0    0    0    0 -0.00000000000E+00 -0.00000000000E+00  0.11368683772E-12  0.17120000000E+03  0.17120000000E+03 0.  0.
         13    1    1    2    0    0  0.13488505347E+02 -0.43437139852E+02  0.19856663104E+03  0.20370921192E+03  0.10566000000E+00 0.  1.
        994    1    1    2    0    0 -0.60260464266E+01 -0.22578726622E+02  0.86933665683E+01  0.17300614658E+03  0.17120000000E+03 0.  0.
        998    1    1    2    0    0 -0.74624589206E+01  0.66015866474E+02  0.12927399987E+04  0.12944846415E+04  0.10000000000E+02 0.  1.
</event>
<event>
 5    1  0.1271464E-008  0.3810939E+03  0.7957747E-01  0.3446409E+00
         13   -1    0    0    0    0  0.00000000000E+00  0.00000000000E+00  0.14999999963E+04  0.15000000000E+04  0.10566000000E+00 0.  1.
        994   -1    0    0    0    0 -0.00000000000E+00 -0.00000000000E+00  0.11368683772E-12  0.17120000000E+03  0.17120000000E+03 0.  0.
         13    1    1    2    0    0  0.11513798660E+02 -0.17302109136E+02  0.94308908742E+02  0.96571796982E+02  0.10566000000E+00 0.  1.
        994    1    1    2    0    0  0.42410372031E+02 -0.53411365312E+02  0.19233577179E+02  0.18528568237E+03  0.17120000000E+03 0.  0.
        998    1    1    2    0    0 -0.53924170691E+02  0.70713474448E+02  0.13864575104E+04  0.13893425206E+04  0.10000000000E+02 0.  1.
</event>
<event>
 5    1  0.1271464E-008  0.4123409E+03  0.7957747E-01  0.3321395E+00
         13   -1    0    0    0    0  0.00000000000E+00  0.00000000000E+00  0.14999999963E+04  0.15000000000E+04  0.10566000000E+00 0.  1.
        994   -1    0    0    0    0 -0.00000000000E+00 -0.00000000000E+00  0.11368683772E-12  0.17120000000E+03  0.17120000000E+03 0.  0.
         13    1    1    2    0    0  0.46056270513E+02  0.88501362881E+02  0.12032625073E+03  0.15630767436E+03  0.10566000000E+00 0.  1.
        994    1    1    2    0    0 -0.47306240218E+02 -0.86799499230E+02  0.76965833161E+02  0.21214432093E+03  0.17120000000E+03 0.  0.
        998    1    1    2    0    0  0.12499697047E+01 -0.17018636516E+01  0.13027079124E+04  0.13027480047E+04  0.10000000000E+02 0.  0.
</event>
<event>
 5    1  0.1271464E-008  0.3713110E+03  0.7957747E-01  0.3489888E+00
         13   -1    0    0    0    0  0.00000000000E+00  0.00000000000E+00  0.14999999963E+04  0.15000000000E+04  0.10566000000E+00 0. -1.
        994   -1    0    0    0    0 -0.00000000000E+00 -0.00000000000E+00  0.11368683772E-12  0.17120000000E+03  0.17120000000E+03 0.  0.
         13    1    1    2    0    0  0.30567535627E+02 -0.31921878981E+01  0.47429990514E+02  0.56517072307E+02  0.10566000000E+00 0. -1.
        994    1    1    2    0    0 -0.48227961475E+02  0.16629935848E+02  0.17597244300E+02  0.17950374381E+03  0.17120000000E+03 0.  0.
        998    1    1    2    0    0  0.17660425849E+02 -0.13437747950E+02  0.14349727615E+04  0.14351791839E+04  0.10000000000E+02 0. -1.
</event>
<event>
 5    1  0.1271464E-008  0.3820443E+03  0.7957747E-01  0.3442305E+00
         13   -1    0    0    0    0  0.00000000000E+00  0.00000000000E+00  0.14999999963E+04  0.15000000000E+04  0.10566000000E+00 0.  1.
        994   -1    0    0    0    0 -0.00000000000E+00 -0.00000000000E+00  0.11368683772E-12  0.17120000000E+03  0.17120000000E+03 0.  0.
         13    1    1    2    0    0  0.19132115292E+02  0.36535651345E+02  0.24091437056E+03  0.24441897791E+03  0.10566000000E+00 0.  1.
        994    1    1    2    0    0 -0.26116930352E+02 -0.28628265198E+02  0.81071216431E+01  0.17571806122E+03  0.17120000000E+03 0.  0.
        998    1    1    2    0    0  0.69848150604E+01 -0.79073861474E+01  0.12509785041E+04  0.12510629609E+04  0.10000000000E+02 0.  1.
</event>
<event>
 5    1  0.1271464E-008  0.3710789E+03  0.7957747E-01  0.3490947E+00
         13   -1    0    0    0    0  0.00000000000E+00  0.00000000000E+00  0.14999999963E+04  0.15000000000E+04  0.10566000000E+00 0. -1.
        994   -1    0    0    0    0 -0.00000000000E+00 -0.00000000000E+00  0.11368683772E-12  0.17120000000E+03  0.17120000000E+03 0.  0.
         13    1    1    2    0    0  0.11283283280E+02  0.23065114459E+02  0.32775386368E+02  0.41635911209E+02  0.10566000000E+00 0. -1.
        994    1    1    2    0    0 -0.22315738816E+02 -0.28387810589E+02  0.13211126164E+02  0.17546462277E+03  0.17120000000E+03 0.  0.
        998    1    1    2    0    0  0.11032455536E+02  0.53226961293E+01  0.14540134837E+04  0.14540994660E+04  0.10000000000E+02 0. -1.
</event>
<event>
 5    1  0.1271464E-008  0.3783783E+03  0.7957747E-01  0.3458250E+00
         13   -1    0    0    0    0  0.00000000000E+00  0.00000000000E+00  0.14999999963E+04  0.15000000000E+04  0.10566000000E+00 0.  1.
        994   -1    0    0    0    0 -0.00000000000E+00 -0.00000000000E+00  0.11368683772E-12  0.17120000000E+03  0.17120000000E+03 0.  0.
         13    1    1    2    0    0  0.72768411297E+02 -0.57815850059E+02  0.47481174497E+03  0.48382240391E+03  0.10566000000E+00 0.  1.
        994    1    1    2    0    0 -0.82431250416E+02  0.74427689598E+02  0.47595890026E+02  0.20954522369E+03  0.17120000000E+03 0.  0.
        998    1    1    2    0    0  0.96628391196E+01 -0.16611839539E+02  0.97759236129E+03  0.97783237240E+03  0.10000000000E+02 0.  1.
</event>
<event>
 5    1  0.1271464E-008  0.3854123E+03  0.7957747E-01  0.3427925E+00
         13   -1    0    0    0    0  0.00000000000E+00  0.00000000000E+00  0.14999999963E+04  0.15000000000E+04  0.10566000000E+00 0. -1.
        994   -1    0    0    0    0 -0.00000000000E+00 -0.00000000000E+00  0.11368683772E-12  0.17120000000E+03  0.17120000000E+03 0.  0.
         13    1    1    2    0    0 -0.63816264638E+00 -0.13258657422E+02  0.63286828434E+02  0.64664001310E+02  0.10566000000E+00 0. -1.
        994    1    1    2    0    0 -0.18648009570E+01  0.59594279129E+01  0.15536382169E+01  0.17132088622E+03  0.17120000000E+03 0.  0.
        998    1    1    2    0    0  0.25029636034E+01  0.72992295095E+01  0.14351595296E+04  0.14352151125E+04  0.10000000000E+02 0. -1.
</event>
<event>
 5    1  0.1271464E-008  0.2189962E+03  0.7957747E-01  0.4724329E+00
         13   -1    0    0    0    0  0.00000000000E+00  0.00000000000E+00  0.14999999963E+04  0.15000000000E+04  0.10566000000E+00 0. -1.
        994   -1    0    0    0    0 -0.00000000000E+00 -0.00000000000E+00  0.11368683772E-12  0.17120000000E+03  0.17120000000E+03 0.  0.
         13    1    1    2    0    0  0.32830432174E+02  0.83120185029E+02  0.21108829326E+02  0.91828079995E+02  0.10566000000E+00 0. -1.
        994    1    1    2    0    0 -0.24998133066E+02 -0.80689099950E+02  0.13125624240E+03  0.23167494184E+03  0.17120000000E+03 0.  0.
        998    1    1    2    0    0 -0.78322991080E+01 -0.24310850787E+01  0.13476349246E+04  0.13476969782E+04  0.10000000000E+02 0. -1.
</event>
<event>
 5    1  0.1271464E-008  0.3772845E+03  0.7957747E-01  0.3463068E+00
         13   -1    0    0    0    0  0.00000000000E+00  0.00000000000E+00  0.14999999963E+04  0.15000000000E+04  0.10566000000E+00 0. -1.
        994   -1    0    0    0    0 -0.00000000000E+00 -0.00000000000E+00  0.11368683772E-12  0.17120000000E+03  0.17120000000E+03 0.  0.
         13    1    1    2    0    0  0.33673259930E+02  0.96234359755E+01  0.10297856520E+03  0.10877083712E+03  0.10566000000E+00 0. -1.
        994    1    1    2    0    0 -0.31567443167E+02 -0.14316760026E+02  0.95737424688E+01  0.17493590149E+03  0.17120000000E+03 0.  0.
        998    1    1    2    0    0 -0.21058167626E+01  0.46933240502E+01  0.13874476886E+04  0.13874932614E+04  0.10000000000E+02 0. -1.
</event>
<event>
 5    1  0.1271464E-008  0.3858642E+03  0.7957747E-01  0.3426015E+00
         13   -1    0    0    0    0  0.00000000000E+00  0.00000000000E+00  0.14999999963E+04  0.15000000000E+04  0.10566000000E+00 0. -1.
        994   -1    0    0    0    0 -0.00000000000E+00 -0.00000000000E+00  0.11368683772E-12  0.17120000000E+03  0.17120000000E+03 0.  0.
         13    1    1    2    0    0 -0.95329323206E+00 -0.10252025500E+02  0.44989258159E+02  0.46152543902E+02  0.10566000000E+00 0. -1.
        994    1    1    2    0    0 -0.26265121463E+01  0.54847867984E+01  0.13229822155E+01  0.17131308104E+03  0.17120000000E+03 0.  0.
        998    1    1    2    0    0  0.35798053784E+01  0.47672387018E+01  0.14536877559E+04  0.14537343751E+04  0.10000000000E+02 0. -1.
</event>
<event>
 5    1  0.1271464E-008  0.3733464E+03  0.7957747E-01  0.3480651E+00
         13   -1    0    0    0    0  0.00000000000E+00  0.00000000000E+00  0.14999999963E+04  0.15000000000E+04  0.10566000000E+00 0. -1.
        994   -1    0    0    0    0 -0.00000000000E+00 -0.00000000000E+00  0.11368683772E-12  0.17120000000E+03  0.17120000000E+03 0.  0.
         13    1    1    2    0    0  0.38871808172E+02  0.12222256874E+02  0.15337984414E+03  0.15870031123E+03  0.10566000000E+00 0. -1.
        994    1    1    2    0    0  0.38316198431E+02  0.23994128845E+02  0.14549144295E+02  0.17766532267E+03  0.17120000000E+03 0.  0.
        998    1    1    2    0    0 -0.77188006603E+02 -0.36216385719E+02  0.13320710078E+04  0.13348343661E+04  0.10000000000E+02 0. -1.
</event>
<event>
 5    1  0.1271464E-008  0.3930070E+03  0.7957747E-01  0.3396408E+00
         13   -1    0    0    0    0  0.00000000000E+00  0.00000000000E+00  0.14999999963E+04  0.15000000000E+04  0.10566000000E+00 0.  1.
        994   -1    0    0    0    0 -0.00000000000E+00 -0.00000000000E+00  0.11368683772E-12  0.17120000000E+03  0.17120000000E+03 0.  0.
         13    1    1    2    0    0 -0.13190052459E+02 -0.20108889706E+02  0.19256081813E+01  0.24126003813E+02  0.10566000000E+00 0.  1.
        994    1    1    2    0    0  0.11691779466E+02  0.19273214535E+02  0.25600458335E+02  0.17456511098E+03  0.17120000000E+03 0.  0.
        998    1    1    2    0    0  0.14982729926E+01  0.83567517122E+00  0.14724739298E+04  0.14725088852E+04  0.10000000000E+02 0.  1.
</event>
<event>
 5    1  0.1271464E-008  0.3797414E+03  0.7957747E-01  0.3452285E+00
         13   -1    0    0    0    0  0.00000000000E+00  0.00000000000E+00  0.14999999963E+04  0.15000000000E+04  0.10566000000E+00 0.  1.
        994   -1    0    0    0    0 -0.00000000000E+00 -0.00000000000E+00  0.11368683772E-12  0.17120000000E+03  0.17120000000E+03 0.  0.
         13    1    1    2    0    0 -0.16252942820E+02  0.27944484122E+00  0.28401998436E+02  0.32724928097E+02  0.10566000000E+00 0.  1.
        994    1    1    2    0    0  0.21238665002E+02 -0.55595327535E+00  0.57754652646E+01  0.17260992432E+03  0.17120000000E+03 0.  0.
        998    1    1    2    0    0 -0.49857221821E+01  0.27650843413E+00  0.14658225326E+04  0.14658651476E+04  0.10000000000E+02 0.  1.
</event>
<event>
 5    1  0.1271464E-008  0.3691372E+03  0.7957747E-01  0.3499866E+00
         13   -1    0    0    0    0  0.00000000000E+00  0.00000000000E+00  0.14999999963E+04  0.15000000000E+04  0.10566000000E+00 0. -1.
        994   -1    0    0    0    0 -0.00000000000E+00 -0.00000000000E+00  0.11368683772E-12  0.17120000000E+03  0.17120000000E+03 0.  0.
         13    1    1    2    0    0  0.53514113845E+02 -0.60929314595E+02  0.23905869961E+03  0.25243853664E+03  0.10566000000E+00 0. -1.
        994    1    1    2    0    0 -0.56912869696E+02  0.77490858995E+02  0.43435174425E+02  0.20109689789E+03  0.17120000000E+03 0.  0.
        998    1    1    2    0    0  0.33987558504E+01 -0.16561544400E+02  0.12175061222E+04  0.12176645655E+04  0.10000000000E+02 0. -1.
</event>
<event>
 5    1  0.1271464E-008  0.3735891E+03  0.7957747E-01  0.3479557E+00
         13   -1    0    0    0    0  0.00000000000E+00  0.00000000000E+00  0.14999999963E+04  0.15000000000E+04  0.10566000000E+00 0. -1.
        994   -1    0    0    0    0 -0.00000000000E+00 -0.00000000000E+00  0.11368683772E-12  0.17120000000E+03  0.17120000000E+03 0.  0.
         13    1    1    2    0    0  0.85220027607E+00  0.28475147813E+02  0.50484720648E+02  0.57967908978E+02  0.10566000000E+00 0. -1.
        994    1    1    2    0    0  0.10866712636E+01 -0.27956242435E+02  0.10083068855E+02  0.17376374945E+03  0.17120000000E+03 0.  0.
        998    1    1    2    0    0 -0.19388715396E+01 -0.51890537809E+00  0.14394322068E+04  0.14394683416E+04  0.10000000000E+02 0. -1.
</event>
<event>
 5    1  0.1271464E-008  0.3818945E+03  0.7957747E-01  0.3442951E+00
         13   -1    0    0    0    0  0.00000000000E+00  0.00000000000E+00  0.14999999963E+04  0.15000000000E+04  0.10566000000E+00 0. -1.
        994   -1    0    0    0    0 -0.00000000000E+00 -0.00000000000E+00  0.11368683772E-12  0.17120000000E+03  0.17120000000E+03 0.  0.
         13    1    1    2    0    0 -0.13378700205E+02  0.45384025619E+01  0.31392136469E+02  0.34424760175E+02  0.10566000000E+00 0. -1.
        994    1    1    2    0    0  0.47099247481E+00  0.63787673724E+01  0.33157823852E+01  0.17135152442E+03  0.17120000000E+03 0.  0.
        998    1    1    2    0    0  0.12907707730E+02 -0.10917169934E+02  0.14652920774E+04  0.14654237154E+04  0.10000000000E+02 0. -1.
</event>
<event>
 5    1  0.2025319E-008  0.3859157E+03  0.7957747E-01  0.3425798E+00
         13   -1    0    0    0    0  0.00000000000E+00  0.00000000000E+00  0.14999999963E+04  0.15000000000E+04  0.10566000000E+00 0. -1.
        994   -1    0    0    0    0 -0.00000000000E+00 -0.00000000000E+00  0.11368683772E-12  0.17120000000E+03  0.17120000000E+03 0.  0.
         13    1    1    2    0    0 -0.11344189130E+02  0.38960918609E+00  0.56374799425E+02  0.57506274410E+02  0.10566000000E+00 0. -1.
        994    1    1    2    0    0  0.50008508260E+01  0.13777538676E+01  0.12643988119E+01  0.17128323158E+03  0.17120000000E+03 0.  0.
        998    1    1    2    0    0  0.63433383041E+01 -0.17673630537E+01  0.14423607980E+04  0.14424104940E+04  0.10000000000E+02 0. -1.
</event>
<event>
 5    1  0.1271464E-008  0.3805219E+03  0.7957747E-01  0.3448889E+00
         13   -1    0    0    0    0  0.00000000000E+00  0.00000000000E+00  0.14999999963E+04  0.15000000000E+04  0.10566000000E+00 0.  1.
        994   -1    0    0    0    0 -0.00000000000E+00 -0.00000000000E+00  0.11368683772E-12  0.17120000000E+03  0.17120000000E+03 0.  0.
         13    1    1    2    0    0 -0.15924035691E+02 -0.13175365881E+02  0.55589633689E+02  0.59307535074E+02  0.10566000000E+00 0.  1.
        994    1    1    2    0    0 -0.91653394554E+00  0.93237693762E+01  0.41628976571E+01  0.17150668333E+03  0.17120000000E+03 0.  0.
        998    1    1    2    0    0  0.16840569637E+02  0.38515965050E+01  0.14402474649E+04  0.14403857816E+04  0.10000000000E+02 0.  1.
</event>
<event>
 5    1  0.1271464E-008  0.3770038E+03  0.7957747E-01  0.3464309E+00
         13   -1    0    0    0    0  0.00000000000E+00  0.00000000000E+00  0.14999999963E+04  0.15000000000E+04  0.10566000000E+00 0.  1.
        994   -1    0    0    0    0 -0.00000000000E+00 -0.00000000000E+00  0.11368683772E-12  0.17120000000E+03  0.17120000000E+03 0.  0.
         13    1    1    2    0    0  0.31164740542E+00 -0.15286325363E+02  0.18903134221E+02  0.24312723307E+02  0.10566000000E+00 0.  1.
        994    1    1    2    0    0 -0.13332989816E+02 -0.39971323168E+01  0.63077207169E+01  0.17188069416E+03  0.17120000000E+03 0.  0.
        998    1    1    2    0    0  0.13021342410E+02  0.19283457680E+02  0.14747891413E+04  0.14750065825E+04  0.10000000000E+02 0.  1.
</event>
<event>
 5    1  0.1271464E-008  0.3850198E+03  0.7957747E-01  0.3429588E+00
         13   -1    0    0    0    0  0.00000000000E+00  0.00000000000E+00  0.14999999963E+04  0.15000000000E+04  0.10566000000E+00 0.  1.
        994   -1    0    0    0    0 -0.00000000000E+00 -0.00000000000E+00  0.11368683772E-12  0.17120000000E+03  0.17120000000E+03 0.  0.
         13    1    1    2    0    0  0.12099094857E+02  0.14458732407E+02  0.10690998475E+03  0.10855965661E+03  0.10566000000E+00 0.  1.
        994    1    1    2    0    0 -0.76624336888E+01 -0.13417824053E+02  0.24057943540E+01  0.17191270674E+03  0.17120000000E+03 0.  0.
        998    1    1    2    0    0 -0.44366611682E+01 -0.10409083541E+01  0.13906842172E+04  0.13907276367E+04  0.10000000000E+02 0.  1.
</event>
<event>
 5    1  0.1271464E-008  0.3849756E+03  0.7957747E-01  0.3429776E+00
         13   -1    0    0    0    0  0.00000000000E+00  0.00000000000E+00  0.14999999963E+04  0.15000000000E+04  0.10566000000E+00 0.  1.
        994   -1    0    0    0    0 -0.00000000000E+00 -0.00000000000E+00  0.11368683772E-12  0.17120000000E+03  0.17120000000E+03 0.  0.
         13    1    1    2    0    0  0.78323856422E+01 -0.12008295743E+02  0.67349358306E+02  0.68858497368E+02  0.10566000000E+00 0.  1.
        994    1    1    2    0    0  0.14403711356E+02  0.75940886008E+01  0.25147506087E+01  0.17199099120E+03  0.17120000000E+03 0.  0.
        998    1    1    2    0    0 -0.22236096998E+02  0.44142071427E+01  0.14301358874E+04  0.14303505114E+04  0.10000000000E+02 0.  1.
</event>
<event>
 5    1  0.1271464E-008  0.3829072E+03  0.7957747E-01  0.3438597E+00
         13   -1    0    0    0    0  0.00000000000E+00  0.00000000000E+00  0.14999999963E+04  0.15000000000E+04  0.10566000000E+00 0.  1.
        994   -1    0    0    0    0 -0.00000000000E+00 -0.00000000000E+00  0.11368683772E-12  0.17120000000E+03  0.17120000000E+03 0.  0.
         13    1    1    2    0    0  0.20695412562E+02  0.14909719640E+02  0.11878916004E+03  0.12149681291E+03  0.10566000000E+00 0.  1.
        994    1    1    2    0    0 -0.14271193301E+02 -0.11230120107E+02  0.37654725251E+01  0.17220162990E+03  0.17120000000E+03 0.  0.
        998    1    1    2    0    0 -0.64242192609E+01 -0.36795995330E+01  0.13774453637E+04  0.13775015572E+04  0.10000000000E+02 0.  1.
</event>
<event>
 5    1  0.1271464E-008  0.3761209E+03  0.7957747E-01  0.3468225E+00
         13   -1    0    0    0    0  0.00000000000E+00  0.00000000000E+00  0.14999999963E+04  0.15000000000E+04  0.10566000000E+00 0. -1.
        994   -1    0    0    0    0 -0.00000000000E+00 -0.00000000000E+00  0.11368683772E-12  0.17120000000E+03  0.17120000000E+03 0.  0.
         13    1    1    2    0    0 -0.81723793612E+01  0.12557529317E+02  0.15847077422E+02  0.21808721967E+02  0.10566000000E+00 0. -1.
        994    1    1    2    0    0  0.44267727473E+01 -0.59997523467E+01  0.62925501611E+01  0.17147778145E+03  0.17120000000E+03 0.  0.
        998    1    1    2    0    0  0.37456066139E+01 -0.65577769701E+01  0.14778603687E+04  0.14779134966E+04  0.10000000000E+02 0. -1.
</event>
<event>
 5    1  0.1271464E-008  0.3721179E+03  0.7957747E-01  0.3486214E+00
         13   -1    0    0    0    0  0.00000000000E+00  0.00000000000E+00  0.14999999963E+04  0.15000000000E+04  0.10566000000E+00 0. -1.
        994   -1    0    0    0    0 -0.00000000000E+00 -0.00000000000E+00  0.11368683772E-12  0.17120000000E+03  0.17120000000E+03 0.  0.
         13    1    1    2    0    0 -0.21865579820E+02  0.25552925141E+02  0.64241372662E+02  0.72512210624E+02  0.10566000000E+00 0. -1.
        994    1    1    2    0    0  0.11219633612E+02 -0.31079481382E+02  0.11923225347E+02  0.17476675211E+03  0.17120000000E+03 0.  0.
        998    1    1    2    0    0  0.10645946208E+02  0.55265562410E+01  0.14238353983E+04  0.14239210373E+04  0.10000000000E+02 0. -1.
</event>
<event>
 5    1  0.1271464E-008  0.3836098E+03  0.7957747E-01  0.3435589E+00
         13   -1    0    0    0    0  0.00000000000E+00  0.00000000000E+00  0.14999999963E+04  0.15000000000E+04  0.10566000000E+00 0.  1.
        994   -1    0    0    0    0 -0.00000000000E+00 -0.00000000000E+00  0.11368683772E-12  0.17120000000E+03  0.17120000000E+03 0.  0.
         13    1    1    2    0    0 -0.15006623832E+02 -0.23291662617E+02  0.16434572413E+03  0.16666501885E+03  0.10566000000E+00 0.  1.
        994    1    1    2    0    0  0.43112375994E+01  0.17264051297E+02  0.33686086601E+01  0.17215522577E+03  0.17120000000E+03 0.  0.
        998    1    1    2    0    0  0.10695386233E+02  0.60276113202E+01  0.13322856635E+04  0.13323797554E+04  0.10000000000E+02 0.  1.
</event>
<event>
 5    1  0.1271464E-008  0.3766978E+03  0.7957747E-01  0.3465664E+00
         13   -1    0    0    0    0  0.00000000000E+00  0.00000000000E+00  0.14999999963E+04  0.15000000000E+04  0.10566000000E+00 0. -1.
        994   -1    0    0    0    0 -0.00000000000E+00 -0.00000000000E+00  0.11368683772E-12  0.17120000000E+03  0.17120000000E+03 0.  0.
         13    1    1    2    0    0 -0.23119570043E+02 -0.26010367279E+02  0.34613271079E+02  0.49083025821E+02  0.10566000000E+00 0. -1.
        994    1    1    2    0    0  0.26257400259E+02  0.30924158436E+02  0.20440376176E+02  0.17712426040E+03  0.17120000000E+03 0.  0.
        998    1    1    2    0    0 -0.31378302164E+01 -0.49137911575E+01  0.14449463490E+04  0.14449927138E+04  0.10000000000E+02 0. -1.
</event>
<event>
 5    1  0.1271464E-008  0.3809820E+03  0.7957747E-01  0.3446894E+00
         13   -1    0    0    0    0  0.00000000000E+00  0.00000000000E+00  0.14999999963E+04  0.15000000000E+04  0.10566000000E+00 0. -1.
        994   -1    0    0    0    0 -0.00000000000E+00 -0.00000000000E+00  0.11368683772E-12  0.17120000000E+03  0.17120000000E+03 0.  0.
         13    1    1    2    0    0 -0.11570514107E+02 -0.18531232658E+02  0.62864285718E+02  0.66552332516E+02  0.10566000000E+00 0. -1.
        994    1    1    2    0    0  0.28941270877E+01  0.20859757632E+02  0.51174520969E+01  0.17256631704E+03  0.17120000000E+03 0.  0.
        998    1    1    2    0    0  0.86763870190E+01 -0.23285249738E+01  0.14320182585E+04  0.14320813504E+04  0.10000000000E+02 0. -1.
</event>
<event>
 5    1  0.1271464E-008  0.3817387E+03  0.7957747E-01  0.3443623E+00
         13   -1    0    0    0    0  0.00000000000E+00  0.00000000000E+00  0.14999999963E+04  0.15000000000E+04  0.10566000000E+00 0.  1.
        994   -1    0    0    0    0 -0.00000000000E+00 -0.00000000000E+00  0.11368683772E-12  0.17120000000E+03  0.17120000000E+03 0.  0.
         13    1    1    2    0    0 -0.35445758522E+02 -0.50985224066E+01  0.17884037901E+03  0.18239048510E+03  0.10566000000E+00 0.  1.
        994    1    1    2    0    0  0.35434758643E+02 -0.13143824785E+02  0.80202868005E+01  0.17550540519E+03  0.17120000000E+03 0.  0.
        998    1    1    2    0    0  0.10999878908E-01  0.18242347192E+02  0.13131393305E+04  0.13133041097E+04  0.10000000000E+02 0.  1.
</event>
<event>
 5    1  0.1271464E-008  0.3850672E+03  0.7957747E-01  0.3429387E+00
         13   -1    0    0    0    0  0.00000000000E+00  0.00000000000E+00  0.14999999963E+04  0.15000000000E+04  0.10566000000E+00 0.  1.
        994   -1    0    0    0    0 -0.00000000000E+00 -0.00000000000E+00  0.11368683772E-12  0.17120000000E+03  0.17120000000E+03 0.  0.
         13    1    1    2    0    0 -0.61939857401E+01  0.13343330427E+02  0.63199003714E+02  0.64888636607E+02  0.10566000000E+00 0.  1.
        994    1    1    2    0    0  0.10425658113E+02 -0.18350428952E+02  0.30626847563E+01  0.17252319446E+03  0.17120000000E+03 0.  0.
        998    1    1    2    0    0 -0.42316723727E+01  0.50070985253E+01  0.14337383078E+04  0.14337881689E+04  0.10000000000E+02 0.  1.
</event>
<event>
 5    1  0.1271464E-008  0.3764269E+03  0.7957747E-01  0.3466866E+00
         13   -1    0    0    0    0  0.00000000000E+00  0.00000000000E+00  0.14999999963E+04  0.15000000000E+04  0.10566000000E+00 0. -1.
        994   -1    0    0    0    0 -0.00000000000E+00 -0.00000000000E+00  0.11368683772E-12  0.17120000000E+03  0.17120000000E+03 0.  0.
         13    1    1    2    0    0  0.48441744792E+02  0.17060456101E+03  0.81227796699E+03  0.83141327010E+03  0.10566000000E+00 0. -1.
        994    1    1    2    0    0 -0.23629336510E+02 -0.19278928503E+03  0.14657059802E+03  0.29752047689E+03  0.17120000000E+03 0.  0.
        998    1    1    2    0    0 -0.24812408281E+02  0.22184724026E+02  0.54115143127E+03  0.54226625301E+03  0.10000000000E+02 0.  1.
</event>
<event>
 5    1  0.1271464E-008  0.3824708E+03  0.7957747E-01  0.3440470E+00
         13   -1    0    0    0    0  0.00000000000E+00  0.00000000000E+00  0.14999999963E+04  0.15000000000E+04  0.10566000000E+00 0.  1.
        994   -1    0    0    0    0 -0.00000000000E+00 -0.00000000000E+00  0.11368683772E-12  0.17120000000E+03  0.17120000000E+03 0.  0.
         13    1    1    2    0    0 -0.23671596478E+02 -0.14891678833E+02  0.12844471104E+03  0.13145402822E+03  0.10566000000E+00 0.  1.
        994    1    1    2    0    0  0.34221014934E+02 -0.87579037688E+01  0.70395717848E+01  0.17494791886E+03  0.17120000000E+03 0.  0.
        998    1    1    2    0    0 -0.10549418456E+02  0.23649582601E+02  0.13645157135E+04  0.13647980529E+04  0.10000000000E+02 0.  1.
</event>
<event>
 5    1  0.1271464E-008  0.3846313E+03  0.7957747E-01  0.3431237E+00
         13   -1    0    0    0    0  0.00000000000E+00  0.00000000000E+00  0.14999999963E+04  0.15000000000E+04  0.10566000000E+00 0.  1.
        994   -1    0    0    0    0 -0.00000000000E+00 -0.00000000000E+00  0.11368683772E-12  0.17120000000E+03  0.17120000000E+03 0.  0.
         13    1    1    2    0    0  0.14660297092E+02 -0.13791445317E+02  0.93221069898E+02  0.95369320600E+02  0.10566000000E+00 0.  1.
        994    1    1    2    0    0 -0.26811244714E+02  0.27613104554E+02  0.67059748276E+01  0.17560107199E+03  0.17120000000E+03 0.  0.
        998    1    1    2    0    0  0.12150947622E+02 -0.13821659237E+02  0.14000729516E+04  0.14002296074E+04  0.10000000000E+02 0.  1.
</event>
<event>
 5    1  0.1271464E-008  0.4260858E+03  0.7957747E-01  0.3272158E+00
         13   -1    0    0    0    0  0.00000000000E+00  0.00000000000E+00  0.14999999963E+04  0.15000000000E+04  0.10566000000E+00 0. -1.
        994   -1    0    0    0    0 -0.00000000000E+00 -0.00000000000E+00  0.11368683772E-12  0.17120000000E+03  0.17120000000E+03 0.  0.
         13    1    1    2    0    0  0.74516044320E+02  0.66199340444E+02  0.90281775217E+02  0.13448346975E+03  0.10566000000E+00 0. -1.
        994    1    1    2    0    0 -0.83797715747E+02 -0.68939380502E+02  0.98382579639E+02  0.22530705121E+03  0.17120000000E+03 0.  0.
        998    1    1    2    0    0  0.92816714271E+01  0.27400400574E+01  0.13113356414E+04  0.13114094790E+04  0.10000000000E+02 0. -1.
</event>
<event>
 5    1  0.1271464E-008  0.3706434E+03  0.7957747E-01  0.3492939E+00
         13   -1    0    0    0    0  0.00000000000E+00  0.00000000000E+00  0.14999999963E+04  0.15000000000E+04  0.10566000000E+00 0. -1.
        994   -1    0    0    0    0 -0.00000000000E+00 -0.00000000000E+00  0.11368683772E-12  0.17120000000E+03  0.17120000000E+03 0.  0.
         13    1    1    2    0    0 -0.28304732434E+02 -0.43098711283E+02  0.13410859286E+03  0.14367944402E+03  0.10566000000E+00 0. -1.
        994    1    1    2    0    0 -0.10543993419E+02 -0.30789487117E+01  0.11702325413E+02  0.17195069102E+03  0.17120000000E+03 0.  0.
        998    1    1    2    0    0  0.38848725853E+02  0.46177659995E+02  0.13541890780E+04  0.13555698650E+04  0.10000000000E+02 0. -1.
</event>
<event>
 5    1  0.1271464E-008  0.3799017E+03  0.7957747E-01  0.3451587E+00
         13   -1    0    0    0    0  0.00000000000E+00  0.00000000000E+00  0.14999999963E+04  0.15000000000E+04  0.10566000000E+00 0. -1.
        994   -1    0    0    0    0 -0.00000000000E+00 -0.00000000000E+00  0.11368683772E-12  0.17120000000E+03  0.17120000000E+03 0.  0.
         13    1    1    2    0    0 -0.86009499561E+01  0.24047065860E+02  0.72881603674E+02  0.77226789619E+02  0.10566000000E+00 0. -1.
        994    1    1    2    0    0  0.83860281321E+01 -0.25635327507E+02  0.66193165252E+01  0.17343803169E+03  0.17120000000E+03 0.  0.
        998    1    1    2    0    0  0.21492182396E+00  0.15882616467E+01  0.14204990761E+04  0.14205351787E+04  0.10000000000E+02 0.  0.
</event>
<event>
 5    1  0.1271464E-008  0.3753478E+03  0.7957747E-01  0.3471669E+00
         13   -1    0    0    0    0  0.00000000000E+00  0.00000000000E+00  0.14999999963E+04  0.15000000000E+04  0.10566000000E+00 0.  1.
        994   -1    0    0    0    0 -0.00000000000E+00 -0.00000000000E+00  0.11368683772E-12  0.17120000000E+03  0.17120000000E+03 0.  0.
         13    1    1    2    0    0 -0.50638799540E+01 -0.31094791384E+02  0.70908797891E+02  0.77592510681E+02  0.10566000000E+00 0.  1.
        994    1    1    2    0    0  0.10972205326E+02  0.29956661170E+02  0.99636465123E+01  0.17443194974E+03  0.17120000000E+03 0.  0.
        998    1    1    2    0    0 -0.59083253722E+01  0.11381302135E+01  0.14191275519E+04  0.14191755396E+04  0.10000000000E+02 0.  1.
</event>
<event>
 5    1  0.1271464E-008  0.3853698E+03  0.7957747E-01  0.3428105E+00
         13   -1    0    0    0    0  0.00000000000E+00  0.00000000000E+00  0.14999999963E+04  0.15000000000E+04  0.10566000000E+00 0.  1.
        994   -1    0    0    0    0 -0.00000000000E+00 -0.00000000000E+00  0.11368683772E-12  0.17120000000E+03  0.17120000000E+03 0.  0.
         13    1    1    2    0    0 -0.15602712266E+02 -0.59154869929E+01  0.98529745491E+02  0.99932775039E+02  0.10566000000E+00 0.  1.
        994    1    1    2    0    0  0.52368986725E+01  0.99096752959E+01  0.18594168233E+01  0.17157658408E+03  0.17120000000E+03 0.  0.
        998    1    1    2    0    0  0.10365813594E+02 -0.39941883029E+01  0.13996108340E+04  0.13996906409E+04  0.10000000000E+02 0.  0.
</event>
<event>
 5    1  0.1271464E-008  0.3835439E+03  0.7957747E-01  0.3435871E+00
         13   -1    0    0    0    0  0.00000000000E+00  0.00000000000E+00  0.14999999963E+04  0.15000000000E+04  0.10566000000E+00 0. -1.
        994   -1    0    0    0    0 -0.00000000000E+00 -0.00000000000E+00  0.11368683772E-12  0.17120000000E+03  0.17120000000E+03 0.  0.
         13    1    1    2    0    0  0.10366833985E+02 -0.11752448339E+03  0.63757341496E+03  0.64839752164E+03  0.10566000000E+00 0. -1.
        994    1    1    2    0    0 -0.29929538095E+02  0.16684857866E+03  0.10392522623E+03  0.26238162683E+03  0.17120000000E+03 0.  0.
        998    1    1    2    0    0  0.19562704110E+02 -0.49324095267E+02  0.75850135510E+03  0.76042085153E+03  0.10000000000E+02 0.  1.
</event>
<event>
 5    1  0.1271464E-008  0.3724855E+03  0.7957747E-01  0.3484546E+00
         13   -1    0    0    0    0  0.00000000000E+00  0.00000000000E+00  0.14999999963E+04  0.15000000000E+04  0.10566000000E+00 0. -1.
        994   -1    0    0    0    0 -0.00000000000E+00 -0.00000000000E+00  0.11368683772E-12  0.17120000000E+03  0.17120000000E+03 0.  0.
         13    1    1    2    0    0 -0.40700175390E+01  0.12029248173E+02  0.64667323072E+01  0.14251233109E+02  0.10566000000E+00 0. -1.
        994    1    1    2    0    0  0.12661913100E+02 -0.55485293264E+01  0.86311380750E+01  0.17197397119E+03  0.17120000000E+03 0.  0.
        998    1    1    2    0    0 -0.85918955614E+01 -0.64807188462E+01  0.14849021259E+04  0.14849747957E+04  0.10000000000E+02 0. -1.
</event>
<event>
 5    1  0.1271464E-008  0.3752740E+03  0.7957747E-01  0.3471998E+00
         13   -1    0    0    0    0  0.00000000000E+00  0.00000000000E+00  0.14999999963E+04  0.15000000000E+04  0.10566000000E+00 0.  1.
        994   -1    0    0    0    0 -0.00000000000E+00 -0.00000000000E+00  0.11368683772E-12  0.17120000000E+03  0.17120000000E+03 0.  0.
         13    1    1    2    0    0 -0.43581017687E+02  0.39426018468E+02  0.24822425773E+03  0.25508627819E+03  0.10566000000E+00 0.  1.
        994    1    1    2    0    0  0.17506180889E+02 -0.43562942521E+02  0.14060725839E+02  0.17807678215E+03  0.17120000000E+03 0.  0.
        998    1    1    2    0    0  0.26074836798E+02  0.41369240530E+01  0.12377150127E+04  0.12380369397E+04  0.10000000000E+02 0.  1.
</event>
<event>
 5    1  0.1271464E-008  0.3688399E+03  0.7957747E-01  0.3501240E+00
         13   -1    0    0    0    0  0.00000000000E+00  0.00000000000E+00  0.14999999963E+04  0.15000000000E+04  0.10566000000E+00 0. -1.
        994   -1    0    0    0    0 -0.00000000000E+00 -0.00000000000E+00  0.11368683772E-12  0.17120000000E+03  0.17120000000E+03 0.  0.
         13    1    1    2    0    0  0.86907211299E+02 -0.16986658376E+03  0.90586729381E+03  0.92574461101E+03  0.10566000000E+00 0. -1.
        994    1    1    2    0    0 -0.45103936734E+02  0.17232972408E+03  0.12971651756E+03  0.27904787015E+03  0.17120000000E+03 0.  0.
        998    1    1    2    0    0 -0.41803274566E+02 -0.24631403149E+01  0.46441618490E+03  0.46640751883E+03  0.10000000000E+02 0. -1.
</event>
<event>
 5    1  0.1271464E-008  0.3790302E+03  0.7957747E-01  0.3455392E+00
         13   -1    0    0    0    0  0.00000000000E+00  0.00000000000E+00  0.14999999963E+04  0.15000000000E+04  0.10566000000E+00 0.  1.
        994   -1    0    0    0    0 -0.00000000000E+00 -0.00000000000E+00  0.11368683772E-12  0.17120000000E+03  0.17120000000E+03 0.  0.
         13    1    1    2    0    0  0.69759746882E+02  0.16528882440E+01  0.13773566563E+03  0.15440297625E+03  0.10566000000E+00 0.  1.
        994    1    1    2    0    0 -0.66076797652E+02 -0.76062804112E+01  0.31947832902E+02  0.18642452284E+03  0.17120000000E+03 0.  0.
        998    1    1    2    0    0 -0.36829492302E+01  0.59533921672E+01  0.13303164977E+04  0.13303725009E+04  0.10000000000E+02 0.  1.
</event>
<event>
 5    1  0.1271464E-008  0.3836016E+03  0.7957747E-01  0.3435625E+00
         13   -1    0    0    0    0  0.00000000000E+00  0.00000000000E+00  0.14999999963E+04  0.15000000000E+04  0.10566000000E+00 0. -1.
        994   -1    0    0    0    0 -0.00000000000E+00 -0.00000000000E+00  0.11368683772E-12  0.17120000000E+03  0.17120000000E+03 0.  0.
         13    1    1    2    0    0  0.13222214627E+02 -0.12557989935E+02  0.78494399893E+02  0.80584812772E+02  0.10566000000E+00 0. -1.
        994    1    1    2    0    0  0.48642954692E+01 -0.24486121104E+01  0.24239733481E+01  0.17130374403E+03  0.17120000000E+03 0.  0.
        998    1    1    2    0    0 -0.18086510096E+02  0.15006602045E+02  0.14190816230E+04  0.14193114432E+04  0.10000000000E+02 0. -1.
</event>
<event>
 5    1  0.1271464E-008  0.3853739E+03  0.7957747E-01  0.3428088E+00
         13   -1    0    0    0    0  0.00000000000E+00  0.00000000000E+00  0.14999999963E+04  0.15000000000E+04  0.10566000000E+00 0.  1.
        994   -1    0    0    0    0 -0.00000000000E+00 -0.00000000000E+00  0.11368683772E-12  0.17120000000E+03  0.17120000000E+03 0.  0.
         13    1    1    2    0    0 -0.12048066974E+02  0.93870123800E+01  0.82677266508E+02  0.84076236122E+02  0.10566000000E+00 0.  1.
        994    1    1    2    0    0  0.13342041161E+01 -0.10351020086E+02  0.18024545412E+01  0.17152729392E+03  0.17120000000E+03 0.  0.
        998    1    1    2    0    0  0.10713862858E+02  0.96400770557E+00  0.14155202752E+04  0.14155964700E+04  0.10000000000E+02 0.  1.
</event>
<event>
 5    1  0.2293465E-008  0.3865425E+03  0.7957747E-01  0.3423157E+00
         13   -1    0    0    0    0  0.00000000000E+00  0.00000000000E+00  0.14999999963E+04  0.15000000000E+04  0.10566000000E+00 0.  1.
        994   -1    0    0    0    0 -0.00000000000E+00 -0.00000000000E+00  0.11368683772E-12  0.17120000000E+03  0.17120000000E+03 0.  0.
         13    1    1    2    0    0  0.86014945496E+01 -0.54116765463E+01  0.60939386261E+02  0.61780999615E+02  0.10566000000E+00 0.  1.
        994    1    1    2    0    0 -0.25012479461E+01  0.91370331439E+01  0.11599666776E+01  0.17146581916E+03  0.17120000000E+03 0.  0.
        998    1    1    2    0    0 -0.61002466035E+01 -0.37253565976E+01  0.14379006433E+04  0.14379531812E+04  0.10000000000E+02 0.  1.
</event>
<event>
 5    1  0.1271464E-008  0.3850628E+03  0.7957747E-01  0.3429406E+00
         13   -1    0    0    0    0  0.00000000000E+00  0.00000000000E+00  0.14999999963E+04  0.15000000000E+04  0.10566000000E+00 0.  1.
        994   -1    0    0    0    0 -0.00000000000E+00 -0.00000000000E+00  0.11368683772E-12  0.17120000000E+03  0.17120000000E+03 0.  0.
         13    1    1    2    0    0  0.88132091090E+01  0.57138673548E+01  0.33941048537E+02  0.35529239716E+02  0.10566000000E+00 0.  1.
        994    1    1    2    0    0 -0.33985119365E+01 -0.12514680954E+02  0.21520795431E+01  0.17170392706E+03  0.17120000000E+03 0.  0.
        998    1    1    2    0    0 -0.54146971725E+01  0.68008135990E+01  0.14639068682E+04  0.14639668332E+04  0.10000000000E+02 0.  1.
</event>
<event>
 5    1  0.1271464E-008  0.3833147E+03  0.7957747E-01  0.3436851E+00
         13   -1    0    0    0    0  0.00000000000E+00  0.00000000000E+00  0.14999999963E+04  0.15000000000E+04  0.10566000000E+00 0. -1.
        994   -1    0    0    0    0 -0.00000000000E+00 -0.00000000000E+00  0.11368683772E-12  0.17120000000E+03  0.17120000000E+03 0.  0.
         13    1    1    2    0    0  0.24227090189E+02 -0.25044365602E+02  0.20698314454E+03  0.20989570133E+03  0.10566000000E+00 0. -1.
        994    1    1    2    0    0 -0.28874857315E+02  0.25750120293E+02  0.74345656501E+01  0.17567452532E+03  0.17120000000E+03 0.  0.
        998    1    1    2    0    0  0.46477671259E+01 -0.70575469052E+00  0.12855822861E+04  0.12856297734E+04  0.10000000000E+02 0. -1.
</event>
<event>
 5    1  0.1271464E-008  0.3723080E+03  0.7957747E-01  0.3485351E+00
         13   -1    0    0    0    0  0.00000000000E+00  0.00000000000E+00  0.14999999963E+04  0.15000000000E+04  0.10566000000E+00 0.  1.
        994   -1    0    0    0    0 -0.00000000000E+00 -0.00000000000E+00  0.11368683772E-12  0.17120000000E+03  0.17120000000E+03 0.  0.
         13    1    1    2    0    0 -0.19459692004E+02 -0.18390472409E+01  0.20337263688E+02  0.28207750105E+02  0.10566000000E+00 0.  1.
        994    1    1    2    0    0  0.13449438379E+02 -0.24127202570E+02  0.10689530805E+02  0.17374324552E+03  0.17120000000E+03 0.  0.
        998    1    1    2    0    0  0.60102536248E+01  0.25966249811E+02  0.14689732018E+04  0.14692490044E+04  0.10000000000E+02 0.  1.
</event>
<event>
 5    1  0.1271464E-008  0.3807382E+03  0.7957747E-01  0.3447950E+00
         13   -1    0    0    0    0  0.00000000000E+00  0.00000000000E+00  0.14999999963E+04  0.15000000000E+04  0.10566000000E+00 0. -1.
        994   -1    0    0    0    0 -0.00000000000E+00 -0.00000000000E+00  0.11368683772E-12  0.17120000000E+03  0.17120000000E+03 0.  0.
         13    1    1    2    0    0  0.26021763232E+02 -0.18498696891E+02  0.14081749172E+03  0.14439152013E+03  0.10566000000E+00 0. -1.
        994    1    1    2    0    0 -0.19121800364E+02 -0.64903283807E+01  0.51219571900E+01  0.17246287153E+03  0.17120000000E+03 0.  0.
        998    1    1    2    0    0 -0.68999628688E+01  0.24989025271E+02  0.13540605474E+04  0.13543456083E+04  0.10000000000E+02 0. -1.
</event>
<event>
 5    1  0.1271464E-008  0.3784976E+03  0.7957747E-01  0.3457726E+00
         13   -1    0    0    0    0  0.00000000000E+00  0.00000000000E+00  0.14999999963E+04  0.15000000000E+04  0.10566000000E+00 0.  1.
        994   -1    0    0    0    0 -0.00000000000E+00 -0.00000000000E+00  0.11368683772E-12  0.17120000000E+03  0.17120000000E+03 0.  0.
         13    1    1    2    0    0 -0.15469373327E+02  0.20042468057E+02  0.63036591137E+02  0.67931031371E+02  0.10566000000E+00 0.  1.
        994    1    1    2    0    0  0.28614919799E+01 -0.21505113583E+02  0.64762868646E+01  0.17269059134E+03  0.17120000000E+03 0.  0.
        998    1    1    2    0    0  0.12607881347E+02  0.14626455263E+01  0.14304871183E+04  0.14305783773E+04  0.10000000000E+02 0.  1.
</event>
<event>
 5    1  0.1271464E-008  0.3834912E+03  0.7957747E-01  0.3436096E+00
         13   -1    0    0    0    0  0.00000000000E+00  0.00000000000E+00  0.14999999963E+04  0.15000000000E+04  0.10566000000E+00 0.  1.
        994   -1    0    0    0    0 -0.00000000000E+00 -0.00000000000E+00  0.11368683772E-12  0.17120000000E+03  0.17120000000E+03 0.  0.
         13    1    1    2    0    0 -0.19467220140E+02  0.11017548738E+02  0.10237521420E+03  0.10479052765E+03  0.10566000000E+00 0.  1.
        994    1    1    2    0    0  0.12572355808E+02 -0.12233098634E+02  0.33986528527E+01  0.17212990349E+03  0.17120000000E+03 0.  0.
        998    1    1    2    0    0  0.68948643319E+01  0.12155498959E+01  0.13942261292E+04  0.13942795689E+04  0.10000000000E+02 0.  1.
</event>
<event>
 5    1  0.1271464E-008  0.3852101E+03  0.7957747E-01  0.3428781E+00
         13   -1    0    0    0    0  0.00000000000E+00  0.00000000000E+00  0.14999999963E+04  0.15000000000E+04  0.10566000000E+00 0.  1.
        994   -1    0    0    0    0 -0.00000000000E+00 -0.00000000000E+00  0.11368683772E-12  0.17120000000E+03  0.17120000000E+03 0.  0.
         13    1    1    2    0    0  0.10855343461E+03 -0.20193509974E+02  0.32018448199E+03  0.33868826328E+03  0.10566000000E+00 0.  1.
        994    1    1    2    0    0 -0.55465288127E+02  0.41160440889E+02  0.37063710891E+02  0.18829163217E+03  0.17120000000E+03 0.  0.
        998    1    1    2    0    0 -0.53088146482E+02 -0.20966930914E+02  0.11427518034E+04  0.11442201046E+04  0.10000000000E+02 0.  1.
</event>
<event>
 5    1  0.1271464E-008  0.3711708E+03  0.7957747E-01  0.3490527E+00
         13   -1    0    0    0    0  0.00000000000E+00  0.00000000000E+00  0.14999999963E+04  0.15000000000E+04  0.10566000000E+00 0.  1.
        994   -1    0    0    0    0 -0.00000000000E+00 -0.00000000000E+00  0.11368683772E-12  0.17120000000E+03  0.17120000000E+03 0.  0.
         13    1    1    2    0    0 -0.57179016018E+02 -0.93885384171E+02  0.61933642005E+03  0.62901630948E+03  0.10566000000E+00 0.  1.
        994    1    1    2    0    0  0.73604531560E+02  0.18193119200E+02  0.32022302761E+02  0.18995653326E+03  0.17120000000E+03 0.  0.
        998    1    1    2    0    0 -0.16425515542E+02  0.75692264971E+02  0.84864127347E+03  0.85222715726E+03  0.10000000000E+02 0.  1.
</event>
<event>
 5    1  0.1271464E-008  0.3807885E+03  0.7957747E-01  0.3447732E+00
         13   -1    0    0    0    0  0.00000000000E+00  0.00000000000E+00  0.14999999963E+04  0.15000000000E+04  0.10566000000E+00 0.  1.
        994   -1    0    0    0    0 -0.00000000000E+00 -0.00000000000E+00  0.11368683772E-12  0.17120000000E+03  0.17120000000E+03 0.  0.
         13    1    1    2    0    0 -0.36086968542E+01 -0.34444301019E+02  0.19682007321E+03  0.19984390145E+03  0.10566000000E+00 0.  1.
        994    1    1    2    0    0  0.37977798610E+01 -0.67563936577E+01  0.39359478425E+01  0.17142054624E+03  0.17120000000E+03 0.  0.
        998    1    1    2    0    0 -0.18908300687E+00  0.41200694677E+02  0.12992439752E+04  0.12999355523E+04  0.10000000000E+02 0.  1.
</event>
<event>
 5    1  0.1271464E-008  0.3848563E+03  0.7957747E-01  0.3430282E+00
         13   -1    0    0    0    0  0.00000000000E+00  0.00000000000E+00  0.14999999963E+04  0.15000000000E+04  0.10566000000E+00 0.  1.
        994   -1    0    0    0    0 -0.00000000000E+00 -0.00000000000E+00  0.11368683772E-12  0.17120000000E+03  0.17120000000E+03 0.  0.
         13    1    1    2    0    0 -0.99217267890E+01 -0.45118484189E+01  0.35549375048E+02  0.37182881397E+02  0.10566000000E+00 0.  1.
        994    1    1    2    0    0  0.18705613457E+00  0.45666896747E+01  0.17702271252E+01  0.17127014728E+03  0.17120000000E+03 0.  0.
        998    1    1    2    0    0  0.97346706544E+01 -0.54841255736E-01  0.14626803941E+04  0.14627469713E+04  0.10000000000E+02 0.  1.
</event>
<event>
 5    1  0.1271464E-008  0.3703923E+03  0.7957747E-01  0.3494090E+00
         13   -1    0    0    0    0  0.00000000000E+00  0.00000000000E+00  0.14999999963E+04  0.15000000000E+04  0.10566000000E+00 0. -1.
        994   -1    0    0    0    0 -0.00000000000E+00 -0.00000000000E+00  0.11368683772E-12  0.17120000000E+03  0.17120000000E+03 0.  0.
         13    1    1    2    0    0 -0.58260197393E+02  0.75684469119E+02  0.39051149414E+03  0.40202192439E+03  0.10566000000E+00 0. -1.
        994    1    1    2    0    0  0.39918536032E+02 -0.45855187732E+02  0.24200521726E+02  0.18327927600E+03  0.17120000000E+03 0.  0.
        998    1    1    2    0    0  0.18341661361E+02 -0.29829281387E+02  0.10852879804E+04  0.10858987996E+04  0.10000000000E+02 0. -1.
</event>
<event>
 5    1  0.1271464E-008  0.3815397E+03  0.7957747E-01  0.3444482E+00
         13   -1    0    0    0    0  0.00000000000E+00  0.00000000000E+00  0.14999999963E+04  0.15000000000E+04  0.10566000000E+00 0.  1.
        994   -1    0    0    0    0 -0.00000000000E+00 -0.00000000000E+00  0.11368683772E-12  0.17120000000E+03  0.17120000000E+03 0.  0.
         13    1    1    2    0    0  0.27623355062E+01  0.36925837448E+02  0.21392044833E+03  0.21710162907E+03  0.10566000000E+00 0.  1.
        994    1    1    2    0    0 -0.27174742695E+02 -0.14524256458E+02  0.65221117238E+01  0.17407296920E+03  0.17120000000E+03 0.  0.
        998    1    1    2    0    0  0.24412407189E+02 -0.22401580990E+02  0.12795574362E+04  0.12800254017E+04  0.10000000000E+02 0.  1.
</event>
<event>
 5    1  0.1271464E-008  0.3728105E+03  0.7957747E-01  0.3483073E+00
         13   -1    0    0    0    0  0.00000000000E+00  0.00000000000E+00  0.14999999963E+04  0.15000000000E+04  0.10566000000E+00 0. -1.
        994   -1    0    0    0    0 -0.00000000000E+00 -0.00000000000E+00  0.11368683772E-12  0.17120000000E+03  0.17120000000E+03 0.  0.
         13    1    1    2    0    0  0.73750499005E+01 -0.18434059485E+02  0.21477816829E+02  0.29249165627E+02  0.10566000000E+00 0. -1.
        994    1    1    2    0    0 -0.74151504724E+01  0.21304123629E+02  0.95519025965E+01  0.17294371623E+03  0.17120000000E+03 0.  0.
        998    1    1    2    0    0  0.40100571851E-01 -0.28700641447E+01  0.14689702769E+04  0.14690071181E+04  0.10000000000E+02 0. -1.
</event>
<event>
 5    1  0.1271464E-008  0.3820562E+03  0.7957747E-01  0.3442254E+00
         13   -1    0    0    0    0  0.00000000000E+00  0.00000000000E+00  0.14999999963E+04  0.15000000000E+04  0.10566000000E+00 0. -1.
        994   -1    0    0    0    0 -0.00000000000E+00 -0.00000000000E+00  0.11368683772E-12  0.17120000000E+03  0.17120000000E+03 0.  0.
         13    1    1    2    0    0 -0.12541790649E+02 -0.11151782008E+02  0.48014008711E+02  0.50862706880E+02  0.10566000000E+00 0. -1.
        994    1    1    2    0    0 -0.10703353066E+02  0.37857287336E+00  0.34797342153E+01  0.17156996717E+03  0.17120000000E+03 0.  0.
        998    1    1    2    0    0  0.23245143715E+02  0.10773209134E+02  0.14485062534E+04  0.14487673260E+04  0.10000000000E+02 0. -1.
</event>
<event>
 5    1  0.1271464E-008  0.2993082E+03  0.7957747E-01  0.3900970E+00
         13   -1    0    0    0    0  0.00000000000E+00  0.00000000000E+00  0.14999999963E+04  0.15000000000E+04  0.10566000000E+00 0. -1.
        994   -1    0    0    0    0 -0.00000000000E+00 -0.00000000000E+00  0.11368683772E-12  0.17120000000E+03  0.17120000000E+03 0.  0.
         13    1    1    2    0    0 -0.28196095340E+02  0.18524874162E+03  0.76143773448E+03  0.78415531032E+03  0.10566000000E+00 0. -1.
        994    1    1    2    0    0  0.68434080307E+02 -0.10106240322E+03  0.85008287961E+02  0.22678774595E+03  0.17120000000E+03 0.  0.
        998    1    1    2    0    0 -0.40237984967E+02 -0.84186338396E+02  0.65355397384E+03  0.66025694372E+03  0.10000000000E+02 0. -1.
</event>
<event>
 5    1  0.1271464E-008  0.3734472E+03  0.7957747E-01  0.3480197E+00
         13   -1    0    0    0    0  0.00000000000E+00  0.00000000000E+00  0.14999999963E+04  0.15000000000E+04  0.10566000000E+00 0. -1.
        994   -1    0    0    0    0 -0.00000000000E+00 -0.00000000000E+00  0.11368683772E-12  0.17120000000E+03  0.17120000000E+03 0.  0.
         13    1    1    2    0    0 -0.53002163878E+02 -0.76980284799E+01  0.18765013188E+03  0.19514372185E+03  0.10566000000E+00 0. -1.
        994    1    1    2    0    0  0.34154582143E+02 -0.54388036684E+01  0.11576513365E+02  0.17504162856E+03  0.17120000000E+03 0.  0.
        998    1    1    2    0    0  0.18847581735E+02  0.13136832148E+02  0.13007733510E+04  0.13010146496E+04  0.10000000000E+02 0. -1.
</event>
<event>
 5    1  0.1271464E-008  0.3843158E+03  0.7957747E-01  0.3432579E+00
         13   -1    0    0    0    0  0.00000000000E+00  0.00000000000E+00  0.14999999963E+04  0.15000000000E+04  0.10566000000E+00 0.  1.
        994   -1    0    0    0    0 -0.00000000000E+00 -0.00000000000E+00  0.11368683772E-12  0.17120000000E+03  0.17120000000E+03 0.  0.
         13    1    1    2    0    0 -0.14541430113E+02  0.73269914852E+01  0.64719811496E+02  0.66736820107E+02  0.10566000000E+00 0.  1.
        994    1    1    2    0    0  0.13889972500E+02 -0.93247731750E+01  0.28932550471E+01  0.17203980253E+03  0.17120000000E+03 0.  0.
        998    1    1    2    0    0  0.65145761215E+00  0.19977816898E+01  0.14323869297E+04  0.14324233774E+04  0.10000000000E+02 0.  0.
</event>
<event>
 5    1  0.1271464E-008  0.3895532E+03  0.7957747E-01  0.3410588E+00
         13   -1    0    0    0    0  0.00000000000E+00  0.00000000000E+00  0.14999999963E+04  0.15000000000E+04  0.10566000000E+00 0. -1.
        994   -1    0    0    0    0 -0.00000000000E+00 -0.00000000000E+00  0.11368683772E-12  0.17120000000E+03  0.17120000000E+03 0.  0.
         13    1    1    2    0    0 -0.12612148116E+01  0.23031701712E+02  0.29591494481E+01  0.23255487009E+02  0.10566000000E+00 0. -1.
        994    1    1    2    0    0 -0.29515245759E+01 -0.12478458365E+02  0.22295179278E+02  0.17312116693E+03  0.17120000000E+03 0.  0.
        998    1    1    2    0    0  0.42127393876E+01 -0.10553243346E+02  0.14747456676E+04  0.14748233461E+04  0.10000000000E+02 0. -1.
</event>
<event>
 5    1  0.1271464E-008  0.3787487E+03  0.7957747E-01  0.3456625E+00
         13   -1    0    0    0    0  0.00000000000E+00  0.00000000000E+00  0.14999999963E+04  0.15000000000E+04  0.10566000000E+00 0.  1.
        994   -1    0    0    0    0 -0.00000000000E+00 -0.00000000000E+00  0.11368683772E-12  0.17120000000E+03  0.17120000000E+03 0.  0.
         13    1    1    2    0    0  0.73083500144E+01 -0.31506177821E+02  0.10859924163E+03  0.11331309575E+03  0.10566000000E+00 0.  1.
        994    1    1    2    0    0 -0.12301351937E+02  0.16257620386E+02  0.61625764237E+01  0.17251971142E+03  0.17120000000E+03 0.  0.
        998    1    1    2    0    0  0.49930019227E+01  0.15248557435E+02  0.13852381782E+04  0.13853671928E+04  0.10000000000E+02 0.  1.
</event>
<event>
 5    1  0.1271464E-008  0.3815440E+03  0.7957747E-01  0.3444463E+00
         13   -1    0    0    0    0  0.00000000000E+00  0.00000000000E+00  0.14999999963E+04  0.15000000000E+04  0.10566000000E+00 0. -1.
        994   -1    0    0    0    0 -0.00000000000E+00 -0.00000000000E+00  0.11368683772E-12  0.17120000000E+03  0.17120000000E+03 0.  0.
         13    1    1    2    0    0 -0.88518389453E+01  0.16564367470E+02  0.51995817264E+02  0.55283899097E+02  0.10566000000E+00 0. -1.
        994    1    1    2    0    0  0.24090756681E+01 -0.93880711391E+01  0.36682609570E+01  0.17151336876E+03  0.17120000000E+03 0.  0.
        998    1    1    2    0    0  0.64427632772E+01 -0.71762963307E+01  0.14443359181E+04  0.14444027321E+04  0.10000000000E+02 0. -1.
</event>
<event>
 5    1  0.1271464E-008  0.3842279E+03  0.7957747E-01  0.3432953E+00
         13   -1    0    0    0    0  0.00000000000E+00  0.00000000000E+00  0.14999999963E+04  0.15000000000E+04  0.10566000000E+00 0. -1.
        994   -1    0    0    0    0 -0.00000000000E+00 -0.00000000000E+00  0.11368683772E-12  0.17120000000E+03  0.17120000000E+03 0.  0.
         13    1    1    2    0    0  0.10255370917E+02 -0.11098540268E+02  0.56396502615E+02  0.58386016305E+02  0.10566000000E+00 0. -1.
        994    1    1    2    0    0 -0.10806393922E+02  0.33228459063E+01  0.24354680116E+01  0.17159018317E+03  0.17120000000E+03 0.  0.
        998    1    1    2    0    0  0.55102300440E+00  0.77756943618E+01  0.14411680257E+04  0.14412238005E+04  0.10000000000E+02 0. -1.
</event>
<event>
 5    1  0.1271464E-008  0.3694667E+03  0.7957747E-01  0.3498345E+00
         13   -1    0    0    0    0  0.00000000000E+00  0.00000000000E+00  0.14999999963E+04  0.15000000000E+04  0.10566000000E+00 0.  1.
        994   -1    0    0    0    0 -0.00000000000E+00 -0.00000000000E+00  0.11368683772E-12  0.17120000000E+03  0.17120000000E+03 0.  0.
         13    1    1    2    0    0 -0.14696906194E+02 -0.90919446520E+02  0.30605164976E+03  0.31960908668E+03  0.10566000000E+00 0.  1.
        994    1    1    2    0    0  0.28184338295E+02  0.91552336657E+02  0.43401225330E+02  0.20092111296E+03  0.17120000000E+03 0.  0.
        998    1    1    2    0    0 -0.13487432101E+02 -0.63289013743E+00  0.11505471212E+04  0.11506698004E+04  0.10000000000E+02 0.  1.
</event>
<event>
 5    1  0.1271464E-008  0.3773882E+03  0.7957747E-01  0.3462610E+00
         13   -1    0    0    0    0  0.00000000000E+00  0.00000000000E+00  0.14999999963E+04  0.15000000000E+04  0.10566000000E+00 0.  1.
        994   -1    0    0    0    0 -0.00000000000E+00 -0.00000000000E+00  0.11368683772E-12  0.17120000000E+03  0.17120000000E+03 0.  0.
         13    1    1    2    0    0 -0.11632056483E+02  0.27672367394E+02  0.78089856910E+02  0.83660633344E+02  0.10566000000E+00 0.  1.
        994    1    1    2    0    0  0.13680804905E+02 -0.22849629211E+02  0.78527915159E+01  0.17343695198E+03  0.17120000000E+03 0.  0.
        998    1    1    2    0    0 -0.20487484219E+01 -0.48227381824E+01  0.14140573479E+04  0.14141024147E+04  0.10000000000E+02 0.  1.
</event>
<event>
 5    1  0.1271464E-008  0.4163651E+03  0.7957747E-01  0.3306649E+00
         13   -1    0    0    0    0  0.00000000000E+00  0.00000000000E+00  0.14999999963E+04  0.15000000000E+04  0.10566000000E+00 0. -1.
        994   -1    0    0    0    0 -0.00000000000E+00 -0.00000000000E+00  0.11368683772E-12  0.17120000000E+03  0.17120000000E+03 0.  0.
         13    1    1    2    0    0  0.33554370757E+02  0.33518278950E+02  0.15581772755E+02  0.49921674921E+02  0.10566000000E+00 0. -1.
        994    1    1    2    0    0 -0.27027491054E+02 -0.26118698242E+02  0.43899512294E+02  0.18069111447E+03  0.17120000000E+03 0.  0.
        998    1    1    2    0    0 -0.65268797034E+01 -0.73995807082E+01  0.14405187112E+04  0.14405872106E+04  0.10000000000E+02 0. -1.
</event>
<event>
 5    1  0.1271464E-008  0.3737154E+03  0.7957747E-01  0.3478988E+00
         13   -1    0    0    0    0  0.00000000000E+00  0.00000000000E+00  0.14999999963E+04  0.15000000000E+04  0.10566000000E+00 0.  1.
        994   -1    0    0    0    0 -0.00000000000E+00 -0.00000000000E+00  0.11368683772E-12  0.17120000000E+03  0.17120000000E+03 0.  0.
         13    1    1    2    0    0 -0.21201035225E+02  0.11394204408E+03  0.68574898108E+03  0.69547390283E+03  0.10566000000E+00 0.  1.
        994    1    1    2    0    0 -0.20067376985E+02 -0.10121409220E+03  0.44608580864E+02  0.20480809937E+03  0.17120000000E+03 0.  0.
        998    1    1    2    0    0  0.41268412210E+02 -0.12727951878E+02  0.76964243434E+03  0.77091799780E+03  0.10000000000E+02 0.  1.
</event>
<event>
 5    1  0.1271464E-008  0.3842304E+03  0.7957747E-01  0.3432943E+00
         13   -1    0    0    0    0  0.00000000000E+00  0.00000000000E+00  0.14999999963E+04  0.15000000000E+04  0.10566000000E+00 0. -1.
        994   -1    0    0    0    0 -0.00000000000E+00 -0.00000000000E+00  0.11368683772E-12  0.17120000000E+03  0.17120000000E+03 0.  0.
         13    1    1    2    0    0 -0.21867556315E+01 -0.27408826161E+02  0.16339287399E+03  0.16569027759E+03  0.10566000000E+00 0. -1.
        994    1    1    2    0    0  0.53759443425E+01  0.31421168928E+02  0.53701653887E+01  0.17422534061E+03  0.17120000000E+03 0.  0.
        998    1    1    2    0    0 -0.31891887111E+01 -0.40123427672E+01  0.13312369569E+04  0.13312843818E+04  0.10000000000E+02 0. -1.
</event>
<event>
 5    1  0.1271464E-008  0.3767872E+03  0.7957747E-01  0.3465268E+00
         13   -1    0    0    0    0  0.00000000000E+00  0.00000000000E+00  0.14999999963E+04  0.15000000000E+04  0.10566000000E+00 0. -1.
        994   -1    0    0    0    0 -0.00000000000E+00 -0.00000000000E+00  0.11368683772E-12  0.17120000000E+03  0.17120000000E+03 0.  0.
         13    1    1    2    0    0 -0.29512308626E+01 -0.22206954677E+02  0.39444815626E+02  0.45362575362E+02  0.10566000000E+00 0. -1.
        994    1    1    2    0    0  0.23412631391E+02  0.26631940080E+02  0.10024197920E+02  0.17512091847E+03  0.17120000000E+03 0.  0.
        998    1    1    2    0    0 -0.20461400529E+02 -0.44249854026E+01  0.14505309827E+04  0.14507165062E+04  0.10000000000E+02 0. -1.
</event>
<event>
 5    1  0.1271464E-008  0.3763980E+03  0.7957747E-01  0.3466994E+00
         13   -1    0    0    0    0  0.00000000000E+00  0.00000000000E+00  0.14999999963E+04  0.15000000000E+04  0.10566000000E+00 0. -1.
        994   -1    0    0    0    0 -0.00000000000E+00 -0.00000000000E+00  0.11368683772E-12  0.17120000000E+03  0.17120000000E+03 0.  0.
         13    1    1    2    0    0  0.77177637066E+02 -0.28769759762E+02  0.46686511931E+03  0.47407503365E+03  0.10566000000E+00 0. -1.
        994    1    1    2    0    0 -0.59753771096E+02  0.29312210133E+02  0.21099532084E+02  0.18489010000E+03  0.17120000000E+03 0.  0.
        998    1    1    2    0    0 -0.17423865969E+02 -0.54245037063E+00  0.10120353449E+04  0.10122348664E+04  0.10000000000E+02 0. -1.
</event>
<event>
 5    1  0.1271464E-008  0.3850819E+03  0.7957747E-01  0.3429325E+00
         13   -1    0    0    0    0  0.00000000000E+00  0.00000000000E+00  0.14999999963E+04  0.15000000000E+04  0.10566000000E+00 0.  1.
        994   -1    0    0    0    0 -0.00000000000E+00 -0.00000000000E+00  0.11368683772E-12  0.17120000000E+03  0.17120000000E+03 0.  0.
         13    1    1    2    0    0  0.92725570003E+01  0.12409267033E+02  0.80291826239E+02  0.81772603887E+02  0.10566000000E+00 0.  1.
        994    1    1    2    0    0 -0.46914510268E+01  0.13465263911E+01  0.16678314177E+01  0.17127768246E+03  0.17120000000E+03 0.  0.
        998    1    1    2    0    0 -0.45811059734E+01 -0.13755793424E+02  0.14180403386E+04  0.14181497137E+04  0.10000000000E+02 0.  1.
</event>
<event>
 5    1  0.1271464E-008  0.3744356E+03  0.7957747E-01  0.3475751E+00
         13   -1    0    0    0    0  0.00000000000E+00  0.00000000000E+00  0.14999999963E+04  0.15000000000E+04  0.10566000000E+00 0.  1.
        994   -1    0    0    0    0 -0.00000000000E+00 -0.00000000000E+00  0.11368683772E-12  0.17120000000E+03  0.17120000000E+03 0.  0.
         13    1    1    2    0    0 -0.14186416192E+02  0.13076826149E+02  0.22859667423E+02  0.29913765146E+02  0.10566000000E+00 0.  1.
        994    1    1    2    0    0  0.25708232458E+02 -0.14771914044E+02  0.99686907090E+01  0.17403429965E+03  0.17120000000E+03 0.  0.
        998    1    1    2    0    0 -0.11521816266E+02  0.16950878949E+01  0.14671716381E+04  0.14672519352E+04  0.10000000000E+02 0.  1.
</event>
<event>
 5    1  0.1271464E-008  0.3714757E+03  0.7957747E-01  0.3489136E+00
         13   -1    0    0    0    0  0.00000000000E+00  0.00000000000E+00  0.14999999963E+04  0.15000000000E+04  0.10566000000E+00 0. -1.
        994   -1    0    0    0    0 -0.00000000000E+00 -0.00000000000E+00  0.11368683772E-12  0.17120000000E+03  0.17120000000E+03 0.  0.
         13    1    1    2    0    0  0.10872771409E+02  0.83546904410E+01  0.29191264678E+01  0.14019645996E+02  0.10566000000E+00 0. -1.
        994    1    1    2    0    0  0.48928380931E+01  0.16747448095E+02  0.12791693897E+02  0.17256153776E+03  0.17120000000E+03 0.  0.
        998    1    1    2    0    0 -0.15765609502E+02 -0.25102138536E+02  0.14842891759E+04  0.14846188162E+04  0.10000000000E+02 0. -1.
</event>
<event>
 5    1  0.1271464E-008  0.3823587E+03  0.7957747E-01  0.3440952E+00
         13   -1    0    0    0    0  0.00000000000E+00  0.00000000000E+00  0.14999999963E+04  0.15000000000E+04  0.10566000000E+00 0.  1.
        994   -1    0    0    0    0 -0.00000000000E+00 -0.00000000000E+00  0.11368683772E-12  0.17120000000E+03  0.17120000000E+03 0.  0.
         13    1    1    2    0    0 -0.20456530950E+02  0.13709425462E+02  0.10332659220E+03  0.10622059040E+03  0.10566000000E+00 0.  1.
        994    1    1    2    0    0  0.12184067405E+02 -0.50887070021E+01  0.35257429218E+01  0.17174462816E+03  0.17120000000E+03 0.  0.
        998    1    1    2    0    0  0.82724635448E+01 -0.86207184597E+01  0.13931476612E+04  0.13932347814E+04  0.10000000000E+02 0.  1.
</event>
<event>
 5    1  0.1271464E-008  0.3839090E+03  0.7957747E-01  0.3434313E+00
         13   -1    0    0    0    0  0.00000000000E+00  0.00000000000E+00  0.14999999963E+04  0.15000000000E+04  0.10566000000E+00 0.  1.
        994   -1    0    0    0    0 -0.00000000000E+00 -0.00000000000E+00  0.11368683772E-12  0.17120000000E+03  0.17120000000E+03 0.  0.
         13    1    1    2    0    0  0.14457841964E+02  0.13610035575E+02  0.96531440576E+02  0.98552485744E+02  0.10566000000E+00 0.  1.
        994    1    1    2    0    0 -0.10099851959E+02  0.64924794728E+01  0.26486897233E+01  0.17164094749E+03  0.17120000000E+03 0.  0.
        998    1    1    2    0    0 -0.43579900049E+01 -0.20102515048E+02  0.14008198660E+04  0.14010065668E+04  0.10000000000E+02 0.  1.
</event>
<event>
 5    1  0.1271464E-008  0.3739633E+03  0.7957747E-01  0.3477872E+00
         13   -1    0    0    0    0  0.00000000000E+00  0.00000000000E+00  0.14999999963E+04  0.15000000000E+04  0.10566000000E+00 0.  1.
        994   -1    0    0    0    0 -0.00000000000E+00 -0.00000000000E+00  0.11368683772E-12  0.17120000000E+03  0.17120000000E+03 0.  0.
         13    1    1    2    0    0  0.49476131095E+01  0.68111308520E+02  0.34360804367E+03  0.35032860012E+03  0.10566000000E+00 0.  1.
        994    1    1    2    0    0 -0.10010000480E+00 -0.30601389504E+02  0.10413056319E+02  0.17422493163E+03  0.17120000000E+03 0.  0.
        998    1    1    2    0    0 -0.48475131047E+01 -0.37509919015E+02  0.11459788963E+04  0.11466464683E+04  0.10000000000E+02 0.  1.
</event>
<event>
 5    1  0.1271464E-008  0.3746377E+03  0.7957747E-01  0.3474845E+00
         13   -1    0    0    0    0  0.00000000000E+00  0.00000000000E+00  0.14999999963E+04  0.15000000000E+04  0.10566000000E+00 0.  1.
        994   -1    0    0    0    0 -0.00000000000E+00 -0.00000000000E+00  0.11368683772E-12  0.17120000000E+03  0.17120000000E+03 0.  0.
         13    1    1    2    0    0 -0.45499505243E+02  0.25407895169E+02  0.30733651678E+03  0.31172345408E+03  0.10566000000E+00 0.  1.
        994    1    1    2    0    0 -0.17521377693E+02  0.19943052359E+02  0.92670456505E+01  0.17349363720E+03  0.17120000000E+03 0.  0.
        998    1    1    2    0    0  0.63020882936E+02 -0.45350947528E+02  0.11833964339E+04  0.11859829087E+04  0.10000000000E+02 0.  1.
</event>
<event>
 5    1  0.1271464E-008  0.3776599E+03  0.7957747E-01  0.3461411E+00
         13   -1    0    0    0    0  0.00000000000E+00  0.00000000000E+00  0.14999999963E+04  0.15000000000E+04  0.10566000000E+00 0.  1.
        994   -1    0    0    0    0 -0.00000000000E+00 -0.00000000000E+00  0.11368683772E-12  0.17120000000E+03  0.17120000000E+03 0.  0.
         13    1    1    2    0    0  0.14920625727E+02  0.49460242385E+02  0.21154183635E+03  0.21775881232E+03  0.10566000000E+00 0.  1.
        994    1    1    2    0    0 -0.21380228509E+02 -0.50260141388E+02  0.15436163087E+02  0.18036327540E+03  0.17120000000E+03 0.  0.
        998    1    1    2    0    0  0.64596027828E+01  0.79989900296E+00  0.12730219968E+04  0.12730779123E+04  0.10000000000E+02 0.  1.
</event>
<event>
 5    1  0.1271464E-008  0.3852284E+03  0.7957747E-01  0.3428704E+00
         13   -1    0    0    0    0  0.00000000000E+00  0.00000000000E+00  0.14999999963E+04  0.15000000000E+04  0.10566000000E+00 0.  1.
        994   -1    0    0    0    0 -0.00000000000E+00 -0.00000000000E+00  0.11368683772E-12  0.17120000000E+03  0.17120000000E+03 0.  0.
         13    1    1    2    0    0  0.73953846644E+01 -0.11676245719E+02  0.70253049895E+02  0.71599780810E+02  0.10566000000E+00 0.  1.
        994    1    1    2    0    0  0.33799116979E+01 -0.53093685308E+01  0.16469610246E+01  0.17132357012E+03  0.17120000000E+03 0.  0.
        998    1    1    2    0    0 -0.10775296362E+02  0.16985614249E+02  0.14280999854E+04  0.14282766491E+04  0.10000000000E+02 0.  1.
</event>
<event>
 5    1  0.1271464E-008  0.3782489E+03  0.7957747E-01  0.3458819E+00
         13   -1    0    0    0    0  0.00000000000E+00  0.00000000000E+00  0.14999999963E+04  0.15000000000E+04  0.10566000000E+00 0. -1.
        994   -1    0    0    0    0 -0.00000000000E+00 -0.00000000000E+00  0.11368683772E-12  0.17120000000E+03  0.17120000000E+03 0.  0.
         13    1    1    2    0    0 -0.36463010576E+02  0.48236493574E+02  0.33703988284E+03  0.34242109199E+03  0.10566000000E+00 0. -1.
        994    1    1    2    0    0  0.27868763330E+02 -0.32061873827E+02  0.11111677655E+02  0.17674145270E+03  0.17120000000E+03 0.  0.
        998    1    1    2    0    0  0.85942472460E+01 -0.16174619747E+02  0.11518484358E+04  0.11520374553E+04  0.10000000000E+02 0. -1.
</event>
<event>
 5    1  0.1271464E-008  0.3848275E+03  0.7957747E-01  0.3430404E+00
         13   -1    0    0    0    0  0.00000000000E+00  0.00000000000E+00  0.14999999963E+04  0.15000000000E+04  0.10566000000E+00 0.  1.
        994   -1    0    0    0    0 -0.00000000000E+00 -0.00000000000E+00  0.11368683772E-12  0.17120000000E+03  0.17120000000E+03 0.  0.
         13    1    1    2    0    0 -0.30199158833E+02  0.36534612580E+02  0.50606293862E+02  0.69338122653E+02  0.10566000000E+00 0.  1.
        994    1    1    2    0    0  0.35180556936E+02 -0.30915954743E+02  0.27140447232E+02  0.17955364580E+03  0.17120000000E+03 0.  0.
        998    1    1    2    0    0 -0.49813981029E+01 -0.56186578368E+01  0.14222532552E+04  0.14223082315E+04  0.10000000000E+02 0.  1.
</event>
<event>
 5    1  0.1271464E-008  0.3786841E+03  0.7957747E-01  0.3456908E+00
         13   -1    0    0    0    0  0.00000000000E+00  0.00000000000E+00  0.14999999963E+04  0.15000000000E+04  0.10566000000E+00 0. -1.
        994   -1    0    0    0    0 -0.00000000000E+00 -0.00000000000E+00  0.11368683772E-12  0.17120000000E+03  0.17120000000E+03 0.  0.
         13    1    1    2    0    0 -0.43745976164E+02  0.29783458963E+02  0.81790181712E+02  0.97418734579E+02  0.10566000000E+00 0. -1.
        994    1    1    2    0    0  0.37048626509E+02 -0.27282660620E+02  0.23279589562E+02  0.17879687801E+03  0.17120000000E+03 0.  0.
        998    1    1    2    0    0  0.66973496559E+01 -0.25007983432E+01  0.13949302250E+04  0.13949843874E+04  0.10000000000E+02 0. -1.
</event>
<event>
 5    1  0.1271464E-008  0.3762632E+03  0.7957747E-01  0.3467593E+00
         13   -1    0    0    0    0  0.00000000000E+00  0.00000000000E+00  0.14999999963E+04  0.15000000000E+04  0.10566000000E+00 0. -1.
        994   -1    0    0    0    0 -0.00000000000E+00 -0.00000000000E+00  0.11368683772E-12  0.17120000000E+03  0.17120000000E+03 0.  0.
         13    1    1    2    0    0 -0.14951828038E+02 -0.35513991810E+02  0.13526661171E+03  0.14064802944E+03  0.10566000000E+00 0. -1.
        994    1    1    2    0    0 -0.14018503568E+01  0.20962269412E+01  0.60530258907E+01  0.17132553363E+03  0.17120000000E+03 0.  0.
        998    1    1    2    0    0  0.16353678394E+02  0.33417764868E+02  0.13586803587E+04  0.13592264369E+04  0.10000000000E+02 0. -1.
</event>
<event>
 5    1  0.1271464E-008  0.3851470E+03  0.7957747E-01  0.3429049E+00
         13   -1    0    0    0    0  0.00000000000E+00  0.00000000000E+00  0.14999999963E+04  0.15000000000E+04  0.10566000000E+00 0. -1.
        994   -1    0    0    0    0 -0.00000000000E+00 -0.00000000000E+00  0.11368683772E-12  0.17120000000E+03  0.17120000000E+03 0.  0.
         13    1    1    2    0    0  0.16758208637E+02  0.69554036584E+01  0.10274443502E+03  0.10433429584E+03  0.10566000000E+00 0. -1.
        994    1    1    2    0    0 -0.11681285788E+02 -0.11884231272E+02  0.24704836165E+01  0.17202683128E+03  0.17120000000E+03 0.  0.
        998    1    1    2    0    0 -0.50769228485E+01  0.49288276135E+01  0.13947850776E+04  0.13948388729E+04  0.10000000000E+02 0. -1.
</event>
<event>
 5    1  0.1271464E-008  0.3837832E+03  0.7957747E-01  0.3434849E+00
         13   -1    0    0    0    0  0.00000000000E+00  0.00000000000E+00  0.14999999963E+04  0.15000000000E+04  0.10566000000E+00 0. -1.
        994   -1    0    0    0    0 -0.00000000000E+00 -0.00000000000E+00  0.11368683772E-12  0.17120000000E+03  0.17120000000E+03 0.  0.
         13    1    1    2    0    0 -0.66876752231E+02  0.51079602143E+01  0.13857031009E+03  0.15394912552E+03  0.10566000000E+00 0. -1.
        994    1    1    2    0    0 -0.79850871656E+01 -0.14191153407E+02  0.19396050497E+02  0.17306298630E+03  0.17120000000E+03 0.  0.
        998    1    1    2    0    0  0.74861839397E+02  0.90831931927E+01  0.13420336357E+04  0.13441878882E+04  0.10000000000E+02 0. -1.
</event>
<event>
 5    1  0.1271464E-008  0.2813994E+03  0.7957747E-01  0.4038464E+00
         13   -1    0    0    0    0  0.00000000000E+00  0.00000000000E+00  0.14999999963E+04  0.15000000000E+04  0.10566000000E+00 0. -1.
        994   -1    0    0    0    0 -0.00000000000E+00 -0.00000000000E+00  0.11368683772E-12  0.17120000000E+03  0.17120000000E+03 0.  0.
         13    1    1    2    0    0 -0.12930724046E+03 -0.10707063063E+03  0.52708175564E+03  0.55317236977E+03  0.10566000000E+00 0. -1.
        994    1    1    2    0    0  0.13964524577E+03  0.10286953132E+03  0.13234749201E+03  0.27732333797E+03  0.17120000000E+03 0.  0.
        998    1    1    2    0    0 -0.10338005307E+02  0.42010993148E+01  0.84057074863E+03  0.84070429227E+03  0.10000000000E+02 0.  0.
</event>
<event>
 5    1  0.1271464E-008  0.3777906E+03  0.7957747E-01  0.3460836E+00
         13   -1    0    0    0    0  0.00000000000E+00  0.00000000000E+00  0.14999999963E+04  0.15000000000E+04  0.10566000000E+00 0.  1.
        994   -1    0    0    0    0 -0.00000000000E+00 -0.00000000000E+00  0.11368683772E-12  0.17120000000E+03  0.17120000000E+03 0.  0.
         13    1    1    2    0    0 -0.12041879825E+02 -0.18303979103E+01  0.11848328880E+02  0.16992683352E+02  0.10566000000E+00 0.  1.
        994    1    1    2    0    0  0.42784005271E+01  0.15601957122E+02  0.61344746962E+01  0.17207207082E+03  0.17120000000E+03 0.  0.
        998    1    1    2    0    0  0.77634792976E+01 -0.13771559212E+02  0.14820171927E+04  0.14821352458E+04  0.10000000000E+02 0.  1.
</event>
<event>
 5    1  0.1271464E-008  0.3830783E+03  0.7957747E-01  0.3437863E+00
         13   -1    0    0    0    0  0.00000000000E+00  0.00000000000E+00  0.14999999963E+04  0.15000000000E+04  0.10566000000E+00 0. -1.
        994   -1    0    0    0    0 -0.00000000000E+00 -0.00000000000E+00  0.11368683772E-12  0.17120000000E+03  0.17120000000E+03 0.  0.
         13    1    1    2    0    0 -0.48200198730E+01  0.22266198813E+02  0.95498940250E+02  0.98178790755E+02  0.10566000000E+00 0. -1.
        994    1    1    2    0    0  0.29989402934E+01 -0.20797624483E+02  0.40497472557E+01  0.17253224417E+03  0.17120000000E+03 0.  0.
        998    1    1    2    0    0  0.18210795796E+01 -0.14685743294E+01  0.14004513088E+04  0.14004889651E+04  0.10000000000E+02 0.  0.
</event>
<event>
 5    1  0.1271464E-008  0.3851065E+03  0.7957747E-01  0.3429221E+00
         13   -1    0    0    0    0  0.00000000000E+00  0.00000000000E+00  0.14999999963E+04  0.15000000000E+04  0.10566000000E+00 0.  1.
        994   -1    0    0    0    0 -0.00000000000E+00 -0.00000000000E+00  0.11368683772E-12  0.17120000000E+03  0.17120000000E+03 0.  0.
         13    1    1    2    0    0  0.83334831868E+01 -0.17188929345E+02  0.96869648688E+02  0.98735232998E+02  0.10566000000E+00 0.  1.
        994    1    1    2    0    0 -0.18853345001E+02  0.30514407758E+02  0.58184145229E+01  0.17501391844E+03  0.17120000000E+03 0.  0.
        998    1    1    2    0    0  0.10519861814E+02 -0.13325478413E+02  0.13973119331E+04  0.13974508486E+04  0.10000000000E+02 0.  1.
</event>
<event>
 5    1  0.1271464E-008  0.3827595E+03  0.7957747E-01  0.3439230E+00
         13   -1    0    0    0    0  0.00000000000E+00  0.00000000000E+00  0.14999999963E+04  0.15000000000E+04  0.10566000000E+00 0. -1.
        994   -1    0    0    0    0 -0.00000000000E+00 -0.00000000000E+00  0.11368683772E-12  0.17120000000E+03  0.17120000000E+03 0.  0.
         13    1    1    2    0    0  0.23247605694E+02 -0.20492217514E+02  0.16180838356E+03  0.16474934386E+03  0.10566000000E+00 0. -1.
        994    1    1    2    0    0 -0.18878349632E+02  0.20287799945E+02  0.52949039225E+01  0.17350925889E+03  0.17120000000E+03 0.  0.
        998    1    1    2    0    0 -0.43692560627E+01  0.20441756886E+00  0.13328967088E+04  0.13329413973E+04  0.10000000000E+02 0. -1.
</event>
<event>
 5    1  0.1271464E-008  0.3855325E+03  0.7957747E-01  0.3427417E+00
         13   -1    0    0    0    0  0.00000000000E+00  0.00000000000E+00  0.14999999963E+04  0.15000000000E+04  0.10566000000E+00 0.  1.
        994   -1    0    0    0    0 -0.00000000000E+00 -0.00000000000E+00  0.11368683772E-12  0.17120000000E+03  0.17120000000E+03 0.  0.
         13    1    1    2    0    0  0.10815761953E+02  0.11875599264E+01  0.44337122976E+02  0.45652849232E+02  0.10566000000E+00 0.  1.
        994    1    1    2    0    0 -0.44948828823E+01  0.35811681880E+01  0.14744421706E+01  0.17130278082E+03  0.17120000000E+03 0.  0.
        998    1    1    2    0    0 -0.63208790705E+01 -0.47687281143E+01  0.14541884311E+04  0.14542443699E+04  0.10000000000E+02 0.  1.
</event>
<event>
 5    1  0.1271464E-008  0.3853062E+03  0.7957747E-01  0.3428374E+00
         13   -1    0    0    0    0  0.00000000000E+00  0.00000000000E+00  0.14999999963E+04  0.15000000000E+04  0.10566000000E+00 0.  1.
        994   -1    0    0    0    0 -0.00000000000E+00 -0.00000000000E+00  0.11368683772E-12  0.17120000000E+03  0.17120000000E+03 0.  0.
         13    1    1    2    0    0  0.13623019872E+02  0.26090827999E+01  0.64111755756E+02  0.65595139863E+02  0.10566000000E+00 0.  1.
        994    1    1    2    0    0 -0.11142529317E+02 -0.52216268809E+01  0.19758121365E+01  0.17165303720E+03  0.17120000000E+03 0.  0.
        998    1    1    2    0    0 -0.24804905548E+01  0.26125440810E+01  0.14339124284E+04  0.14339518229E+04  0.10000000000E+02 0.  1.
</event>
<event>
 5    1  0.1271464E-008  0.3810460E+03  0.7957747E-01  0.3446616E+00
         13   -1    0    0    0    0  0.00000000000E+00  0.00000000000E+00  0.14999999963E+04  0.15000000000E+04  0.10566000000E+00 0. -1.
        994   -1    0    0    0    0 -0.00000000000E+00 -0.00000000000E+00  0.11368683772E-12  0.17120000000E+03  0.17120000000E+03 0.  0.
         13    1    1    2    0    0  0.20096062537E+02  0.37376525723E+01  0.64291800855E+02  0.67463090631E+02  0.10566000000E+00 0. -1.
        994    1    1    2    0    0  0.11689225417E+02  0.18355610516E+02  0.51852782017E+01  0.17265541850E+03  0.17120000000E+03 0.  0.
        998    1    1    2    0    0 -0.31785287954E+02 -0.22093263088E+02  0.14305229172E+04  0.14310814909E+04  0.10000000000E+02 0. -1.
</event>
<event>
 5    1  0.1271464E-008  0.3848923E+03  0.7957747E-01  0.3430129E+00
         13   -1    0    0    0    0  0.00000000000E+00  0.00000000000E+00  0.14999999963E+04  0.15000000000E+04  0.10566000000E+00 0.  1.
        994   -1    0    0    0    0 -0.00000000000E+00 -0.00000000000E+00  0.11368683772E-12  0.17120000000E+03  0.17120000000E+03 0.  0.
         13    1    1    2    0    0 -0.60751936636E+01 -0.99727500634E+01  0.40524787842E+02  0.42173846345E+02  0.10566000000E+00 0.  1.
        994    1    1    2    0    0 -0.37687579036E+01  0.10411669233E+02  0.20870731446E+01  0.17157040032E+03  0.17120000000E+03 0.  0.
        998    1    1    2    0    0  0.98439515672E+01 -0.43891916962E+00  0.14573881353E+04  0.14574557533E+04  0.10000000000E+02 0.  1.
</event>
<event>
 5    1  0.1271464E-008  0.3835393E+03  0.7957747E-01  0.3435891E+00
         13   -1    0    0    0    0  0.00000000000E+00  0.00000000000E+00  0.14999999963E+04  0.15000000000E+04  0.10566000000E+00 0. -1.
        994   -1    0    0    0    0 -0.00000000000E+00 -0.00000000000E+00  0.11368683772E-12  0.17120000000E+03  0.17120000000E+03 0.  0.
         13    1    1    2    0    0  0.19088280769E+02  0.74835007390E+01  0.88018044451E+02  0.90374512773E+02  0.10566000000E+00 0. -1.
        994    1    1    2    0    0 -0.11688664731E+02 -0.85253277136E+01  0.30490239531E+01  0.17183725627E+03  0.17120000000E+03 0.  0.
        998    1    1    2    0    0 -0.73996160377E+01  0.10418269746E+01  0.14089329279E+04  0.14089882310E+04  0.10000000000E+02 0. -1.
</event>
<event>
 5    1  0.1271464E-008  0.3716847E+03  0.7957747E-01  0.3488184E+00
         13   -1    0    0    0    0  0.00000000000E+00  0.00000000000E+00  0.14999999963E+04  0.15000000000E+04  0.10566000000E+00 0. -1.
        994   -1    0    0    0    0 -0.00000000000E+00 -0.00000000000E+00  0.11368683772E-12  0.17120000000E+03  0.17120000000E+03 0.  0.
         13    1    1    2    0    0  0.18659150289E+02  0.43836243467E+02  0.85394395632E+02  0.97785449327E+02  0.10566000000E+00 0. -1.
        994    1    1    2    0    0 -0.16868526498E+02 -0.50244080855E+02  0.21777343217E+02  0.18053450508E+03  0.17120000000E+03 0.  0.
        998    1    1    2    0    0 -0.17906237907E+01  0.64078373878E+01  0.13928282574E+04  0.13928800456E+04  0.10000000000E+02 0. -1.
</event>
<event>
 5    1  0.1271464E-008  0.3791881E+03  0.7957747E-01  0.3454701E+00
         13   -1    0    0    0    0  0.00000000000E+00  0.00000000000E+00  0.14999999963E+04  0.15000000000E+04  0.10566000000E+00 0. -1.
        994   -1    0    0    0    0 -0.00000000000E+00 -0.00000000000E+00  0.11368683772E-12  0.17120000000E+03  0.17120000000E+03 0.  0.
         13    1    1    2    0    0 -0.23879526018E+01  0.14940757943E+02  0.23020518725E+02  0.27547849498E+02  0.10566000000E+00 0. -1.
        994    1    1    2    0    0  0.77034658786E+01 -0.14018792927E+02  0.54016783542E+01  0.17203048588E+03  0.17120000000E+03 0.  0.
        998    1    1    2    0    0 -0.53155132768E+01 -0.92196501613E+00  0.14715777992E+04  0.14716216646E+04  0.10000000000E+02 0. -1.
</event>
<event>
 5    1  0.1271464E-008  0.3852662E+03  0.7957747E-01  0.3428544E+00
         13   -1    0    0    0    0  0.00000000000E+00  0.00000000000E+00  0.14999999963E+04  0.15000000000E+04  0.10566000000E+00 0. -1.
        994   -1    0    0    0    0 -0.00000000000E+00 -0.00000000000E+00  0.11368683772E-12  0.17120000000E+03  0.17120000000E+03 0.  0.
         13    1    1    2    0    0  0.12377187382E+02 -0.41105329674E+01  0.55207046100E+02  0.56726716385E+02  0.10566000000E+00 0. -1.
        994    1    1    2    0    0 -0.13207117709E+02  0.36217167571E+01  0.21145243386E+01  0.17175987891E+03  0.17120000000E+03 0.  0.
        998    1    1    2    0    0  0.82993032708E+00  0.48881621027E+00  0.14426784258E+04  0.14427134047E+04  0.10000000000E+02 0. -1.
</event>
<event>
 5    1  0.1271464E-008  0.3814907E+03  0.7957747E-01  0.3444693E+00
         13   -1    0    0    0    0  0.00000000000E+00  0.00000000000E+00  0.14999999963E+04  0.15000000000E+04  0.10566000000E+00 0.  1.
        994   -1    0    0    0    0 -0.00000000000E+00 -0.00000000000E+00  0.11368683772E-12  0.17120000000E+03  0.17120000000E+03 0.  0.
         13    1    1    2    0    0 -0.69213015627E+00 -0.11006129957E+02  0.16584667837E+02  0.19916734473E+02  0.10566000000E+00 0.  1.
        994    1    1    2    0    0 -0.51079324775E+01  0.80613914111E+01  0.36855435551E+01  0.17150539419E+03  0.17120000000E+03 0.  0.
        998    1    1    2    0    0  0.58000626337E+01  0.29447385454E+01  0.14797297849E+04  0.14797778713E+04  0.10000000000E+02 0.  1.
</event>
<event>
 5    1  0.1271464E-008  0.3866068E+03  0.7957747E-01  0.3422886E+00
         13   -1    0    0    0    0  0.00000000000E+00  0.00000000000E+00  0.14999999963E+04  0.15000000000E+04  0.10566000000E+00 0.  1.
        994   -1    0    0    0    0 -0.00000000000E+00 -0.00000000000E+00  0.11368683772E-12  0.17120000000E+03  0.17120000000E+03 0.  0.
         13    1    1    2    0    0 -0.26609606349E+02  0.15774997525E+02  0.15448950034E+02  0.34577491496E+02  0.10566000000E+00 0.  1.
        994    1    1    2    0    0  0.27059791671E+02 -0.11433991706E+02  0.23215916388E+02  0.17524664694E+03  0.17120000000E+03 0.  0.
        998    1    1    2    0    0 -0.45018532198E+00 -0.43410058183E+01  0.14613351299E+04  0.14613758616E+04  0.10000000000E+02 0.  1.
</event>
<event>
 5    1  0.1271464E-008  0.3812220E+03  0.7957747E-01  0.3445855E+00
         13   -1    0    0    0    0  0.00000000000E+00  0.00000000000E+00  0.14999999963E+04  0.15000000000E+04  0.10566000000E+00 0.  1.
        994   -1    0    0    0    0 -0.00000000000E+00 -0.00000000000E+00  0.11368683772E-12  0.17120000000E+03  0.17120000000E+03 0.  0.
         13    1    1    2    0    0 -0.17928102189E+02 -0.16904099103E+02  0.85335808640E+02  0.88822163985E+02  0.10566000000E+00 0.  1.
        994    1    1    2    0    0  0.12652005760E+02  0.81612740884E+01  0.42726264971E+01  0.17191385919E+03  0.17120000000E+03 0.  0.
        998    1    1    2    0    0  0.52760964294E+01  0.87428250145E+01  0.14103915611E+04  0.14104639768E+04  0.10000000000E+02 0.  1.
</event>
<event>
 5    1  0.1271464E-008  0.3803273E+03  0.7957747E-01  0.3449735E+00
         13   -1    0    0    0    0  0.00000000000E+00  0.00000000000E+00  0.14999999963E+04  0.15000000000E+04  0.10566000000E+00 0. -1.
        994   -1    0    0    0    0 -0.00000000000E+00 -0.00000000000E+00  0.11368683772E-12  0.17120000000E+03  0.17120000000E+03 0.  0.
         13    1    1    2    0    0 -0.17040681068E+02 -0.11330733181E+02  0.49465555912E+02  0.53531511387E+02  0.10566000000E+00 0. -1.
        994    1    1    2    0    0  0.19310422383E+02  0.12443253941E+02  0.57322388202E+01  0.17282946954E+03  0.17120000000E+03 0.  0.
        998    1    1    2    0    0 -0.22697413157E+01 -0.11125207602E+01  0.14448022015E+04  0.14448390191E+04  0.10000000000E+02 0. -1.
</event>
<event>
 5    1  0.1271464E-008  0.3830165E+03  0.7957747E-01  0.3438128E+00
         13   -1    0    0    0    0  0.00000000000E+00  0.00000000000E+00  0.14999999963E+04  0.15000000000E+04  0.10566000000E+00 0. -1.
        994   -1    0    0    0    0 -0.00000000000E+00 -0.00000000000E+00  0.11368683772E-12  0.17120000000E+03  0.17120000000E+03 0.  0.
         13    1    1    2    0    0 -0.50571582347E+01 -0.20779851749E+02  0.85545797330E+02  0.88178635127E+02  0.10566000000E+00 0. -1.
        994    1    1    2    0    0  0.60493397337E+01  0.14550659507E+02  0.34404819782E+01  0.17195811443E+03  0.17120000000E+03 0.  0.
        998    1    1    2    0    0 -0.99218149899E+00  0.62291922424E+01  0.14110137170E+04  0.14110632504E+04  0.10000000000E+02 0. -1.
</event>
<event>
 5    1  0.1271464E-008  0.3831037E+03  0.7957747E-01  0.3437755E+00
         13   -1    0    0    0    0  0.00000000000E+00  0.00000000000E+00  0.14999999963E+04  0.15000000000E+04  0.10566000000E+00 0. -1.
        994   -1    0    0    0    0 -0.00000000000E+00 -0.00000000000E+00  0.11368683772E-12  0.17120000000E+03  0.17120000000E+03 0.  0.
         13    1    1    2    0    0  0.77005481014E+01  0.10494193919E+02  0.33221507623E+02  0.35680614903E+02  0.10566000000E+00 0. -1.
        994    1    1    2    0    0 -0.50562714724E+01  0.42652954680E+01  0.27193677288E+01  0.17134933203E+03  0.17120000000E+03 0.  0.
        998    1    1    2    0    0 -0.26442766289E+01 -0.14759489387E+02  0.14640591209E+04  0.14641700531E+04  0.10000000000E+02 0. -1.
</event>
<event>
 5    1  0.1271464E-008  0.3822771E+03  0.7957747E-01  0.3441303E+00
         13   -1    0    0    0    0  0.00000000000E+00  0.00000000000E+00  0.14999999963E+04  0.15000000000E+04  0.10566000000E+00 0. -1.
        994   -1    0    0    0    0 -0.00000000000E+00 -0.00000000000E+00  0.11368683772E-12  0.17120000000E+03  0.17120000000E+03 0.  0.
         13    1    1    2    0    0 -0.37842707447E+01  0.13807969165E+02  0.33745868318E+02  0.36657543699E+02  0.10566000000E+00 0. -1.
        994    1    1    2    0    0 -0.18418766378E+00 -0.57687710113E+01  0.30985971600E+01  0.17132528695E+03  0.17120000000E+03 0.  0.
        998    1    1    2    0    0  0.39684584084E+01 -0.80391981537E+01  0.14631555308E+04  0.14632171694E+04  0.10000000000E+02 0. -1.
</event>
<event>
 5    1  0.1556893E-008  0.3853742E+03  0.7957747E-01  0.3428087E+00
         13   -1    0    0    0    0  0.00000000000E+00  0.00000000000E+00  0.14999999963E+04  0.15000000000E+04  0.10566000000E+00 0.  1.
        994   -1    0    0    0    0 -0.00000000000E+00 -0.00000000000E+00  0.11368683772E-12  0.17120000000E+03  0.17120000000E+03 0.  0.
         13    1    1    2    0    0  0.51090768495E+01 -0.92034843249E+01  0.37932533111E+02  0.39366165958E+02  0.10566000000E+00 0.  1.
        994    1    1    2    0    0 -0.77401802774E+01  0.64945749306E+01  0.17798879114E+01  0.17150713657E+03  0.17120000000E+03 0.  0.
        998    1    1    2    0    0  0.26311034279E+01  0.27089093943E+01  0.14602875753E+04  0.14603266975E+04  0.10000000000E+02 0.  1.
</event>
<event>
 5    1  0.1271464E-008  0.3858806E+03  0.7957747E-01  0.3425946E+00
         13   -1    0    0    0    0  0.00000000000E+00  0.00000000000E+00  0.14999999963E+04  0.15000000000E+04  0.10566000000E+00 0.  1.
        994   -1    0    0    0    0 -0.00000000000E+00 -0.00000000000E+00  0.11368683772E-12  0.17120000000E+03  0.17120000000E+03 0.  0.
         13    1    1    2    0    0  0.12426697758E+02  0.32607899608E+01  0.77250105755E+02  0.78311209744E+02  0.10566000000E+00 0.  1.
        994    1    1    2    0    0  0.16770347261E+01  0.83942255708E+01  0.14339020893E+01  0.17141986916E+03  0.17120000000E+03 0.  0.
        998    1    1    2    0    0 -0.14103732484E+02 -0.11655015532E+02  0.14213159884E+04  0.14214689211E+04  0.10000000000E+02 0.  1.
</event>
<event>
 5    1  0.1271464E-008  0.3867242E+03  0.7957747E-01  0.3422393E+00
         13   -1    0    0    0    0  0.00000000000E+00  0.00000000000E+00  0.14999999963E+04  0.15000000000E+04  0.10566000000E+00 0. -1.
        994   -1    0    0    0    0 -0.00000000000E+00 -0.00000000000E+00  0.11368683772E-12  0.17120000000E+03  0.17120000000E+03 0.  0.
         13    1    1    2    0    0 -0.87012623109E+02 -0.59598335690E+02  0.23071605537E+03  0.25367906410E+03  0.10566000000E+00 0. -1.
        994    1    1    2    0    0  0.70658082585E+02  0.78203828438E+02  0.62630264785E+02  0.21057158755E+03  0.17120000000E+03 0.  0.
        998    1    1    2    0    0  0.16354540523E+02 -0.18605492748E+02  0.12066536761E+04  0.12069493483E+04  0.10000000000E+02 0. -1.
</event>
<event>
 5    1  0.1604548E-008  0.3855185E+03  0.7957747E-01  0.3427476E+00
         13   -1    0    0    0    0  0.00000000000E+00  0.00000000000E+00  0.14999999963E+04  0.15000000000E+04  0.10566000000E+00 0. -1.
        994   -1    0    0    0    0 -0.00000000000E+00 -0.00000000000E+00  0.11368683772E-12  0.17120000000E+03  0.17120000000E+03 0.  0.
         13    1    1    2    0    0  0.46440685234E+01  0.10637137790E+02  0.48454441105E+02  0.49825295781E+02  0.10566000000E+00 0. -1.
        994    1    1    2    0    0 -0.20569267171E+01 -0.10741318843E+02  0.17657007787E+01  0.17155805017E+03  0.17120000000E+03 0.  0.
        998    1    1    2    0    0 -0.25871418063E+01  0.10418105263E+00  0.14497798544E+04  0.14498166541E+04  0.10000000000E+02 0. -1.
</event>
<event>
 5    1  0.1271464E-008  0.3716375E+03  0.7957747E-01  0.3488399E+00
         13   -1    0    0    0    0  0.00000000000E+00  0.00000000000E+00  0.14999999963E+04  0.15000000000E+04  0.10566000000E+00 0.  1.
        994   -1    0    0    0    0 -0.00000000000E+00 -0.00000000000E+00  0.11368683772E-12  0.17120000000E+03  0.17120000000E+03 0.  0.
         13    1    1    2    0    0  0.57890736660E+02 -0.26700538048E+02  0.15174938613E+03  0.16459691212E+03  0.10566000000E+00 0.  1.
        994    1    1    2    0    0 -0.57637145856E+02  0.27573769241E+02  0.26303246241E+02  0.18461758880E+03  0.17120000000E+03 0.  0.
        998    1    1    2    0    0 -0.25359080404E+00 -0.87323119324E+00  0.13219473639E+04  0.13219854991E+04  0.10000000000E+02 0.  0.
</event>
<event>
 5    1  0.1271464E-008  0.3815088E+03  0.7957747E-01  0.3444615E+00
         13   -1    0    0    0    0  0.00000000000E+00  0.00000000000E+00  0.14999999963E+04  0.15000000000E+04  0.10566000000E+00 0. -1.
        994   -1    0    0    0    0 -0.00000000000E+00 -0.00000000000E+00  0.11368683772E-12  0.17120000000E+03  0.17120000000E+03 0.  0.
         13    1    1    2    0    0 -0.18601169757E+02  0.11911134828E+02  0.65978999456E+02  0.69578144431E+02  0.10566000000E+00 0. -1.
        994    1    1    2    0    0  0.24674328300E+02 -0.18168606808E+02  0.65028867973E+01  0.17404208769E+03  0.17120000000E+03 0.  0.
        998    1    1    2    0    0 -0.60731585429E+01  0.62574719800E+01  0.14275181100E+04  0.14275797679E+04  0.10000000000E+02 0. -1.
</event>
<event>
 5    1  0.1271464E-008  0.4005748E+03  0.7957747E-01  0.3366189E+00
         13   -1    0    0    0    0  0.00000000000E+00  0.00000000000E+00  0.14999999963E+04  0.15000000000E+04  0.10566000000E+00 0.  1.
        994   -1    0    0    0    0 -0.00000000000E+00 -0.00000000000E+00  0.11368683772E-12  0.17120000000E+03  0.17120000000E+03 0.  0.
         13    1    1    2    0    0  0.13433795704E+03  0.19663940602E+02  0.25088879026E+03  0.28526926491E+03  0.10566000000E+00 0.  1.
        994    1    1    2    0    0 -0.14046825384E+03 -0.18595240156E+02  0.11218189169E+03  0.24894041479E+03  0.17120000000E+03 0.  0.
        998    1    1    2    0    0  0.61302968076E+01 -0.10687004460E+01  0.11369293143E+04  0.11369903203E+04  0.10000000000E+02 0.  1.
</event>
<event>
 5    1  0.1271464E-008  0.3821467E+03  0.7957747E-01  0.3441864E+00
         13   -1    0    0    0    0  0.00000000000E+00  0.00000000000E+00  0.14999999963E+04  0.15000000000E+04  0.10566000000E+00 0.  1.
        994   -1    0    0    0    0 -0.00000000000E+00 -0.00000000000E+00  0.11368683772E-12  0.17120000000E+03  0.17120000000E+03 0.  0.
         13    1    1    2    0    0 -0.15158994363E+02  0.14202318400E+02  0.68089620986E+02  0.71187840310E+02  0.10566000000E+00 0.  1.
        994    1    1    2    0    0  0.16676549846E+02 -0.85029927467E+01  0.42173973880E+01  0.17227197869E+03  0.17120000000E+03 0.  0.
        998    1    1    2    0    0 -0.15175554831E+01 -0.56993256530E+01  0.14276929779E+04  0.14277401810E+04  0.10000000000E+02 0.  1.
</event>
<event>
 5    1  0.1271464E-008  0.3845597E+03  0.7957747E-01  0.3431542E+00
         13   -1    0    0    0    0  0.00000000000E+00  0.00000000000E+00  0.14999999963E+04  0.15000000000E+04  0.10566000000E+00 0.  1.
        994   -1    0    0    0    0 -0.00000000000E+00 -0.00000000000E+00  0.11368683772E-12  0.17120000000E+03  0.17120000000E+03 0.  0.
         13    1    1    2    0    0  0.12782475021E+02  0.54926835119E+01  0.53694055993E+02  0.55467324191E+02  0.10566000000E+00 0.  1.
        994    1    1    2    0    0 -0.18360886102E+01 -0.52589720031E+01  0.19510855771E+01  0.17130170677E+03  0.17120000000E+03 0.  0.
        998    1    1    2    0    0 -0.10946386410E+02 -0.23371150879E+00  0.14443548547E+04  0.14444309690E+04  0.10000000000E+02 0.  1.
</event>
<event>
 5    1  0.1271464E-008  0.3743545E+03  0.7957747E-01  0.3476115E+00
         13   -1    0    0    0    0  0.00000000000E+00  0.00000000000E+00  0.14999999963E+04  0.15000000000E+04  0.10566000000E+00 0. -1.
        994   -1    0    0    0    0 -0.00000000000E+00 -0.00000000000E+00  0.11368683772E-12  0.17120000000E+03  0.17120000000E+03 0.  0.
         13    1    1    2    0    0 -0.27802711543E+02 -0.48717629819E+02  0.11028804357E+03  0.12373302689E+03  0.10566000000E+00 0. -1.
        994    1    1    2    0    0  0.19967490261E+02  0.41507295994E+02  0.20830337479E+02  0.17850742071E+03  0.17120000000E+03 0.  0.
        998    1    1    2    0    0  0.78352212821E+01  0.72103338249E+01  0.13688816152E+04  0.13689595524E+04  0.10000000000E+02 0. -1.
</event>
<event>
 5    1  0.1271464E-008  0.3857414E+03  0.7957747E-01  0.3426534E+00
         13   -1    0    0    0    0  0.00000000000E+00  0.00000000000E+00  0.14999999963E+04  0.15000000000E+04  0.10566000000E+00 0. -1.
        994   -1    0    0    0    0 -0.00000000000E+00 -0.00000000000E+00  0.11368683772E-12  0.17120000000E+03  0.17120000000E+03 0.  0.
         13    1    1    2    0    0  0.11346152388E+02 -0.71515716672E+01  0.67232227356E+02  0.68557010660E+02  0.10566000000E+00 0. -1.
        994    1    1    2    0    0 -0.14075594067E+02  0.11495885429E+02  0.23468233164E+01  0.17217788856E+03  0.17120000000E+03 0.  0.
        998    1    1    2    0    0  0.27294416786E+01 -0.43443137614E+01  0.14304209456E+04  0.14304651008E+04  0.10000000000E+02 0. -1.
</event>
<event>
 5    1  0.1271464E-008  0.3822459E+03  0.7957747E-01  0.3441437E+00
         13   -1    0    0    0    0  0.00000000000E+00  0.00000000000E+00  0.14999999963E+04  0.15000000000E+04  0.10566000000E+00 0. -1.
        994   -1    0    0    0    0 -0.00000000000E+00 -0.00000000000E+00  0.11368683772E-12  0.17120000000E+03  0.17120000000E+03 0.  0.
         13    1    1    2    0    0 -0.11544070855E+02  0.15524331591E+02  0.68410199039E+02  0.71093156772E+02  0.10566000000E+00 0. -1.
        994    1    1    2    0    0 -0.39270202776E+01  0.88078613763E+01  0.33123642525E+01  0.17150338675E+03  0.17120000000E+03 0.  0.
        998    1    1    2    0    0  0.15471091133E+02 -0.24332192967E+02  0.14282774330E+04  0.14286034565E+04  0.10000000000E+02 0. -1.
</event>
<event>
 5    1  0.1271464E-008  0.3833827E+03  0.7957747E-01  0.3436561E+00
         13   -1    0    0    0    0  0.00000000000E+00  0.00000000000E+00  0.14999999963E+04  0.15000000000E+04  0.10566000000E+00 0. -1.
        994   -1    0    0    0    0 -0.00000000000E+00 -0.00000000000E+00  0.11368683772E-12  0.17120000000E+03  0.17120000000E+03 0.  0.
         13    1    1    2    0    0 -0.10132434325E+02 -0.47337232237E+01  0.25888305002E+02  0.28200884043E+02  0.10566000000E+00 0. -1.
        994    1    1    2    0    0 -0.18356121965E+01 -0.50433617264E+01  0.25304910395E+01  0.17130279728E+03  0.17120000000E+03 0.  0.
        998    1    1    2    0    0  0.11968046521E+02  0.97770849502E+01  0.14715812002E+04  0.14716963187E+04  0.10000000000E+02 0. -1.
</event>
<event>
 5    1  0.1271464E-008  0.3847069E+03  0.7957747E-01  0.3430916E+00
         13   -1    0    0    0    0  0.00000000000E+00  0.00000000000E+00  0.14999999963E+04  0.15000000000E+04  0.10566000000E+00 0. -1.
        994   -1    0    0    0    0 -0.00000000000E+00 -0.00000000000E+00  0.11368683772E-12  0.17120000000E+03  0.17120000000E+03 0.  0.
         13    1    1    2    0    0 -0.11672395408E+03  0.14860728870E+03  0.10099727533E+04  0.10274987014E+04  0.10566000000E+00 0. -1.
        994    1    1    2    0    0  0.12848472054E+03 -0.16613791188E+03  0.16376663412E+03  0.31660555842E+03  0.17120000000E+03 0.  0.
        998    1    1    2    0    0 -0.11760766462E+02  0.17530623182E+02  0.32626060882E+03  0.32709574018E+03  0.10000000000E+02 0. -1.
</event>
<event>
 5    1  0.1271464E-008  0.3704897E+03  0.7957747E-01  0.3493643E+00
         13   -1    0    0    0    0  0.00000000000E+00  0.00000000000E+00  0.14999999963E+04  0.15000000000E+04  0.10566000000E+00 0.  1.
        994   -1    0    0    0    0 -0.00000000000E+00 -0.00000000000E+00  0.11368683772E-12  0.17120000000E+03  0.17120000000E+03 0.  0.
         13    1    1    2    0    0  0.47027566338E+01 -0.37612861304E+02  0.67216838498E+02  0.77168373037E+02  0.10566000000E+00 0.  1.
        994    1    1    2    0    0 -0.47861726152E+01  0.63531366543E+02  0.23158023869E+02  0.18413276746E+03  0.17120000000E+03 0.  0.
        998    1    1    2    0    0  0.83415981456E-01 -0.25918505239E+02  0.14096251339E+04  0.14098988595E+04  0.10000000000E+02 0.  1.
</event>
<event>
 5    1  0.1379996E-008  0.3859930E+03  0.7957747E-01  0.3425471E+00
         13   -1    0    0    0    0  0.00000000000E+00  0.00000000000E+00  0.14999999963E+04  0.15000000000E+04  0.10566000000E+00 0. -1.
        994   -1    0    0    0    0 -0.00000000000E+00 -0.00000000000E+00  0.11368683772E-12  0.17120000000E+03  0.17120000000E+03 0.  0.
         13    1    1    2    0    0  0.10933303074E+02 -0.29058939195E+01  0.56900712088E+02  0.58014511424E+02  0.10566000000E+00 0. -1.
        994    1    1    2    0    0 -0.53629479369E+01  0.96221905600E+01  0.15357985874E+01  0.17156091175E+03  0.17120000000E+03 0.  0.
        998    1    1    2    0    0 -0.55703551374E+01 -0.67162966405E+01  0.14415634856E+04  0.14416245768E+04  0.10000000000E+02 0. -1.
</event>
<event>
 5    1  0.1271464E-008  0.3741056E+03  0.7957747E-01  0.3477233E+00
         13   -1    0    0    0    0  0.00000000000E+00  0.00000000000E+00  0.14999999963E+04  0.15000000000E+04  0.10566000000E+00 0. -1.
        994   -1    0    0    0    0 -0.00000000000E+00 -0.00000000000E+00  0.11368683772E-12  0.17120000000E+03  0.17120000000E+03 0.  0.
         13    1    1    2    0    0 -0.13168836264E+02  0.17634633701E+02  0.30872283850E+02  0.37914477821E+02  0.10566000000E+00 0. -1.
        994    1    1    2    0    0  0.10860205156E+02 -0.12617469769E+02  0.80842351807E+01  0.17219738517E+03  0.17120000000E+03 0.  0.
        998    1    1    2    0    0  0.23086311081E+01 -0.50171639317E+01  0.14610434772E+04  0.14610881370E+04  0.10000000000E+02 0. -1.
</event>
<event>
 5    1  0.1271464E-008  0.3703481E+03  0.7957747E-01  0.3494293E+00
         13   -1    0    0    0    0  0.00000000000E+00  0.00000000000E+00  0.14999999963E+04  0.15000000000E+04  0.10566000000E+00 0. -1.
        994   -1    0    0    0    0 -0.00000000000E+00 -0.00000000000E+00  0.11368683772E-12  0.17120000000E+03  0.17120000000E+03 0.  0.
         13    1    1    2    0    0 -0.64808552774E+02 -0.35203071583E+02  0.30260895458E+03  0.31146684466E+03  0.10566000000E+00 0. -1.
        994    1    1    2    0    0  0.45212869449E+02  0.47854697206E+00  0.16180979536E+02  0.17780803320E+03  0.17120000000E+03 0.  0.
        998    1    1    2    0    0  0.19595683325E+02  0.34724524611E+02  0.11812100622E+04  0.11819251221E+04  0.10000000000E+02 0. -1.
</event>
<event>
 5    1  0.1271464E-008  0.3838888E+03  0.7957747E-01  0.3434399E+00
         13   -1    0    0    0    0  0.00000000000E+00  0.00000000000E+00  0.14999999963E+04  0.15000000000E+04  0.10566000000E+00 0.  1.
        994   -1    0    0    0    0 -0.00000000000E+00 -0.00000000000E+00  0.11368683772E-12  0.17120000000E+03  0.17120000000E+03 0.  0.
         13    1    1    2    0    0  0.44018203491E+01  0.26542145079E+02  0.15223314805E+03  0.15459238020E+03  0.10566000000E+00 0.  1.
        994    1    1    2    0    0  0.28752578044E+01 -0.26868505823E+02  0.45965738125E+01  0.17338036856E+03  0.17120000000E+03 0.  0.
        998    1    1    2    0    0 -0.72770781535E+01  0.32636074394E+00  0.13431702744E+04  0.13432272512E+04  0.10000000000E+02 0.  1.
</event>
<event>
 5    1  0.1652151E-008  0.3864693E+03  0.7957747E-01  0.3423464E+00
         13   -1    0    0    0    0  0.00000000000E+00  0.00000000000E+00  0.14999999963E+04  0.15000000000E+04  0.10566000000E+00 0.  1.
        994   -1    0    0    0    0 -0.00000000000E+00 -0.00000000000E+00  0.11368683772E-12  0.17120000000E+03  0.17120000000E+03 0.  0.
         13    1    1    2    0    0 -0.10178218114E+02 -0.21077728488E+01  0.60687344657E+02  0.61571127941E+02  0.10566000000E+00 0.  1.
        994    1    1    2    0    0  0.17899359771E+02 -0.35062854352E+02  0.59914364347E+01  0.17577010026E+03  0.17120000000E+03 0.  0.
        998    1    1    2    0    0 -0.77211416569E+01  0.37170627200E+02  0.14333212152E+04  0.14338587718E+04  0.10000000000E+02 0.  1.
</event>
<event>
 5    1  0.1271464E-008  0.3842733E+03  0.7957747E-01  0.3432760E+00
         13   -1    0    0    0    0  0.00000000000E+00  0.00000000000E+00  0.14999999963E+04  0.15000000000E+04  0.10566000000E+00 0. -1.
        994   -1    0    0    0    0 -0.00000000000E+00 -0.00000000000E+00  0.11368683772E-12  0.17120000000E+03  0.17120000000E+03 0.  0.
         13    1    1    2    0    0  0.23255937449E+01 -0.11261899950E+02  0.32536861239E+02  0.34509379596E+02  0.10566000000E+00 0. -1.
        994    1    1    2    0    0 -0.45844256115E+01  0.84621672186E+01  0.22967413792E+01  0.17148568527E+03  0.17120000000E+03 0.  0.
        998    1    1    2    0    0  0.22588318665E+01  0.27997327314E+01  0.14651663937E+04  0.14652049351E+04  0.10000000000E+02 0. -1.
</event>
<event>
 5    1  0.1271464E-008  0.3846595E+03  0.7957747E-01  0.3431117E+00
         13   -1    0    0    0    0  0.00000000000E+00  0.00000000000E+00  0.14999999963E+04  0.15000000000E+04  0.10566000000E+00 0.  1.
        994   -1    0    0    0    0 -0.00000000000E+00 -0.00000000000E+00  0.11368683772E-12  0.17120000000E+03  0.17120000000E+03 0.  0.
         13    1    1    2    0    0 -0.58364084228E+01 -0.10958448749E+02  0.43958235946E+02  0.45678101249E+02  0.10566000000E+00 0.  1.
        994    1    1    2    0    0 -0.30047229579E+01  0.39351997251E+01  0.18799780439E+01  0.17128189768E+03  0.17120000000E+03 0.  0.
        998    1    1    2    0    0  0.88411313807E+01  0.70232490236E+01  0.14541617823E+04  0.14542400011E+04  0.10000000000E+02 0.  1.
</event>
<event>
 5    1  0.1271464E-008  0.3841119E+03  0.7957747E-01  0.3433447E+00
         13   -1    0    0    0    0  0.00000000000E+00  0.00000000000E+00  0.14999999963E+04  0.15000000000E+04  0.10566000000E+00 0.  1.
        994   -1    0    0    0    0 -0.00000000000E+00 -0.00000000000E+00  0.11368683772E-12  0.17120000000E+03  0.17120000000E+03 0.  0.
         13    1    1    2    0    0 -0.20798049443E+02 -0.15417314708E+01  0.10813503990E+03  0.11012780673E+03  0.10566000000E+00 0.  1.
        994    1    1    2    0    0  0.87918849722E+01 -0.32257284517E+01  0.23609972330E+01  0.17147220438E+03  0.17120000000E+03 0.  0.
        998    1    1    2    0    0  0.12006164471E+02  0.47674599225E+01  0.13895039591E+04  0.13895999889E+04  0.10000000000E+02 0.  1.
</event>
<event>
 5    1  0.1271464E-008  0.3819846E+03  0.7957747E-01  0.3442562E+00
         13   -1    0    0    0    0  0.00000000000E+00  0.00000000000E+00  0.14999999963E+04  0.15000000000E+04  0.10566000000E+00 0.  1.
        994   -1    0    0    0    0 -0.00000000000E+00 -0.00000000000E+00  0.11368683772E-12  0.17120000000E+03  0.17120000000E+03 0.  0.
         13    1    1    2    0    0 -0.22099495803E+01  0.28855168225E+02  0.13434345370E+03  0.13742517719E+03  0.10566000000E+00 0.  1.
        994    1    1    2    0    0 -0.11999391950E+02 -0.16547354778E+02  0.45234795250E+01  0.17247522206E+03  0.17120000000E+03 0.  0.
        998    1    1    2    0    0  0.14209341530E+02 -0.12307813446E+02  0.13611330631E+04  0.13612996007E+04  0.10000000000E+02 0.  1.
</event>
<event>
 5    1  0.1271464E-008  0.3842647E+03  0.7957747E-01  0.3432796E+00
         13   -1    0    0    0    0  0.00000000000E+00  0.00000000000E+00  0.14999999963E+04  0.15000000000E+04  0.10566000000E+00 0.  1.
        994   -1    0    0    0    0 -0.00000000000E+00 -0.00000000000E+00  0.11368683772E-12  0.17120000000E+03  0.17120000000E+03 0.  0.
         13    1    1    2    0    0  0.12408104949E+02  0.99261789927E+01  0.61276578284E+02  0.63303398866E+02  0.10566000000E+00 0.  1.
        994    1    1    2    0    0 -0.15230443789E+02 -0.53011812817E+01  0.28534028668E+01  0.17198154218E+03  0.17120000000E+03 0.  0.
        998    1    1    2    0    0  0.28223388409E+01 -0.46249977110E+01  0.14358700151E+04  0.14359150590E+04  0.10000000000E+02 0.  1.
</event>
<event>
 5    1  0.1271464E-008  0.3809092E+03  0.7957747E-01  0.3447209E+00
         13   -1    0    0    0    0  0.00000000000E+00  0.00000000000E+00  0.14999999963E+04  0.15000000000E+04  0.10566000000E+00 0.  1.
        994   -1    0    0    0    0 -0.00000000000E+00 -0.00000000000E+00  0.11368683772E-12  0.17120000000E+03  0.17120000000E+03 0.  0.
         13    1    1    2    0    0  0.13534133706E+02 -0.15650685858E+02  0.60054327941E+02  0.63518896491E+02  0.10566000000E+00 0.  1.
        994    1    1    2    0    0 -0.26066372674E+01 -0.10591070029E+01  0.37012595652E+01  0.17126311800E+03  0.17120000000E+03 0.  0.
        998    1    1    2    0    0 -0.10927496439E+02  0.16709792861E+02  0.14362444088E+04  0.14364179855E+04  0.10000000000E+02 0.  1.
</event>
<event>
 5    1  0.1271464E-008  0.3783669E+03  0.7957747E-01  0.3458300E+00
         13   -1    0    0    0    0  0.00000000000E+00  0.00000000000E+00  0.14999999963E+04  0.15000000000E+04  0.10566000000E+00 0. -1.
        994   -1    0    0    0    0 -0.00000000000E+00 -0.00000000000E+00  0.11368683772E-12  0.17120000000E+03  0.17120000000E+03 0.  0.
         13    1    1    2    0    0  0.22077820508E+02 -0.24348892266E+02  0.10407223624E+03  0.10913908664E+03  0.10566000000E+00 0. -1.
        994    1    1    2    0    0 -0.17742715789E+02  0.18937373914E+02  0.72265096224E+01  0.17330634880E+03  0.17120000000E+03 0.  0.
        998    1    1    2    0    0 -0.43351047185E+01  0.54115183521E+01  0.13887012504E+04  0.13887545646E+04  0.10000000000E+02 0. -1.
</event>
<event>
 5    1  0.1271464E-008  0.3822613E+03  0.7957747E-01  0.3441371E+00
         13   -1    0    0    0    0  0.00000000000E+00  0.00000000000E+00  0.14999999963E+04  0.15000000000E+04  0.10566000000E+00 0. -1.
        994   -1    0    0    0    0 -0.00000000000E+00 -0.00000000000E+00  0.11368683772E-12  0.17120000000E+03  0.17120000000E+03 0.  0.
         13    1    1    2    0    0 -0.15256707024E+02 -0.28791794419E+02  0.16131323020E+03  0.16457127312E+03  0.10566000000E+00 0. -1.
        994    1    1    2    0    0  0.13998346531E+02  0.27636331057E+02  0.61869762613E+01  0.17409031902E+03  0.17120000000E+03 0.  0.
        998    1    1    2    0    0  0.12583604933E+01  0.11554633620E+01  0.13324997898E+04  0.13325384079E+04  0.10000000000E+02 0.  0.
</event>
<event>
 5    1  0.1271464E-008  0.3848923E+03  0.7957747E-01  0.3430129E+00
         13   -1    0    0    0    0  0.00000000000E+00  0.00000000000E+00  0.14999999963E+04  0.15000000000E+04  0.10566000000E+00 0. -1.
        994   -1    0    0    0    0 -0.00000000000E+00 -0.00000000000E+00  0.11368683772E-12  0.17120000000E+03  0.17120000000E+03 0.  0.
         13    1    1    2    0    0  0.43788596915E+01 -0.11273379538E+02  0.42317401191E+02  0.44011783718E+02  0.10566000000E+00 0. -1.
        994    1    1    2    0    0 -0.67578076656E+01  0.10891613013E+02  0.22242981578E+01  0.17169357210E+03  0.17120000000E+03 0.  0.
        998    1    1    2    0    0  0.23789479741E+01  0.38176652501E+00  0.14554582969E+04  0.14554946442E+04  0.10000000000E+02 0. -1.
</event>
<event>
 5    1  0.1271464E-008  0.3729535E+03  0.7957747E-01  0.3482426E+00
         13   -1    0    0    0    0  0.00000000000E+00  0.00000000000E+00  0.14999999963E+04  0.15000000000E+04  0.10566000000E+00 0. -1.
        994   -1    0    0    0    0 -0.00000000000E+00 -0.00000000000E+00  0.11368683772E-12  0.17120000000E+03  0.17120000000E+03 0.  0.
         13    1    1    2    0    0  0.25680915617E+02 -0.39647388924E+02  0.81009233787E+02  0.93775967061E+02  0.10566000000E+00 0. -1.
        994    1    1    2    0    0 -0.24714030677E+02  0.38129506923E+02  0.19838427730E+02  0.17823480531E+03  0.17120000000E+03 0.  0.
        998    1    1    2    0    0 -0.96688494020E+00  0.15178820008E+01  0.13991523348E+04  0.13991892276E+04  0.10000000000E+02 0. -1.
</event>
<event>
 5    1  0.1271464E-008  0.3854232E+03  0.7957747E-01  0.3427880E+00
         13   -1    0    0    0    0  0.00000000000E+00  0.00000000000E+00  0.14999999963E+04  0.15000000000E+04  0.10566000000E+00 0. -1.
        994   -1    0    0    0    0 -0.00000000000E+00 -0.00000000000E+00  0.11368683772E-12  0.17120000000E+03  0.17120000000E+03 0.  0.
         13    1    1    2    0    0 -0.73895715977E+01  0.10236588128E+02  0.60497317056E+02  0.61800728474E+02  0.10566000000E+00 0. -1.
        994    1    1    2    0    0 -0.46618821872E+01 -0.49110396012E+00  0.14923627395E+01  0.17127066729E+03  0.17120000000E+03 0.  0.
        998    1    1    2    0    0  0.12051453785E+02 -0.97454841675E+01  0.14380103165E+04  0.14381286042E+04  0.10000000000E+02 0. -1.
</event>
<event>
 5    1  0.1271464E-008  0.3749253E+03  0.7957747E-01  0.3473557E+00
         13   -1    0    0    0    0  0.00000000000E+00  0.00000000000E+00  0.14999999963E+04  0.15000000000E+04  0.10566000000E+00 0. -1.
        994   -1    0    0    0    0 -0.00000000000E+00 -0.00000000000E+00  0.11368683772E-12  0.17120000000E+03  0.17120000000E+03 0.  0.
         13    1    1    2    0    0  0.85396188543E+01  0.10651032678E+02  0.53216465801E+00  0.13662501621E+02  0.10566000000E+00 0. -1.
        994    1    1    2    0    0 -0.11981393928E+02 -0.16169705005E+02  0.15009276131E+02  0.17303101320E+03  0.17120000000E+03 0.  0.
        998    1    1    2    0    0  0.34417750740E+01  0.55186723277E+01  0.14844585555E+04  0.14845064852E+04  0.10000000000E+02 0. -1.
</event>
<event>
 5    1  0.1271464E-008  0.3850695E+03  0.7957747E-01  0.3429378E+00
         13   -1    0    0    0    0  0.00000000000E+00  0.00000000000E+00  0.14999999963E+04  0.15000000000E+04  0.10566000000E+00 0. -1.
        994   -1    0    0    0    0 -0.00000000000E+00 -0.00000000000E+00  0.11368683772E-12  0.17120000000E+03  0.17120000000E+03 0.  0.
         13    1    1    2    0    0 -0.46645102289E+01 -0.91182309014E+01  0.34114293324E+02  0.35618758590E+02  0.10566000000E+00 0. -1.
        994    1    1    2    0    0  0.39385649235E+01 -0.42037623233E+01  0.17047639369E+01  0.17130537099E+03  0.17120000000E+03 0.  0.
        998    1    1    2    0    0  0.72594530541E+00  0.13321993225E+02  0.14641809390E+04  0.14642758704E+04  0.10000000000E+02 0. -1.
</event>
<event>
 5    1  0.1271464E-008  0.3839160E+03  0.7957747E-01  0.3434283E+00
         13   -1    0    0    0    0  0.00000000000E+00  0.00000000000E+00  0.14999999963E+04  0.15000000000E+04  0.10566000000E+00 0. -1.
        994   -1    0    0    0    0 -0.00000000000E+00 -0.00000000000E+00  0.11368683772E-12  0.17120000000E+03  0.17120000000E+03 0.  0.
         13    1    1    2    0    0  0.13761669146E+02 -0.51847994611E+01  0.51087901098E+02  0.53162491343E+02  0.10566000000E+00 0. -1.
        994    1    1    2    0    0 -0.43720621062E+01 -0.36254546564E+01  0.22757515598E+01  0.17130930475E+03  0.17120000000E+03 0.  0.
        998    1    1    2    0    0 -0.93896070397E+01  0.88102541174E+01  0.14466363436E+04  0.14467282039E+04  0.10000000000E+02 0. -1.
</event>
<event>
 5    1  0.1271464E-008  0.3724268E+03  0.7957747E-01  0.3484812E+00
         13   -1    0    0    0    0  0.00000000000E+00  0.00000000000E+00  0.14999999963E+04  0.15000000000E+04  0.10566000000E+00 0.  1.
        994   -1    0    0    0    0 -0.00000000000E+00 -0.00000000000E+00  0.11368683772E-12  0.17120000000E+03  0.17120000000E+03 0.  0.
         13    1    1    2    0    0 -0.26001788002E+01 -0.18378806830E+02  0.86183166377E+01  0.20465288075E+02  0.10566000000E+00 0.  1.
        994    1    1    2    0    0  0.23493017079E+01  0.15732761539E+02  0.13120491475E+02  0.17243731122E+03  0.17120000000E+03 0.  0.
        998    1    1    2    0    0  0.25087709224E+00  0.26460452912E+01  0.14782611882E+04  0.14782974007E+04  0.10000000000E+02 0.  1.
</event>
<event>
 5    1  0.1271464E-008  0.3751962E+03  0.7957747E-01  0.3472346E+00
         13   -1    0    0    0    0  0.00000000000E+00  0.00000000000E+00  0.14999999963E+04  0.15000000000E+04  0.10566000000E+00 0. -1.
        994   -1    0    0    0    0 -0.00000000000E+00 -0.00000000000E+00  0.11368683772E-12  0.17120000000E+03  0.17120000000E+03 0.  0.
         13    1    1    2    0    0 -0.13608643436E+02  0.18966325328E+02  0.38496166012E+02  0.45020913299E+02  0.10566000000E+00 0. -1.
        994    1    1    2    0    0  0.16183873464E+02 -0.10862703609E+02  0.78696217811E+01  0.17248561400E+03  0.17120000000E+03 0.  0.
        998    1    1    2    0    0 -0.25752300279E+01 -0.81036217184E+01  0.14536342085E+04  0.14536934727E+04  0.10000000000E+02 0. -1.
</event>
<event>
 5    1  0.1271464E-008  0.3848107E+03  0.7957747E-01  0.3430476E+00
         13   -1    0    0    0    0  0.00000000000E+00  0.00000000000E+00  0.14999999963E+04  0.15000000000E+04  0.10566000000E+00 0. -1.
        994   -1    0    0    0    0 -0.00000000000E+00 -0.00000000000E+00  0.11368683772E-12  0.17120000000E+03  0.17120000000E+03 0.  0.
         13    1    1    2    0    0 -0.92043315647E+01 -0.54295809727E+01  0.33212340200E+02  0.34889407773E+02  0.10566000000E+00 0. -1.
        994    1    1    2    0    0  0.28629292161E+01  0.45372373432E+01  0.18188890362E+01  0.17129369879E+03  0.17120000000E+03 0.  0.
        998    1    1    2    0    0  0.63414023485E+01  0.89234362947E+00  0.14649687670E+04  0.14650168934E+04  0.10000000000E+02 0. -1.
</event>
<event>
 5    1  0.1394253E-008  0.3859227E+03  0.7957747E-01  0.3425768E+00
         13   -1    0    0    0    0  0.00000000000E+00  0.00000000000E+00  0.14999999963E+04  0.15000000000E+04  0.10566000000E+00 0. -1.
        994   -1    0    0    0    0 -0.00000000000E+00 -0.00000000000E+00  0.11368683772E-12  0.17120000000E+03  0.17120000000E+03 0.  0.
         13    1    1    2    0    0  0.90507392070E+01  0.60940766046E+01  0.50822955577E+02  0.51981127609E+02  0.10566000000E+00 0. -1.
        994    1    1    2    0    0 -0.61515326316E+01 -0.65153698026E+01  0.14360184423E+01  0.17144034982E+03  0.17120000000E+03 0.  0.
        998    1    1    2    0    0 -0.28992065754E+01  0.42129319797E+00  0.14477410223E+04  0.14477785226E+04  0.10000000000E+02 0. -1.
</event>
<event>
 5    1  0.1271464E-008  0.3822645E+03  0.7957747E-01  0.3441357E+00
         13   -1    0    0    0    0  0.00000000000E+00  0.00000000000E+00  0.14999999963E+04  0.15000000000E+04  0.10566000000E+00 0. -1.
        994   -1    0    0    0    0 -0.00000000000E+00 -0.00000000000E+00  0.11368683772E-12  0.17120000000E+03  0.17120000000E+03 0.  0.
         13    1    1    2    0    0  0.10309138949E+02  0.46483623593E+01  0.19777950260E+02  0.22782978274E+02  0.10566000000E+00 0. -1.
        994    1    1    2    0    0 -0.12528872240E+02 -0.83132797829E+01  0.37449240869E+01  0.17189981884E+03  0.17120000000E+03 0.  0.
        998    1    1    2    0    0  0.22197332912E+01  0.36649174236E+01  0.14764771219E+04  0.14765172029E+04  0.10000000000E+02 0. -1.
</event>
<event>
 5    1  0.1271464E-008  0.3795825E+03  0.7957747E-01  0.3452978E+00
         13   -1    0    0    0    0  0.00000000000E+00  0.00000000000E+00  0.14999999963E+04  0.15000000000E+04  0.10566000000E+00 0. -1.
        994   -1    0    0    0    0 -0.00000000000E+00 -0.00000000000E+00  0.11368683772E-12  0.17120000000E+03  0.17120000000E+03 0.  0.
         13    1    1    2    0    0 -0.33102059957E+02  0.61757875268E+01  0.14398906512E+03  0.14787409768E+03  0.10566000000E+00 0. -1.
        994    1    1    2    0    0  0.29286643255E+01  0.40645775028E+01  0.44280716962E+01  0.17133051592E+03  0.17120000000E+03 0.  0.
        998    1    1    2    0    0  0.30173395632E+02 -0.10240365030E+02  0.13515828595E+04  0.13519953864E+04  0.10000000000E+02 0. -1.
</event>
<event>
 5    1  0.1271464E-008  0.3842795E+03  0.7957747E-01  0.3432734E+00
         13   -1    0    0    0    0  0.00000000000E+00  0.00000000000E+00  0.14999999963E+04  0.15000000000E+04  0.10566000000E+00 0. -1.
        994   -1    0    0    0    0 -0.00000000000E+00 -0.00000000000E+00  0.11368683772E-12  0.17120000000E+03  0.17120000000E+03 0.  0.
         13    1    1    2    0    0  0.15896513294E+02  0.82888366248E+01  0.75929564874E+02  0.78017395070E+02  0.10566000000E+00 0. -1.
        994    1    1    2    0    0 -0.22515585025E+02 -0.25060829271E+01  0.36818864526E+01  0.17273166562E+03  0.17120000000E+03 0.  0.
        998    1    1    2    0    0  0.66190717308E+01 -0.57827536977E+01  0.14203885450E+04  0.14204509393E+04  0.10000000000E+02 0. -1.
</event>
<event>
 5    1  0.1271464E-008  0.3850331E+03  0.7957747E-01  0.3429532E+00
         13   -1    0    0    0    0  0.00000000000E+00  0.00000000000E+00  0.14999999963E+04  0.15000000000E+04  0.10566000000E+00 0. -1.
        994   -1    0    0    0    0 -0.00000000000E+00 -0.00000000000E+00  0.11368683772E-12  0.17120000000E+03  0.17120000000E+03 0.  0.
         13    1    1    2    0    0  0.55110733886E+01 -0.10858110128E+02  0.44986567410E+02  0.46605502859E+02  0.10566000000E+00 0. -1.
        994    1    1    2    0    0 -0.46361200370E+01  0.10931159506E+02  0.20774414129E+01  0.17162383174E+03  0.17120000000E+03 0.  0.
        998    1    1    2    0    0 -0.87495335154E+00 -0.73049378137E-01  0.14529359875E+04  0.14529706654E+04  0.10000000000E+02 0. -1.
</event>
<event>
 5    1  0.1271464E-008  0.3814998E+03  0.7957747E-01  0.3444654E+00
         13   -1    0    0    0    0  0.00000000000E+00  0.00000000000E+00  0.14999999963E+04  0.15000000000E+04  0.10566000000E+00 0.  1.
        994   -1    0    0    0    0 -0.00000000000E+00 -0.00000000000E+00  0.11368683772E-12  0.17120000000E+03  0.17120000000E+03 0.  0.
         13    1    1    2    0    0  0.50118671219E+01  0.89851212603E+01  0.14099008346E+02  0.17454065901E+02  0.10566000000E+00 0.  1.
        994    1    1    2    0    0 -0.69651495879E+01 -0.92102280538E+01  0.38216369497E+01  0.17163154290E+03  0.17120000000E+03 0.  0.
        998    1    1    2    0    0  0.19532824660E+01  0.22510679356E+00  0.14820793510E+04  0.14821143912E+04  0.10000000000E+02 0.  1.
</event>
<event>
 5    1  0.1271464E-008  0.3787461E+03  0.7957747E-01  0.3456637E+00
         13   -1    0    0    0    0  0.00000000000E+00  0.00000000000E+00  0.14999999963E+04  0.15000000000E+04  0.10566000000E+00 0.  1.
        994   -1    0    0    0    0 -0.00000000000E+00 -0.00000000000E+00  0.11368683772E-12  0.17120000000E+03  0.17120000000E+03 0.  0.
         13    1    1    2    0    0 -0.13000745395E+01  0.19434792025E+02  0.38889640828E+02  0.43495018825E+02  0.10566000000E+00 0.  1.
        994    1    1    2    0    0 -0.14512814639E+02 -0.61253538402E+01  0.56008569119E+01  0.17201439285E+03  0.17120000000E+03 0.  0.
        998    1    1    2    0    0  0.15812889179E+02 -0.13309438184E+02  0.14555094985E+04  0.14556905883E+04  0.10000000000E+02 0.  1.
</event>
<event>
 5    1  0.1271464E-008  0.3848518E+03  0.7957747E-01  0.3430301E+00
         13   -1    0    0    0    0  0.00000000000E+00  0.00000000000E+00  0.14999999963E+04  0.15000000000E+04  0.10566000000E+00 0.  1.
        994   -1    0    0    0    0 -0.00000000000E+00 -0.00000000000E+00  0.11368683772E-12  0.17120000000E+03  0.17120000000E+03 0.  0.
         13    1    1    2    0    0  0.10037738520E+02  0.62727100503E+01  0.41286074201E+02  0.42949437399E+02  0.10566000000E+00 0.  1.
        994    1    1    2    0    0 -0.14188096753E+02  0.10530530221E+02  0.27316138757E+01  0.17213104273E+03  0.17120000000E+03 0.  0.
        998    1    1    2    0    0  0.41503582336E+01 -0.16803240271E+02  0.14559823082E+04  0.14561195199E+04  0.10000000000E+02 0.  1.
</event>
<event>
 5    1  0.1271464E-008  0.3782787E+03  0.7957747E-01  0.3458688E+00
         13   -1    0    0    0    0  0.00000000000E+00  0.00000000000E+00  0.14999999963E+04  0.15000000000E+04  0.10566000000E+00 0. -1.
        994   -1    0    0    0    0 -0.00000000000E+00 -0.00000000000E+00  0.11368683772E-12  0.17120000000E+03  0.17120000000E+03 0.  0.
         13    1    1    2    0    0 -0.41005361152E+01 -0.38960803332E+02  0.13428468920E+03  0.13988262047E+03  0.10566000000E+00 0. -1.
        994    1    1    2    0    0  0.44342703032E+02  0.42445878707E+02  0.17778843689E+02  0.18273876221E+03  0.17120000000E+03 0.  0.
        998    1    1    2    0    0 -0.40242166917E+02 -0.34850753750E+01  0.13479364634E+04  0.13485786173E+04  0.10000000000E+02 0. -1.
</event>
<event>
 5    1  0.1271464E-008  0.3812529E+03  0.7957747E-01  0.3445721E+00
         13   -1    0    0    0    0  0.00000000000E+00  0.00000000000E+00  0.14999999963E+04  0.15000000000E+04  0.10566000000E+00 0. -1.
        994   -1    0    0    0    0 -0.00000000000E+00 -0.00000000000E+00  0.11368683772E-12  0.17120000000E+03  0.17120000000E+03 0.  0.
         13    1    1    2    0    0 -0.12528000841E+02 -0.77535196125E+01  0.29679312294E+02  0.33135186943E+02  0.10566000000E+00 0. -1.
        994    1    1    2    0    0  0.78330711478E+01  0.58304095301E+01  0.38195256155E+01  0.17152078432E+03  0.17120000000E+03 0.  0.
        998    1    1    2    0    0  0.46949296935E+01  0.19231100824E+01  0.14665011584E+04  0.14665440287E+04  0.10000000000E+02 0. -1.
</event>
<event>
 5    1  0.1271464E-008  0.3737989E+03  0.7957747E-01  0.3478612E+00
         13   -1    0    0    0    0  0.00000000000E+00  0.00000000000E+00  0.14999999963E+04  0.15000000000E+04  0.10566000000E+00 0.  1.
        994   -1    0    0    0    0 -0.00000000000E+00 -0.00000000000E+00  0.11368683772E-12  0.17120000000E+03  0.17120000000E+03 0.  0.
         13    1    1    2    0    0 -0.18038745442E+02 -0.19922469538E+02  0.45190737046E+02  0.52578655445E+02  0.10566000000E+00 0.  1.
        994    1    1    2    0    0  0.19690305312E+02  0.20443368785E+02  0.10051375982E+02  0.17382781598E+03  0.17120000000E+03 0.  0.
        998    1    1    2    0    0 -0.16515598702E+01 -0.52089924707E+00  0.14447578833E+04  0.14447935286E+04  0.10000000000E+02 0.  1.
</event>
<event>
 5    1  0.1271464E-008  0.3953186E+03  0.7957747E-01  0.3387055E+00
         13   -1    0    0    0    0  0.00000000000E+00  0.00000000000E+00  0.14999999963E+04  0.15000000000E+04  0.10566000000E+00 0. -1.
        994   -1    0    0    0    0 -0.00000000000E+00 -0.00000000000E+00  0.11368683772E-12  0.17120000000E+03  0.17120000000E+03 0.  0.
         13    1    1    2    0    0  0.28403526481E+02 -0.77552559017E+02  0.12961698530E+03  0.15369363607E+03  0.10566000000E+00 0. -1.
        994    1    1    2    0    0 -0.21316877381E+02  0.50853642057E+02  0.36783961981E+02  0.18358377388E+03  0.17120000000E+03 0.  0.
        998    1    1    2    0    0 -0.70866490997E+01  0.26698916960E+02  0.13335990490E+04  0.13339225901E+04  0.10000000000E+02 0. -1.
</event>
<event>
 5    1  0.1271464E-008  0.3709353E+03  0.7957747E-01  0.3491603E+00
         13   -1    0    0    0    0  0.00000000000E+00  0.00000000000E+00  0.14999999963E+04  0.15000000000E+04  0.10566000000E+00 0.  1.
        994   -1    0    0    0    0 -0.00000000000E+00 -0.00000000000E+00  0.11368683772E-12  0.17120000000E+03  0.17120000000E+03 0.  0.
         13    1    1    2    0    0 -0.37090569655E+02  0.67372961655E+02  0.31951871950E+03  0.32864425994E+03  0.10566000000E+00 0.  1.
        994    1    1    2    0    0  0.24712638992E+01 -0.99416542052E+01  0.11802411308E+02  0.17191183946E+03  0.17120000000E+03 0.  0.
        998    1    1    2    0    0  0.34619305756E+02 -0.57431307449E+02  0.11686788655E+04  0.11706439006E+04  0.10000000000E+02 0.  1.
</event>
<event>
 5    1  0.1271464E-008  0.3194340E+03  0.7957747E-01  0.3766356E+00
         13   -1    0    0    0    0  0.00000000000E+00  0.00000000000E+00  0.14999999963E+04  0.15000000000E+04  0.10566000000E+00 0.  1.
        994   -1    0    0    0    0 -0.00000000000E+00 -0.00000000000E+00  0.11368683772E-12  0.17120000000E+03  0.17120000000E+03 0.  0.
         13    1    1    2    0    0 -0.20117337344E+02  0.21236047934E+03  0.73055452520E+03  0.76105952849E+03  0.10566000000E+00 0.  1.
        994    1    1    2    0    0  0.13718811591E+02 -0.21456909549E+03  0.19840443700E+03  0.33897177339E+03  0.17120000000E+03 0.  0.
        998    1    1    2    0    0  0.63985257532E+01  0.22086161579E+01  0.57104103408E+03  0.57116869813E+03  0.10000000000E+02 0.  0.
</event>
<event>
 5    1  0.1271464E-008  0.3840559E+03  0.7957747E-01  0.3433686E+00
         13   -1    0    0    0    0  0.00000000000E+00  0.00000000000E+00  0.14999999963E+04  0.15000000000E+04  0.10566000000E+00 0.  1.
        994   -1    0    0    0    0 -0.00000000000E+00 -0.00000000000E+00  0.11368683772E-12  0.17120000000E+03  0.17120000000E+03 0.  0.
         13    1    1    2    0    0 -0.14218541690E+02  0.20118965533E+00  0.47676409969E+02  0.49751971183E+02  0.10566000000E+00 0.  1.
        994    1    1    2    0    0  0.95703844288E+01  0.10240911620E+01  0.24052284452E+01  0.17148721860E+03  0.17120000000E+03 0.  0.
        998    1    1    2    0    0  0.46481572607E+01 -0.12252808174E+01  0.14499183579E+04  0.14499608102E+04  0.10000000000E+02 0.  1.
</event>
<event>
 5    1  0.1271464E-008  0.3696994E+03  0.7957747E-01  0.3497274E+00
         13   -1    0    0    0    0  0.00000000000E+00  0.00000000000E+00  0.14999999963E+04  0.15000000000E+04  0.10566000000E+00 0. -1.
        994   -1    0    0    0    0 -0.00000000000E+00 -0.00000000000E+00  0.11368683772E-12  0.17120000000E+03  0.17120000000E+03 0.  0.
         13    1    1    2    0    0  0.18391105902E+02  0.16348941335E+02  0.27717786391E+02  0.37064909356E+02  0.10566000000E+00 0. -1.
        994    1    1    2    0    0 -0.17349309853E+02 -0.17463231348E+02  0.11526492304E+02  0.17334434812E+03  0.17120000000E+03 0.  0.
        998    1    1    2    0    0 -0.10417960493E+01  0.11142900128E+01  0.14607557176E+04  0.14607907425E+04  0.10000000000E+02 0. -1.
</event>
<event>
 5    1  0.1271464E-008  0.3840992E+03  0.7957747E-01  0.3433502E+00
         13   -1    0    0    0    0  0.00000000000E+00  0.00000000000E+00  0.14999999963E+04  0.15000000000E+04  0.10566000000E+00 0.  1.
        994   -1    0    0    0    0 -0.00000000000E+00 -0.00000000000E+00  0.11368683772E-12  0.17120000000E+03  0.17120000000E+03 0.  0.
         13    1    1    2    0    0 -0.15752104812E+02 -0.59564801330E+01  0.71021847586E+02  0.72991249202E+02  0.10566000000E+00 0.  1.
        994    1    1    2    0    0  0.44710505299E+01 -0.25430206913E+01  0.21652883469E+01  0.17129093882E+03  0.17120000000E+03 0.  0.
        998    1    1    2    0    0  0.11281054282E+02  0.84995008242E+01  0.14268128603E+04  0.14269178120E+04  0.10000000000E+02 0.  1.
</event>
<event>
 5    1  0.1271464E-008  0.3865692E+03  0.7957747E-01  0.3423044E+00
         13   -1    0    0    0    0  0.00000000000E+00  0.00000000000E+00  0.14999999963E+04  0.15000000000E+04  0.10566000000E+00 0. -1.
        994   -1    0    0    0    0 -0.00000000000E+00 -0.00000000000E+00  0.11368683772E-12  0.17120000000E+03  0.17120000000E+03 0.  0.
         13    1    1    2    0    0  0.99040004712E+01  0.16436666501E+01  0.54932528787E+02  0.55842499482E+02  0.10566000000E+00 0. -1.
        994    1    1    2    0    0 -0.14792322372E+02 -0.53103923722E+02  0.10859889056E+02  0.18018384141E+03  0.17120000000E+03 0.  0.
        998    1    1    2    0    0  0.48883219007E+01  0.51460257072E+02  0.14342075784E+04  0.14351736591E+04  0.10000000000E+02 0. -1.
</event>
<event>
 5    1  0.1271464E-008  0.3851487E+03  0.7957747E-01  0.3429042E+00
         13   -1    0    0    0    0  0.00000000000E+00  0.00000000000E+00  0.14999999963E+04  0.15000000000E+04  0.10566000000E+00 0. -1.
        994   -1    0    0    0    0 -0.00000000000E+00 -0.00000000000E+00  0.11368683772E-12  0.17120000000E+03  0.17120000000E+03 0.  0.
         13    1    1    2    0    0  0.40340113224E+01  0.97578154077E+01  0.36487907554E+02  0.37985086160E+02  0.10566000000E+00 0. -1.
        994    1    1    2    0    0 -0.63695915827E+01 -0.43561949018E+00  0.16903108729E+01  0.17132734345E+03  0.17120000000E+03 0.  0.
        998    1    1    2    0    0  0.23355802603E+01 -0.93221959176E+01  0.14618217779E+04  0.14618875704E+04  0.10000000000E+02 0. -1.
</event>
<event>
 5    1  0.1271464E-008  0.3846135E+03  0.7957747E-01  0.3431313E+00
         13   -1    0    0    0    0  0.00000000000E+00  0.00000000000E+00  0.14999999963E+04  0.15000000000E+04  0.10566000000E+00 0. -1.
        994   -1    0    0    0    0 -0.00000000000E+00 -0.00000000000E+00  0.11368683772E-12  0.17120000000E+03  0.17120000000E+03 0.  0.
         13    1    1    2    0    0  0.41307370124E+01  0.13468185342E+02  0.54219199471E+02  0.56019530166E+02  0.10566000000E+00 0. -1.
        994    1    1    2    0    0 -0.41208761851E+01 -0.86020583098E+01  0.21217872074E+01  0.17147862552E+03  0.17120000000E+03 0.  0.
        998    1    1    2    0    0 -0.98608273125E-02 -0.48661270327E+01  0.14436590096E+04  0.14437018443E+04  0.10000000000E+02 0. -1.
</event>
<event>
 5    1  0.1271464E-008  0.3779057E+03  0.7957747E-01  0.3460328E+00
         13   -1    0    0    0    0  0.00000000000E+00  0.00000000000E+00  0.14999999963E+04  0.15000000000E+04  0.10566000000E+00 0.  1.
        994   -1    0    0    0    0 -0.00000000000E+00 -0.00000000000E+00  0.11368683772E-12  0.17120000000E+03  0.17120000000E+03 0.  0.
         13    1    1    2    0    0  0.62146145509E+02 -0.33299313285E+02  0.36734604247E+03  0.37405095074E+03  0.10566000000E+00 0.  1.
        994    1    1    2    0    0 -0.62181249013E+02  0.29099368427E+02  0.21227804418E+02  0.18566997779E+03  0.17120000000E+03 0.  0.
        998    1    1    2    0    0  0.35103504058E-01  0.41999448581E+01  0.11114261494E+04  0.11114790715E+04  0.10000000000E+02 0.  0.
</event>
<event>
 5    1  0.1271464E-008  0.3746003E+03  0.7957747E-01  0.3475012E+00
         13   -1    0    0    0    0  0.00000000000E+00  0.00000000000E+00  0.14999999963E+04  0.15000000000E+04  0.10566000000E+00 0. -1.
        994   -1    0    0    0    0 -0.00000000000E+00 -0.00000000000E+00  0.11368683772E-12  0.17120000000E+03  0.17120000000E+03 0.  0.
         13    1    1    2    0    0 -0.62720871443E+01 -0.10445496595E+02  0.76919403248E+01  0.14409184094E+02  0.10566000000E+00 0. -1.
        994    1    1    2    0    0  0.61005472839E+01  0.40794009458E+01  0.70674644725E+01  0.17150290739E+03  0.17120000000E+03 0.  0.
        998    1    1    2    0    0  0.17153986042E+00  0.63660956488E+01  0.14852405915E+04  0.14852879085E+04  0.10000000000E+02 0. -1.
</event>
<event>
 5    1  0.1271464E-008  0.3758932E+03  0.7957747E-01  0.3469238E+00
         13   -1    0    0    0    0  0.00000000000E+00  0.00000000000E+00  0.14999999963E+04  0.15000000000E+04  0.10566000000E+00 0. -1.
        994   -1    0    0    0    0 -0.00000000000E+00 -0.00000000000E+00  0.11368683772E-12  0.17120000000E+03  0.17120000000E+03 0.  0.
         13    1    1    2    0    0 -0.30822043746E+02 -0.33272421228E+02  0.14542916622E+03  0.15233747388E+03  0.10566000000E+00 0. -1.
        994    1    1    2    0    0  0.39451817545E+02  0.30515062796E+02  0.14698282075E+02  0.17892203459E+03  0.17120000000E+03 0.  0.
        998    1    1    2    0    0 -0.86297737990E+01  0.27573584325E+01  0.13398725480E+04  0.13399404915E+04  0.10000000000E+02 0. -1.
</event>
<event>
 5    1  0.1271464E-008  0.3838742E+03  0.7957747E-01  0.3434461E+00
         13   -1    0    0    0    0  0.00000000000E+00  0.00000000000E+00  0.14999999963E+04  0.15000000000E+04  0.10566000000E+00 0. -1.
        994   -1    0    0    0    0 -0.00000000000E+00 -0.00000000000E+00  0.11368683772E-12  0.17120000000E+03  0.17120000000E+03 0.  0.
         13    1    1    2    0    0  0.10519481079E+02  0.74464462766E+01  0.37047095695E+02  0.39225087734E+02  0.10566000000E+00 0. -1.
        994    1    1    2    0    0 -0.94926645875E+01 -0.49244088569E+01  0.25676519407E+01  0.17155288782E+03  0.17120000000E+03 0.  0.
        998    1    1    2    0    0 -0.10268164919E+01 -0.25220374197E+01  0.14603852486E+04  0.14604220244E+04  0.10000000000E+02 0. -1.
</event>
<event>
 5    1  0.1271464E-008  0.3693182E+03  0.7957747E-01  0.3499030E+00
         13   -1    0    0    0    0  0.00000000000E+00  0.00000000000E+00  0.14999999963E+04  0.15000000000E+04  0.10566000000E+00 0. -1.
        994   -1    0    0    0    0 -0.00000000000E+00 -0.00000000000E+00  0.11368683772E-12  0.17120000000E+03  0.17120000000E+03 0.  0.
         13    1    1    2    0    0 -0.81644548439E+01  0.14035109931E+02  0.76081417849E+01  0.17931470077E+02  0.10566000000E+00 0. -1.
        994    1    1    2    0    0  0.68440397990E+01 -0.15847155283E+02  0.11618656652E+02  0.17245986894E+03  0.17120000000E+03 0.  0.
        998    1    1    2    0    0  0.13204150450E+01  0.18120453527E+01  0.14807731978E+04  0.14808086610E+04  0.10000000000E+02 0. -1.
</event>
<event>
 5    1  0.1271464E-008  0.3712842E+03  0.7957747E-01  0.3490010E+00
         13   -1    0    0    0    0  0.00000000000E+00  0.00000000000E+00  0.14999999963E+04  0.15000000000E+04  0.10566000000E+00 0.  1.
        994   -1    0    0    0    0 -0.00000000000E+00 -0.00000000000E+00  0.11368683772E-12  0.17120000000E+03  0.17120000000E+03 0.  0.
         13    1    1    2    0    0  0.13398120371E+02 -0.22651774480E+02  0.37818643139E+02  0.46074650835E+02  0.10566000000E+00 0.  1.
        994    1    1    2    0    0 -0.17764876180E+01  0.82214431837E+01  0.88429603482E+01  0.17163445454E+03  0.17120000000E+03 0.  0.
        998    1    1    2    0    0 -0.11621632753E+02  0.14430331296E+02  0.14533383928E+04  0.14534908946E+04  0.10000000000E+02 0.  1.
</event>
<event>
 5    1  0.1271464E-008  0.3811752E+03  0.7957747E-01  0.3446058E+00
         13   -1    0    0    0    0  0.00000000000E+00  0.00000000000E+00  0.14999999963E+04  0.15000000000E+04  0.10566000000E+00 0. -1.
        994   -1    0    0    0    0 -0.00000000000E+00 -0.00000000000E+00  0.11368683772E-12  0.17120000000E+03  0.17120000000E+03 0.  0.
         13    1    1    2    0    0 -0.10905121364E+02  0.18412682743E+02  0.64100034893E+02  0.67577912035E+02  0.10566000000E+00 0. -1.
        994    1    1    2    0    0  0.15710771233E+02 -0.39387701105E+01  0.44151879789E+01  0.17202115023E+03  0.17120000000E+03 0.  0.
        998    1    1    2    0    0 -0.48056498698E+01 -0.14473912632E+02  0.14314847734E+04  0.14316009377E+04  0.10000000000E+02 0. -1.
</event>
<event>
 5    1  0.1271464E-008  0.3816587E+03  0.7957747E-01  0.3443968E+00
         13   -1    0    0    0    0  0.00000000000E+00  0.00000000000E+00  0.14999999963E+04  0.15000000000E+04  0.10566000000E+00 0.  1.
        994   -1    0    0    0    0 -0.00000000000E+00 -0.00000000000E+00  0.11368683772E-12  0.17120000000E+03  0.17120000000E+03 0.  0.
         13    1    1    2    0    0 -0.82877323791E+00 -0.17132553492E+02  0.44755851180E+02  0.47930247580E+02  0.10566000000E+00 0.  1.
        994    1    1    2    0    0  0.56752504776E+01  0.34448482666E+01  0.34447459591E+01  0.17136330331E+03  0.17120000000E+03 0.  0.
        998    1    1    2    0    0 -0.48464772397E+01  0.13687705225E+02  0.14517993991E+04  0.14519064491E+04  0.10000000000E+02 0.  1.
</event>
<event>
 5    1  0.1271464E-008  0.3762556E+03  0.7957747E-01  0.3467626E+00
         13   -1    0    0    0    0  0.00000000000E+00  0.00000000000E+00  0.14999999963E+04  0.15000000000E+04  0.10566000000E+00 0. -1.
        994   -1    0    0    0    0 -0.00000000000E+00 -0.00000000000E+00  0.11368683772E-12  0.17120000000E+03  0.17120000000E+03 0.  0.
         13    1    1    2    0    0 -0.92939007065E+02 -0.91142131769E+01  0.43333958360E+03  0.44328764227E+03  0.10566000000E+00 0. -1.
        994    1    1    2    0    0  0.11109196981E+03 -0.12619712218E+02  0.49595268222E+02  0.21040392943E+03  0.17120000000E+03 0.  0.
        998    1    1    2    0    0 -0.18152962740E+02  0.21733925394E+02  0.10170651445E+04  0.10175084283E+04  0.10000000000E+02 0. -1.
</event>
<event>
 5    1  0.1271464E-008  0.3694493E+03  0.7957747E-01  0.3498426E+00
         13   -1    0    0    0    0  0.00000000000E+00  0.00000000000E+00  0.14999999963E+04  0.15000000000E+04  0.10566000000E+00 0.  1.
        994   -1    0    0    0    0 -0.00000000000E+00 -0.00000000000E+00  0.11368683772E-12  0.17120000000E+03  0.17120000000E+03 0.  0.
         13    1    1    2    0    0 -0.15430622380E+02 -0.40616798416E+02  0.91357222723E+02  0.10116314412E+03  0.10566000000E+00 0.  1.
        994    1    1    2    0    0  0.98477483836E+01  0.38549716589E+02  0.15061258260E+02  0.17640674675E+03  0.17120000000E+03 0.  0.
        998    1    1    2    0    0  0.55828739963E+01  0.20670818275E+01  0.13935815153E+04  0.13936301091E+04  0.10000000000E+02 0.  1.
</event>
<event>
 5    1  0.1271464E-008  0.3812390E+03  0.7957747E-01  0.3445781E+00
         13   -1    0    0    0    0  0.00000000000E+00  0.00000000000E+00  0.14999999963E+04  0.15000000000E+04  0.10566000000E+00 0.  1.
        994   -1    0    0    0    0 -0.00000000000E+00 -0.00000000000E+00  0.11368683772E-12  0.17120000000E+03  0.17120000000E+03 0.  0.
         13    1    1    2    0    0 -0.21087221412E+01  0.16501330024E+02  0.38363597248E+02  0.41815276628E+02  0.10566000000E+00 0.  1.
        994    1    1    2    0    0 -0.10213983955E+01 -0.96730788135E+01  0.38240555414E+01  0.17151873107E+03  0.17120000000E+03 0.  0.
        998    1    1    2    0    0  0.31301205368E+01 -0.68282512108E+01  0.14578123435E+04  0.14578659923E+04  0.10000000000E+02 0.  1.
</event>
<event>
 5    1  0.1271464E-008  0.3702717E+03  0.7957747E-01  0.3494643E+00
         13   -1    0    0    0    0  0.00000000000E+00  0.00000000000E+00  0.14999999963E+04  0.15000000000E+04  0.10566000000E+00 0.  1.
        994   -1    0    0    0    0 -0.00000000000E+00 -0.00000000000E+00  0.11368683772E-12  0.17120000000E+03  0.17120000000E+03 0.  0.
         13    1    1    2    0    0  0.51106557102E+02 -0.45204499911E+02  0.30133838351E+03  0.30896627572E+03  0.10566000000E+00 0.  1.
        994    1    1    2    0    0 -0.50929316592E+02 -0.31423729443E+02  0.21601833623E+02  0.18263987866E+03  0.17120000000E+03 0.  0.
        998    1    1    2    0    0 -0.17724050977E+00  0.76628229355E+02  0.11770597791E+04  0.11795938456E+04  0.10000000000E+02 0.  1.
</event>
<event>
 5    1  0.1271464E-008  0.3817898E+03  0.7957747E-01  0.3443402E+00
         13   -1    0    0    0    0  0.00000000000E+00  0.00000000000E+00  0.14999999963E+04  0.15000000000E+04  0.10566000000E+00 0.  1.
        994   -1    0    0    0    0 -0.00000000000E+00 -0.00000000000E+00  0.11368683772E-12  0.17120000000E+03  0.17120000000E+03 0.  0.
         13    1    1    2    0    0 -0.59872835924E+01  0.11484548029E+02  0.24563134975E+02  0.27768708506E+02  0.10566000000E+00 0.  1.
        994    1    1    2    0    0  0.64798941428E+01 -0.87383982310E+01  0.36257948845E+01  0.17158360942E+03  0.17120000000E+03 0.  0.
        998    1    1    2    0    0 -0.49261055044E+00 -0.27461497984E+01  0.14718110664E+04  0.14718476821E+04  0.10000000000E+02 0.  1.
</event>
<event>
 5    1  0.1271464E-008  0.3730702E+03  0.7957747E-01  0.3481899E+00
         13   -1    0    0    0    0  0.00000000000E+00  0.00000000000E+00  0.14999999963E+04  0.15000000000E+04  0.10566000000E+00 0. -1.
        994   -1    0    0    0    0 -0.00000000000E+00 -0.00000000000E+00  0.11368683772E-12  0.17120000000E+03  0.17120000000E+03 0.  0.
         13    1    1    2    0    0 -0.29096471335E+02  0.28958917199E+02  0.10005954713E+03  0.10815335254E+03  0.10566000000E+00 0. -1.
        994    1    1    2    0    0  0.40544371601E+02 -0.19284539988E+02  0.14601459594E+02  0.17759049010E+03  0.17120000000E+03 0.  0.
        998    1    1    2    0    0 -0.11447900266E+02 -0.96743772116E+01  0.13853389896E+04  0.13854561574E+04  0.10000000000E+02 0. -1.
</event>
<event>
 5    1  0.1271464E-008  0.3842006E+03  0.7957747E-01  0.3433070E+00
         13   -1    0    0    0    0  0.00000000000E+00  0.00000000000E+00  0.14999999963E+04  0.15000000000E+04  0.10566000000E+00 0. -1.
        994   -1    0    0    0    0 -0.00000000000E+00 -0.00000000000E+00  0.11368683772E-12  0.17120000000E+03  0.17120000000E+03 0.  0.
         13    1    1    2    0    0 -0.57502417991E+01 -0.14018294453E+02  0.54965734921E+02  0.57015971793E+02  0.10566000000E+00 0. -1.
        994    1    1    2    0    0  0.35546801885E+01  0.14055563928E+02  0.27209036502E+01  0.17183433285E+03  0.17120000000E+03 0.  0.
        998    1    1    2    0    0  0.21955616107E+01 -0.37269474998E-01  0.14423133577E+04  0.14423496954E+04  0.10000000000E+02 0. -1.
</event>
<event>
 5    1  0.1271464E-008  0.3795704E+03  0.7957747E-01  0.3453031E+00
         13   -1    0    0    0    0  0.00000000000E+00  0.00000000000E+00  0.14999999963E+04  0.15000000000E+04  0.10566000000E+00 0.  1.
        994   -1    0    0    0    0 -0.00000000000E+00 -0.00000000000E+00  0.11368683772E-12  0.17120000000E+03  0.17120000000E+03 0.  0.
         13    1    1    2    0    0  0.11706389009E+02  0.36108571144E+02  0.19254534739E+03  0.19625134502E+03  0.10566000000E+00 0.  1.
        994    1    1    2    0    0  0.56069942239E+01 -0.19498397064E+01  0.44681547681E+01  0.17136115273E+03  0.17120000000E+03 0.  0.
        998    1    1    2    0    0 -0.17313383233E+02 -0.34158731438E+02  0.13029864941E+04  0.13035875022E+04  0.10000000000E+02 0.  1.
</event>
<event>
 5    1  0.1271464E-008  0.3771901E+03  0.7957747E-01  0.3463486E+00
         13   -1    0    0    0    0  0.00000000000E+00  0.00000000000E+00  0.14999999963E+04  0.15000000000E+04  0.10566000000E+00 0.  1.
        994   -1    0    0    0    0 -0.00000000000E+00 -0.00000000000E+00  0.11368683772E-12  0.17120000000E+03  0.17120000000E+03 0.  0.
         13    1    1    2    0    0  0.34943364146E+02 -0.34581329099E+02  0.26395711176E+03  0.26849632220E+03  0.10566000000E+00 0.  1.
        994    1    1    2    0    0 -0.41821928206E+01 -0.86065056479E+00  0.56198824060E+01  0.17134542461E+03  0.17120000000E+03 0.  0.
        998    1    1    2    0    0 -0.30761171325E+02  0.35441979664E+02  0.12304230021E+04  0.12313582532E+04  0.10000000000E+02 0.  1.
</event>
<event>
 5    1  0.1271464E-008  0.3760868E+03  0.7957747E-01  0.3468376E+00
         13   -1    0    0    0    0  0.00000000000E+00  0.00000000000E+00  0.14999999963E+04  0.15000000000E+04  0.10566000000E+00 0. -1.
        994   -1    0    0    0    0 -0.00000000000E+00 -0.00000000000E+00  0.11368683772E-12  0.17120000000E+03  0.17120000000E+03 0.  0.
         13    1    1    2    0    0 -0.58826791436E+01 -0.44765803504E+02  0.17128322407E+03  0.17713423466E+03  0.10566000000E+00 0. -1.
        994    1    1    2    0    0 -0.26195940029E+01  0.19838667709E+02  0.74790267814E+01  0.17252771039E+03  0.17120000000E+03 0.  0.
        998    1    1    2    0    0  0.85022731466E+01  0.24927135795E+02  0.13212377454E+04  0.13215380550E+04  0.10000000000E+02 0. -1.
</event>
<event>
 5    1  0.1271464E-008  0.3850746E+03  0.7957747E-01  0.3429356E+00
         13   -1    0    0    0    0  0.00000000000E+00  0.00000000000E+00  0.14999999963E+04  0.15000000000E+04  0.10566000000E+00 0. -1.
        994   -1    0    0    0    0 -0.00000000000E+00 -0.00000000000E+00  0.11368683772E-12  0.17120000000E+03  0.17120000000E+03 0.  0.
         13    1    1    2    0    0  0.84181311999E+00  0.16864716502E+02  0.91375705108E+02  0.92922860266E+02  0.10566000000E+00 0. -1.
        994    1    1    2    0    0 -0.16242530263E+02 -0.78994084012E+01  0.26663984235E+01  0.17217075862E+03  0.17120000000E+03 0.  0.
        998    1    1    2    0    0  0.15400717143E+02 -0.89653081006E+01  0.14059578927E+04  0.14061063811E+04  0.10000000000E+02 0. -1.
</event>
<event>
 5    1  0.1271464E-008  0.3846595E+03  0.7957747E-01  0.3431118E+00
         13   -1    0    0    0    0  0.00000000000E+00  0.00000000000E+00  0.14999999963E+04  0.15000000000E+04  0.10566000000E+00 0. -1.
        994   -1    0    0    0    0 -0.00000000000E+00 -0.00000000000E+00  0.11368683772E-12  0.17120000000E+03  0.17120000000E+03 0.  0.
         13    1    1    2    0    0 -0.26781193736E+01 -0.17197305649E+02  0.83514957278E+02  0.85309313080E+02  0.10566000000E+00 0. -1.
        994    1    1    2    0    0 -0.89092112221E+01  0.13833323799E+02  0.26911348883E+01  0.17200993314E+03  0.17120000000E+03 0.  0.
        998    1    1    2    0    0  0.11587330596E+02  0.33639818494E+01  0.14137939041E+04  0.14138807538E+04  0.10000000000E+02 0. -1.
</event>
<event>
 5    1  0.1271464E-008  0.3834052E+03  0.7957747E-01  0.3436464E+00
         13   -1    0    0    0    0  0.00000000000E+00  0.00000000000E+00  0.14999999963E+04  0.15000000000E+04  0.10566000000E+00 0. -1.
        994   -1    0    0    0    0 -0.00000000000E+00 -0.00000000000E+00  0.11368683772E-12  0.17120000000E+03  0.17120000000E+03 0.  0.
         13    1    1    2    0    0  0.15169636281E+02 -0.13371587049E+02  0.84416616988E+02  0.86804916870E+02  0.10566000000E+00 0. -1.
        994    1    1    2    0    0 -0.11246262136E+02  0.45458089859E+01  0.29105857557E+01  0.17165387936E+03  0.17120000000E+03 0.  0.
        998    1    1    2    0    0 -0.39233741458E+01  0.88257780630E+01  0.14126727935E+04  0.14127412038E+04  0.10000000000E+02 0. -1.
</event>
<event>
 5    1  0.1271464E-008  0.3817875E+03  0.7957747E-01  0.3443412E+00
         13   -1    0    0    0    0  0.00000000000E+00  0.00000000000E+00  0.14999999963E+04  0.15000000000E+04  0.10566000000E+00 0.  1.
        994   -1    0    0    0    0 -0.00000000000E+00 -0.00000000000E+00  0.11368683772E-12  0.17120000000E+03  0.17120000000E+03 0.  0.
         13    1    1    2    0    0 -0.19722733670E+02  0.51304087700E+01  0.60631249792E+02  0.63964575610E+02  0.10566000000E+00 0.  1.
        994    1    1    2    0    0  0.20270674984E+02 -0.98371678496E+01  0.49224687975E+01  0.17274646403E+03  0.17120000000E+03 0.  0.
        998    1    1    2    0    0 -0.54794131451E+00  0.47067590795E+01  0.14344462777E+04  0.14344889604E+04  0.10000000000E+02 0.  1.
</event>
<event>
 5    1  0.1271464E-008  0.3800572E+03  0.7957747E-01  0.3450909E+00
         13   -1    0    0    0    0  0.00000000000E+00  0.00000000000E+00  0.14999999963E+04  0.15000000000E+04  0.10566000000E+00 0. -1.
        994   -1    0    0    0    0 -0.00000000000E+00 -0.00000000000E+00  0.11368683772E-12  0.17120000000E+03  0.17120000000E+03 0.  0.
         13    1    1    2    0    0 -0.33718373680E+01  0.11249988254E+02  0.15488118958E+02  0.19437708606E+02  0.10566000000E+00 0. -1.
        994    1    1    2    0    0 -0.24653916458E+01  0.25779462954E+01  0.41468091935E+01  0.17128736086E+03  0.17120000000E+03 0.  0.
        998    1    1    2    0    0  0.58372290139E+01 -0.13827934549E+02  0.14803650681E+04  0.14804749305E+04  0.10000000000E+02 0. -1.
</event>
<event>
 5    1  0.1271464E-008  0.3801175E+03  0.7957747E-01  0.3450647E+00
         13   -1    0    0    0    0  0.00000000000E+00  0.00000000000E+00  0.14999999963E+04  0.15000000000E+04  0.10566000000E+00 0.  1.
        994   -1    0    0    0    0 -0.00000000000E+00 -0.00000000000E+00  0.11368683772E-12  0.17120000000E+03  0.17120000000E+03 0.  0.
         13    1    1    2    0    0 -0.11136882908E+02  0.49429621438E+00  0.13840069760E+02  0.17771696167E+02  0.10566000000E+00 0.  1.
        994    1    1    2    0    0 -0.26015537208E+01 -0.40387744455E+01  0.41509625885E+01  0.17131768814E+03  0.17120000000E+03 0.  0.
        998    1    1    2    0    0  0.13738436629E+02  0.35444782311E+01  0.14820089639E+04  0.14821106157E+04  0.10000000000E+02 0.  1.
</event>
<event>
 5    1  0.1271464E-008  0.3835557E+03  0.7957747E-01  0.3435821E+00
         13   -1    0    0    0    0  0.00000000000E+00  0.00000000000E+00  0.14999999963E+04  0.15000000000E+04  0.10566000000E+00 0. -1.
        994   -1    0    0    0    0 -0.00000000000E+00 -0.00000000000E+00  0.11368683772E-12  0.17120000000E+03  0.17120000000E+03 0.  0.
         13    1    1    2    0    0 -0.16872668354E+01  0.16026690760E+02  0.52363049399E+02  0.54786876097E+02  0.10566000000E+00 0. -1.
        994    1    1    2    0    0  0.39258480729E+01 -0.19273150444E+02  0.36281862954E+01  0.17236435347E+03  0.17120000000E+03 0.  0.
        998    1    1    2    0    0 -0.22385812375E+01  0.32464596840E+01  0.14440087606E+04  0.14440487704E+04  0.10000000000E+02 0. -1.
</event>
<event>
 5    1  0.1271464E-008  0.3766813E+03  0.7957747E-01  0.3465737E+00
         13   -1    0    0    0    0  0.00000000000E+00  0.00000000000E+00  0.14999999963E+04  0.15000000000E+04  0.10566000000E+00 0. -1.
        994   -1    0    0    0    0 -0.00000000000E+00 -0.00000000000E+00  0.11368683772E-12  0.17120000000E+03  0.17120000000E+03 0.  0.
         13    1    1    2    0    0 -0.19204022251E+02 -0.14327144362E+02  0.45727964226E+02  0.51624794551E+02  0.10566000000E+00 0. -1.
        994    1    1    2    0    0  0.21962442699E+02  0.11966634941E+02  0.79351316661E+01  0.17319917885E+03  0.17120000000E+03 0.  0.
        998    1    1    2    0    0 -0.27584204481E+01  0.23605094213E+01  0.14463369004E+04  0.14463760266E+04  0.10000000000E+02 0. -1.
</event>
<event>
 5    1  0.1271464E-008  0.3845979E+03  0.7957747E-01  0.3431379E+00
         13   -1    0    0    0    0  0.00000000000E+00  0.00000000000E+00  0.14999999963E+04  0.15000000000E+04  0.10566000000E+00 0. -1.
        994   -1    0    0    0    0 -0.00000000000E+00 -0.00000000000E+00  0.11368683772E-12  0.17120000000E+03  0.17120000000E+03 0.  0.
         13    1    1    2    0    0  0.19360301978E+02 -0.85877203560E+01  0.12035398124E+03  0.12220336410E+03  0.10566000000E+00 0. -1.
        994    1    1    2    0    0 -0.16998268299E+02 -0.50794773295E+00  0.27828164301E+01  0.17206505515E+03  0.17120000000E+03 0.  0.
        998    1    1    2    0    0 -0.23620336787E+01  0.90956680890E+01  0.13768631986E+04  0.13769315807E+04  0.10000000000E+02 0. -1.
</event>
<event>
 5    1  0.1271464E-008  0.3838889E+03  0.7957747E-01  0.3434398E+00
         13   -1    0    0    0    0  0.00000000000E+00  0.00000000000E+00  0.14999999963E+04  0.15000000000E+04  0.10566000000E+00 0.  1.
        994   -1    0    0    0    0 -0.00000000000E+00 -0.00000000000E+00  0.11368683772E-12  0.17120000000E+03  0.17120000000E+03 0.  0.
         13    1    1    2    0    0  0.14281737483E+02 -0.18498093153E+02  0.13714370202E+03  0.13912064420E+03  0.10566000000E+00 0.  1.
        994    1    1    2    0    0 -0.16135663622E+02 -0.83871772057E+01  0.32750489882E+01  0.17219428076E+03  0.17120000000E+03 0.  0.
        998    1    1    2    0    0  0.18539261388E+01  0.26885270359E+02  0.13595812453E+04  0.13598850750E+04  0.10000000000E+02 0.  1.
</event>
<event>
 5    1  0.1271464E-008  0.3778926E+03  0.7957747E-01  0.3460386E+00
         13   -1    0    0    0    0  0.00000000000E+00  0.00000000000E+00  0.14999999963E+04  0.15000000000E+04  0.10566000000E+00 0. -1.
        994   -1    0    0    0    0 -0.00000000000E+00 -0.00000000000E+00  0.11368683772E-12  0.17120000000E+03  0.17120000000E+03 0.  0.
         13    1    1    2    0    0 -0.33605420867E+02  0.12115215420E+03  0.69607419874E+03  0.70733759273E+03  0.10566000000E+00 0. -1.
        994    1    1    2    0    0  0.21727223731E+02 -0.13139954885E+03  0.67446780397E+02  0.22714845779E+03  0.17120000000E+03 0.  0.
        998    1    1    2    0    0  0.11878197136E+02  0.10247394651E+02  0.73647901714E+03  0.73671394948E+03  0.10000000000E+02 0.  1.
</event>
<event>
 5    1  0.1271464E-008  0.3795982E+03  0.7957747E-01  0.3452910E+00
         13   -1    0    0    0    0  0.00000000000E+00  0.00000000000E+00  0.14999999963E+04  0.15000000000E+04  0.10566000000E+00 0. -1.
        994   -1    0    0    0    0 -0.00000000000E+00 -0.00000000000E+00  0.11368683772E-12  0.17120000000E+03  0.17120000000E+03 0.  0.
         13    1    1    2    0    0  0.60405304868E+02 -0.29337608562E+02  0.37036937512E+03  0.37640799849E+03  0.10566000000E+00 0. -1.
        994    1    1    2    0    0 -0.63198704308E+02  0.35520383519E+02  0.22134785097E+02  0.18723023950E+03  0.17120000000E+03 0.  0.
        998    1    1    2    0    0  0.27933994400E+01 -0.61827749575E+01  0.11074958361E+04  0.11075617620E+04  0.10000000000E+02 0. -1.
</event>
<event>
 5    1  0.1271464E-008  0.3860350E+03  0.7957747E-01  0.3425295E+00
         13   -1    0    0    0    0  0.00000000000E+00  0.00000000000E+00  0.14999999963E+04  0.15000000000E+04  0.10566000000E+00 0.  1.
        994   -1    0    0    0    0 -0.00000000000E+00 -0.00000000000E+00  0.11368683772E-12  0.17120000000E+03  0.17120000000E+03 0.  0.
         13    1    1    2    0    0  0.10853661956E+01 -0.16550894943E+02  0.92444815119E+02  0.93921058073E+02  0.10566000000E+00 0.  1.
        994    1    1    2    0    0  0.73589477564E+01  0.46177679034E+02  0.83168716213E+01  0.17766581693E+03  0.17120000000E+03 0.  0.
        998    1    1    2    0    0 -0.84443139520E+01 -0.29626784090E+02  0.13992383095E+04  0.13996131250E+04  0.10000000000E+02 0.  1.
</event>
<event>
 5    1  0.1271464E-008  0.3837594E+03  0.7957747E-01  0.3434951E+00
         13   -1    0    0    0    0  0.00000000000E+00  0.00000000000E+00  0.14999999963E+04  0.15000000000E+04  0.10566000000E+00 0. -1.
        994   -1    0    0    0    0 -0.00000000000E+00 -0.00000000000E+00  0.11368683772E-12  0.17120000000E+03  0.17120000000E+03 0.  0.
         13    1    1    2    0    0 -0.16517301842E+02 -0.11260472994E+02  0.87124920082E+02  0.89388938776E+02  0.10566000000E+00 0. -1.
        994    1    1    2    0    0  0.22751906842E+02 -0.61298876674E+01  0.40828104626E+01  0.17286218247E+03  0.17120000000E+03 0.  0.
        998    1    1    2    0    0 -0.62346050001E+01  0.17390360661E+02  0.14087922657E+04  0.14089488788E+04  0.10000000000E+02 0. -1.
</event>
<event>
 5    1  0.1271464E-008  0.3703225E+03  0.7957747E-01  0.3494410E+00
         13   -1    0    0    0    0  0.00000000000E+00  0.00000000000E+00  0.14999999963E+04  0.15000000000E+04  0.10566000000E+00 0. -1.
        994   -1    0    0    0    0 -0.00000000000E+00 -0.00000000000E+00  0.11368683772E-12  0.17120000000E+03  0.17120000000E+03 0.  0.
         13    1    1    2    0    0  0.30655140305E+02  0.53191949443E+02  0.17131344207E+03  0.18198194336E+03  0.10566000000E+00 0. -1.
        994    1    1    2    0    0 -0.30260441838E+02 -0.66597516648E+02  0.27815435713E+02  0.18823937428E+03  0.17120000000E+03 0.  0.
        998    1    1    2    0    0 -0.39469846757E+00  0.13405567205E+02  0.13008711185E+04  0.13009786824E+04  0.10000000000E+02 0. -1.
</event>
<event>
 5    1  0.1271464E-008  0.3732163E+03  0.7957747E-01  0.3481239E+00
         13   -1    0    0    0    0  0.00000000000E+00  0.00000000000E+00  0.14999999963E+04  0.15000000000E+04  0.10566000000E+00 0. -1.
        994   -1    0    0    0    0 -0.00000000000E+00 -0.00000000000E+00  0.11368683772E-12  0.17120000000E+03  0.17120000000E+03 0.  0.
         13    1    1    2    0    0 -0.57173209450E+02 -0.18018663775E+02  0.27852357807E+03  0.28490146161E+03  0.10566000000E+00 0. -1.
        994    1    1    2    0    0  0.20340775313E+02 -0.27757421785E+02  0.11658074804E+02  0.17501306326E+03  0.17120000000E+03 0.  0.
        998    1    1    2    0    0  0.36832434137E+02  0.45776085560E+02  0.12098183434E+04  0.12112854751E+04  0.10000000000E+02 0. -1.
</event>
<event>
 5    1  0.1271464E-008  0.3851664E+03  0.7957747E-01  0.3428967E+00
         13   -1    0    0    0    0  0.00000000000E+00  0.00000000000E+00  0.14999999963E+04  0.15000000000E+04  0.10566000000E+00 0.  1.
        994   -1    0    0    0    0 -0.00000000000E+00 -0.00000000000E+00  0.11368683772E-12  0.17120000000E+03  0.17120000000E+03 0.  0.
         13    1    1    2    0    0 -0.79646685792E+01  0.62763882269E+01  0.35039380796E+02  0.36477367851E+02  0.10566000000E+00 0.  1.
        994    1    1    2    0    0  0.73331306599E+01  0.16661917935E+02  0.26375426643E+01  0.17218533894E+03  0.17120000000E+03 0.  0.
        998    1    1    2    0    0  0.63153791928E+00 -0.22938306162E+02  0.14623230728E+04  0.14625372932E+04  0.10000000000E+02 0.  1.
</event>
<event>
 5    1  0.1271464E-008  0.3857052E+03  0.7957747E-01  0.3426687E+00
         13   -1    0    0    0    0  0.00000000000E+00  0.00000000000E+00  0.14999999963E+04  0.15000000000E+04  0.10566000000E+00 0. -1.
        994   -1    0    0    0    0 -0.00000000000E+00 -0.00000000000E+00  0.11368683772E-12  0.17120000000E+03  0.17120000000E+03 0.  0.
         13    1    1    2    0    0 -0.13351578377E+02  0.58877846494E+01  0.85678437572E+02  0.86912234363E+02  0.10566000000E+00 0. -1.
        994    1    1    2    0    0  0.56646629580E+01 -0.38837087727E+01  0.14352356466E+01  0.17134372326E+03  0.17120000000E+03 0.  0.
        998    1    1    2    0    0  0.76869154188E+01 -0.20040758766E+01  0.14128863231E+04  0.14129440424E+04  0.10000000000E+02 0. -1.
</event>
<event>
 5    1  0.1271464E-008  0.3789395E+03  0.7957747E-01  0.3455789E+00
         13   -1    0    0    0    0  0.00000000000E+00  0.00000000000E+00  0.14999999963E+04  0.15000000000E+04  0.10566000000E+00 0. -1.
        994   -1    0    0    0    0 -0.00000000000E+00 -0.00000000000E+00  0.11368683772E-12  0.17120000000E+03  0.17120000000E+03 0.  0.
         13    1    1    2    0    0  0.81672396926E+01 -0.17046929295E+02  0.35794342768E+02  0.40478978999E+02  0.10566000000E+00 0. -1.
        994    1    1    2    0    0 -0.10827510317E+02  0.14941456116E+02  0.58124640875E+01  0.17228960163E+03  0.17120000000E+03 0.  0.
        998    1    1    2    0    0  0.26602706243E+01  0.21054731785E+01  0.14583931894E+04  0.14584314194E+04  0.10000000000E+02 0. -1.
</event>
<event>
 5    1  0.1271464E-008  0.3822501E+03  0.7957747E-01  0.3441419E+00
         13   -1    0    0    0    0  0.00000000000E+00  0.00000000000E+00  0.14999999963E+04  0.15000000000E+04  0.10566000000E+00 0.  1.
        994   -1    0    0    0    0 -0.00000000000E+00 -0.00000000000E+00  0.11368683772E-12  0.17120000000E+03  0.17120000000E+03 0.  0.
         13    1    1    2    0    0 -0.25030385183E+02  0.17944362547E+02  0.17350061118E+03  0.17621292113E+03  0.10566000000E+00 0.  1.
        994    1    1    2    0    0  0.20990448878E+01 -0.70418490279E+01  0.31807944975E+01  0.17138713803E+03  0.17120000000E+03 0.  0.
        998    1    1    2    0    0  0.22931340295E+02 -0.10902513519E+02  0.13233185906E+04  0.13235999408E+04  0.10000000000E+02 0.  1.
</event>
<event>
 5    1  0.1271464E-008  0.3783365E+03  0.7957747E-01  0.3458434E+00
         13   -1    0    0    0    0  0.00000000000E+00  0.00000000000E+00  0.14999999963E+04  0.15000000000E+04  0.10566000000E+00 0.  1.
        994   -1    0    0    0    0 -0.00000000000E+00 -0.00000000000E+00  0.11368683772E-12  0.17120000000E+03  0.17120000000E+03 0.  0.
         13    1    1    2    0    0 -0.99540603903E+00  0.11991616633E+02  0.12126987712E+02  0.17084048046E+02  0.10566000000E+00 0.  1.
        994    1    1    2    0    0  0.28381243029E+01 -0.16412963205E+02  0.59083525921E+01  0.17210981652E+03  0.17120000000E+03 0.  0.
        998    1    1    2    0    0 -0.18427182639E+01  0.44213465717E+01  0.14819646560E+04  0.14820061354E+04  0.10000000000E+02 0.  1.
</event>
<event>
 5    1  0.1271464E-008  0.3833021E+03  0.7957747E-01  0.3436905E+00
         13   -1    0    0    0    0  0.00000000000E+00  0.00000000000E+00  0.14999999963E+04  0.15000000000E+04  0.10566000000E+00 0.  1.
        994   -1    0    0    0    0 -0.00000000000E+00 -0.00000000000E+00  0.11368683772E-12  0.17120000000E+03  0.17120000000E+03 0.  0.
         13    1    1    2    0    0 -0.76276600779E+01 -0.17987483686E+02  0.69478058117E+02  0.72173003896E+02  0.10566000000E+00 0.  1.
        994    1    1    2    0    0  0.16003911340E+02  0.26267813011E+02  0.56104296412E+01  0.17403172153E+03  0.17120000000E+03 0.  0.
        998    1    1    2    0    0 -0.83762512623E+01 -0.82803293249E+01  0.14249115085E+04  0.14249952746E+04  0.10000000000E+02 0.  1.
</event>
<event>
 5    1  0.1271464E-008  0.3744637E+03  0.7957747E-01  0.3475625E+00
         13   -1    0    0    0    0  0.00000000000E+00  0.00000000000E+00  0.14999999963E+04  0.15000000000E+04  0.10566000000E+00 0.  1.
        994   -1    0    0    0    0 -0.00000000000E+00 -0.00000000000E+00  0.11368683772E-12  0.17120000000E+03  0.17120000000E+03 0.  0.
         13    1    1    2    0    0 -0.10287164476E+02  0.48742624376E+02  0.16992460634E+03  0.17707640212E+03  0.10566000000E+00 0.  1.
        994    1    1    2    0    0  0.49660772311E+02 -0.27691368194E+02  0.18044840442E+02  0.18129550586E+03  0.17120000000E+03 0.  0.
        998    1    1    2    0    0 -0.39373607835E+02 -0.21051256181E+02  0.13120305495E+04  0.13128280920E+04  0.10000000000E+02 0.  1.
</event>
<event>
 5    1  0.1271464E-008  0.3854252E+03  0.7957747E-01  0.3427871E+00
         13   -1    0    0    0    0  0.00000000000E+00  0.00000000000E+00  0.14999999963E+04  0.15000000000E+04  0.10566000000E+00 0.  1.
        994   -1    0    0    0    0 -0.00000000000E+00 -0.00000000000E+00  0.11368683772E-12  0.17120000000E+03  0.17120000000E+03 0.  0.
         13    1    1    2    0    0  0.51525813114E+01  0.13406342259E+02  0.55087167938E+02  0.56928783075E+02  0.10566000000E+00 0.  1.
        994    1    1    2    0    0 -0.18346487539E+02 -0.53643167506E+02  0.12047050279E+02  0.18074499840E+03  0.17120000000E+03 0.  0.
        998    1    1    2    0    0  0.13193906227E+02  0.40236825247E+02  0.14328657781E+04  0.14335262185E+04  0.10000000000E+02 0.  1.
</event>
<event>
 5    1  0.1272395E-008  0.3846352E+03  0.7957747E-01  0.3431221E+00
         13   -1    0    0    0    0  0.00000000000E+00  0.00000000000E+00  0.14999999963E+04  0.15000000000E+04  0.10566000000E+00 0.  1.
        994   -1    0    0    0    0 -0.00000000000E+00 -0.00000000000E+00  0.11368683772E-12  0.17120000000E+03  0.17120000000E+03 0.  0.
         13    1    1    2    0    0 -0.10015228765E+02 -0.65394358326E+01  0.39947076428E+02  0.41699509678E+02  0.10566000000E+00 0.  1.
        994    1    1    2    0    0  0.33749806179E+01  0.24342964721E+01  0.18683729301E+01  0.17126075765E+03  0.17120000000E+03 0.  0.
        998    1    1    2    0    0  0.66402481467E+01  0.41051393605E+01  0.14581845469E+04  0.14582397327E+04  0.10000000000E+02 0.  1.
</event>
<event>
 5    1  0.1271464E-008  0.3855767E+03  0.7957747E-01  0.3427230E+00
         13   -1    0    0    0    0  0.00000000000E+00  0.00000000000E+00  0.14999999963E+04  0.15000000000E+04  0.10566000000E+00 0.  1.
        994   -1    0    0    0    0 -0.00000000000E+00 -0.00000000000E+00  0.11368683772E-12  0.17120000000E+03  0.17120000000E+03 0.  0.
         13    1    1    2    0    0  0.10565640182E+02 -0.11135329147E+02  0.85100179628E+02  0.86473580037E+02  0.10566000000E+00 0.  1.
        994    1    1    2    0    0 -0.43178792716E+01  0.15967556089E+02  0.22427210599E+01  0.17201185054E+03  0.17120000000E+03 0.  0.
        998    1    1    2    0    0 -0.62477609100E+01 -0.48322269425E+01  0.14126570956E+04  0.14127145694E+04  0.10000000000E+02 0.  1.
</event>
<event>
 5    1  0.1271464E-008  0.3766047E+03  0.7957747E-01  0.3466077E+00
         13   -1    0    0    0    0  0.00000000000E+00  0.00000000000E+00  0.14999999963E+04  0.15000000000E+04  0.10566000000E+00 0. -1.
        994   -1    0    0    0    0 -0.00000000000E+00 -0.00000000000E+00  0.11368683772E-12  0.17120000000E+03  0.17120000000E+03 0.  0.
         13    1    1    2    0    0  0.72655966825E+01 -0.93688550640E+02  0.53448337693E+03  0.54268114468E+03  0.10566000000E+00 0. -1.
        994    1    1    2    0    0  0.30967195492E+02  0.91256824626E+02  0.37929544729E+02  0.20008714502E+03  0.17120000000E+03 0.  0.
        998    1    1    2    0    0 -0.38232792174E+02  0.24317260141E+01  0.92758707462E+03  0.92843171030E+03  0.10000000000E+02 0. -1.
</event>
<event>
 5    1  0.1271464E-008  0.3857578E+03  0.7957747E-01  0.3426464E+00
         13   -1    0    0    0    0  0.00000000000E+00  0.00000000000E+00  0.14999999963E+04  0.15000000000E+04  0.10566000000E+00 0. -1.
        994   -1    0    0    0    0 -0.00000000000E+00 -0.00000000000E+00  0.11368683772E-12  0.17120000000E+03  0.17120000000E+03 0.  0.
         13    1    1    2    0    0 -0.13604340993E+02  0.39554727904E+01  0.84915345469E+02  0.86089203266E+02  0.10566000000E+00 0. -1.
        994    1    1    2    0    0  0.19443549155E+01 -0.43389543542E+01  0.13285185217E+01  0.17127116512E+03  0.17120000000E+03 0.  0.
        998    1    1    2    0    0  0.11659986077E+02  0.38348156375E+00  0.14137561323E+04  0.14138396316E+04  0.10000000000E+02 0. -1.
</event>
<event>
 5    1  0.1271464E-008  0.3766031E+03  0.7957747E-01  0.3466084E+00
         13   -1    0    0    0    0  0.00000000000E+00  0.00000000000E+00  0.14999999963E+04  0.15000000000E+04  0.10566000000E+00 0.  1.
        994   -1    0    0    0    0 -0.00000000000E+00 -0.00000000000E+00  0.11368683772E-12  0.17120000000E+03  0.17120000000E+03 0.  0.
         13    1    1    2    0    0  0.96573293558E+01  0.63691660181E+02  0.13180325341E+03  0.14670378441E+03  0.10566000000E+00 0.  1.
        994    1    1    2    0    0  0.30774780032E+01 -0.55892782675E+02  0.25774818230E+02  0.18195399221E+03  0.17120000000E+03 0.  0.
        998    1    1    2    0    0 -0.12734807359E+02 -0.77988775062E+01  0.13424219246E+04  0.13425422234E+04  0.10000000000E+02 0.  1.
</event>
<event>
 5    1  0.1271464E-008  0.3834135E+03  0.7957747E-01  0.3436429E+00
         13   -1    0    0    0    0  0.00000000000E+00  0.00000000000E+00  0.14999999963E+04  0.15000000000E+04  0.10566000000E+00 0.  1.
        994   -1    0    0    0    0 -0.00000000000E+00 -0.00000000000E+00  0.11368683772E-12  0.17120000000E+03  0.17120000000E+03 0.  0.
         13    1    1    2    0    0 -0.20253630930E+02 -0.90021922167E+01  0.96930243823E+02  0.99432048969E+02  0.10566000000E+00 0.  1.
        994    1    1    2    0    0  0.18774997781E+02  0.71445244957E+01  0.37549892126E+01  0.17241544222E+03  0.17120000000E+03 0.  0.
        998    1    1    2    0    0  0.14786331494E+01  0.18576677209E+01  0.13993147632E+04  0.13993525088E+04  0.10000000000E+02 0.  1.
</event>
<event>
 5    1  0.1271464E-008  0.3719484E+03  0.7957747E-01  0.3486984E+00
         13   -1    0    0    0    0  0.00000000000E+00  0.00000000000E+00  0.14999999963E+04  0.15000000000E+04  0.10566000000E+00 0. -1.
        994   -1    0    0    0    0 -0.00000000000E+00 -0.00000000000E+00  0.11368683772E-12  0.17120000000E+03  0.17120000000E+03 0.  0.
         13    1    1    2    0    0  0.18632242845E+02  0.30711736606E+02  0.73124419611E+02  0.81471241222E+02  0.10566000000E+00 0. -1.
        994    1    1    2    0    0 -0.12127176069E+02 -0.28740350288E+02  0.11603630119E+02  0.17440516152E+03  0.17120000000E+03 0.  0.
        998    1    1    2    0    0 -0.65050667760E+01 -0.19713863179E+01  0.14152719465E+04  0.14153235973E+04  0.10000000000E+02 0. -1.
</event>
<event>
 5    1  0.1271464E-008  0.3783836E+03  0.7957747E-01  0.3458227E+00
         13   -1    0    0    0    0  0.00000000000E+00  0.00000000000E+00  0.14999999963E+04  0.15000000000E+04  0.10566000000E+00 0.  1.
        994   -1    0    0    0    0 -0.00000000000E+00 -0.00000000000E+00  0.11368683772E-12  0.17120000000E+03  0.17120000000E+03 0.  0.
         13    1    1    2    0    0 -0.16924980826E+02  0.96012410282E+02  0.49674341904E+03  0.50622018275E+03  0.10566000000E+00 0.  1.
        994    1    1    2    0    0 -0.13567674324E+02 -0.12404866552E+03  0.59209178637E+02  0.21997118002E+03  0.17120000000E+03 0.  0.
        998    1    1    2    0    0  0.30492655150E+02  0.28036255239E+02  0.94404739860E+03  0.94500863723E+03  0.10000000000E+02 0.  1.
</event>
<event>
 5    1  0.1271464E-008  0.3849425E+03  0.7957747E-01  0.3429916E+00
         13   -1    0    0    0    0  0.00000000000E+00  0.00000000000E+00  0.14999999963E+04  0.15000000000E+04  0.10566000000E+00 0.  1.
        994   -1    0    0    0    0 -0.00000000000E+00 -0.00000000000E+00  0.11368683772E-12  0.17120000000E+03  0.17120000000E+03 0.  0.
         13    1    1    2    0    0  0.54238369105E+01 -0.10657030757E+02  0.45862335645E+02  0.47395730886E+02  0.10566000000E+00 0.  1.
        994    1    1    2    0    0  0.58399719502E-01 -0.45291848095E+01  0.17261601369E+01  0.17126860937E+03  0.17120000000E+03 0.  0.
        998    1    1    2    0    0 -0.54822366300E+01  0.15186215567E+02  0.14524115005E+04  0.14525356597E+04  0.10000000000E+02 0.  1.
</event>
<event>
 5    1  0.1271464E-008  0.3744196E+03  0.7957747E-01  0.3475822E+00
         13   -1    0    0    0    0  0.00000000000E+00  0.00000000000E+00  0.14999999963E+04  0.15000000000E+04  0.10566000000E+00 0. -1.
        994   -1    0    0    0    0 -0.00000000000E+00 -0.00000000000E+00  0.11368683772E-12  0.17120000000E+03  0.17120000000E+03 0.  0.
         13    1    1    2    0    0 -0.30334714764E+02  0.24456357397E+02  0.12211085479E+03  0.12817714444E+03  0.10566000000E+00 0. -1.
        994    1    1    2    0    0 -0.38047482271E+02 -0.40213879789E+02  0.17487902277E+02  0.18077619799E+03  0.17120000000E+03 0.  0.
        998    1    1    2    0    0  0.68382197035E+02  0.15757522392E+02  0.13604012392E+04  0.13622466576E+04  0.10000000000E+02 0. -1.
</event>
<event>
 5    1  0.1271464E-008  0.3862204E+03  0.7957747E-01  0.3424513E+00
         13   -1    0    0    0    0  0.00000000000E+00  0.00000000000E+00  0.14999999963E+04  0.15000000000E+04  0.10566000000E+00 0.  1.
        994   -1    0    0    0    0 -0.00000000000E+00 -0.00000000000E+00  0.11368683772E-12  0.17120000000E+03  0.17120000000E+03 0.  0.
         13    1    1    2    0    0 -0.74030778973E+01 -0.86164213971E+01  0.63648989193E+02  0.64654878156E+02  0.10566000000E+00 0.  1.
        994    1    1    2    0    0  0.37631380258E+01  0.74595161987E+01  0.12541463813E+01  0.17140833840E+03  0.17120000000E+03 0.  0.
        998    1    1    2    0    0  0.36399398715E+01  0.11569051984E+01  0.14350968607E+04  0.14351367834E+04  0.10000000000E+02 0.  1.
</event>
<event>
 5    1  0.1271464E-008  0.3935731E+03  0.7957747E-01  0.3394107E+00
         13   -1    0    0    0    0  0.00000000000E+00  0.00000000000E+00  0.14999999963E+04  0.15000000000E+04  0.10566000000E+00 0.  1.
        994   -1    0    0    0    0 -0.00000000000E+00 -0.00000000000E+00  0.11368683772E-12  0.17120000000E+03  0.17120000000E+03 0.  0.
         13    1    1    2    0    0  0.27842831368E+02 -0.89629828358E+02  0.16516207542E+03  0.18996644891E+03  0.10566000000E+00 0.  1.
        994    1    1    2    0    0 -0.16616004170E+02  0.79309366795E+02  0.49504525968E+02  0.19577079799E+03  0.17120000000E+03 0.  0.
        998    1    1    2    0    0 -0.11226827198E+02  0.10320461563E+02  0.12853333949E+04  0.12854627531E+04  0.10000000000E+02 0.  1.
</event>
<event>
 5    1  0.1271464E-008  0.3734340E+03  0.7957747E-01  0.3480256E+00
         13   -1    0    0    0    0  0.00000000000E+00  0.00000000000E+00  0.14999999963E+04  0.15000000000E+04  0.10566000000E+00 0. -1.
        994   -1    0    0    0    0 -0.00000000000E+00 -0.00000000000E+00  0.11368683772E-12  0.17120000000E+03  0.17120000000E+03 0.  0.
         13    1    1    2    0    0 -0.21107305119E+02  0.22117082678E+01  0.27102988399E+02  0.34423729127E+02  0.10566000000E+00 0. -1.
        994    1    1    2    0    0  0.12239775432E+02 -0.59709171071E+01  0.81191519168E+01  0.17193261640E+03  0.17120000000E+03 0.  0.
        998    1    1    2    0    0  0.88675296870E+01  0.37592088393E+01  0.14647778560E+04  0.14648436545E+04  0.10000000000E+02 0. -1.
</event>
<event>
 5    1  0.1271464E-008  0.3751500E+03  0.7957747E-01  0.3472552E+00
         13   -1    0    0    0    0  0.00000000000E+00  0.00000000000E+00  0.14999999963E+04  0.15000000000E+04  0.10566000000E+00 0. -1.
        994   -1    0    0    0    0 -0.00000000000E+00 -0.00000000000E+00  0.11368683772E-12  0.17120000000E+03  0.17120000000E+03 0.  0.
         13    1    1    2    0    0  0.19687391705E+02 -0.47014933841E+01  0.88387964705E+01  0.22086940016E+02  0.10566000000E+00 0. -1.
        994    1    1    2    0    0 -0.19297244213E+02  0.35403976561E+01  0.15059852102E+02  0.17297733145E+03  0.17120000000E+03 0.  0.
        998    1    1    2    0    0 -0.39014749192E+00  0.11610957281E+01  0.14761013477E+04  0.14761357285E+04  0.10000000000E+02 0. -1.
</event>
<event>
 5    1  0.1271464E-008  0.3785265E+03  0.7957747E-01  0.3457600E+00
         13   -1    0    0    0    0  0.00000000000E+00  0.00000000000E+00  0.14999999963E+04  0.15000000000E+04  0.10566000000E+00 0.  1.
        994   -1    0    0    0    0 -0.00000000000E+00 -0.00000000000E+00  0.11368683772E-12  0.17120000000E+03  0.17120000000E+03 0.  0.
         13    1    1    2    0    0 -0.21450826051E+02  0.13932742279E+02  0.69830978610E+02  0.74368245800E+02  0.10566000000E+00 0.  1.
        994    1    1    2    0    0 -0.31462692560E+01 -0.40983575094E+01  0.49685029675E+01  0.17134999728E+03  0.17120000000E+03 0.  0.
        998    1    1    2    0    0  0.24597095307E+02 -0.98343847701E+01  0.14252005147E+04  0.14254817569E+04  0.10000000000E+02 0.  1.
</event>
<event>
 5    1  0.1271464E-008  0.3785382E+03  0.7957747E-01  0.3457548E+00
         13   -1    0    0    0    0  0.00000000000E+00  0.00000000000E+00  0.14999999963E+04  0.15000000000E+04  0.10566000000E+00 0.  1.
        994   -1    0    0    0    0 -0.00000000000E+00 -0.00000000000E+00  0.11368683772E-12  0.17120000000E+03  0.17120000000E+03 0.  0.
         13    1    1    2    0    0 -0.88314121978E+01 -0.16933921908E+02  0.51806004105E+01  0.19788919558E+02  0.10566000000E+00 0.  1.
        994    1    1    2    0    0 -0.16441416242E+02  0.26929869969E+01  0.16527706137E+02  0.17280097632E+03  0.17120000000E+03 0.  0.
        998    1    1    2    0    0  0.25272828439E+02  0.14240934911E+02  0.14782916897E+04  0.14786101041E+04  0.10000000000E+02 0.  1.
</event>
<event>
 5    1  0.1271464E-008  0.3770268E+03  0.7957747E-01  0.3464207E+00
         13   -1    0    0    0    0  0.00000000000E+00  0.00000000000E+00  0.14999999963E+04  0.15000000000E+04  0.10566000000E+00 0.  1.
        994   -1    0    0    0    0 -0.00000000000E+00 -0.00000000000E+00  0.11368683772E-12  0.17120000000E+03  0.17120000000E+03 0.  0.
         13    1    1    2    0    0 -0.64900533942E+01  0.10876118268E+02  0.11929687959E+02  0.17399406900E+02  0.10566000000E+00 0.  1.
        994    1    1    2    0    0  0.14874778447E+02  0.79910404238E+01  0.66047471593E+01  0.17215742344E+03  0.17120000000E+03 0.  0.
        998    1    1    2    0    0 -0.83847250525E+01 -0.18867158692E+02  0.14814655612E+04  0.14816431697E+04  0.10000000000E+02 0.  1.
</event>
<event>
 5    1  0.1271464E-008  0.3792121E+03  0.7957747E-01  0.3454597E+00
         13   -1    0    0    0    0  0.00000000000E+00  0.00000000000E+00  0.14999999963E+04  0.15000000000E+04  0.10566000000E+00 0.  1.
        994   -1    0    0    0    0 -0.00000000000E+00 -0.00000000000E+00  0.11368683772E-12  0.17120000000E+03  0.17120000000E+03 0.  0.
         13    1    1    2    0    0  0.37754295186E+02  0.39075525789E+02  0.26970953229E+03  0.27512820011E+03  0.10566000000E+00 0.  1.
        994    1    1    2    0    0 -0.46919171380E+02 -0.29458659060E+02  0.14887965427E+02  0.18055556693E+03  0.17120000000E+03 0.  0.
        998    1    1    2    0    0  0.91648761935E+01 -0.96168667291E+01  0.12154024986E+04  0.12155162330E+04  0.10000000000E+02 0.  1.
</event>
<event>
 5    1  0.1271464E-008  0.3834132E+03  0.7957747E-01  0.3436430E+00
         13   -1    0    0    0    0  0.00000000000E+00  0.00000000000E+00  0.14999999963E+04  0.15000000000E+04  0.10566000000E+00 0.  1.
        994   -1    0    0    0    0 -0.00000000000E+00 -0.00000000000E+00  0.11368683772E-12  0.17120000000E+03  0.17120000000E+03 0.  0.
         13    1    1    2    0    0  0.14810818073E+02  0.75532678621E+01  0.60865272290E+02  0.63095203640E+02  0.10566000000E+00 0.  1.
        994    1    1    2    0    0  0.17924983196E+01  0.44321888476E+01  0.24955822513E+01  0.17128492426E+03  0.17120000000E+03 0.  0.
        998    1    1    2    0    0 -0.16603316393E+02 -0.11985456710E+02  0.14366391417E+04  0.14368198721E+04  0.10000000000E+02 0.  1.
</event>
<event>
 5    1  0.1271464E-008  0.3688189E+03  0.7957747E-01  0.3501337E+00
         13   -1    0    0    0    0  0.00000000000E+00  0.00000000000E+00  0.14999999963E+04  0.15000000000E+04  0.10566000000E+00 0.  1.
        994   -1    0    0    0    0 -0.00000000000E+00 -0.00000000000E+00  0.11368683772E-12  0.17120000000E+03  0.17120000000E+03 0.  0.
         13    1    1    2    0    0 -0.57497000392E+02 -0.97293316223E+01  0.16680406137E+03  0.17670362475E+03  0.10566000000E+00 0.  1.
        994    1    1    2    0    0  0.28867763592E+02 -0.25873734528E+01  0.13245884275E+02  0.17414056313E+03  0.17120000000E+03 0.  0.
        998    1    1    2    0    0  0.28629236800E+02  0.12316705075E+02  0.13199500506E+04  0.13203558121E+04  0.10000000000E+02 0.  1.
</event>
<event>
 5    1  0.1271464E-008  0.3826834E+03  0.7957747E-01  0.3439557E+00
         13   -1    0    0    0    0  0.00000000000E+00  0.00000000000E+00  0.14999999963E+04  0.15000000000E+04  0.10566000000E+00 0.  1.
        994   -1    0    0    0    0 -0.00000000000E+00 -0.00000000000E+00  0.11368683772E-12  0.17120000000E+03  0.17120000000E+03 0.  0.
         13    1    1    2    0    0 -0.18672125491E+02  0.43945724319E+01  0.82582889773E+02  0.84781515583E+02  0.10566000000E+00 0.  1.
        994    1    1    2    0    0 -0.26597228143E+02  0.11085433913E+02  0.55407875490E+01  0.17369640099E+03  0.17120000000E+03 0.  0.
        998    1    1    2    0    0  0.45269353634E+02 -0.15480006345E+02  0.14118763190E+04  0.14127220834E+04  0.10000000000E+02 0.  1.
</event>
<event>
 5    1  0.1271464E-008  0.3828194E+03  0.7957747E-01  0.3438973E+00
         13   -1    0    0    0    0  0.00000000000E+00  0.00000000000E+00  0.14999999963E+04  0.15000000000E+04  0.10566000000E+00 0. -1.
        994   -1    0    0    0    0 -0.00000000000E+00 -0.00000000000E+00  0.11368683772E-12  0.17120000000E+03  0.17120000000E+03 0.  0.
         13    1    1    2    0    0  0.21349535511E+02 -0.13663214193E+02  0.86808256714E+02  0.90433238836E+02  0.10566000000E+00 0. -1.
        994    1    1    2    0    0 -0.42533867568E+02  0.65035076926E+02  0.22981373041E+02  0.18941033401E+03  0.17120000000E+03 0.  0.
        998    1    1    2    0    0  0.21184332057E+02 -0.51371862734E+02  0.13902103665E+04  0.13913564272E+04  0.10000000000E+02 0. -1.
</event>
<event>
 5    1  0.1271464E-008  0.3777240E+03  0.7957747E-01  0.3461129E+00
         13   -1    0    0    0    0  0.00000000000E+00  0.00000000000E+00  0.14999999963E+04  0.15000000000E+04  0.10566000000E+00 0. -1.
        994   -1    0    0    0    0 -0.00000000000E+00 -0.00000000000E+00  0.11368683772E-12  0.17120000000E+03  0.17120000000E+03 0.  0.
         13    1    1    2    0    0  0.77000539301E+01  0.96746267472E+01  0.11981356385E+02  0.17217819202E+02  0.10566000000E+00 0. -1.
        994    1    1    2    0    0 -0.64078564834E+01 -0.12565269101E+02  0.59568843144E+01  0.17188330659E+03  0.17120000000E+03 0.  0.
        998    1    1    2    0    0 -0.12921974468E+01  0.28906423539E+01  0.14820617556E+04  0.14820988742E+04  0.10000000000E+02 0. -1.
</event>
<event>
 5    1  0.1271464E-008  0.3737164E+03  0.7957747E-01  0.3478983E+00
         13   -1    0    0    0    0  0.00000000000E+00  0.00000000000E+00  0.14999999963E+04  0.15000000000E+04  0.10566000000E+00 0. -1.
        994   -1    0    0    0    0 -0.00000000000E+00 -0.00000000000E+00  0.11368683772E-12  0.17120000000E+03  0.17120000000E+03 0.  0.
         13    1    1    2    0    0 -0.21012446494E+02  0.39125867631E+01  0.27727766111E+02  0.35009590406E+02  0.10566000000E+00 0. -1.
        994    1    1    2    0    0  0.18715877457E+02 -0.66964615396E+01  0.86894723087E+01  0.17256904008E+03  0.17120000000E+03 0.  0.
        998    1    1    2    0    0  0.22965690368E+01  0.27838747765E+01  0.14635827579E+04  0.14636213695E+04  0.10000000000E+02 0. -1.
</event>
<event>
 5    1  0.1271464E-008  0.3835988E+03  0.7957747E-01  0.3435637E+00
         13   -1    0    0    0    0  0.00000000000E+00  0.00000000000E+00  0.14999999963E+04  0.15000000000E+04  0.10566000000E+00 0. -1.
        994   -1    0    0    0    0 -0.00000000000E+00 -0.00000000000E+00  0.11368683772E-12  0.17120000000E+03  0.17120000000E+03 0.  0.
         13    1    1    2    0    0 -0.27663913124E+01  0.12675955521E+02  0.34110792964E+02  0.36495069940E+02  0.10566000000E+00 0. -1.
        994    1    1    2    0    0 -0.16606561952E+01 -0.19474411262E+02  0.35904454796E+01  0.17234947569E+03  0.17120000000E+03 0.  0.
        998    1    1    2    0    0  0.44270475076E+01  0.67984557417E+01  0.14622987578E+04  0.14623554544E+04  0.10000000000E+02 0. -1.
</event>
<event>
 5    1  0.1271464E-008  0.3817310E+03  0.7957747E-01  0.3443656E+00
         13   -1    0    0    0    0  0.00000000000E+00  0.00000000000E+00  0.14999999963E+04  0.15000000000E+04  0.10566000000E+00 0.  1.
        994   -1    0    0    0    0 -0.00000000000E+00 -0.00000000000E+00  0.11368683772E-12  0.17120000000E+03  0.17120000000E+03 0.  0.
         13    1    1    2    0    0 -0.27438299476E+01 -0.29994429135E+02  0.13053678360E+03  0.13396662800E+03  0.10566000000E+00 0.  1.
        994    1    1    2    0    0 -0.38222206532E+01  0.27057111388E+02  0.57477866777E+01  0.17346231204E+03  0.17120000000E+03 0.  0.
        998    1    1    2    0    0  0.65660506008E+01  0.29373177466E+01  0.13637154260E+04  0.13637710600E+04  0.10000000000E+02 0.  1.
</event>
<event>
 5    1  0.1271464E-008  0.3838551E+03  0.7957747E-01  0.3434542E+00
         13   -1    0    0    0    0  0.00000000000E+00  0.00000000000E+00  0.14999999963E+04  0.15000000000E+04  0.10566000000E+00 0. -1.
        994   -1    0    0    0    0 -0.00000000000E+00 -0.00000000000E+00  0.11368683772E-12  0.17120000000E+03  0.17120000000E+03 0.  0.
         13    1    1    2    0    0  0.21115543667E+02 -0.53400623810E+01  0.11637519886E+03  0.11839586363E+03  0.10566000000E+00 0. -1.
        994    1    1    2    0    0 -0.98858518983E+00  0.75971709358E+01  0.23933817781E+01  0.17138804679E+03  0.17120000000E+03 0.  0.
        998    1    1    2    0    0 -0.20126958477E+02 -0.22571085548E+01  0.13812314156E+04  0.13814160896E+04  0.10000000000E+02 0. -1.
</event>
<event>
 5    1  0.1271464E-008  0.3850861E+03  0.7957747E-01  0.3429307E+00
         13   -1    0    0    0    0  0.00000000000E+00  0.00000000000E+00  0.14999999963E+04  0.15000000000E+04  0.10566000000E+00 0.  1.
        994   -1    0    0    0    0 -0.00000000000E+00 -0.00000000000E+00  0.11368683772E-12  0.17120000000E+03  0.17120000000E+03 0.  0.
         13    1    1    2    0    0  0.74874542089E+01  0.10405440890E+02  0.53042774931E+02  0.54569976242E+02  0.10566000000E+00 0.  1.
        994    1    1    2    0    0 -0.54731232918E+01 -0.14647323749E+01  0.16929417759E+01  0.17130209156E+03  0.17120000000E+03 0.  0.
        998    1    1    2    0    0 -0.20143309171E+01 -0.89407085154E+01  0.14452642796E+04  0.14453279322E+04  0.10000000000E+02 0.  1.
</event>
<event>
 5    1  0.1271464E-008  0.3799783E+03  0.7957747E-01  0.3451253E+00
         13   -1    0    0    0    0  0.00000000000E+00  0.00000000000E+00  0.14999999963E+04  0.15000000000E+04  0.10566000000E+00 0.  1.
        994   -1    0    0    0    0 -0.00000000000E+00 -0.00000000000E+00  0.11368683772E-12  0.17120000000E+03  0.17120000000E+03 0.  0.
         13    1    1    2    0    0  0.20207242920E+02  0.16999730762E+02  0.75234785211E+02  0.79734607180E+02  0.10566000000E+00 0.  1.
        994    1    1    2    0    0 -0.27548276310E+02 -0.25641925968E+02  0.88939492067E+01  0.17551341324E+03  0.17120000000E+03 0.  0.
        998    1    1    2    0    0  0.73410333897E+01  0.86421952065E+01  0.14158712619E+04  0.14159519796E+04  0.10000000000E+02 0.  1.
</event>
<event>
 5    1  0.1271464E-008  0.3851364E+03  0.7957747E-01  0.3429094E+00
         13   -1    0    0    0    0  0.00000000000E+00  0.00000000000E+00  0.14999999963E+04  0.15000000000E+04  0.10566000000E+00 0. -1.
        994   -1    0    0    0    0 -0.00000000000E+00 -0.00000000000E+00  0.11368683772E-12  0.17120000000E+03  0.17120000000E+03 0.  0.
         13    1    1    2    0    0  0.38325140894E+01 -0.15679630371E+02  0.90500726868E+02  0.91928949197E+02  0.10566000000E+00 0. -1.
        994    1    1    2    0    0 -0.59341314448E+01 -0.13059426789E+01  0.16838301703E+01  0.17131606663E+03  0.17120000000E+03 0.  0.
        998    1    1    2    0    0  0.21016173554E+01  0.16985573050E+02  0.14078154392E+04  0.14079549842E+04  0.10000000000E+02 0. -1.
</event>
<event>
 5    1  0.1271464E-008  0.3814601E+03  0.7957747E-01  0.3444825E+00
         13   -1    0    0    0    0  0.00000000000E+00  0.00000000000E+00  0.14999999963E+04  0.15000000000E+04  0.10566000000E+00 0. -1.
        994   -1    0    0    0    0 -0.00000000000E+00 -0.00000000000E+00  0.11368683772E-12  0.17120000000E+03  0.17120000000E+03 0.  0.
         13    1    1    2    0    0 -0.86007575069E+01 -0.20457149286E+02  0.71885433024E+02  0.75232935818E+02  0.10566000000E+00 0. -1.
        994    1    1    2    0    0 -0.28877958798E+01  0.14691776075E+02  0.41440897650E+01  0.17190346456E+03  0.17120000000E+03 0.  0.
        998    1    1    2    0    0  0.11488553387E+02  0.57653732111E+01  0.14239704735E+04  0.14240635996E+04  0.10000000000E+02 0. -1.
</event>
<event>
 5    1  0.1271464E-008  0.3846603E+03  0.7957747E-01  0.3431114E+00
         13   -1    0    0    0    0  0.00000000000E+00  0.00000000000E+00  0.14999999963E+04  0.15000000000E+04  0.10566000000E+00 0.  1.
        994   -1    0    0    0    0 -0.00000000000E+00 -0.00000000000E+00  0.11368683772E-12  0.17120000000E+03  0.17120000000E+03 0.  0.
         13    1    1    2    0    0 -0.10838907307E+02  0.15262681864E+02  0.10008120098E+03  0.10181694026E+03  0.10566000000E+00 0.  1.
        994    1    1    2    0    0  0.33381205761E+01 -0.75935069261E+01  0.20254595147E+01  0.17141279673E+03  0.17120000000E+03 0.  0.
        998    1    1    2    0    0  0.75007867306E+01 -0.76691749383E+01  0.13978933358E+04  0.13979702630E+04  0.10000000000E+02 0.  1.
</event>
<event>
 5    1  0.1271464E-008  0.3772320E+03  0.7957747E-01  0.3463300E+00
         13   -1    0    0    0    0  0.00000000000E+00  0.00000000000E+00  0.14999999963E+04  0.15000000000E+04  0.10566000000E+00 0. -1.
        994   -1    0    0    0    0 -0.00000000000E+00 -0.00000000000E+00  0.11368683772E-12  0.17120000000E+03  0.17120000000E+03 0.  0.
         13    1    1    2    0    0 -0.22473598983E+02 -0.37673790778E+02  0.15155732192E+03  0.15777835769E+03  0.10566000000E+00 0. -1.
        994    1    1    2    0    0  0.27379126715E+02  0.40220019554E+02  0.13565684253E+02  0.17849575441E+03  0.17120000000E+03 0.  0.
        998    1    1    2    0    0 -0.49055277320E+01 -0.25462287754E+01  0.13348769901E+04  0.13349258879E+04  0.10000000000E+02 0. -1.
</event>
<event>
 5    1  0.1271464E-008  0.3750757E+03  0.7957747E-01  0.3472884E+00
         13   -1    0    0    0    0  0.00000000000E+00  0.00000000000E+00  0.14999999963E+04  0.15000000000E+04  0.10566000000E+00 0. -1.
        994   -1    0    0    0    0 -0.00000000000E+00 -0.00000000000E+00  0.11368683772E-12  0.17120000000E+03  0.17120000000E+03 0.  0.
         13    1    1    2    0    0 -0.14039095244E+02  0.11719670555E+02  0.62017910750E+01  0.19311143150E+02  0.10566000000E+00 0. -1.
        994    1    1    2    0    0  0.11540984256E+02 -0.47172262678E+01  0.14201694824E+02  0.17223987540E+03  0.17120000000E+03 0.  0.
        998    1    1    2    0    0  0.24981109880E+01 -0.70024442869E+01  0.14795965104E+04  0.14796489815E+04  0.10000000000E+02 0. -1.
</event>
<event>
 5    1  0.1271464E-008  0.3728103E+03  0.7957747E-01  0.3483074E+00
         13   -1    0    0    0    0  0.00000000000E+00  0.00000000000E+00  0.14999999963E+04  0.15000000000E+04  0.10566000000E+00 0.  1.
        994   -1    0    0    0    0 -0.00000000000E+00 -0.00000000000E+00  0.11368683772E-12  0.17120000000E+03  0.17120000000E+03 0.  0.
         13    1    1    2    0    0 -0.21794650150E+02 -0.30278756654E+02  0.82020915880E+02  0.90106890333E+02  0.10566000000E+00 0.  1.
        994    1    1    2    0    0  0.24099664867E+02  0.28722347350E+02  0.12636841273E+02  0.17571254036E+03  0.17120000000E+03 0.  0.
        998    1    1    2    0    0 -0.23050147178E+01  0.15564093034E+01  0.14053422391E+04  0.14053805693E+04  0.10000000000E+02 0.  1.
</event>
<event>
 5    1  0.1271464E-008  0.3854157E+03  0.7957747E-01  0.3427911E+00
         13   -1    0    0    0    0  0.00000000000E+00  0.00000000000E+00  0.14999999963E+04  0.15000000000E+04  0.10566000000E+00 0.  1.
        994   -1    0    0    0    0 -0.00000000000E+00 -0.00000000000E+00  0.11368683772E-12  0.17120000000E+03  0.17120000000E+03 0.  0.
         13    1    1    2    0    0 -0.40161228159E+02  0.51249851265E+01  0.34431386508E+02  0.53148106841E+02  0.10566000000E+00 0.  1.
        994    1    1    2    0    0  0.36123412850E+02 -0.63412848074E+01  0.24323481015E+02  0.17676590332E+03  0.17120000000E+03 0.  0.
        998    1    1    2    0    0  0.40378153092E+01  0.12162996809E+01  0.14412451288E+04  0.14412859898E+04  0.10000000000E+02 0.  1.
</event>
<event>
 5    1  0.2614949E-008  0.3859894E+03  0.7957747E-01  0.3425487E+00
         13   -1    0    0    0    0  0.00000000000E+00  0.00000000000E+00  0.14999999963E+04  0.15000000000E+04  0.10566000000E+00 0. -1.
        994   -1    0    0    0    0 -0.00000000000E+00 -0.00000000000E+00  0.11368683772E-12  0.17120000000E+03  0.17120000000E+03 0.  0.
         13    1    1    2    0    0  0.17113932612E+01 -0.12661623584E+02  0.74909064244E+02  0.75990951096E+02  0.10566000000E+00 0. -1.
        994    1    1    2    0    0 -0.37728818913E+01  0.38616709204E+01  0.12352422566E+01  0.17128955883E+03  0.17120000000E+03 0.  0.
        998    1    1    2    0    0  0.20614886301E+01  0.87999526634E+01  0.14238556898E+04  0.14239194901E+04  0.10000000000E+02 0. -1.
</event>
<event>
 5    1  0.1271464E-008  0.3751873E+03  0.7957747E-01  0.3472386E+00
         13   -1    0    0    0    0  0.00000000000E+00  0.00000000000E+00  0.14999999963E+04  0.15000000000E+04  0.10566000000E+00 0. -1.
        994   -1    0    0    0    0 -0.00000000000E+00 -0.00000000000E+00  0.11368683772E-12  0.17120000000E+03  0.17120000000E+03 0.  0.
         13    1    1    2    0    0 -0.17179084868E+02 -0.34863969798E+02  0.12341466642E+03  0.12939014027E+03  0.10566000000E+00 0. -1.
        994    1    1    2    0    0  0.15401460631E+02 -0.32049402803E+01  0.74237283061E+01  0.17208145854E+03  0.17120000000E+03 0.  0.
        998    1    1    2    0    0  0.17776242372E+01  0.38068910079E+02  0.13691616015E+04  0.13697284012E+04  0.10000000000E+02 0. -1.
</event>
<event>
 5    1  0.1271464E-008  0.3742795E+03  0.7957747E-01  0.3476451E+00
         13   -1    0    0    0    0  0.00000000000E+00  0.00000000000E+00  0.14999999963E+04  0.15000000000E+04  0.10566000000E+00 0.  1.
        994   -1    0    0    0    0 -0.00000000000E+00 -0.00000000000E+00  0.11368683772E-12  0.17120000000E+03  0.17120000000E+03 0.  0.
         13    1    1    2    0    0  0.40310469582E+02 -0.30839828524E+02  0.17981364783E+03  0.18683947145E+03  0.10566000000E+00 0.  1.
        994    1    1    2    0    0  0.70633926633E+00  0.53322114939E+02  0.16801716035E+02  0.18009854113E+03  0.17120000000E+03 0.  0.
        998    1    1    2    0    0 -0.41016808848E+02 -0.22482286414E+02  0.13033846324E+04  0.13042619874E+04  0.10000000000E+02 0.  1.
</event>
<event>
 5    1  0.1271464E-008  0.3823376E+03  0.7957747E-01  0.3441043E+00
         13   -1    0    0    0    0  0.00000000000E+00  0.00000000000E+00  0.14999999963E+04  0.15000000000E+04  0.10566000000E+00 0.  1.
        994   -1    0    0    0    0 -0.00000000000E+00 -0.00000000000E+00  0.11368683772E-12  0.17120000000E+03  0.17120000000E+03 0.  0.
         13    1    1    2    0    0 -0.10811651007E+02  0.56447219225E+01  0.24963526434E+02  0.27783871205E+02  0.10566000000E+00 0.  1.
        994    1    1    2    0    0 -0.17685182549E+01  0.37510183553E+01  0.30148004512E+01  0.17127675504E+03  0.17120000000E+03 0.  0.
        998    1    1    2    0    0  0.12580169262E+02 -0.93957402778E+01  0.14720216694E+04  0.14721393738E+04  0.10000000000E+02 0.  1.
</event>
<event>
 5    1  0.1500770E-008  0.3859706E+03  0.7957747E-01  0.3425566E+00
         13   -1    0    0    0    0  0.00000000000E+00  0.00000000000E+00  0.14999999963E+04  0.15000000000E+04  0.10566000000E+00 0. -1.
        994   -1    0    0    0    0 -0.00000000000E+00 -0.00000000000E+00  0.11368683772E-12  0.17120000000E+03  0.17120000000E+03 0.  0.
         13    1    1    2    0    0 -0.12694460284E+02  0.47161821646E+01  0.76551010398E+02  0.77739694192E+02  0.10566000000E+00 0. -1.
        994    1    1    2    0    0  0.15277461269E+02 -0.31948494560E+01  0.19480510028E+01  0.17192103649E+03  0.17120000000E+03 0.  0.
        998    1    1    2    0    0 -0.25830009854E+01 -0.15213327086E+01  0.14215009349E+04  0.14215392693E+04  0.10000000000E+02 0. -1.
</event>
<event>
 5    1  0.1271464E-008  0.3806384E+03  0.7957747E-01  0.3448384E+00
         13   -1    0    0    0    0  0.00000000000E+00  0.00000000000E+00  0.14999999963E+04  0.15000000000E+04  0.10566000000E+00 0. -1.
        994   -1    0    0    0    0 -0.00000000000E+00 -0.00000000000E+00  0.11368683772E-12  0.17120000000E+03  0.17120000000E+03 0.  0.
         13    1    1    2    0    0 -0.37205216621E+01 -0.38267829995E+02  0.22102293765E+03  0.22434219226E+03  0.10566000000E+00 0. -1.
        994    1    1    2    0    0  0.10117388347E+02  0.48701584781E+01  0.42319448216E+01  0.17162001441E+03  0.17120000000E+03 0.  0.
        998    1    1    2    0    0 -0.63968666848E+01  0.33397671517E+02  0.12747451138E+04  0.12752377933E+04  0.10000000000E+02 0. -1.
</event>
<event>
 5    1  0.1271464E-008  0.3790912E+03  0.7957747E-01  0.3455125E+00
         13   -1    0    0    0    0  0.00000000000E+00  0.00000000000E+00  0.14999999963E+04  0.15000000000E+04  0.10566000000E+00 0.  1.
        994   -1    0    0    0    0 -0.00000000000E+00 -0.00000000000E+00  0.11368683772E-12  0.17120000000E+03  0.17120000000E+03 0.  0.
         13    1    1    2    0    0 -0.11165410354E+02  0.42776103357E+02  0.18335954901E+03  0.18861388280E+03  0.10566000000E+00 0.  1.
        994    1    1    2    0    0  0.14027874765E+02 -0.44992789611E+02  0.12076360970E+02  0.17797868098E+03  0.17120000000E+03 0.  0.
        998    1    1    2    0    0 -0.28624644106E+01  0.22166862535E+01  0.13045640863E+04  0.13046074362E+04  0.10000000000E+02 0.  1.
</event>
<event>
 5    1  0.1271464E-008  0.3795698E+03  0.7957747E-01  0.3453034E+00
         13   -1    0    0    0    0  0.00000000000E+00  0.00000000000E+00  0.14999999963E+04  0.15000000000E+04  0.10566000000E+00 0. -1.
        994   -1    0    0    0    0 -0.00000000000E+00 -0.00000000000E+00  0.11368683772E-12  0.17120000000E+03  0.17120000000E+03 0.  0.
         13    1    1    2    0    0  0.15279626610E+02 -0.20134248501E+02  0.70169569313E+02  0.74583071629E+02  0.10566000000E+00 0. -1.
        994    1    1    2    0    0 -0.89942682002E+01  0.20157968387E+02  0.59833035161E+01  0.17272081655E+03  0.17120000000E+03 0.  0.
        998    1    1    2    0    0 -0.62853584099E+01 -0.23719886780E-01  0.14238471234E+04  0.14238961118E+04  0.10000000000E+02 0. -1.
</event>
<event>
 5    1  0.1271464E-008  0.3714432E+03  0.7957747E-01  0.3489285E+00
         13   -1    0    0    0    0  0.00000000000E+00  0.00000000000E+00  0.14999999963E+04  0.15000000000E+04  0.10566000000E+00 0. -1.
        994   -1    0    0    0    0 -0.00000000000E+00 -0.00000000000E+00  0.11368683772E-12  0.17120000000E+03  0.17120000000E+03 0.  0.
         13    1    1    2    0    0 -0.18945129908E+02  0.60648740084E+02  0.20370234351E+03  0.21338191942E+03  0.10566000000E+00 0. -1.
        994    1    1    2    0    0 -0.11714256213E+02 -0.34351798673E+01  0.12227754188E+02  0.17206970167E+03  0.17120000000E+03 0.  0.
        998    1    1    2    0    0  0.30659386121E+02 -0.57213560217E+02  0.12840698986E+04  0.12857483789E+04  0.10000000000E+02 0. -1.
</event>
<event>
 5    1  0.1271464E-008  0.3848112E+03  0.7957747E-01  0.3430473E+00
         13   -1    0    0    0    0  0.00000000000E+00  0.00000000000E+00  0.14999999963E+04  0.15000000000E+04  0.10566000000E+00 0. -1.
        994   -1    0    0    0    0 -0.00000000000E+00 -0.00000000000E+00  0.11368683772E-12  0.17120000000E+03  0.17120000000E+03 0.  0.
         13    1    1    2    0    0 -0.18167233545E+02  0.68527498606E+01  0.10903674199E+03  0.11075211430E+03  0.10566000000E+00 0. -1.
        994    1    1    2    0    0  0.97982882450E+01 -0.97397080788E+01  0.23522390050E+01  0.17177264449E+03  0.17120000000E+03 0.  0.
        998    1    1    2    0    0  0.83689452998E+01  0.28869582182E+01  0.13886110153E+04  0.13886752412E+04  0.10000000000E+02 0. -1.
</event>
<event>
 5    1  0.1271464E-008  0.3857201E+03  0.7957747E-01  0.3426624E+00
         13   -1    0    0    0    0  0.00000000000E+00  0.00000000000E+00  0.14999999963E+04  0.15000000000E+04  0.10566000000E+00 0.  1.
        994   -1    0    0    0    0 -0.00000000000E+00 -0.00000000000E+00  0.11368683772E-12  0.17120000000E+03  0.17120000000E+03 0.  0.
         13    1    1    2    0    0 -0.60773245018E+01 -0.13547094601E+02  0.85617842248E+02  0.86895821075E+02  0.10566000000E+00 0.  1.
        994    1    1    2    0    0  0.49115794722E+01  0.10895283748E+02  0.17418174376E+01  0.17162547815E+03  0.17120000000E+03 0.  0.
        998    1    1    2    0    0  0.11657450296E+01  0.26518108531E+01  0.14126403366E+04  0.14126787008E+04  0.10000000000E+02 0.  1.
</event>
<event>
 5    1  0.1940835E-008  0.3867675E+03  0.7957747E-01  0.3422211E+00
         13   -1    0    0    0    0  0.00000000000E+00  0.00000000000E+00  0.14999999963E+04  0.15000000000E+04  0.10566000000E+00 0. -1.
        994   -1    0    0    0    0 -0.00000000000E+00 -0.00000000000E+00  0.11368683772E-12  0.17120000000E+03  0.17120000000E+03 0.  0.
         13    1    1    2    0    0 -0.64319244461E+01  0.98887476959E+01  0.67995832672E+02  0.69011603429E+02  0.10566000000E+00 0. -1.
        994    1    1    2    0    0  0.49209336538E+02 -0.24092467853E+02  0.10633518846E+02  0.18006809138E+03  0.17120000000E+03 0.  0.
        998    1    1    2    0    0 -0.42777412092E+02  0.14203720157E+02  0.14213706448E+04  0.14221203052E+04  0.10000000000E+02 0. -1.
</event>
<event>
 5    1  0.1271464E-008  0.3810263E+03  0.7957747E-01  0.3446702E+00
         13   -1    0    0    0    0  0.00000000000E+00  0.00000000000E+00  0.14999999963E+04  0.15000000000E+04  0.10566000000E+00 0.  1.
        994   -1    0    0    0    0 -0.00000000000E+00 -0.00000000000E+00  0.11368683772E-12  0.17120000000E+03  0.17120000000E+03 0.  0.
         13    1    1    2    0    0 -0.33025083653E+02  0.14440494813E+02  0.20211049334E+03  0.20529940751E+03  0.10566000000E+00 0.  1.
        994    1    1    2    0    0  0.91746635550E+01  0.68564314649E+01  0.40531590915E+01  0.17163057188E+03  0.17120000000E+03 0.  0.
        998    1    1    2    0    0  0.23850420098E+02 -0.21296926277E+02  0.12938363438E+04  0.12942700206E+04  0.10000000000E+02 0.  1.
</event>
<event>
 5    1  0.1271464E-008  0.3747176E+03  0.7957747E-01  0.3474487E+00
         13   -1    0    0    0    0  0.00000000000E+00  0.00000000000E+00  0.14999999963E+04  0.15000000000E+04  0.10566000000E+00 0. -1.
        994   -1    0    0    0    0 -0.00000000000E+00 -0.00000000000E+00  0.11368683772E-12  0.17120000000E+03  0.17120000000E+03 0.  0.
         13    1    1    2    0    0  0.41335248749E+02  0.20730361587E+02  0.22757193099E+03  0.23222262082E+03  0.10566000000E+00 0. -1.
        994    1    1    2    0    0  0.11521401093E+02  0.41628170983E+02  0.13198167621E+02  0.17705727585E+03  0.17120000000E+03 0.  0.
        998    1    1    2    0    0 -0.52856649842E+02 -0.62358532570E+02  0.12592298977E+04  0.12619201033E+04  0.10000000000E+02 0. -1.
</event>
<event>
 5    1  0.1271464E-008  0.3712358E+03  0.7957747E-01  0.3490231E+00
         13   -1    0    0    0    0  0.00000000000E+00  0.00000000000E+00  0.14999999963E+04  0.15000000000E+04  0.10566000000E+00 0.  1.
        994   -1    0    0    0    0 -0.00000000000E+00 -0.00000000000E+00  0.11368683772E-12  0.17120000000E+03  0.17120000000E+03 0.  0.
         13    1    1    2    0    0 -0.18265330961E+02 -0.14369655895E+02  0.18023977483E+02  0.29410614648E+02  0.10566000000E+00 0.  1.
        994    1    1    2    0    0  0.16038872256E+02  0.19502277825E+02  0.13835638503E+02  0.17360428899E+03  0.17120000000E+03 0.  0.
        998    1    1    2    0    0  0.22264587053E+01 -0.51326219300E+01  0.14681403803E+04  0.14681850964E+04  0.10000000000E+02 0.  1.
</event>
<event>
 5    1  0.1289453E-008  0.3859461E+03  0.7957747E-01  0.3425669E+00
         13   -1    0    0    0    0  0.00000000000E+00  0.00000000000E+00  0.14999999963E+04  0.15000000000E+04  0.10566000000E+00 0. -1.
        994   -1    0    0    0    0 -0.00000000000E+00 -0.00000000000E+00  0.11368683772E-12  0.17120000000E+03  0.17120000000E+03 0.  0.
         13    1    1    2    0    0  0.95828494481E+01  0.79979525985E+01  0.67340153474E+02  0.68487266577E+02  0.10566000000E+00 0. -1.
        994    1    1    2    0    0 -0.63427084741E+01 -0.67951881136E+01  0.14444658747E+01  0.17145824860E+03  0.17120000000E+03 0.  0.
        998    1    1    2    0    0 -0.32401409740E+01 -0.12027644850E+01  0.14312153769E+04  0.14312544848E+04  0.10000000000E+02 0. -1.
</event>
<event>
 5    1  0.1730264E-008  0.3850357E+03  0.7957747E-01  0.3429521E+00
         13   -1    0    0    0    0  0.00000000000E+00  0.00000000000E+00  0.14999999963E+04  0.15000000000E+04  0.10566000000E+00 0. -1.
        994   -1    0    0    0    0 -0.00000000000E+00 -0.00000000000E+00  0.11368683772E-12  0.17120000000E+03  0.17120000000E+03 0.  0.
         13    1    1    2    0    0 -0.10147767049E+02  0.12617326846E+02  0.85235527524E+02  0.86759901044E+02  0.10566000000E+00 0. -1.
        994    1    1    2    0    0  0.24260478747E+01 -0.34228492958E+01  0.16703046537E+01  0.17125954433E+03  0.17120000000E+03 0.  0.
        998    1    1    2    0    0  0.77217191745E+01 -0.91944775498E+01  0.14130941641E+04  0.14131805546E+04  0.10000000000E+02 0. -1.
</event>
<event>
 5    1  0.1271464E-008  0.3766898E+03  0.7957747E-01  0.3465700E+00
         13   -1    0    0    0    0  0.00000000000E+00  0.00000000000E+00  0.14999999963E+04  0.15000000000E+04  0.10566000000E+00 0. -1.
        994   -1    0    0    0    0 -0.00000000000E+00 -0.00000000000E+00  0.11368683772E-12  0.17120000000E+03  0.17120000000E+03 0.  0.
         13    1    1    2    0    0  0.43062902194E+01  0.17507576593E+02  0.25206341691E+02  0.30990808300E+02  0.10566000000E+00 0. -1.
        994    1    1    2    0    0 -0.64783773696E+01 -0.16231878770E+02  0.68465799506E+01  0.17222589503E+03  0.17120000000E+03 0.  0.
        998    1    1    2    0    0  0.21720871502E+01 -0.12756978234E+01  0.14679470746E+04  0.14679832967E+04  0.10000000000E+02 0. -1.
</event>
<event>
 5    1  0.1271464E-008  0.3792391E+03  0.7957747E-01  0.3454478E+00
         13   -1    0    0    0    0  0.00000000000E+00  0.00000000000E+00  0.14999999963E+04  0.15000000000E+04  0.10566000000E+00 0.  1.
        994   -1    0    0    0    0 -0.00000000000E+00 -0.00000000000E+00  0.11368683772E-12  0.17120000000E+03  0.17120000000E+03 0.  0.
         13    1    1    2    0    0 -0.22369615914E+02 -0.59272500925E+00  0.54301357149E+02  0.58731589382E+02  0.10566000000E+00 0.  1.
        994    1    1    2    0    0  0.11304072537E+02  0.15693844785E+02  0.57723759749E+01  0.17238572779E+03  0.17120000000E+03 0.  0.
        998    1    1    2    0    0  0.11065543376E+02 -0.15101119776E+02  0.14399262632E+04  0.14400826828E+04  0.10000000000E+02 0.  1.
</event>
<event>
 5    1  0.1271464E-008  0.3753962E+03  0.7957747E-01  0.3471453E+00
         13   -1    0    0    0    0  0.00000000000E+00  0.00000000000E+00  0.14999999963E+04  0.15000000000E+04  0.10566000000E+00 0. -1.
        994   -1    0    0    0    0 -0.00000000000E+00 -0.00000000000E+00  0.11368683772E-12  0.17120000000E+03  0.17120000000E+03 0.  0.
         13    1    1    2    0    0 -0.42348828610E+00  0.16976347522E+02  0.20037472129E+02  0.26265703320E+02  0.10566000000E+00 0. -1.
        994    1    1    2    0    0 -0.95901574622E+01 -0.78370309046E+00  0.67897475106E+01  0.17160456282E+03  0.17120000000E+03 0.  0.
        998    1    1    2    0    0  0.10013645748E+02 -0.16192644432E+02  0.14731727766E+04  0.14733297339E+04  0.10000000000E+02 0. -1.
</event>
<event>
 5    1  0.1271464E-008  0.3720431E+03  0.7957747E-01  0.3486554E+00
         13   -1    0    0    0    0  0.00000000000E+00  0.00000000000E+00  0.14999999963E+04  0.15000000000E+04  0.10566000000E+00 0.  1.
        994   -1    0    0    0    0 -0.00000000000E+00 -0.00000000000E+00  0.11368683772E-12  0.17120000000E+03  0.17120000000E+03 0.  0.
         13    1    1    2    0    0 -0.32075286148E+02 -0.14512165572E+02  0.47900527197E+02  0.59446602938E+02  0.10566000000E+00 0.  1.
        994    1    1    2    0    0  0.14538620640E+02  0.81367305973E+01  0.13001196813E+02  0.17249941737E+03  0.17120000000E+03 0.  0.
        998    1    1    2    0    0  0.17536665507E+02  0.63754349743E+01  0.14390982723E+04  0.14392539797E+04  0.10000000000E+02 0.  1.
</event>
<event>
 5    1  0.1271464E-008  0.3760064E+03  0.7957747E-01  0.3468734E+00
         13   -1    0    0    0    0  0.00000000000E+00  0.00000000000E+00  0.14999999963E+04  0.15000000000E+04  0.10566000000E+00 0.  1.
        994   -1    0    0    0    0 -0.00000000000E+00 -0.00000000000E+00  0.11368683772E-12  0.17120000000E+03  0.17120000000E+03 0.  0.
         13    1    1    2    0    0  0.51475036666E+02  0.50430109782E+01  0.19328259169E+03  0.20008318963E+03  0.10566000000E+00 0.  1.
        994    1    1    2    0    0 -0.48545149224E+02  0.52905240831E+01  0.14284308987E+02  0.17860039933E+03  0.17120000000E+03 0.  0.
        998    1    1    2    0    0 -0.29298874423E+01 -0.10333535061E+02  0.12924330956E+04  0.12925164110E+04  0.10000000000E+02 0.  1.
</event>
<event>
 5    1  0.1271464E-008  0.3837687E+03  0.7957747E-01  0.3434911E+00
         13   -1    0    0    0    0  0.00000000000E+00  0.00000000000E+00  0.14999999963E+04  0.15000000000E+04  0.10566000000E+00 0.  1.
        994   -1    0    0    0    0 -0.00000000000E+00 -0.00000000000E+00  0.11368683772E-12  0.17120000000E+03  0.17120000000E+03 0.  0.
         13    1    1    2    0    0  0.11099128630E+02 -0.12738702506E+02  0.62289893239E+02  0.64540740325E+02  0.10566000000E+00 0.  1.
        994    1    1    2    0    0 -0.83592002899E+01  0.10625555373E+02  0.28464357937E+01  0.17175657441E+03  0.17120000000E+03 0.  0.
        998    1    1    2    0    0 -0.27399283402E+01  0.21131471336E+01  0.14348636672E+04  0.14349026853E+04  0.10000000000E+02 0.  1.
</event>
<event>
 5    1  0.1271464E-008  0.3820831E+03  0.7957747E-01  0.3442138E+00
         13   -1    0    0    0    0  0.00000000000E+00  0.00000000000E+00  0.14999999963E+04  0.15000000000E+04  0.10566000000E+00 0.  1.
        994   -1    0    0    0    0 -0.00000000000E+00 -0.00000000000E+00  0.11368683772E-12  0.17120000000E+03  0.17120000000E+03 0.  0.
         13    1    1    2    0    0 -0.40148912773E+01 -0.18127590028E+02  0.54187407729E+02  0.57280146583E+02  0.10566000000E+00 0.  1.
        994    1    1    2    0    0  0.53084089254E+01  0.14009450711E+02  0.38308127738E+01  0.17189694308E+03  0.17120000000E+03 0.  0.
        998    1    1    2    0    0 -0.12935176481E+01  0.41181393174E+01  0.14419817758E+04  0.14420229103E+04  0.10000000000E+02 0.  1.
</event>
<event>
 5    1  0.1271464E-008  0.3841189E+03  0.7957747E-01  0.3433418E+00
         13   -1    0    0    0    0  0.00000000000E+00  0.00000000000E+00  0.14999999963E+04  0.15000000000E+04  0.10566000000E+00 0. -1.
        994   -1    0    0    0    0 -0.00000000000E+00 -0.00000000000E+00  0.11368683772E-12  0.17120000000E+03  0.17120000000E+03 0.  0.
         13    1    1    2    0    0 -0.19529172895E+02  0.62983157704E+01  0.10783939867E+03  0.10977433418E+03  0.10566000000E+00 0. -1.
        994    1    1    2    0    0  0.37666223264E+01 -0.31354335516E+01  0.21474628931E+01  0.17128359520E+03  0.17120000000E+03 0.  0.
        998    1    1    2    0    0  0.15762550569E+02 -0.31628822188E+01  0.13900131347E+04  0.13901420706E+04  0.10000000000E+02 0. -1.
</event>
<event>
 5    1  0.1271464E-008  0.3746149E+03  0.7957747E-01  0.3474947E+00
         13   -1    0    0    0    0  0.00000000000E+00  0.00000000000E+00  0.14999999963E+04  0.15000000000E+04  0.10566000000E+00 0.  1.
        994   -1    0    0    0    0 -0.00000000000E+00 -0.00000000000E+00  0.11368683772E-12  0.17120000000E+03  0.17120000000E+03 0.  0.
         13    1    1    2    0    0 -0.56004191873E+02 -0.36638219433E+02  0.39807866037E+03  0.40366503395E+03  0.10566000000E+00 0.  1.
        994    1    1    2    0    0  0.17454296994E+02  0.23831172863E+01  0.79335766800E+01  0.17228671850E+03  0.17120000000E+03 0.  0.
        998    1    1    2    0    0  0.38549894878E+02  0.34255102146E+02  0.10939877592E+04  0.10952482476E+04  0.10000000000E+02 0.  1.
</event>
<event>
 5    1  0.1271464E-008  0.3728064E+03  0.7957747E-01  0.3483092E+00
         13   -1    0    0    0    0  0.00000000000E+00  0.00000000000E+00  0.14999999963E+04  0.15000000000E+04  0.10566000000E+00 0.  1.
        994   -1    0    0    0    0 -0.00000000000E+00 -0.00000000000E+00  0.11368683772E-12  0.17120000000E+03  0.17120000000E+03 0.  0.
         13    1    1    2    0    0  0.59520890261E+02 -0.22898937636E+02  0.15142831591E+03  0.16430959724E+03  0.10566000000E+00 0.  1.
        994    1    1    2    0    0 -0.48862287159E+02  0.18226678982E+02  0.22095838545E+02  0.18032581904E+03  0.17120000000E+03 0.  0.
        998    1    1    2    0    0 -0.10658603102E+02  0.46722586544E+01  0.13264758418E+04  0.13265645837E+04  0.10000000000E+02 0.  1.
</event>
<event>
 5    1  0.1271464E-008  0.3758250E+03  0.7957747E-01  0.3469541E+00
         13   -1    0    0    0    0  0.00000000000E+00  0.00000000000E+00  0.14999999963E+04  0.15000000000E+04  0.10566000000E+00 0. -1.
        994   -1    0    0    0    0 -0.00000000000E+00 -0.00000000000E+00  0.11368683772E-12  0.17120000000E+03  0.17120000000E+03 0.  0.
         13    1    1    2    0    0  0.50888591027E+02  0.57132539024E+02  0.39441700499E+03  0.40176928791E+03  0.10566000000E+00 0. -1.
        994    1    1    2    0    0 -0.80535414222E+02 -0.17492536338E+02  0.29638073458E+02  0.19230131869E+03  0.17120000000E+03 0.  0.
        998    1    1    2    0    0  0.29646823195E+02 -0.39640002686E+02  0.10759449178E+04  0.10771293934E+04  0.10000000000E+02 0. -1.
</event>
<event>
 5    1  0.1271464E-008  0.3859597E+03  0.7957747E-01  0.3425612E+00
         13   -1    0    0    0    0  0.00000000000E+00  0.00000000000E+00  0.14999999963E+04  0.15000000000E+04  0.10566000000E+00 0.  1.
        994   -1    0    0    0    0 -0.00000000000E+00 -0.00000000000E+00  0.11368683772E-12  0.17120000000E+03  0.17120000000E+03 0.  0.
         13    1    1    2    0    0  0.84483115136E+01  0.99154003030E+01  0.71974800218E+02  0.73144187473E+02  0.10566000000E+00 0.  1.
        994    1    1    2    0    0 -0.69695274378E+00 -0.16275162984E+02  0.20248875708E+01  0.17198519367E+03  0.17120000000E+03 0.  0.
        998    1    1    2    0    0 -0.77513587698E+01  0.63597626809E+01  0.14260003085E+04  0.14260706189E+04  0.10000000000E+02 0.  1.
</event>
<event>
 5    1  0.1271464E-008  0.3689881E+03  0.7957747E-01  0.3500554E+00
         13   -1    0    0    0    0  0.00000000000E+00  0.00000000000E+00  0.14999999963E+04  0.15000000000E+04  0.10566000000E+00 0.  1.
        994   -1    0    0    0    0 -0.00000000000E+00 -0.00000000000E+00  0.11368683772E-12  0.17120000000E+03  0.17120000000E+03 0.  0.
         13    1    1    2    0    0  0.12161322495E+02  0.19939300614E+02  0.24315198056E+02  0.33715181956E+02  0.10566000000E+00 0.  1.
        994    1    1    2    0    0  0.14209928596E+02 -0.15655820356E+02  0.11351548650E+02  0.17287372397E+03  0.17120000000E+03 0.  0.
        998    1    1    2    0    0 -0.26371251090E+02 -0.42834802579E+01  0.14643332496E+04  0.14646110941E+04  0.10000000000E+02 0.  1.
</event>
<event>
 5    1  0.1271464E-008  0.3759921E+03  0.7957747E-01  0.3468798E+00
         13   -1    0    0    0    0  0.00000000000E+00  0.00000000000E+00  0.14999999963E+04  0.15000000000E+04  0.10566000000E+00 0.  1.
        994   -1    0    0    0    0 -0.00000000000E+00 -0.00000000000E+00  0.11368683772E-12  0.17120000000E+03  0.17120000000E+03 0.  0.
         13    1    1    2    0    0  0.55495825926E+02 -0.23237187821E+02  0.29366725994E+03  0.29976695001E+03  0.10566000000E+00 0.  1.
        994    1    1    2    0    0 -0.36775572370E+02 -0.81953668578E+00  0.10768061136E+02  0.17543803893E+03  0.17120000000E+03 0.  0.
        998    1    1    2    0    0 -0.18720253555E+02  0.24056724506E+02  0.11955646752E+04  0.11959950111E+04  0.10000000000E+02 0.  1.
</event>
<event>
 5    1  0.1271464E-008  0.3839220E+03  0.7957747E-01  0.3434257E+00
         13   -1    0    0    0    0  0.00000000000E+00  0.00000000000E+00  0.14999999963E+04  0.15000000000E+04  0.10566000000E+00 0.  1.
        994   -1    0    0    0    0 -0.00000000000E+00 -0.00000000000E+00  0.11368683772E-12  0.17120000000E+03  0.17120000000E+03 0.  0.
         13    1    1    2    0    0 -0.96726717932E+01  0.62112956596E+01  0.29603573572E+02  0.31757259101E+02  0.10566000000E+00 0.  1.
        994    1    1    2    0    0  0.60981454961E+01 -0.95250609295E+01  0.25885387332E+01  0.17159270001E+03  0.17120000000E+03 0.  0.
        998    1    1    2    0    0  0.35745262971E+01  0.33137652699E+01  0.14678078840E+04  0.14678500409E+04  0.10000000000E+02 0.  1.
</event>
<event>
 5    1  0.1271464E-008  0.3823057E+03  0.7957747E-01  0.3441180E+00
         13   -1    0    0    0    0  0.00000000000E+00  0.00000000000E+00  0.14999999963E+04  0.15000000000E+04  0.10566000000E+00 0. -1.
        994   -1    0    0    0    0 -0.00000000000E+00 -0.00000000000E+00  0.11368683772E-12  0.17120000000E+03  0.17120000000E+03 0.  0.
         13    1    1    2    0    0  0.76461374037E+01 -0.13989641751E+02  0.42960327573E+02  0.45823295416E+02  0.10566000000E+00 0. -1.
        994    1    1    2    0    0  0.42855247225E+01  0.61937627918E+01  0.31619808502E+01  0.17139476813E+03  0.17120000000E+03 0.  0.
        998    1    1    2    0    0 -0.11931662126E+02  0.77958789596E+01  0.14538776879E+04  0.14539819365E+04  0.10000000000E+02 0. -1.
</event>
<event>
 5    1  0.1271464E-008  0.3828676E+03  0.7957747E-01  0.3438766E+00
         13   -1    0    0    0    0  0.00000000000E+00  0.00000000000E+00  0.14999999963E+04  0.15000000000E+04  0.10566000000E+00 0.  1.
        994   -1    0    0    0    0 -0.00000000000E+00 -0.00000000000E+00  0.11368683772E-12  0.17120000000E+03  0.17120000000E+03 0.  0.
         13    1    1    2    0    0 -0.62155172441E+02 -0.66973639240E+02  0.19926477336E+03  0.21921495132E+03  0.10566000000E+00 0.  1.
        994    1    1    2    0    0  0.63118328526E+02  0.62478076369E+02  0.47403562998E+02  0.19860506340E+03  0.17120000000E+03 0.  0.
        998    1    1    2    0    0 -0.96315608541E+00  0.44955628713E+01  0.12533316599E+04  0.12533799853E+04  0.10000000000E+02 0.  1.
</event>
<event>
 5    1  0.1271464E-008  0.3722000E+03  0.7957747E-01  0.3485841E+00
         13   -1    0    0    0    0  0.00000000000E+00  0.00000000000E+00  0.14999999963E+04  0.15000000000E+04  0.10566000000E+00 0. -1.
        994   -1    0    0    0    0 -0.00000000000E+00 -0.00000000000E+00  0.11368683772E-12  0.17120000000E+03  0.17120000000E+03 0.  0.
         13    1    1    2    0    0  0.54914967912E+02 -0.26932645216E+02  0.23892248828E+03  0.24662722407E+03  0.10566000000E+00 0. -1.
        994    1    1    2    0    0 -0.13370940349E+02  0.36987802514E+02  0.13450654837E+02  0.17617389051E+03  0.17120000000E+03 0.  0.
        998    1    1    2    0    0 -0.41544027563E+02 -0.10055157299E+02  0.12476268532E+04  0.12483988854E+04  0.10000000000E+02 0. -1.
</event>
<event>
 5    1  0.1271464E-008  0.3761866E+03  0.7957747E-01  0.3467933E+00
         13   -1    0    0    0    0  0.00000000000E+00  0.00000000000E+00  0.14999999963E+04  0.15000000000E+04  0.10566000000E+00 0. -1.
        994   -1    0    0    0    0 -0.00000000000E+00 -0.00000000000E+00  0.11368683772E-12  0.17120000000E+03  0.17120000000E+03 0.  0.
         13    1    1    2    0    0  0.54944688871E+02 -0.34623085982E+02  0.28164414754E+03  0.28903479708E+03  0.10566000000E+00 0. -1.
        994    1    1    2    0    0 -0.55678400296E+02  0.33160669879E+02  0.20424470627E+02  0.18419096961E+03  0.17120000000E+03 0.  0.
        998    1    1    2    0    0  0.73371142529E+00  0.14624161030E+01  0.11979313781E+04  0.11979742333E+04  0.10000000000E+02 0. -1.
</event>
<event>
 5    1  0.1271464E-008  0.3842878E+03  0.7957747E-01  0.3432698E+00
         13   -1    0    0    0    0  0.00000000000E+00  0.00000000000E+00  0.14999999963E+04  0.15000000000E+04  0.10566000000E+00 0.  1.
        994   -1    0    0    0    0 -0.00000000000E+00 -0.00000000000E+00  0.11368683772E-12  0.17120000000E+03  0.17120000000E+03 0.  0.
         13    1    1    2    0    0 -0.12829352854E+02 -0.96729779342E+01  0.67990463721E+02  0.69863245830E+02  0.10566000000E+00 0.  1.
        994    1    1    2    0    0 -0.27352834685E+01  0.74939569419E+01  0.21939285613E+01  0.17139980889E+03  0.17120000000E+03 0.  0.
        998    1    1    2    0    0  0.15564636323E+02  0.21790209923E+01  0.14298156040E+04  0.14299369453E+04  0.10000000000E+02 0.  1.
</event>
<event>
 5    1  0.1271464E-008  0.3856246E+03  0.7957747E-01  0.3427028E+00
         13   -1    0    0    0    0  0.00000000000E+00  0.00000000000E+00  0.14999999963E+04  0.15000000000E+04  0.10566000000E+00 0.  1.
        994   -1    0    0    0    0 -0.00000000000E+00 -0.00000000000E+00  0.11368683772E-12  0.17120000000E+03  0.17120000000E+03 0.  0.
         13    1    1    2    0    0 -0.81767091312E+01  0.97034319021E+01  0.63156668686E+02  0.64418872440E+02  0.10566000000E+00 0.  1.
        994    1    1    2    0    0  0.63567030980E+01 -0.31582222600E+00  0.14533117843E+01  0.17132442772E+03  0.17120000000E+03 0.  0.
        998    1    1    2    0    0  0.18200060332E+01 -0.93876096761E+01  0.14353900158E+04  0.14354566998E+04  0.10000000000E+02 0.  1.
</event>
<event>
 5    1  0.1271464E-008  0.3805101E+03  0.7957747E-01  0.3448940E+00
         13   -1    0    0    0    0  0.00000000000E+00  0.00000000000E+00  0.14999999963E+04  0.15000000000E+04  0.10566000000E+00 0.  1.
        994   -1    0    0    0    0 -0.00000000000E+00 -0.00000000000E+00  0.11368683772E-12  0.17120000000E+03  0.17120000000E+03 0.  0.
         13    1    1    2    0    0 -0.72541879643E+01  0.29834344084E+02  0.13611548014E+03  0.13953546656E+03  0.10566000000E+00 0.  1.
        994    1    1    2    0    0  0.51026266532E+01  0.25108352404E+01  0.39837981199E+01  0.17134074746E+03  0.17120000000E+03 0.  0.
        998    1    1    2    0    0  0.21515613110E+01 -0.32345179324E+02  0.13599007180E+04  0.13603237860E+04  0.10000000000E+02 0.  1.
</event>
<event>
 5    1  0.1271464E-008  0.3723621E+03  0.7957747E-01  0.3485105E+00
         13   -1    0    0    0    0  0.00000000000E+00  0.00000000000E+00  0.14999999963E+04  0.15000000000E+04  0.10566000000E+00 0.  1.
        994   -1    0    0    0    0 -0.00000000000E+00 -0.00000000000E+00  0.11368683772E-12  0.17120000000E+03  0.17120000000E+03 0.  0.
         13    1    1    2    0    0  0.22571704352E+02 -0.28817489486E+02  0.73503637341E+02  0.82114099910E+02  0.10566000000E+00 0.  1.
        994    1    1    2    0    0 -0.45851702435E+02  0.26376699643E+02  0.17698081368E+02  0.18005768793E+03  0.17120000000E+03 0.  0.
        998    1    1    2    0    0  0.23279998084E+02  0.24407898432E+01  0.14087982776E+04  0.14090282122E+04  0.10000000000E+02 0.  1.
</event>
<event>
 5    1  0.1271464E-008  0.3817218E+03  0.7957747E-01  0.3443695E+00
         13   -1    0    0    0    0  0.00000000000E+00  0.00000000000E+00  0.14999999963E+04  0.15000000000E+04  0.10566000000E+00 0.  1.
        994   -1    0    0    0    0 -0.00000000000E+00 -0.00000000000E+00  0.11368683772E-12  0.17120000000E+03  0.17120000000E+03 0.  0.
         13    1    1    2    0    0  0.23590472190E+02  0.98008634208E+01  0.90862016533E+02  0.94384768445E+02  0.10566000000E+00 0.  1.
        994    1    1    2    0    0 -0.29493093971E+02 -0.10683104164E+02  0.65441008037E+01  0.17417300756E+03  0.17120000000E+03 0.  0.
        998    1    1    2    0    0  0.59026217806E+01  0.88224074323E+00  0.14025938789E+04  0.14026422240E+04  0.10000000000E+02 0.  1.
</event>
<event>
 5    1  0.1271464E-008  0.3728113E+03  0.7957747E-01  0.3483070E+00
         13   -1    0    0    0    0  0.00000000000E+00  0.00000000000E+00  0.14999999963E+04  0.15000000000E+04  0.10566000000E+00 0.  1.
        994   -1    0    0    0    0 -0.00000000000E+00 -0.00000000000E+00  0.11368683772E-12  0.17120000000E+03  0.17120000000E+03 0.  0.
         13    1    1    2    0    0 -0.11123723045E+03  0.11700124022E+03  0.73698154300E+03  0.75445663728E+03  0.10566000000E+00 0.  1.
        994    1    1    2    0    0  0.10603884097E+03 -0.12392889597E+03  0.10521902391E+03  0.25881091562E+03  0.17120000000E+03 0.  0.
        998    1    1    2    0    0  0.51983894779E+01  0.69276557553E+01  0.65779942937E+03  0.65793244710E+03  0.10000000000E+02 0.  1.
</event>
<event>
 5    1  0.1271464E-008  0.3855518E+03  0.7957747E-01  0.3427335E+00
         13   -1    0    0    0    0  0.00000000000E+00  0.00000000000E+00  0.14999999963E+04  0.15000000000E+04  0.10566000000E+00 0. -1.
        994   -1    0    0    0    0 -0.00000000000E+00 -0.00000000000E+00  0.11368683772E-12  0.17120000000E+03  0.17120000000E+03 0.  0.
         13    1    1    2    0    0 -0.13876498740E+00 -0.17126147132E+02  0.10063432070E+03  0.10208134912E+03  0.10566000000E+00 0. -1.
        994    1    1    2    0    0  0.41816146189E+00  0.20005740058E+02  0.26719670449E+01  0.17238614765E+03  0.17120000000E+03 0.  0.
        998    1    1    2    0    0 -0.27939647449E+00 -0.28795929257E+01  0.13966937085E+04  0.13967325032E+04  0.10000000000E+02 0. -1.
</event>
<event>
 5    1  0.1271464E-008  0.3843775E+03  0.7957747E-01  0.3432316E+00
         13   -1    0    0    0    0  0.00000000000E+00  0.00000000000E+00  0.14999999963E+04  0.15000000000E+04  0.10566000000E+00 0. -1.
        994   -1    0    0    0    0 -0.00000000000E+00 -0.00000000000E+00  0.11368683772E-12  0.17120000000E+03  0.17120000000E+03 0.  0.
         13    1    1    2    0    0 -0.33899027205E+01 -0.16901309879E+02  0.79569910898E+02  0.81415769974E+02  0.10566000000E+00 0. -1.
        994    1    1    2    0    0  0.77846406460E+00  0.46842364963E+01  0.20138003642E+01  0.17127767943E+03  0.17120000000E+03 0.  0.
        998    1    1    2    0    0  0.26114386559E+01  0.12217073383E+02  0.14184162850E+04  0.14185065506E+04  0.10000000000E+02 0. -1.
</event>
<event>
 5    1  0.1271464E-008  0.3766193E+03  0.7957747E-01  0.3466012E+00
         13   -1    0    0    0    0  0.00000000000E+00  0.00000000000E+00  0.14999999963E+04  0.15000000000E+04  0.10566000000E+00 0. -1.
        994   -1    0    0    0    0 -0.00000000000E+00 -0.00000000000E+00  0.11368683772E-12  0.17120000000E+03  0.17120000000E+03 0.  0.
         13    1    1    2    0    0  0.28408173032E+02 -0.35894969356E+01  0.71302986602E+02  0.76837724105E+02  0.10566000000E+00 0. -1.
        994    1    1    2    0    0 -0.65451311190E+01 -0.85871141656E+01  0.62437211005E+01  0.17165372505E+03  0.17120000000E+03 0.  0.
        998    1    1    2    0    0 -0.21863041913E+02  0.12176611101E+02  0.14224532886E+04  0.14227085508E+04  0.10000000000E+02 0. -1.
</event>
<event>
 5    1  0.1271464E-008  0.3754454E+03  0.7957747E-01  0.3471233E+00
         13   -1    0    0    0    0  0.00000000000E+00  0.00000000000E+00  0.14999999963E+04  0.15000000000E+04  0.10566000000E+00 0.  1.
        994   -1    0    0    0    0 -0.00000000000E+00 -0.00000000000E+00  0.11368683772E-12  0.17120000000E+03  0.17120000000E+03 0.  0.
         13    1    1    2    0    0 -0.17950632400E+02 -0.50240242932E+02  0.19773962948E+03  0.20481034994E+03  0.10566000000E+00 0.  1.
        994    1    1    2    0    0 -0.51131794274E+01  0.52958057738E+02  0.16119146286E+02  0.17999990933E+03  0.17120000000E+03 0.  0.
        998    1    1    2    0    0  0.23063811828E+02 -0.27178148055E+01  0.12861412205E+04  0.12863897407E+04  0.10000000000E+02 0.  1.
</event>
<event>
 5    1  0.1271464E-008  0.3767047E+03  0.7957747E-01  0.3465634E+00
         13   -1    0    0    0    0  0.00000000000E+00  0.00000000000E+00  0.14999999963E+04  0.15000000000E+04  0.10566000000E+00 0. -1.
        994   -1    0    0    0    0 -0.00000000000E+00 -0.00000000000E+00  0.11368683772E-12  0.17120000000E+03  0.17120000000E+03 0.  0.
         13    1    1    2    0    0  0.52371971721E+01 -0.35012280151E+02  0.98347175321E+02  0.10452495421E+03  0.10566000000E+00 0. -1.
        994    1    1    2    0    0 -0.13457024295E+02  0.36729606476E+02  0.10995000325E+02  0.17595591927E+03  0.17120000000E+03 0.  0.
        998    1    1    2    0    0  0.82198271226E+01 -0.17173263250E+01  0.13906578206E+04  0.13907191265E+04  0.10000000000E+02 0. -1.
</event>
<event>
 5    1  0.1271464E-008  0.3778995E+03  0.7957747E-01  0.3460356E+00
         13   -1    0    0    0    0  0.00000000000E+00  0.00000000000E+00  0.14999999963E+04  0.15000000000E+04  0.10566000000E+00 0. -1.
        994   -1    0    0    0    0 -0.00000000000E+00 -0.00000000000E+00  0.11368683772E-12  0.17120000000E+03  0.17120000000E+03 0.  0.
         13    1    1    2    0    0  0.12419467369E+01  0.13402475466E+02  0.15136506440E+02  0.20255709604E+02  0.10566000000E+00 0. -1.
        994    1    1    2    0    0 -0.33958383094E+01 -0.10176554816E+02  0.55847836673E+01  0.17162669896E+03  0.17120000000E+03 0.  0.
        998    1    1    2    0    0  0.21538915725E+01 -0.32259206502E+01  0.14792787062E+04  0.14793175914E+04  0.10000000000E+02 0. -1.
</event>
<event>
 5    1  0.1271464E-008  0.2614503E+03  0.7957747E-01  0.4216546E+00
         13   -1    0    0    0    0  0.00000000000E+00  0.00000000000E+00  0.14999999963E+04  0.15000000000E+04  0.10566000000E+00 0.  1.
        994   -1    0    0    0    0 -0.00000000000E+00 -0.00000000000E+00  0.11368683772E-12  0.17120000000E+03  0.17120000000E+03 0.  0.
         13    1    1    2    0    0 -0.16434868954E+03 -0.65909904482E+02  0.39633520881E+03  0.43409240510E+03  0.10566000000E+00 0.  1.
        994    1    1    2    0    0  0.15136861449E+03  0.44024319039E+02  0.13699492758E+03  0.27005119571E+03  0.17120000000E+03 0.  0.
        998    1    1    2    0    0  0.12980075042E+02  0.21885585443E+02  0.96666985989E+03  0.96705639919E+03  0.10000000000E+02 0.  1.
</event>
<event>
 5    1  0.1271464E-008  0.3854402E+03  0.7957747E-01  0.3427808E+00
         13   -1    0    0    0    0  0.00000000000E+00  0.00000000000E+00  0.14999999963E+04  0.15000000000E+04  0.10566000000E+00 0.  1.
        994   -1    0    0    0    0 -0.00000000000E+00 -0.00000000000E+00  0.11368683772E-12  0.17120000000E+03  0.17120000000E+03 0.  0.
         13    1    1    2    0    0  0.66825063747E+01 -0.76390800620E+01  0.36193170931E+02  0.37589469559E+02  0.10566000000E+00 0.  1.
        994    1    1    2    0    0 -0.17425501300E+01  0.10026535880E+02  0.17519451651E+01  0.17151115770E+03  0.17120000000E+03 0.  0.
        998    1    1    2    0    0 -0.49399562447E+01 -0.23874558179E+01  0.14620548802E+04  0.14620993727E+04  0.10000000000E+02 0.  1.
</event>
<event>
 5    1  0.1271464E-008  0.3854564E+03  0.7957747E-01  0.3427739E+00
         13   -1    0    0    0    0  0.00000000000E+00  0.00000000000E+00  0.14999999963E+04  0.15000000000E+04  0.10566000000E+00 0. -1.
        994   -1    0    0    0    0 -0.00000000000E+00 -0.00000000000E+00  0.11368683772E-12  0.17120000000E+03  0.17120000000E+03 0.  0.
         13    1    1    2    0    0  0.76227198607E+01 -0.94679557490E+01  0.47203005899E+02  0.48743030005E+02  0.10566000000E+00 0. -1.
        994    1    1    2    0    0 -0.22871894950E+02  0.17435855436E+02  0.41245750990E+01  0.17364787575E+03  0.17120000000E+03 0.  0.
        998    1    1    2    0    0  0.15249175090E+02 -0.79678996866E+01  0.14486724153E+04  0.14488090942E+04  0.10000000000E+02 0. -1.
</event>
<event>
 5    1  0.1271464E-008  0.3746031E+03  0.7957747E-01  0.3475000E+00
         13   -1    0    0    0    0  0.00000000000E+00  0.00000000000E+00  0.14999999963E+04  0.15000000000E+04  0.10566000000E+00 0. -1.
        994   -1    0    0    0    0 -0.00000000000E+00 -0.00000000000E+00  0.11368683772E-12  0.17120000000E+03  0.17120000000E+03 0.  0.
         13    1    1    2    0    0  0.45965346505E+02  0.83487845438E+00  0.13578910964E+03  0.14336039747E+03  0.10566000000E+00 0. -1.
        994    1    1    2    0    0 -0.50075725762E+02  0.10840265415E+02  0.15870903653E+02  0.17940572802E+03  0.17120000000E+03 0.  0.
        998    1    1    2    0    0  0.41103792570E+01 -0.11675143869E+02  0.13483399830E+04  0.13484338745E+04  0.10000000000E+02 0. -1.
</event>
<event>
 5    1  0.1271464E-008  0.3844613E+03  0.7957747E-01  0.3431960E+00
         13   -1    0    0    0    0  0.00000000000E+00  0.00000000000E+00  0.14999999963E+04  0.15000000000E+04  0.10566000000E+00 0.  1.
        994   -1    0    0    0    0 -0.00000000000E+00 -0.00000000000E+00  0.11368683772E-12  0.17120000000E+03  0.17120000000E+03 0.  0.
         13    1    1    2    0    0 -0.81452280852E+01 -0.76137734932E+01  0.31815407592E+02  0.33712692145E+02  0.10566000000E+00 0.  1.
        994    1    1    2    0    0  0.15757530951E+02 -0.39624422573E-01  0.27162593525E+01  0.17194510582E+03  0.17120000000E+03 0.  0.
        998    1    1    2    0    0 -0.76123028663E+01  0.76533979158E+01  0.14654683293E+04  0.14655422020E+04  0.10000000000E+02 0.  1.
</event>
<event>
 5    1  0.1271464E-008  0.3806246E+03  0.7957747E-01  0.3448443E+00
         13   -1    0    0    0    0  0.00000000000E+00  0.00000000000E+00  0.14999999963E+04  0.15000000000E+04  0.10566000000E+00 0. -1.
        994   -1    0    0    0    0 -0.00000000000E+00 -0.00000000000E+00  0.11368683772E-12  0.17120000000E+03  0.17120000000E+03 0.  0.
         13    1    1    2    0    0 -0.28135873204E+02 -0.24362700369E+02  0.17465000665E+03  0.17857156693E+03  0.10566000000E+00 0. -1.
        994    1    1    2    0    0  0.19892842263E+02  0.16756996956E+02  0.60783275159E+01  0.17327119837E+03  0.17120000000E+03 0.  0.
        998    1    1    2    0    0  0.82430309414E+01  0.76057034129E+01  0.13192716621E+04  0.13193572347E+04  0.10000000000E+02 0.  1.
</event>
<event>
 5    1  0.1271464E-008  0.3846595E+03  0.7957747E-01  0.3431117E+00
         13   -1    0    0    0    0  0.00000000000E+00  0.00000000000E+00  0.14999999963E+04  0.15000000000E+04  0.10566000000E+00 0.  1.
        994   -1    0    0    0    0 -0.00000000000E+00 -0.00000000000E+00  0.11368683772E-12  0.17120000000E+03  0.17120000000E+03 0.  0.
         13    1    1    2    0    0  0.15132489943E+02 -0.14969053736E+01  0.67549900111E+02  0.69240401115E+02  0.10566000000E+00 0.  1.
        994    1    1    2    0    0 -0.50782592892E+00  0.12409055229E+02  0.23072467282E+01  0.17166538942E+03  0.17120000000E+03 0.  0.
        998    1    1    2    0    0 -0.14624664014E+02 -0.10912149856E+02  0.14301428494E+04  0.14302942095E+04  0.10000000000E+02 0.  1.
</event>
<event>
 5    1  0.1271464E-008  0.3844006E+03  0.7957747E-01  0.3432218E+00
         13   -1    0    0    0    0  0.00000000000E+00  0.00000000000E+00  0.14999999963E+04  0.15000000000E+04  0.10566000000E+00 0.  1.
        994   -1    0    0    0    0 -0.00000000000E+00 -0.00000000000E+00  0.11368683772E-12  0.17120000000E+03  0.17120000000E+03 0.  0.
         13    1    1    2    0    0  0.13387952844E+02  0.31150439258E+01  0.50376586414E+02  0.52218314821E+02  0.10566000000E+00 0.  1.
        994    1    1    2    0    0  0.10074209391E+01 -0.16687674825E+02  0.28494963655E+01  0.17203794063E+03  0.17120000000E+03 0.  0.
        998    1    1    2    0    0 -0.14395373783E+02  0.13572630899E+02  0.14467739135E+04  0.14469437445E+04  0.10000000000E+02 0.  1.
</event>
<event>
 5    1  0.1271464E-008  0.3846286E+03  0.7957747E-01  0.3431249E+00
         13   -1    0    0    0    0  0.00000000000E+00  0.00000000000E+00  0.14999999963E+04  0.15000000000E+04  0.10566000000E+00 0. -1.
        994   -1    0    0    0    0 -0.00000000000E+00 -0.00000000000E+00  0.11368683772E-12  0.17120000000E+03  0.17120000000E+03 0.  0.
         13    1    1    2    0    0  0.14679627430E+01 -0.14604453169E+02  0.56791111938E+02  0.58657365489E+02  0.10566000000E+00 0. -1.
        994    1    1    2    0    0 -0.87189532013E+01  0.16281954268E+02  0.29386535697E+01  0.17221845971E+03  0.17120000000E+03 0.  0.
        998    1    1    2    0    0  0.72509904583E+01 -0.16775010993E+01  0.14402702308E+04  0.14403241748E+04  0.10000000000E+02 0. -1.
</event>
<event>
 5    1  0.1271464E-008  0.3784031E+03  0.7957747E-01  0.3458142E+00
         13   -1    0    0    0    0  0.00000000000E+00  0.00000000000E+00  0.14999999963E+04  0.15000000000E+04  0.10566000000E+00 0.  1.
        994   -1    0    0    0    0 -0.00000000000E+00 -0.00000000000E+00  0.11368683772E-12  0.17120000000E+03  0.17120000000E+03 0.  0.
         13    1    1    2    0    0 -0.44408472215E+02 -0.52263444937E+01  0.25248287518E+03  0.25641185718E+03  0.10566000000E+00 0.  1.
        994    1    1    2    0    0 -0.25276347776E+01 -0.14027627472E+01  0.49695333532E+01  0.17129650593E+03  0.17120000000E+03 0.  0.
        998    1    1    2    0    0  0.46936106993E+02  0.66291072410E+01  0.12425475877E+04  0.12434916369E+04  0.10000000000E+02 0.  1.
</event>
<event>
 5    1  0.1271464E-008  0.3850278E+03  0.7957747E-01  0.3429554E+00
         13   -1    0    0    0    0  0.00000000000E+00  0.00000000000E+00  0.14999999963E+04  0.15000000000E+04  0.10566000000E+00 0. -1.
        994   -1    0    0    0    0 -0.00000000000E+00 -0.00000000000E+00  0.11368683772E-12  0.17120000000E+03  0.17120000000E+03 0.  0.
         13    1    1    2    0    0  0.84358055425E+01  0.12387084671E+02  0.71119067958E+02  0.72681054430E+02  0.10566000000E+00 0. -1.
        994    1    1    2    0    0  0.23557342899E+01 -0.94714268421E+01  0.19296415648E+01  0.17148883616E+03  0.17120000000E+03 0.  0.
        998    1    1    2    0    0 -0.10791539832E+02 -0.29156578293E+01  0.14269512868E+04  0.14270301094E+04  0.10000000000E+02 0. -1.
</event>
<event>
 5    1  0.1271464E-008  0.3742465E+03  0.7957747E-01  0.3476599E+00
         13   -1    0    0    0    0  0.00000000000E+00  0.00000000000E+00  0.14999999963E+04  0.15000000000E+04  0.10566000000E+00 0.  1.
        994   -1    0    0    0    0 -0.00000000000E+00 -0.00000000000E+00  0.11368683772E-12  0.17120000000E+03  0.17120000000E+03 0.  0.
         13    1    1    2    0    0 -0.16280849185E+03  0.10365658917E+03  0.96018394279E+03  0.97938986551E+03  0.10566000000E+00 0.  1.
        994    1    1    2    0    0  0.17123934343E+03 -0.76244407729E+02  0.13818834936E+03  0.28903560741E+03  0.17120000000E+03 0.  0.
        998    1    1    2    0    0 -0.84308515855E+01 -0.27412181441E+02  0.40162770412E+03  0.40277452709E+03  0.10000000000E+02 0.  1.
</event>
<event>
 5    1  0.1271464E-008  0.3857722E+03  0.7957747E-01  0.3426404E+00
         13   -1    0    0    0    0  0.00000000000E+00  0.00000000000E+00  0.14999999963E+04  0.15000000000E+04  0.10566000000E+00 0.  1.
        994   -1    0    0    0    0 -0.00000000000E+00 -0.00000000000E+00  0.11368683772E-12  0.17120000000E+03  0.17120000000E+03 0.  0.
         13    1    1    2    0    0 -0.23670592219E+01 -0.14706939338E+02  0.82424839551E+02  0.83760147881E+02  0.10566000000E+00 0.  1.
        994    1    1    2    0    0 -0.96719693789E+00  0.20712367968E+02  0.26588989874E+01  0.17247158433E+03  0.17120000000E+03 0.  0.
        998    1    1    2    0    0  0.33342561598E+01 -0.60054286309E+01  0.14149162577E+04  0.14149682678E+04  0.10000000000E+02 0.  1.
</event>
<event>
 5    1  0.1271464E-008  0.3684323E+03  0.7957747E-01  0.3503127E+00
         13   -1    0    0    0    0  0.00000000000E+00  0.00000000000E+00  0.14999999963E+04  0.15000000000E+04  0.10566000000E+00 0. -1.
        994   -1    0    0    0    0 -0.00000000000E+00 -0.00000000000E+00  0.11368683772E-12  0.17120000000E+03  0.17120000000E+03 0.  0.
         13    1    1    2    0    0  0.12611265688E+03 -0.39763724404E+02  0.75355231098E+03  0.76506643669E+03  0.10566000000E+00 0. -1.
        994    1    1    2    0    0 -0.94414371428E+02  0.70520748910E+01  0.41935500830E+02  0.20007956298E+03  0.17120000000E+03 0.  0.
        998    1    1    2    0    0 -0.31698285457E+02  0.32711649513E+02  0.70451218447E+03  0.70605400033E+03  0.10000000000E+02 0. -1.
</event>
<event>
 5    1  0.1271464E-008  0.3830119E+03  0.7957747E-01  0.3438148E+00
         13   -1    0    0    0    0  0.00000000000E+00  0.00000000000E+00  0.14999999963E+04  0.15000000000E+04  0.10566000000E+00 0. -1.
        994   -1    0    0    0    0 -0.00000000000E+00 -0.00000000000E+00  0.11368683772E-12  0.17120000000E+03  0.17120000000E+03 0.  0.
         13    1    1    2    0    0 -0.15809048313E+02  0.20435104383E+02  0.14190627168E+03  0.14423910914E+03  0.10566000000E+00 0. -1.
        994    1    1    2    0    0  0.45230743251E+01  0.24138225227E+01  0.27074214565E+01  0.17129814614E+03  0.17120000000E+03 0.  0.
        998    1    1    2    0    0  0.11285973988E+02 -0.22848926905E+02  0.13553863031E+04  0.13556627447E+04  0.10000000000E+02 0. -1.
</event>
<event>
 5    1  0.1271464E-008  0.3735220E+03  0.7957747E-01  0.3479859E+00
         13   -1    0    0    0    0  0.00000000000E+00  0.00000000000E+00  0.14999999963E+04  0.15000000000E+04  0.10566000000E+00 0. -1.
        994   -1    0    0    0    0 -0.00000000000E+00 -0.00000000000E+00  0.11368683772E-12  0.17120000000E+03  0.17120000000E+03 0.  0.
         13    1    1    2    0    0  0.22508582712E+02 -0.33780529726E+02  0.54884412752E+02  0.68264708389E+02  0.10566000000E+00 0. -1.
        994    1    1    2    0    0 -0.22275671509E+02  0.53110550622E+02  0.24648806707E+02  0.18230178222E+03  0.17120000000E+03 0.  0.
        998    1    1    2    0    0 -0.23291120250E+00 -0.19330020896E+02  0.14204667768E+04  0.14206335094E+04  0.10000000000E+02 0. -1.
</event>
<event>
 5    1  0.1271464E-008  0.3836048E+03  0.7957747E-01  0.3435611E+00
         13   -1    0    0    0    0  0.00000000000E+00  0.00000000000E+00  0.14999999963E+04  0.15000000000E+04  0.10566000000E+00 0. -1.
        994   -1    0    0    0    0 -0.00000000000E+00 -0.00000000000E+00  0.11368683772E-12  0.17120000000E+03  0.17120000000E+03 0.  0.
         13    1    1    2    0    0  0.16634769757E+02 -0.71187116631E+01  0.68653173804E+02  0.70997613044E+02  0.10566000000E+00 0. -1.
        994    1    1    2    0    0 -0.14321133729E+02  0.42512760968E+01  0.30620116886E+01  0.17187781746E+03  0.17120000000E+03 0.  0.
        998    1    1    2    0    0 -0.23136360272E+01  0.28674355663E+01  0.14282848108E+04  0.14283245695E+04  0.10000000000E+02 0. -1.
</event>
<event>
 5    1  0.1271464E-008  0.3771527E+03  0.7957747E-01  0.3463651E+00
         13   -1    0    0    0    0  0.00000000000E+00  0.00000000000E+00  0.14999999963E+04  0.15000000000E+04  0.10566000000E+00 0. -1.
        994   -1    0    0    0    0 -0.00000000000E+00 -0.00000000000E+00  0.11368683772E-12  0.17120000000E+03  0.17120000000E+03 0.  0.
         13    1    1    2    0    0 -0.30611769723E+02  0.39976539001E+02  0.26069431393E+03  0.26551222306E+03  0.10566000000E+00 0. -1.
        994    1    1    2    0    0  0.23748532075E+01 -0.10727748531E+02  0.59848946902E+01  0.17165658589E+03  0.17120000000E+03 0.  0.
        998    1    1    2    0    0  0.28236916515E+02 -0.29248790470E+02  0.12333207877E+04  0.12340311910E+04  0.10000000000E+02 0. -1.
</event>
<event>
 5    1  0.1271464E-008  0.3807305E+03  0.7957747E-01  0.3447984E+00
         13   -1    0    0    0    0  0.00000000000E+00  0.00000000000E+00  0.14999999963E+04  0.15000000000E+04  0.10566000000E+00 0.  1.
        994   -1    0    0    0    0 -0.00000000000E+00 -0.00000000000E+00  0.11368683772E-12  0.17120000000E+03  0.17120000000E+03 0.  0.
         13    1    1    2    0    0  0.93082184590E+01  0.53446445720E+01  0.13573640150E+02  0.17305000070E+02  0.10566000000E+00 0.  1.
        994    1    1    2    0    0 -0.50908370347E+01 -0.13216553575E+02  0.44340644160E+01  0.17184206364E+03  0.17120000000E+03 0.  0.
        998    1    1    2    0    0 -0.42173814244E+01  0.78719090031E+01  0.14819922917E+04  0.14820529363E+04  0.10000000000E+02 0.  1.
</event>
<event>
 5    1  0.1271464E-008  0.3832054E+03  0.7957747E-01  0.3437319E+00
         13   -1    0    0    0    0  0.00000000000E+00  0.00000000000E+00  0.14999999963E+04  0.15000000000E+04  0.10566000000E+00 0.  1.
        994   -1    0    0    0    0 -0.00000000000E+00 -0.00000000000E+00  0.11368683772E-12  0.17120000000E+03  0.17120000000E+03 0.  0.
         13    1    1    2    0    0  0.43284839590E+01  0.23488961981E+02  0.11329092245E+03  0.11578130843E+03  0.10566000000E+00 0.  1.
        994    1    1    2    0    0 -0.41522390360E+01 -0.12876649074E+02  0.31295151518E+01  0.17176228645E+03  0.17120000000E+03 0.  0.
        998    1    1    2    0    0 -0.17624492300E+00 -0.10612312908E+02  0.13835795587E+04  0.13836564051E+04  0.10000000000E+02 0.  1.
</event>
<event>
 5    1  0.1271464E-008  0.3798341E+03  0.7957747E-01  0.3451881E+00
         13   -1    0    0    0    0  0.00000000000E+00  0.00000000000E+00  0.14999999963E+04  0.15000000000E+04  0.10566000000E+00 0.  1.
        994   -1    0    0    0    0 -0.00000000000E+00 -0.00000000000E+00  0.11368683772E-12  0.17120000000E+03  0.17120000000E+03 0.  0.
         13    1    1    2    0    0  0.46252489883E+01  0.28336874455E+02  0.18457505657E+02  0.34133005453E+02  0.10566000000E+00 0.  1.
        994    1    1    2    0    0 -0.75304789003E+01 -0.24755552445E+02  0.18664427803E+02  0.17414748449E+03  0.17120000000E+03 0.  0.
        998    1    1    2    0    0  0.29052299120E+01 -0.35813220102E+01  0.14628780628E+04  0.14629195101E+04  0.10000000000E+02 0.  1.
</event>
<event>
 5    1  0.1271464E-008  0.3756855E+03  0.7957747E-01  0.3470163E+00
         13   -1    0    0    0    0  0.00000000000E+00  0.00000000000E+00  0.14999999963E+04  0.15000000000E+04  0.10566000000E+00 0.  1.
        994   -1    0    0    0    0 -0.00000000000E+00 -0.00000000000E+00  0.11368683772E-12  0.17120000000E+03  0.17120000000E+03 0.  0.
         13    1    1    2    0    0  0.46657446447E+02  0.11905483676E+01  0.20521697597E+03  0.21045748526E+03  0.10566000000E+00 0.  1.
        994    1    1    2    0    0  0.23829257936E+01 -0.58761169919E+00  0.63475868849E+01  0.17133521378E+03  0.17120000000E+03 0.  0.
        998    1    1    2    0    0 -0.49040372240E+02 -0.60293666841E+00  0.12884354334E+04  0.12894073010E+04  0.10000000000E+02 0.  1.
</event>
<event>
 5    1  0.1271464E-008  0.3798665E+03  0.7957747E-01  0.3451740E+00
         13   -1    0    0    0    0  0.00000000000E+00  0.00000000000E+00  0.14999999963E+04  0.15000000000E+04  0.10566000000E+00 0.  1.
        994   -1    0    0    0    0 -0.00000000000E+00 -0.00000000000E+00  0.11368683772E-12  0.17120000000E+03  0.17120000000E+03 0.  0.
         13    1    1    2    0    0  0.10228391276E+02  0.14383043832E+02  0.36624209254E+02  0.40655083391E+02  0.10566000000E+00 0.  1.
        994    1    1    2    0    0  0.34599694903E+01 -0.47777873189E+01  0.43169476551E+01  0.17135598816E+03  0.17120000000E+03 0.  0.
        998    1    1    2    0    0 -0.13688360767E+02 -0.96052565132E+01  0.14590588394E+04  0.14591889285E+04  0.10000000000E+02 0.  1.
</event>
<event>
 5    1  0.1271464E-008  0.3763073E+03  0.7957747E-01  0.3467397E+00
         13   -1    0    0    0    0  0.00000000000E+00  0.00000000000E+00  0.14999999963E+04  0.15000000000E+04  0.10566000000E+00 0. -1.
        994   -1    0    0    0    0 -0.00000000000E+00 -0.00000000000E+00  0.11368683772E-12  0.17120000000E+03  0.17120000000E+03 0.  0.
         13    1    1    2    0    0  0.61671081131E+02  0.15641148770E+02  0.37960519545E+03  0.38490009530E+03  0.10566000000E+00 0. -1.
        994    1    1    2    0    0 -0.18849415086E+02 -0.20702360818E+02  0.86663755186E+01  0.17369062801E+03  0.17120000000E+03 0.  0.
        998    1    1    2    0    0 -0.42821666045E+02  0.50612120482E+01  0.11117284253E+04  0.11126092767E+04  0.10000000000E+02 0. -1.
</event>
<event>
 5    1  0.1271464E-008  0.3727680E+03  0.7957747E-01  0.3483265E+00
         13   -1    0    0    0    0  0.00000000000E+00  0.00000000000E+00  0.14999999963E+04  0.15000000000E+04  0.10566000000E+00 0. -1.
        994   -1    0    0    0    0 -0.00000000000E+00 -0.00000000000E+00  0.11368683772E-12  0.17120000000E+03  0.17120000000E+03 0.  0.
         13    1    1    2    0    0  0.17450247993E+02  0.86264296193E+01  0.20444690564E+02  0.28229824287E+02  0.10566000000E+00 0. -1.
        994    1    1    2    0    0 -0.18198923953E+02 -0.12950029399E+02  0.95399928088E+01  0.17291430119E+03  0.17120000000E+03 0.  0.
        998    1    1    2    0    0  0.74867596030E+00  0.43235997800E+01  0.14700153129E+04  0.14700558745E+04  0.10000000000E+02 0. -1.
</event>
<event>
 5    1  0.1271464E-008  0.3856543E+03  0.7957747E-01  0.3426902E+00
         13   -1    0    0    0    0  0.00000000000E+00  0.00000000000E+00  0.14999999963E+04  0.15000000000E+04  0.10566000000E+00 0.  1.
        994   -1    0    0    0    0 -0.00000000000E+00 -0.00000000000E+00  0.11368683772E-12  0.17120000000E+03  0.17120000000E+03 0.  0.
         13    1    1    2    0    0 -0.14345719614E+02  0.67195449400E+01  0.94030226095E+02  0.95355369743E+02  0.10566000000E+00 0.  1.
        994    1    1    2    0    0  0.14212127790E+02 -0.17310163959E+01  0.19786308889E+01  0.17180901017E+03  0.17120000000E+03 0.  0.
        998    1    1    2    0    0  0.13359182323E+00 -0.49885285441E+01  0.14039911393E+04  0.14040356201E+04  0.10000000000E+02 0.  1.
</event>
<event>
 5    1  0.1271464E-008  0.3850288E+03  0.7957747E-01  0.3429550E+00
         13   -1    0    0    0    0  0.00000000000E+00  0.00000000000E+00  0.14999999963E+04  0.15000000000E+04  0.10566000000E+00 0.  1.
        994   -1    0    0    0    0 -0.00000000000E+00 -0.00000000000E+00  0.11368683772E-12  0.17120000000E+03  0.17120000000E+03 0.  0.
         13    1    1    2    0    0  0.72825463023E+01  0.10087704274E+02  0.47216266299E+02  0.48828108968E+02  0.10566000000E+00 0.  1.
        994    1    1    2    0    0 -0.71769755539E+01 -0.80978322175E+01  0.20009505241E+01  0.17155327938E+03  0.17120000000E+03 0.  0.
        998    1    1    2    0    0 -0.10557074838E+00 -0.19898720564E+01  0.14507827795E+04  0.14508186116E+04  0.10000000000E+02 0.  1.
</event>
<event>
 5    1  0.1271464E-008  0.3803973E+03  0.7957747E-01  0.3449430E+00
         13   -1    0    0    0    0  0.00000000000E+00  0.00000000000E+00  0.14999999963E+04  0.15000000000E+04  0.10566000000E+00 0. -1.
        994   -1    0    0    0    0 -0.00000000000E+00 -0.00000000000E+00  0.11368683772E-12  0.17120000000E+03  0.17120000000E+03 0.  0.
         13    1    1    2    0    0  0.92456322780E+01 -0.32836654244E+02  0.16248771294E+03  0.16603010450E+03  0.10566000000E+00 0. -1.
        994    1    1    2    0    0 -0.15188987728E+02  0.12634195802E+01  0.47086589283E+01  0.17194159778E+03  0.17120000000E+03 0.  0.
        998    1    1    2    0    0  0.59433554499E+01  0.31573234663E+02  0.13328036244E+04  0.13332282977E+04  0.10000000000E+02 0. -1.
</event>
<event>
 5    1  0.1271464E-008  0.3865428E+03  0.7957747E-01  0.3423155E+00
         13   -1    0    0    0    0  0.00000000000E+00  0.00000000000E+00  0.14999999963E+04  0.15000000000E+04  0.10566000000E+00 0. -1.
        994   -1    0    0    0    0 -0.00000000000E+00 -0.00000000000E+00  0.11368683772E-12  0.17120000000E+03  0.17120000000E+03 0.  0.
         13    1    1    2    0    0 -0.99757278450E+01  0.17346150444E+01  0.60245156601E+02  0.61090212746E+02  0.10566000000E+00 0. -1.
        994    1    1    2    0    0  0.98807961727E+01  0.11683771893E+02  0.16326353115E+01  0.17189021542E+03  0.17120000000E+03 0.  0.
        998    1    1    2    0    0  0.94931672348E-01 -0.13418386937E+02  0.14381222044E+04  0.14382195718E+04  0.10000000000E+02 0. -1.
</event>
<event>
 5    1  0.1271464E-008  0.3850001E+03  0.7957747E-01  0.3429672E+00
         13   -1    0    0    0    0  0.00000000000E+00  0.00000000000E+00  0.14999999963E+04  0.15000000000E+04  0.10566000000E+00 0.  1.
        994   -1    0    0    0    0 -0.00000000000E+00 -0.00000000000E+00  0.11368683772E-12  0.17120000000E+03  0.17120000000E+03 0.  0.
         13    1    1    2    0    0 -0.87767089082E+01  0.10557656908E+02  0.62057545728E+02  0.63558200765E+02  0.10566000000E+00 0.  1.
        994    1    1    2    0    0 -0.85587910360E+01 -0.43651484380E+01  0.19337319236E+01  0.17148028092E+03  0.17120000000E+03 0.  0.
        998    1    1    2    0    0  0.17335499944E+02 -0.61925084696E+01  0.14360087186E+04  0.14361615183E+04  0.10000000000E+02 0.  1.
</event>
<event>
 5    1  0.1271464E-008  0.3767782E+03  0.7957747E-01  0.3465308E+00
         13   -1    0    0    0    0  0.00000000000E+00  0.00000000000E+00  0.14999999963E+04  0.15000000000E+04  0.10566000000E+00 0.  1.
        994   -1    0    0    0    0 -0.00000000000E+00 -0.00000000000E+00  0.11368683772E-12  0.17120000000E+03  0.17120000000E+03 0.  0.
         13    1    1    2    0    0 -0.11896164602E+02  0.73141933967E+00  0.98481851869E+01  0.15461294319E+02  0.10566000000E+00 0.  1.
        994    1    1    2    0    0  0.18256688014E+01 -0.13999330136E+02  0.64421777023E+01  0.17190187889E+03  0.17120000000E+03 0.  0.
        998    1    1    2    0    0  0.10070495801E+02  0.13267910797E+02  0.14837096334E+04  0.14838368268E+04  0.10000000000E+02 0.  1.
</event>
<event>
 5    1  0.1271464E-008  0.3809071E+03  0.7957747E-01  0.3447218E+00
         13   -1    0    0    0    0  0.00000000000E+00  0.00000000000E+00  0.14999999963E+04  0.15000000000E+04  0.10566000000E+00 0. -1.
        994   -1    0    0    0    0 -0.00000000000E+00 -0.00000000000E+00  0.11368683772E-12  0.17120000000E+03  0.17120000000E+03 0.  0.
         13    1    1    2    0    0 -0.30358401261E+02 -0.85585745749E+02  0.21080759467E+03  0.22953519455E+03  0.10566000000E+00 0. -1.
        994    1    1    2    0    0  0.43103480433E+02  0.75519678434E+02  0.44861892286E+02  0.19718813665E+03  0.17120000000E+03 0.  0.
        998    1    1    2    0    0 -0.12745079172E+02  0.10066067315E+02  0.12443305093E+04  0.12444766688E+04  0.10000000000E+02 0. -1.
</event>
<event>
 5    1  0.1480942E-008  0.3853722E+03  0.7957747E-01  0.3428095E+00
         13   -1    0    0    0    0  0.00000000000E+00  0.00000000000E+00  0.14999999963E+04  0.15000000000E+04  0.10566000000E+00 0.  1.
        994   -1    0    0    0    0 -0.00000000000E+00 -0.00000000000E+00  0.11368683772E-12  0.17120000000E+03  0.17120000000E+03 0.  0.
         13    1    1    2    0    0 -0.10659531046E+02  0.23671146653E+01  0.40236272453E+02  0.41691697242E+02  0.10566000000E+00 0.  1.
        994    1    1    2    0    0  0.12138127333E+02 -0.21457343047E+01  0.19446725288E+01  0.17165418743E+03  0.17120000000E+03 0.  0.
        998    1    1    2    0    0 -0.14785962871E+01 -0.22138036059E+00  0.14578190513E+04  0.14578541153E+04  0.10000000000E+02 0.  1.
</event>
<event>
 5    1  0.1271464E-008  0.3737861E+03  0.7957747E-01  0.3478669E+00
         13   -1    0    0    0    0  0.00000000000E+00  0.00000000000E+00  0.14999999963E+04  0.15000000000E+04  0.10566000000E+00 0. -1.
        994   -1    0    0    0    0 -0.00000000000E+00 -0.00000000000E+00  0.11368683772E-12  0.17120000000E+03  0.17120000000E+03 0.  0.
         13    1    1    2    0    0  0.30236686138E+02 -0.96465287670E+01  0.65494794470E+02  0.72779749742E+02  0.10566000000E+00 0. -1.
        994    1    1    2    0    0 -0.26817531549E+02 -0.63121317975E+01  0.98984242052E+01  0.17368489228E+03  0.17120000000E+03 0.  0.
        998    1    1    2    0    0 -0.34191545885E+01  0.15958660564E+02  0.14246067776E+04  0.14247353580E+04  0.10000000000E+02 0. -1.
</event>
<event>
 5    1  0.1271464E-008  0.3825353E+03  0.7957747E-01  0.3440193E+00
         13   -1    0    0    0    0  0.00000000000E+00  0.00000000000E+00  0.14999999963E+04  0.15000000000E+04  0.10566000000E+00 0.  1.
        994   -1    0    0    0    0 -0.00000000000E+00 -0.00000000000E+00  0.11368683772E-12  0.17120000000E+03  0.17120000000E+03 0.  0.
         13    1    1    2    0    0  0.27532547152E+02  0.13862353024E+02  0.15266366039E+03  0.15574469606E+03  0.10566000000E+00 0.  1.
        994    1    1    2    0    0 -0.28457307025E+02 -0.79176207308E+01  0.57566624148E+01  0.17382487222E+03  0.17120000000E+03 0.  0.
        998    1    1    2    0    0  0.92475987340E+00 -0.59447322936E+01  0.13415796735E+04  0.13416304317E+04  0.10000000000E+02 0.  1.
</event>
<event>
 5    1  0.1271464E-008  0.3829361E+03  0.7957747E-01  0.3438473E+00
         13   -1    0    0    0    0  0.00000000000E+00  0.00000000000E+00  0.14999999963E+04  0.15000000000E+04  0.10566000000E+00 0.  1.
        994   -1    0    0    0    0 -0.00000000000E+00 -0.00000000000E+00  0.11368683772E-12  0.17120000000E+03  0.17120000000E+03 0.  0.
         13    1    1    2    0    0  0.14320497706E+02  0.29092297799E+02  0.17143258131E+03  0.17447228876E+03  0.10566000000E+00 0.  1.
        994    1    1    2    0    0 -0.20453993455E+02 -0.30303744588E+02  0.70964447864E+01  0.17520411614E+03  0.17120000000E+03 0.  0.
        998    1    1    2    0    0  0.61334957489E+01  0.12114467886E+01  0.13214709702E+04  0.13215235951E+04  0.10000000000E+02 0.  1.
</event>
<event>
 5    1  0.1271464E-008  0.3820762E+03  0.7957747E-01  0.3442168E+00
         13   -1    0    0    0    0  0.00000000000E+00  0.00000000000E+00  0.14999999963E+04  0.15000000000E+04  0.10566000000E+00 0. -1.
        994   -1    0    0    0    0 -0.00000000000E+00 -0.00000000000E+00  0.11368683772E-12  0.17120000000E+03  0.17120000000E+03 0.  0.
         13    1    1    2    0    0  0.14887692439E+02  0.14011586362E+02  0.77598709335E+02  0.80246736962E+02  0.10566000000E+00 0. -1.
        994    1    1    2    0    0 -0.94883828867E+01  0.31956899516E+02  0.67871262436E+01  0.17454735151E+03  0.17120000000E+03 0.  0.
        998    1    1    2    0    0 -0.53993095527E+01 -0.45968485878E+02  0.14156141607E+04  0.14164059115E+04  0.10000000000E+02 0. -1.
</event>
<event>
 5    1  0.1271464E-008  0.3840199E+03  0.7957747E-01  0.3433839E+00
         13   -1    0    0    0    0  0.00000000000E+00  0.00000000000E+00  0.14999999963E+04  0.15000000000E+04  0.10566000000E+00 0. -1.
        994   -1    0    0    0    0 -0.00000000000E+00 -0.00000000000E+00  0.11368683772E-12  0.17120000000E+03  0.17120000000E+03 0.  0.
         13    1    1    2    0    0 -0.82348085089E+01  0.10877351432E+02  0.43027526168E+02  0.45138764023E+02  0.10566000000E+00 0. -1.
        994    1    1    2    0    0  0.19198871796E+01 -0.12738426896E+02  0.26651939929E+01  0.17170467887E+03  0.17120000000E+03 0.  0.
        998    1    1    2    0    0  0.63149213293E+01  0.18610754640E+01  0.14543072761E+04  0.14543565571E+04  0.10000000000E+02 0. -1.
</event>
<event>
 5    1  0.1271464E-008  0.3856012E+03  0.7957747E-01  0.3427126E+00
         13   -1    0    0    0    0  0.00000000000E+00  0.00000000000E+00  0.14999999963E+04  0.15000000000E+04  0.10566000000E+00 0. -1.
        994   -1    0    0    0    0 -0.00000000000E+00 -0.00000000000E+00  0.11368683772E-12  0.17120000000E+03  0.17120000000E+03 0.  0.
         13    1    1    2    0    0  0.76178651982E+01  0.92957188655E+01  0.59697220809E+02  0.60895086795E+02  0.10566000000E+00 0. -1.
        994    1    1    2    0    0  0.68073236066E+01  0.11427095368E+01  0.14883412541E+01  0.17134555903E+03  0.17120000000E+03 0.  0.
        998    1    1    2    0    0 -0.14425188805E+02 -0.10438428402E+02  0.14388144342E+04  0.14389593542E+04  0.10000000000E+02 0. -1.
</event>
<event>
 5    1  0.1271464E-008  0.3718520E+03  0.7957747E-01  0.3487422E+00
         13   -1    0    0    0    0  0.00000000000E+00  0.00000000000E+00  0.14999999963E+04  0.15000000000E+04  0.10566000000E+00 0. -1.
        994   -1    0    0    0    0 -0.00000000000E+00 -0.00000000000E+00  0.11368683772E-12  0.17120000000E+03  0.17120000000E+03 0.  0.
         13    1    1    2    0    0  0.69130622784E+02 -0.14858329889E+02  0.33449496132E+03  0.34188697443E+03  0.10566000000E+00 0. -1.
        994    1    1    2    0    0 -0.30655013502E+02 -0.18245426521E+02  0.12689213669E+02  0.17533705138E+03  0.17120000000E+03 0.  0.
        998    1    1    2    0    0 -0.38475609281E+02  0.33103756410E+02  0.11528158213E+04  0.11539759742E+04  0.10000000000E+02 0. -1.
</event>
<event>
 5    1  0.1271464E-008  0.3782964E+03  0.7957747E-01  0.3458610E+00
         13   -1    0    0    0    0  0.00000000000E+00  0.00000000000E+00  0.14999999963E+04  0.15000000000E+04  0.10566000000E+00 0. -1.
        994   -1    0    0    0    0 -0.00000000000E+00 -0.00000000000E+00  0.11368683772E-12  0.17120000000E+03  0.17120000000E+03 0.  0.
         13    1    1    2    0    0  0.12327728368E+02 -0.56741639659E+01  0.15908942754E+02  0.20911113003E+02  0.10566000000E+00 0. -1.
        994    1    1    2    0    0 -0.15944063502E+02  0.10495522821E+02  0.62214753195E+01  0.17237318792E+03  0.17120000000E+03 0.  0.
        998    1    1    2    0    0  0.36163351338E+01 -0.48213588551E+01  0.14778695782E+04  0.14779156991E+04  0.10000000000E+02 0. -1.
</event>
<event>
 5    1  0.1271464E-008  0.3844300E+03  0.7957747E-01  0.3432093E+00
         13   -1    0    0    0    0  0.00000000000E+00  0.00000000000E+00  0.14999999963E+04  0.15000000000E+04  0.10566000000E+00 0.  1.
        994   -1    0    0    0    0 -0.00000000000E+00 -0.00000000000E+00  0.11368683772E-12  0.17120000000E+03  0.17120000000E+03 0.  0.
         13    1    1    2    0    0  0.12254719498E+02 -0.33710864190E+01  0.40970586698E+02  0.42896882312E+02  0.10566000000E+00 0.  1.
        994    1    1    2    0    0 -0.11970869103E+02  0.58900791267E+01  0.25000816488E+01  0.17173725614E+03  0.17120000000E+03 0.  0.
        998    1    1    2    0    0 -0.28385039481E+00 -0.25189927077E+01  0.14565293279E+04  0.14565658615E+04  0.10000000000E+02 0.  1.
</event>
<event>
 5    1  0.1271464E-008  0.3742433E+03  0.7957747E-01  0.3476614E+00
         13   -1    0    0    0    0  0.00000000000E+00  0.00000000000E+00  0.14999999963E+04  0.15000000000E+04  0.10566000000E+00 0. -1.
        994   -1    0    0    0    0 -0.00000000000E+00 -0.00000000000E+00  0.11368683772E-12  0.17120000000E+03  0.17120000000E+03 0.  0.
         13    1    1    2    0    0 -0.44879549376E+02  0.20833434714E+02  0.18044995793E+03  0.18711067430E+03  0.10566000000E+00 0. -1.
        994    1    1    2    0    0  0.90229476920E+01 -0.26908221528E+02  0.98176461574E+01  0.17381395844E+03  0.17120000000E+03 0.  0.
        998    1    1    2    0    0  0.35856601684E+02  0.60747868136E+01  0.13097323922E+04  0.13102753673E+04  0.10000000000E+02 0. -1.
</event>
<event>
 5    1  0.1271464E-008  0.3824459E+03  0.7957747E-01  0.3440577E+00
         13   -1    0    0    0    0  0.00000000000E+00  0.00000000000E+00  0.14999999963E+04  0.15000000000E+04  0.10566000000E+00 0.  1.
        994   -1    0    0    0    0 -0.00000000000E+00 -0.00000000000E+00  0.11368683772E-12  0.17120000000E+03  0.17120000000E+03 0.  0.
         13    1    1    2    0    0 -0.15727988723E+01  0.17722031562E+02  0.55548011091E+02  0.58327838972E+02  0.10566000000E+00 0.  1.
        994    1    1    2    0    0 -0.11999207046E+02 -0.48584773157E+01  0.34594399272E+01  0.17172359621E+03  0.17120000000E+03 0.  0.
        998    1    1    2    0    0  0.13572005919E+02 -0.12863554246E+02  0.14409925453E+04  0.14411485648E+04  0.10000000000E+02 0.  1.
</event>
<event>
 5    1  0.1271464E-008  0.3861659E+03  0.7957747E-01  0.3424742E+00
         13   -1    0    0    0    0  0.00000000000E+00  0.00000000000E+00  0.14999999963E+04  0.15000000000E+04  0.10566000000E+00 0.  1.
        994   -1    0    0    0    0 -0.00000000000E+00 -0.00000000000E+00  0.11368683772E-12  0.17120000000E+03  0.17120000000E+03 0.  0.
         13    1    1    2    0    0 -0.28278960650E+01 -0.10004380048E+02  0.50759128167E+02  0.51812979770E+02  0.10566000000E+00 0.  1.
        994    1    1    2    0    0  0.65173070296E+01  0.94231837882E+01  0.14825646775E+01  0.17158936354E+03  0.17120000000E+03 0.  0.
        998    1    1    2    0    0 -0.36894109646E+01  0.58119625963E+00  0.14477583034E+04  0.14477976567E+04  0.10000000000E+02 0.  1.
</event>
<event>
 5    1  0.1271464E-008  0.3834132E+03  0.7957747E-01  0.3436430E+00
         13   -1    0    0    0    0  0.00000000000E+00  0.00000000000E+00  0.14999999963E+04  0.15000000000E+04  0.10566000000E+00 0. -1.
        994   -1    0    0    0    0 -0.00000000000E+00 -0.00000000000E+00  0.11368683772E-12  0.17120000000E+03  0.17120000000E+03 0.  0.
         13    1    1    2    0    0 -0.18248042404E+02 -0.10464127397E+03  0.55195010497E+03  0.56207803445E+03  0.10566000000E+00 0. -1.
        994    1    1    2    0    0  0.98714928542E+00 -0.91603742229E+01  0.18526664178E+02  0.17244582977E+03  0.17120000000E+03 0.  0.
        998    1    1    2    0    0  0.17260893118E+02  0.11380164820E+03  0.92952322713E+03  0.93667613578E+03  0.10000000000E+02 0. -1.
</event>
<event>
 5    1  0.1271464E-008  0.3741191E+03  0.7957747E-01  0.3477172E+00
         13   -1    0    0    0    0  0.00000000000E+00  0.00000000000E+00  0.14999999963E+04  0.15000000000E+04  0.10566000000E+00 0. -1.
        994   -1    0    0    0    0 -0.00000000000E+00 -0.00000000000E+00  0.11368683772E-12  0.17120000000E+03  0.17120000000E+03 0.  0.
         13    1    1    2    0    0  0.13606908054E+02 -0.35978740670E+02  0.58615307002E+02  0.70109793224E+02  0.10566000000E+00 0. -1.
        994    1    1    2    0    0 -0.12727703152E+02 -0.28396074701E+02  0.16576193452E+02  0.17479285362E+03  0.17120000000E+03 0.  0.
        998    1    1    2    0    0 -0.87920490189E+00  0.64374815371E+02  0.14248084958E+04  0.14262973532E+04  0.10000000000E+02 0. -1.
</event>
<event>
 5    1  0.1271464E-008  0.3792929E+03  0.7957747E-01  0.3454243E+00
         13   -1    0    0    0    0  0.00000000000E+00  0.00000000000E+00  0.14999999963E+04  0.15000000000E+04  0.10566000000E+00 0. -1.
        994   -1    0    0    0    0 -0.00000000000E+00 -0.00000000000E+00  0.11368683772E-12  0.17120000000E+03  0.17120000000E+03 0.  0.
         13    1    1    2    0    0  0.19581114859E+02 -0.17368655614E+02  0.81727955731E+02  0.85817015614E+02  0.10566000000E+00 0. -1.
        994    1    1    2    0    0  0.17739092424E+01 -0.32765172967E+01  0.45370461843E+01  0.17130063370E+03  0.17120000000E+03 0.  0.
        998    1    1    2    0    0 -0.21355024102E+02  0.20645172911E+02  0.14137349944E+04  0.14140823507E+04  0.10000000000E+02 0. -1.
</event>
<event>
 5    1  0.1271464E-008  0.3845875E+03  0.7957747E-01  0.3431424E+00
         13   -1    0    0    0    0  0.00000000000E+00  0.00000000000E+00  0.14999999963E+04  0.15000000000E+04  0.10566000000E+00 0.  1.
        994   -1    0    0    0    0 -0.00000000000E+00 -0.00000000000E+00  0.11368683772E-12  0.17120000000E+03  0.17120000000E+03 0.  0.
         13    1    1    2    0    0  0.15027091059E+02 -0.68727713032E+01  0.77232053669E+02  0.78980059060E+02  0.10566000000E+00 0.  1.
        994    1    1    2    0    0  0.17515843733E+01  0.15760654934E+02  0.26636203462E+01  0.17195348547E+03  0.17120000000E+03 0.  0.
        998    1    1    2    0    0 -0.16778675432E+02 -0.88878836310E+01  0.14201043223E+04  0.14202664555E+04  0.10000000000E+02 0.  1.
</event>
<event>
 5    1  0.1271464E-008  0.3858330E+03  0.7957747E-01  0.3426147E+00
         13   -1    0    0    0    0  0.00000000000E+00  0.00000000000E+00  0.14999999963E+04  0.15000000000E+04  0.10566000000E+00 0.  1.
        994   -1    0    0    0    0 -0.00000000000E+00 -0.00000000000E+00  0.11368683772E-12  0.17120000000E+03  0.17120000000E+03 0.  0.
         13    1    1    2    0    0 -0.11821574415E+02 -0.97256693571E+00  0.58458214299E+02  0.59649555666E+02  0.10566000000E+00 0.  1.
        994    1    1    2    0    0  0.77636402000E+01 -0.13731632879E+01  0.14210200429E+01  0.17138733613E+03  0.17120000000E+03 0.  0.
        998    1    1    2    0    0  0.40579342152E+01  0.23457302236E+01  0.14401207619E+04  0.14401631082E+04  0.10000000000E+02 0.  1.
</event>
<event>
 5    1  0.1271464E-008  0.3779460E+03  0.7957747E-01  0.3460151E+00
         13   -1    0    0    0    0  0.00000000000E+00  0.00000000000E+00  0.14999999963E+04  0.15000000000E+04  0.10566000000E+00 0. -1.
        994   -1    0    0    0    0 -0.00000000000E+00 -0.00000000000E+00  0.11368683772E-12  0.17120000000E+03  0.17120000000E+03 0.  0.
         13    1    1    2    0    0  0.47052771901E+02 -0.55779700439E+02  0.39977994481E+03  0.40638572042E+03  0.10566000000E+00 0. -1.
        994    1    1    2    0    0 -0.51631663895E+02  0.44660434398E+02  0.21023273959E+02  0.18550418099E+03  0.17120000000E+03 0.  0.
        998    1    1    2    0    0  0.45788919933E+01  0.11119266041E+02  0.10791967775E+04  0.10793100986E+04  0.10000000000E+02 0. -1.
</event>
<event>
 5    1  0.1271464E-008  0.3707965E+03  0.7957747E-01  0.3492238E+00
         13   -1    0    0    0    0  0.00000000000E+00  0.00000000000E+00  0.14999999963E+04  0.15000000000E+04  0.10566000000E+00 0. -1.
        994   -1    0    0    0    0 -0.00000000000E+00 -0.00000000000E+00  0.11368683772E-12  0.17120000000E+03  0.17120000000E+03 0.  0.
         13    1    1    2    0    0 -0.28885671907E+00  0.24411533607E+02  0.30309750120E+02  0.38919128044E+02  0.10566000000E+00 0. -1.
        994    1    1    2    0    0  0.22834889586E+00 -0.13227642754E+02  0.94570771816E+01  0.17197063408E+03  0.17120000000E+03 0.  0.
        998    1    1    2    0    0  0.60507823205E-01 -0.11183890853E+02  0.14602331690E+04  0.14603102379E+04  0.10000000000E+02 0. -1.
</event>
<event>
 5    1  0.1271464E-008  0.3752254E+03  0.7957747E-01  0.3472215E+00
         13   -1    0    0    0    0  0.00000000000E+00  0.00000000000E+00  0.14999999963E+04  0.15000000000E+04  0.10566000000E+00 0. -1.
        994   -1    0    0    0    0 -0.00000000000E+00 -0.00000000000E+00  0.11368683772E-12  0.17120000000E+03  0.17120000000E+03 0.  0.
         13    1    1    2    0    0 -0.62222866186E+02  0.51883404416E+01  0.24300581899E+03  0.25089926899E+03  0.10566000000E+00 0. -1.
        994    1    1    2    0    0  0.63675861469E+02 -0.33508648097E+02  0.24357113376E+02  0.18729696688E+03  0.17120000000E+03 0.  0.
        998    1    1    2    0    0 -0.14529952829E+01  0.28320307655E+02  0.12326370639E+04  0.12330037641E+04  0.10000000000E+02 0. -1.
</event>
<event>
 5    1  0.1271464E-008  0.3833346E+03  0.7957747E-01  0.3436766E+00
         13   -1    0    0    0    0  0.00000000000E+00  0.00000000000E+00  0.14999999963E+04  0.15000000000E+04  0.10566000000E+00 0.  1.
        994   -1    0    0    0    0 -0.00000000000E+00 -0.00000000000E+00  0.11368683772E-12  0.17120000000E+03  0.17120000000E+03 0.  0.
         13    1    1    2    0    0 -0.16911010771E+02  0.62444578093E+01  0.75457726699E+02  0.77581281385E+02  0.10566000000E+00 0.  1.
        994    1    1    2    0    0 -0.32970927370E+01  0.27160580920E+02  0.49382898794E+01  0.17344277063E+03  0.17120000000E+03 0.  0.
        998    1    1    2    0    0  0.20208103508E+02 -0.33405038729E+02  0.14196039797E+04  0.14201759480E+04  0.10000000000E+02 0.  1.
</event>
<event>
 5    1  0.1271464E-008  0.3705615E+03  0.7957747E-01  0.3493314E+00
         13   -1    0    0    0    0  0.00000000000E+00  0.00000000000E+00  0.14999999963E+04  0.15000000000E+04  0.10566000000E+00 0. -1.
        994   -1    0    0    0    0 -0.00000000000E+00 -0.00000000000E+00  0.11368683772E-12  0.17120000000E+03  0.17120000000E+03 0.  0.
         13    1    1    2    0    0  0.22363899990E+02 -0.27878362196E+02  0.69562892827E+02  0.78207124509E+02  0.10566000000E+00 0. -1.
        994    1    1    2    0    0 -0.21492896163E+02  0.25038858270E+01  0.10593300102E+02  0.17288687642E+03  0.17120000000E+03 0.  0.
        998    1    1    2    0    0 -0.87100382694E+00  0.25374476369E+02  0.14198438034E+04  0.14201059991E+04  0.10000000000E+02 0. -1.
</event>
<event>
 5    1  0.1271464E-008  0.3825129E+03  0.7957747E-01  0.3440289E+00
         13   -1    0    0    0    0  0.00000000000E+00  0.00000000000E+00  0.14999999963E+04  0.15000000000E+04  0.10566000000E+00 0.  1.
        994   -1    0    0    0    0 -0.00000000000E+00 -0.00000000000E+00  0.11368683772E-12  0.17120000000E+03  0.17120000000E+03 0.  0.
         13    1    1    2    0    0 -0.67855094981E+01 -0.14493699428E+02  0.42872890596E+02  0.45762499652E+02  0.10566000000E+00 0.  1.
        994    1    1    2    0    0  0.15885746013E+02  0.93690590639E+01  0.39984852650E+01  0.17223694168E+03  0.17120000000E+03 0.  0.
        998    1    1    2    0    0 -0.91002365149E+01  0.51246403645E+01  0.14531286204E+04  0.14532005587E+04  0.10000000000E+02 0.  1.
</event>
<event>
 5    1  0.1271464E-008  0.3756731E+03  0.7957747E-01  0.3470218E+00
         13   -1    0    0    0    0  0.00000000000E+00  0.00000000000E+00  0.14999999963E+04  0.15000000000E+04  0.10566000000E+00 0. -1.
        994   -1    0    0    0    0 -0.00000000000E+00 -0.00000000000E+00  0.11368683772E-12  0.17120000000E+03  0.17120000000E+03 0.  0.
         13    1    1    2    0    0  0.98976015055E+01  0.35195616445E+02  0.10659022905E+03  0.11268621045E+03  0.10566000000E+00 0. -1.
        994    1    1    2    0    0  0.20166616954E+01 -0.16374092294E+02  0.72571280523E+01  0.17214611158E+03  0.17120000000E+03 0.  0.
        998    1    1    2    0    0 -0.11914263201E+02 -0.18821524151E+02  0.13861526392E+04  0.13863676780E+04  0.10000000000E+02 0. -1.
</event>
<event>
 5    1  0.1271464E-008  0.3836473E+03  0.7957747E-01  0.3435430E+00
         13   -1    0    0    0    0  0.00000000000E+00  0.00000000000E+00  0.14999999963E+04  0.15000000000E+04  0.10566000000E+00 0.  1.
        994   -1    0    0    0    0 -0.00000000000E+00 -0.00000000000E+00  0.11368683772E-12  0.17120000000E+03  0.17120000000E+03 0.  0.
         13    1    1    2    0    0 -0.14663218141E+02  0.17063100425E+01  0.46909222293E+02  0.49177309406E+02  0.10566000000E+00 0.  1.
        994    1    1    2    0    0  0.91282288538E+01  0.15376362977E+01  0.25863244624E+01  0.17146958320E+03  0.17120000000E+03 0.  0.
        998    1    1    2    0    0  0.55349892873E+01 -0.32439463402E+01  0.14505044495E+04  0.14505531074E+04  0.10000000000E+02 0.  1.
</event>
<event>
 5    1  0.1271464E-008  0.3861135E+03  0.7957747E-01  0.3424964E+00
         13   -1    0    0    0    0  0.00000000000E+00  0.00000000000E+00  0.14999999963E+04  0.15000000000E+04  0.10566000000E+00 0.  1.
        994   -1    0    0    0    0 -0.00000000000E+00 -0.00000000000E+00  0.11368683772E-12  0.17120000000E+03  0.17120000000E+03 0.  0.
         13    1    1    2    0    0 -0.10197387323E+02 -0.80735112274E+01  0.73656100035E+02  0.74795725333E+02  0.10566000000E+00 0.  1.
        994    1    1    2    0    0  0.10793505300E+02  0.15392687006E+02  0.22373286725E+01  0.17224366522E+03  0.17120000000E+03 0.  0.
        998    1    1    2    0    0 -0.59611797616E+00 -0.73191757788E+01  0.14241065676E+04  0.14241606094E+04  0.10000000000E+02 0.  1.
</event>
<event>
 5    1  0.1271464E-008  0.2807117E+03  0.7957747E-01  0.4044131E+00
         13   -1    0    0    0    0  0.00000000000E+00  0.00000000000E+00  0.14999999963E+04  0.15000000000E+04  0.10566000000E+00 0.  1.
        994   -1    0    0    0    0 -0.00000000000E+00 -0.00000000000E+00  0.11368683772E-12  0.17120000000E+03  0.17120000000E+03 0.  0.
         13    1    1    2    0    0  0.20013644768E+03  0.37545267757E+01  0.53934277894E+03  0.57529065568E+03  0.10566000000E+00 0.  1.
        994    1    1    2    0    0 -0.15165854398E+03 -0.49520433746E+00  0.12862796910E+03  0.26240265552E+03  0.17120000000E+03 0.  0.
        998    1    1    2    0    0 -0.48477903696E+02 -0.32593224382E+01  0.83202924825E+03  0.83350668880E+03  0.10000000000E+02 0.  1.
</event>
<event>
 5    1  0.1271464E-008  0.3693072E+03  0.7957747E-01  0.3499081E+00
         13   -1    0    0    0    0  0.00000000000E+00  0.00000000000E+00  0.14999999963E+04  0.15000000000E+04  0.10566000000E+00 0.  1.
        994   -1    0    0    0    0 -0.00000000000E+00 -0.00000000000E+00  0.11368683772E-12  0.17120000000E+03  0.17120000000E+03 0.  0.
         13    1    1    2    0    0 -0.91675364631E+01  0.12046271097E+02  0.74457977928E+01  0.16870312414E+02  0.10566000000E+00 0.  1.
        994    1    1    2    0    0  0.13672244793E+02 -0.10425578549E+02  0.10656913956E+02  0.17239093010E+03  0.17120000000E+03 0.  0.
        998    1    1    2    0    0 -0.45047083297E+01 -0.16206925477E+01  0.14818972845E+04  0.14819387575E+04  0.10000000000E+02 0.  1.
</event>
<event>
 5    1  0.1271464E-008  0.3810167E+03  0.7957747E-01  0.3446744E+00
         13   -1    0    0    0    0  0.00000000000E+00  0.00000000000E+00  0.14999999963E+04  0.15000000000E+04  0.10566000000E+00 0. -1.
        994   -1    0    0    0    0 -0.00000000000E+00 -0.00000000000E+00  0.11368683772E-12  0.17120000000E+03  0.17120000000E+03 0.  0.
         13    1    1    2    0    0 -0.29187651479E+02  0.15835027681E+02  0.17105249957E+03  0.17424590633E+03  0.10566000000E+00 0. -1.
        994    1    1    2    0    0  0.46867323018E+01  0.31396966222E+01  0.37268570092E+01  0.17133345446E+03  0.17120000000E+03 0.  0.
        998    1    1    2    0    0  0.24500919177E+02 -0.18974724303E+02  0.13252206397E+04  0.13256206392E+04  0.10000000000E+02 0. -1.
</event>
<event>
 5    1  0.1271464E-008  0.3811814E+03  0.7957747E-01  0.3446031E+00
         13   -1    0    0    0    0  0.00000000000E+00  0.00000000000E+00  0.14999999963E+04  0.15000000000E+04  0.10566000000E+00 0. -1.
        994   -1    0    0    0    0 -0.00000000000E+00 -0.00000000000E+00  0.11368683772E-12  0.17120000000E+03  0.17120000000E+03 0.  0.
         13    1    1    2    0    0 -0.30447661613E+02 -0.20423151576E+02  0.17411086629E+03  0.17792911549E+03  0.10566000000E+00 0. -1.
        994    1    1    2    0    0  0.10747874409E+02  0.44866594115E+02  0.10658490459E+02  0.17762762029E+03  0.17120000000E+03 0.  0.
        998    1    1    2    0    0  0.19699787204E+02 -0.24443442538E+02  0.13152306395E+04  0.13156432642E+04  0.10000000000E+02 0. -1.
</event>
<event>
 5    1  0.1271464E-008  0.3784135E+03  0.7957747E-01  0.3458096E+00
         13   -1    0    0    0    0  0.00000000000E+00  0.00000000000E+00  0.14999999963E+04  0.15000000000E+04  0.10566000000E+00 0.  1.
        994   -1    0    0    0    0 -0.00000000000E+00 -0.00000000000E+00  0.11368683772E-12  0.17120000000E+03  0.17120000000E+03 0.  0.
         13    1    1    2    0    0 -0.13239734734E+02 -0.55333130347E+02  0.10359572903E+03  0.11819108311E+03  0.10566000000E+00 0.  1.
        994    1    1    2    0    0 -0.54902002135E+01  0.27178433046E+02  0.18233036698E+02  0.17438661975E+03  0.17120000000E+03 0.  0.
        998    1    1    2    0    0  0.18729934948E+02  0.28154697301E+02  0.13781712306E+04  0.13786222971E+04  0.10000000000E+02 0.  1.
</event>
<event>
 5    1  0.1271464E-008  0.3855220E+03  0.7957747E-01  0.3427461E+00
         13   -1    0    0    0    0  0.00000000000E+00  0.00000000000E+00  0.14999999963E+04  0.15000000000E+04  0.10566000000E+00 0. -1.
        994   -1    0    0    0    0 -0.00000000000E+00 -0.00000000000E+00  0.11368683772E-12  0.17120000000E+03  0.17120000000E+03 0.  0.
         13    1    1    2    0    0 -0.10142939940E+02 -0.49286280438E+01  0.44394947047E+02  0.45804946156E+02  0.10566000000E+00 0. -1.
        994    1    1    2    0    0  0.14239590753E+02  0.73755589797E+01  0.22159336246E+01  0.17196370308E+03  0.17120000000E+03 0.  0.
        998    1    1    2    0    0 -0.40966508131E+01 -0.24469309360E+01  0.14533891156E+04  0.14534313508E+04  0.10000000000E+02 0. -1.
</event>
<event>
 5    1  0.1271464E-008  0.3795033E+03  0.7957747E-01  0.3453324E+00
         13   -1    0    0    0    0  0.00000000000E+00  0.00000000000E+00  0.14999999963E+04  0.15000000000E+04  0.10566000000E+00 0.  1.
        994   -1    0    0    0    0 -0.00000000000E+00 -0.00000000000E+00  0.11368683772E-12  0.17120000000E+03  0.17120000000E+03 0.  0.
         13    1    1    2    0    0 -0.27597780647E+02 -0.61623357398E+01  0.88884408563E+02  0.93274118211E+02  0.10566000000E+00 0.  1.
        994    1    1    2    0    0  0.22148468880E+02 -0.10418780045E+02  0.63927080493E+01  0.17305898523E+03  0.17120000000E+03 0.  0.
        998    1    1    2    0    0  0.54493117665E+01  0.16581115785E+02  0.14047228797E+04  0.14048668966E+04  0.10000000000E+02 0.  1.
</event>
<event>
 5    1  0.1271464E-008  0.3737030E+03  0.7957747E-01  0.3479044E+00
         13   -1    0    0    0    0  0.00000000000E+00  0.00000000000E+00  0.14999999963E+04  0.15000000000E+04  0.10566000000E+00 0.  1.
        994   -1    0    0    0    0 -0.00000000000E+00 -0.00000000000E+00  0.11368683772E-12  0.17120000000E+03  0.17120000000E+03 0.  0.
         13    1    1    2    0    0 -0.74119209676E+02 -0.95905679526E+02  0.57860072026E+03  0.59116018240E+03  0.10566000000E+00 0.  1.
        994    1    1    2    0    0  0.75201445940E+02  0.96560782776E+02  0.60349316026E+02  0.21893086166E+03  0.17120000000E+03 0.  0.
        998    1    1    2    0    0 -0.10822362645E+01 -0.65510325037E+00  0.86104996000E+03  0.86110895594E+03  0.10000000000E+02 0.  0.
</event>
<event>
 5    1  0.1271464E-008  0.3790285E+03  0.7957747E-01  0.3455400E+00
         13   -1    0    0    0    0  0.00000000000E+00  0.00000000000E+00  0.14999999963E+04  0.15000000000E+04  0.10566000000E+00 0. -1.
        994   -1    0    0    0    0 -0.00000000000E+00 -0.00000000000E+00  0.11368683772E-12  0.17120000000E+03  0.17120000000E+03 0.  0.
         13    1    1    2    0    0  0.35607964462E+02  0.41778989756E+02  0.30339760348E+03  0.30832373908E+03  0.10566000000E+00 0. -1.
        994    1    1    2    0    0 -0.14298188369E+02 -0.39204603883E+02  0.10486852523E+02  0.17652437008E+03  0.17120000000E+03 0.  0.
        998    1    1    2    0    0 -0.21309776093E+02 -0.25743858726E+01  0.11861155403E+04  0.11863518908E+04  0.10000000000E+02 0. -1.
</event>
<event>
 5    1  0.1271464E-008  0.3697951E+03  0.7957747E-01  0.3496833E+00
         13   -1    0    0    0    0  0.00000000000E+00  0.00000000000E+00  0.14999999963E+04  0.15000000000E+04  0.10566000000E+00 0. -1.
        994   -1    0    0    0    0 -0.00000000000E+00 -0.00000000000E+00  0.11368683772E-12  0.17120000000E+03  0.17120000000E+03 0.  0.
         13    1    1    2    0    0 -0.46433622186E+02 -0.39808729208E+02  0.19350858187E+03  0.20294432392E+03  0.10566000000E+00 0. -1.
        994    1    1    2    0    0  0.31943205071E+02  0.22804509281E+02  0.14725043276E+02  0.17625742791E+03  0.17120000000E+03 0.  0.
        998    1    1    2    0    0  0.14490417115E+02  0.17004219927E+02  0.12917663711E+04  0.12919982482E+04  0.10000000000E+02 0. -1.
</event>
<event>
 5    1  0.1271464E-008  0.3827893E+03  0.7957747E-01  0.3439102E+00
         13   -1    0    0    0    0  0.00000000000E+00  0.00000000000E+00  0.14999999963E+04  0.15000000000E+04  0.10566000000E+00 0.  1.
        994   -1    0    0    0    0 -0.00000000000E+00 -0.00000000000E+00  0.11368683772E-12  0.17120000000E+03  0.17120000000E+03 0.  0.
         13    1    1    2    0    0 -0.16903829371E+02 -0.10829573411E+02  0.70103337370E+02  0.72921246439E+02  0.10566000000E+00 0.  1.
        994    1    1    2    0    0  0.15858229734E+02  0.13314473954E+02  0.41531976506E+01  0.17249767453E+03  0.17120000000E+03 0.  0.
        998    1    1    2    0    0  0.10455996374E+01 -0.24849005432E+01  0.14257434613E+04  0.14257810790E+04  0.10000000000E+02 0.  1.
</event>
<event>
 5    1  0.1271464E-008  0.3836574E+03  0.7957747E-01  0.3435386E+00
         13   -1    0    0    0    0  0.00000000000E+00  0.00000000000E+00  0.14999999963E+04  0.15000000000E+04  0.10566000000E+00 0.  1.
        994   -1    0    0    0    0 -0.00000000000E+00 -0.00000000000E+00  0.11368683772E-12  0.17120000000E+03  0.17120000000E+03 0.  0.
         13    1    1    2    0    0  0.30607189001E+02  0.80959860819E+01  0.19116486265E+03  0.19376883362E+03  0.10566000000E+00 0.  1.
        994    1    1    2    0    0 -0.30419398608E+02 -0.12547045577E+02  0.58827964664E+01  0.17443283939E+03  0.17120000000E+03 0.  0.
        998    1    1    2    0    0 -0.18779039312E+00  0.44510594948E+01  0.13029523372E+04  0.13029983270E+04  0.10000000000E+02 0.  1.
</event>
<event>
 5    1  0.1271464E-008  0.3837203E+03  0.7957747E-01  0.3435118E+00
         13   -1    0    0    0    0  0.00000000000E+00  0.00000000000E+00  0.14999999963E+04  0.15000000000E+04  0.10566000000E+00 0. -1.
        994   -1    0    0    0    0 -0.00000000000E+00 -0.00000000000E+00  0.11368683772E-12  0.17120000000E+03  0.17120000000E+03 0.  0.
         13    1    1    2    0    0  0.85025426873E+01  0.82038189549E+01  0.30005334053E+02  0.32247900913E+02  0.10566000000E+00 0. -1.
        994    1    1    2    0    0 -0.32568326248E+01 -0.96142118541E+01  0.26071776255E+01  0.17152048683E+03  0.17120000000E+03 0.  0.
        998    1    1    2    0    0 -0.52457100625E+01  0.14103928992E+01  0.14673874846E+04  0.14674316123E+04  0.10000000000E+02 0. -1.
</event>
<event>
 5    1  0.1271464E-008  0.3692364E+03  0.7957747E-01  0.3499407E+00
         13   -1    0    0    0    0  0.00000000000E+00  0.00000000000E+00  0.14999999963E+04  0.15000000000E+04  0.10566000000E+00 0.  1.
        994   -1    0    0    0    0 -0.00000000000E+00 -0.00000000000E+00  0.11368683772E-12  0.17120000000E+03  0.17120000000E+03 0.  0.
         13    1    1    2    0    0  0.36624457396E+02  0.16513129344E+03  0.61707770853E+03  0.63983951463E+03  0.10566000000E+00 0.  1.
        994    1    1    2    0    0 -0.85578666060E+02 -0.16985503657E+03  0.14979462560E+03  0.29651696645E+03  0.17120000000E+03 0.  0.
        998    1    1    2    0    0  0.48954208663E+02  0.47237431245E+01  0.73312766215E+03  0.73484351893E+03  0.10000000000E+02 0.  1.
</event>
<event>
 5    1  0.1271464E-008  0.3851382E+03  0.7957747E-01  0.3429086E+00
         13   -1    0    0    0    0  0.00000000000E+00  0.00000000000E+00  0.14999999963E+04  0.15000000000E+04  0.10566000000E+00 0. -1.
        994   -1    0    0    0    0 -0.00000000000E+00 -0.00000000000E+00  0.11368683772E-12  0.17120000000E+03  0.17120000000E+03 0.  0.
         13    1    1    2    0    0  0.35911840697E+01  0.11586301655E+02  0.46346719013E+02  0.47907917053E+02  0.10566000000E+00 0. -1.
        994    1    1    2    0    0 -0.80230341970E+01 -0.91658605381E+01  0.20494693709E+01  0.17164504771E+03  0.17120000000E+03 0.  0.
        998    1    1    2    0    0  0.44318501272E+01 -0.24204411164E+01  0.14516038079E+04  0.14516470352E+04  0.10000000000E+02 0. -1.
</event>
<event>
 5    1  0.1271464E-008  0.3772831E+03  0.7957747E-01  0.3463075E+00
         13   -1    0    0    0    0  0.00000000000E+00  0.00000000000E+00  0.14999999963E+04  0.15000000000E+04  0.10566000000E+00 0.  1.
        994   -1    0    0    0    0 -0.00000000000E+00 -0.00000000000E+00  0.11368683772E-12  0.17120000000E+03  0.17120000000E+03 0.  0.
         13    1    1    2    0    0 -0.13752949814E+02 -0.26363986782E+02  0.75334351838E+02  0.80990611545E+02  0.10566000000E+00 0.  1.
        994    1    1    2    0    0  0.11338191285E+02  0.25609025388E+02  0.81613833001E+01  0.17366757020E+03  0.17120000000E+03 0.  0.
        998    1    1    2    0    0  0.24147585287E+01  0.75496139380E+00  0.14165042611E+04  0.14165418183E+04  0.10000000000E+02 0.  1.
</event>
<event>
 5    1  0.1271464E-008  0.3722702E+03  0.7957747E-01  0.3485522E+00
         13   -1    0    0    0    0  0.00000000000E+00  0.00000000000E+00  0.14999999963E+04  0.15000000000E+04  0.10566000000E+00 0. -1.
        994   -1    0    0    0    0 -0.00000000000E+00 -0.00000000000E+00  0.11368683772E-12  0.17120000000E+03  0.17120000000E+03 0.  0.
         13    1    1    2    0    0  0.73309134229E+02 -0.13339359276E+03  0.59306142113E+03  0.61228256561E+03  0.10566000000E+00 0. -1.
        994    1    1    2    0    0 -0.51871309497E+02  0.13384080524E+03  0.88763728954E+02  0.24040056879E+03  0.17120000000E+03 0.  0.
        998    1    1    2    0    0 -0.21437824733E+02 -0.44721248244E+00  0.81817484619E+03  0.81851686560E+03  0.10000000000E+02 0. -1.
</event>
<event>
 5    1  0.1271464E-008  0.3853516E+03  0.7957747E-01  0.3428182E+00
         13   -1    0    0    0    0  0.00000000000E+00  0.00000000000E+00  0.14999999963E+04  0.15000000000E+04  0.10566000000E+00 0.  1.
        994   -1    0    0    0    0 -0.00000000000E+00 -0.00000000000E+00  0.11368683772E-12  0.17120000000E+03  0.17120000000E+03 0.  0.
         13    1    1    2    0    0  0.39701919603E+01  0.15413787235E+02  0.92658791554E+02  0.94016009687E+02  0.10566000000E+00 0.  1.
        994    1    1    2    0    0 -0.70938294687E+01 -0.13122320044E+01  0.16266321727E+01  0.17135965191E+03  0.17120000000E+03 0.  0.
        998    1    1    2    0    0  0.31236375084E+01 -0.14101555231E+02  0.14057145726E+04  0.14058243384E+04  0.10000000000E+02 0.  1.
</event>
<event>
 5    1  0.1271464E-008  0.3830510E+03  0.7957747E-01  0.3437980E+00
         13   -1    0    0    0    0  0.00000000000E+00  0.00000000000E+00  0.14999999963E+04  0.15000000000E+04  0.10566000000E+00 0. -1.
        994   -1    0    0    0    0 -0.00000000000E+00 -0.00000000000E+00  0.11368683772E-12  0.17120000000E+03  0.17120000000E+03 0.  0.
         13    1    1    2    0    0  0.25843498788E+02 -0.26848261656E+01  0.14347405646E+03  0.14580778704E+03  0.10566000000E+00 0. -1.
        994    1    1    2    0    0 -0.70893075547E+00  0.17559804096E+02  0.36236858633E+01  0.17213779481E+03  0.17120000000E+03 0.  0.
        998    1    1    2    0    0 -0.25134568033E+02 -0.14874977930E+02  0.13529022540E+04  0.13532544182E+04  0.10000000000E+02 0. -1.
</event>
<event>
 5    1  0.1271464E-008  0.3815454E+03  0.7957747E-01  0.3444457E+00
         13   -1    0    0    0    0  0.00000000000E+00  0.00000000000E+00  0.14999999963E+04  0.15000000000E+04  0.10566000000E+00 0.  1.
        994   -1    0    0    0    0 -0.00000000000E+00 -0.00000000000E+00  0.11368683772E-12  0.17120000000E+03  0.17120000000E+03 0.  0.
         13    1    1    2    0    0  0.56656791392E+01 -0.31338503652E+02  0.15937327450E+03  0.16252400905E+03  0.10566000000E+00 0.  1.
        994    1    1    2    0    0  0.17519830324E+02  0.14362199635E+02  0.50638730724E+01  0.17276660570E+03  0.17120000000E+03 0.  0.
        998    1    1    2    0    0 -0.23185509463E+02  0.16976304017E+02  0.13355628487E+04  0.13359093853E+04  0.10000000000E+02 0.  1.
</event>
<event>
 5    1  0.1271464E-008  0.3955036E+03  0.7957747E-01  0.3386311E+00
         13   -1    0    0    0    0  0.00000000000E+00  0.00000000000E+00  0.14999999963E+04  0.15000000000E+04  0.10566000000E+00 0.  1.
        994   -1    0    0    0    0 -0.00000000000E+00 -0.00000000000E+00  0.11368683772E-12  0.17120000000E+03  0.17120000000E+03 0.  0.
         13    1    1    2    0    0  0.57849380621E+02  0.67140937214E+02  0.16612430930E+03  0.18828636061E+03  0.10566000000E+00 0.  1.
        994    1    1    2    0    0 -0.12542072334E+02 -0.26354474075E+02  0.28399708079E+02  0.17597683172E+03  0.17120000000E+03 0.  0.
        998    1    1    2    0    0 -0.45307308286E+02 -0.40786463139E+02  0.13054759789E+04  0.13069368077E+04  0.10000000000E+02 0.  1.
</event>
<event>
 5    1  0.1271464E-008  0.3832137E+03  0.7957747E-01  0.3437284E+00
         13   -1    0    0    0    0  0.00000000000E+00  0.00000000000E+00  0.14999999963E+04  0.15000000000E+04  0.10566000000E+00 0. -1.
        994   -1    0    0    0    0 -0.00000000000E+00 -0.00000000000E+00  0.11368683772E-12  0.17120000000E+03  0.17120000000E+03 0.  0.
         13    1    1    2    0    0  0.73200350003E+01 -0.81325737317E+01  0.22368591383E+02  0.24901540362E+02  0.10566000000E+00 0. -1.
        994    1    1    2    0    0 -0.85353285245E+01  0.11605377266E+02  0.32064193862E+01  0.17183497240E+03  0.17120000000E+03 0.  0.
        998    1    1    2    0    0  0.12152935242E+01 -0.34728035343E+01  0.14744249855E+04  0.14744634872E+04  0.10000000000E+02 0. -1.
</event>
<event>
 5    1  0.1271464E-008  0.3792489E+03  0.7957747E-01  0.3454436E+00
         13   -1    0    0    0    0  0.00000000000E+00  0.00000000000E+00  0.14999999963E+04  0.15000000000E+04  0.10566000000E+00 0. -1.
        994   -1    0    0    0    0 -0.00000000000E+00 -0.00000000000E+00  0.11368683772E-12  0.17120000000E+03  0.17120000000E+03 0.  0.
         13    1    1    2    0    0  0.12368665660E+02 -0.16837230253E+02  0.47842804805E+02  0.52205568175E+02  0.10566000000E+00 0. -1.
        994    1    1    2    0    0  0.42304063968E+01  0.11280855008E+02  0.49993746652E+01  0.17169620781E+03  0.17120000000E+03 0.  0.
        998    1    1    2    0    0 -0.16599072057E+02  0.55563752453E+01  0.14471578168E+04  0.14472982240E+04  0.10000000000E+02 0. -1.
</event>
<event>
 5    1  0.1271464E-008  0.3772901E+03  0.7957747E-01  0.3463044E+00
         13   -1    0    0    0    0  0.00000000000E+00  0.00000000000E+00  0.14999999963E+04  0.15000000000E+04  0.10566000000E+00 0. -1.
        994   -1    0    0    0    0 -0.00000000000E+00 -0.00000000000E+00  0.11368683772E-12  0.17120000000E+03  0.17120000000E+03 0.  0.
         13    1    1    2    0    0  0.13465501253E+03  0.93364414696E+02  0.47146970315E+03  0.49913182475E+03  0.10566000000E+00 0. -1.
        994    1    1    2    0    0 -0.16398722032E+03 -0.87373711437E+02  0.15176275127E+03  0.29473266963E+03  0.17120000000E+03 0.  0.
        998    1    1    2    0    0  0.29332207789E+02 -0.59907032584E+01  0.87676754187E+03  0.87733550561E+03  0.10000000000E+02 0. -1.
</event>
