<event>
 5    1  0.1279376E-008  0.3811859E+03  0.7957747E-01  0.3446011E+00
         13   -1    0    0    0    0  0.00000000000E+00  0.00000000000E+00  0.14999999963E+04  0.15000000000E+04  0.10566000000E+00 0. -1.
        994   -1    0    0    0    0 -0.00000000000E+00 -0.00000000000E+00  0.11368683772E-12  0.17120000000E+03  0.17120000000E+03 0.  0.
         13    1    1    2    0    0  0.56997725726E+01 -0.30988953351E+02  0.12723942300E+03  0.13108273939E+03  0.10566000000E+00 0. -1.
        994    1    1    2    0    0 -0.89082666611E+01  0.32358123082E+02  0.72955848779E+01  0.17461119925E+03  0.17120000000E+03 0.  0.
        998    1    1    2    0    0  0.32084940885E+01 -0.13691697307E+01  0.13654649884E+04  0.13655060614E+04  0.10000000000E+02 0. -1.
</event>
<event>
 5    1  0.1279376E-008  0.3850374E+03  0.7957747E-01  0.3429513E+00
         13   -1    0    0    0    0  0.00000000000E+00  0.00000000000E+00  0.14999999963E+04  0.15000000000E+04  0.10566000000E+00 0. -1.
        994   -1    0    0    0    0 -0.00000000000E+00 -0.00000000000E+00  0.11368683772E-12  0.17120000000E+03  0.17120000000E+03 0.  0.
         13    1    1    2    0    0 -0.74988781121E+01 -0.11006017279E+02  0.56578582599E+02  0.58124975374E+02  0.10566000000E+00 0. -1.
        994    1    1    2    0    0  0.72956485498E+01  0.15693285593E+00  0.17866737294E+01  0.17136476685E+03  0.17120000000E+03 0.  0.
        998    1    1    2    0    0  0.20322956235E+00  0.10849084423E+02  0.14416347400E+04  0.14417102578E+04  0.10000000000E+02 0. -1.
</event>
<event>
 5    1  0.1279376E-008  0.3819781E+03  0.7957747E-01  0.3442590E+00
         13   -1    0    0    0    0  0.00000000000E+00  0.00000000000E+00  0.14999999963E+04  0.15000000000E+04  0.10566000000E+00 0.  1.
        994   -1    0    0    0    0 -0.00000000000E+00 -0.00000000000E+00  0.11368683772E-12  0.17120000000E+03  0.17120000000E+03 0.  0.
         13    1    1    2    0    0 -0.17780545924E+00 -0.15933859757E+02  0.40942403546E+02  0.43934167497E+02  0.10566000000E+00 0.  1.
        994    1    1    2    0    0 -0.10531881646E+02  0.52814965711E+00  0.35073439489E+01  0.17156031282E+03  0.17120000000E+03 0.  0.
        998    1    1    2    0    0  0.10709687105E+02  0.15405710100E+02  0.14555502488E+04  0.14557055197E+04  0.10000000000E+02 0.  1.
</event>
<event>
 5    1  0.1279376E-008  0.3778600E+03  0.7957747E-01  0.3460530E+00
         13   -1    0    0    0    0  0.00000000000E+00  0.00000000000E+00  0.14999999963E+04  0.15000000000E+04  0.10566000000E+00 0.  1.
        994   -1    0    0    0    0 -0.00000000000E+00 -0.00000000000E+00  0.11368683772E-12  0.17120000000E+03  0.17120000000E+03 0.  0.
         13    1    1    2    0    0  0.26160952780E+02 -0.37204749073E+02  0.17824518297E+03  0.18395636771E+03  0.10566000000E+00 0.  1.
        994    1    1    2    0    0 -0.28222819385E+02  0.31733995418E+02  0.11313650170E+02  0.17675127349E+03  0.17120000000E+03 0.  0.
        998    1    1    2    0    0  0.20618666049E+01  0.54707536554E+01  0.13104411631E+04  0.13104923588E+04  0.10000000000E+02 0.  1.
</event>
<event>
 5    1  0.1279376E-008  0.3804210E+03  0.7957747E-01  0.3449327E+00
         13   -1    0    0    0    0  0.00000000000E+00  0.00000000000E+00  0.14999999963E+04  0.15000000000E+04  0.10566000000E+00 0.  1.
        994   -1    0    0    0    0 -0.00000000000E+00 -0.00000000000E+00  0.11368683772E-12  0.17120000000E+03  0.17120000000E+03 0.  0.
         13    1    1    2    0    0 -0.19275309878E+02  0.16143665731E+01  0.45098694730E+02  0.49071857319E+02  0.10566000000E+00 0.  1.
        994    1    1    2    0    0  0.19389315308E+02 -0.36305805958E+01  0.52208410288E+01  0.17241178569E+03  0.17120000000E+03 0.  0.
        998    1    1    2    0    0 -0.11400542911E+00  0.20162140227E+01  0.14496804605E+04  0.14497163570E+04  0.10000000000E+02 0.  1.
</event>
<event>
 5    1  0.1279376E-008  0.3856516E+03  0.7957747E-01  0.3426913E+00
         13   -1    0    0    0    0  0.00000000000E+00  0.00000000000E+00  0.14999999963E+04  0.15000000000E+04  0.10566000000E+00 0.  1.
        994   -1    0    0    0    0 -0.00000000000E+00 -0.00000000000E+00  0.11368683772E-12  0.17120000000E+03  0.17120000000E+03 0.  0.
         13    1    1    2    0    0 -0.54607878102E+01 -0.83830208380E+01  0.38905511231E+02  0.40171447697E+02  0.10566000000E+00 0.  1.
        994    1    1    2    0    0  0.13653316861E+02 -0.30215241797E+01  0.19489645027E+01  0.17178120134E+03  0.17120000000E+03 0.  0.
        998    1    1    2    0    0 -0.81925290512E+01  0.11404545018E+02  0.14591455205E+04  0.14592473510E+04  0.10000000000E+02 0.  1.
</event>
<event>
 5    1  0.1279376E-008  0.3717384E+03  0.7957747E-01  0.3487939E+00
         13   -1    0    0    0    0  0.00000000000E+00  0.00000000000E+00  0.14999999963E+04  0.15000000000E+04  0.10566000000E+00 0. -1.
        994   -1    0    0    0    0 -0.00000000000E+00 -0.00000000000E+00  0.11368683772E-12  0.17120000000E+03  0.17120000000E+03 0.  0.
         13    1    1    2    0    0 -0.75238030078E+01  0.12397698540E+03  0.69372293445E+03  0.70475415676E+03  0.10566000000E+00 0. -1.
        994    1    1    2    0    0  0.41080444558E+02 -0.68743329526E+02  0.34774962560E+02  0.19217696610E+03  0.17120000000E+03 0.  0.
        998    1    1    2    0    0 -0.33556641551E+02 -0.55233655870E+02  0.77150209927E+03  0.77426887714E+03  0.10000000000E+02 0. -1.
</event>
<event>
 5    1  0.1279376E-008  0.3762702E+03  0.7957747E-01  0.3467561E+00
         13   -1    0    0    0    0  0.00000000000E+00  0.00000000000E+00  0.14999999963E+04  0.15000000000E+04  0.10566000000E+00 0.  1.
        994   -1    0    0    0    0 -0.00000000000E+00 -0.00000000000E+00  0.11368683772E-12  0.17120000000E+03  0.17120000000E+03 0.  0.
         13    1    1    2    0    0 -0.95343686213E+02 -0.16334418974E+02  0.47171614299E+03  0.48153230677E+03  0.10566000000E+00 0.  1.
        994    1    1    2    0    0  0.10444982771E+03  0.17235993588E+02  0.44955201282E+02  0.20624562082E+03  0.17120000000E+03 0.  0.
        998    1    1    2    0    0 -0.91061414963E+01 -0.90157461418E+00  0.98332865201E+03  0.98342207241E+03  0.10000000000E+02 0.  1.
</event>
<event>
 5    1  0.1279376E-008  0.3783207E+03  0.7957747E-01  0.3458503E+00
         13   -1    0    0    0    0  0.00000000000E+00  0.00000000000E+00  0.14999999963E+04  0.15000000000E+04  0.10566000000E+00 0.  1.
        994   -1    0    0    0    0 -0.00000000000E+00 -0.00000000000E+00  0.11368683772E-12  0.17120000000E+03  0.17120000000E+03 0.  0.
         13    1    1    2    0    0 -0.15603992947E+01  0.71976423374E+02  0.43017808274E+03  0.43616078962E+03  0.10566000000E+00 0.  1.
        994    1    1    2    0    0 -0.10844526492E+02 -0.59436769641E+02  0.17353785493E+02  0.18237578570E+03  0.17120000000E+03 0.  0.
        998    1    1    2    0    0  0.12404925787E+02 -0.12539653733E+02  0.10524681280E+04  0.10526634247E+04  0.10000000000E+02 0. -1.
</event>
<event>
 5    1  0.1279376E-008  0.3755215E+03  0.7957747E-01  0.3470894E+00
         13   -1    0    0    0    0  0.00000000000E+00  0.00000000000E+00  0.14999999963E+04  0.15000000000E+04  0.10566000000E+00 0. -1.
        994   -1    0    0    0    0 -0.00000000000E+00 -0.00000000000E+00  0.11368683772E-12  0.17120000000E+03  0.17120000000E+03 0.  0.
         13    1    1    2    0    0 -0.10243043232E+02 -0.43915175619E+01  0.70309718556E+01  0.13177673938E+02  0.10566000000E+00 0. -1.
        994    1    1    2    0    0 -0.98142595166E+01 -0.85017146939E+00  0.67405228485E+01  0.17161560864E+03  0.17120000000E+03 0.  0.
        998    1    1    2    0    0  0.20057302749E+02  0.52416890313E+01  0.14862285016E+04  0.14864067174E+04  0.10000000000E+02 0. -1.
</event>
<event>
 5    1  0.1279376E-008  0.3740826E+03  0.7957747E-01  0.3477336E+00
         13   -1    0    0    0    0  0.00000000000E+00  0.00000000000E+00  0.14999999963E+04  0.15000000000E+04  0.10566000000E+00 0. -1.
        994   -1    0    0    0    0 -0.00000000000E+00 -0.00000000000E+00  0.11368683772E-12  0.17120000000E+03  0.17120000000E+03 0.  0.
         13    1    1    2    0    0 -0.74725982153E+00 -0.17323015954E+02  0.58300193549E+01  0.18293320330E+02  0.10566000000E+00 0. -1.
        994    1    1    2    0    0 -0.35179379121E+01 -0.10753814676E+01  0.13162087685E+02  0.17174461530E+03  0.17120000000E+03 0.  0.
        998    1    1    2    0    0  0.42651977337E+01  0.18398397422E+02  0.14810078892E+04  0.14811620644E+04  0.10000000000E+02 0. -1.
</event>
<event>
 5    1  0.1279376E-008  0.3871508E+03  0.7957747E-01  0.3420601E+00
         13   -1    0    0    0    0  0.00000000000E+00  0.00000000000E+00  0.14999999963E+04  0.15000000000E+04  0.10566000000E+00 0. -1.
        994   -1    0    0    0    0 -0.00000000000E+00 -0.00000000000E+00  0.11368683772E-12  0.17120000000E+03  0.17120000000E+03 0.  0.
         13    1    1    2    0    0 -0.30000668776E+02  0.41905111859E+02  0.57805274514E+02  0.77443782530E+02  0.10566000000E+00 0. -1.
        994    1    1    2    0    0  0.16289736334E+02 -0.37361154143E+02  0.26519186333E+02  0.17797167919E+03  0.17120000000E+03 0.  0.
        998    1    1    2    0    0  0.13710932443E+02 -0.45439577163E+01  0.14156755354E+04  0.14157845383E+04  0.10000000000E+02 0. -1.
</event>
<event>
 5    1  0.1279376E-008  0.3818832E+03  0.7957747E-01  0.3442999E+00
         13   -1    0    0    0    0  0.00000000000E+00  0.00000000000E+00  0.14999999963E+04  0.15000000000E+04  0.10566000000E+00 0.  1.
        994   -1    0    0    0    0 -0.00000000000E+00 -0.00000000000E+00  0.11368683772E-12  0.17120000000E+03  0.17120000000E+03 0.  0.
         13    1    1    2    0    0 -0.10835440173E+02  0.27710013344E+02  0.13601316978E+03  0.13922946930E+03  0.10566000000E+00 0.  1.
        994    1    1    2    0    0  0.13447465080E+02 -0.16068678428E+02  0.46454483194E+01  0.17254001546E+03  0.17120000000E+03 0.  0.
        998    1    1    2    0    0 -0.26120249069E+01 -0.11641334915E+02  0.13593413782E+04  0.13594305152E+04  0.10000000000E+02 0.  1.
</event>
<event>
 5    1  0.1279376E-008  0.3513719E+03  0.7957747E-01  0.3586142E+00
         13   -1    0    0    0    0  0.00000000000E+00  0.00000000000E+00  0.14999999963E+04  0.15000000000E+04  0.10566000000E+00 0.  1.
        994   -1    0    0    0    0 -0.00000000000E+00 -0.00000000000E+00  0.11368683772E-12  0.17120000000E+03  0.17120000000E+03 0.  0.
         13    1    1    2    0    0  0.48710544558E+02 -0.25009580805E+03  0.92702269712E+03  0.96140091663E+03  0.10566000000E+00 0.  1.
        994    1    1    2    0    0 -0.34403188084E+02  0.24169830230E+03  0.25822284517E+03  0.39444914305E+03  0.17120000000E+03 0.  0.
        998    1    1    2    0    0 -0.14307356474E+02  0.83975057507E+01  0.31475445399E+03  0.31534994032E+03  0.10000000000E+02 0. -1.
</event>
<event>
 5    1  0.1279376E-008  0.3711434E+03  0.7957747E-01  0.3490652E+00
         13   -1    0    0    0    0  0.00000000000E+00  0.00000000000E+00  0.14999999963E+04  0.15000000000E+04  0.10566000000E+00 0.  1.
        994   -1    0    0    0    0 -0.00000000000E+00 -0.00000000000E+00  0.11368683772E-12  0.17120000000E+03  0.17120000000E+03 0.  0.
         13    1    1    2    0    0  0.10599606373E+02  0.88838984116E+02  0.27422118751E+03  0.28844754739E+03  0.10566000000E+00 0.  1.
        994    1    1    2    0    0 -0.92726655725E+01 -0.91669010142E+02  0.41969942504E+02  0.19889722427E+03  0.17120000000E+03 0.  0.
        998    1    1    2    0    0 -0.13269408003E+01  0.28300260263E+01  0.11838088663E+04  0.11838552283E+04  0.10000000000E+02 0.  1.
</event>
<event>
 5    1  0.1279376E-008  0.3781931E+03  0.7957747E-01  0.3459064E+00
         13   -1    0    0    0    0  0.00000000000E+00  0.00000000000E+00  0.14999999963E+04  0.15000000000E+04  0.10566000000E+00 0.  1.
        994   -1    0    0    0    0 -0.00000000000E+00 -0.00000000000E+00  0.11368683772E-12  0.17120000000E+03  0.17120000000E+03 0.  0.
         13    1    1    2    0    0  0.12334615210E+02  0.10157559109E+02  0.23005110645E+02  0.28010087813E+02  0.10566000000E+00 0.  1.
        994    1    1    2    0    0 -0.77234367101E+01 -0.12495802683E+02  0.57741228114E+01  0.17192608020E+03  0.17120000000E+03 0.  0.
        998    1    1    2    0    0 -0.46111785002E+01  0.23382435739E+01  0.14712207628E+04  0.14712638320E+04  0.10000000000E+02 0.  1.
</event>
<event>
 5    1  0.1279376E-008  0.3835798E+03  0.7957747E-01  0.3435718E+00
         13   -1    0    0    0    0  0.00000000000E+00  0.00000000000E+00  0.14999999963E+04  0.15000000000E+04  0.10566000000E+00 0. -1.
        994   -1    0    0    0    0 -0.00000000000E+00 -0.00000000000E+00  0.11368683772E-12  0.17120000000E+03  0.17120000000E+03 0.  0.
         13    1    1    2    0    0  0.11644402928E+02  0.13403508660E+02  0.65047786674E+02  0.67427530573E+02  0.10566000000E+00 0. -1.
        994    1    1    2    0    0 -0.90892874346E+01 -0.14195446674E+02  0.32761617406E+01  0.17205899886E+03  0.17120000000E+03 0.  0.
        998    1    1    2    0    0 -0.25551154930E+01  0.79193801388E+00  0.14316760479E+04  0.14317134706E+04  0.10000000000E+02 0. -1.
</event>
<event>
 5    1  0.1279376E-008  0.3698259E+03  0.7957747E-01  0.3496691E+00
         13   -1    0    0    0    0  0.00000000000E+00  0.00000000000E+00  0.14999999963E+04  0.15000000000E+04  0.10566000000E+00 0.  1.
        994   -1    0    0    0    0 -0.00000000000E+00 -0.00000000000E+00  0.11368683772E-12  0.17120000000E+03  0.17120000000E+03 0.  0.
         13    1    1    2    0    0  0.14586684487E+02  0.14719053853E+02  0.18776753866E+02  0.27964255049E+02  0.10566000000E+00 0.  1.
        994    1    1    2    0    0 -0.11802772275E+02 -0.14092386710E+02  0.10529976487E+02  0.17250571353E+03  0.17120000000E+03 0.  0.
        998    1    1    2    0    0 -0.27839122116E+01 -0.62666714307E+00  0.14706932659E+04  0.14707300314E+04  0.10000000000E+02 0.  1.
</event>
<event>
 5    1  0.1279376E-008  0.3783240E+03  0.7957747E-01  0.3458489E+00
         13   -1    0    0    0    0  0.00000000000E+00  0.00000000000E+00  0.14999999963E+04  0.15000000000E+04  0.10566000000E+00 0. -1.
        994   -1    0    0    0    0 -0.00000000000E+00 -0.00000000000E+00  0.11368683772E-12  0.17120000000E+03  0.17120000000E+03 0.  0.
         13    1    1    2    0    0 -0.35652546885E+02 -0.17595348341E+02  0.15551890060E+03  0.16052052825E+03  0.10566000000E+00 0. -1.
        994    1    1    2    0    0  0.29455087469E+02 -0.29640520846E+01  0.79332307634E+01  0.17392171783E+03  0.17120000000E+03 0.  0.
        998    1    1    2    0    0  0.61974594166E+01  0.20559400425E+02  0.13365478649E+04  0.13367577539E+04  0.10000000000E+02 0. -1.
</event>
<event>
 5    1  0.1279376E-008  0.3748507E+03  0.7957747E-01  0.3473891E+00
         13   -1    0    0    0    0  0.00000000000E+00  0.00000000000E+00  0.14999999963E+04  0.15000000000E+04  0.10566000000E+00 0. -1.
        994   -1    0    0    0    0 -0.00000000000E+00 -0.00000000000E+00  0.11368683772E-12  0.17120000000E+03  0.17120000000E+03 0.  0.
         13    1    1    2    0    0 -0.14233342986E+02 -0.13313078231E+02  0.22808973620E+02  0.30001442401E+02  0.10566000000E+00 0. -1.
        994    1    1    2    0    0  0.23279005916E+02  0.52600505105E+02  0.18092543189E+02  0.18150896775E+03  0.17120000000E+03 0.  0.
        998    1    1    2    0    0 -0.90456629307E+01 -0.39287426874E+02  0.14590984795E+04  0.14596895899E+04  0.10000000000E+02 0. -1.
</event>
<event>
 5    1  0.1279376E-008  0.3858486E+03  0.7957747E-01  0.3426081E+00
         13   -1    0    0    0    0  0.00000000000E+00  0.00000000000E+00  0.14999999963E+04  0.15000000000E+04  0.10566000000E+00 0. -1.
        994   -1    0    0    0    0 -0.00000000000E+00 -0.00000000000E+00  0.11368683772E-12  0.17120000000E+03  0.17120000000E+03 0.  0.
         13    1    1    2    0    0 -0.96651481696E+01  0.68385913055E+01  0.56813016447E+02  0.58033709360E+02  0.10566000000E+00 0. -1.
        994    1    1    2    0    0  0.21358584974E+01 -0.18612918249E+02  0.23614324304E+01  0.17223826224E+03  0.17120000000E+03 0.  0.
        998    1    1    2    0    0  0.75292896723E+01  0.11774326944E+02  0.14408255474E+04  0.14409280284E+04  0.10000000000E+02 0. -1.
</event>
<event>
 5    1  0.1279376E-008  0.3838722E+03  0.7957747E-01  0.3434470E+00
         13   -1    0    0    0    0  0.00000000000E+00  0.00000000000E+00  0.14999999963E+04  0.15000000000E+04  0.10566000000E+00 0.  1.
        994   -1    0    0    0    0 -0.00000000000E+00 -0.00000000000E+00  0.11368683772E-12  0.17120000000E+03  0.17120000000E+03 0.  0.
         13    1    1    2    0    0 -0.29609329358E+01 -0.10395748568E+02  0.25540851264E+02  0.27734183952E+02  0.10566000000E+00 0.  1.
        994    1    1    2    0    0  0.30896076408E+01  0.11878536274E+02  0.26885134506E+01  0.17166045964E+03  0.17120000000E+03 0.  0.
        998    1    1    2    0    0 -0.12867470505E+00 -0.14827877054E+01  0.14717706316E+04  0.14718053564E+04  0.10000000000E+02 0.  1.
</event>
<event>
 5    1  0.1279376E-008  0.3832108E+03  0.7957747E-01  0.3437296E+00
         13   -1    0    0    0    0  0.00000000000E+00  0.00000000000E+00  0.14999999963E+04  0.15000000000E+04  0.10566000000E+00 0.  1.
        994   -1    0    0    0    0 -0.00000000000E+00 -0.00000000000E+00  0.11368683772E-12  0.17120000000E+03  0.17120000000E+03 0.  0.
         13    1    1    2    0    0 -0.13805476739E+02  0.24883748077E+02  0.14158389745E+03  0.14441538452E+03  0.10566000000E+00 0.  1.
        994    1    1    2    0    0  0.81012918963E+01 -0.33615494275E+02  0.64861039036E+01  0.17477740681E+03  0.17120000000E+03 0.  0.
        998    1    1    2    0    0  0.57041848424E+01  0.87317461982E+01  0.13519299949E+04  0.13520072087E+04  0.10000000000E+02 0.  1.
</event>
<event>
 5    1  0.1279376E-008  0.3699454E+03  0.7957747E-01  0.3496142E+00
         13   -1    0    0    0    0  0.00000000000E+00  0.00000000000E+00  0.14999999963E+04  0.15000000000E+04  0.10566000000E+00 0. -1.
        994   -1    0    0    0    0 -0.00000000000E+00 -0.00000000000E+00  0.11368683772E-12  0.17120000000E+03  0.17120000000E+03 0.  0.
         13    1    1    2    0    0 -0.87940118792E+01  0.13214192095E+02  0.65765425292E+01  0.17181722653E+02  0.10566000000E+00 0. -1.
        994    1    1    2    0    0  0.94233382111E+01 -0.11301558823E+02  0.11667133965E+02  0.17222684619E+03  0.17120000000E+03 0.  0.
        998    1    1    2    0    0 -0.62932633196E+00 -0.19126332719E+01  0.14817563198E+04  0.14817914312E+04  0.10000000000E+02 0. -1.
</event>
<event>
 5    1  0.1279376E-008  0.3935904E+03  0.7957747E-01  0.3394037E+00
         13   -1    0    0    0    0  0.00000000000E+00  0.00000000000E+00  0.14999999963E+04  0.15000000000E+04  0.10566000000E+00 0. -1.
        994   -1    0    0    0    0 -0.00000000000E+00 -0.00000000000E+00  0.11368683772E-12  0.17120000000E+03  0.17120000000E+03 0.  0.
         13    1    1    2    0    0  0.26078530131E+02 -0.37183271706E+02  0.34342275961E+02  0.56939340625E+02  0.10566000000E+00 0. -1.
        994    1    1    2    0    0 -0.25023778015E+02  0.20143886692E+02  0.27949050684E+02  0.17641585833E+03  0.17120000000E+03 0.  0.
        998    1    1    2    0    0 -0.10547521166E+01  0.17039385014E+02  0.14377086696E+04  0.14378448010E+04  0.10000000000E+02 0. -1.
</event>
<event>
 5    1  0.1279376E-008  0.3697359E+03  0.7957747E-01  0.3497105E+00
         13   -1    0    0    0    0  0.00000000000E+00  0.00000000000E+00  0.14999999963E+04  0.15000000000E+04  0.10566000000E+00 0. -1.
        994   -1    0    0    0    0 -0.00000000000E+00 -0.00000000000E+00  0.11368683772E-12  0.17120000000E+03  0.17120000000E+03 0.  0.
         13    1    1    2    0    0 -0.10150549750E+02  0.10852381194E+02  0.50244696319E+01  0.15686436719E+02  0.10566000000E+00 0. -1.
        994    1    1    2    0    0  0.20485105759E+02 -0.20876945957E+02  0.13793058203E+02  0.17422736549E+03  0.17120000000E+03 0.  0.
        998    1    1    2    0    0 -0.10334556009E+02  0.10024564763E+02  0.14811824684E+04  0.14812861978E+04  0.10000000000E+02 0. -1.
</event>
<event>
 5    1  0.1279376E-008  0.3854057E+03  0.7957747E-01  0.3427954E+00
         13   -1    0    0    0    0  0.00000000000E+00  0.00000000000E+00  0.14999999963E+04  0.15000000000E+04  0.10566000000E+00 0.  1.
        994   -1    0    0    0    0 -0.00000000000E+00 -0.00000000000E+00  0.11368683772E-12  0.17120000000E+03  0.17120000000E+03 0.  0.
         13    1    1    2    0    0  0.45681259512E+01 -0.14598843768E+02  0.92343439071E+02  0.93601901249E+02  0.10566000000E+00 0.  1.
        994    1    1    2    0    0 -0.15807138242E+02 -0.87367738599E+01  0.25009380819E+01  0.17216820708E+03  0.17120000000E+03 0.  0.
        998    1    1    2    0    0  0.11239012291E+02  0.23335617628E+02  0.14051556191E+04  0.14054298917E+04  0.10000000000E+02 0.  1.
</event>
<event>
 5    1  0.1279376E-008  0.3837724E+03  0.7957747E-01  0.3434895E+00
         13   -1    0    0    0    0  0.00000000000E+00  0.00000000000E+00  0.14999999963E+04  0.15000000000E+04  0.10566000000E+00 0. -1.
        994   -1    0    0    0    0 -0.00000000000E+00 -0.00000000000E+00  0.11368683772E-12  0.17120000000E+03  0.17120000000E+03 0.  0.
         13    1    1    2    0    0 -0.11769592425E+02  0.93595532137E+01  0.50203356393E+02  0.52407181754E+02  0.10566000000E+00 0. -1.
        994    1    1    2    0    0  0.62460450442E+01 -0.61930266865E+01  0.24963525264E+01  0.17144398045E+03  0.17120000000E+03 0.  0.
        998    1    1    2    0    0  0.55235473812E+01 -0.31665265272E+01  0.14473002874E+04  0.14473488378E+04  0.10000000000E+02 0. -1.
</event>
<event>
 5    1  0.1279376E-008  0.4103159E+03  0.7957747E-01  0.3328923E+00
         13   -1    0    0    0    0  0.00000000000E+00  0.00000000000E+00  0.14999999963E+04  0.15000000000E+04  0.10566000000E+00 0.  1.
        994   -1    0    0    0    0 -0.00000000000E+00 -0.00000000000E+00  0.11368683772E-12  0.17120000000E+03  0.17120000000E+03 0.  0.
         13    1    1    2    0    0 -0.91761921127E+02 -0.38619050806E+01  0.11028155063E+03  0.14351723260E+03  0.10566000000E+00 0.  1.
        994    1    1    2    0    0  0.78585362235E+02 -0.35824555348E+02  0.65297668130E+02  0.20256426977E+03  0.17120000000E+03 0.  0.
        998    1    1    2    0    0  0.13176558891E+02  0.39686460429E+02  0.13244207775E+04  0.13251184976E+04  0.10000000000E+02 0.  1.
</event>
<event>
 5    1  0.1279376E-008  0.3846904E+03  0.7957747E-01  0.3430986E+00
         13   -1    0    0    0    0  0.00000000000E+00  0.00000000000E+00  0.14999999963E+04  0.15000000000E+04  0.10566000000E+00 0. -1.
        994   -1    0    0    0    0 -0.00000000000E+00 -0.00000000000E+00  0.11368683772E-12  0.17120000000E+03  0.17120000000E+03 0.  0.
         13    1    1    2    0    0  0.10888633918E+02 -0.12633814206E+01  0.32975461243E+02  0.34749830063E+02  0.10566000000E+00 0. -1.
        994    1    1    2    0    0 -0.94263818203E+01  0.61649746137E+01  0.22016675611E+01  0.17158423857E+03  0.17120000000E+03 0.  0.
        998    1    1    2    0    0 -0.14622520976E+01 -0.49015931931E+01  0.14648228675E+04  0.14648659314E+04  0.10000000000E+02 0. -1.
</event>
<event>
 5    1  0.1279376E-008  0.3734051E+03  0.7957747E-01  0.3480386E+00
         13   -1    0    0    0    0  0.00000000000E+00  0.00000000000E+00  0.14999999963E+04  0.15000000000E+04  0.10566000000E+00 0. -1.
        994   -1    0    0    0    0 -0.00000000000E+00 -0.00000000000E+00  0.11368683772E-12  0.17120000000E+03  0.17120000000E+03 0.  0.
         13    1    1    2    0    0  0.30920184697E+02  0.65375789492E+02  0.23940544826E+03  0.25009004677E+03  0.10566000000E+00 0. -1.
        994    1    1    2    0    0 -0.26875778241E+02  0.17666976947E+01  0.15321697347E+02  0.17398167457E+03  0.17120000000E+03 0.  0.
        998    1    1    2    0    0 -0.40444064561E+01 -0.67142487187E+02  0.12452728507E+04  0.12471282787E+04  0.10000000000E+02 0. -1.
</event>
<event>
 5    1  0.1279376E-008  0.3839954E+03  0.7957747E-01  0.3433944E+00
         13   -1    0    0    0    0  0.00000000000E+00  0.00000000000E+00  0.14999999963E+04  0.15000000000E+04  0.10566000000E+00 0. -1.
        994   -1    0    0    0    0 -0.00000000000E+00 -0.00000000000E+00  0.11368683772E-12  0.17120000000E+03  0.17120000000E+03 0.  0.
         13    1    1    2    0    0  0.17789730942E+02 -0.47305118494E+01  0.83284308072E+02  0.85294427745E+02  0.10566000000E+00 0. -1.
        994    1    1    2    0    0 -0.46829368224E+01 -0.28955606978E+01  0.22297658483E+01  0.17130302398E+03  0.17120000000E+03 0.  0.
        998    1    1    2    0    0 -0.13106794119E+02  0.76260725472E+01  0.14144859224E+04  0.14146025483E+04  0.10000000000E+02 0. -1.
</event>
<event>
 5    1  0.1279376E-008  0.3843687E+03  0.7957747E-01  0.3432354E+00
         13   -1    0    0    0    0  0.00000000000E+00  0.00000000000E+00  0.14999999963E+04  0.15000000000E+04  0.10566000000E+00 0. -1.
        994   -1    0    0    0    0 -0.00000000000E+00 -0.00000000000E+00  0.11368683772E-12  0.17120000000E+03  0.17120000000E+03 0.  0.
         13    1    1    2    0    0 -0.14950013029E+02  0.47611318702E+01  0.65037872189E+02  0.66903716258E+02  0.10566000000E+00 0. -1.
        994    1    1    2    0    0  0.69313737550E+01  0.53196877002E+01  0.21955158466E+01  0.17143687850E+03  0.17120000000E+03 0.  0.
        998    1    1    2    0    0  0.80186392738E+01 -0.10080819570E+02  0.14327666082E+04  0.14328594052E+04  0.10000000000E+02 0. -1.
</event>
<event>
 5    1  0.1279376E-008  0.3803580E+03  0.7957747E-01  0.3449601E+00
         13   -1    0    0    0    0  0.00000000000E+00  0.00000000000E+00  0.14999999963E+04  0.15000000000E+04  0.10566000000E+00 0.  1.
        994   -1    0    0    0    0 -0.00000000000E+00 -0.00000000000E+00  0.11368683772E-12  0.17120000000E+03  0.17120000000E+03 0.  0.
         13    1    1    2    0    0 -0.20082306392E+02  0.91861510198E+01  0.62500587603E+02  0.66287397108E+02  0.10566000000E+00 0.  1.
        994    1    1    2    0    0  0.47764428357E+01 -0.28365481517E+01  0.40555699631E+01  0.17133811035E+03  0.17120000000E+03 0.  0.
        998    1    1    2    0    0  0.15305863557E+02 -0.63496028681E+01  0.14334438387E+04  0.14335744925E+04  0.10000000000E+02 0.  1.
</event>
<event>
 5    1  0.1279376E-008  0.3819885E+03  0.7957747E-01  0.3442545E+00
         13   -1    0    0    0    0  0.00000000000E+00  0.00000000000E+00  0.14999999963E+04  0.15000000000E+04  0.10566000000E+00 0.  1.
        994   -1    0    0    0    0 -0.00000000000E+00 -0.00000000000E+00  0.11368683772E-12  0.17120000000E+03  0.17120000000E+03 0.  0.
         13    1    1    2    0    0  0.18757922064E+02 -0.69343180394E+01  0.65047067516E+02  0.68052013661E+02  0.10566000000E+00 0.  1.
        994    1    1    2    0    0 -0.77739059844E+01 -0.52777962749E+01  0.34259772980E+01  0.17149188339E+03  0.17120000000E+03 0.  0.
        998    1    1    2    0    0 -0.10984016080E+02  0.12212114314E+02  0.14315269515E+04  0.14316561030E+04  0.10000000000E+02 0.  1.
</event>
<event>
 5    1  0.1279376E-008  0.3808349E+03  0.7957747E-01  0.3447531E+00
         13   -1    0    0    0    0  0.00000000000E+00  0.00000000000E+00  0.14999999963E+04  0.15000000000E+04  0.10566000000E+00 0. -1.
        994   -1    0    0    0    0 -0.00000000000E+00 -0.00000000000E+00  0.11368683772E-12  0.17120000000E+03  0.17120000000E+03 0.  0.
         13    1    1    2    0    0 -0.39835280357E+02  0.21586373123E+01  0.20440610260E+03  0.20826275524E+03  0.10566000000E+00 0. -1.
        994    1    1    2    0    0  0.28403331004E+02  0.54984433504E-01  0.64064006545E+01  0.17365838363E+03  0.17120000000E+03 0.  0.
        998    1    1    2    0    0  0.11431949354E+02 -0.22136217458E+01  0.12891874930E+04  0.12892788611E+04  0.10000000000E+02 0. -1.
</event>
<event>
 5    1  0.1279376E-008  0.3800002E+03  0.7957747E-01  0.3451158E+00
         13   -1    0    0    0    0  0.00000000000E+00  0.00000000000E+00  0.14999999963E+04  0.15000000000E+04  0.10566000000E+00 0.  1.
        994   -1    0    0    0    0 -0.00000000000E+00 -0.00000000000E+00  0.11368683772E-12  0.17120000000E+03  0.17120000000E+03 0.  0.
         13    1    1    2    0    0 -0.11197073532E+02 -0.86732630787E+01  0.22288008763E+02  0.26407696734E+02  0.10566000000E+00 0.  1.
        994    1    1    2    0    0  0.98065629335E+01  0.10755538752E+02  0.48415676357E+01  0.17188580822E+03  0.17120000000E+03 0.  0.
        998    1    1    2    0    0  0.13905105985E+01 -0.20822756736E+01  0.14728704199E+04  0.14729064950E+04  0.10000000000E+02 0.  1.
</event>
<event>
 5    1  0.1279376E-008  0.3854771E+03  0.7957747E-01  0.3427651E+00
         13   -1    0    0    0    0  0.00000000000E+00  0.00000000000E+00  0.14999999963E+04  0.15000000000E+04  0.10566000000E+00 0.  1.
        994   -1    0    0    0    0 -0.00000000000E+00 -0.00000000000E+00  0.11368683772E-12  0.17120000000E+03  0.17120000000E+03 0.  0.
         13    1    1    2    0    0 -0.12072785104E+02  0.71401537019E+01  0.69551080559E+02  0.70951377055E+02  0.10566000000E+00 0.  1.
        994    1    1    2    0    0  0.18148489116E+02  0.64053249166E+01  0.26106302529E+01  0.17229814635E+03  0.17120000000E+03 0.  0.
        998    1    1    2    0    0 -0.60757040115E+01 -0.13545478619E+02  0.14278382855E+04  0.14279504766E+04  0.10000000000E+02 0.  1.
</event>
<event>
 5    1  0.1279376E-008  0.3843482E+03  0.7957747E-01  0.3432441E+00
         13   -1    0    0    0    0  0.00000000000E+00  0.00000000000E+00  0.14999999963E+04  0.15000000000E+04  0.10566000000E+00 0. -1.
        994   -1    0    0    0    0 -0.00000000000E+00 -0.00000000000E+00  0.11368683772E-12  0.17120000000E+03  0.17120000000E+03 0.  0.
         13    1    1    2    0    0  0.10896615227E+02  0.82268725686E+00  0.29718610207E+02  0.31664175253E+02  0.10566000000E+00 0. -1.
        994    1    1    2    0    0 -0.10380713441E+02 -0.11391364159E+01  0.23135605564E+01  0.17153381418E+03  0.17120000000E+03 0.  0.
        998    1    1    2    0    0 -0.51590178661E+00  0.31644915900E+00  0.14679678255E+04  0.14680020106E+04  0.10000000000E+02 0. -1.
</event>
<event>
 5    1  0.1279376E-008  0.3817108E+03  0.7957747E-01  0.3443743E+00
         13   -1    0    0    0    0  0.00000000000E+00  0.00000000000E+00  0.14999999963E+04  0.15000000000E+04  0.10566000000E+00 0.  1.
        994   -1    0    0    0    0 -0.00000000000E+00 -0.00000000000E+00  0.11368683772E-12  0.17120000000E+03  0.17120000000E+03 0.  0.
         13    1    1    2    0    0  0.16307738278E+02 -0.15134719330E+02  0.73135348859E+02  0.76444702064E+02  0.10566000000E+00 0.  1.
        994    1    1    2    0    0 -0.10655750601E+02  0.14960523008E+02  0.43942701274E+01  0.17223853192E+03  0.17120000000E+03 0.  0.
        998    1    1    2    0    0 -0.56519876771E+01  0.17419632144E+00  0.14224703773E+04  0.14225167660E+04  0.10000000000E+02 0.  1.
</event>
<event>
 5    1  0.1279376E-008  0.3761393E+03  0.7957747E-01  0.3468143E+00
         13   -1    0    0    0    0  0.00000000000E+00  0.00000000000E+00  0.14999999963E+04  0.15000000000E+04  0.10566000000E+00 0.  1.
        994   -1    0    0    0    0 -0.00000000000E+00 -0.00000000000E+00  0.11368683772E-12  0.17120000000E+03  0.17120000000E+03 0.  0.
         13    1    1    2    0    0 -0.10160356958E+02 -0.77950886879E+02  0.39928894227E+03  0.40695361432E+03  0.10566000000E+00 0.  1.
        994    1    1    2    0    0  0.34405562102E+01  0.70915064661E+02  0.23359411258E+02  0.18680440551E+03  0.17120000000E+03 0.  0.
        998    1    1    2    0    0  0.67198007479E+01  0.70358222176E+01  0.10773516427E+04  0.10774419802E+04  0.10000000000E+02 0.  1.
</event>
<event>
 5    1  0.1279376E-008  0.3847677E+03  0.7957747E-01  0.3430658E+00
         13   -1    0    0    0    0  0.00000000000E+00  0.00000000000E+00  0.14999999963E+04  0.15000000000E+04  0.10566000000E+00 0.  1.
        994   -1    0    0    0    0 -0.00000000000E+00 -0.00000000000E+00  0.11368683772E-12  0.17120000000E+03  0.17120000000E+03 0.  0.
         13    1    1    2    0    0  0.24848938237E+01 -0.10306732326E+02  0.30579425874E+02  0.32365349981E+02  0.10566000000E+00 0.  1.
        994    1    1    2    0    0 -0.29485639769E+00  0.17399659844E+02  0.27428291550E+01  0.17210403312E+03  0.17120000000E+03 0.  0.
        998    1    1    2    0    0 -0.21900374260E+01 -0.70929275180E+01  0.14666777412E+04  0.14667306169E+04  0.10000000000E+02 0.  1.
</event>
<event>
 5    1  0.1279376E-008  0.3739524E+03  0.7957747E-01  0.3477922E+00
         13   -1    0    0    0    0  0.00000000000E+00  0.00000000000E+00  0.14999999963E+04  0.15000000000E+04  0.10566000000E+00 0.  1.
        994   -1    0    0    0    0 -0.00000000000E+00 -0.00000000000E+00  0.11368683772E-12  0.17120000000E+03  0.17120000000E+03 0.  0.
         13    1    1    2    0    0 -0.55068370862E+02 -0.10382678798E+03  0.38872076934E+03  0.40609897199E+03  0.10566000000E+00 0.  1.
        994    1    1    2    0    0  0.64235078628E+02  0.95189888348E+02  0.61397512337E+02  0.21509615220E+03  0.17120000000E+03 0.  0.
        998    1    1    2    0    0 -0.91667077661E+01  0.86368996343E+01  0.10498817146E+04  0.10500048758E+04  0.10000000000E+02 0.  1.
</event>
<event>
 5    1  0.1279376E-008  0.3832144E+03  0.7957747E-01  0.3437281E+00
         13   -1    0    0    0    0  0.00000000000E+00  0.00000000000E+00  0.14999999963E+04  0.15000000000E+04  0.10566000000E+00 0. -1.
        994   -1    0    0    0    0 -0.00000000000E+00 -0.00000000000E+00  0.11368683772E-12  0.17120000000E+03  0.17120000000E+03 0.  0.
         13    1    1    2    0    0  0.31192403592E+02  0.43044253498E+02  0.72192121416E+02  0.89652034888E+02  0.10566000000E+00 0. -1.
        994    1    1    2    0    0 -0.80970432993E+01 -0.37240107913E+02  0.23448389557E+02  0.17695099525E+03  0.17120000000E+03 0.  0.
        998    1    1    2    0    0 -0.23095360293E+02 -0.58041455849E+01  0.14043594853E+04  0.14045969699E+04  0.10000000000E+02 0. -1.
</event>
<event>
 5    1  0.1279376E-008  0.3845201E+03  0.7957747E-01  0.3431710E+00
         13   -1    0    0    0    0  0.00000000000E+00  0.00000000000E+00  0.14999999963E+04  0.15000000000E+04  0.10566000000E+00 0. -1.
        994   -1    0    0    0    0 -0.00000000000E+00 -0.00000000000E+00  0.11368683772E-12  0.17120000000E+03  0.17120000000E+03 0.  0.
         13    1    1    2    0    0  0.18990694270E+02  0.31465263998E+01  0.10312704486E+03  0.10490827252E+03  0.10566000000E+00 0. -1.
        994    1    1    2    0    0 -0.40361725156E+01 -0.20169423926E+02  0.32634184689E+01  0.17246212990E+03  0.17120000000E+03 0.  0.
        998    1    1    2    0    0 -0.14954521754E+02  0.17022897526E+02  0.13936095330E+04  0.13938295976E+04  0.10000000000E+02 0. -1.
</event>
<event>
 5    1  0.1279376E-008  0.3851360E+03  0.7957747E-01  0.3429095E+00
         13   -1    0    0    0    0  0.00000000000E+00  0.00000000000E+00  0.14999999963E+04  0.15000000000E+04  0.10566000000E+00 0. -1.
        994   -1    0    0    0    0 -0.00000000000E+00 -0.00000000000E+00  0.11368683772E-12  0.17120000000E+03  0.17120000000E+03 0.  0.
         13    1    1    2    0    0 -0.11470341218E+02 -0.76592700056E+01  0.60130163026E+02  0.61691821291E+02  0.10566000000E+00 0. -1.
        994    1    1    2    0    0  0.14276575906E+02 -0.85612798512E+00  0.22353045688E+01  0.17181091398E+03  0.17120000000E+03 0.  0.
        998    1    1    2    0    0 -0.28062346889E+01  0.85153979907E+01  0.14376345287E+04  0.14376972647E+04  0.10000000000E+02 0. -1.
</event>
<event>
 5    1  0.1279376E-008  0.3855051E+03  0.7957747E-01  0.3427533E+00
         13   -1    0    0    0    0  0.00000000000E+00  0.00000000000E+00  0.14999999963E+04  0.15000000000E+04  0.10566000000E+00 0.  1.
        994   -1    0    0    0    0 -0.00000000000E+00 -0.00000000000E+00  0.11368683772E-12  0.17120000000E+03  0.17120000000E+03 0.  0.
         13    1    1    2    0    0  0.94673519864E+01 -0.13824214949E+02  0.96353023348E+02  0.97799059019E+02  0.10566000000E+00 0.  1.
        994    1    1    2    0    0 -0.12761349655E+02  0.13012388224E+02  0.24709554460E+01  0.17218513267E+03  0.17120000000E+03 0.  0.
        998    1    1    2    0    0  0.32939976681E+01  0.81182672511E+00  0.14011760175E+04  0.14012158083E+04  0.10000000000E+02 0.  1.
</event>
<event>
 5    1  0.1279376E-008  0.3849291E+03  0.7957747E-01  0.3429973E+00
         13   -1    0    0    0    0  0.00000000000E+00  0.00000000000E+00  0.14999999963E+04  0.15000000000E+04  0.10566000000E+00 0. -1.
        994   -1    0    0    0    0 -0.00000000000E+00 -0.00000000000E+00  0.11368683772E-12  0.17120000000E+03  0.17120000000E+03 0.  0.
         13    1    1    2    0    0  0.25163278673E+02  0.32288475017E+02  0.23639318676E+03  0.23991141307E+03  0.10566000000E+00 0. -1.
        994    1    1    2    0    0 -0.68769387620E+02 -0.66656872365E+02  0.32442491612E+02  0.19883239819E+03  0.17120000000E+03 0.  0.
        998    1    1    2    0    0  0.43606108947E+02  0.34368397348E+02  0.12311643179E+04  0.12324561887E+04  0.10000000000E+02 0. -1.
</event>
<event>
 5    1  0.1279376E-008  0.3781760E+03  0.7957747E-01  0.3459139E+00
         13   -1    0    0    0    0  0.00000000000E+00  0.00000000000E+00  0.14999999963E+04  0.15000000000E+04  0.10566000000E+00 0. -1.
        994   -1    0    0    0    0 -0.00000000000E+00 -0.00000000000E+00  0.11368683772E-12  0.17120000000E+03  0.17120000000E+03 0.  0.
         13    1    1    2    0    0 -0.12865680116E+02  0.35036273275E+01  0.15186009648E+02  0.20209581449E+02  0.10566000000E+00 0. -1.
        994    1    1    2    0    0  0.14336155339E+02 -0.38938554514E+01  0.57993074980E+01  0.17194115106E+03  0.17120000000E+03 0.  0.
        998    1    1    2    0    0 -0.14704752229E+01  0.39022812395E+00  0.14790146791E+04  0.14790492675E+04  0.10000000000E+02 0. -1.
</event>
<event>
 5    1  0.1279376E-008  0.3709419E+03  0.7957747E-01  0.3491573E+00
         13   -1    0    0    0    0  0.00000000000E+00  0.00000000000E+00  0.14999999963E+04  0.15000000000E+04  0.10566000000E+00 0. -1.
        994   -1    0    0    0    0 -0.00000000000E+00 -0.00000000000E+00  0.11368683772E-12  0.17120000000E+03  0.17120000000E+03 0.  0.
         13    1    1    2    0    0  0.17366907435E+02  0.73002859707E+01  0.10160492537E+02  0.21404448643E+02  0.10566000000E+00 0. -1.
        994    1    1    2    0    0 -0.33140169336E+02  0.15485738999E+02  0.16145709647E+02  0.17580728903E+03  0.17120000000E+03 0.  0.
        998    1    1    2    0    0  0.15773261901E+02 -0.22786024970E+02  0.14736937941E+04  0.14739882623E+04  0.10000000000E+02 0. -1.
</event>
<event>
 5    1  0.1279376E-008  0.3721538E+03  0.7957747E-01  0.3486051E+00
         13   -1    0    0    0    0  0.00000000000E+00  0.00000000000E+00  0.14999999963E+04  0.15000000000E+04  0.10566000000E+00 0.  1.
        994   -1    0    0    0    0 -0.00000000000E+00 -0.00000000000E+00  0.11368683772E-12  0.17120000000E+03  0.17120000000E+03 0.  0.
         13    1    1    2    0    0  0.28192064922E+02 -0.21210511248E+02  0.71662453506E+02  0.79876133597E+02  0.10566000000E+00 0.  1.
        994    1    1    2    0    0 -0.39731932013E+02 -0.37249455558E+01  0.13633148080E+02  0.17631733995E+03  0.17120000000E+03 0.  0.
        998    1    1    2    0    0  0.11539867091E+02  0.24935456803E+02  0.14147043947E+04  0.14150065265E+04  0.10000000000E+02 0.  1.
</event>
<event>
 5    1  0.1279376E-008  0.3769744E+03  0.7957747E-01  0.3464439E+00
         13   -1    0    0    0    0  0.00000000000E+00  0.00000000000E+00  0.14999999963E+04  0.15000000000E+04  0.10566000000E+00 0. -1.
        994   -1    0    0    0    0 -0.00000000000E+00 -0.00000000000E+00  0.11368683772E-12  0.17120000000E+03  0.17120000000E+03 0.  0.
         13    1    1    2    0    0 -0.79951553440E+02  0.69623927561E+02  0.37592602180E+03  0.39058946122E+03  0.10566000000E+00 0. -1.
        994    1    1    2    0    0  0.57757734512E+02 -0.30552395321E+02  0.30138886961E+02  0.18570728920E+03  0.17120000000E+03 0.  0.
        998    1    1    2    0    0  0.22193818928E+02 -0.39071532239E+02  0.10939350875E+04  0.10949032496E+04  0.10000000000E+02 0. -1.
</event>
<event>
 5    1  0.1279376E-008  0.3833496E+03  0.7957747E-01  0.3436702E+00
         13   -1    0    0    0    0  0.00000000000E+00  0.00000000000E+00  0.14999999963E+04  0.15000000000E+04  0.10566000000E+00 0. -1.
        994   -1    0    0    0    0 -0.00000000000E+00 -0.00000000000E+00  0.11368683772E-12  0.17120000000E+03  0.17120000000E+03 0.  0.
         13    1    1    2    0    0 -0.13895764809E+01 -0.29626568439E+02  0.16018780906E+02  0.33708707866E+02  0.10566000000E+00 0. -1.
        994    1    1    2    0    0  0.59752268496E+01  0.37132954375E+02  0.23386523667E+02  0.17683588190E+03  0.17120000000E+03 0.  0.
        998    1    1    2    0    0 -0.45856503687E+01 -0.75063859368E+01  0.14605946917E+04  0.14606554102E+04  0.10000000000E+02 0. -1.
</event>
<event>
 5    1  0.1279376E-008  0.3771273E+03  0.7957747E-01  0.3463763E+00
         13   -1    0    0    0    0  0.00000000000E+00  0.00000000000E+00  0.14999999963E+04  0.15000000000E+04  0.10566000000E+00 0. -1.
        994   -1    0    0    0    0 -0.00000000000E+00 -0.00000000000E+00  0.11368683772E-12  0.17120000000E+03  0.17120000000E+03 0.  0.
         13    1    1    2    0    0 -0.72015868486E+02  0.65135333561E+02  0.52129094580E+03  0.53025763392E+03  0.10566000000E+00 0. -1.
        994    1    1    2    0    0  0.74729428440E+02 -0.66198984725E+02  0.40003974137E+02  0.20217950193E+03  0.17120000000E+03 0.  0.
        998    1    1    2    0    0 -0.27135599540E+01  0.10636511639E+01  0.93870507634E+03  0.93876286415E+03  0.10000000000E+02 0. -1.
</event>
<event>
 5    1  0.1279376E-008  0.3740976E+03  0.7957747E-01  0.3477269E+00
         13   -1    0    0    0    0  0.00000000000E+00  0.00000000000E+00  0.14999999963E+04  0.15000000000E+04  0.10566000000E+00 0.  1.
        994   -1    0    0    0    0 -0.00000000000E+00 -0.00000000000E+00  0.11368683772E-12  0.17120000000E+03  0.17120000000E+03 0.  0.
         13    1    1    2    0    0 -0.31342990028E+02  0.14993040712E+02  0.77322449833E+02  0.84769963465E+02  0.10566000000E+00 0.  1.
        994    1    1    2    0    0  0.40664238201E+02 -0.18683277830E+01  0.12813828171E+02  0.17643895576E+03  0.17120000000E+03 0.  0.
        998    1    1    2    0    0 -0.93212481727E+01 -0.13124712929E+02  0.14098637183E+04  0.14099910808E+04  0.10000000000E+02 0.  1.
</event>
<event>
 5    1  0.1279376E-008  0.3774647E+03  0.7957747E-01  0.3462273E+00
         13   -1    0    0    0    0  0.00000000000E+00  0.00000000000E+00  0.14999999963E+04  0.15000000000E+04  0.10566000000E+00 0. -1.
        994   -1    0    0    0    0 -0.00000000000E+00 -0.00000000000E+00  0.11368683772E-12  0.17120000000E+03  0.17120000000E+03 0.  0.
         13    1    1    2    0    0 -0.29572490220E+02 -0.11092407644E+02  0.84639363309E+02  0.90340504042E+02  0.10566000000E+00 0. -1.
        994    1    1    2    0    0  0.31241054191E+02  0.14282199429E+02  0.94067162920E+01  0.17486540824E+03  0.17120000000E+03 0.  0.
        998    1    1    2    0    0 -0.16685639710E+01 -0.31897917850E+01  0.14059539167E+04  0.14059940877E+04  0.10000000000E+02 0. -1.
</event>
<event>
 5    1  0.1279376E-008  0.3803367E+03  0.7957747E-01  0.3449694E+00
         13   -1    0    0    0    0  0.00000000000E+00  0.00000000000E+00  0.14999999963E+04  0.15000000000E+04  0.10566000000E+00 0. -1.
        994   -1    0    0    0    0 -0.00000000000E+00 -0.00000000000E+00  0.11368683772E-12  0.17120000000E+03  0.17120000000E+03 0.  0.
         13    1    1    2    0    0  0.25191125237E+02  0.29218985131E+02  0.16988119590E+03  0.17420669840E+03  0.10566000000E+00 0. -1.
        994    1    1    2    0    0 -0.26284772258E+02 -0.25082728851E+02  0.83837193465E+01  0.17521346777E+03  0.17120000000E+03 0.  0.
        998    1    1    2    0    0  0.10936470207E+01 -0.41362562799E+01  0.13217350810E+04  0.13217798338E+04  0.10000000000E+02 0. -1.
</event>
<event>
 5    1  0.1279376E-008  0.4363028E+03  0.7957747E-01  0.3237527E+00
         13   -1    0    0    0    0  0.00000000000E+00  0.00000000000E+00  0.14999999963E+04  0.15000000000E+04  0.10566000000E+00 0. -1.
        994   -1    0    0    0    0 -0.00000000000E+00 -0.00000000000E+00  0.11368683772E-12  0.17120000000E+03  0.17120000000E+03 0.  0.
         13    1    1    2    0    0  0.75335147658E+02 -0.36476654052E+02  0.52701409229E+02  0.98910972406E+02  0.10566000000E+00 0. -1.
        994    1    1    2    0    0 -0.67165494355E+02  0.20751899552E+02  0.74761324068E+02  0.19960095326E+03  0.17120000000E+03 0.  0.
        998    1    1    2    0    0 -0.81696533036E+01  0.15724754500E+02  0.13725372630E+04  0.13726880743E+04  0.10000000000E+02 0. -1.
</event>
<event>
 5    1  0.1279376E-008  0.3717659E+03  0.7957747E-01  0.3487814E+00
         13   -1    0    0    0    0  0.00000000000E+00  0.00000000000E+00  0.14999999963E+04  0.15000000000E+04  0.10566000000E+00 0.  1.
        994   -1    0    0    0    0 -0.00000000000E+00 -0.00000000000E+00  0.11368683772E-12  0.17120000000E+03  0.17120000000E+03 0.  0.
         13    1    1    2    0    0 -0.82675349436E+01 -0.96009528500E+01  0.56279038968E+01  0.13864158683E+02  0.10566000000E+00 0.  1.
        994    1    1    2    0    0  0.18544022538E+02  0.10534526239E+02  0.99137207316E+01  0.17280792480E+03  0.17120000000E+03 0.  0.
        998    1    1    2    0    0 -0.10276487594E+02 -0.93357338882E+00  0.14844583717E+04  0.14845279165E+04  0.10000000000E+02 0.  1.
</event>
<event>
 5    1  0.1279376E-008  0.3826798E+03  0.7957747E-01  0.3439572E+00
         13   -1    0    0    0    0  0.00000000000E+00  0.00000000000E+00  0.14999999963E+04  0.15000000000E+04  0.10566000000E+00 0.  1.
        994   -1    0    0    0    0 -0.00000000000E+00 -0.00000000000E+00  0.11368683772E-12  0.17120000000E+03  0.17120000000E+03 0.  0.
         13    1    1    2    0    0  0.20072221096E+02 -0.10337015794E+02  0.87418206217E+02  0.90286775872E+02  0.10566000000E+00 0.  1.
        994    1    1    2    0    0 -0.17410493910E+02  0.10834861631E+02  0.41811358606E+01  0.17247446600E+03  0.17120000000E+03 0.  0.
        998    1    1    2    0    0 -0.26617271859E+01 -0.49784583685E+00  0.14084006542E+04  0.14084387581E+04  0.10000000000E+02 0.  1.
</event>
<event>
 5    1  0.1279376E-008  0.3688234E+03  0.7957747E-01  0.3501316E+00
         13   -1    0    0    0    0  0.00000000000E+00  0.00000000000E+00  0.14999999963E+04  0.15000000000E+04  0.10566000000E+00 0.  1.
        994   -1    0    0    0    0 -0.00000000000E+00 -0.00000000000E+00  0.11368683772E-12  0.17120000000E+03  0.17120000000E+03 0.  0.
         13    1    1    2    0    0  0.61844021283E+02  0.11540156711E+02  0.24429657883E+03  0.25226709611E+03  0.10566000000E+00 0.  1.
        994    1    1    2    0    0  0.46466081298E+01 -0.29454323224E+02  0.12978476760E+02  0.17426138121E+03  0.17120000000E+03 0.  0.
        998    1    1    2    0    0 -0.66490629412E+02  0.17914166513E+02  0.12427249407E+04  0.12446715227E+04  0.10000000000E+02 0.  1.
</event>
<event>
 5    1  0.1279376E-008  0.3804522E+03  0.7957747E-01  0.3449192E+00
         13   -1    0    0    0    0  0.00000000000E+00  0.00000000000E+00  0.14999999963E+04  0.15000000000E+04  0.10566000000E+00 0.  1.
        994   -1    0    0    0    0 -0.00000000000E+00 -0.00000000000E+00  0.11368683772E-12  0.17120000000E+03  0.17120000000E+03 0.  0.
         13    1    1    2    0    0 -0.18373059849E+02  0.20505466303E+02  0.11329248092E+03  0.11659005478E+03  0.10566000000E+00 0.  1.
        994    1    1    2    0    0 -0.65048113577E+01  0.10991931709E+02  0.44497885349E+01  0.17173344389E+03  0.17120000000E+03 0.  0.
        998    1    1    2    0    0  0.24877871207E+02 -0.31497398012E+02  0.13822577268E+04  0.13828765013E+04  0.10000000000E+02 0.  1.
</event>
<event>
 5    1  0.1279376E-008  0.3718698E+03  0.7957747E-01  0.3487341E+00
         13   -1    0    0    0    0  0.00000000000E+00  0.00000000000E+00  0.14999999963E+04  0.15000000000E+04  0.10566000000E+00 0. -1.
        994   -1    0    0    0    0 -0.00000000000E+00 -0.00000000000E+00  0.11368683772E-12  0.17120000000E+03  0.17120000000E+03 0.  0.
         13    1    1    2    0    0 -0.10520092055E+03  0.87136622991E+01  0.46464045462E+03  0.47648077068E+03  0.10566000000E+00 0. -1.
        994    1    1    2    0    0  0.10129358054E+03 -0.34569023756E+02  0.48740242750E+02  0.20770281203E+03  0.17120000000E+03 0.  0.
        998    1    1    2    0    0  0.39073400127E+01  0.25855361456E+02  0.98661929891E+03  0.98701641729E+03  0.10000000000E+02 0. -1.
</event>
<event>
 5    1  0.1279376E-008  0.3804520E+03  0.7957747E-01  0.3449193E+00
         13   -1    0    0    0    0  0.00000000000E+00  0.00000000000E+00  0.14999999963E+04  0.15000000000E+04  0.10566000000E+00 0.  1.
        994   -1    0    0    0    0 -0.00000000000E+00 -0.00000000000E+00  0.11368683772E-12  0.17120000000E+03  0.17120000000E+03 0.  0.
         13    1    1    2    0    0 -0.24016842282E+02  0.94409109790E+01  0.86050050428E+02  0.89836305891E+02  0.10566000000E+00 0.  1.
        994    1    1    2    0    0  0.88352451256E+01 -0.72310515799E+01  0.43403639964E+01  0.17163516080E+03  0.17120000000E+03 0.  0.
        998    1    1    2    0    0  0.15181597157E+02 -0.22098593991E+01  0.14096095819E+04  0.14097285333E+04  0.10000000000E+02 0.  1.
</event>
<event>
 5    1  0.1279376E-008  0.3821048E+03  0.7957747E-01  0.3442045E+00
         13   -1    0    0    0    0  0.00000000000E+00  0.00000000000E+00  0.14999999963E+04  0.15000000000E+04  0.10566000000E+00 0.  1.
        994   -1    0    0    0    0 -0.00000000000E+00 -0.00000000000E+00  0.11368683772E-12  0.17120000000E+03  0.17120000000E+03 0.  0.
         13    1    1    2    0    0  0.85406245120E+01 -0.19883180616E+02  0.75205334858E+02  0.78256863556E+02  0.10566000000E+00 0.  1.
        994    1    1    2    0    0 -0.35098403554E+01  0.13276390465E+02  0.37007163357E+01  0.17178974598E+03  0.17120000000E+03 0.  0.
        998    1    1    2    0    0 -0.50307841566E+01  0.66067901517E+01  0.14210939451E+04  0.14211533905E+04  0.10000000000E+02 0.  1.
</event>
<event>
 5    1  0.1279376E-008  0.3789947E+03  0.7957747E-01  0.3455548E+00
         13   -1    0    0    0    0  0.00000000000E+00  0.00000000000E+00  0.14999999963E+04  0.15000000000E+04  0.10566000000E+00 0. -1.
        994   -1    0    0    0    0 -0.00000000000E+00 -0.00000000000E+00  0.11368683772E-12  0.17120000000E+03  0.17120000000E+03 0.  0.
         13    1    1    2    0    0 -0.11572157779E+02  0.63717523449E+01  0.16596972476E+02  0.21212843350E+02  0.10566000000E+00 0. -1.
        994    1    1    2    0    0  0.10862887836E+02 -0.10179284673E+02  0.53851635624E+01  0.17193039334E+03  0.17120000000E+03 0.  0.
        998    1    1    2    0    0  0.70926994330E+00  0.38075323279E+01  0.14780178602E+04  0.14780567633E+04  0.10000000000E+02 0. -1.
</event>
<event>
 5    1  0.1279376E-008  0.3834465E+03  0.7957747E-01  0.3436288E+00
         13   -1    0    0    0    0  0.00000000000E+00  0.00000000000E+00  0.14999999963E+04  0.15000000000E+04  0.10566000000E+00 0.  1.
        994   -1    0    0    0    0 -0.00000000000E+00 -0.00000000000E+00  0.11368683772E-12  0.17120000000E+03  0.17120000000E+03 0.  0.
         13    1    1    2    0    0 -0.18965607842E+02  0.55128548867E+01  0.88755390157E+02  0.90926433427E+02  0.10566000000E+00 0.  1.
        994    1    1    2    0    0 -0.49529881632E+01 -0.67125645775E+01  0.26334503980E+01  0.17142335219E+03  0.17120000000E+03 0.  0.
        998    1    1    2    0    0  0.23918596006E+02  0.11997096908E+01  0.14086111557E+04  0.14088502144E+04  0.10000000000E+02 0.  1.
</event>
<event>
 5    1  0.1279376E-008  0.3715313E+03  0.7957747E-01  0.3488883E+00
         13   -1    0    0    0    0  0.00000000000E+00  0.00000000000E+00  0.14999999963E+04  0.15000000000E+04  0.10566000000E+00 0.  1.
        994   -1    0    0    0    0 -0.00000000000E+00 -0.00000000000E+00  0.11368683772E-12  0.17120000000E+03  0.17120000000E+03 0.  0.
         13    1    1    2    0    0  0.10328324533E+03  0.40994319637E+01  0.44858542710E+03  0.46034023361E+03  0.10566000000E+00 0.  1.
        994    1    1    2    0    0 -0.99033252219E+02 -0.74017260486E+01  0.43196522064E+02  0.20257776312E+03  0.17120000000E+03 0.  0.
        998    1    1    2    0    0 -0.42499931078E+01  0.33022940849E+01  0.10082180471E+04  0.10082820033E+04  0.10000000000E+02 0.  1.
</event>
<event>
 5    1  0.1279376E-008  0.3844931E+03  0.7957747E-01  0.3431825E+00
         13   -1    0    0    0    0  0.00000000000E+00  0.00000000000E+00  0.14999999963E+04  0.15000000000E+04  0.10566000000E+00 0. -1.
        994   -1    0    0    0    0 -0.00000000000E+00 -0.00000000000E+00  0.11368683772E-12  0.17120000000E+03  0.17120000000E+03 0.  0.
         13    1    1    2    0    0 -0.26930862109E+02  0.12886575423E+03  0.47689393272E+03  0.49473173355E+03  0.10566000000E+00 0. -1.
        994    1    1    2    0    0  0.48041121520E+02 -0.64123538119E+02  0.42874386371E+02  0.19382319393E+03  0.17120000000E+03 0.  0.
        998    1    1    2    0    0 -0.21110259411E+02 -0.64742216110E+02  0.98023167719E+03  0.98264507253E+03  0.10000000000E+02 0. -1.
</event>
<event>
 5    1  0.1279376E-008  0.3687969E+03  0.7957747E-01  0.3501439E+00
         13   -1    0    0    0    0  0.00000000000E+00  0.00000000000E+00  0.14999999963E+04  0.15000000000E+04  0.10566000000E+00 0. -1.
        994   -1    0    0    0    0 -0.00000000000E+00 -0.00000000000E+00  0.11368683772E-12  0.17120000000E+03  0.17120000000E+03 0.  0.
         13    1    1    2    0    0 -0.44129263725E+02  0.13124394307E+02  0.88460407782E+02  0.99724102162E+02  0.10566000000E+00 0. -1.
        994    1    1    2    0    0  0.53431296283E+02 -0.39144000323E+02  0.25737005586E+02  0.18536178042E+03  0.17120000000E+03 0.  0.
        998    1    1    2    0    0 -0.93020325575E+01  0.26019606016E+02  0.13858025829E+04  0.13861141174E+04  0.10000000000E+02 0. -1.
</event>
<event>
 5    1  0.1279376E-008  0.3849962E+03  0.7957747E-01  0.3429688E+00
         13   -1    0    0    0    0  0.00000000000E+00  0.00000000000E+00  0.14999999963E+04  0.15000000000E+04  0.10566000000E+00 0. -1.
        994   -1    0    0    0    0 -0.00000000000E+00 -0.00000000000E+00  0.11368683772E-12  0.17120000000E+03  0.17120000000E+03 0.  0.
         13    1    1    2    0    0  0.12032839102E+02 -0.61999218724E+01  0.56307054870E+02  0.57911344660E+02  0.10566000000E+00 0. -1.
        994    1    1    2    0    0 -0.90519821273E+01  0.81592761740E+00  0.19037486643E+01  0.17145165026E+03  0.17120000000E+03 0.  0.
        998    1    1    2    0    0 -0.29808569743E+01  0.53839942550E+01  0.14417891927E+04  0.14418370051E+04  0.10000000000E+02 0. -1.
</event>
<event>
 5    1  0.1279376E-008  0.3853447E+03  0.7957747E-01  0.3428212E+00
         13   -1    0    0    0    0  0.00000000000E+00  0.00000000000E+00  0.14999999963E+04  0.15000000000E+04  0.10566000000E+00 0.  1.
        994   -1    0    0    0    0 -0.00000000000E+00 -0.00000000000E+00  0.11368683772E-12  0.17120000000E+03  0.17120000000E+03 0.  0.
         13    1    1    2    0    0  0.13398880363E+02 -0.43626187036E+01  0.67208981263E+02  0.68670377627E+02  0.10566000000E+00 0.  1.
        994    1    1    2    0    0 -0.11873323123E+02  0.11354386044E+01  0.19265931100E+01  0.17162580454E+03  0.17120000000E+03 0.  0.
        998    1    1    2    0    0 -0.15255572402E+01  0.32271800992E+01  0.14308644219E+04  0.14309038178E+04  0.10000000000E+02 0.  1.
</event>
<event>
 5    1  0.1279376E-008  0.3796475E+03  0.7957747E-01  0.3452695E+00
         13   -1    0    0    0    0  0.00000000000E+00  0.00000000000E+00  0.14999999963E+04  0.15000000000E+04  0.10566000000E+00 0. -1.
        994   -1    0    0    0    0 -0.00000000000E+00 -0.00000000000E+00  0.11368683772E-12  0.17120000000E+03  0.17120000000E+03 0.  0.
         13    1    1    2    0    0 -0.14644951988E+03 -0.52632869536E+02  0.44750384745E+03  0.47379044469E+03  0.10566000000E+00 0. -1.
        994    1    1    2    0    0  0.15880225808E+03  0.48487270509E+02  0.12406321742E+03  0.26883134953E+03  0.17120000000E+03 0.  0.
        998    1    1    2    0    0 -0.12352738195E+02  0.41455990271E+01  0.92843293141E+03  0.92857820578E+03  0.10000000000E+02 0. -1.
</event>
<event>
 5    1  0.1279376E-008  0.3861161E+03  0.7957747E-01  0.3424952E+00
         13   -1    0    0    0    0  0.00000000000E+00  0.00000000000E+00  0.14999999963E+04  0.15000000000E+04  0.10566000000E+00 0.  1.
        994   -1    0    0    0    0 -0.00000000000E+00 -0.00000000000E+00  0.11368683772E-12  0.17120000000E+03  0.17120000000E+03 0.  0.
         13    1    1    2    0    0  0.64568149930E+01 -0.95288095711E+01  0.65171966307E+02  0.66180699816E+02  0.10566000000E+00 0.  1.
        994    1    1    2    0    0  0.14401129136E+02  0.12937123445E+02  0.23059931546E+01  0.17230646908E+03  0.17120000000E+03 0.  0.
        998    1    1    2    0    0 -0.20857944130E+02 -0.34083138737E+01  0.14325220368E+04  0.14327128311E+04  0.10000000000E+02 0.  1.
</event>
<event>
 5    1  0.1279376E-008  0.3860652E+03  0.7957747E-01  0.3425167E+00
         13   -1    0    0    0    0  0.00000000000E+00  0.00000000000E+00  0.14999999963E+04  0.15000000000E+04  0.10566000000E+00 0. -1.
        994   -1    0    0    0    0 -0.00000000000E+00 -0.00000000000E+00  0.11368683772E-12  0.17120000000E+03  0.17120000000E+03 0.  0.
         13    1    1    2    0    0  0.71398877897E+01  0.12075181221E+02  0.84093844611E+02  0.85255931551E+02  0.10566000000E+00 0. -1.
        994    1    1    2    0    0 -0.89541469092E+01 -0.15058233661E+02  0.21087435579E+01  0.17210698402E+03  0.17120000000E+03 0.  0.
        998    1    1    2    0    0  0.18142591195E+01  0.29830524396E+01  0.14137974081E+04  0.14138370844E+04  0.10000000000E+02 0. -1.
</event>
<event>
 5    1  0.1279376E-008  0.3704895E+03  0.7957747E-01  0.3493644E+00
         13   -1    0    0    0    0  0.00000000000E+00  0.00000000000E+00  0.14999999963E+04  0.15000000000E+04  0.10566000000E+00 0.  1.
        994   -1    0    0    0    0 -0.00000000000E+00 -0.00000000000E+00  0.11368683772E-12  0.17120000000E+03  0.17120000000E+03 0.  0.
         13    1    1    2    0    0  0.36823204075E+02 -0.24347036293E+02  0.76148812140E+02  0.88019198411E+02  0.10566000000E+00 0.  1.
        994    1    1    2    0    0 -0.37670123681E+02  0.43936733932E+02  0.23021519265E+02  0.18217822361E+03  0.17120000000E+03 0.  0.
        998    1    1    2    0    0  0.84691960586E+00 -0.19589697638E+02  0.14008296649E+04  0.14010025780E+04  0.10000000000E+02 0.  1.
</event>
<event>
 5    1  0.1279376E-008  0.3813115E+03  0.7957747E-01  0.3445468E+00
         13   -1    0    0    0    0  0.00000000000E+00  0.00000000000E+00  0.14999999963E+04  0.15000000000E+04  0.10566000000E+00 0. -1.
        994   -1    0    0    0    0 -0.00000000000E+00 -0.00000000000E+00  0.11368683772E-12  0.17120000000E+03  0.17120000000E+03 0.  0.
         13    1    1    2    0    0  0.31598641282E+02 -0.65808459283E+00  0.17550357822E+03  0.17832673478E+03  0.10566000000E+00 0. -1.
        994    1    1    2    0    0  0.82473715232E+01  0.48143313197E+01  0.37761839586E+01  0.17150771554E+03  0.17120000000E+03 0.  0.
        998    1    1    2    0    0 -0.39846012805E+02 -0.41562467269E+01  0.13207202341E+04  0.13213655497E+04  0.10000000000E+02 0. -1.
</event>
<event>
 5    1  0.1279376E-008  0.3793887E+03  0.7957747E-01  0.3453824E+00
         13   -1    0    0    0    0  0.00000000000E+00  0.00000000000E+00  0.14999999963E+04  0.15000000000E+04  0.10566000000E+00 0. -1.
        994   -1    0    0    0    0 -0.00000000000E+00 -0.00000000000E+00  0.11368683772E-12  0.17120000000E+03  0.17120000000E+03 0.  0.
         13    1    1    2    0    0  0.62296004301E+02 -0.14212066948E+02  0.11340573990E+03  0.13016776868E+03  0.10566000000E+00 0. -1.
        994    1    1    2    0    0 -0.67244231162E+02 -0.55701343180E+01  0.32642218690E+02  0.18688972005E+03  0.17120000000E+03 0.  0.
        998    1    1    2    0    0  0.49482268613E+01  0.19782201266E+02  0.13539520377E+04  0.13541425113E+04  0.10000000000E+02 0. -1.
</event>
<event>
 5    1  0.1279376E-008  0.3766448E+03  0.7957747E-01  0.3465899E+00
         13   -1    0    0    0    0  0.00000000000E+00  0.00000000000E+00  0.14999999963E+04  0.15000000000E+04  0.10566000000E+00 0. -1.
        994   -1    0    0    0    0 -0.00000000000E+00 -0.00000000000E+00  0.11368683772E-12  0.17120000000E+03  0.17120000000E+03 0.  0.
         13    1    1    2    0    0 -0.71773709863E+01 -0.34847548305E+02  0.12152567468E+03  0.12662688122E+03  0.10566000000E+00 0. -1.
        994    1    1    2    0    0 -0.13824975827E+02 -0.24551252585E+01  0.65032377712E+01  0.17189790487E+03  0.17120000000E+03 0.  0.
        998    1    1    2    0    0  0.21002346814E+02  0.37302673563E+02  0.13719710838E+04  0.13726752139E+04  0.10000000000E+02 0. -1.
</event>
<event>
 5    1  0.1279376E-008  0.3706383E+03  0.7957747E-01  0.3492962E+00
         13   -1    0    0    0    0  0.00000000000E+00  0.00000000000E+00  0.14999999963E+04  0.15000000000E+04  0.10566000000E+00 0.  1.
        994   -1    0    0    0    0 -0.00000000000E+00 -0.00000000000E+00  0.11368683772E-12  0.17120000000E+03  0.17120000000E+03 0.  0.
         13    1    1    2    0    0 -0.11503627505E+03  0.38983168729E+02  0.45239792006E+03  0.46841959957E+03  0.10566000000E+00 0.  1.
        994    1    1    2    0    0  0.11031120234E+03 -0.42135548974E+02  0.61871435821E+02  0.21698267309E+03  0.17120000000E+03 0.  0.
        998    1    1    2    0    0  0.47250727105E+01  0.31523802445E+01  0.98573064040E+03  0.98579772735E+03  0.10000000000E+02 0. -1.
</event>
<event>
 5    1  0.1279376E-008  0.3798827E+03  0.7957747E-01  0.3451669E+00
         13   -1    0    0    0    0  0.00000000000E+00  0.00000000000E+00  0.14999999963E+04  0.15000000000E+04  0.10566000000E+00 0.  1.
        994   -1    0    0    0    0 -0.00000000000E+00 -0.00000000000E+00  0.11368683772E-12  0.17120000000E+03  0.17120000000E+03 0.  0.
         13    1    1    2    0    0 -0.43970727176E+02  0.41799174076E+01  0.20840421613E+03  0.21303338946E+03  0.10566000000E+00 0.  1.
        994    1    1    2    0    0  0.37781589290E+02 -0.33012977238E+02  0.12657152494E+02  0.17884895489E+03  0.17120000000E+03 0.  0.
        998    1    1    2    0    0  0.61891378858E+01  0.28833059830E+02  0.12789386277E+04  0.12793176557E+04  0.10000000000E+02 0.  1.
</event>
<event>
 5    1  0.1279376E-008  0.3804251E+03  0.7957747E-01  0.3449310E+00
         13   -1    0    0    0    0  0.00000000000E+00  0.00000000000E+00  0.14999999963E+04  0.15000000000E+04  0.10566000000E+00 0.  1.
        994   -1    0    0    0    0 -0.00000000000E+00 -0.00000000000E+00  0.11368683772E-12  0.17120000000E+03  0.17120000000E+03 0.  0.
         13    1    1    2    0    0 -0.22395712943E+02 -0.11537450185E+02  0.77347628963E+02  0.81347080988E+02  0.10566000000E+00 0.  1.
        994    1    1    2    0    0  0.25258038682E+02 -0.94856466541E+00  0.60543269342E+01  0.17316166772E+03  0.17120000000E+03 0.  0.
        998    1    1    2    0    0 -0.28623257392E+01  0.12486014850E+02  0.14165980404E+04  0.14166912513E+04  0.10000000000E+02 0.  1.
</event>
<event>
 5    1  0.1279376E-008  0.3858131E+03  0.7957747E-01  0.3426231E+00
         13   -1    0    0    0    0  0.00000000000E+00  0.00000000000E+00  0.14999999963E+04  0.15000000000E+04  0.10566000000E+00 0. -1.
        994   -1    0    0    0    0 -0.00000000000E+00 -0.00000000000E+00  0.11368683772E-12  0.17120000000E+03  0.17120000000E+03 0.  0.
         13    1    1    2    0    0  0.55419668516E+01  0.95691687060E+01  0.53028946531E+02  0.54169758357E+02  0.10566000000E+00 0. -1.
        994    1    1    2    0    0 -0.87767183112E+01  0.56615373260E+01  0.15848743873E+01  0.17152561213E+03  0.17120000000E+03 0.  0.
        998    1    1    2    0    0  0.32347514596E+01 -0.15230706032E+02  0.14453861754E+04  0.14455046295E+04  0.10000000000E+02 0. -1.
</event>
<event>
 5    1  0.1279376E-008  0.3832863E+03  0.7957747E-01  0.3436973E+00
         13   -1    0    0    0    0  0.00000000000E+00  0.00000000000E+00  0.14999999963E+04  0.15000000000E+04  0.10566000000E+00 0.  1.
        994   -1    0    0    0    0 -0.00000000000E+00 -0.00000000000E+00  0.11368683772E-12  0.17120000000E+03  0.17120000000E+03 0.  0.
         13    1    1    2    0    0 -0.12257123580E+02  0.18551185836E+02  0.99493714080E+02  0.10194799596E+03  0.10566000000E+00 0.  1.
        994    1    1    2    0    0 -0.49635414210E+01 -0.19014457103E+02  0.37615420281E+01  0.17236523873E+03  0.17120000000E+03 0.  0.
        998    1    1    2    0    0  0.17220665001E+02  0.46327126653E+00  0.13967447402E+04  0.13968867653E+04  0.10000000000E+02 0.  1.
</event>
<event>
 5    1  0.1279376E-008  0.3702454E+03  0.7957747E-01  0.3494764E+00
         13   -1    0    0    0    0  0.00000000000E+00  0.00000000000E+00  0.14999999963E+04  0.15000000000E+04  0.10566000000E+00 0.  1.
        994   -1    0    0    0    0 -0.00000000000E+00 -0.00000000000E+00  0.11368683772E-12  0.17120000000E+03  0.17120000000E+03 0.  0.
         13    1    1    2    0    0 -0.14277170046E+02 -0.74493166873E+01  0.10025430267E+02  0.18969721129E+02  0.10566000000E+00 0.  1.
        994    1    1    2    0    0  0.14771840998E+02  0.44318367510E+01  0.99629615939E+01  0.17218173268E+03  0.17120000000E+03 0.  0.
        998    1    1    2    0    0 -0.49467095157E+00  0.30174799363E+01  0.14800116044E+04  0.14800485462E+04  0.10000000000E+02 0.  1.
</event>
<event>
 5    1  0.1279376E-008  0.3760802E+03  0.7957747E-01  0.3468406E+00
         13   -1    0    0    0    0  0.00000000000E+00  0.00000000000E+00  0.14999999963E+04  0.15000000000E+04  0.10566000000E+00 0. -1.
        994   -1    0    0    0    0 -0.00000000000E+00 -0.00000000000E+00  0.11368683772E-12  0.17120000000E+03  0.17120000000E+03 0.  0.
         13    1    1    2    0    0  0.11375488245E+03 -0.63842640875E+02  0.52044974455E+03  0.53654823068E+03  0.10566000000E+00 0. -1.
        994    1    1    2    0    0 -0.62219367660E+02  0.86142352905E+02  0.55716043707E+02  0.20905853774E+03  0.17120000000E+03 0.  0.
        998    1    1    2    0    0 -0.51535514792E+02 -0.22299712030E+02  0.92383420802E+03  0.92559323158E+03  0.10000000000E+02 0. -1.
</event>
<event>
 5    1  0.1279376E-008  0.3739715E+03  0.7957747E-01  0.3477835E+00
         13   -1    0    0    0    0  0.00000000000E+00  0.00000000000E+00  0.14999999963E+04  0.15000000000E+04  0.10566000000E+00 0.  1.
        994   -1    0    0    0    0 -0.00000000000E+00 -0.00000000000E+00  0.11368683772E-12  0.17120000000E+03  0.17120000000E+03 0.  0.
         13    1    1    2    0    0  0.21823575352E+01 -0.14966878948E+02  0.12514714782E+02  0.19631591886E+02  0.10566000000E+00 0.  1.
        994    1    1    2    0    0 -0.46200140917E+00  0.16597369653E+02  0.81487625095E+01  0.17219619176E+03  0.17120000000E+03 0.  0.
        998    1    1    2    0    0 -0.17203561260E+01 -0.16304907045E+01  0.14793365190E+04  0.14793722164E+04  0.10000000000E+02 0.  1.
</event>
<event>
 5    1  0.1279376E-008  0.3713820E+03  0.7957747E-01  0.3489564E+00
         13   -1    0    0    0    0  0.00000000000E+00  0.00000000000E+00  0.14999999963E+04  0.15000000000E+04  0.10566000000E+00 0.  1.
        994   -1    0    0    0    0 -0.00000000000E+00 -0.00000000000E+00  0.11368683772E-12  0.17120000000E+03  0.17120000000E+03 0.  0.
         13    1    1    2    0    0  0.29231818569E+02 -0.67106688746E+02  0.30253014387E+03  0.31125922637E+03  0.10566000000E+00 0.  1.
        994    1    1    2    0    0  0.31544917491E+02  0.10736229060E+02  0.15582053656E+02  0.17510736372E+03  0.17120000000E+03 0.  0.
        998    1    1    2    0    0 -0.60776736060E+02  0.56370459686E+02  0.11818877988E+04  0.11848334099E+04  0.10000000000E+02 0.  1.
</event>
<event>
 5    1  0.1279376E-008  0.3993780E+03  0.7957747E-01  0.3370892E+00
         13   -1    0    0    0    0  0.00000000000E+00  0.00000000000E+00  0.14999999963E+04  0.15000000000E+04  0.10566000000E+00 0. -1.
        994   -1    0    0    0    0 -0.00000000000E+00 -0.00000000000E+00  0.11368683772E-12  0.17120000000E+03  0.17120000000E+03 0.  0.
         13    1    1    2    0    0  0.91871427035E+00  0.28338981820E+02  0.30101076433E+01  0.28513397527E+02  0.10566000000E+00 0. -1.
        994    1    1    2    0    0 -0.34906530465E+01 -0.27610829078E+02  0.30437600872E+02  0.17609778558E+03  0.17120000000E+03 0.  0.
        998    1    1    2    0    0  0.25719387762E+01 -0.72815274199E+00  0.14665522878E+04  0.14665888169E+04  0.10000000000E+02 0. -1.
</event>
<event>
 5    1  0.1279376E-008  0.3840682E+03  0.7957747E-01  0.3433634E+00
         13   -1    0    0    0    0  0.00000000000E+00  0.00000000000E+00  0.14999999963E+04  0.15000000000E+04  0.10566000000E+00 0. -1.
        994   -1    0    0    0    0 -0.00000000000E+00 -0.00000000000E+00  0.11368683772E-12  0.17120000000E+03  0.17120000000E+03 0.  0.
         13    1    1    2    0    0  0.46788384858E+01 -0.12134620678E+02  0.40249423044E+02  0.42298555152E+02  0.10566000000E+00 0. -1.
        994    1    1    2    0    0 -0.14982054677E+01  0.67535451972E+01  0.22513334285E+01  0.17135449657E+03  0.17120000000E+03 0.  0.
        998    1    1    2    0    0 -0.31806330181E+01  0.53810754803E+01  0.14574992398E+04  0.14575469483E+04  0.10000000000E+02 0. -1.
</event>
<event>
 5    1  0.1367661E-008  0.3861078E+03  0.7957747E-01  0.3424987E+00
         13   -1    0    0    0    0  0.00000000000E+00  0.00000000000E+00  0.14999999963E+04  0.15000000000E+04  0.10566000000E+00 0. -1.
        994   -1    0    0    0    0 -0.00000000000E+00 -0.00000000000E+00  0.11368683772E-12  0.17120000000E+03  0.17120000000E+03 0.  0.
         13    1    1    2    0    0 -0.70551681128E+01  0.78842569130E+01  0.52036062106E+02  0.53100845829E+02  0.10566000000E+00 0. -1.
        994    1    1    2    0    0  0.12238503485E+01 -0.10164826204E+02  0.14246773970E+01  0.17151178154E+03  0.17120000000E+03 0.  0.
        998    1    1    2    0    0  0.58313177643E+01  0.22805692907E+01  0.14465392568E+04  0.14465873726E+04  0.10000000000E+02 0. -1.
</event>
<event>
 5    1  0.1279376E-008  0.3834004E+03  0.7957747E-01  0.3436485E+00
         13   -1    0    0    0    0  0.00000000000E+00  0.00000000000E+00  0.14999999963E+04  0.15000000000E+04  0.10566000000E+00 0. -1.
        994   -1    0    0    0    0 -0.00000000000E+00 -0.00000000000E+00  0.11368683772E-12  0.17120000000E+03  0.17120000000E+03 0.  0.
         13    1    1    2    0    0 -0.98535817355E+01  0.62125655161E+01  0.26197271370E+02  0.28670494146E+02  0.10566000000E+00 0. -1.
        994    1    1    2    0    0  0.14769117989E+02 -0.10792328743E+02  0.35332755511E+01  0.17221070014E+03  0.17120000000E+03 0.  0.
        998    1    1    2    0    0 -0.49155362538E+01  0.45797632273E+01  0.14702694494E+04  0.14703188057E+04  0.10000000000E+02 0. -1.
</event>
<event>
 5    1  0.1279376E-008  0.3711062E+03  0.7957747E-01  0.3490822E+00
         13   -1    0    0    0    0  0.00000000000E+00  0.00000000000E+00  0.14999999963E+04  0.15000000000E+04  0.10566000000E+00 0. -1.
        994   -1    0    0    0    0 -0.00000000000E+00 -0.00000000000E+00  0.11368683772E-12  0.17120000000E+03  0.17120000000E+03 0.  0.
         13    1    1    2    0    0  0.42057880870E+02 -0.21833228674E+02  0.87581030697E+02  0.99579130944E+02  0.10566000000E+00 0. -1.
        994    1    1    2    0    0 -0.39030641872E+02  0.32973493546E+02  0.20744068723E+02  0.17986216575E+03  0.17120000000E+03 0.  0.
        998    1    1    2    0    0 -0.30272389976E+01 -0.11140264872E+02  0.13916748969E+04  0.13917587033E+04  0.10000000000E+02 0. -1.
</event>
<event>
 5    1  0.1279376E-008  0.3809866E+03  0.7957747E-01  0.3446874E+00
         13   -1    0    0    0    0  0.00000000000E+00  0.00000000000E+00  0.14999999963E+04  0.15000000000E+04  0.10566000000E+00 0.  1.
        994   -1    0    0    0    0 -0.00000000000E+00 -0.00000000000E+00  0.11368683772E-12  0.17120000000E+03  0.17120000000E+03 0.  0.
         13    1    1    2    0    0  0.36445368270E+02  0.37137666876E+02  0.27613299157E+03  0.28099272476E+03  0.10566000000E+00 0.  1.
        994    1    1    2    0    0 -0.39097181411E+02 -0.49501713049E+02  0.17009817961E+02  0.18324241620E+03  0.17120000000E+03 0.  0.
        998    1    1    2    0    0  0.26518131413E+01  0.12364046173E+02  0.12068571867E+04  0.12069648590E+04  0.10000000000E+02 0.  1.
</event>
<event>
 5    1  0.1279376E-008  0.3800212E+03  0.7957747E-01  0.3451066E+00
         13   -1    0    0    0    0  0.00000000000E+00  0.00000000000E+00  0.14999999963E+04  0.15000000000E+04  0.10566000000E+00 0.  1.
        994   -1    0    0    0    0 -0.00000000000E+00 -0.00000000000E+00  0.11368683772E-12  0.17120000000E+03  0.17120000000E+03 0.  0.
         13    1    1    2    0    0  0.86644444783E+01 -0.21548126701E+02  0.61594674632E+02  0.65827877601E+02  0.10566000000E+00 0.  1.
        994    1    1    2    0    0 -0.10626031365E+01  0.25335586270E+02  0.62748012418E+01  0.17318150648E+03  0.17120000000E+03 0.  0.
        998    1    1    2    0    0 -0.76018413418E+01 -0.37874595694E+01  0.14321305204E+04  0.14321906159E+04  0.10000000000E+02 0.  1.
</event>
<event>
 5    1  0.1279376E-008  0.3843987E+03  0.7957747E-01  0.3432226E+00
         13   -1    0    0    0    0  0.00000000000E+00  0.00000000000E+00  0.14999999963E+04  0.15000000000E+04  0.10566000000E+00 0. -1.
        994   -1    0    0    0    0 -0.00000000000E+00 -0.00000000000E+00  0.11368683772E-12  0.17120000000E+03  0.17120000000E+03 0.  0.
         13    1    1    2    0    0 -0.21006721531E+02  0.54588274924E+01  0.12732243753E+03  0.12915918631E+03  0.10566000000E+00 0. -1.
        994    1    1    2    0    0  0.90659244691E+01  0.23990600996E+01  0.22187888766E+01  0.17147101650E+03  0.17120000000E+03 0.  0.
        998    1    1    2    0    0  0.11940797062E+02 -0.78578875920E+01  0.13704587699E+04  0.13705697972E+04  0.10000000000E+02 0. -1.
</event>
<event>
 5    1  0.1279376E-008  0.3847828E+03  0.7957747E-01  0.3430594E+00
         13   -1    0    0    0    0  0.00000000000E+00  0.00000000000E+00  0.14999999963E+04  0.15000000000E+04  0.10566000000E+00 0.  1.
        994   -1    0    0    0    0 -0.00000000000E+00 -0.00000000000E+00  0.11368683772E-12  0.17120000000E+03  0.17120000000E+03 0.  0.
         13    1    1    2    0    0 -0.27232597888E+02  0.89042229804E+02  0.35303589059E+03  0.36510886635E+03  0.10566000000E+00 0.  1.
        994    1    1    2    0    0 -0.25518994732E+02  0.16385452876E+02  0.22378985622E+02  0.17529963250E+03  0.17120000000E+03 0.  0.
        998    1    1    2    0    0  0.52751592620E+02 -0.10542768268E+03  0.11245851201E+04  0.11307915012E+04  0.10000000000E+02 0.  1.
</event>
<event>
 5    1  0.1279376E-008  0.3784739E+03  0.7957747E-01  0.3457830E+00
         13   -1    0    0    0    0  0.00000000000E+00  0.00000000000E+00  0.14999999963E+04  0.15000000000E+04  0.10566000000E+00 0.  1.
        994   -1    0    0    0    0 -0.00000000000E+00 -0.00000000000E+00  0.11368683772E-12  0.17120000000E+03  0.17120000000E+03 0.  0.
         13    1    1    2    0    0  0.81027569349E+02 -0.82415351920E+02  0.62295305510E+03  0.63358367817E+03  0.10566000000E+00 0.  1.
        994    1    1    2    0    0 -0.76737439446E+02  0.10755397751E+03  0.65992467307E+02  0.22609939945E+03  0.17120000000E+03 0.  0.
        998    1    1    2    0    0 -0.42901299026E+01 -0.25138625591E+02  0.81105447388E+03  0.81151692238E+03  0.10000000000E+02 0.  1.
</event>
<event>
 5    1  0.1279376E-008  0.3762311E+03  0.7957747E-01  0.3467735E+00
         13   -1    0    0    0    0  0.00000000000E+00  0.00000000000E+00  0.14999999963E+04  0.15000000000E+04  0.10566000000E+00 0.  1.
        994   -1    0    0    0    0 -0.00000000000E+00 -0.00000000000E+00  0.11368683772E-12  0.17120000000E+03  0.17120000000E+03 0.  0.
         13    1    1    2    0    0  0.13454753633E+02  0.43132522669E+01  0.13722836503E+02  0.19696749634E+02  0.10566000000E+00 0.  1.
        994    1    1    2    0    0 -0.12506826758E+02 -0.63609276325E+01  0.67146551504E+01  0.17190523177E+03  0.17120000000E+03 0.  0.
        998    1    1    2    0    0 -0.94792687534E+00  0.20476753655E+01  0.14795625046E+04  0.14795980186E+04  0.10000000000E+02 0.  1.
</event>
<event>
 5    1  0.1279376E-008  0.3801278E+03  0.7957747E-01  0.3450602E+00
         13   -1    0    0    0    0  0.00000000000E+00  0.00000000000E+00  0.14999999963E+04  0.15000000000E+04  0.10566000000E+00 0.  1.
        994   -1    0    0    0    0 -0.00000000000E+00 -0.00000000000E+00  0.11368683772E-12  0.17120000000E+03  0.17120000000E+03 0.  0.
         13    1    1    2    0    0  0.12298534429E+02  0.80580958224E+01  0.22573115496E+02  0.26939628146E+02  0.10566000000E+00 0.  1.
        994    1    1    2    0    0 -0.38536615253E+02 -0.22750991540E+02  0.10789816155E+02  0.17728095911E+03  0.17120000000E+03 0.  0.
        998    1    1    2    0    0  0.26238080824E+02  0.14692895717E+02  0.14666370646E+04  0.14669794127E+04  0.10000000000E+02 0.  1.
</event>
<event>
 5    1  0.1279376E-008  0.3710939E+03  0.7957747E-01  0.3490879E+00
         13   -1    0    0    0    0  0.00000000000E+00  0.00000000000E+00  0.14999999963E+04  0.15000000000E+04  0.10566000000E+00 0. -1.
        994   -1    0    0    0    0 -0.00000000000E+00 -0.00000000000E+00  0.11368683772E-12  0.17120000000E+03  0.17120000000E+03 0.  0.
         13    1    1    2    0    0  0.26977386134E+02 -0.42922187562E+02  0.14213071597E+03  0.15090144179E+03  0.10566000000E+00 0. -1.
        994    1    1    2    0    0 -0.49727614905E+01  0.37981226511E+02  0.13769677700E+02  0.17597257158E+03  0.17120000000E+03 0.  0.
        998    1    1    2    0    0 -0.22004624644E+02  0.49409610509E+01  0.13440996026E+04  0.13443259866E+04  0.10000000000E+02 0. -1.
</event>
<event>
 5    1  0.1512200E-008  0.3860262E+03  0.7957747E-01  0.3425332E+00
         13   -1    0    0    0    0  0.00000000000E+00  0.00000000000E+00  0.14999999963E+04  0.15000000000E+04  0.10566000000E+00 0.  1.
        994   -1    0    0    0    0 -0.00000000000E+00 -0.00000000000E+00  0.11368683772E-12  0.17120000000E+03  0.17120000000E+03 0.  0.
         13    1    1    2    0    0 -0.59755455877E+01  0.11624129170E+02  0.78233369932E+02  0.79317708357E+02  0.10566000000E+00 0.  1.
        994    1    1    2    0    0 -0.19253515259E+01 -0.87031675812E+01  0.13819708007E+01  0.17143745783E+03  0.17120000000E+03 0.  0.
        998    1    1    2    0    0  0.79008971135E+01 -0.29209615885E+01  0.14203846555E+04  0.14204448338E+04  0.10000000000E+02 0.  1.
</event>
<event>
 5    1  0.1279376E-008  0.3832250E+03  0.7957747E-01  0.3437235E+00
         13   -1    0    0    0    0  0.00000000000E+00  0.00000000000E+00  0.14999999963E+04  0.15000000000E+04  0.10566000000E+00 0.  1.
        994   -1    0    0    0    0 -0.00000000000E+00 -0.00000000000E+00  0.11368683772E-12  0.17120000000E+03  0.17120000000E+03 0.  0.
         13    1    1    2    0    0  0.12178653470E+02 -0.98566541824E+01  0.48738647181E+02  0.51195118177E+02  0.10566000000E+00 0.  1.
        994    1    1    2    0    0 -0.97225242030E+01 -0.13969166175E+00  0.28267686667E+01  0.17149920586E+03  0.17120000000E+03 0.  0.
        998    1    1    2    0    0 -0.24561292674E+01  0.99963458441E+01  0.14484345804E+04  0.14485056760E+04  0.10000000000E+02 0.  1.
</event>
<event>
 5    1  0.1279376E-008  0.3811412E+03  0.7957747E-01  0.3446204E+00
         13   -1    0    0    0    0  0.00000000000E+00  0.00000000000E+00  0.14999999963E+04  0.15000000000E+04  0.10566000000E+00 0. -1.
        994   -1    0    0    0    0 -0.00000000000E+00 -0.00000000000E+00  0.11368683772E-12  0.17120000000E+03  0.17120000000E+03 0.  0.
         13    1    1    2    0    0 -0.71114406090E+01  0.94617913677E+01  0.17773674378E+02  0.21354455000E+02  0.10566000000E+00 0. -1.
        994    1    1    2    0    0  0.47600156033E+01 -0.18244208545E+02  0.47430409575E+01  0.17230045076E+03  0.17120000000E+03 0.  0.
        998    1    1    2    0    0  0.23514250057E+01  0.87824171774E+01  0.14774832809E+04  0.14775450942E+04  0.10000000000E+02 0. -1.
</event>
<event>
 5    1  0.1279376E-008  0.3856003E+03  0.7957747E-01  0.3427130E+00
         13   -1    0    0    0    0  0.00000000000E+00  0.00000000000E+00  0.14999999963E+04  0.15000000000E+04  0.10566000000E+00 0. -1.
        994   -1    0    0    0    0 -0.00000000000E+00 -0.00000000000E+00  0.11368683772E-12  0.17120000000E+03  0.17120000000E+03 0.  0.
         13    1    1    2    0    0 -0.10710365234E+02 -0.24372423057E+01  0.47052125040E+02  0.48317343763E+02  0.10566000000E+00 0. -1.
        994    1    1    2    0    0  0.58149240107E+00  0.59510304805E+01  0.14497755357E+01  0.17131052141E+03  0.17120000000E+03 0.  0.
        998    1    1    2    0    0  0.10128872833E+02 -0.35137881748E+01  0.14514980957E+04  0.14515721348E+04  0.10000000000E+02 0. -1.
</event>
<event>
 5    1  0.1279376E-008  0.3811467E+03  0.7957747E-01  0.3446180E+00
         13   -1    0    0    0    0  0.00000000000E+00  0.00000000000E+00  0.14999999963E+04  0.15000000000E+04  0.10566000000E+00 0. -1.
        994   -1    0    0    0    0 -0.00000000000E+00 -0.00000000000E+00  0.11368683772E-12  0.17120000000E+03  0.17120000000E+03 0.  0.
         13    1    1    2    0    0 -0.27380451409E+01  0.28736366897E+02  0.12082440079E+03  0.12422488746E+03  0.10566000000E+00 0. -1.
        994    1    1    2    0    0 -0.39533050607E+01 -0.11116657815E+02  0.40191366427E+01  0.17165314492E+03  0.17120000000E+03 0.  0.
        998    1    1    2    0    0  0.66913502015E+01 -0.17619709082E+02  0.13751564588E+04  0.13753219676E+04  0.10000000000E+02 0. -1.
</event>
<event>
 5    1  0.1279376E-008  0.3856654E+03  0.7957747E-01  0.3426855E+00
         13   -1    0    0    0    0  0.00000000000E+00  0.00000000000E+00  0.14999999963E+04  0.15000000000E+04  0.10566000000E+00 0. -1.
        994   -1    0    0    0    0 -0.00000000000E+00 -0.00000000000E+00  0.11368683772E-12  0.17120000000E+03  0.17120000000E+03 0.  0.
         13    1    1    2    0    0  0.73046537860E+01 -0.13635364966E+02  0.91934265694E+02  0.93226613783E+02  0.10566000000E+00 0. -1.
        994    1    1    2    0    0 -0.63295827720E+01  0.89951293060E+01  0.16972387190E+01  0.17156134934E+03  0.17120000000E+03 0.  0.
        998    1    1    2    0    0 -0.97507101404E+00  0.46402356605E+01  0.14063684919E+04  0.14064120369E+04  0.10000000000E+02 0. -1.
</event>
<event>
 5    1  0.1279376E-008  0.3859412E+03  0.7957747E-01  0.3425690E+00
         13   -1    0    0    0    0  0.00000000000E+00  0.00000000000E+00  0.14999999963E+04  0.15000000000E+04  0.10566000000E+00 0.  1.
        994   -1    0    0    0    0 -0.00000000000E+00 -0.00000000000E+00  0.11368683772E-12  0.17120000000E+03  0.17120000000E+03 0.  0.
         13    1    1    2    0    0 -0.57262661053E+01  0.14131893945E+02  0.90961936590E+02  0.92231153209E+02  0.10566000000E+00 0.  1.
        994    1    1    2    0    0  0.54525518784E+01 -0.21398206830E+02  0.27639231457E+01  0.17264035695E+03  0.17120000000E+03 0.  0.
        998    1    1    2    0    0  0.27371422691E+00  0.72663128855E+01  0.14062741365E+04  0.14063284898E+04  0.10000000000E+02 0.  1.
</event>
<event>
 5    1  0.1279376E-008  0.3842928E+03  0.7957747E-01  0.3432677E+00
         13   -1    0    0    0    0  0.00000000000E+00  0.00000000000E+00  0.14999999963E+04  0.15000000000E+04  0.10566000000E+00 0. -1.
        994   -1    0    0    0    0 -0.00000000000E+00 -0.00000000000E+00  0.11368683772E-12  0.17120000000E+03  0.17120000000E+03 0.  0.
         13    1    1    2    0    0 -0.12150937423E+02 -0.37000576556E+01  0.44321785178E+02  0.46106046375E+02  0.10566000000E+00 0. -1.
        994    1    1    2    0    0 -0.13883017301E+02  0.85507297238E+01  0.28584453650E+01  0.17199844144E+03  0.17120000000E+03 0.  0.
        998    1    1    2    0    0  0.26033954724E+02 -0.48506720682E+01  0.14528197657E+04  0.14530955122E+04  0.10000000000E+02 0. -1.
</event>
<event>
 5    1  0.1279376E-008  0.3854165E+03  0.7957747E-01  0.3427908E+00
         13   -1    0    0    0    0  0.00000000000E+00  0.00000000000E+00  0.14999999963E+04  0.15000000000E+04  0.10566000000E+00 0.  1.
        994   -1    0    0    0    0 -0.00000000000E+00 -0.00000000000E+00  0.11368683772E-12  0.17120000000E+03  0.17120000000E+03 0.  0.
         13    1    1    2    0    0  0.13015544847E+02  0.17998045841E+00  0.59754333906E+02  0.61155771480E+02  0.10566000000E+00 0.  1.
        994    1    1    2    0    0 -0.86345509378E+01 -0.17951908361E+01  0.16789951651E+01  0.17143522743E+03  0.17120000000E+03 0.  0.
        998    1    1    2    0    0 -0.43809939091E+01  0.16152103777E+01  0.14385666672E+04  0.14386090011E+04  0.10000000000E+02 0.  1.
</event>
<event>
 5    1  0.1279376E-008  0.3805652E+03  0.7957747E-01  0.3448701E+00
         13   -1    0    0    0    0  0.00000000000E+00  0.00000000000E+00  0.14999999963E+04  0.15000000000E+04  0.10566000000E+00 0.  1.
        994   -1    0    0    0    0 -0.00000000000E+00 -0.00000000000E+00  0.11368683772E-12  0.17120000000E+03  0.17120000000E+03 0.  0.
         13    1    1    2    0    0  0.19951488993E+02 -0.22461054495E+02  0.11978432570E+03  0.12349435910E+03  0.10566000000E+00 0.  1.
        994    1    1    2    0    0  0.33275760786E+01  0.20007109913E+02  0.52218989131E+01  0.17247627500E+03  0.17120000000E+03 0.  0.
        998    1    1    2    0    0 -0.23279065072E+02  0.24539445825E+01  0.13749937717E+04  0.13752293659E+04  0.10000000000E+02 0.  1.
</event>
<event>
 5    1  0.1279376E-008  0.3742344E+03  0.7957747E-01  0.3476654E+00
         13   -1    0    0    0    0  0.00000000000E+00  0.00000000000E+00  0.14999999963E+04  0.15000000000E+04  0.10566000000E+00 0.  1.
        994   -1    0    0    0    0 -0.00000000000E+00 -0.00000000000E+00  0.11368683772E-12  0.17120000000E+03  0.17120000000E+03 0.  0.
         13    1    1    2    0    0  0.24867437648E+01 -0.40549077918E+02  0.11729906863E+03  0.12413498411E+03  0.10566000000E+00 0.  1.
        994    1    1    2    0    0 -0.17704724570E+02  0.17739331457E+02  0.92160591744E+01  0.17327006925E+03  0.17120000000E+03 0.  0.
        998    1    1    2    0    0  0.15217980806E+02  0.22809746462E+02  0.13734848685E+04  0.13737949466E+04  0.10000000000E+02 0.  1.
</event>
<event>
 5    1  0.1279376E-008  0.3842613E+03  0.7957747E-01  0.3432811E+00
         13   -1    0    0    0    0  0.00000000000E+00  0.00000000000E+00  0.14999999963E+04  0.15000000000E+04  0.10566000000E+00 0.  1.
        994   -1    0    0    0    0 -0.00000000000E+00 -0.00000000000E+00  0.11368683772E-12  0.17120000000E+03  0.17120000000E+03 0.  0.
         13    1    1    2    0    0 -0.18236505449E+01  0.16854111569E+02  0.69773365158E+02  0.71803345518E+02  0.10566000000E+00 0.  1.
        994    1    1    2    0    0 -0.66815890408E+01 -0.16293041944E+02  0.30202643332E+01  0.17212980231E+03  0.17120000000E+03 0.  0.
        998    1    1    2    0    0  0.85052395857E+01 -0.56106962532E+00  0.14272063668E+04  0.14272668522E+04  0.10000000000E+02 0.  1.
</event>
<event>
 5    1  0.1279376E-008  0.3735221E+03  0.7957747E-01  0.3479859E+00
         13   -1    0    0    0    0  0.00000000000E+00  0.00000000000E+00  0.14999999963E+04  0.15000000000E+04  0.10566000000E+00 0. -1.
        994   -1    0    0    0    0 -0.00000000000E+00 -0.00000000000E+00  0.11368683772E-12  0.17120000000E+03  0.17120000000E+03 0.  0.
         13    1    1    2    0    0 -0.25362088998E+02  0.14401461611E+02  0.28433293534E+02  0.40732063538E+02  0.10566000000E+00 0. -1.
        994    1    1    2    0    0  0.12464902718E+02 -0.70094703494E+01  0.13537631010E+02  0.17232879599E+03  0.17120000000E+03 0.  0.
        998    1    1    2    0    0  0.12897186280E+02 -0.73919912619E+01  0.14580290717E+04  0.14581391405E+04  0.10000000000E+02 0. -1.
</event>
<event>
 5    1  0.1279376E-008  0.3746924E+03  0.7957747E-01  0.3474600E+00
         13   -1    0    0    0    0  0.00000000000E+00  0.00000000000E+00  0.14999999963E+04  0.15000000000E+04  0.10566000000E+00 0.  1.
        994   -1    0    0    0    0 -0.00000000000E+00 -0.00000000000E+00  0.11368683772E-12  0.17120000000E+03  0.17120000000E+03 0.  0.
         13    1    1    2    0    0 -0.19323561704E+02 -0.12342870873E+02  0.34954084289E+02  0.41803656189E+02  0.10566000000E+00 0.  1.
        994    1    1    2    0    0  0.20879638589E+02  0.99097548949E+01  0.86565231133E+01  0.17296976020E+03  0.17120000000E+03 0.  0.
        998    1    1    2    0    0 -0.15560768855E+01  0.24331159778E+01  0.14563893889E+04  0.14564265836E+04  0.10000000000E+02 0.  1.
</event>
<event>
 5    1  0.1279376E-008  0.3829570E+03  0.7957747E-01  0.3438383E+00
         13   -1    0    0    0    0  0.00000000000E+00  0.00000000000E+00  0.14999999963E+04  0.15000000000E+04  0.10566000000E+00 0.  1.
        994   -1    0    0    0    0 -0.00000000000E+00 -0.00000000000E+00  0.11368683772E-12  0.17120000000E+03  0.17120000000E+03 0.  0.
         13    1    1    2    0    0 -0.58197734249E+01 -0.23130467502E+02  0.11575087614E+03  0.11818276008E+03  0.10566000000E+00 0.  1.
        994    1    1    2    0    0 -0.34052989239E+01  0.36730329025E+01  0.27309009992E+01  0.17129502343E+03  0.17120000000E+03 0.  0.
        998    1    1    2    0    0  0.92250723487E+01  0.19457434599E+02  0.13815182191E+04  0.13817222165E+04  0.10000000000E+02 0.  1.
</event>
<event>
 5    1  0.1279376E-008  0.3720386E+03  0.7957747E-01  0.3486574E+00
         13   -1    0    0    0    0  0.00000000000E+00  0.00000000000E+00  0.14999999963E+04  0.15000000000E+04  0.10566000000E+00 0. -1.
        994   -1    0    0    0    0 -0.00000000000E+00 -0.00000000000E+00  0.11368683772E-12  0.17120000000E+03  0.17120000000E+03 0.  0.
         13    1    1    2    0    0  0.14570981678E+01 -0.71338739620E+02  0.27132570161E+03  0.28055121889E+03  0.10566000000E+00 0. -1.
        994    1    1    2    0    0 -0.54467392049E+01  0.60546056035E+02  0.21004538655E+02  0.18288281087E+03  0.17120000000E+03 0.  0.
        998    1    1    2    0    0  0.39896410371E+01  0.10792683584E+02  0.12076697560E+04  0.12077659702E+04  0.10000000000E+02 0. -1.
</event>
<event>
 5    1  0.1279376E-008  0.3774058E+03  0.7957747E-01  0.3462533E+00
         13   -1    0    0    0    0  0.00000000000E+00  0.00000000000E+00  0.14999999963E+04  0.15000000000E+04  0.10566000000E+00 0.  1.
        994   -1    0    0    0    0 -0.00000000000E+00 -0.00000000000E+00  0.11368683772E-12  0.17120000000E+03  0.17120000000E+03 0.  0.
         13    1    1    2    0    0 -0.47301624330E+01  0.20412400921E+02  0.36688951814E+02  0.42250809427E+02  0.10566000000E+00 0.  1.
        994    1    1    2    0    0  0.48322043227E+01 -0.26226731309E+02  0.78501982003E+01  0.17344237442E+03  0.17120000000E+03 0.  0.
        998    1    1    2    0    0 -0.10204188975E+00  0.58143303886E+01  0.14554608463E+04  0.14555068161E+04  0.10000000000E+02 0.  1.
</event>
<event>
 5    1  0.1279376E-008  0.3828656E+03  0.7957747E-01  0.3438775E+00
         13   -1    0    0    0    0  0.00000000000E+00  0.00000000000E+00  0.14999999963E+04  0.15000000000E+04  0.10566000000E+00 0. -1.
        994   -1    0    0    0    0 -0.00000000000E+00 -0.00000000000E+00  0.11368683772E-12  0.17120000000E+03  0.17120000000E+03 0.  0.
         13    1    1    2    0    0  0.17441453070E+02  0.26889385518E+02  0.17191458795E+03  0.17487675675E+03  0.10566000000E+00 0. -1.
        994    1    1    2    0    0 -0.97356648482E+01 -0.30862390916E+02  0.61693808730E+01  0.17434096364E+03  0.17120000000E+03 0.  0.
        998    1    1    2    0    0 -0.77057882219E+01  0.39730053978E+01  0.13219160275E+04  0.13219822796E+04  0.10000000000E+02 0. -1.
</event>
<event>
 5    1  0.1279376E-008  0.3854114E+03  0.7957747E-01  0.3427929E+00
         13   -1    0    0    0    0  0.00000000000E+00  0.00000000000E+00  0.14999999963E+04  0.15000000000E+04  0.10566000000E+00 0.  1.
        994   -1    0    0    0    0 -0.00000000000E+00 -0.00000000000E+00  0.11368683772E-12  0.17120000000E+03  0.17120000000E+03 0.  0.
         13    1    1    2    0    0 -0.98241999765E+00 -0.10197430738E+02  0.37747653319E+02  0.39113287228E+02  0.10566000000E+00 0.  1.
        994    1    1    2    0    0  0.85589210594E+01  0.14867622586E+01  0.16739193485E+01  0.17142843287E+03  0.17120000000E+03 0.  0.
        998    1    1    2    0    0 -0.75765010618E+01  0.87106684792E+01  0.14605784236E+04  0.14606582799E+04  0.10000000000E+02 0.  1.
</event>
<event>
 5    1  0.1279376E-008  0.3837022E+03  0.7957747E-01  0.3435195E+00
         13   -1    0    0    0    0  0.00000000000E+00  0.00000000000E+00  0.14999999963E+04  0.15000000000E+04  0.10566000000E+00 0.  1.
        994   -1    0    0    0    0 -0.00000000000E+00 -0.00000000000E+00  0.11368683772E-12  0.17120000000E+03  0.17120000000E+03 0.  0.
         13    1    1    2    0    0  0.20651244768E+02  0.14559719833E+02  0.14216973387E+03  0.14439772763E+03  0.10566000000E+00 0.  1.
        994    1    1    2    0    0 -0.27545931043E+01 -0.19512933897E+02  0.35594107384E+01  0.17236720041E+03  0.17120000000E+03 0.  0.
        998    1    1    2    0    0 -0.17896651664E+02  0.49532140641E+01  0.13542708517E+04  0.13544350720E+04  0.10000000000E+02 0.  1.
</event>
<event>
 5    1  0.1279376E-008  0.3842964E+03  0.7957747E-01  0.3432662E+00
         13   -1    0    0    0    0  0.00000000000E+00  0.00000000000E+00  0.14999999963E+04  0.15000000000E+04  0.10566000000E+00 0.  1.
        994   -1    0    0    0    0 -0.00000000000E+00 -0.00000000000E+00  0.11368683772E-12  0.17120000000E+03  0.17120000000E+03 0.  0.
         13    1    1    2    0    0 -0.14244854406E+02 -0.90301391487E+01  0.71768605871E+02  0.73723830902E+02  0.10566000000E+00 0.  1.
        994    1    1    2    0    0  0.14215005167E+02 -0.27902502893E+01  0.26718649515E+01  0.17183256598E+03  0.17120000000E+03 0.  0.
        998    1    1    2    0    0  0.29849239153E-01  0.11820389438E+02  0.14255595255E+04  0.14256436031E+04  0.10000000000E+02 0.  1.
</event>
<event>
 5    1  0.1279376E-008  0.3837497E+03  0.7957747E-01  0.3434992E+00
         13   -1    0    0    0    0  0.00000000000E+00  0.00000000000E+00  0.14999999963E+04  0.15000000000E+04  0.10566000000E+00 0.  1.
        994   -1    0    0    0    0 -0.00000000000E+00 -0.00000000000E+00  0.11368683772E-12  0.17120000000E+03  0.17120000000E+03 0.  0.
         13    1    1    2    0    0 -0.69734205166E+01 -0.14195816600E+02  0.58669654859E+02  0.60764211243E+02  0.10566000000E+00 0.  1.
        994    1    1    2    0    0  0.81107651634E+01 -0.60306960312E+01  0.25895573755E+01  0.17151763645E+03  0.17120000000E+03 0.  0.
        998    1    1    2    0    0 -0.11373446468E+01  0.20226512631E+02  0.14387407840E+04  0.14389181523E+04  0.10000000000E+02 0.  1.
</event>
<event>
 5    1  0.1279376E-008  0.3850358E+03  0.7957747E-01  0.3429520E+00
         13   -1    0    0    0    0  0.00000000000E+00  0.00000000000E+00  0.14999999963E+04  0.15000000000E+04  0.10566000000E+00 0. -1.
        994   -1    0    0    0    0 -0.00000000000E+00 -0.00000000000E+00  0.11368683772E-12  0.17120000000E+03  0.17120000000E+03 0.  0.
         13    1    1    2    0    0 -0.60575666836E+00 -0.19735657448E+02  0.11533793383E+03  0.11701586756E+03  0.10566000000E+00 0. -1.
        994    1    1    2    0    0 -0.10985376674E+02  0.18682800601E+02  0.31584582151E+01  0.17259531105E+03  0.17120000000E+03 0.  0.
        998    1    1    2    0    0  0.11591133342E+02  0.10528568466E+01  0.13815036042E+04  0.13815888214E+04  0.10000000000E+02 0. -1.
</event>
<event>
 5    1  0.1279376E-008  0.4564787E+03  0.7957747E-01  0.3173563E+00
         13   -1    0    0    0    0  0.00000000000E+00  0.00000000000E+00  0.14999999963E+04  0.15000000000E+04  0.10566000000E+00 0.  1.
        994   -1    0    0    0    0 -0.00000000000E+00 -0.00000000000E+00  0.11368683772E-12  0.17120000000E+03  0.17120000000E+03 0.  0.
         13    1    1    2    0    0  0.25763731113E+02 -0.16501091295E+02 -0.19046745651E+02  0.36039499701E+02  0.10566000000E+00 0.  1.
        994    1    1    2    0    0 -0.26945158398E+02  0.22704036586E+02  0.73578287798E+02  0.18964366394E+03  0.17120000000E+03 0.  0.
        998    1    1    2    0    0  0.11814272851E+01 -0.62029452905E+01  0.14454684541E+04  0.14455168364E+04  0.10000000000E+02 0.  1.
</event>
<event>
 5    1  0.1279376E-008  0.3697220E+03  0.7957747E-01  0.3497170E+00
         13   -1    0    0    0    0  0.00000000000E+00  0.00000000000E+00  0.14999999963E+04  0.15000000000E+04  0.10566000000E+00 0. -1.
        994   -1    0    0    0    0 -0.00000000000E+00 -0.00000000000E+00  0.11368683772E-12  0.17120000000E+03  0.17120000000E+03 0.  0.
         13    1    1    2    0    0  0.81571143620E+01 -0.12544123344E+02  0.76616119437E+01  0.16810859788E+02  0.10566000000E+00 0. -1.
        994    1    1    2    0    0 -0.13809317544E+02  0.27452862430E+01  0.10100836170E+02  0.17207469523E+03  0.17120000000E+03 0.  0.
        998    1    1    2    0    0  0.56522031816E+01  0.97988371010E+01  0.14822375482E+04  0.14823144450E+04  0.10000000000E+02 0. -1.
</event>
<event>
 5    1  0.1279376E-008  0.3856162E+03  0.7957747E-01  0.3427063E+00
         13   -1    0    0    0    0  0.00000000000E+00  0.00000000000E+00  0.14999999963E+04  0.15000000000E+04  0.10566000000E+00 0.  1.
        994   -1    0    0    0    0 -0.00000000000E+00 -0.00000000000E+00  0.11368683772E-12  0.17120000000E+03  0.17120000000E+03 0.  0.
         13    1    1    2    0    0 -0.40038156707E+01 -0.96088616646E+01  0.41512495604E+02  0.42797888005E+02  0.10566000000E+00 0.  1.
        994    1    1    2    0    0 -0.30142021567E+01  0.70067460233E+01  0.15154658713E+01  0.17137653440E+03  0.17120000000E+03 0.  0.
        998    1    1    2    0    0  0.70180178275E+01  0.26021156413E+01  0.14569720348E+04  0.14570255776E+04  0.10000000000E+02 0.  1.
</event>
<event>
 5    1  0.1279376E-008  0.3782292E+03  0.7957747E-01  0.3458905E+00
         13   -1    0    0    0    0  0.00000000000E+00  0.00000000000E+00  0.14999999963E+04  0.15000000000E+04  0.10566000000E+00 0. -1.
        994   -1    0    0    0    0 -0.00000000000E+00 -0.00000000000E+00  0.11368683772E-12  0.17120000000E+03  0.17120000000E+03 0.  0.
         13    1    1    2    0    0 -0.58781896087E+02 -0.65624684107E+02  0.53277460851E+03  0.54000991204E+03  0.10566000000E+00 0. -1.
        994    1    1    2    0    0  0.46083881060E+02  0.69356177602E+02  0.28711929119E+02  0.19253004529E+03  0.17120000000E+03 0.  0.
        998    1    1    2    0    0  0.12698015026E+02 -0.37314934944E+01  0.93851345865E+03  0.93866004267E+03  0.10000000000E+02 0.  1.
</event>
<event>
 5    1  0.1279376E-008  0.3825937E+03  0.7957747E-01  0.3439942E+00
         13   -1    0    0    0    0  0.00000000000E+00  0.00000000000E+00  0.14999999963E+04  0.15000000000E+04  0.10566000000E+00 0. -1.
        994   -1    0    0    0    0 -0.00000000000E+00 -0.00000000000E+00  0.11368683772E-12  0.17120000000E+03  0.17120000000E+03 0.  0.
         13    1    1    2    0    0 -0.11017887550E+02 -0.15324946866E+01  0.20908949724E+02  0.23684123979E+02  0.10566000000E+00 0. -1.
        994    1    1    2    0    0  0.62745097109E+01 -0.20330219302E+01  0.29737814414E+01  0.17135281155E+03  0.17120000000E+03 0.  0.
        998    1    1    2    0    0  0.47433778395E+01  0.35655166168E+01  0.14761172651E+04  0.14761630645E+04  0.10000000000E+02 0. -1.
</event>
<event>
 5    1  0.1279376E-008  0.3692150E+03  0.7957747E-01  0.3499506E+00
         13   -1    0    0    0    0  0.00000000000E+00  0.00000000000E+00  0.14999999963E+04  0.15000000000E+04  0.10566000000E+00 0.  1.
        994   -1    0    0    0    0 -0.00000000000E+00 -0.00000000000E+00  0.11368683772E-12  0.17120000000E+03  0.17120000000E+03 0.  0.
         13    1    1    2    0    0 -0.50618783572E+02  0.17391203648E+02  0.17095242879E+03  0.17913531000E+03  0.10566000000E+00 0.  1.
        994    1    1    2    0    0 -0.11798181282E+02 -0.28651604109E+02  0.13015939528E+02  0.17446766515E+03  0.17120000000E+03 0.  0.
        998    1    1    2    0    0  0.62416964854E+02  0.11260400461E+02  0.13160316280E+04  0.13175970249E+04  0.10000000000E+02 0.  1.
</event>
<event>
 5    1  0.1279376E-008  0.3746830E+03  0.7957747E-01  0.3474642E+00
         13   -1    0    0    0    0  0.00000000000E+00  0.00000000000E+00  0.14999999963E+04  0.15000000000E+04  0.10566000000E+00 0. -1.
        994   -1    0    0    0    0 -0.00000000000E+00 -0.00000000000E+00  0.11368683772E-12  0.17120000000E+03  0.17120000000E+03 0.  0.
         13    1    1    2    0    0 -0.33702506919E+01 -0.15805866528E+02  0.15608289394E+02  0.22468063296E+02  0.10566000000E+00 0. -1.
        994    1    1    2    0    0 -0.44034756608E+01  0.26144525886E+02  0.92372427546E+01  0.17348686834E+03  0.17120000000E+03 0.  0.
        998    1    1    2    0    0  0.77737263527E+01 -0.10338659358E+02  0.14751544641E+04  0.14752450684E+04  0.10000000000E+02 0. -1.
</event>
<event>
 5    1  0.1279376E-008  0.3846181E+03  0.7957747E-01  0.3431294E+00
         13   -1    0    0    0    0  0.00000000000E+00  0.00000000000E+00  0.14999999963E+04  0.15000000000E+04  0.10566000000E+00 0.  1.
        994   -1    0    0    0    0 -0.00000000000E+00 -0.00000000000E+00  0.11368683772E-12  0.17120000000E+03  0.17120000000E+03 0.  0.
         13    1    1    2    0    0  0.10441407653E+02 -0.14152137238E+02  0.81254786120E+02  0.83136378401E+02  0.10566000000E+00 0.  1.
        994    1    1    2    0    0 -0.98371177803E+01  0.14838700269E+02  0.28642265516E+01  0.17214702933E+03  0.17120000000E+03 0.  0.
        998    1    1    2    0    0 -0.60428987282E+00 -0.68656303132E+00  0.14158809836E+04  0.14159165923E+04  0.10000000000E+02 0.  0.
</event>
<event>
 5    1  0.1279376E-008  0.3813240E+03  0.7957747E-01  0.3445413E+00
         13   -1    0    0    0    0  0.00000000000E+00  0.00000000000E+00  0.14999999963E+04  0.15000000000E+04  0.10566000000E+00 0. -1.
        994   -1    0    0    0    0 -0.00000000000E+00 -0.00000000000E+00  0.11368683772E-12  0.17120000000E+03  0.17120000000E+03 0.  0.
         13    1    1    2    0    0 -0.21935388569E+02 -0.16562462956E+02  0.12230444440E+03  0.12535495497E+03  0.10566000000E+00 0. -1.
        994    1    1    2    0    0 -0.56926056003E+01  0.18452838913E+01  0.35854707418E+01  0.17134207432E+03  0.17120000000E+03 0.  0.
        998    1    1    2    0    0  0.27627994170E+02  0.14717179065E+02  0.13741100811E+04  0.13745029707E+04  0.10000000000E+02 0. -1.
</event>
<event>
 5    1  0.1279376E-008  0.3841345E+03  0.7957747E-01  0.3433351E+00
         13   -1    0    0    0    0  0.00000000000E+00  0.00000000000E+00  0.14999999963E+04  0.15000000000E+04  0.10566000000E+00 0. -1.
        994   -1    0    0    0    0 -0.00000000000E+00 -0.00000000000E+00  0.11368683772E-12  0.17120000000E+03  0.17120000000E+03 0.  0.
         13    1    1    2    0    0 -0.86035671734E+01 -0.10160746461E+02  0.41175368147E+02  0.43274521867E+02  0.10566000000E+00 0. -1.
        994    1    1    2    0    0  0.84220923802E+01  0.14043483205E+02  0.29452678872E+01  0.17200658611E+03  0.17120000000E+03 0.  0.
        998    1    1    2    0    0  0.18147479312E+00 -0.38827367438E+01  0.14558793602E+04  0.14559188920E+04  0.10000000000E+02 0. -1.
</event>
<event>
 5    1  0.1279376E-008  0.3852327E+03  0.7957747E-01  0.3428686E+00
         13   -1    0    0    0    0  0.00000000000E+00  0.00000000000E+00  0.14999999963E+04  0.15000000000E+04  0.10566000000E+00 0. -1.
        994   -1    0    0    0    0 -0.00000000000E+00 -0.00000000000E+00  0.11368683772E-12  0.17120000000E+03  0.17120000000E+03 0.  0.
         13    1    1    2    0    0 -0.20649874318E+01 -0.11306585673E+02  0.44063925587E+02  0.45538376726E+02  0.10566000000E+00 0. -1.
        994    1    1    2    0    0  0.12308470375E+02  0.38603110846E+01  0.20616631631E+01  0.17169767296E+03  0.17120000000E+03 0.  0.
        998    1    1    2    0    0 -0.10243482944E+02  0.74462745883E+01  0.14538744075E+04  0.14539639503E+04  0.10000000000E+02 0. -1.
</event>
<event>
 5    1  0.1279376E-008  0.3842841E+03  0.7957747E-01  0.3432714E+00
         13   -1    0    0    0    0  0.00000000000E+00  0.00000000000E+00  0.14999999963E+04  0.15000000000E+04  0.10566000000E+00 0. -1.
        994   -1    0    0    0    0 -0.00000000000E+00 -0.00000000000E+00  0.11368683772E-12  0.17120000000E+03  0.17120000000E+03 0.  0.
         13    1    1    2    0    0  0.39456393863E+01  0.19574820801E+02  0.10171973397E+03  0.10366126144E+03  0.10566000000E+00 0. -1.
        994    1    1    2    0    0  0.25538196238E+02 -0.16910787102E+02  0.50846174195E+01  0.17399272261E+03  0.17120000000E+03 0.  0.
        998    1    1    2    0    0 -0.29483835624E+02 -0.26640336991E+01  0.13931956449E+04  0.13935460159E+04  0.10000000000E+02 0. -1.
</event>
<event>
 5    1  0.1279376E-008  0.3840568E+03  0.7957747E-01  0.3433682E+00
         13   -1    0    0    0    0  0.00000000000E+00  0.00000000000E+00  0.14999999963E+04  0.15000000000E+04  0.10566000000E+00 0. -1.
        994   -1    0    0    0    0 -0.00000000000E+00 -0.00000000000E+00  0.11368683772E-12  0.17120000000E+03  0.17120000000E+03 0.  0.
         13    1    1    2    0    0  0.16972900064E+02  0.20206575646E+02  0.14890891068E+03  0.15122916346E+03  0.10566000000E+00 0. -1.
        994    1    1    2    0    0 -0.18790680855E+02 -0.21277439202E+02  0.47618456393E+01  0.17360280608E+03  0.17120000000E+03 0.  0.
        998    1    1    2    0    0  0.18177807906E+01  0.10708635567E+01  0.13463292400E+04  0.13463680305E+04  0.10000000000E+02 0.  0.
</event>
<event>
 5    1  0.1279376E-008  0.3807648E+03  0.7957747E-01  0.3447835E+00
         13   -1    0    0    0    0  0.00000000000E+00  0.00000000000E+00  0.14999999963E+04  0.15000000000E+04  0.10566000000E+00 0.  1.
        994   -1    0    0    0    0 -0.00000000000E+00 -0.00000000000E+00  0.11368683772E-12  0.17120000000E+03  0.17120000000E+03 0.  0.
         13    1    1    2    0    0 -0.36056929301E+02 -0.13384113147E+02  0.18189133327E+03  0.18591316499E+03  0.10566000000E+00 0.  1.
        994    1    1    2    0    0  0.28448031575E+02  0.17499170623E+02  0.74761640588E+01  0.17458764132E+03  0.17120000000E+03 0.  0.
        998    1    1    2    0    0  0.76088977263E+01 -0.41150574765E+01  0.13106324990E+04  0.13106991937E+04  0.10000000000E+02 0.  1.
</event>
<event>
 5    1  0.1279376E-008  0.3808514E+03  0.7957747E-01  0.3447460E+00
         13   -1    0    0    0    0  0.00000000000E+00  0.00000000000E+00  0.14999999963E+04  0.15000000000E+04  0.10566000000E+00 0.  1.
        994   -1    0    0    0    0 -0.00000000000E+00 -0.00000000000E+00  0.11368683772E-12  0.17120000000E+03  0.17120000000E+03 0.  0.
         13    1    1    2    0    0 -0.60851647979E+01  0.26400019139E+02  0.92084479904E+02  0.95987253552E+02  0.10566000000E+00 0.  1.
        994    1    1    2    0    0  0.94151101964E+01 -0.26939082939E+02  0.64234160344E+01  0.17368091076E+03  0.17120000000E+03 0.  0.
        998    1    1    2    0    0 -0.33299453985E+01  0.53906380047E+00  0.14014921003E+04  0.14015318357E+04  0.10000000000E+02 0.  1.
</event>
<event>
 5    1  0.1279376E-008  0.3804163E+03  0.7957747E-01  0.3449348E+00
         13   -1    0    0    0    0  0.00000000000E+00  0.00000000000E+00  0.14999999963E+04  0.15000000000E+04  0.10566000000E+00 0.  1.
        994   -1    0    0    0    0 -0.00000000000E+00 -0.00000000000E+00  0.11368683772E-12  0.17120000000E+03  0.17120000000E+03 0.  0.
         13    1    1    2    0    0  0.75640432992E+01 -0.23287584603E+02  0.74442634843E+02  0.78366085739E+02  0.10566000000E+00 0.  1.
        994    1    1    2    0    0 -0.20482653627E+01  0.17295359248E+02  0.49363734893E+01  0.17215438602E+03  0.17120000000E+03 0.  0.
        998    1    1    2    0    0 -0.55157779365E+01  0.59922253546E+01  0.14206209879E+04  0.14206795282E+04  0.10000000000E+02 0.  1.
</event>
<event>
 5    1  0.1279376E-008  0.3825471E+03  0.7957747E-01  0.3440142E+00
         13   -1    0    0    0    0  0.00000000000E+00  0.00000000000E+00  0.14999999963E+04  0.15000000000E+04  0.10566000000E+00 0. -1.
        994   -1    0    0    0    0 -0.00000000000E+00 -0.00000000000E+00  0.11368683772E-12  0.17120000000E+03  0.17120000000E+03 0.  0.
         13    1    1    2    0    0  0.18848202945E+02 -0.22289511688E+02  0.14455082194E+03  0.14746873693E+03  0.10566000000E+00 0. -1.
        994    1    1    2    0    0 -0.14074797066E+02  0.15647309862E+02  0.43226060061E+01  0.17254293130E+03  0.17120000000E+03 0.  0.
        998    1    1    2    0    0 -0.47734058789E+01  0.66422018259E+01  0.13511265683E+04  0.13511883318E+04  0.10000000000E+02 0. -1.
</event>
<event>
 5    1  0.1279376E-008  0.3773099E+03  0.7957747E-01  0.3462956E+00
         13   -1    0    0    0    0  0.00000000000E+00  0.00000000000E+00  0.14999999963E+04  0.15000000000E+04  0.10566000000E+00 0.  1.
        994   -1    0    0    0    0 -0.00000000000E+00 -0.00000000000E+00  0.11368683772E-12  0.17120000000E+03  0.17120000000E+03 0.  0.
         13    1    1    2    0    0 -0.25935836867E+02 -0.38528616824E+02  0.23247686127E+03  0.23707092638E+03  0.10566000000E+00 0.  1.
        994    1    1    2    0    0  0.24176682171E+01  0.97099628036E+00  0.55202046001E+01  0.17130878732E+03  0.17120000000E+03 0.  0.
        998    1    1    2    0    0  0.23518168650E+02  0.37557620543E+02  0.12620029304E+04  0.12628202863E+04  0.10000000000E+02 0.  1.
</event>
<event>
 5    1  0.1279376E-008  0.3765789E+03  0.7957747E-01  0.3466191E+00
         13   -1    0    0    0    0  0.00000000000E+00  0.00000000000E+00  0.14999999963E+04  0.15000000000E+04  0.10566000000E+00 0.  1.
        994   -1    0    0    0    0 -0.00000000000E+00 -0.00000000000E+00  0.11368683772E-12  0.17120000000E+03  0.17120000000E+03 0.  0.
         13    1    1    2    0    0  0.19301763960E+02  0.70783427147E+01  0.33424187296E+02  0.39240903252E+02  0.10566000000E+00 0.  1.
        994    1    1    2    0    0 -0.15912204342E+02 -0.30327400847E+01  0.67578728931E+01  0.17209736955E+03  0.17120000000E+03 0.  0.
        998    1    1    2    0    0 -0.33895596186E+01 -0.40456026301E+01  0.14598179361E+04  0.14598617272E+04  0.10000000000E+02 0.  1.
</event>
<event>
 5    1  0.1279376E-008  0.3802750E+03  0.7957747E-01  0.3449962E+00
         13   -1    0    0    0    0  0.00000000000E+00  0.00000000000E+00  0.14999999963E+04  0.15000000000E+04  0.10566000000E+00 0.  1.
        994   -1    0    0    0    0 -0.00000000000E+00 -0.00000000000E+00  0.11368683772E-12  0.17120000000E+03  0.17120000000E+03 0.  0.
         13    1    1    2    0    0 -0.71519456193E+01  0.17667797615E+02  0.41782138784E+02  0.45924499824E+02  0.10566000000E+00 0.  1.
        994    1    1    2    0    0  0.43485102909E+01 -0.27443753267E+02  0.65773116023E+01  0.17356488747E+03  0.17120000000E+03 0.  0.
        998    1    1    2    0    0  0.28034353284E+01  0.97759556516E+01  0.14516405459E+04  0.14517106127E+04  0.10000000000E+02 0.  1.
</event>
<event>
 5    1  0.1279376E-008  0.3855671E+03  0.7957747E-01  0.3427270E+00
         13   -1    0    0    0    0  0.00000000000E+00  0.00000000000E+00  0.14999999963E+04  0.15000000000E+04  0.10566000000E+00 0.  1.
        994   -1    0    0    0    0 -0.00000000000E+00 -0.00000000000E+00  0.11368683772E-12  0.17120000000E+03  0.17120000000E+03 0.  0.
         13    1    1    2    0    0 -0.98294989030E+01 -0.10259753611E+02  0.71695185424E+02  0.73089618756E+02  0.10566000000E+00 0.  1.
        994    1    1    2    0    0  0.10605754378E+02  0.12139657040E+02  0.22022846355E+01  0.17197134458E+03  0.17120000000E+03 0.  0.
        998    1    1    2    0    0 -0.77625547456E+00 -0.18799034294E+01  0.14261025262E+04  0.14261390367E+04  0.10000000000E+02 0.  1.
</event>
<event>
 5    1  0.1279376E-008  0.3758117E+03  0.7957747E-01  0.3469601E+00
         13   -1    0    0    0    0  0.00000000000E+00  0.00000000000E+00  0.14999999963E+04  0.15000000000E+04  0.10566000000E+00 0. -1.
        994   -1    0    0    0    0 -0.00000000000E+00 -0.00000000000E+00  0.11368683772E-12  0.17120000000E+03  0.17120000000E+03 0.  0.
         13    1    1    2    0    0  0.43419334170E+02  0.25858129931E+01  0.16326238340E+03  0.16895721946E+03  0.10566000000E+00 0. -1.
        994    1    1    2    0    0 -0.81559930619E+01 -0.27769784754E+02  0.91074165483E+01  0.17386795623E+03  0.17120000000E+03 0.  0.
        998    1    1    2    0    0 -0.35263341108E+02  0.25183971761E+02  0.13276301963E+04  0.13283748243E+04  0.10000000000E+02 0. -1.
</event>
<event>
 5    1  0.1279376E-008  0.3825456E+03  0.7957747E-01  0.3440149E+00
         13   -1    0    0    0    0  0.00000000000E+00  0.00000000000E+00  0.14999999963E+04  0.15000000000E+04  0.10566000000E+00 0. -1.
        994   -1    0    0    0    0 -0.00000000000E+00 -0.00000000000E+00  0.11368683772E-12  0.17120000000E+03  0.17120000000E+03 0.  0.
         13    1    1    2    0    0 -0.26027084602E+02  0.52968812095E+01  0.12215486175E+03  0.12500914965E+03  0.10566000000E+00 0. -1.
        994    1    1    2    0    0  0.14812363367E+02 -0.11832784037E+02  0.40460234596E+01  0.17229402541E+03  0.17120000000E+03 0.  0.
        998    1    1    2    0    0  0.11214721235E+02  0.65359028280E+01  0.13737991111E+04  0.13738968249E+04  0.10000000000E+02 0. -1.
</event>
<event>
 5    1  0.1279376E-008  0.3768592E+03  0.7957747E-01  0.3464949E+00
         13   -1    0    0    0    0  0.00000000000E+00  0.00000000000E+00  0.14999999963E+04  0.15000000000E+04  0.10566000000E+00 0. -1.
        994   -1    0    0    0    0 -0.00000000000E+00 -0.00000000000E+00  0.11368683772E-12  0.17120000000E+03  0.17120000000E+03 0.  0.
         13    1    1    2    0    0 -0.82614832855E+01  0.62840023061E+01  0.67779908660E+01  0.12397302742E+02  0.10566000000E+00 0. -1.
        994    1    1    2    0    0  0.76294965716E+01 -0.34959003606E+01  0.59650089369E+01  0.17150933464E+03  0.17120000000E+03 0.  0.
        998    1    1    2    0    0  0.63198671390E+00 -0.27881019455E+01  0.14872569965E+04  0.14872933626E+04  0.10000000000E+02 0. -1.
</event>
<event>
 5    1  0.1279376E-008  0.3816723E+03  0.7957747E-01  0.3443909E+00
         13   -1    0    0    0    0  0.00000000000E+00  0.00000000000E+00  0.14999999963E+04  0.15000000000E+04  0.10566000000E+00 0.  1.
        994   -1    0    0    0    0 -0.00000000000E+00 -0.00000000000E+00  0.11368683772E-12  0.17120000000E+03  0.17120000000E+03 0.  0.
         13    1    1    2    0    0  0.17849935612E+02  0.17056594617E+02  0.90048523408E+02  0.93371812413E+02  0.10566000000E+00 0.  1.
        994    1    1    2    0    0 -0.15758112828E+02 -0.99754332491E+01  0.44485555913E+01  0.17227030224E+03  0.17120000000E+03 0.  0.
        998    1    1    2    0    0 -0.20918227837E+01 -0.70811613684E+01  0.14055029173E+04  0.14055578853E+04  0.10000000000E+02 0.  1.
</event>
<event>
 5    1  0.1279376E-008  0.3829774E+03  0.7957747E-01  0.3438296E+00
         13   -1    0    0    0    0  0.00000000000E+00  0.00000000000E+00  0.14999999963E+04  0.15000000000E+04  0.10566000000E+00 0. -1.
        994   -1    0    0    0    0 -0.00000000000E+00 -0.00000000000E+00  0.11368683772E-12  0.17120000000E+03  0.17120000000E+03 0.  0.
         13    1    1    2    0    0 -0.29164124972E+01  0.10578293497E+02  0.21580615807E+02  0.24210326264E+02  0.10566000000E+00 0. -1.
        994    1    1    2    0    0 -0.44417234766E+01 -0.13355104288E+02  0.32936934519E+01  0.17180912704E+03  0.17120000000E+03 0.  0.
        998    1    1    2    0    0  0.73581359738E+01  0.27768107916E+01  0.14751256870E+04  0.14751805467E+04  0.10000000000E+02 0. -1.
</event>
<event>
 5    1  0.1279376E-008  0.3739895E+03  0.7957747E-01  0.3477754E+00
         13   -1    0    0    0    0  0.00000000000E+00  0.00000000000E+00  0.14999999963E+04  0.15000000000E+04  0.10566000000E+00 0.  1.
        994   -1    0    0    0    0 -0.00000000000E+00 -0.00000000000E+00  0.11368683772E-12  0.17120000000E+03  0.17120000000E+03 0.  0.
         13    1    1    2    0    0 -0.19617072740E+02  0.10449134898E+02  0.12975254396E+02  0.25736789887E+02  0.10566000000E+00 0.  1.
        994    1    1    2    0    0  0.22239887870E+02 -0.11995352288E+02  0.15331167338E+02  0.17373251216E+03  0.17120000000E+03 0.  0.
        998    1    1    2    0    0 -0.26228151302E+01  0.15462173906E+01  0.14716935745E+04  0.14717306980E+04  0.10000000000E+02 0.  1.
</event>
<event>
 5    1  0.1279376E-008  0.3855419E+03  0.7957747E-01  0.3427377E+00
         13   -1    0    0    0    0  0.00000000000E+00  0.00000000000E+00  0.14999999963E+04  0.15000000000E+04  0.10566000000E+00 0.  1.
        994   -1    0    0    0    0 -0.00000000000E+00 -0.00000000000E+00  0.11368683772E-12  0.17120000000E+03  0.17120000000E+03 0.  0.
         13    1    1    2    0    0 -0.97425456031E+01  0.60863849667E+01  0.47456534693E+02  0.48827196580E+02  0.10566000000E+00 0.  1.
        994    1    1    2    0    0  0.96959842682E+01 -0.73403440716E+01  0.18469907399E+01  0.17164132409E+03  0.17120000000E+03 0.  0.
        998    1    1    2    0    0  0.46561334868E-01  0.12539591049E+01  0.14506964708E+04  0.14507314793E+04  0.10000000000E+02 0.  1.
</event>
<event>
 5    1  0.1279376E-008  0.3853322E+03  0.7957747E-01  0.3428265E+00
         13   -1    0    0    0    0  0.00000000000E+00  0.00000000000E+00  0.14999999963E+04  0.15000000000E+04  0.10566000000E+00 0. -1.
        994   -1    0    0    0    0 -0.00000000000E+00 -0.00000000000E+00  0.11368683772E-12  0.17120000000E+03  0.17120000000E+03 0.  0.
         13    1    1    2    0    0  0.30729214038E+00  0.12526567141E+02  0.52248665416E+02  0.53730284892E+02  0.10566000000E+00 0. -1.
        994    1    1    2    0    0  0.75116081981E+01 -0.13295725755E+02  0.22317710685E+01  0.17189421568E+03  0.17120000000E+03 0.  0.
        998    1    1    2    0    0 -0.78189003385E+01  0.76915861378E+00  0.14455195598E+04  0.14455754994E+04  0.10000000000E+02 0. -1.
</event>
<event>
 5    1  0.1279376E-008  0.4177817E+03  0.7957747E-01  0.3301524E+00
         13   -1    0    0    0    0  0.00000000000E+00  0.00000000000E+00  0.14999999963E+04  0.15000000000E+04  0.10566000000E+00 0. -1.
        994   -1    0    0    0    0 -0.00000000000E+00 -0.00000000000E+00  0.11368683772E-12  0.17120000000E+03  0.17120000000E+03 0.  0.
         13    1    1    2    0    0  0.96866542695E+02  0.41168516197E+02  0.12091737559E+03  0.16030906619E+03  0.10566000000E+00 0. -1.
        994    1    1    2    0    0 -0.97107999884E+02 -0.38861441993E+02  0.86845861609E+02  0.21861340076E+03  0.17120000000E+03 0.  0.
        998    1    1    2    0    0  0.24145718843E+00 -0.23070742040E+01  0.12922367591E+04  0.12922775330E+04  0.10000000000E+02 0. -1.
</event>
<event>
 5    1  0.1279376E-008  0.3843435E+03  0.7957747E-01  0.3432461E+00
         13   -1    0    0    0    0  0.00000000000E+00  0.00000000000E+00  0.14999999963E+04  0.15000000000E+04  0.10566000000E+00 0. -1.
        994   -1    0    0    0    0 -0.00000000000E+00 -0.00000000000E+00  0.11368683772E-12  0.17120000000E+03  0.17120000000E+03 0.  0.
         13    1    1    2    0    0 -0.22825895277E+02 -0.10320468285E+02  0.13493261181E+03  0.13723831263E+03  0.10566000000E+00 0. -1.
        994    1    1    2    0    0  0.53563301102E+02 -0.22806821818E+02  0.13207032408E+02  0.18130924977E+03  0.17120000000E+03 0.  0.
        998    1    1    2    0    0 -0.30737405826E+02  0.33127290103E+02  0.13518603521E+04  0.13526524376E+04  0.10000000000E+02 0. -1.
</event>
<event>
 5    1  0.1279376E-008  0.3646266E+03  0.7957747E-01  0.3520957E+00
         13   -1    0    0    0    0  0.00000000000E+00  0.00000000000E+00  0.14999999963E+04  0.15000000000E+04  0.10566000000E+00 0. -1.
        994   -1    0    0    0    0 -0.00000000000E+00 -0.00000000000E+00  0.11368683772E-12  0.17120000000E+03  0.17120000000E+03 0.  0.
         13    1    1    2    0    0  0.25088912255E+03  0.14675217530E+03  0.91627212014E+03  0.96126799701E+03  0.10566000000E+00 0. -1.
        994    1    1    2    0    0 -0.24922610226E+03 -0.13986318453E+03  0.37805887626E+03  0.50389811902E+03  0.17120000000E+03 0.  0.
        998    1    1    2    0    0 -0.16630202914E+01 -0.68889907729E+01  0.20566899988E+03  0.20603388397E+03  0.10000000000E+02 0.  1.
</event>
<event>
 5    1  0.1279376E-008  0.3763202E+03  0.7957747E-01  0.3467339E+00
         13   -1    0    0    0    0  0.00000000000E+00  0.00000000000E+00  0.14999999963E+04  0.15000000000E+04  0.10566000000E+00 0. -1.
        994   -1    0    0    0    0 -0.00000000000E+00 -0.00000000000E+00  0.11368683772E-12  0.17120000000E+03  0.17120000000E+03 0.  0.
         13    1    1    2    0    0 -0.14799499952E+02  0.65453291397E+02  0.35304849967E+03  0.35936946564E+03  0.10566000000E+00 0. -1.
        994    1    1    2    0    0 -0.12741819968E+02 -0.49587684012E+02  0.14925186731E+02  0.17931395255E+03  0.17120000000E+03 0.  0.
        998    1    1    2    0    0  0.27541319920E+02 -0.15865607385E+02  0.11320263099E+04  0.11325165818E+04  0.10000000000E+02 0. -1.
</event>
<event>
 5    1  0.1279376E-008  0.3828278E+03  0.7957747E-01  0.3438937E+00
         13   -1    0    0    0    0  0.00000000000E+00  0.00000000000E+00  0.14999999963E+04  0.15000000000E+04  0.10566000000E+00 0.  1.
        994   -1    0    0    0    0 -0.00000000000E+00 -0.00000000000E+00  0.11368683772E-12  0.17120000000E+03  0.17120000000E+03 0.  0.
         13    1    1    2    0    0  0.11544498012E+00 -0.29487039247E+02  0.12728128852E+03  0.13065234932E+03  0.10566000000E+00 0.  1.
        994    1    1    2    0    0 -0.10468437935E+02  0.51063026537E+02  0.11763789526E+02  0.17934560941E+03  0.17120000000E+03 0.  0.
        998    1    1    2    0    0  0.10352992955E+02 -0.21575987290E+02  0.13609549182E+04  0.13612020413E+04  0.10000000000E+02 0.  1.
</event>
<event>
 5    1  0.1279376E-008  0.3724626E+03  0.7957747E-01  0.3484649E+00
         13   -1    0    0    0    0  0.00000000000E+00  0.00000000000E+00  0.14999999963E+04  0.15000000000E+04  0.10566000000E+00 0. -1.
        994   -1    0    0    0    0 -0.00000000000E+00 -0.00000000000E+00  0.11368683772E-12  0.17120000000E+03  0.17120000000E+03 0.  0.
         13    1    1    2    0    0 -0.15833749260E+02  0.55852453287E+01  0.13820127771E+02  0.21746486536E+02  0.10566000000E+00 0. -1.
        994    1    1    2    0    0  0.21105238965E+02 -0.57737506427E+01  0.96307347297E+01  0.17286109556E+03  0.17120000000E+03 0.  0.
        998    1    1    2    0    0 -0.52714897042E+01  0.18850531400E+00  0.14765491338E+04  0.14765924179E+04  0.10000000000E+02 0. -1.
</event>
<event>
 5    1  0.1279376E-008  0.3826131E+03  0.7957747E-01  0.3439859E+00
         13   -1    0    0    0    0  0.00000000000E+00  0.00000000000E+00  0.14999999963E+04  0.15000000000E+04  0.10566000000E+00 0.  1.
        994   -1    0    0    0    0 -0.00000000000E+00 -0.00000000000E+00  0.11368683772E-12  0.17120000000E+03  0.17120000000E+03 0.  0.
         13    1    1    2    0    0  0.25109082736E+00 -0.27159294657E+02  0.13773436201E+03  0.14038680841E+03  0.10566000000E+00 0.  1.
        994    1    1    2    0    0 -0.13238777993E+02  0.84355007474E+01  0.36369756486E+01  0.17195665299E+03  0.17120000000E+03 0.  0.
        998    1    1    2    0    0  0.12987687165E+02  0.18723793909E+02  0.13586286586E+04  0.13588565386E+04  0.10000000000E+02 0.  1.
</event>
<event>
 5    1  0.1279376E-008  0.3845322E+03  0.7957747E-01  0.3431659E+00
         13   -1    0    0    0    0  0.00000000000E+00  0.00000000000E+00  0.14999999963E+04  0.15000000000E+04  0.10566000000E+00 0. -1.
        994   -1    0    0    0    0 -0.00000000000E+00 -0.00000000000E+00  0.11368683772E-12  0.17120000000E+03  0.17120000000E+03 0.  0.
         13    1    1    2    0    0  0.17433965856E+02  0.34727227581E+01  0.81656124165E+02  0.83568754607E+02  0.10566000000E+00 0. -1.
        994    1    1    2    0    0 -0.16575581372E+02 -0.30272509855E+01  0.27982255503E+01  0.17204994685E+03  0.17120000000E+03 0.  0.
        998    1    1    2    0    0 -0.85838448421E+00 -0.44547177264E+00  0.14155456466E+04  0.14155812985E+04  0.10000000000E+02 0. -1.
</event>
<event>
 5    1  0.1279376E-008  0.3846031E+03  0.7957747E-01  0.3431357E+00
         13   -1    0    0    0    0  0.00000000000E+00  0.00000000000E+00  0.14999999963E+04  0.15000000000E+04  0.10566000000E+00 0.  1.
        994   -1    0    0    0    0 -0.00000000000E+00 -0.00000000000E+00  0.11368683772E-12  0.17120000000E+03  0.17120000000E+03 0.  0.
         13    1    1    2    0    0 -0.17908519945E+01 -0.22740433804E+02  0.12064560316E+03  0.12278317151E+03  0.10566000000E+00 0.  1.
        994    1    1    2    0    0  0.18480450711E+01  0.34705407815E+02  0.58149051104E+01  0.17478882608E+03  0.17120000000E+03 0.  0.
        998    1    1    2    0    0 -0.57193076595E-01 -0.11964974011E+02  0.13735394880E+04  0.13736280024E+04  0.10000000000E+02 0.  1.
</event>
<event>
 5    1  0.1279376E-008  0.3694652E+03  0.7957747E-01  0.3498352E+00
         13   -1    0    0    0    0  0.00000000000E+00  0.00000000000E+00  0.14999999963E+04  0.15000000000E+04  0.10566000000E+00 0.  1.
        994   -1    0    0    0    0 -0.00000000000E+00 -0.00000000000E+00  0.11368683772E-12  0.17120000000E+03  0.17120000000E+03 0.  0.
         13    1    1    2    0    0 -0.66106515622E+02  0.43834869204E+01  0.19489291545E+03  0.20584592788E+03  0.10566000000E+00 0.  1.
        994    1    1    2    0    0  0.48107229846E+02  0.86412833729E+01  0.19039399187E+02  0.17905562282E+03  0.17120000000E+03 0.  0.
        998    1    1    2    0    0  0.17999285776E+02 -0.13024770293E+02  0.12860676816E+04  0.12862984493E+04  0.10000000000E+02 0.  1.
</event>
<event>
 5    1  0.1279376E-008  0.3857334E+03  0.7957747E-01  0.3426568E+00
         13   -1    0    0    0    0  0.00000000000E+00  0.00000000000E+00  0.14999999963E+04  0.15000000000E+04  0.10566000000E+00 0.  1.
        994   -1    0    0    0    0 -0.00000000000E+00 -0.00000000000E+00  0.11368683772E-12  0.17120000000E+03  0.17120000000E+03 0.  0.
         13    1    1    2    0    0  0.14750185841E+02  0.41447365377E+01  0.89597130903E+02  0.90897765943E+02  0.10566000000E+00 0.  1.
        994    1    1    2    0    0 -0.14791416781E+02 -0.23797880604E+01  0.20031809499E+01  0.17186594234E+03  0.17120000000E+03 0.  0.
        998    1    1    2    0    0  0.41230939771E-01 -0.17649484773E+01  0.14083996844E+04  0.14084362917E+04  0.10000000000E+02 0.  1.
</event>
<event>
 5    1  0.1279376E-008  0.3823571E+03  0.7957747E-01  0.3440959E+00
         13   -1    0    0    0    0  0.00000000000E+00  0.00000000000E+00  0.14999999963E+04  0.15000000000E+04  0.10566000000E+00 0.  1.
        994   -1    0    0    0    0 -0.00000000000E+00 -0.00000000000E+00  0.11368683772E-12  0.17120000000E+03  0.17120000000E+03 0.  0.
         13    1    1    2    0    0 -0.14910329328E+02 -0.25227600576E+01  0.37374748949E+02  0.40318299345E+02  0.10566000000E+00 0.  1.
        994    1    1    2    0    0  0.12651544437E+02  0.27256694112E+01  0.35037949953E+01  0.17172421911E+03  0.17120000000E+03 0.  0.
        998    1    1    2    0    0  0.22587848908E+01 -0.20290935361E+00  0.14591214523E+04  0.14591574815E+04  0.10000000000E+02 0.  1.
</event>
<event>
 5    1  0.1279376E-008  0.3832338E+03  0.7957747E-01  0.3437198E+00
         13   -1    0    0    0    0  0.00000000000E+00  0.00000000000E+00  0.14999999963E+04  0.15000000000E+04  0.10566000000E+00 0. -1.
        994   -1    0    0    0    0 -0.00000000000E+00 -0.00000000000E+00  0.11368683772E-12  0.17120000000E+03  0.17120000000E+03 0.  0.
         13    1    1    2    0    0 -0.67392694717E+01  0.15863845150E+02  0.57491480278E+02  0.60019670147E+02  0.10566000000E+00 0. -1.
        994    1    1    2    0    0 -0.48752197698E+00 -0.16281637431E+02  0.33876624713E+01  0.17200652793E+03  0.17120000000E+03 0.  0.
        998    1    1    2    0    0  0.72267914487E+01  0.41779228037E+00  0.14391208535E+04  0.14391738019E+04  0.10000000000E+02 0. -1.
</event>
<event>
 5    1  0.1279376E-008  0.3816455E+03  0.7957747E-01  0.3444025E+00
         13   -1    0    0    0    0  0.00000000000E+00  0.00000000000E+00  0.14999999963E+04  0.15000000000E+04  0.10566000000E+00 0. -1.
        994   -1    0    0    0    0 -0.00000000000E+00 -0.00000000000E+00  0.11368683772E-12  0.17120000000E+03  0.17120000000E+03 0.  0.
         13    1    1    2    0    0 -0.44108465573E+01 -0.12658250066E+02  0.25751132678E+02  0.29031342723E+02  0.10566000000E+00 0. -1.
        994    1    1    2    0    0  0.11944777603E+01  0.11466083173E+02  0.37468088285E+01  0.17162860023E+03  0.17120000000E+03 0.  0.
        998    1    1    2    0    0  0.32163687969E+01  0.11921668936E+01  0.14705020548E+04  0.14705400570E+04  0.10000000000E+02 0. -1.
</event>
<event>
 5    1  0.1279376E-008  0.3799363E+03  0.7957747E-01  0.3451436E+00
         13   -1    0    0    0    0  0.00000000000E+00  0.00000000000E+00  0.14999999963E+04  0.15000000000E+04  0.10566000000E+00 0. -1.
        994   -1    0    0    0    0 -0.00000000000E+00 -0.00000000000E+00  0.11368683772E-12  0.17120000000E+03  0.17120000000E+03 0.  0.
         13    1    1    2    0    0 -0.17853981616E+02  0.13651354236E+02  0.54092594317E+02  0.58575968246E+02  0.10566000000E+00 0. -1.
        994    1    1    2    0    0  0.40949378506E+02 -0.81928400479E+01  0.10018641418E+02  0.17650435520E+03  0.17120000000E+03 0.  0.
        998    1    1    2    0    0 -0.23095396890E+02 -0.54585141878E+01  0.14358887605E+04  0.14361196766E+04  0.10000000000E+02 0. -1.
</event>
<event>
 5    1  0.1279376E-008  0.3987196E+03  0.7957747E-01  0.3373491E+00
         13   -1    0    0    0    0  0.00000000000E+00  0.00000000000E+00  0.14999999963E+04  0.15000000000E+04  0.10566000000E+00 0. -1.
        994   -1    0    0    0    0 -0.00000000000E+00 -0.00000000000E+00  0.11368683772E-12  0.17120000000E+03  0.17120000000E+03 0.  0.
         13    1    1    2    0    0  0.31164969422E+02  0.18914378976E+02  0.15099364740E+02  0.39458979088E+02  0.10566000000E+00 0. -1.
        994    1    1    2    0    0 -0.12554429023E+02  0.28597124689E+02  0.30823008831E+02  0.17673400098E+03  0.17120000000E+03 0.  0.
        998    1    1    2    0    0 -0.18610540399E+02 -0.47511503665E+02  0.14540776227E+04  0.14550070199E+04  0.10000000000E+02 0. -1.
</event>
<event>
 5    1  0.1279376E-008  0.2844125E+03  0.7957747E-01  0.4013994E+00
         13   -1    0    0    0    0  0.00000000000E+00  0.00000000000E+00  0.14999999963E+04  0.15000000000E+04  0.10566000000E+00 0. -1.
        994   -1    0    0    0    0 -0.00000000000E+00 -0.00000000000E+00  0.11368683772E-12  0.17120000000E+03  0.17120000000E+03 0.  0.
         13    1    1    2    0    0  0.12690303655E+03 -0.17359619399E+03  0.34598250552E+03  0.40736215404E+03  0.10566000000E+00 0. -1.
        994    1    1    2    0    0 -0.16621360294E+03  0.17139267424E+03  0.34223465322E+03  0.45103925378E+03  0.17120000000E+03 0.  0.
        998    1    1    2    0    0  0.39310566394E+02  0.22035197483E+01  0.81178283754E+03  0.81279859218E+03  0.10000000000E+02 0. -1.
</event>
<event>
 5    1  0.1279376E-008  0.3828691E+03  0.7957747E-01  0.3438760E+00
         13   -1    0    0    0    0  0.00000000000E+00  0.00000000000E+00  0.14999999963E+04  0.15000000000E+04  0.10566000000E+00 0.  1.
        994   -1    0    0    0    0 -0.00000000000E+00 -0.00000000000E+00  0.11368683772E-12  0.17120000000E+03  0.17120000000E+03 0.  0.
         13    1    1    2    0    0  0.13772398809E+02 -0.23617448310E+01  0.35880619850E+02  0.38505672991E+02  0.10566000000E+00 0.  1.
        994    1    1    2    0    0 -0.59364834421E+01 -0.24639274115E+00  0.28086971625E+01  0.17132609645E+03  0.17120000000E+03 0.  0.
        998    1    1    2    0    0 -0.78359153670E+01  0.26081375721E+01  0.14613106793E+04  0.14613682306E+04  0.10000000000E+02 0.  1.
</event>
<event>
 5    1  0.1279376E-008  0.3731141E+03  0.7957747E-01  0.3481701E+00
         13   -1    0    0    0    0  0.00000000000E+00  0.00000000000E+00  0.14999999963E+04  0.15000000000E+04  0.10566000000E+00 0. -1.
        994   -1    0    0    0    0 -0.00000000000E+00 -0.00000000000E+00  0.11368683772E-12  0.17120000000E+03  0.17120000000E+03 0.  0.
         13    1    1    2    0    0  0.44866025380E+01 -0.10026560067E+02  0.43099299999E+01  0.11800346171E+02  0.10566000000E+00 0. -1.
        994    1    1    2    0    0  0.98925945062E+01  0.16263937901E+02  0.88910581439E+01  0.17248440514E+03  0.17120000000E+03 0.  0.
        998    1    1    2    0    0 -0.14379197044E+02 -0.62373778345E+01  0.14867990081E+04  0.14869152487E+04  0.10000000000E+02 0. -1.
</event>
<event>
 5    1  0.1279376E-008  0.3840935E+03  0.7957747E-01  0.3433526E+00
         13   -1    0    0    0    0  0.00000000000E+00  0.00000000000E+00  0.14999999963E+04  0.15000000000E+04  0.10566000000E+00 0. -1.
        994   -1    0    0    0    0 -0.00000000000E+00 -0.00000000000E+00  0.11368683772E-12  0.17120000000E+03  0.17120000000E+03 0.  0.
         13    1    1    2    0    0 -0.19603218178E+02  0.62750900057E+01  0.99198912831E+02  0.10131188671E+03  0.10566000000E+00 0. -1.
        994    1    1    2    0    0  0.15807103638E+02 -0.34613491257E+01  0.29449755116E+01  0.17198825060E+03  0.17120000000E+03 0.  0.
        998    1    1    2    0    0  0.37961145394E+01 -0.28137408800E+01  0.13978561079E+04  0.13978998627E+04  0.10000000000E+02 0. -1.
</event>
<event>
 5    1  0.1279376E-008  0.3743957E+03  0.7957747E-01  0.3475930E+00
         13   -1    0    0    0    0  0.00000000000E+00  0.00000000000E+00  0.14999999963E+04  0.15000000000E+04  0.10566000000E+00 0.  1.
        994   -1    0    0    0    0 -0.00000000000E+00 -0.00000000000E+00  0.11368683772E-12  0.17120000000E+03  0.17120000000E+03 0.  0.
         13    1    1    2    0    0 -0.36279388487E+02  0.44687293968E+02  0.24421821437E+03  0.25090973609E+03  0.10566000000E+00 0.  1.
        994    1    1    2    0    0  0.37064127656E+02 -0.58063829865E+01  0.11798471310E+02  0.17565906628E+03  0.17120000000E+03 0.  0.
        998    1    1    2    0    0 -0.78473916936E+00 -0.38880910982E+02  0.12439833106E+04  0.12446311976E+04  0.10000000000E+02 0.  1.
</event>
<event>
 5    1  0.1279376E-008  0.3728015E+03  0.7957747E-01  0.3483114E+00
         13   -1    0    0    0    0  0.00000000000E+00  0.00000000000E+00  0.14999999963E+04  0.15000000000E+04  0.10566000000E+00 0. -1.
        994   -1    0    0    0    0 -0.00000000000E+00 -0.00000000000E+00  0.11368683772E-12  0.17120000000E+03  0.17120000000E+03 0.  0.
         13    1    1    2    0    0  0.69695300075E+02 -0.54583164061E+02  0.26971312320E+03  0.28386957682E+03  0.10566000000E+00 0. -1.
        994    1    1    2    0    0 -0.66977227196E+02  0.41873301932E+02  0.34796800101E+02  0.19172787923E+03  0.17120000000E+03 0.  0.
        998    1    1    2    0    0 -0.27180728791E+01  0.12709862129E+02  0.11954900730E+04  0.11956025439E+04  0.10000000000E+02 0. -1.
</event>
<event>
 5    1  0.1279376E-008  0.3834032E+03  0.7957747E-01  0.3436473E+00
         13   -1    0    0    0    0  0.00000000000E+00  0.00000000000E+00  0.14999999963E+04  0.15000000000E+04  0.10566000000E+00 0. -1.
        994   -1    0    0    0    0 -0.00000000000E+00 -0.00000000000E+00  0.11368683772E-12  0.17120000000E+03  0.17120000000E+03 0.  0.
         13    1    1    2    0    0 -0.12951957247E+02  0.19923922539E+02  0.11215003910E+03  0.11464012526E+03  0.10566000000E+00 0. -1.
        994    1    1    2    0    0 -0.57753123980E+01 -0.27358236480E+02  0.50138098209E+01  0.17354078952E+03  0.17120000000E+03 0.  0.
        998    1    1    2    0    0  0.18727269645E+02  0.74343139407E+01  0.13828361474E+04  0.13830190852E+04  0.10000000000E+02 0. -1.
</event>
<event>
 5    1  0.1279376E-008  0.3850609E+03  0.7957747E-01  0.3429414E+00
         13   -1    0    0    0    0  0.00000000000E+00  0.00000000000E+00  0.14999999963E+04  0.15000000000E+04  0.10566000000E+00 0. -1.
        994   -1    0    0    0    0 -0.00000000000E+00 -0.00000000000E+00  0.11368683772E-12  0.17120000000E+03  0.17120000000E+03 0.  0.
         13    1    1    2    0    0 -0.10049108148E+02  0.18207899323E+02  0.12021864769E+03  0.12200428922E+03  0.10566000000E+00 0. -1.
        994    1    1    2    0    0  0.19516825662E+02 -0.19987441451E+02  0.41700776572E+01  0.17351436208E+03  0.17120000000E+03 0.  0.
        998    1    1    2    0    0 -0.94677175140E+01  0.17795421286E+01  0.13756112709E+04  0.13756813487E+04  0.10000000000E+02 0. -1.
</event>
<event>
 5    1  0.1279376E-008  0.3830416E+03  0.7957747E-01  0.3438021E+00
         13   -1    0    0    0    0  0.00000000000E+00  0.00000000000E+00  0.14999999963E+04  0.15000000000E+04  0.10566000000E+00 0. -1.
        994   -1    0    0    0    0 -0.00000000000E+00 -0.00000000000E+00  0.11368683772E-12  0.17120000000E+03  0.17120000000E+03 0.  0.
         13    1    1    2    0    0  0.17586773477E+02  0.94556192712E+01  0.79422582320E+02  0.81894206655E+02  0.10566000000E+00 0. -1.
        994    1    1    2    0    0 -0.83849437209E+01  0.61185449328E+01  0.29622610403E+01  0.17153996288E+03  0.17120000000E+03 0.  0.
        998    1    1    2    0    0 -0.92018297557E+01 -0.15574164204E+02  0.14176151529E+04  0.14177658305E+04  0.10000000000E+02 0. -1.
</event>
<event>
 5    1  0.1279376E-008  0.3726845E+03  0.7957747E-01  0.3483644E+00
         13   -1    0    0    0    0  0.00000000000E+00  0.00000000000E+00  0.14999999963E+04  0.15000000000E+04  0.10566000000E+00 0.  1.
        994   -1    0    0    0    0 -0.00000000000E+00 -0.00000000000E+00  0.11368683772E-12  0.17120000000E+03  0.17120000000E+03 0.  0.
         13    1    1    2    0    0  0.50752195897E+01  0.10229242510E+02  0.46072669954E+01  0.12313948571E+02  0.10566000000E+00 0.  1.
        994    1    1    2    0    0 -0.71648133290E+01 -0.95712509794E+01  0.83625044482E+01  0.17182058921E+03  0.17120000000E+03 0.  0.
        998    1    1    2    0    0  0.20895937393E+01 -0.65799153075E+00  0.14870302248E+04  0.14870654622E+04  0.10000000000E+02 0.  1.
</event>
<event>
 5    1  0.1279376E-008  0.3833423E+03  0.7957747E-01  0.3436733E+00
         13   -1    0    0    0    0  0.00000000000E+00  0.00000000000E+00  0.14999999963E+04  0.15000000000E+04  0.10566000000E+00 0.  1.
        994   -1    0    0    0    0 -0.00000000000E+00 -0.00000000000E+00  0.11368683772E-12  0.17120000000E+03  0.17120000000E+03 0.  0.
         13    1    1    2    0    0 -0.14292156906E+02  0.23226937822E+00  0.40564000598E+02  0.43008941008E+02  0.10566000000E+00 0.  1.
        994    1    1    2    0    0  0.11358874515E+02 -0.52646046837E+01  0.29738296320E+01  0.17168291632E+03  0.17120000000E+03 0.  0.
        998    1    1    2    0    0  0.29332823912E+01  0.50323353055E+01  0.14564621660E+04  0.14565081427E+04  0.10000000000E+02 0.  1.
</event>
<event>
 5    1  0.1279376E-008  0.3741537E+03  0.7957747E-01  0.3477017E+00
         13   -1    0    0    0    0  0.00000000000E+00  0.00000000000E+00  0.14999999963E+04  0.15000000000E+04  0.10566000000E+00 0.  1.
        994   -1    0    0    0    0 -0.00000000000E+00 -0.00000000000E+00  0.11368683772E-12  0.17120000000E+03  0.17120000000E+03 0.  0.
         13    1    1    2    0    0  0.34753779081E+01 -0.15238718542E+02  0.14280274295E+02  0.21171542041E+02  0.10566000000E+00 0.  1.
        994    1    1    2    0    0  0.62889287626E+01  0.53822891169E+01  0.73475997141E+01  0.17155741570E+03  0.17120000000E+03 0.  0.
        998    1    1    2    0    0 -0.97643066707E+01  0.98564294255E+01  0.14783721223E+04  0.14784710423E+04  0.10000000000E+02 0.  1.
</event>
<event>
 5    1  0.1279376E-008  0.3832358E+03  0.7957747E-01  0.3437189E+00
         13   -1    0    0    0    0  0.00000000000E+00  0.00000000000E+00  0.14999999963E+04  0.15000000000E+04  0.10566000000E+00 0. -1.
        994   -1    0    0    0    0 -0.00000000000E+00 -0.00000000000E+00  0.11368683772E-12  0.17120000000E+03  0.17120000000E+03 0.  0.
         13    1    1    2    0    0 -0.16582705167E+02 -0.13591450630E+02  0.92654708053E+02  0.95103205673E+02  0.10566000000E+00 0. -1.
        994    1    1    2    0    0  0.81792649632E+01  0.64942728726E+01  0.28694320334E+01  0.17154226767E+03  0.17120000000E+03 0.  0.
        998    1    1    2    0    0  0.84034402036E+01  0.70971777573E+01  0.14044758562E+04  0.14045545267E+04  0.10000000000E+02 0. -1.
</event>
<event>
 5    1  0.1279376E-008  0.3748183E+03  0.7957747E-01  0.3474036E+00
         13   -1    0    0    0    0  0.00000000000E+00  0.00000000000E+00  0.14999999963E+04  0.15000000000E+04  0.10566000000E+00 0. -1.
        994   -1    0    0    0    0 -0.00000000000E+00 -0.00000000000E+00  0.11368683772E-12  0.17120000000E+03  0.17120000000E+03 0.  0.
         13    1    1    2    0    0 -0.61808447838E+02  0.14007220457E+02  0.13139579646E+03  0.14588129743E+03  0.10566000000E+00 0. -1.
        994    1    1    2    0    0  0.62340771982E+02 -0.18160368313E+02  0.28658589114E+02  0.18532923557E+03  0.17120000000E+03 0.  0.
        998    1    1    2    0    0 -0.53232414350E+00  0.41531478567E+01  0.13399456107E+04  0.13399894670E+04  0.10000000000E+02 0. -1.
</event>
<event>
 5    1  0.1279376E-008  0.3830684E+03  0.7957747E-01  0.3437906E+00
         13   -1    0    0    0    0  0.00000000000E+00  0.00000000000E+00  0.14999999963E+04  0.15000000000E+04  0.10566000000E+00 0. -1.
        994   -1    0    0    0    0 -0.00000000000E+00 -0.00000000000E+00  0.11368683772E-12  0.17120000000E+03  0.17120000000E+03 0.  0.
         13    1    1    2    0    0  0.10885155711E+02 -0.12398624296E+02  0.50182830548E+02  0.52825563368E+02  0.10566000000E+00 0. -1.
        994    1    1    2    0    0 -0.36102875891E+02 -0.74870151408E+01  0.71042334123E+01  0.17526945876E+03  0.17120000000E+03 0.  0.
        998    1    1    2    0    0  0.25217720181E+02  0.19885639437E+02  0.14427129323E+04  0.14431049779E+04  0.10000000000E+02 0. -1.
</event>
<event>
 5    1  0.1279376E-008  0.3827029E+03  0.7957747E-01  0.3439473E+00
         13   -1    0    0    0    0  0.00000000000E+00  0.00000000000E+00  0.14999999963E+04  0.15000000000E+04  0.10566000000E+00 0.  1.
        994   -1    0    0    0    0 -0.00000000000E+00 -0.00000000000E+00  0.11368683772E-12  0.17120000000E+03  0.17120000000E+03 0.  0.
         13    1    1    2    0    0  0.39901298001E+01 -0.11025577979E+02  0.23685240157E+02  0.26428890838E+02  0.10566000000E+00 0.  1.
        994    1    1    2    0    0 -0.76994883040E+00  0.93166907078E+01  0.30645285715E+01  0.17148243316E+03  0.17120000000E+03 0.  0.
        998    1    1    2    0    0 -0.32201809697E+01  0.17088872710E+01  0.14732502276E+04  0.14732886760E+04  0.10000000000E+02 0.  1.
</event>
<event>
 5    1  0.1279376E-008  0.3804612E+03  0.7957747E-01  0.3449153E+00
         13   -1    0    0    0    0  0.00000000000E+00  0.00000000000E+00  0.14999999963E+04  0.15000000000E+04  0.10566000000E+00 0. -1.
        994   -1    0    0    0    0 -0.00000000000E+00 -0.00000000000E+00  0.11368683772E-12  0.17120000000E+03  0.17120000000E+03 0.  0.
         13    1    1    2    0    0  0.14372635364E+02 -0.56314568545E+01  0.28830185271E+02  0.32702854622E+02  0.10566000000E+00 0. -1.
        994    1    1    2    0    0 -0.13625961579E+02 -0.47785984898E+00  0.45212324831E+01  0.17180156205E+03  0.17120000000E+03 0.  0.
        998    1    1    2    0    0 -0.74667378542E+00  0.61093167035E+01  0.14666485785E+04  0.14666955833E+04  0.10000000000E+02 0. -1.
</event>
<event>
 5    1  0.2193962E-008  0.3863407E+03  0.7957747E-01  0.3424006E+00
         13   -1    0    0    0    0  0.00000000000E+00  0.00000000000E+00  0.14999999963E+04  0.15000000000E+04  0.10566000000E+00 0. -1.
        994   -1    0    0    0    0 -0.00000000000E+00 -0.00000000000E+00  0.11368683772E-12  0.17120000000E+03  0.17120000000E+03 0.  0.
         13    1    1    2    0    0 -0.11038159182E+02  0.30556237011E+01  0.65251558973E+02  0.66249187970E+02  0.10566000000E+00 0. -1.
        994    1    1    2    0    0  0.16139542217E+02  0.26682533699E+01  0.18426819957E+01  0.17198965049E+03  0.17120000000E+03 0.  0.
        998    1    1    2    0    0 -0.51013830349E+01 -0.57238770709E+01  0.14329057553E+04  0.14329611615E+04  0.10000000000E+02 0. -1.
</event>
<event>
 5    1  0.1279376E-008  0.3806863E+03  0.7957747E-01  0.3448176E+00
         13   -1    0    0    0    0  0.00000000000E+00  0.00000000000E+00  0.14999999963E+04  0.15000000000E+04  0.10566000000E+00 0. -1.
        994   -1    0    0    0    0 -0.00000000000E+00 -0.00000000000E+00  0.11368683772E-12  0.17120000000E+03  0.17120000000E+03 0.  0.
         13    1    1    2    0    0  0.76877126378E+01 -0.10506010673E+02  0.20754218373E+02  0.24499508774E+02  0.10566000000E+00 0. -1.
        994    1    1    2    0    0 -0.78815880162E+01  0.70209566248E+01  0.41588025298E+01  0.17157549038E+03  0.17120000000E+03 0.  0.
        998    1    1    2    0    0  0.19387537840E+00  0.34850540478E+01  0.14750869754E+04  0.14751250008E+04  0.10000000000E+02 0. -1.
</event>
<event>
 5    1  0.3143052E-008  0.3863407E+03  0.7957747E-01  0.3424006E+00
         13   -1    0    0    0    0  0.00000000000E+00  0.00000000000E+00  0.14999999963E+04  0.15000000000E+04  0.10566000000E+00 0.  1.
        994   -1    0    0    0    0 -0.00000000000E+00 -0.00000000000E+00  0.11368683772E-12  0.17120000000E+03  0.17120000000E+03 0.  0.
         13    1    1    2    0    0  0.73062346425E+01 -0.71651604824E+01  0.55766360835E+02  0.56697608011E+02  0.10566000000E+00 0.  1.
        994    1    1    2    0    0 -0.56380878927E+01  0.21745443600E+01  0.10855378760E+01  0.17131005537E+03  0.17120000000E+03 0.  0.
        998    1    1    2    0    0 -0.16681467498E+01  0.49906161224E+01  0.14431480976E+04  0.14431923366E+04  0.10000000000E+02 0.  1.
</event>
<event>
 5    1  0.1279376E-008  0.3860200E+03  0.7957747E-01  0.3425358E+00
         13   -1    0    0    0    0  0.00000000000E+00  0.00000000000E+00  0.14999999963E+04  0.15000000000E+04  0.10566000000E+00 0. -1.
        994   -1    0    0    0    0 -0.00000000000E+00 -0.00000000000E+00  0.11368683772E-12  0.17120000000E+03  0.17120000000E+03 0.  0.
         13    1    1    2    0    0 -0.18089262313E+01 -0.11192982567E+02  0.60330639567E+02  0.61386906645E+02  0.10566000000E+00 0. -1.
        994    1    1    2    0    0  0.56460498761E+01  0.10419307665E+01  0.12326369912E+01  0.17130067978E+03  0.17120000000E+03 0.  0.
        998    1    1    2    0    0 -0.38371236448E+01  0.10151051801E+02  0.14384367197E+04  0.14385124136E+04  0.10000000000E+02 0. -1.
</event>
<event>
 5    1  0.1279376E-008  0.3838769E+03  0.7957747E-01  0.3434449E+00
         13   -1    0    0    0    0  0.00000000000E+00  0.00000000000E+00  0.14999999963E+04  0.15000000000E+04  0.10566000000E+00 0.  1.
        994   -1    0    0    0    0 -0.00000000000E+00 -0.00000000000E+00  0.11368683772E-12  0.17120000000E+03  0.17120000000E+03 0.  0.
         13    1    1    2    0    0  0.67928401694E+01 -0.11506164485E+02  0.43681380289E+02  0.45679411628E+02  0.10566000000E+00 0.  1.
        994    1    1    2    0    0 -0.65577256514E+02 -0.44078715293E+02  0.23075555053E+02  0.18996113012E+03  0.17120000000E+03 0.  0.
        998    1    1    2    0    0  0.58784416345E+02  0.55584879778E+02  0.14332430609E+04  0.14355594583E+04  0.10000000000E+02 0.  1.
</event>
<event>
 5    1  0.1279376E-008  0.3812183E+03  0.7957747E-01  0.3445871E+00
         13   -1    0    0    0    0  0.00000000000E+00  0.00000000000E+00  0.14999999963E+04  0.15000000000E+04  0.10566000000E+00 0.  1.
        994   -1    0    0    0    0 -0.00000000000E+00 -0.00000000000E+00  0.11368683772E-12  0.17120000000E+03  0.17120000000E+03 0.  0.
         13    1    1    2    0    0 -0.84762042699E+02 -0.13127082170E+03  0.85695958739E+03  0.87108919067E+03  0.10566000000E+00 0.  1.
        994    1    1    2    0    0  0.95480630667E+02  0.14469924686E+03  0.11107042341E+03  0.26776949384E+03  0.17120000000E+03 0.  0.
        998    1    1    2    0    0 -0.10718587968E+02 -0.13428425152E+02  0.53196998549E+03  0.53234131550E+03  0.10000000000E+02 0. -1.
</event>
<event>
 5    1  0.1279376E-008  0.3832981E+03  0.7957747E-01  0.3436922E+00
         13   -1    0    0    0    0  0.00000000000E+00  0.00000000000E+00  0.14999999963E+04  0.15000000000E+04  0.10566000000E+00 0.  1.
        994   -1    0    0    0    0 -0.00000000000E+00 -0.00000000000E+00  0.11368683772E-12  0.17120000000E+03  0.17120000000E+03 0.  0.
         13    1    1    2    0    0  0.17763604524E+02 -0.17910808875E+02  0.13755225457E+03  0.13984626066E+03  0.10566000000E+00 0.  1.
        994    1    1    2    0    0 -0.10723648121E+02 -0.23800834829E+01  0.28765574237E+01  0.17157615222E+03  0.17120000000E+03 0.  0.
        998    1    1    2    0    0 -0.70399564035E+01  0.20290892358E+02  0.13595711843E+04  0.13597775871E+04  0.10000000000E+02 0.  1.
</event>
<event>
 5    1  0.1279376E-008  0.3853980E+03  0.7957747E-01  0.3427986E+00
         13   -1    0    0    0    0  0.00000000000E+00  0.00000000000E+00  0.14999999963E+04  0.15000000000E+04  0.10566000000E+00 0.  1.
        994   -1    0    0    0    0 -0.00000000000E+00 -0.00000000000E+00  0.11368683772E-12  0.17120000000E+03  0.17120000000E+03 0.  0.
         13    1    1    2    0    0 -0.26787071180E+01 -0.18324500773E+02  0.10663341299E+03  0.10822965735E+03  0.10566000000E+00 0.  1.
        994    1    1    2    0    0  0.41992999087E+02  0.22723632199E+02  0.89565183630E+01  0.17795908140E+03  0.17120000000E+03 0.  0.
        998    1    1    2    0    0 -0.39314291969E+02 -0.43991314256E+01  0.13844100649E+04  0.13850112612E+04  0.10000000000E+02 0.  1.
</event>
<event>
 5    1  0.1279376E-008  0.3686576E+03  0.7957747E-01  0.3502083E+00
         13   -1    0    0    0    0  0.00000000000E+00  0.00000000000E+00  0.14999999963E+04  0.15000000000E+04  0.10566000000E+00 0.  1.
        994   -1    0    0    0    0 -0.00000000000E+00 -0.00000000000E+00  0.11368683772E-12  0.17120000000E+03  0.17120000000E+03 0.  0.
         13    1    1    2    0    0 -0.49306422605E+02 -0.93159322897E+02  0.30656692195E+03  0.32418061563E+03  0.10566000000E+00 0.  1.
        994    1    1    2    0    0  0.83602498969E+02  0.13133930642E+03  0.99588746327E+02  0.25192607972E+03  0.17120000000E+03 0.  0.
        998    1    1    2    0    0 -0.34296076364E+02 -0.38179983527E+02  0.10938443280E+04  0.10950933047E+04  0.10000000000E+02 0.  1.
</event>
<event>
 5    1  0.1279376E-008  0.3827959E+03  0.7957747E-01  0.3439074E+00
         13   -1    0    0    0    0  0.00000000000E+00  0.00000000000E+00  0.14999999963E+04  0.15000000000E+04  0.10566000000E+00 0.  1.
        994   -1    0    0    0    0 -0.00000000000E+00 -0.00000000000E+00  0.11368683772E-12  0.17120000000E+03  0.17120000000E+03 0.  0.
         13    1    1    2    0    0  0.28832403720E+01 -0.14314141403E+02  0.37943162599E+02  0.40655903276E+02  0.10566000000E+00 0.  1.
        994    1    1    2    0    0 -0.17276443482E+02  0.82048390241E+01  0.39409465065E+01  0.17231008659E+03  0.17120000000E+03 0.  0.
        998    1    1    2    0    0  0.14393203110E+02  0.61093023793E+01  0.14581158872E+04  0.14582340101E+04  0.10000000000E+02 0.  1.
</event>
<event>
 5    1  0.1279376E-008  0.3784112E+03  0.7957747E-01  0.3458106E+00
         13   -1    0    0    0    0  0.00000000000E+00  0.00000000000E+00  0.14999999963E+04  0.15000000000E+04  0.10566000000E+00 0. -1.
        994   -1    0    0    0    0 -0.00000000000E+00 -0.00000000000E+00  0.11368683772E-12  0.17120000000E+03  0.17120000000E+03 0.  0.
         13    1    1    2    0    0  0.23645825717E+02 -0.11117067535E+03  0.61202239099E+03  0.62248651581E+03  0.10566000000E+00 0. -1.
        994    1    1    2    0    0 -0.87939301588E+02  0.12312394616E+03  0.86179568201E+02  0.24419087792E+03  0.17120000000E+03 0.  0.
        998    1    1    2    0    0  0.64293475871E+02 -0.11953270807E+02  0.80179803709E+03  0.80452260627E+03  0.10000000000E+02 0. -1.
</event>
<event>
 5    1  0.1279376E-008  0.3844123E+03  0.7957747E-01  0.3432169E+00
         13   -1    0    0    0    0  0.00000000000E+00  0.00000000000E+00  0.14999999963E+04  0.15000000000E+04  0.10566000000E+00 0.  1.
        994   -1    0    0    0    0 -0.00000000000E+00 -0.00000000000E+00  0.11368683772E-12  0.17120000000E+03  0.17120000000E+03 0.  0.
         13    1    1    2    0    0  0.22869588002E+02 -0.81377220905E+01  0.12811189723E+03  0.13039137223E+03  0.10566000000E+00 0.  1.
        994    1    1    2    0    0 -0.24743648891E+02  0.47867745731E+02  0.11548542575E+02  0.17985098854E+03  0.17120000000E+03 0.  0.
        998    1    1    2    0    0  0.18740608896E+01 -0.39730023640E+02  0.13603395565E+04  0.13609576392E+04  0.10000000000E+02 0.  1.
</event>
<event>
 5    1  0.1279376E-008  0.2835830E+03  0.7957747E-01  0.4020673E+00
         13   -1    0    0    0    0  0.00000000000E+00  0.00000000000E+00  0.14999999963E+04  0.15000000000E+04  0.10566000000E+00 0.  1.
        994   -1    0    0    0    0 -0.00000000000E+00 -0.00000000000E+00  0.11368683772E-12  0.17120000000E+03  0.17120000000E+03 0.  0.
         13    1    1    2    0    0  0.81309220077E+01 -0.16936077549E+03  0.55868643183E+03  0.58384905964E+03  0.10566000000E+00 0.  1.
        994    1    1    2    0    0 -0.44371443745E+02  0.15964848543E+03  0.12302885229E+03  0.26814548741E+03  0.17120000000E+03 0.  0.
        998    1    1    2    0    0  0.36240521737E+02  0.97122900626E+01  0.81828471216E+03  0.81920545296E+03  0.10000000000E+02 0. -1.
</event>
<event>
 5    1  0.1279376E-008  0.3846187E+03  0.7957747E-01  0.3431291E+00
         13   -1    0    0    0    0  0.00000000000E+00  0.00000000000E+00  0.14999999963E+04  0.15000000000E+04  0.10566000000E+00 0.  1.
        994   -1    0    0    0    0 -0.00000000000E+00 -0.00000000000E+00  0.11368683772E-12  0.17120000000E+03  0.17120000000E+03 0.  0.
         13    1    1    2    0    0 -0.14353275728E+01  0.14588023863E+02  0.57709999457E+02  0.59542638561E+02  0.10566000000E+00 0.  1.
        994    1    1    2    0    0  0.10278993343E+01 -0.13100774629E+02  0.23883975682E+01  0.17172021231E+03  0.17120000000E+03 0.  0.
        998    1    1    2    0    0  0.40742823856E+00 -0.14872492330E+01  0.14399015993E+04  0.14399371491E+04  0.10000000000E+02 0.  0.
</event>
<event>
 5    1  0.1279376E-008  0.3841602E+03  0.7957747E-01  0.3433242E+00
         13   -1    0    0    0    0  0.00000000000E+00  0.00000000000E+00  0.14999999963E+04  0.15000000000E+04  0.10566000000E+00 0. -1.
        994   -1    0    0    0    0 -0.00000000000E+00 -0.00000000000E+00  0.11368683772E-12  0.17120000000E+03  0.17120000000E+03 0.  0.
         13    1    1    2    0    0 -0.19198108244E+02 -0.16490155423E+01  0.87506502250E+02  0.89602933615E+02  0.10566000000E+00 0. -1.
        994    1    1    2    0    0  0.16845516606E+02  0.31474830563E+01  0.30166718501E+01  0.17208201065E+03  0.17120000000E+03 0.  0.
        998    1    1    2    0    0  0.23525916374E+01 -0.14984675140E+01  0.14094768222E+04  0.14095150557E+04  0.10000000000E+02 0. -1.
</event>
<event>
 5    1  0.1279376E-008  0.3853860E+03  0.7957747E-01  0.3428037E+00
         13   -1    0    0    0    0  0.00000000000E+00  0.00000000000E+00  0.14999999963E+04  0.15000000000E+04  0.10566000000E+00 0. -1.
        994   -1    0    0    0    0 -0.00000000000E+00 -0.00000000000E+00  0.11368683772E-12  0.17120000000E+03  0.17120000000E+03 0.  0.
         13    1    1    2    0    0 -0.42773656917E+01 -0.90763852194E+01  0.34118711284E+02  0.35563664738E+02  0.10566000000E+00 0. -1.
        994    1    1    2    0    0  0.41586807847E+01  0.11204025392E+02  0.19078801482E+01  0.17162722633E+03  0.17120000000E+03 0.  0.
        998    1    1    2    0    0  0.11868490699E+00 -0.21276401723E+01  0.14639734048E+04  0.14640091089E+04  0.10000000000E+02 0. -1.
</event>
<event>
 5    1  0.1279376E-008  0.3693044E+03  0.7957747E-01  0.3499094E+00
         13   -1    0    0    0    0  0.00000000000E+00  0.00000000000E+00  0.14999999963E+04  0.15000000000E+04  0.10566000000E+00 0. -1.
        994   -1    0    0    0    0 -0.00000000000E+00 -0.00000000000E+00  0.11368683772E-12  0.17120000000E+03  0.17120000000E+03 0.  0.
         13    1    1    2    0    0 -0.79694180273E+02  0.92493977054E+01  0.31365188507E+03  0.32375025853E+03  0.10566000000E+00 0. -1.
        994    1    1    2    0    0  0.39547677029E+02 -0.81502456546E+01  0.16279208915E+02  0.17664908125E+03  0.17120000000E+03 0.  0.
        998    1    1    2    0    0  0.40146503244E+02 -0.10991520507E+01  0.11700689023E+04  0.11708006602E+04  0.10000000000E+02 0. -1.
</event>
<event>
 5    1  0.1279376E-008  0.3764484E+03  0.7957747E-01  0.3466770E+00
         13   -1    0    0    0    0  0.00000000000E+00  0.00000000000E+00  0.14999999963E+04  0.15000000000E+04  0.10566000000E+00 0.  1.
        994   -1    0    0    0    0 -0.00000000000E+00 -0.00000000000E+00  0.11368683772E-12  0.17120000000E+03  0.17120000000E+03 0.  0.
         13    1    1    2    0    0  0.92419198582E+01  0.93928568341E+01 -0.62913797680E+00  0.13192642677E+02  0.10566000000E+00 0.  1.
        994    1    1    2    0    0 -0.98943522314E+01 -0.95375098773E+01  0.15065793937E+02  0.17241020981E+03  0.17120000000E+03 0.  0.
        998    1    1    2    0    0  0.65243237321E+00  0.14465304314E+00  0.14855633403E+04  0.14855971475E+04  0.10000000000E+02 0.  1.
</event>
<event>
 5    1  0.1279376E-008  0.3850876E+03  0.7957747E-01  0.3429301E+00
         13   -1    0    0    0    0  0.00000000000E+00  0.00000000000E+00  0.14999999963E+04  0.15000000000E+04  0.10566000000E+00 0. -1.
        994   -1    0    0    0    0 -0.00000000000E+00 -0.00000000000E+00  0.11368683772E-12  0.17120000000E+03  0.17120000000E+03 0.  0.
         13    1    1    2    0    0 -0.99613680579E+01 -0.11078635233E+02  0.80573356005E+02  0.81939257223E+02  0.10566000000E+00 0. -1.
        994    1    1    2    0    0 -0.73580168993E+01 -0.59807170724E+01  0.18823182870E+01  0.17147271652E+03  0.17120000000E+03 0.  0.
        998    1    1    2    0    0  0.17319384957E+02  0.17059352306E+02  0.14175443220E+04  0.14177880263E+04  0.10000000000E+02 0. -1.
</event>
<event>
 5    1  0.1279376E-008  0.3719836E+03  0.7957747E-01  0.3486824E+00
         13   -1    0    0    0    0  0.00000000000E+00  0.00000000000E+00  0.14999999963E+04  0.15000000000E+04  0.10566000000E+00 0. -1.
        994   -1    0    0    0    0 -0.00000000000E+00 -0.00000000000E+00  0.11368683772E-12  0.17120000000E+03  0.17120000000E+03 0.  0.
         13    1    1    2    0    0  0.19709979407E+02 -0.42888235173E+01  0.21845295972E+02  0.29733910196E+02  0.10566000000E+00 0. -1.
        994    1    1    2    0    0  0.27082294396E+01  0.18928471164E+02  0.94925458526E+01  0.17252585300E+03  0.17120000000E+03 0.  0.
        998    1    1    2    0    0 -0.22418208847E+02 -0.14639647647E+02  0.14686621545E+04  0.14689402368E+04  0.10000000000E+02 0. -1.
</event>
<event>
 5    1  0.1279376E-008  0.3832645E+03  0.7957747E-01  0.3437066E+00
         13   -1    0    0    0    0  0.00000000000E+00  0.00000000000E+00  0.14999999963E+04  0.15000000000E+04  0.10566000000E+00 0. -1.
        994   -1    0    0    0    0 -0.00000000000E+00 -0.00000000000E+00  0.11368683772E-12  0.17120000000E+03  0.17120000000E+03 0.  0.
         13    1    1    2    0    0 -0.33925122355E+01  0.20275667439E+02  0.87640994766E+02  0.90019814247E+02  0.10566000000E+00 0. -1.
        994    1    1    2    0    0 -0.12928307630E+01 -0.63894070253E+01  0.26347834227E+01  0.17134432590E+03  0.17120000000E+03 0.  0.
        998    1    1    2    0    0  0.46853429985E+01 -0.13886260414E+02  0.14097242181E+04  0.14098358599E+04  0.10000000000E+02 0. -1.
</event>
<event>
 5    1  0.1279376E-008  0.3913688E+03  0.7957747E-01  0.3403102E+00
         13   -1    0    0    0    0  0.00000000000E+00  0.00000000000E+00  0.14999999963E+04  0.15000000000E+04  0.10566000000E+00 0.  1.
        994   -1    0    0    0    0 -0.00000000000E+00 -0.00000000000E+00  0.11368683772E-12  0.17120000000E+03  0.17120000000E+03 0.  0.
         13    1    1    2    0    0 -0.61317689082E+02 -0.19509228280E+02  0.83091329059E+02  0.10509352554E+03  0.10566000000E+00 0.  1.
        994    1    1    2    0    0  0.46108313710E+02  0.14662770344E+02  0.31624872907E+02  0.18069462088E+03  0.17120000000E+03 0.  0.
        998    1    1    2    0    0  0.15209375372E+02  0.48464579358E+01  0.13852837943E+04  0.13854118536E+04  0.10000000000E+02 0.  1.
</event>
<event>
 5    1  0.1279376E-008  0.3700354E+03  0.7957747E-01  0.3495728E+00
         13   -1    0    0    0    0  0.00000000000E+00  0.00000000000E+00  0.14999999963E+04  0.15000000000E+04  0.10566000000E+00 0.  1.
        994   -1    0    0    0    0 -0.00000000000E+00 -0.00000000000E+00  0.11368683772E-12  0.17120000000E+03  0.17120000000E+03 0.  0.
         13    1    1    2    0    0  0.27000397435E+03 -0.21786205777E+02  0.10473957011E+04  0.10818569918E+04  0.10566000000E+00 0.  1.
        994    1    1    2    0    0 -0.26285420156E+03  0.30974516556E+02  0.29735600673E+03  0.43333795898E+03  0.17120000000E+03 0.  0.
        998    1    1    2    0    0 -0.71497727921E+01 -0.91883107788E+01  0.15524828846E+03  0.15600504920E+03  0.10000000000E+02 0.  0.
</event>
<event>
 5    1  0.1279376E-008  0.3719233E+03  0.7957747E-01  0.3487098E+00
         13   -1    0    0    0    0  0.00000000000E+00  0.00000000000E+00  0.14999999963E+04  0.15000000000E+04  0.10566000000E+00 0.  1.
        994   -1    0    0    0    0 -0.00000000000E+00 -0.00000000000E+00  0.11368683772E-12  0.17120000000E+03  0.17120000000E+03 0.  0.
         13    1    1    2    0    0  0.10276782843E+02  0.66459544566E+02  0.37628952320E+03  0.38225161839E+03  0.10566000000E+00 0.  1.
        994    1    1    2    0    0 -0.82000497421E+01  0.17447885639E+01  0.85086782397E+01  0.17161620759E+03  0.17120000000E+03 0.  0.
        998    1    1    2    0    0 -0.20767331010E+01 -0.68204333130E+02  0.11152017948E+04  0.11173321740E+04  0.10000000000E+02 0. -1.
</event>
<event>
 5    1  0.1279376E-008  0.3831468E+03  0.7957747E-01  0.3437570E+00
         13   -1    0    0    0    0  0.00000000000E+00  0.00000000000E+00  0.14999999963E+04  0.15000000000E+04  0.10566000000E+00 0.  1.
        994   -1    0    0    0    0 -0.00000000000E+00 -0.00000000000E+00  0.11368683772E-12  0.17120000000E+03  0.17120000000E+03 0.  0.
         13    1    1    2    0    0 -0.11940482779E+02 -0.10256085238E+01  0.27130027729E+02  0.29659342043E+02  0.10566000000E+00 0.  1.
        994    1    1    2    0    0  0.10024582081E+02 -0.44388410008E+01  0.29507861881E+01  0.17157605513E+03  0.17120000000E+03 0.  0.
        998    1    1    2    0    0  0.19159006982E+01  0.54644495246E+01  0.14699191824E+04  0.14699646028E+04  0.10000000000E+02 0.  1.
</event>
<event>
 5    1  0.1279376E-008  0.3850824E+03  0.7957747E-01  0.3429323E+00
         13   -1    0    0    0    0  0.00000000000E+00  0.00000000000E+00  0.14999999963E+04  0.15000000000E+04  0.10566000000E+00 0. -1.
        994   -1    0    0    0    0 -0.00000000000E+00 -0.00000000000E+00  0.11368683772E-12  0.17120000000E+03  0.17120000000E+03 0.  0.
         13    1    1    2    0    0 -0.57504883416E+00 -0.10589369997E+02  0.35511902758E+02  0.37061730122E+02  0.10566000000E+00 0. -1.
        994    1    1    2    0    0 -0.22949434705E+01  0.57570267869E+01  0.17155339573E+01  0.17132073190E+03  0.17120000000E+03 0.  0.
        998    1    1    2    0    0  0.28699923047E+01  0.48323432100E+01  0.14627725596E+04  0.14628175380E+04  0.10000000000E+02 0. -1.
</event>
<event>
 5    1  0.1279376E-008  0.3808113E+03  0.7957747E-01  0.3447633E+00
         13   -1    0    0    0    0  0.00000000000E+00  0.00000000000E+00  0.14999999963E+04  0.15000000000E+04  0.10566000000E+00 0.  1.
        994   -1    0    0    0    0 -0.00000000000E+00 -0.00000000000E+00  0.11368683772E-12  0.17120000000E+03  0.17120000000E+03 0.  0.
         13    1    1    2    0    0 -0.14877626360E+02  0.12587283550E+02  0.47436834546E+02  0.51283992717E+02  0.10566000000E+00 0.  1.
        994    1    1    2    0    0  0.25000367804E+01 -0.35390812254E+02  0.79322281192E+01  0.17501748489E+03  0.17120000000E+03 0.  0.
        998    1    1    2    0    0  0.12377589580E+02  0.22803528703E+02  0.14446309336E+04  0.14448985224E+04  0.10000000000E+02 0.  1.
</event>
<event>
 5    1  0.1279376E-008  0.3732014E+03  0.7957747E-01  0.3481306E+00
         13   -1    0    0    0    0  0.00000000000E+00  0.00000000000E+00  0.14999999963E+04  0.15000000000E+04  0.10566000000E+00 0. -1.
        994   -1    0    0    0    0 -0.00000000000E+00 -0.00000000000E+00  0.11368683772E-12  0.17120000000E+03  0.17120000000E+03 0.  0.
         13    1    1    2    0    0  0.20837015330E+02 -0.20927107599E+01  0.25618994814E+02  0.33089344289E+02  0.10566000000E+00 0. -1.
        994    1    1    2    0    0 -0.15151479799E+02  0.52526165363E-01  0.83907612474E+01  0.17207386488E+03  0.17120000000E+03 0.  0.
        998    1    1    2    0    0 -0.56855355316E+01  0.20401845946E+01  0.14659902402E+04  0.14660367908E+04  0.10000000000E+02 0. -1.
</event>
<event>
 5    1  0.1279376E-008  0.3714928E+03  0.7957747E-01  0.3489058E+00
         13   -1    0    0    0    0  0.00000000000E+00  0.00000000000E+00  0.14999999963E+04  0.15000000000E+04  0.10566000000E+00 0. -1.
        994   -1    0    0    0    0 -0.00000000000E+00 -0.00000000000E+00  0.11368683772E-12  0.17120000000E+03  0.17120000000E+03 0.  0.
         13    1    1    2    0    0  0.66459850763E+02  0.84931457433E+01  0.29850812580E+03  0.30593489115E+03  0.10566000000E+00 0. -1.
        994    1    1    2    0    0 -0.20423506011E+02  0.52954913659E+01  0.10023683320E+02  0.17278621488E+03  0.17120000000E+03 0.  0.
        998    1    1    2    0    0 -0.46036344753E+02 -0.13788637109E+02  0.11914681872E+04  0.11924788940E+04  0.10000000000E+02 0. -1.
</event>
<event>
 5    1  0.1279376E-008  0.3782318E+03  0.7957747E-01  0.3458894E+00
         13   -1    0    0    0    0  0.00000000000E+00  0.00000000000E+00  0.14999999963E+04  0.15000000000E+04  0.10566000000E+00 0.  1.
        994   -1    0    0    0    0 -0.00000000000E+00 -0.00000000000E+00  0.11368683772E-12  0.17120000000E+03  0.17120000000E+03 0.  0.
         13    1    1    2    0    0  0.26126416889E+02  0.89777848597E+01  0.88957647211E+02  0.93148614814E+02  0.10566000000E+00 0.  1.
        994    1    1    2    0    0  0.88725009753E+01  0.42018391859E+02  0.11255062256E+02  0.17686261039E+03  0.17120000000E+03 0.  0.
        998    1    1    2    0    0 -0.34998917864E+02 -0.50996176718E+02  0.13997872868E+04  0.14011887748E+04  0.10000000000E+02 0.  1.
</event>
<event>
 5    1  0.1279376E-008  0.3793031E+03  0.7957747E-01  0.3454198E+00
         13   -1    0    0    0    0  0.00000000000E+00  0.00000000000E+00  0.14999999963E+04  0.15000000000E+04  0.10566000000E+00 0.  1.
        994   -1    0    0    0    0 -0.00000000000E+00 -0.00000000000E+00  0.11368683772E-12  0.17120000000E+03  0.17120000000E+03 0.  0.
         13    1    1    2    0    0 -0.99282033891E+01 -0.73602221216E+01  0.15253174233E+02  0.19631927578E+02  0.10566000000E+00 0.  1.
        994    1    1    2    0    0  0.41598078097E+00  0.69356411295E+01  0.46470999988E+01  0.17140394306E+03  0.17120000000E+03 0.  0.
        998    1    1    2    0    0  0.95122226082E+01  0.42458099205E+00  0.14800997220E+04  0.14801641294E+04  0.10000000000E+02 0.  1.
</event>
<event>
 5    1  0.1279376E-008  0.4430428E+03  0.7957747E-01  0.3215532E+00
         13   -1    0    0    0    0  0.00000000000E+00  0.00000000000E+00  0.14999999963E+04  0.15000000000E+04  0.10566000000E+00 0.  1.
        994   -1    0    0    0    0 -0.00000000000E+00 -0.00000000000E+00  0.11368683772E-12  0.17120000000E+03  0.17120000000E+03 0.  0.
         13    1    1    2    0    0  0.97196854387E+02 -0.85690770728E+02  0.22827126800E+03  0.26248413218E+03  0.10566000000E+00 0.  1.
        994    1    1    2    0    0  0.14742647841E+02 -0.76247160369E+02  0.86023214216E+02  0.20673753533E+03  0.17120000000E+03 0.  0.
        998    1    1    2    0    0 -0.11193950223E+03  0.16193793110E+03  0.11857055141E+04  0.12019783325E+04  0.10000000000E+02 0.  1.
</event>
<event>
 5    1  0.1279376E-008  0.3813965E+03  0.7957747E-01  0.3445100E+00
         13   -1    0    0    0    0  0.00000000000E+00  0.00000000000E+00  0.14999999963E+04  0.15000000000E+04  0.10566000000E+00 0. -1.
        994   -1    0    0    0    0 -0.00000000000E+00 -0.00000000000E+00  0.11368683772E-12  0.17120000000E+03  0.17120000000E+03 0.  0.
         13    1    1    2    0    0 -0.10593044516E+02  0.16209950000E+02  0.52597087090E+02  0.56048548648E+02  0.10566000000E+00 0. -1.
        994    1    1    2    0    0  0.23557028512E+02 -0.45089762483E+01  0.53464543388E+01  0.17295458662E+03  0.17120000000E+03 0.  0.
        998    1    1    2    0    0 -0.12963983997E+02 -0.11700973752E+02  0.14420564548E+04  0.14421968647E+04  0.10000000000E+02 0. -1.
</event>
<event>
 5    1  0.1279376E-008  0.3829155E+03  0.7957747E-01  0.3438561E+00
         13   -1    0    0    0    0  0.00000000000E+00  0.00000000000E+00  0.14999999963E+04  0.15000000000E+04  0.10566000000E+00 0. -1.
        994   -1    0    0    0    0 -0.00000000000E+00 -0.00000000000E+00  0.11368683772E-12  0.17120000000E+03  0.17120000000E+03 0.  0.
         13    1    1    2    0    0  0.10184397695E+02 -0.18227834172E+02  0.86323751407E+02  0.88813158462E+02  0.10566000000E+00 0. -1.
        994    1    1    2    0    0  0.58216747966E+01  0.57714425437E+01  0.28911589632E+01  0.17142053625E+03  0.17120000000E+03 0.  0.
        998    1    1    2    0    0 -0.16006072492E+02  0.12456391628E+02  0.14107850859E+04  0.14109663053E+04  0.10000000000E+02 0. -1.
</event>
<event>
 5    1  0.1279376E-008  0.3809675E+03  0.7957747E-01  0.3446957E+00
         13   -1    0    0    0    0  0.00000000000E+00  0.00000000000E+00  0.14999999963E+04  0.15000000000E+04  0.10566000000E+00 0. -1.
        994   -1    0    0    0    0 -0.00000000000E+00 -0.00000000000E+00  0.11368683772E-12  0.17120000000E+03  0.17120000000E+03 0.  0.
         13    1    1    2    0    0  0.11408079118E+02 -0.13997678743E+02  0.42561183739E+02  0.46233589572E+02  0.10566000000E+00 0. -1.
        994    1    1    2    0    0 -0.16509511775E+02  0.86701213233E+01  0.48051600883E+01  0.17227961152E+03  0.17120000000E+03 0.  0.
        998    1    1    2    0    0  0.51014326571E+01  0.53275574192E+01  0.14526336525E+04  0.14526867989E+04  0.10000000000E+02 0. -1.
</event>
<event>
 5    1  0.1279376E-008  0.3850947E+03  0.7957747E-01  0.3429271E+00
         13   -1    0    0    0    0  0.00000000000E+00  0.00000000000E+00  0.14999999963E+04  0.15000000000E+04  0.10566000000E+00 0.  1.
        994   -1    0    0    0    0 -0.00000000000E+00 -0.00000000000E+00  0.11368683772E-12  0.17120000000E+03  0.17120000000E+03 0.  0.
         13    1    1    2    0    0  0.46174830837E+01  0.14085264921E+02  0.66218280454E+02  0.67857112142E+02  0.10566000000E+00 0.  1.
        994    1    1    2    0    0 -0.63211588120E+01 -0.16053117366E+02  0.25623441085E+01  0.17208621454E+03  0.17120000000E+03 0.  0.
        998    1    1    2    0    0  0.17036757283E+01  0.19678524455E+01  0.14312193717E+04  0.14312566733E+04  0.10000000000E+02 0.  1.
</event>
<event>
 5    1  0.1279376E-008  0.3833267E+03  0.7957747E-01  0.3436800E+00
         13   -1    0    0    0    0  0.00000000000E+00  0.00000000000E+00  0.14999999963E+04  0.15000000000E+04  0.10566000000E+00 0. -1.
        994   -1    0    0    0    0 -0.00000000000E+00 -0.00000000000E+00  0.11368683772E-12  0.17120000000E+03  0.17120000000E+03 0.  0.
         13    1    1    2    0    0  0.15768123276E+01  0.10499128983E+02  0.21893509951E+02  0.24332180102E+02  0.10566000000E+00 0. -1.
        994    1    1    2    0    0 -0.23407924322E+01 -0.88248954787E+01  0.27388587966E+01  0.17146515517E+03  0.17120000000E+03 0.  0.
        998    1    1    2    0    0  0.76398010460E+00 -0.16742335045E+01  0.14753676275E+04  0.14754026647E+04  0.10000000000E+02 0. -1.
</event>
<event>
 5    1  0.1279376E-008  0.3924338E+03  0.7957747E-01  0.3398744E+00
         13   -1    0    0    0    0  0.00000000000E+00  0.00000000000E+00  0.14999999963E+04  0.15000000000E+04  0.10566000000E+00 0. -1.
        994   -1    0    0    0    0 -0.00000000000E+00 -0.00000000000E+00  0.11368683772E-12  0.17120000000E+03  0.17120000000E+03 0.  0.
         13    1    1    2    0    0 -0.99502063298E+01  0.24558980761E+02  0.49135577432E+01  0.26950034429E+02  0.10566000000E+00 0. -1.
        994    1    1    2    0    0  0.95493064560E+01 -0.27136204554E+02  0.26481061762E+02  0.17560822727E+03  0.17120000000E+03 0.  0.
        998    1    1    2    0    0  0.40089987379E+00  0.25772237929E+01  0.14686053768E+04  0.14686417383E+04  0.10000000000E+02 0. -1.
</event>
<event>
 5    1  0.1279376E-008  0.3817655E+03  0.7957747E-01  0.3443507E+00
         13   -1    0    0    0    0  0.00000000000E+00  0.00000000000E+00  0.14999999963E+04  0.15000000000E+04  0.10566000000E+00 0.  1.
        994   -1    0    0    0    0 -0.00000000000E+00 -0.00000000000E+00  0.11368683772E-12  0.17120000000E+03  0.17120000000E+03 0.  0.
         13    1    1    2    0    0  0.16949434427E+02  0.32298884597E+02  0.20521471059E+03  0.20843125936E+03  0.10566000000E+00 0.  1.
        994    1    1    2    0    0  0.17371299176E+01 -0.24271100792E+02  0.52149253850E+01  0.17299924682E+03  0.17120000000E+03 0.  0.
        998    1    1    2    0    0 -0.18686564345E+02 -0.80277838046E+01  0.12895703603E+04  0.12897694938E+04  0.10000000000E+02 0.  1.
</event>
<event>
 5    1  0.1279376E-008  0.3752741E+03  0.7957747E-01  0.3471998E+00
         13   -1    0    0    0    0  0.00000000000E+00  0.00000000000E+00  0.14999999963E+04  0.15000000000E+04  0.10566000000E+00 0. -1.
        994   -1    0    0    0    0 -0.00000000000E+00 -0.00000000000E+00  0.11368683772E-12  0.17120000000E+03  0.17120000000E+03 0.  0.
         13    1    1    2    0    0  0.28816613257E+00 -0.23030280027E+02  0.39078447536E+02  0.45360920005E+02  0.10566000000E+00 0. -1.
        994    1    1    2    0    0 -0.76230863189E+01  0.53135912107E+01  0.68313071195E+01  0.17158803121E+03  0.17120000000E+03 0.  0.
        998    1    1    2    0    0  0.73349201863E+01  0.17716688816E+02  0.14540902416E+04  0.14542510488E+04  0.10000000000E+02 0. -1.
</event>
<event>
 5    1  0.1279376E-008  0.3849236E+03  0.7957747E-01  0.3429996E+00
         13   -1    0    0    0    0  0.00000000000E+00  0.00000000000E+00  0.14999999963E+04  0.15000000000E+04  0.10566000000E+00 0.  1.
        994   -1    0    0    0    0 -0.00000000000E+00 -0.00000000000E+00  0.11368683772E-12  0.17120000000E+03  0.17120000000E+03 0.  0.
         13    1    1    2    0    0  0.10642415311E+02  0.62356587314E+01  0.46049395963E+02  0.47672869392E+02  0.10566000000E+00 0.  1.
        994    1    1    2    0    0 -0.51935766634E+01 -0.29219942234E+01  0.17848834742E+01  0.17131297995E+03  0.17120000000E+03 0.  0.
        998    1    1    2    0    0 -0.54488386473E+01 -0.33136645080E+01  0.14521657168E+04  0.14522141507E+04  0.10000000000E+02 0.  1.
</event>
<event>
 5    1  0.1279376E-008  0.3853176E+03  0.7957747E-01  0.3428326E+00
         13   -1    0    0    0    0  0.00000000000E+00  0.00000000000E+00  0.14999999963E+04  0.15000000000E+04  0.10566000000E+00 0.  1.
        994   -1    0    0    0    0 -0.00000000000E+00 -0.00000000000E+00  0.11368683772E-12  0.17120000000E+03  0.17120000000E+03 0.  0.
         13    1    1    2    0    0  0.14394563685E+02 -0.52077125968E+01  0.81824862461E+02  0.83244477385E+02  0.10566000000E+00 0.  1.
        994    1    1    2    0    0 -0.83290145438E+01 -0.32457886583E+01  0.17351187557E+01  0.17144199679E+03  0.17120000000E+03 0.  0.
        998    1    1    2    0    0 -0.60655491417E+01  0.84535012551E+01  0.14164400151E+04  0.14165135258E+04  0.10000000000E+02 0.  1.
</event>
<event>
 5    1  0.1279376E-008  0.3745157E+03  0.7957747E-01  0.3475392E+00
         13   -1    0    0    0    0  0.00000000000E+00  0.00000000000E+00  0.14999999963E+04  0.15000000000E+04  0.10566000000E+00 0.  1.
        994   -1    0    0    0    0 -0.00000000000E+00 -0.00000000000E+00  0.11368683772E-12  0.17120000000E+03  0.17120000000E+03 0.  0.
         13    1    1    2    0    0  0.42248344647E+02 -0.98984554147E+01  0.14072965471E+03  0.14726760990E+03  0.10566000000E+00 0.  1.
        994    1    1    2    0    0 -0.21668983189E+02 -0.23428769248E+02  0.10403085693E+02  0.17445949746E+03  0.17120000000E+03 0.  0.
        998    1    1    2    0    0 -0.20579361458E+02  0.33327224663E+02  0.13488672559E+04  0.13494728926E+04  0.10000000000E+02 0.  1.
</event>
<event>
 5    1  0.1279376E-008  0.3844614E+03  0.7957747E-01  0.3431960E+00
         13   -1    0    0    0    0  0.00000000000E+00  0.00000000000E+00  0.14999999963E+04  0.15000000000E+04  0.10566000000E+00 0. -1.
        994   -1    0    0    0    0 -0.00000000000E+00 -0.00000000000E+00  0.11368683772E-12  0.17120000000E+03  0.17120000000E+03 0.  0.
         13    1    1    2    0    0 -0.94669884772E+01  0.83258649016E+01  0.40369526259E+02  0.42292478191E+02  0.10566000000E+00 0. -1.
        994    1    1    2    0    0  0.12566449531E+02 -0.77184515296E+01  0.26145974062E+01  0.17185390967E+03  0.17120000000E+03 0.  0.
        998    1    1    2    0    0 -0.30994610536E+01 -0.60741337198E+00  0.14570158726E+04  0.14570536121E+04  0.10000000000E+02 0. -1.
</event>
<event>
 5    1  0.1279376E-008  0.3850066E+03  0.7957747E-01  0.3429644E+00
         13   -1    0    0    0    0  0.00000000000E+00  0.00000000000E+00  0.14999999963E+04  0.15000000000E+04  0.10566000000E+00 0.  1.
        994   -1    0    0    0    0 -0.00000000000E+00 -0.00000000000E+00  0.11368683772E-12  0.17120000000E+03  0.17120000000E+03 0.  0.
         13    1    1    2    0    0  0.85830732692E+01  0.61271211831E+01  0.32502427133E+02  0.34170596926E+02  0.10566000000E+00 0.  1.
        994    1    1    2    0    0 -0.21354547458E+02  0.49670682916E+00  0.31287470092E+01  0.17255576627E+03  0.17120000000E+03 0.  0.
        998    1    1    2    0    0  0.12771474189E+02 -0.66238280122E+01  0.14643688221E+04  0.14644736368E+04  0.10000000000E+02 0.  1.
</event>
<event>
 5    1  0.1279376E-008  0.3842859E+03  0.7957747E-01  0.3432706E+00
         13   -1    0    0    0    0  0.00000000000E+00  0.00000000000E+00  0.14999999963E+04  0.15000000000E+04  0.10566000000E+00 0. -1.
        994   -1    0    0    0    0 -0.00000000000E+00 -0.00000000000E+00  0.11368683772E-12  0.17120000000E+03  0.17120000000E+03 0.  0.
         13    1    1    2    0    0 -0.81152475436E+01 -0.60990142474E+01  0.25272537022E+02  0.27235409104E+02  0.10566000000E+00 0. -1.
        994    1    1    2    0    0  0.87441433577E+01  0.24592957107E+01  0.22571153643E+01  0.17145565826E+03  0.17120000000E+03 0.  0.
        998    1    1    2    0    0 -0.62889581405E+00  0.36397185366E+01  0.14724703439E+04  0.14725089326E+04  0.10000000000E+02 0. -1.
</event>
<event>
 5    1  0.1279376E-008  0.3827691E+03  0.7957747E-01  0.3439189E+00
         13   -1    0    0    0    0  0.00000000000E+00  0.00000000000E+00  0.14999999963E+04  0.15000000000E+04  0.10566000000E+00 0. -1.
        994   -1    0    0    0    0 -0.00000000000E+00 -0.00000000000E+00  0.11368683772E-12  0.17120000000E+03  0.17120000000E+03 0.  0.
         13    1    1    2    0    0  0.50765004455E+01  0.15427603355E+02  0.50460124994E+02  0.53009595174E+02  0.10566000000E+00 0. -1.
        994    1    1    2    0    0 -0.45716496977E+01  0.56631948288E+01  0.29173198232E+01  0.17137946934E+03  0.17120000000E+03 0.  0.
        998    1    1    2    0    0 -0.50485074779E+00 -0.21090798184E+02  0.14466225515E+04  0.14468109355E+04  0.10000000000E+02 0. -1.
</event>
<event>
 5    1  0.1279376E-008  0.3756706E+03  0.7957747E-01  0.3470229E+00
         13   -1    0    0    0    0  0.00000000000E+00  0.00000000000E+00  0.14999999963E+04  0.15000000000E+04  0.10566000000E+00 0. -1.
        994   -1    0    0    0    0 -0.00000000000E+00 -0.00000000000E+00  0.11368683772E-12  0.17120000000E+03  0.17120000000E+03 0.  0.
         13    1    1    2    0    0 -0.93482889191E+01 -0.97915190191E+01  0.11356412777E+02  0.17670416679E+02  0.10566000000E+00 0. -1.
        994    1    1    2    0    0  0.14360256979E+02  0.14685899392E+02  0.77669336360E+01  0.17260260102E+03  0.17120000000E+03 0.  0.
        998    1    1    2    0    0 -0.50119680603E+01 -0.48943803726E+01  0.14808766499E+04  0.14809269823E+04  0.10000000000E+02 0. -1.
</event>
<event>
 5    1  0.1279376E-008  0.3702011E+03  0.7957747E-01  0.3494967E+00
         13   -1    0    0    0    0  0.00000000000E+00  0.00000000000E+00  0.14999999963E+04  0.15000000000E+04  0.10566000000E+00 0. -1.
        994   -1    0    0    0    0 -0.00000000000E+00 -0.00000000000E+00  0.11368683772E-12  0.17120000000E+03  0.17120000000E+03 0.  0.
         13    1    1    2    0    0  0.11085206250E+02  0.19291671390E+02  0.23199440347E+02  0.32144604198E+02  0.10566000000E+00 0. -1.
        994    1    1    2    0    0 -0.39113306474E+01 -0.14930063539E+02  0.99874624553E+01  0.17218418833E+03  0.17120000000E+03 0.  0.
        998    1    1    2    0    0 -0.71738756029E+01 -0.43616078503E+01  0.14668130935E+04  0.14668712075E+04  0.10000000000E+02 0. -1.
</event>
<event>
 5    1  0.1279376E-008  0.3847424E+03  0.7957747E-01  0.3430765E+00
         13   -1    0    0    0    0  0.00000000000E+00  0.00000000000E+00  0.14999999963E+04  0.15000000000E+04  0.10566000000E+00 0.  1.
        994   -1    0    0    0    0 -0.00000000000E+00 -0.00000000000E+00  0.11368683772E-12  0.17120000000E+03  0.17120000000E+03 0.  0.
         13    1    1    2    0    0  0.13954304896E+02 -0.89455459166E+00  0.63359491055E+02  0.64884197798E+02  0.10566000000E+00 0.  1.
        994    1    1    2    0    0  0.11814383744E+02 -0.68991941006E+01  0.23744055258E+01  0.17176220872E+03  0.17120000000E+03 0.  0.
        998    1    1    2    0    0 -0.25768688640E+02  0.77937486922E+01  0.14342660997E+04  0.14345535935E+04  0.10000000000E+02 0.  1.
</event>
<event>
 5    1  0.1279376E-008  0.3790130E+03  0.7957747E-01  0.3455467E+00
         13   -1    0    0    0    0  0.00000000000E+00  0.00000000000E+00  0.14999999963E+04  0.15000000000E+04  0.10566000000E+00 0. -1.
        994   -1    0    0    0    0 -0.00000000000E+00 -0.00000000000E+00  0.11368683772E-12  0.17120000000E+03  0.17120000000E+03 0.  0.
         13    1    1    2    0    0 -0.16944844318E+02 -0.21208472398E+02  0.81803219910E+02  0.86189935620E+02  0.10566000000E+00 0. -1.
        994    1    1    2    0    0  0.48700495705E+00  0.71923623993E+01  0.48064948360E+01  0.17141910525E+03  0.17120000000E+03 0.  0.
        998    1    1    2    0    0  0.16457839361E+02  0.14016109999E+02  0.14133902815E+04  0.14135909591E+04  0.10000000000E+02 0. -1.
</event>
<event>
 5    1  0.1279376E-008  0.3858975E+03  0.7957747E-01  0.3425875E+00
         13   -1    0    0    0    0  0.00000000000E+00  0.00000000000E+00  0.14999999963E+04  0.15000000000E+04  0.10566000000E+00 0. -1.
        994   -1    0    0    0    0 -0.00000000000E+00 -0.00000000000E+00  0.11368683772E-12  0.17120000000E+03  0.17120000000E+03 0.  0.
         13    1    1    2    0    0  0.12545748005E+02  0.38294111782E+01  0.71284204014E+02  0.72481094700E+02  0.10566000000E+00 0. -1.
        994    1    1    2    0    0 -0.11594510231E+02 -0.42349835423E+01  0.16849917999E+01  0.17165269281E+03  0.17120000000E+03 0.  0.
        998    1    1    2    0    0 -0.95123777420E+00  0.40557236406E+00  0.14270308005E+04  0.14270662125E+04  0.10000000000E+02 0.  0.
</event>
<event>
 5    1  0.1279376E-008  0.3706111E+03  0.7957747E-01  0.3493087E+00
         13   -1    0    0    0    0  0.00000000000E+00  0.00000000000E+00  0.14999999963E+04  0.15000000000E+04  0.10566000000E+00 0.  1.
        994   -1    0    0    0    0 -0.00000000000E+00 -0.00000000000E+00  0.11368683772E-12  0.17120000000E+03  0.17120000000E+03 0.  0.
         13    1    1    2    0    0 -0.15253178963E+02  0.46768225889E+01  0.10413743911E+02  0.19052279766E+02  0.10566000000E+00 0.  1.
        994    1    1    2    0    0  0.66632487520E+01  0.90538424340E+01  0.93861483725E+01  0.17182523309E+03  0.17120000000E+03 0.  0.
        998    1    1    2    0    0  0.85899302111E+01 -0.13730665023E+02  0.14802001040E+04  0.14803224871E+04  0.10000000000E+02 0.  1.
</event>
<event>
 5    1  0.1279376E-008  0.3835379E+03  0.7957747E-01  0.3435897E+00
         13   -1    0    0    0    0  0.00000000000E+00  0.00000000000E+00  0.14999999963E+04  0.15000000000E+04  0.10566000000E+00 0. -1.
        994   -1    0    0    0    0 -0.00000000000E+00 -0.00000000000E+00  0.11368683772E-12  0.17120000000E+03  0.17120000000E+03 0.  0.
         13    1    1    2    0    0 -0.53948933290E+01  0.11064620378E+02  0.31010780411E+02  0.33364807265E+02  0.10566000000E+00 0. -1.
        994    1    1    2    0    0  0.10447098161E+02 -0.79829296777E+01  0.29291872004E+01  0.17172911566E+03  0.17120000000E+03 0.  0.
        998    1    1    2    0    0 -0.50522048320E+01 -0.30816907001E+01  0.14660600287E+04  0.14661060771E+04  0.10000000000E+02 0. -1.
</event>
<event>
 5    1  0.1279376E-008  0.3850788E+03  0.7957747E-01  0.3429338E+00
         13   -1    0    0    0    0  0.00000000000E+00  0.00000000000E+00  0.14999999963E+04  0.15000000000E+04  0.10566000000E+00 0.  1.
        994   -1    0    0    0    0 -0.00000000000E+00 -0.00000000000E+00  0.11368683772E-12  0.17120000000E+03  0.17120000000E+03 0.  0.
         13    1    1    2    0    0  0.12815680998E+02 -0.23494264411E+01  0.51730035519E+02  0.53345751685E+02  0.10566000000E+00 0.  1.
        994    1    1    2    0    0 -0.13619511173E+02  0.39689491581E+01  0.22529315565E+01  0.17180151147E+03  0.17120000000E+03 0.  0.
        998    1    1    2    0    0  0.80383017520E+00 -0.16195227170E+01  0.14460170292E+04  0.14460527368E+04  0.10000000000E+02 0.  1.
</event>
<event>
 5    1  0.1279376E-008  0.3730166E+03  0.7957747E-01  0.3482141E+00
         13   -1    0    0    0    0  0.00000000000E+00  0.00000000000E+00  0.14999999963E+04  0.15000000000E+04  0.10566000000E+00 0. -1.
        994   -1    0    0    0    0 -0.00000000000E+00 -0.00000000000E+00  0.11368683772E-12  0.17120000000E+03  0.17120000000E+03 0.  0.
         13    1    1    2    0    0  0.33680629193E+01 -0.48609339408E+02  0.14543029118E+03  0.15337598405E+03  0.10566000000E+00 0. -1.
        994    1    1    2    0    0  0.62059622902E+01  0.38284923270E+02  0.12865988554E+02  0.17600915595E+03  0.17120000000E+03 0.  0.
        998    1    1    2    0    0 -0.95740252095E+01  0.10324416138E+02  0.13417037165E+04  0.13418148600E+04  0.10000000000E+02 0. -1.
</event>
<event>
 5    1  0.1279376E-008  0.3778176E+03  0.7957747E-01  0.3460717E+00
         13   -1    0    0    0    0  0.00000000000E+00  0.00000000000E+00  0.14999999963E+04  0.15000000000E+04  0.10566000000E+00 0. -1.
        994   -1    0    0    0    0 -0.00000000000E+00 -0.00000000000E+00  0.11368683772E-12  0.17120000000E+03  0.17120000000E+03 0.  0.
         13    1    1    2    0    0  0.37508198916E+02 -0.46835300837E+02  0.28658524643E+03  0.29279946213E+03  0.10566000000E+00 0. -1.
        994    1    1    2    0    0 -0.33451075490E+02  0.45406207252E+02  0.16024832365E+02  0.18096113771E+03  0.17120000000E+03 0.  0.
        998    1    1    2    0    0 -0.40571234265E+01  0.14290935847E+01  0.11973899175E+04  0.11974394002E+04  0.10000000000E+02 0. -1.
</event>
<event>
 5    1  0.1279376E-008  0.3784550E+03  0.7957747E-01  0.3457914E+00
         13   -1    0    0    0    0  0.00000000000E+00  0.00000000000E+00  0.14999999963E+04  0.15000000000E+04  0.10566000000E+00 0. -1.
        994   -1    0    0    0    0 -0.00000000000E+00 -0.00000000000E+00  0.11368683772E-12  0.17120000000E+03  0.17120000000E+03 0.  0.
         13    1    1    2    0    0 -0.29755374782E+01 -0.39312814889E+02  0.13781169190E+03  0.14334024147E+03  0.10566000000E+00 0. -1.
        994    1    1    2    0    0  0.82494055740E+01  0.45722053375E+02  0.12202515285E+02  0.17781141762E+03  0.17120000000E+03 0.  0.
        998    1    1    2    0    0 -0.52738680959E+01 -0.64092384851E+01  0.13499857891E+04  0.13500483409E+04  0.10000000000E+02 0. -1.
</event>
<event>
 5    1  0.1279376E-008  0.3762889E+03  0.7957747E-01  0.3467478E+00
         13   -1    0    0    0    0  0.00000000000E+00  0.00000000000E+00  0.14999999963E+04  0.15000000000E+04  0.10566000000E+00 0. -1.
        994   -1    0    0    0    0 -0.00000000000E+00 -0.00000000000E+00  0.11368683772E-12  0.17120000000E+03  0.17120000000E+03 0.  0.
         13    1    1    2    0    0 -0.43556019136E+02 -0.34358351895E+02  0.29116600598E+03  0.29640390913E+03  0.10566000000E+00 0. -1.
        994    1    1    2    0    0  0.43440274344E+01  0.17954577481E+02  0.71740860790E+01  0.17234310238E+03  0.17120000000E+03 0.  0.
        998    1    1    2    0    0  0.39211991702E+02  0.16403774414E+02  0.12016599042E+04  0.12024529885E+04  0.10000000000E+02 0. -1.
</event>
<event>
 5    1  0.1279376E-008  0.3858451E+03  0.7957747E-01  0.3426096E+00
         13   -1    0    0    0    0  0.00000000000E+00  0.00000000000E+00  0.14999999963E+04  0.15000000000E+04  0.10566000000E+00 0. -1.
        994   -1    0    0    0    0 -0.00000000000E+00 -0.00000000000E+00  0.11368683772E-12  0.17120000000E+03  0.17120000000E+03 0.  0.
         13    1    1    2    0    0  0.50319744811E+00 -0.11966812933E+02  0.67506225399E+02  0.68560626099E+02  0.10566000000E+00 0. -1.
        994    1    1    2    0    0 -0.17399712647E+01 -0.80262511029E+01  0.14323778200E+01  0.17140285853E+03  0.17120000000E+03 0.  0.
        998    1    1    2    0    0  0.12367738166E+01  0.19993064036E+02  0.14310613931E+04  0.14312365154E+04  0.10000000000E+02 0. -1.
</event>
<event>
 5    1  0.1279376E-008  0.3847186E+03  0.7957747E-01  0.3430866E+00
         13   -1    0    0    0    0  0.00000000000E+00  0.00000000000E+00  0.14999999963E+04  0.15000000000E+04  0.10566000000E+00 0. -1.
        994   -1    0    0    0    0 -0.00000000000E+00 -0.00000000000E+00  0.11368683772E-12  0.17120000000E+03  0.17120000000E+03 0.  0.
         13    1    1    2    0    0  0.17788833736E+02  0.59009442519E+01  0.10171082816E+03  0.10342324438E+03  0.10566000000E+00 0. -1.
        994    1    1    2    0    0 -0.55492289353E+01 -0.10800536773E+02  0.22553792496E+01  0.17164490168E+03  0.17120000000E+03 0.  0.
        998    1    1    2    0    0 -0.12239604801E+02  0.48995925207E+01  0.13960337889E+04  0.13961318539E+04  0.10000000000E+02 0. -1.
</event>
<event>
 5    1  0.1279376E-008  0.3783797E+03  0.7957747E-01  0.3458244E+00
         13   -1    0    0    0    0  0.00000000000E+00  0.00000000000E+00  0.14999999963E+04  0.15000000000E+04  0.10566000000E+00 0. -1.
        994   -1    0    0    0    0 -0.00000000000E+00 -0.00000000000E+00  0.11368683772E-12  0.17120000000E+03  0.17120000000E+03 0.  0.
         13    1    1    2    0    0  0.59795293898E+02  0.23429972068E+02  0.32321402410E+03  0.32953263466E+03  0.10566000000E+00 0. -1.
        994    1    1    2    0    0 -0.55571323373E+02 -0.38243812342E+02  0.20403594916E+02  0.18513915807E+03  0.17120000000E+03 0.  0.
        998    1    1    2    0    0 -0.42239705250E+01  0.14813840274E+02  0.11563823773E+04  0.11565282073E+04  0.10000000000E+02 0. -1.
</event>
<event>
 5    1  0.1279376E-008  0.3797770E+03  0.7957747E-01  0.3452130E+00
         13   -1    0    0    0    0  0.00000000000E+00  0.00000000000E+00  0.14999999963E+04  0.15000000000E+04  0.10566000000E+00 0.  1.
        994   -1    0    0    0    0 -0.00000000000E+00 -0.00000000000E+00  0.11368683772E-12  0.17120000000E+03  0.17120000000E+03 0.  0.
         13    1    1    2    0    0  0.22561765934E+01 -0.56688794822E+02  0.25362490670E+03  0.25989288996E+03  0.10566000000E+00 0.  1.
        994    1    1    2    0    0  0.12810653291E+02  0.84025637791E+02  0.28805827826E+02  0.19329675724E+03  0.17120000000E+03 0.  0.
        998    1    1    2    0    0 -0.15066829885E+02 -0.27336842968E+02  0.12175692618E+04  0.12180103528E+04  0.10000000000E+02 0.  1.
</event>
<event>
 5    1  0.1279376E-008  0.3821808E+03  0.7957747E-01  0.3441718E+00
         13   -1    0    0    0    0  0.00000000000E+00  0.00000000000E+00  0.14999999963E+04  0.15000000000E+04  0.10566000000E+00 0.  1.
        994   -1    0    0    0    0 -0.00000000000E+00 -0.00000000000E+00  0.11368683772E-12  0.17120000000E+03  0.17120000000E+03 0.  0.
         13    1    1    2    0    0  0.15291366632E+02  0.13494461999E+02  0.62530297051E+02  0.65772149208E+02  0.10566000000E+00 0.  1.
        994    1    1    2    0    0 -0.14402469153E+02 -0.28372818691E+02  0.64039307525E+01  0.17424952880E+03  0.17120000000E+03 0.  0.
        998    1    1    2    0    0 -0.88889747819E+00  0.14878356692E+02  0.14310657685E+04  0.14311783220E+04  0.10000000000E+02 0.  1.
</event>
<event>
 5    1  0.1279376E-008  0.3738023E+03  0.7957747E-01  0.3478597E+00
         13   -1    0    0    0    0  0.00000000000E+00  0.00000000000E+00  0.14999999963E+04  0.15000000000E+04  0.10566000000E+00 0.  1.
        994   -1    0    0    0    0 -0.00000000000E+00 -0.00000000000E+00  0.11368683772E-12  0.17120000000E+03  0.17120000000E+03 0.  0.
         13    1    1    2    0    0 -0.24576903187E+02 -0.54802217328E+01  0.39973819434E+02  0.47243776359E+02  0.10566000000E+00 0.  1.
        994    1    1    2    0    0  0.22275807522E+02  0.84884275677E+00  0.89929035957E+01  0.17287927710E+03  0.17120000000E+03 0.  0.
        998    1    1    2    0    0  0.23010956646E+01  0.46313789761E+01  0.14510332732E+04  0.14510769465E+04  0.10000000000E+02 0.  1.
</event>
<event>
 5    1  0.1279376E-008  0.3813796E+03  0.7957747E-01  0.3445173E+00
         13   -1    0    0    0    0  0.00000000000E+00  0.00000000000E+00  0.14999999963E+04  0.15000000000E+04  0.10566000000E+00 0. -1.
        994   -1    0    0    0    0 -0.00000000000E+00 -0.00000000000E+00  0.11368683772E-12  0.17120000000E+03  0.17120000000E+03 0.  0.
         13    1    1    2    0    0  0.22807012474E+01 -0.27539407848E+02  0.99634085170E+02  0.10339527395E+03  0.10566000000E+00 0. -1.
        994    1    1    2    0    0 -0.23465643622E+01  0.34604174305E+02  0.74518510103E+01  0.17483685346E+03  0.17120000000E+03 0.  0.
        998    1    1    2    0    0  0.65863114858E-01 -0.70647664564E+01  0.13929140601E+04  0.13929678726E+04  0.10000000000E+02 0. -1.
</event>
<event>
 5    1  0.1279376E-008  0.3756025E+03  0.7957747E-01  0.3470533E+00
         13   -1    0    0    0    0  0.00000000000E+00  0.00000000000E+00  0.14999999963E+04  0.15000000000E+04  0.10566000000E+00 0.  1.
        994   -1    0    0    0    0 -0.00000000000E+00 -0.00000000000E+00  0.11368683772E-12  0.17120000000E+03  0.17120000000E+03 0.  0.
         13    1    1    2    0    0  0.64701780808E+01  0.39722597714E+02  0.13937721704E+03  0.14507159532E+03  0.10566000000E+00 0.  1.
        994    1    1    2    0    0  0.10289922681E+03 -0.28587926742E+02  0.46099885400E+02  0.20697864592E+03  0.17120000000E+03 0.  0.
        998    1    1    2    0    0 -0.10936940489E+03 -0.11134670972E+02  0.13145228938E+04  0.13191497588E+04  0.10000000000E+02 0.  1.
</event>
<event>
 5    1  0.1279376E-008  0.3810514E+03  0.7957747E-01  0.3446593E+00
         13   -1    0    0    0    0  0.00000000000E+00  0.00000000000E+00  0.14999999963E+04  0.15000000000E+04  0.10566000000E+00 0. -1.
        994   -1    0    0    0    0 -0.00000000000E+00 -0.00000000000E+00  0.11368683772E-12  0.17120000000E+03  0.17120000000E+03 0.  0.
         13    1    1    2    0    0  0.11738187169E+00  0.11920658411E+02  0.16333493170E+02  0.20221524142E+02  0.10566000000E+00 0. -1.
        994    1    1    2    0    0 -0.22883359356E+01 -0.48953936154E+02  0.11646057042E+02  0.17845670341E+03  0.17120000000E+03 0.  0.
        998    1    1    2    0    0  0.21709540639E+01  0.37033277743E+02  0.14720204461E+04  0.14725217725E+04  0.10000000000E+02 0. -1.
</event>
<event>
 5    1  0.1279376E-008  0.3826482E+03  0.7957747E-01  0.3439708E+00
         13   -1    0    0    0    0  0.00000000000E+00  0.00000000000E+00  0.14999999963E+04  0.15000000000E+04  0.10566000000E+00 0.  1.
        994   -1    0    0    0    0 -0.00000000000E+00 -0.00000000000E+00  0.11368683772E-12  0.17120000000E+03  0.17120000000E+03 0.  0.
         13    1    1    2    0    0  0.11956901368E+02  0.78557976057E+00  0.24442412037E+02  0.27221816547E+02  0.10566000000E+00 0.  1.
        994    1    1    2    0    0 -0.10031115787E+02 -0.24391090158E+01  0.31555415941E+01  0.17153999528E+03  0.17120000000E+03 0.  0.
        998    1    1    2    0    0 -0.19257855805E+01  0.16535292552E+01  0.14724020426E+04  0.14724381882E+04  0.10000000000E+02 0.  1.
</event>
<event>
 5    1  0.1279376E-008  0.3835897E+03  0.7957747E-01  0.3435676E+00
         13   -1    0    0    0    0  0.00000000000E+00  0.00000000000E+00  0.14999999963E+04  0.15000000000E+04  0.10566000000E+00 0. -1.
        994   -1    0    0    0    0 -0.00000000000E+00 -0.00000000000E+00  0.11368683772E-12  0.17120000000E+03  0.17120000000E+03 0.  0.
         13    1    1    2    0    0  0.11726484386E+02  0.37337023389E+01  0.31547489701E+02  0.33863051245E+02  0.10566000000E+00 0. -1.
        994    1    1    2    0    0 -0.98523755830E+01 -0.26364174710E+01  0.26756762000E+01  0.17152439840E+03  0.17120000000E+03 0.  0.
        998    1    1    2    0    0 -0.18741088027E+01 -0.10972848679E+01  0.14657768304E+04  0.14658125504E+04  0.10000000000E+02 0. -1.
</event>
<event>
 5    1  0.1279376E-008  0.3824743E+03  0.7957747E-01  0.3440455E+00
         13   -1    0    0    0    0  0.00000000000E+00  0.00000000000E+00  0.14999999963E+04  0.15000000000E+04  0.10566000000E+00 0. -1.
        994   -1    0    0    0    0 -0.00000000000E+00 -0.00000000000E+00  0.11368683772E-12  0.17120000000E+03  0.17120000000E+03 0.  0.
         13    1    1    2    0    0 -0.28808351527E+02  0.11718284784E+02  0.15215549503E+03  0.15530146538E+03  0.10566000000E+00 0. -1.
        994    1    1    2    0    0  0.32409613138E+02 -0.19258180112E+01  0.63923719652E+01  0.17436855857E+03  0.17120000000E+03 0.  0.
        998    1    1    2    0    0 -0.36012616104E+01 -0.97924667730E+01  0.13414521293E+04  0.13415299760E+04  0.10000000000E+02 0. -1.
</event>
<event>
 5    1  0.1279376E-008  0.3816130E+03  0.7957747E-01  0.3444165E+00
         13   -1    0    0    0    0  0.00000000000E+00  0.00000000000E+00  0.14999999963E+04  0.15000000000E+04  0.10566000000E+00 0. -1.
        994   -1    0    0    0    0 -0.00000000000E+00 -0.00000000000E+00  0.11368683772E-12  0.17120000000E+03  0.17120000000E+03 0.  0.
         13    1    1    2    0    0 -0.43416827551E+01 -0.22864856140E+02  0.81556343575E+02  0.84812146517E+02  0.10566000000E+00 0. -1.
        994    1    1    2    0    0  0.52198336078E+00  0.11997379733E+02  0.38007786335E+01  0.17166273767E+03  0.17120000000E+03 0.  0.
        998    1    1    2    0    0  0.38196993943E+01  0.10867476407E+02  0.14146428741E+04  0.14147251158E+04  0.10000000000E+02 0. -1.
</event>
<event>
 5    1  0.1279376E-008  0.3859822E+03  0.7957747E-01  0.3425517E+00
         13   -1    0    0    0    0  0.00000000000E+00  0.00000000000E+00  0.14999999963E+04  0.15000000000E+04  0.10566000000E+00 0.  1.
        994   -1    0    0    0    0 -0.00000000000E+00 -0.00000000000E+00  0.11368683772E-12  0.17120000000E+03  0.17120000000E+03 0.  0.
         13    1    1    2    0    0  0.20742206323E+01 -0.14488777266E+02  0.85278328849E+02  0.86525323421E+02  0.10566000000E+00 0.  1.
        994    1    1    2    0    0 -0.37742316987E+01  0.21627324929E+02  0.27249063494E+01  0.17262343735E+03  0.17120000000E+03 0.  0.
        998    1    1    2    0    0  0.17000110664E+01 -0.71385476624E+01  0.14119967611E+04  0.14120512392E+04  0.10000000000E+02 0.  1.
</event>
<event>
 5    1  0.1279376E-008  0.3831900E+03  0.7957747E-01  0.3437385E+00
         13   -1    0    0    0    0  0.00000000000E+00  0.00000000000E+00  0.14999999963E+04  0.15000000000E+04  0.10566000000E+00 0.  1.
        994   -1    0    0    0    0 -0.00000000000E+00 -0.00000000000E+00  0.11368683772E-12  0.17120000000E+03  0.17120000000E+03 0.  0.
         13    1    1    2    0    0 -0.26872289907E+02  0.55452338249E+01  0.13494759844E+03  0.13770887797E+03  0.10566000000E+00 0.  1.
        994    1    1    2    0    0  0.27367316091E+02 -0.11290952761E+02  0.54361931285E+01  0.17382591234E+03  0.17120000000E+03 0.  0.
        998    1    1    2    0    0 -0.49502618391E+00  0.57457189365E+01  0.13596162047E+04  0.13596652097E+04  0.10000000000E+02 0.  1.
</event>
<event>
 5    1  0.1279376E-008  0.3752295E+03  0.7957747E-01  0.3472197E+00
         13   -1    0    0    0    0  0.00000000000E+00  0.00000000000E+00  0.14999999963E+04  0.15000000000E+04  0.10566000000E+00 0.  1.
        994   -1    0    0    0    0 -0.00000000000E+00 -0.00000000000E+00  0.11368683772E-12  0.17120000000E+03  0.17120000000E+03 0.  0.
         13    1    1    2    0    0  0.10305458764E+02 -0.93178644128E+01 -0.33940604172E+00  0.13897893295E+02  0.10566000000E+00 0.  1.
        994    1    1    2    0    0 -0.67771568412E+01  0.11242829169E+03  0.60409804534E+02  0.21364651907E+03  0.17120000000E+03 0.  0.
        998    1    1    2    0    0 -0.35283019225E+01 -0.10311042728E+03  0.14399295978E+04  0.14436555876E+04  0.10000000000E+02 0.  1.
</event>
<event>
 5    1  0.1279376E-008  0.3851630E+03  0.7957747E-01  0.3428981E+00
         13   -1    0    0    0    0  0.00000000000E+00  0.00000000000E+00  0.14999999963E+04  0.15000000000E+04  0.10566000000E+00 0. -1.
        994   -1    0    0    0    0 -0.00000000000E+00 -0.00000000000E+00  0.11368683772E-12  0.17120000000E+03  0.17120000000E+03 0.  0.
         13    1    1    2    0    0  0.13890998984E+02  0.88579420812E+01  0.90747518818E+02  0.92230940180E+02  0.10566000000E+00 0. -1.
        994    1    1    2    0    0 -0.55568762756E+01 -0.30248235640E+01  0.16808079887E+01  0.17132511067E+03  0.17120000000E+03 0.  0.
        998    1    1    2    0    0 -0.83341227086E+01 -0.58331185172E+01  0.14075716695E+04  0.14076439491E+04  0.10000000000E+02 0. -1.
</event>
<event>
 5    1  0.1279376E-008  0.3855942E+03  0.7957747E-01  0.3427156E+00
         13   -1    0    0    0    0  0.00000000000E+00  0.00000000000E+00  0.14999999963E+04  0.15000000000E+04  0.10566000000E+00 0. -1.
        994   -1    0    0    0    0 -0.00000000000E+00 -0.00000000000E+00  0.11368683772E-12  0.17120000000E+03  0.17120000000E+03 0.  0.
         13    1    1    2    0    0 -0.17486060142E+02  0.47272927987E+01  0.99173001816E+02  0.10081371459E+03  0.10566000000E+00 0. -1.
        994    1    1    2    0    0  0.36511181105E+02 -0.10933211126E+02  0.61178923008E+01  0.17549777793E+03  0.17120000000E+03 0.  0.
        998    1    1    2    0    0 -0.19025120963E+02  0.62059183277E+01  0.13947091022E+04  0.13948885075E+04  0.10000000000E+02 0. -1.
</event>
<event>
 5    1  0.1279376E-008  0.3774509E+03  0.7957747E-01  0.3462334E+00
         13   -1    0    0    0    0  0.00000000000E+00  0.00000000000E+00  0.14999999963E+04  0.15000000000E+04  0.10566000000E+00 0.  1.
        994   -1    0    0    0    0 -0.00000000000E+00 -0.00000000000E+00  0.11368683772E-12  0.17120000000E+03  0.17120000000E+03 0.  0.
         13    1    1    2    0    0  0.26003790567E+02  0.61793859643E+01  0.64000337728E+02  0.69357309118E+02  0.10566000000E+00 0.  1.
        994    1    1    2    0    0 -0.16366484504E+02 -0.13089912224E+01  0.63348544004E+01  0.17210213727E+03  0.17120000000E+03 0.  0.
        998    1    1    2    0    0 -0.96373060637E+01 -0.48703947419E+01  0.14296648042E+04  0.14297405536E+04  0.10000000000E+02 0.  1.
</event>
<event>
 5    1  0.1279376E-008  0.3736736E+03  0.7957747E-01  0.3479176E+00
         13   -1    0    0    0    0  0.00000000000E+00  0.00000000000E+00  0.14999999963E+04  0.15000000000E+04  0.10566000000E+00 0. -1.
        994   -1    0    0    0    0 -0.00000000000E+00 -0.00000000000E+00  0.11368683772E-12  0.17120000000E+03  0.17120000000E+03 0.  0.
         13    1    1    2    0    0 -0.20218439290E+02  0.67549317858E+01  0.27484307422E+02  0.34782362043E+02  0.10566000000E+00 0. -1.
        994    1    1    2    0    0  0.17118254741E+02 -0.96303088116E+01  0.86797757425E+01  0.17254146168E+03  0.17120000000E+03 0.  0.
        998    1    1    2    0    0  0.31001845495E+01  0.28753770258E+01  0.14638359131E+04  0.14638761763E+04  0.10000000000E+02 0. -1.
</event>
<event>
 5    1  0.1279376E-008  0.3760094E+03  0.7957747E-01  0.3468721E+00
         13   -1    0    0    0    0  0.00000000000E+00  0.00000000000E+00  0.14999999963E+04  0.15000000000E+04  0.10566000000E+00 0.  1.
        994   -1    0    0    0    0 -0.00000000000E+00 -0.00000000000E+00  0.11368683772E-12  0.17120000000E+03  0.17120000000E+03 0.  0.
         13    1    1    2    0    0 -0.70693997412E+02  0.11146487960E+03  0.65776632497E+03  0.67087898319E+03  0.10566000000E+00 0.  1.
        994    1    1    2    0    0  0.70217365522E+02 -0.12187173095E+03  0.76428835011E+02  0.23438004191E+03  0.17120000000E+03 0.  0.
        998    1    1    2    0    0  0.47663188921E+00  0.10406851350E+02  0.76580483630E+03  0.76594097490E+03  0.10000000000E+02 0.  0.
</event>
<event>
 5    1  0.1279376E-008  0.3847617E+03  0.7957747E-01  0.3430683E+00
         13   -1    0    0    0    0  0.00000000000E+00  0.00000000000E+00  0.14999999963E+04  0.15000000000E+04  0.10566000000E+00 0.  1.
        994   -1    0    0    0    0 -0.00000000000E+00 -0.00000000000E+00  0.11368683772E-12  0.17120000000E+03  0.17120000000E+03 0.  0.
         13    1    1    2    0    0  0.45417355101E+01  0.14109242119E+02  0.64058793509E+02  0.65751336598E+02  0.10566000000E+00 0.  1.
        994    1    1    2    0    0 -0.27492993325E+01 -0.57108843705E+01  0.18807262493E+01  0.17132761009E+03  0.17120000000E+03 0.  0.
        998    1    1    2    0    0 -0.17924361776E+01 -0.83983577486E+01  0.14340604765E+04  0.14341210533E+04  0.10000000000E+02 0.  1.
</event>
<event>
 5    1  0.1279376E-008  0.3808778E+03  0.7957747E-01  0.3447345E+00
         13   -1    0    0    0    0  0.00000000000E+00  0.00000000000E+00  0.14999999963E+04  0.15000000000E+04  0.10566000000E+00 0.  1.
        994   -1    0    0    0    0 -0.00000000000E+00 -0.00000000000E+00  0.11368683772E-12  0.17120000000E+03  0.17120000000E+03 0.  0.
         13    1    1    2    0    0  0.89322536902E+01  0.13753967605E+02  0.34568092983E+02  0.38261220542E+02  0.10566000000E+00 0.  1.
        994    1    1    2    0    0 -0.64853191635E+01 -0.13698043252E+02  0.44567015519E+01  0.17192730424E+03  0.17120000000E+03 0.  0.
        998    1    1    2    0    0 -0.24469345268E+01 -0.55924352151E-01  0.14609752017E+04  0.14610114752E+04  0.10000000000E+02 0.  1.
</event>
<event>
 5    1  0.1279376E-008  0.3805677E+03  0.7957747E-01  0.3448690E+00
         13   -1    0    0    0    0  0.00000000000E+00  0.00000000000E+00  0.14999999963E+04  0.15000000000E+04  0.10566000000E+00 0.  1.
        994   -1    0    0    0    0 -0.00000000000E+00 -0.00000000000E+00  0.11368683772E-12  0.17120000000E+03  0.17120000000E+03 0.  0.
         13    1    1    2    0    0 -0.99188865510E+01  0.20131334998E+02  0.62110871945E+02  0.66041097334E+02  0.10566000000E+00 0.  1.
        994    1    1    2    0    0 -0.20713043012E+01 -0.25335672898E+02  0.60059087474E+01  0.17318111203E+03  0.17120000000E+03 0.  0.
        998    1    1    2    0    0  0.11990190852E+02  0.52043378995E+01  0.14318832156E+04  0.14319777906E+04  0.10000000000E+02 0.  1.
</event>
<event>
 5    1  0.1279376E-008  0.3849326E+03  0.7957747E-01  0.3429958E+00
         13   -1    0    0    0    0  0.00000000000E+00  0.00000000000E+00  0.14999999963E+04  0.15000000000E+04  0.10566000000E+00 0.  1.
        994   -1    0    0    0    0 -0.00000000000E+00 -0.00000000000E+00  0.11368683772E-12  0.17120000000E+03  0.17120000000E+03 0.  0.
         13    1    1    2    0    0 -0.14456841658E+02 -0.13562805603E+02  0.11864691646E+03  0.12029152886E+03  0.10566000000E+00 0.  1.
        994    1    1    2    0    0  0.22305167405E+01  0.15305680495E+02  0.24509356578E+01  0.17191476419E+03  0.17120000000E+03 0.  0.
        998    1    1    2    0    0  0.12226324918E+02 -0.17428748923E+01  0.13789021442E+04  0.13789937070E+04  0.10000000000E+02 0.  1.
</event>
<event>
 5    1  0.1279376E-008  0.3729755E+03  0.7957747E-01  0.3482327E+00
         13   -1    0    0    0    0  0.00000000000E+00  0.00000000000E+00  0.14999999963E+04  0.15000000000E+04  0.10566000000E+00 0. -1.
        994   -1    0    0    0    0 -0.00000000000E+00 -0.00000000000E+00  0.11368683772E-12  0.17120000000E+03  0.17120000000E+03 0.  0.
         13    1    1    2    0    0  0.59025941433E+02 -0.21591899612E+02  0.37626397877E+03  0.38147721397E+03  0.10566000000E+00 0. -1.
        994    1    1    2    0    0  0.43941485508E+01 -0.13862687192E+02  0.84461832976E+01  0.17202401184E+03  0.17120000000E+03 0.  0.
        998    1    1    2    0    0 -0.63420089983E+02  0.35454586805E+02  0.11152898342E+04  0.11176987742E+04  0.10000000000E+02 0. -1.
</event>
<event>
 5    1  0.1279376E-008  0.3814856E+03  0.7957747E-01  0.3444715E+00
         13   -1    0    0    0    0  0.00000000000E+00  0.00000000000E+00  0.14999999963E+04  0.15000000000E+04  0.10566000000E+00 0. -1.
        994   -1    0    0    0    0 -0.00000000000E+00 -0.00000000000E+00  0.11368683772E-12  0.17120000000E+03  0.17120000000E+03 0.  0.
         13    1    1    2    0    0 -0.48780903152E+01  0.23826670076E+02  0.77817194605E+02  0.81529337740E+02  0.10566000000E+00 0. -1.
        994    1    1    2    0    0  0.10963406487E+02 -0.34585257032E+02  0.77764040254E+01  0.17517490901E+03  0.17120000000E+03 0.  0.
        998    1    1    2    0    0 -0.60853161719E+01  0.10758586956E+02  0.14144063976E+04  0.14144957533E+04  0.10000000000E+02 0. -1.
</event>
<event>
 5    1  0.1279376E-008  0.3750283E+03  0.7957747E-01  0.3473096E+00
         13   -1    0    0    0    0  0.00000000000E+00  0.00000000000E+00  0.14999999963E+04  0.15000000000E+04  0.10566000000E+00 0. -1.
        994   -1    0    0    0    0 -0.00000000000E+00 -0.00000000000E+00  0.11368683772E-12  0.17120000000E+03  0.17120000000E+03 0.  0.
         13    1    1    2    0    0  0.31272238116E+02  0.25661075693E+03  0.11262937822E+04  0.11555798235E+04  0.10566000000E+00 0. -1.
        994    1    1    2    0    0 -0.19013550461E+02 -0.25502780703E+03  0.26608494205E+03  0.40683084181E+03  0.17120000000E+03 0.  0.
        998    1    1    2    0    0 -0.12258687655E+02 -0.15829498925E+01  0.10762127204E+03  0.10878933472E+03  0.10000000000E+02 0.  1.
</event>
<event>
 5    1  0.1279376E-008  0.3829311E+03  0.7957747E-01  0.3438494E+00
         13   -1    0    0    0    0  0.00000000000E+00  0.00000000000E+00  0.14999999963E+04  0.15000000000E+04  0.10566000000E+00 0. -1.
        994   -1    0    0    0    0 -0.00000000000E+00 -0.00000000000E+00  0.11368683772E-12  0.17120000000E+03  0.17120000000E+03 0.  0.
         13    1    1    2    0    0 -0.79700599156E+01  0.25591519318E+02  0.14376647525E+03  0.14624383162E+03  0.10566000000E+00 0. -1.
        994    1    1    2    0    0 -0.29345424437E+01 -0.84240365156E+01  0.29242969099E+01  0.17145718837E+03  0.17120000000E+03 0.  0.
        998    1    1    2    0    0  0.10904602359E+02 -0.17167482803E+02  0.13533092241E+04  0.13534989800E+04  0.10000000000E+02 0. -1.
</event>
<event>
 5    1  0.1279376E-008  0.3801570E+03  0.7957747E-01  0.3450475E+00
         13   -1    0    0    0    0  0.00000000000E+00  0.00000000000E+00  0.14999999963E+04  0.15000000000E+04  0.10566000000E+00 0. -1.
        994   -1    0    0    0    0 -0.00000000000E+00 -0.00000000000E+00  0.11368683772E-12  0.17120000000E+03  0.17120000000E+03 0.  0.
         13    1    1    2    0    0  0.14174898280E+02  0.29653025632E+01  0.23901630047E+02  0.27946732251E+02  0.10566000000E+00 0. -1.
        994    1    1    2    0    0 -0.10151668499E+02 -0.22340408446E+02  0.60683955122E+01  0.17305610549E+03  0.17120000000E+03 0.  0.
        998    1    1    2    0    0 -0.40232297814E+01  0.19375105883E+02  0.14700299707E+04  0.14701971623E+04  0.10000000000E+02 0. -1.
</event>
<event>
 5    1  0.1279376E-008  0.3761308E+03  0.7957747E-01  0.3468181E+00
         13   -1    0    0    0    0  0.00000000000E+00  0.00000000000E+00  0.14999999963E+04  0.15000000000E+04  0.10566000000E+00 0.  1.
        994   -1    0    0    0    0 -0.00000000000E+00 -0.00000000000E+00  0.11368683772E-12  0.17120000000E+03  0.17120000000E+03 0.  0.
         13    1    1    2    0    0  0.83030394432E+02  0.36457458162E+01  0.40838740786E+03  0.41675847193E+03  0.10566000000E+00 0.  1.
        994    1    1    2    0    0 -0.88295564005E+02  0.38836260435E+02  0.38287133672E+02  0.20019916671E+03  0.17120000000E+03 0.  0.
        998    1    1    2    0    0  0.52651695736E+01 -0.42482006251E+02  0.10533254547E+04  0.10542423614E+04  0.10000000000E+02 0.  1.
</event>
<event>
 5    1  0.1279376E-008  0.3894303E+03  0.7957747E-01  0.3411097E+00
         13   -1    0    0    0    0  0.00000000000E+00  0.00000000000E+00  0.14999999963E+04  0.15000000000E+04  0.10566000000E+00 0. -1.
        994   -1    0    0    0    0 -0.00000000000E+00 -0.00000000000E+00  0.11368683772E-12  0.17120000000E+03  0.17120000000E+03 0.  0.
         13    1    1    2    0    0 -0.55939113285E+02 -0.55011911754E+02  0.12350972208E+03  0.14632210169E+03  0.10566000000E+00 0. -1.
        994    1    1    2    0    0  0.61656756926E+02  0.53595888778E+02  0.47121297356E+02  0.19545826059E+03  0.17120000000E+03 0.  0.
        998    1    1    2    0    0 -0.57176436408E+01  0.14160229766E+01  0.13293689768E+04  0.13294196377E+04  0.10000000000E+02 0. -1.
</event>
<event>
 5    1  0.1279376E-008  0.3891290E+03  0.7957747E-01  0.3412347E+00
         13   -1    0    0    0    0  0.00000000000E+00  0.00000000000E+00  0.14999999963E+04  0.15000000000E+04  0.10566000000E+00 0. -1.
        994   -1    0    0    0    0 -0.00000000000E+00 -0.00000000000E+00  0.11368683772E-12  0.17120000000E+03  0.17120000000E+03 0.  0.
         13    1    1    2    0    0 -0.11052196836E+03 -0.70631659409E+00  0.40968952397E+03  0.42433609508E+03  0.10566000000E+00 0. -1.
        994    1    1    2    0    0  0.14186881912E+02  0.10813074774E+03  0.67554752621E+02  0.21393132269E+03  0.17120000000E+03 0.  0.
        998    1    1    2    0    0  0.96335086443E+02 -0.10742443114E+03  0.10227557197E+04  0.10329325822E+04  0.10000000000E+02 0. -1.
</event>
<event>
 5    1  0.1279376E-008  0.3848465E+03  0.7957747E-01  0.3430323E+00
         13   -1    0    0    0    0  0.00000000000E+00  0.00000000000E+00  0.14999999963E+04  0.15000000000E+04  0.10566000000E+00 0.  1.
        994   -1    0    0    0    0 -0.00000000000E+00 -0.00000000000E+00  0.11368683772E-12  0.17120000000E+03  0.17120000000E+03 0.  0.
         13    1    1    2    0    0 -0.37604007491E+01  0.22121427544E+02  0.13359445726E+03  0.13546581984E+03  0.10566000000E+00 0.  1.
        994    1    1    2    0    0  0.36878302294E+00 -0.25438389790E+02  0.38388833172E+01  0.17312257132E+03  0.17120000000E+03 0.  0.
        998    1    1    2    0    0  0.33916177262E+01  0.33169622459E+01  0.13625666557E+04  0.13626116088E+04  0.10000000000E+02 0.  1.
</event>
<event>
 5    1  0.1279376E-008  0.3831115E+03  0.7957747E-01  0.3437721E+00
         13   -1    0    0    0    0  0.00000000000E+00  0.00000000000E+00  0.14999999963E+04  0.15000000000E+04  0.10566000000E+00 0. -1.
        994   -1    0    0    0    0 -0.00000000000E+00 -0.00000000000E+00  0.11368683772E-12  0.17120000000E+03  0.17120000000E+03 0.  0.
         13    1    1    2    0    0 -0.93680096962E-02  0.21171788411E+02  0.92274439700E+02  0.94672213971E+02  0.10566000000E+00 0. -1.
        994    1    1    2    0    0  0.34682581031E+01 -0.27758571402E+01  0.26359364271E+01  0.17127790972E+03  0.17120000000E+03 0.  0.
        998    1    1    2    0    0 -0.34588900934E+01 -0.18395931271E+02  0.14050896202E+04  0.14052498763E+04  0.10000000000E+02 0. -1.
</event>
<event>
 5    1  0.1279376E-008  0.3833059E+03  0.7957747E-01  0.3436889E+00
         13   -1    0    0    0    0  0.00000000000E+00  0.00000000000E+00  0.14999999963E+04  0.15000000000E+04  0.10566000000E+00 0.  1.
        994   -1    0    0    0    0 -0.00000000000E+00 -0.00000000000E+00  0.11368683772E-12  0.17120000000E+03  0.17120000000E+03 0.  0.
         13    1    1    2    0    0 -0.47818593532E+01  0.18881925445E+02  0.74057669097E+02  0.76576385417E+02  0.10566000000E+00 0.  1.
        994    1    1    2    0    0  0.15590051139E+02 -0.13904738653E+02  0.39179500859E+01  0.17251429443E+03  0.17120000000E+03 0.  0.
        998    1    1    2    0    0 -0.10808191785E+02 -0.49771867925E+01  0.14220243771E+04  0.14221093201E+04  0.10000000000E+02 0.  1.
</event>
<event>
 5    1  0.1279376E-008  0.3857233E+03  0.7957747E-01  0.3426610E+00
         13   -1    0    0    0    0  0.00000000000E+00  0.00000000000E+00  0.14999999963E+04  0.15000000000E+04  0.10566000000E+00 0.  1.
        994   -1    0    0    0    0 -0.00000000000E+00 -0.00000000000E+00  0.11368683772E-12  0.17120000000E+03  0.17120000000E+03 0.  0.
         13    1    1    2    0    0  0.88936333816E+00 -0.12182320103E+02  0.58272207399E+02  0.59538737049E+02  0.10566000000E+00 0.  1.
        994    1    1    2    0    0 -0.64868910511E+01  0.99119815669E+01  0.17320011224E+01  0.17161808460E+03  0.17120000000E+03 0.  0.
        998    1    1    2    0    0  0.55975277129E+01  0.22703385366E+01  0.14399957878E+04  0.14400431784E+04  0.10000000000E+02 0.  1.
</event>
<event>
 5    1  0.1279376E-008  0.3833801E+03  0.7957747E-01  0.3436572E+00
         13   -1    0    0    0    0  0.00000000000E+00  0.00000000000E+00  0.14999999963E+04  0.15000000000E+04  0.10566000000E+00 0.  1.
        994   -1    0    0    0    0 -0.00000000000E+00 -0.00000000000E+00  0.11368683772E-12  0.17120000000E+03  0.17120000000E+03 0.  0.
         13    1    1    2    0    0 -0.21604191952E+01  0.20295683665E+02  0.83059093124E+02  0.85530148493E+02  0.10566000000E+00 0.  1.
        994    1    1    2    0    0  0.41034985925E+01 -0.16189690818E+02  0.33592656000E+01  0.17204554471E+03  0.17120000000E+03 0.  0.
        998    1    1    2    0    0 -0.19430793973E+01 -0.41059928470E+01  0.14135816376E+04  0.14136243068E+04  0.10000000000E+02 0.  1.
</event>
<event>
 5    1  0.1279376E-008  0.3807349E+03  0.7957747E-01  0.3447965E+00
         13   -1    0    0    0    0  0.00000000000E+00  0.00000000000E+00  0.14999999963E+04  0.15000000000E+04  0.10566000000E+00 0.  1.
        994   -1    0    0    0    0 -0.00000000000E+00 -0.00000000000E+00  0.11368683772E-12  0.17120000000E+03  0.17120000000E+03 0.  0.
         13    1    1    2    0    0 -0.12591262300E+02  0.22201900345E+02  0.79946579005E+02  0.83922171825E+02  0.10566000000E+00 0.  1.
        994    1    1    2    0    0  0.15488251434E+02 -0.24959753896E+02  0.66454988115E+01  0.17382887534E+03  0.17120000000E+03 0.  0.
        998    1    1    2    0    0 -0.28969891345E+01  0.27578535509E+01  0.14134079185E+04  0.14134489528E+04  0.10000000000E+02 0.  1.
</event>
<event>
 5    1  0.1279376E-008  0.3804991E+03  0.7957747E-01  0.3448988E+00
         13   -1    0    0    0    0  0.00000000000E+00  0.00000000000E+00  0.14999999963E+04  0.15000000000E+04  0.10566000000E+00 0.  1.
        994   -1    0    0    0    0 -0.00000000000E+00 -0.00000000000E+00  0.11368683772E-12  0.17120000000E+03  0.17120000000E+03 0.  0.
         13    1    1    2    0    0  0.21147547746E+02 -0.12314971777E+02  0.73897378422E+02  0.77844145619E+02  0.10566000000E+00 0.  1.
        994    1    1    2    0    0 -0.16177789534E+02  0.13712632991E+02  0.53838712929E+01  0.17259253532E+03  0.17120000000E+03 0.  0.
        998    1    1    2    0    0 -0.49697582122E+01 -0.13976612137E+01  0.14207187466E+04  0.14207633191E+04  0.10000000000E+02 0.  1.
</event>
<event>
 5    1  0.1279376E-008  0.3805458E+03  0.7957747E-01  0.3448785E+00
         13   -1    0    0    0    0  0.00000000000E+00  0.00000000000E+00  0.14999999963E+04  0.15000000000E+04  0.10566000000E+00 0. -1.
        994   -1    0    0    0    0 -0.00000000000E+00 -0.00000000000E+00  0.11368683772E-12  0.17120000000E+03  0.17120000000E+03 0.  0.
         13    1    1    2    0    0 -0.17050726914E+02  0.74023350269E+01  0.45186940948E+02  0.48860952185E+02  0.10566000000E+00 0. -1.
        994    1    1    2    0    0  0.38612224444E+01  0.62903752446E+01  0.40396776219E+01  0.17140664180E+03  0.17120000000E+03 0.  0.
        998    1    1    2    0    0  0.13189504469E+02 -0.13692710271E+02  0.14507733777E+04  0.14509324060E+04  0.10000000000E+02 0. -1.
</event>
<event>
 5    1  0.1279376E-008  0.3693630E+03  0.7957747E-01  0.3498824E+00
         13   -1    0    0    0    0  0.00000000000E+00  0.00000000000E+00  0.14999999963E+04  0.15000000000E+04  0.10566000000E+00 0.  1.
        994   -1    0    0    0    0 -0.00000000000E+00 -0.00000000000E+00  0.11368683772E-12  0.17120000000E+03  0.17120000000E+03 0.  0.
         13    1    1    2    0    0 -0.47402958295E+02  0.29124216462E+02  0.15787576523E+03  0.16739184225E+03  0.10566000000E+00 0.  1.
        994    1    1    2    0    0  0.66751405254E+01 -0.94338984075E+01  0.11068355813E+02  0.17194622543E+03  0.17120000000E+03 0.  0.
        998    1    1    2    0    0  0.40727817770E+02 -0.19690318055E+02  0.13310558752E+04  0.13318619323E+04  0.10000000000E+02 0.  1.
</event>
<event>
 5    1  0.1279376E-008  0.3743857E+03  0.7957747E-01  0.3475975E+00
         13   -1    0    0    0    0  0.00000000000E+00  0.00000000000E+00  0.14999999963E+04  0.15000000000E+04  0.10566000000E+00 0.  1.
        994   -1    0    0    0    0 -0.00000000000E+00 -0.00000000000E+00  0.11368683772E-12  0.17120000000E+03  0.17120000000E+03 0.  0.
         13    1    1    2    0    0 -0.57902000362E+02 -0.20900268919E+02  0.36207130514E+03  0.36726707457E+03  0.10566000000E+00 0.  1.
        994    1    1    2    0    0  0.94064365032E+01 -0.20080588242E+02  0.86712149413E+01  0.17284773947E+03  0.17120000000E+03 0.  0.
        998    1    1    2    0    0  0.48495563859E+02  0.40980857161E+02  0.11292574762E+04  0.11310851860E+04  0.10000000000E+02 0.  1.
</event>
<event>
 5    1  0.1279376E-008  0.3850055E+03  0.7957747E-01  0.3429649E+00
         13   -1    0    0    0    0  0.00000000000E+00  0.00000000000E+00  0.14999999963E+04  0.15000000000E+04  0.10566000000E+00 0.  1.
        994   -1    0    0    0    0 -0.00000000000E+00 -0.00000000000E+00  0.11368683772E-12  0.17120000000E+03  0.17120000000E+03 0.  0.
         13    1    1    2    0    0 -0.17650514777E+01 -0.18457613879E+02  0.99095384670E+02  0.10081520393E+03  0.10566000000E+00 0.  1.
        994    1    1    2    0    0  0.60749080201E+01  0.19682714242E+02  0.30240602948E+01  0.17246129620E+03  0.17120000000E+03 0.  0.
        998    1    1    2    0    0 -0.43098565424E+01 -0.12251003625E+01  0.13978805513E+04  0.13979234999E+04  0.10000000000E+02 0.  1.
</event>
<event>
 5    1  0.1279376E-008  0.3727906E+03  0.7957747E-01  0.3483163E+00
         13   -1    0    0    0    0  0.00000000000E+00  0.00000000000E+00  0.14999999963E+04  0.15000000000E+04  0.10566000000E+00 0.  1.
        994   -1    0    0    0    0 -0.00000000000E+00 -0.00000000000E+00  0.11368683772E-12  0.17120000000E+03  0.17120000000E+03 0.  0.
         13    1    1    2    0    0  0.27391277827E+02  0.51495161790E+02  0.19229214751E+03  0.20094356160E+03  0.10566000000E+00 0.  1.
        994    1    1    2    0    0 -0.25078174325E+02 -0.48591941993E+02  0.18128199396E+02  0.18063267497E+03  0.17120000000E+03 0.  0.
        998    1    1    2    0    0 -0.23131035022E+01 -0.29032197976E+01  0.12895796494E+04  0.12896237634E+04  0.10000000000E+02 0.  0.
</event>
<event>
 5    1  0.1279376E-008  0.3829305E+03  0.7957747E-01  0.3438497E+00
         13   -1    0    0    0    0  0.00000000000E+00  0.00000000000E+00  0.14999999963E+04  0.15000000000E+04  0.10566000000E+00 0.  1.
        994   -1    0    0    0    0 -0.00000000000E+00 -0.00000000000E+00  0.11368683772E-12  0.17120000000E+03  0.17120000000E+03 0.  0.
         13    1    1    2    0    0  0.21204649551E+02 -0.24019940031E+02  0.16911724700E+03  0.17212567815E+03  0.10566000000E+00 0.  1.
        994    1    1    2    0    0 -0.23761675907E+02  0.25250479731E+02  0.66516519223E+01  0.17480242688E+03  0.17120000000E+03 0.  0.
        998    1    1    2    0    0  0.25570263554E+01 -0.12305397002E+01  0.13242310974E+04  0.13242718950E+04  0.10000000000E+02 0.  0.
</event>
<event>
 5    1  0.1279376E-008  0.3736274E+03  0.7957747E-01  0.3479384E+00
         13   -1    0    0    0    0  0.00000000000E+00  0.00000000000E+00  0.14999999963E+04  0.15000000000E+04  0.10566000000E+00 0. -1.
        994   -1    0    0    0    0 -0.00000000000E+00 -0.00000000000E+00  0.11368683772E-12  0.17120000000E+03  0.17120000000E+03 0.  0.
         13    1    1    2    0    0  0.86007092672E+01  0.27208249513E+02  0.41181112892E+02  0.50101459705E+02  0.10566000000E+00 0. -1.
        994    1    1    2    0    0 -0.56675752976E+02 -0.84197300207E+02  0.43424872460E+02  0.20370686264E+03  0.17120000000E+03 0.  0.
        998    1    1    2    0    0  0.48075043709E+02  0.56989050694E+02  0.14153940109E+04  0.14173916777E+04  0.10000000000E+02 0. -1.
</event>
<event>
 5    1  0.1279376E-008  0.3746634E+03  0.7957747E-01  0.3474730E+00
         13   -1    0    0    0    0  0.00000000000E+00  0.00000000000E+00  0.14999999963E+04  0.15000000000E+04  0.10566000000E+00 0. -1.
        994   -1    0    0    0    0 -0.00000000000E+00 -0.00000000000E+00  0.11368683772E-12  0.17120000000E+03  0.17120000000E+03 0.  0.
         13    1    1    2    0    0  0.33936770412E+02  0.25601520939E+02  0.64995008310E+02  0.77662761538E+02  0.10566000000E+00 0. -1.
        994    1    1    2    0    0 -0.38735703740E+02  0.28555304279E+02  0.21702941715E+02  0.17915445243E+03  0.17120000000E+03 0.  0.
        998    1    1    2    0    0  0.47989333284E+01 -0.54156825218E+02  0.14133020463E+04  0.14143827860E+04  0.10000000000E+02 0. -1.
</event>
<event>
 5    1  0.1279376E-008  0.3854389E+03  0.7957747E-01  0.3427813E+00
         13   -1    0    0    0    0  0.00000000000E+00  0.00000000000E+00  0.14999999963E+04  0.15000000000E+04  0.10566000000E+00 0. -1.
        994   -1    0    0    0    0 -0.00000000000E+00 -0.00000000000E+00  0.11368683772E-12  0.17120000000E+03  0.17120000000E+03 0.  0.
         13    1    1    2    0    0  0.30780241273E+01  0.16294364226E+02  0.95197047663E+02  0.96630583078E+02  0.10566000000E+00 0. -1.
        994    1    1    2    0    0 -0.91474647335E+00 -0.13993942315E+02  0.20584817375E+01  0.17178575182E+03  0.17120000000E+03 0.  0.
        998    1    1    2    0    0 -0.21632776539E+01 -0.23004219117E+01  0.14027444669E+04  0.14027836651E+04  0.10000000000E+02 0.  0.
</event>
<event>
 5    1  0.1279376E-008  0.3827800E+03  0.7957747E-01  0.3439142E+00
         13   -1    0    0    0    0  0.00000000000E+00  0.00000000000E+00  0.14999999963E+04  0.15000000000E+04  0.10566000000E+00 0. -1.
        994   -1    0    0    0    0 -0.00000000000E+00 -0.00000000000E+00  0.11368683772E-12  0.17120000000E+03  0.17120000000E+03 0.  0.
         13    1    1    2    0    0  0.13122855408E+02 -0.18303809162E+02  0.91458526727E+02  0.94190827786E+02  0.10566000000E+00 0. -1.
        994    1    1    2    0    0 -0.32566980179E+01  0.15952852178E+02  0.36149813778E+01  0.17201048708E+03  0.17120000000E+03 0.  0.
        998    1    1    2    0    0 -0.98661573899E+01  0.23509569836E+01  0.14049264882E+04  0.14049986851E+04  0.10000000000E+02 0. -1.
</event>
<event>
 5    1  0.1279376E-008  0.3854218E+03  0.7957747E-01  0.3427885E+00
         13   -1    0    0    0    0  0.00000000000E+00  0.00000000000E+00  0.14999999963E+04  0.15000000000E+04  0.10566000000E+00 0. -1.
        994   -1    0    0    0    0 -0.00000000000E+00 -0.00000000000E+00  0.11368683772E-12  0.17120000000E+03  0.17120000000E+03 0.  0.
         13    1    1    2    0    0  0.84200318035E+01  0.12777508903E+02  0.86086736459E+02  0.87436256939E+02  0.10566000000E+00 0. -1.
        994    1    1    2    0    0  0.97448109543E+01 -0.12763717752E+02  0.22682462061E+01  0.17196644665E+03  0.17120000000E+03 0.  0.
        998    1    1    2    0    0 -0.18164842758E+02 -0.13791150425E-01  0.14116450136E+04  0.14117972964E+04  0.10000000000E+02 0. -1.
</event>
<event>
 5    1  0.1279376E-008  0.3819913E+03  0.7957747E-01  0.3442533E+00
         13   -1    0    0    0    0  0.00000000000E+00  0.00000000000E+00  0.14999999963E+04  0.15000000000E+04  0.10566000000E+00 0.  1.
        994   -1    0    0    0    0 -0.00000000000E+00 -0.00000000000E+00  0.11368683772E-12  0.17120000000E+03  0.17120000000E+03 0.  0.
         13    1    1    2    0    0 -0.85336960216E+01 -0.85790515567E+01  0.22307715940E+02  0.25378523360E+02  0.10566000000E+00 0.  1.
        994    1    1    2    0    0  0.48203805607E+01  0.40805454899E+01  0.32637923081E+01  0.17134753941E+03  0.17120000000E+03 0.  0.
        998    1    1    2    0    0  0.37133154609E+01  0.44985060668E+01  0.14744284880E+04  0.14744739372E+04  0.10000000000E+02 0.  1.
</event>
<event>
 5    1  0.1279376E-008  0.3848326E+03  0.7957747E-01  0.3430382E+00
         13   -1    0    0    0    0  0.00000000000E+00  0.00000000000E+00  0.14999999963E+04  0.15000000000E+04  0.10566000000E+00 0.  1.
        994   -1    0    0    0    0 -0.00000000000E+00 -0.00000000000E+00  0.11368683772E-12  0.17120000000E+03  0.17120000000E+03 0.  0.
         13    1    1    2    0    0  0.78603469269E+01 -0.18708170619E+02  0.10486036642E+03  0.10680584399E+03  0.10566000000E+00 0.  1.
        994    1    1    2    0    0 -0.10045407799E+02  0.28871871667E+02  0.47942054095E+01  0.17397390493E+03  0.17120000000E+03 0.  0.
        998    1    1    2    0    0  0.21850608723E+01 -0.10163701048E+02  0.13903454245E+04  0.13904202511E+04  0.10000000000E+02 0.  1.
</event>
<event>
 5    1  0.1279376E-008  0.3781815E+03  0.7957747E-01  0.3459115E+00
         13   -1    0    0    0    0  0.00000000000E+00  0.00000000000E+00  0.14999999963E+04  0.15000000000E+04  0.10566000000E+00 0.  1.
        994   -1    0    0    0    0 -0.00000000000E+00 -0.00000000000E+00  0.11368683772E-12  0.17120000000E+03  0.17120000000E+03 0.  0.
         13    1    1    2    0    0  0.13166697089E+02 -0.29538949943E+02  0.91175483569E+02  0.96741363666E+02  0.10566000000E+00 0.  1.
        994    1    1    2    0    0  0.27070254042E+02  0.61590538294E+02  0.20430291473E+02  0.18507574090E+03  0.17120000000E+03 0.  0.
        998    1    1    2    0    0 -0.40236951130E+02 -0.32051588351E+02  0.13883942212E+04  0.13893828954E+04  0.10000000000E+02 0.  1.
</event>
<event>
 5    1  0.1279376E-008  0.2915916E+03  0.7957747E-01  0.3957938E+00
         13   -1    0    0    0    0  0.00000000000E+00  0.00000000000E+00  0.14999999963E+04  0.15000000000E+04  0.10566000000E+00 0. -1.
        994   -1    0    0    0    0 -0.00000000000E+00 -0.00000000000E+00  0.11368683772E-12  0.17120000000E+03  0.17120000000E+03 0.  0.
         13    1    1    2    0    0 -0.21354604952E+03  0.10281764049E+02  0.85823413792E+03  0.88446225278E+03  0.10566000000E+00 0. -1.
        994    1    1    2    0    0  0.60824465446E+02 -0.49120779169E+02  0.82296793706E+02  0.20541340949E+03  0.17120000000E+03 0.  0.
        998    1    1    2    0    0  0.15272158407E+03  0.38839015120E+02  0.55946906466E+03  0.58132433774E+03  0.10000000000E+02 0. -1.
</event>
<event>
 5    1  0.1279376E-008  0.3844930E+03  0.7957747E-01  0.3431825E+00
         13   -1    0    0    0    0  0.00000000000E+00  0.00000000000E+00  0.14999999963E+04  0.15000000000E+04  0.10566000000E+00 0. -1.
        994   -1    0    0    0    0 -0.00000000000E+00 -0.00000000000E+00  0.11368683772E-12  0.17120000000E+03  0.17120000000E+03 0.  0.
         13    1    1    2    0    0 -0.94070597838E+01  0.14905886750E+02  0.82154806407E+02  0.84024410818E+02  0.10566000000E+00 0. -1.
        994    1    1    2    0    0  0.38960195532E+01 -0.11327773136E+02  0.23549111617E+01  0.17163473722E+03  0.17120000000E+03 0.  0.
        998    1    1    2    0    0  0.55110402306E+01 -0.35781136144E+01  0.14154902787E+04  0.14155408520E+04  0.10000000000E+02 0. -1.
</event>
<event>
 5    1  0.5398389E-008  0.3863540E+03  0.7957747E-01  0.3423950E+00
         13   -1    0    0    0    0  0.00000000000E+00  0.00000000000E+00  0.14999999963E+04  0.15000000000E+04  0.10566000000E+00 0. -1.
        994   -1    0    0    0    0 -0.00000000000E+00 -0.00000000000E+00  0.11368683772E-12  0.17120000000E+03  0.17120000000E+03 0.  0.
         13    1    1    2    0    0 -0.72763127951E+01  0.72501230378E+01  0.56617539121E+02  0.57541862258E+02  0.10566000000E+00 0. -1.
        994    1    1    2    0    0  0.13348994807E+01 -0.64893116860E+01  0.11031202037E+01  0.17133169583E+03  0.17120000000E+03 0.  0.
        998    1    1    2    0    0  0.59414133144E+01 -0.76081135173E+00  0.14422793370E+04  0.14423264419E+04  0.10000000000E+02 0. -1.
</event>
<event>
 5    1  0.1279376E-008  0.3826138E+03  0.7957747E-01  0.3439856E+00
         13   -1    0    0    0    0  0.00000000000E+00  0.00000000000E+00  0.14999999963E+04  0.15000000000E+04  0.10566000000E+00 0.  1.
        994   -1    0    0    0    0 -0.00000000000E+00 -0.00000000000E+00  0.11368683772E-12  0.17120000000E+03  0.17120000000E+03 0.  0.
         13    1    1    2    0    0 -0.17997418496E+02  0.80590562837E+01  0.77142455294E+02  0.79623018239E+02  0.10566000000E+00 0.  1.
        994    1    1    2    0    0 -0.72753575182E+01  0.87581936453E+01  0.32492657812E+01  0.17160895813E+03  0.17120000000E+03 0.  0.
        998    1    1    2    0    0  0.25272776014E+02 -0.16817249929E+02  0.14196082752E+04  0.14199680236E+04  0.10000000000E+02 0.  1.
</event>
<event>
 5    1  0.1279376E-008  0.3969028E+03  0.7957747E-01  0.3380708E+00
         13   -1    0    0    0    0  0.00000000000E+00  0.00000000000E+00  0.14999999963E+04  0.15000000000E+04  0.10566000000E+00 0.  1.
        994   -1    0    0    0    0 -0.00000000000E+00 -0.00000000000E+00  0.11368683772E-12  0.17120000000E+03  0.17120000000E+03 0.  0.
         13    1    1    2    0    0  0.28218213400E+02 -0.15695065160E+02  0.92942241189E+01  0.33600541720E+02  0.10566000000E+00 0.  1.
        994    1    1    2    0    0 -0.25848610286E+02  0.15024369573E+02  0.29403448633E+02  0.17626084400E+03  0.17120000000E+03 0.  0.
        998    1    1    2    0    0 -0.23696031143E+01  0.67069558766E+00  0.14613023235E+04  0.14613386143E+04  0.10000000000E+02 0.  1.
</event>
<event>
 5    1  0.1279376E-008  0.3714907E+03  0.7957747E-01  0.3489068E+00
         13   -1    0    0    0    0  0.00000000000E+00  0.00000000000E+00  0.14999999963E+04  0.15000000000E+04  0.10566000000E+00 0. -1.
        994   -1    0    0    0    0 -0.00000000000E+00 -0.00000000000E+00  0.11368683772E-12  0.17120000000E+03  0.17120000000E+03 0.  0.
         13    1    1    2    0    0  0.23428904009E+02  0.60151788015E+01  0.30244516000E+02  0.38727739816E+02  0.10566000000E+00 0. -1.
        994    1    1    2    0    0 -0.24559550870E+02 -0.85404125776E+01  0.10821267553E+02  0.17350115278E+03  0.17120000000E+03 0.  0.
        998    1    1    2    0    0  0.11306468606E+01  0.25252337761E+01  0.14589342127E+04  0.14589711074E+04  0.10000000000E+02 0. -1.
</event>
<event>
 5    1  0.1279376E-008  0.3809750E+03  0.7957747E-01  0.3446924E+00
         13   -1    0    0    0    0  0.00000000000E+00  0.00000000000E+00  0.14999999963E+04  0.15000000000E+04  0.10566000000E+00 0.  1.
        994   -1    0    0    0    0 -0.00000000000E+00 -0.00000000000E+00  0.11368683772E-12  0.17120000000E+03  0.17120000000E+03 0.  0.
         13    1    1    2    0    0 -0.18733402810E+02  0.10712021834E+02  0.60246122818E+02  0.63994486257E+02  0.10566000000E+00 0.  1.
        994    1    1    2    0    0  0.20515989093E+02 -0.10465834687E+02  0.54113181533E+01  0.17282697089E+03  0.17120000000E+03 0.  0.
        998    1    1    2    0    0 -0.17825862832E+01 -0.24618714693E+00  0.14343425553E+04  0.14343785428E+04  0.10000000000E+02 0.  1.
</event>
<event>
 5    1  0.1279376E-008  0.3817813E+03  0.7957747E-01  0.3443439E+00
         13   -1    0    0    0    0  0.00000000000E+00  0.00000000000E+00  0.14999999963E+04  0.15000000000E+04  0.10566000000E+00 0. -1.
        994   -1    0    0    0    0 -0.00000000000E+00 -0.00000000000E+00  0.11368683772E-12  0.17120000000E+03  0.17120000000E+03 0.  0.
         13    1    1    2    0    0 -0.22478160051E+02 -0.23398662223E+02  0.17361202502E+03  0.17661798172E+03  0.10566000000E+00 0. -1.
        994    1    1    2    0    0  0.73523402450E+01  0.64586789632E+01  0.35549970901E+01  0.17151632414E+03  0.17120000000E+03 0.  0.
        998    1    1    2    0    0  0.15125819806E+02  0.16939983260E+02  0.13228329742E+04  0.13230656941E+04  0.10000000000E+02 0. -1.
</event>
<event>
 5    1  0.1279376E-008  0.3861917E+03  0.7957747E-01  0.3424634E+00
         13   -1    0    0    0    0  0.00000000000E+00  0.00000000000E+00  0.14999999963E+04  0.15000000000E+04  0.10566000000E+00 0. -1.
        994   -1    0    0    0    0 -0.00000000000E+00 -0.00000000000E+00  0.11368683772E-12  0.17120000000E+03  0.17120000000E+03 0.  0.
         13    1    1    2    0    0 -0.11314110653E+02  0.13133650394E+01  0.61762449319E+02  0.62804023259E+02  0.10566000000E+00 0. -1.
        994    1    1    2    0    0  0.11219363779E+02  0.18908554699E+01  0.14638388071E+01  0.17158389284E+03  0.17120000000E+03 0.  0.
        998    1    1    2    0    0  0.94746873753E-01 -0.32042205093E+01  0.14367737082E+04  0.14368120839E+04  0.10000000000E+02 0. -1.
</event>
<event>
 5    1  0.1279376E-008  0.3730435E+03  0.7957747E-01  0.3482019E+00
         13   -1    0    0    0    0  0.00000000000E+00  0.00000000000E+00  0.14999999963E+04  0.15000000000E+04  0.10566000000E+00 0.  1.
        994   -1    0    0    0    0 -0.00000000000E+00 -0.00000000000E+00  0.11368683772E-12  0.17120000000E+03  0.17120000000E+03 0.  0.
         13    1    1    2    0    0 -0.81531415648E+02 -0.55100806635E+02  0.31679217177E+03  0.33172392420E+03  0.10566000000E+00 0.  1.
        994    1    1    2    0    0  0.66425192087E+02  0.60732796407E+02  0.41764293860E+02  0.19787489721E+03  0.17120000000E+03 0.  0.
        998    1    1    2    0    0  0.15106223560E+02 -0.56319897717E+01  0.11414435307E+04  0.11416011786E+04  0.10000000000E+02 0.  1.
</event>
<event>
 5    1  0.1279376E-008  0.3809251E+03  0.7957747E-01  0.3447140E+00
         13   -1    0    0    0    0  0.00000000000E+00  0.00000000000E+00  0.14999999963E+04  0.15000000000E+04  0.10566000000E+00 0. -1.
        994   -1    0    0    0    0 -0.00000000000E+00 -0.00000000000E+00  0.11368683772E-12  0.17120000000E+03  0.17120000000E+03 0.  0.
         13    1    1    2    0    0  0.42910038638E+01  0.10869120266E+02  0.17027747023E+02  0.20652017388E+02  0.10566000000E+00 0. -1.
        994    1    1    2    0    0 -0.62562812285E+01 -0.79062411842E+01  0.40057400573E+01  0.17154339293E+03  0.17120000000E+03 0.  0.
        998    1    1    2    0    0  0.19652773647E+01 -0.29628790818E+01  0.14789665092E+04  0.14790045897E+04  0.10000000000E+02 0. -1.
</event>
<event>
 5    1  0.1279376E-008  0.3838654E+03  0.7957747E-01  0.3434499E+00
         13   -1    0    0    0    0  0.00000000000E+00  0.00000000000E+00  0.14999999963E+04  0.15000000000E+04  0.10566000000E+00 0. -1.
        994   -1    0    0    0    0 -0.00000000000E+00 -0.00000000000E+00  0.11368683772E-12  0.17120000000E+03  0.17120000000E+03 0.  0.
         13    1    1    2    0    0 -0.78939539703E+01 -0.11612485602E+03  0.45812583409E+03  0.47268021719E+03  0.10566000000E+00 0. -1.
        994    1    1    2    0    0  0.69920077985E+02  0.34891353491E+02  0.41273907375E+02  0.19266343525E+03  0.17120000000E+03 0.  0.
        998    1    1    2    0    0 -0.62026124015E+02  0.81233502528E+02  0.10006002548E+04  0.10058563476E+04  0.10000000000E+02 0. -1.
</event>
<event>
 5    1  0.1279376E-008  0.3828871E+03  0.7957747E-01  0.3438683E+00
         13   -1    0    0    0    0  0.00000000000E+00  0.00000000000E+00  0.14999999963E+04  0.15000000000E+04  0.10566000000E+00 0.  1.
        994   -1    0    0    0    0 -0.00000000000E+00 -0.00000000000E+00  0.11368683772E-12  0.17120000000E+03  0.17120000000E+03 0.  0.
         13    1    1    2    0    0  0.89380511638E+01  0.10392387009E+02  0.34777708811E+02  0.37381688840E+02  0.10566000000E+00 0.  1.
        994    1    1    2    0    0 -0.28706650843E+01 -0.32566409151E+01  0.27451921870E+01  0.17127703439E+03  0.17120000000E+03 0.  0.
        998    1    1    2    0    0 -0.60673860795E+01 -0.71357460936E+01  0.14624770953E+04  0.14625412768E+04  0.10000000000E+02 0.  1.
</event>
<event>
 5    1  0.1279376E-008  0.3698879E+03  0.7957747E-01  0.3496406E+00
         13   -1    0    0    0    0  0.00000000000E+00  0.00000000000E+00  0.14999999963E+04  0.15000000000E+04  0.10566000000E+00 0. -1.
        994   -1    0    0    0    0 -0.00000000000E+00 -0.00000000000E+00  0.11368683772E-12  0.17120000000E+03  0.17120000000E+03 0.  0.
         13    1    1    2    0    0 -0.48674403462E+02 -0.53468488765E+02  0.22812892726E+03  0.23931338337E+03  0.10566000000E+00 0. -1.
        994    1    1    2    0    0  0.33436944039E+02  0.36888267192E+02  0.19592602082E+02  0.17936578141E+03  0.17120000000E+03 0.  0.
        998    1    1    2    0    0  0.15237459423E+02  0.16580221573E+02  0.12522784669E+04  0.12525208352E+04  0.10000000000E+02 0. -1.
</event>
<event>
 5    1  0.1279376E-008  0.3838172E+03  0.7957747E-01  0.3434704E+00
         13   -1    0    0    0    0  0.00000000000E+00  0.00000000000E+00  0.14999999963E+04  0.15000000000E+04  0.10566000000E+00 0.  1.
        994   -1    0    0    0    0 -0.00000000000E+00 -0.00000000000E+00  0.11368683772E-12  0.17120000000E+03  0.17120000000E+03 0.  0.
         13    1    1    2    0    0 -0.26247187095E+02 -0.10311844333E+02  0.15676078690E+03  0.15927713093E+03  0.10566000000E+00 0.  1.
        994    1    1    2    0    0  0.23509934792E+02  0.30822816200E+02  0.71954626815E+01  0.17568146663E+03  0.17120000000E+03 0.  0.
        998    1    1    2    0    0  0.27372523029E+01 -0.20510971867E+02  0.13360437467E+04  0.13362414024E+04  0.10000000000E+02 0.  1.
</event>
<event>
 5    1  0.1279376E-008  0.3856396E+03  0.7957747E-01  0.3426964E+00
         13   -1    0    0    0    0  0.00000000000E+00  0.00000000000E+00  0.14999999963E+04  0.15000000000E+04  0.10566000000E+00 0.  1.
        994   -1    0    0    0    0 -0.00000000000E+00 -0.00000000000E+00  0.11368683772E-12  0.17120000000E+03  0.17120000000E+03 0.  0.
         13    1    1    2    0    0  0.88380478230E+01  0.11048609841E+02  0.79982292241E+02  0.81224141146E+02  0.10566000000E+00 0.  1.
        994    1    1    2    0    0 -0.82541952360E+01  0.13532263508E+01  0.15425772018E+01  0.17141115047E+03  0.17120000000E+03 0.  0.
        998    1    1    2    0    0 -0.58385258707E+00 -0.12401836191E+02  0.14184751268E+04  0.14185647084E+04  0.10000000000E+02 0.  1.
</event>
<event>
 5    1  0.1279376E-008  0.3798432E+03  0.7957747E-01  0.3451842E+00
         13   -1    0    0    0    0  0.00000000000E+00  0.00000000000E+00  0.14999999963E+04  0.15000000000E+04  0.10566000000E+00 0.  1.
        994   -1    0    0    0    0 -0.00000000000E+00 -0.00000000000E+00  0.11368683772E-12  0.17120000000E+03  0.17120000000E+03 0.  0.
         13    1    1    2    0    0 -0.50161103380E+01 -0.25853827474E+02  0.83316414536E+02  0.87379733652E+02  0.10566000000E+00 0.  1.
        994    1    1    2    0    0 -0.32307490168E+02  0.17153914274E+02  0.87005550921E+01  0.17528026231E+03  0.17120000000E+03 0.  0.
        998    1    1    2    0    0  0.37323600506E+02  0.86999131993E+01  0.14079830267E+04  0.14085400040E+04  0.10000000000E+02 0.  1.
</event>
<event>
 5    1  0.1279376E-008  0.3829827E+03  0.7957747E-01  0.3438273E+00
         13   -1    0    0    0    0  0.00000000000E+00  0.00000000000E+00  0.14999999963E+04  0.15000000000E+04  0.10566000000E+00 0.  1.
        994   -1    0    0    0    0 -0.00000000000E+00 -0.00000000000E+00  0.11368683772E-12  0.17120000000E+03  0.17120000000E+03 0.  0.
         13    1    1    2    0    0 -0.28295345160E+02 -0.57624248682E+01  0.14392275234E+03  0.14679101439E+03  0.10566000000E+00 0.  1.
        994    1    1    2    0    0  0.33777085658E+02 -0.15585634561E+02  0.72293529504E+01  0.17534396786E+03  0.17120000000E+03 0.  0.
        998    1    1    2    0    0 -0.54817404974E+01  0.21348059429E+02  0.13488478910E+04  0.13490650178E+04  0.10000000000E+02 0.  1.
</event>
<event>
 5    1  0.1279376E-008  0.3801998E+03  0.7957747E-01  0.3450289E+00
         13   -1    0    0    0    0  0.00000000000E+00  0.00000000000E+00  0.14999999963E+04  0.15000000000E+04  0.10566000000E+00 0.  1.
        994   -1    0    0    0    0 -0.00000000000E+00 -0.00000000000E+00  0.11368683772E-12  0.17120000000E+03  0.17120000000E+03 0.  0.
         13    1    1    2    0    0  0.14562933538E+00 -0.18732637329E+02  0.44472647408E+02  0.48257232004E+02  0.10566000000E+00 0.  1.
        994    1    1    2    0    0 -0.53830719307E+01 -0.35141119692E+01  0.41703723809E+01  0.17137140500E+03  0.17120000000E+03 0.  0.
        998    1    1    2    0    0  0.52374425953E+01  0.22246749299E+02  0.14513569765E+04  0.14515713630E+04  0.10000000000E+02 0.  1.
</event>
<event>
 5    1  0.1279376E-008  0.3843795E+03  0.7957747E-01  0.3432308E+00
         13   -1    0    0    0    0  0.00000000000E+00  0.00000000000E+00  0.14999999963E+04  0.15000000000E+04  0.10566000000E+00 0.  1.
        994   -1    0    0    0    0 -0.00000000000E+00 -0.00000000000E+00  0.11368683772E-12  0.17120000000E+03  0.17120000000E+03 0.  0.
         13    1    1    2    0    0  0.51790323589E+01 -0.10028260206E+02  0.32567915187E+02  0.34468371627E+02  0.10566000000E+00 0.  1.
        994    1    1    2    0    0  0.81291023672E+00  0.78344966991E+01  0.21429620188E+01  0.17139449363E+03  0.17120000000E+03 0.  0.
        998    1    1    2    0    0 -0.59919425956E+01  0.21937635074E+01  0.14652891191E+04  0.14653371347E+04  0.10000000000E+02 0.  1.
</event>
<event>
 5    1  0.1279376E-008  0.4104011E+03  0.7957747E-01  0.3328605E+00
         13   -1    0    0    0    0  0.00000000000E+00  0.00000000000E+00  0.14999999963E+04  0.15000000000E+04  0.10566000000E+00 0. -1.
        994   -1    0    0    0    0 -0.00000000000E+00 -0.00000000000E+00  0.11368683772E-12  0.17120000000E+03  0.17120000000E+03 0.  0.
         13    1    1    2    0    0  0.72650954996E+02 -0.36645175976E+02  0.82265550143E+02  0.11570938635E+03  0.10566000000E+00 0. -1.
        994    1    1    2    0    0 -0.73551180526E+02  0.30737563736E+02  0.60640076870E+02  0.19834624500E+03  0.17120000000E+03 0.  0.
        998    1    1    2    0    0  0.90022553057E+00  0.59076122402E+01  0.13570943693E+04  0.13571443687E+04  0.10000000000E+02 0. -1.
</event>
<event>
 5    1  0.1279376E-008  0.3792113E+03  0.7957747E-01  0.3454600E+00
         13   -1    0    0    0    0  0.00000000000E+00  0.00000000000E+00  0.14999999963E+04  0.15000000000E+04  0.10566000000E+00 0.  1.
        994   -1    0    0    0    0 -0.00000000000E+00 -0.00000000000E+00  0.11368683772E-12  0.17120000000E+03  0.17120000000E+03 0.  0.
         13    1    1    2    0    0 -0.23859632998E+02 -0.18186586807E+02  0.10447817347E+03  0.10870020204E+03  0.10566000000E+00 0.  1.
        994    1    1    2    0    0  0.49069029598E+01  0.19817071277E+01  0.46256956879E+01  0.17134422056E+03  0.17120000000E+03 0.  0.
        998    1    1    2    0    0  0.18952730038E+02  0.16204879679E+02  0.13908961271E+04  0.13911555774E+04  0.10000000000E+02 0.  1.
</event>
<event>
 5    1  0.1279376E-008  0.3862051E+03  0.7957747E-01  0.3424577E+00
         13   -1    0    0    0    0  0.00000000000E+00  0.00000000000E+00  0.14999999963E+04  0.15000000000E+04  0.10566000000E+00 0. -1.
        994   -1    0    0    0    0 -0.00000000000E+00 -0.00000000000E+00  0.11368683772E-12  0.17120000000E+03  0.17120000000E+03 0.  0.
         13    1    1    2    0    0  0.65761937753E+01 -0.10146404363E+02  0.67437007153E+02  0.68512458311E+02  0.10566000000E+00 0. -1.
        994    1    1    2    0    0 -0.16675986263E+01  0.18115375527E+02  0.21178854214E+01  0.17217686591E+03  0.17120000000E+03 0.  0.
        998    1    1    2    0    0 -0.49085951490E+01 -0.79689711643E+01  0.14304451037E+04  0.14305106758E+04  0.10000000000E+02 0. -1.
</event>
<event>
 5    1  0.1279376E-008  0.3784131E+03  0.7957747E-01  0.3458098E+00
         13   -1    0    0    0    0  0.00000000000E+00  0.00000000000E+00  0.14999999963E+04  0.15000000000E+04  0.10566000000E+00 0.  1.
        994   -1    0    0    0    0 -0.00000000000E+00 -0.00000000000E+00  0.11368683772E-12  0.17120000000E+03  0.17120000000E+03 0.  0.
         13    1    1    2    0    0 -0.17716586484E+02  0.18036137190E+02  0.57729521824E+02  0.63022920715E+02  0.10566000000E+00 0.  1.
        994    1    1    2    0    0  0.38862989902E+02 -0.16824312709E+02  0.10986884501E+02  0.17670184242E+03  0.17120000000E+03 0.  0.
        998    1    1    2    0    0 -0.21146403418E+02 -0.12118244814E+01  0.14312835900E+04  0.14314752369E+04  0.10000000000E+02 0.  1.
</event>
<event>
 5    1  0.1279376E-008  0.3840431E+03  0.7957747E-01  0.3433741E+00
         13   -1    0    0    0    0  0.00000000000E+00  0.00000000000E+00  0.14999999963E+04  0.15000000000E+04  0.10566000000E+00 0.  1.
        994   -1    0    0    0    0 -0.00000000000E+00 -0.00000000000E+00  0.11368683772E-12  0.17120000000E+03  0.17120000000E+03 0.  0.
         13    1    1    2    0    0 -0.83098551816E+01 -0.67921659953E+01  0.30057569026E+02  0.31916388139E+02  0.10566000000E+00 0.  1.
        994    1    1    2    0    0  0.23566473378E+01 -0.36729522991E+02  0.65875234893E+01  0.17523540485E+03  0.17120000000E+03 0.  0.
        998    1    1    2    0    0  0.59532078438E+01  0.43521688986E+02  0.14633549038E+04  0.14640482070E+04  0.10000000000E+02 0.  1.
</event>
<event>
 5    1  0.1279376E-008  0.3783850E+03  0.7957747E-01  0.3458221E+00
         13   -1    0    0    0    0  0.00000000000E+00  0.00000000000E+00  0.14999999963E+04  0.15000000000E+04  0.10566000000E+00 0.  1.
        994   -1    0    0    0    0 -0.00000000000E+00 -0.00000000000E+00  0.11368683772E-12  0.17120000000E+03  0.17120000000E+03 0.  0.
         13    1    1    2    0    0 -0.42701768928E+02 -0.24558684973E+02  0.22881641544E+03  0.23405882426E+03  0.10566000000E+00 0.  1.
        994    1    1    2    0    0  0.24864571574E+02  0.30999379508E+02  0.10276514503E+02  0.17605185372E+03  0.17120000000E+03 0.  0.
        998    1    1    2    0    0  0.17837197354E+02 -0.64406945352E+01  0.12609070663E+04  0.12610893220E+04  0.10000000000E+02 0.  1.
</event>
<event>
 5    1  0.1279376E-008  0.3840311E+03  0.7957747E-01  0.3433792E+00
         13   -1    0    0    0    0  0.00000000000E+00  0.00000000000E+00  0.14999999963E+04  0.15000000000E+04  0.10566000000E+00 0.  1.
        994   -1    0    0    0    0 -0.00000000000E+00 -0.00000000000E+00  0.11368683772E-12  0.17120000000E+03  0.17120000000E+03 0.  0.
         13    1    1    2    0    0  0.26519171032E+01 -0.13556861110E+02  0.46130371979E+02  0.48154371873E+02  0.10566000000E+00 0.  1.
        994    1    1    2    0    0 -0.43631746107E+01  0.18657320827E+01  0.21862289243E+01  0.17127970646E+03  0.17120000000E+03 0.  0.
        998    1    1    2    0    0  0.17112575074E+01  0.11691129027E+02  0.14516833954E+04  0.14517659217E+04  0.10000000000E+02 0.  1.
</event>
<event>
 5    1  0.1279376E-008  0.3815463E+03  0.7957747E-01  0.3444453E+00
         13   -1    0    0    0    0  0.00000000000E+00  0.00000000000E+00  0.14999999963E+04  0.15000000000E+04  0.10566000000E+00 0. -1.
        994   -1    0    0    0    0 -0.00000000000E+00 -0.00000000000E+00  0.11368683772E-12  0.17120000000E+03  0.17120000000E+03 0.  0.
         13    1    1    2    0    0 -0.20893499590E+01  0.15351095513E+02  0.37076044889E+02  0.40182904143E+02  0.10566000000E+00 0. -1.
        994    1    1    2    0    0 -0.32643983373E+02  0.46770993628E+01  0.69800010633E+01  0.17448686290E+03  0.17120000000E+03 0.  0.
        998    1    1    2    0    0  0.34733333332E+02 -0.20028194876E+02  0.14559439503E+04  0.14565302330E+04  0.10000000000E+02 0. -1.
</event>
<event>
 5    1  0.1279376E-008  0.3858827E+03  0.7957747E-01  0.3425937E+00
         13   -1    0    0    0    0  0.00000000000E+00  0.00000000000E+00  0.14999999963E+04  0.15000000000E+04  0.10566000000E+00 0.  1.
        994   -1    0    0    0    0 -0.00000000000E+00 -0.00000000000E+00  0.11368683772E-12  0.17120000000E+03  0.17120000000E+03 0.  0.
         13    1    1    2    0    0 -0.11156091605E+02  0.24224492289E+01  0.56097730360E+02  0.57247647600E+02  0.10566000000E+00 0.  1.
        994    1    1    2    0    0  0.53187369333E+01 -0.30794157715E+00  0.12856330395E+01  0.17128770138E+03  0.17120000000E+03 0.  0.
        998    1    1    2    0    0  0.58373546720E+01 -0.21145076518E+01  0.14426166329E+04  0.14426646510E+04  0.10000000000E+02 0.  1.
</event>
<event>
 5    1  0.1279376E-008  0.3980903E+03  0.7957747E-01  0.3375984E+00
         13   -1    0    0    0    0  0.00000000000E+00  0.00000000000E+00  0.14999999963E+04  0.15000000000E+04  0.10566000000E+00 0.  1.
        994   -1    0    0    0    0 -0.00000000000E+00 -0.00000000000E+00  0.11368683772E-12  0.17120000000E+03  0.17120000000E+03 0.  0.
         13    1    1    2    0    0 -0.76604125232E+02 -0.42930112275E+02  0.20815781987E+03  0.22592227796E+03  0.10566000000E+00 0.  1.
        994    1    1    2    0    0 -0.47439668707E+02 -0.24482535284E+02  0.37795828788E+02  0.18326996856E+03  0.17120000000E+03 0.  0.
        998    1    1    2    0    0  0.12404379394E+03  0.67412647558E+02  0.12540463476E+04  0.12620077535E+04  0.10000000000E+02 0.  1.
</event>
<event>
 5    1  0.1279376E-008  0.3831140E+03  0.7957747E-01  0.3437710E+00
         13   -1    0    0    0    0  0.00000000000E+00  0.00000000000E+00  0.14999999963E+04  0.15000000000E+04  0.10566000000E+00 0.  1.
        994   -1    0    0    0    0 -0.00000000000E+00 -0.00000000000E+00  0.11368683772E-12  0.17120000000E+03  0.17120000000E+03 0.  0.
         13    1    1    2    0    0  0.92605583251E+01  0.11218677150E+02  0.41388428279E+02  0.43870603107E+02  0.10566000000E+00 0.  1.
        994    1    1    2    0    0 -0.25443082284E+00 -0.48744994945E+01  0.26482294745E+01  0.17129004233E+03  0.17120000000E+03 0.  0.
        998    1    1    2    0    0 -0.90061275022E+01 -0.63441776557E+01  0.14559633385E+04  0.14560393546E+04  0.10000000000E+02 0.  1.
</event>
<event>
 5    1  0.1279376E-008  0.3802325E+03  0.7957747E-01  0.3450147E+00
         13   -1    0    0    0    0  0.00000000000E+00  0.00000000000E+00  0.14999999963E+04  0.15000000000E+04  0.10566000000E+00 0. -1.
        994   -1    0    0    0    0 -0.00000000000E+00 -0.00000000000E+00  0.11368683772E-12  0.17120000000E+03  0.17120000000E+03 0.  0.
         13    1    1    2    0    0  0.16809191461E+02 -0.15908072904E+02  0.66681153076E+02  0.70583305680E+02  0.10566000000E+00 0. -1.
        994    1    1    2    0    0 -0.83384552440E+01  0.52511409420E+01  0.43402621956E+01  0.17153828200E+03  0.17120000000E+03 0.  0.
        998    1    1    2    0    0 -0.84707362170E+01  0.10656931962E+02  0.14289785810E+04  0.14290784123E+04  0.10000000000E+02 0. -1.
</event>
<event>
 5    1  0.1279376E-008  0.3847388E+03  0.7957747E-01  0.3430781E+00
         13   -1    0    0    0    0  0.00000000000E+00  0.00000000000E+00  0.14999999963E+04  0.15000000000E+04  0.10566000000E+00 0.  1.
        994   -1    0    0    0    0 -0.00000000000E+00 -0.00000000000E+00  0.11368683772E-12  0.17120000000E+03  0.17120000000E+03 0.  0.
         13    1    1    2    0    0  0.11466872319E+02  0.18632346431E+01  0.38817758089E+02  0.40519011726E+02  0.10566000000E+00 0.  1.
        994    1    1    2    0    0 -0.32440654825E+01 -0.43789714544E+01  0.18576356560E+01  0.17129678970E+03  0.17120000000E+03 0.  0.
        998    1    1    2    0    0 -0.82228068369E+01  0.25157368112E+01  0.14593246025E+04  0.14593841986E+04  0.10000000000E+02 0.  1.
</event>
<event>
 5    1  0.1279376E-008  0.3730311E+03  0.7957747E-01  0.3482075E+00
         13   -1    0    0    0    0  0.00000000000E+00  0.00000000000E+00  0.14999999963E+04  0.15000000000E+04  0.10566000000E+00 0. -1.
        994   -1    0    0    0    0 -0.00000000000E+00 -0.00000000000E+00  0.11368683772E-12  0.17120000000E+03  0.17120000000E+03 0.  0.
         13    1    1    2    0    0 -0.11952928224E+02  0.12513338054E+02  0.61968626321E+01  0.18381196721E+02  0.10566000000E+00 0. -1.
        994    1    1    2    0    0  0.11473298915E+02 -0.14982396754E+02  0.13809898068E+02  0.17278964693E+03  0.17120000000E+03 0.  0.
        998    1    1    2    0    0  0.47962930905E+00  0.24690586996E+01  0.14799932356E+04  0.14800291564E+04  0.10000000000E+02 0. -1.
</event>
<event>
 5    1  0.1279376E-008  0.3758722E+03  0.7957747E-01  0.3469331E+00
         13   -1    0    0    0    0  0.00000000000E+00  0.00000000000E+00  0.14999999963E+04  0.15000000000E+04  0.10566000000E+00 0. -1.
        994   -1    0    0    0    0 -0.00000000000E+00 -0.00000000000E+00  0.11368683772E-12  0.17120000000E+03  0.17120000000E+03 0.  0.
         13    1    1    2    0    0  0.26586710928E+02  0.33746932935E+02  0.17452262514E+03  0.17973276421E+03  0.10566000000E+00 0. -1.
        994    1    1    2    0    0  0.11002352730E+02 -0.21534660539E+01  0.66576275847E+01  0.17169581587E+03  0.17120000000E+03 0.  0.
        998    1    1    2    0    0 -0.37589063658E+02 -0.31593466881E+02  0.13188197436E+04  0.13197714199E+04  0.10000000000E+02 0. -1.
</event>
<event>
 5    1  0.1279376E-008  0.3841183E+03  0.7957747E-01  0.3433420E+00
         13   -1    0    0    0    0  0.00000000000E+00  0.00000000000E+00  0.14999999963E+04  0.15000000000E+04  0.10566000000E+00 0.  1.
        994   -1    0    0    0    0 -0.00000000000E+00 -0.00000000000E+00  0.11368683772E-12  0.17120000000E+03  0.17120000000E+03 0.  0.
         13    1    1    2    0    0 -0.10573171200E+02 -0.10872458256E+02  0.53409480283E+02  0.55521041470E+02  0.10566000000E+00 0.  1.
        994    1    1    2    0    0  0.15646011732E+02  0.76651292102E+01  0.30703170579E+01  0.17211164614E+03  0.17120000000E+03 0.  0.
        998    1    1    2    0    0 -0.50728405324E+01  0.32073290461E+01  0.14435201989E+04  0.14435673124E+04  0.10000000000E+02 0.  1.
</event>
<event>
 5    1  0.1279376E-008  0.3766308E+03  0.7957747E-01  0.3465961E+00
         13   -1    0    0    0    0  0.00000000000E+00  0.00000000000E+00  0.14999999963E+04  0.15000000000E+04  0.10566000000E+00 0.  1.
        994   -1    0    0    0    0 -0.00000000000E+00 -0.00000000000E+00  0.11368683772E-12  0.17120000000E+03  0.17120000000E+03 0.  0.
         13    1    1    2    0    0 -0.40719635059E+02 -0.26590709973E+02  0.16542152304E+03  0.17242228970E+03  0.10566000000E+00 0.  1.
        994    1    1    2    0    0  0.66962531575E+02  0.12956131852E+02  0.21735070290E+02  0.18556318403E+03  0.17120000000E+03 0.  0.
        998    1    1    2    0    0 -0.26242896516E+02  0.13634578122E+02  0.13128434029E+04  0.13132145263E+04  0.10000000000E+02 0.  1.
</event>
<event>
 5    1  0.1279376E-008  0.3831441E+03  0.7957747E-01  0.3437582E+00
         13   -1    0    0    0    0  0.00000000000E+00  0.00000000000E+00  0.14999999963E+04  0.15000000000E+04  0.10566000000E+00 0.  1.
        994   -1    0    0    0    0 -0.00000000000E+00 -0.00000000000E+00  0.11368683772E-12  0.17120000000E+03  0.17120000000E+03 0.  0.
         13    1    1    2    0    0 -0.89836985430E+01 -0.77698994809E+01  0.28735001613E+02  0.31093241375E+02  0.10566000000E+00 0.  1.
        994    1    1    2    0    0 -0.75889656781E+01 -0.91392534448E+01  0.30214176703E+01  0.17163824550E+03  0.17120000000E+03 0.  0.
        998    1    1    2    0    0  0.16572664221E+02  0.16909152926E+02  0.14682435770E+04  0.14684685131E+04  0.10000000000E+02 0.  1.
</event>
<event>
 5    1  0.1279376E-008  0.3774051E+03  0.7957747E-01  0.3462535E+00
         13   -1    0    0    0    0  0.00000000000E+00  0.00000000000E+00  0.14999999963E+04  0.15000000000E+04  0.10566000000E+00 0.  1.
        994   -1    0    0    0    0 -0.00000000000E+00 -0.00000000000E+00  0.11368683772E-12  0.17120000000E+03  0.17120000000E+03 0.  0.
         13    1    1    2    0    0 -0.94389554104E+02  0.53180097883E+01  0.49462702410E+03  0.50358075151E+03  0.10566000000E+00 0.  1.
        994    1    1    2    0    0  0.10154196857E+03 -0.94619784147E+01  0.41361287147E+02  0.20352026064E+03  0.17120000000E+03 0.  0.
        998    1    1    2    0    0 -0.71524144621E+01  0.41439686263E+01  0.96401168503E+03  0.96409898785E+03  0.10000000000E+02 0.  0.
</event>
<event>
 5    1  0.1279376E-008  0.3833889E+03  0.7957747E-01  0.3436534E+00
         13   -1    0    0    0    0  0.00000000000E+00  0.00000000000E+00  0.14999999963E+04  0.15000000000E+04  0.10566000000E+00 0.  1.
        994   -1    0    0    0    0 -0.00000000000E+00 -0.00000000000E+00  0.11368683772E-12  0.17120000000E+03  0.17120000000E+03 0.  0.
         13    1    1    2    0    0 -0.78161280751E+01 -0.11713574301E+02  0.39353250757E+02  0.41796999774E+02  0.10566000000E+00 0.  1.
        994    1    1    2    0    0  0.59217292190E+01  0.12474684462E+02  0.30627871012E+01  0.17178330913E+03  0.17120000000E+03 0.  0.
        998    1    1    2    0    0  0.18943988561E+01 -0.76111016098E+00  0.14575839584E+04  0.14576196911E+04  0.10000000000E+02 0.  1.
</event>
<event>
 5    1  0.1279376E-008  0.3700111E+03  0.7957747E-01  0.3495840E+00
         13   -1    0    0    0    0  0.00000000000E+00  0.00000000000E+00  0.14999999963E+04  0.15000000000E+04  0.10566000000E+00 0.  1.
        994   -1    0    0    0    0 -0.00000000000E+00 -0.00000000000E+00  0.11368683772E-12  0.17120000000E+03  0.17120000000E+03 0.  0.
         13    1    1    2    0    0 -0.10346053129E+02 -0.13156800705E+02  0.10354264173E+02  0.19681569316E+02  0.10566000000E+00 0.  1.
        994    1    1    2    0    0  0.15179075063E+02  0.35070160419E+02  0.14329246147E+02  0.17599740841E+03  0.17120000000E+03 0.  0.
        998    1    1    2    0    0 -0.48330219339E+01 -0.21913359714E+02  0.14753164860E+04  0.14755210223E+04  0.10000000000E+02 0.  1.
</event>
<event>
 5    1  0.1279376E-008  0.3842012E+03  0.7957747E-01  0.3433067E+00
         13   -1    0    0    0    0  0.00000000000E+00  0.00000000000E+00  0.14999999963E+04  0.15000000000E+04  0.10566000000E+00 0. -1.
        994   -1    0    0    0    0 -0.00000000000E+00 -0.00000000000E+00  0.11368683772E-12  0.17120000000E+03  0.17120000000E+03 0.  0.
         13    1    1    2    0    0 -0.18458019710E+02 -0.13501574267E+02  0.12299450687E+03  0.12510256146E+03  0.10566000000E+00 0. -1.
        994    1    1    2    0    0  0.17555602260E+02  0.95694778059E+01  0.33464666766E+01  0.17239609310E+03  0.17120000000E+03 0.  0.
        998    1    1    2    0    0  0.90241745051E+00  0.39320964613E+01  0.13736590227E+04  0.13737013454E+04  0.10000000000E+02 0. -1.
</event>
<event>
 5    1  0.1279376E-008  0.3810804E+03  0.7957747E-01  0.3446468E+00
         13   -1    0    0    0    0  0.00000000000E+00  0.00000000000E+00  0.14999999963E+04  0.15000000000E+04  0.10566000000E+00 0. -1.
        994   -1    0    0    0    0 -0.00000000000E+00 -0.00000000000E+00  0.11368683772E-12  0.17120000000E+03  0.17120000000E+03 0.  0.
         13    1    1    2    0    0  0.16310836573E+02 -0.18431705186E+02  0.79787713315E+02  0.83497673655E+02  0.10566000000E+00 0. -1.
        994    1    1    2    0    0 -0.19229772409E+02  0.14850415048E+02  0.55576017215E+01  0.17300475690E+03  0.17120000000E+03 0.  0.
        998    1    1    2    0    0  0.29189358357E+01  0.35812901383E+01  0.14146546812E+04  0.14146975694E+04  0.10000000000E+02 0. -1.
</event>
<event>
 5    1  0.1279376E-008  0.3723889E+03  0.7957747E-01  0.3484983E+00
         13   -1    0    0    0    0  0.00000000000E+00  0.00000000000E+00  0.14999999963E+04  0.15000000000E+04  0.10566000000E+00 0.  1.
        994   -1    0    0    0    0 -0.00000000000E+00 -0.00000000000E+00  0.11368683772E-12  0.17120000000E+03  0.17120000000E+03 0.  0.
         13    1    1    2    0    0  0.76655526975E+01 -0.24415692779E+02  0.22462897175E+02  0.34051133102E+02  0.10566000000E+00 0.  1.
        994    1    1    2    0    0 -0.63494913581E+01  0.23233001397E+01  0.12368834723E+02  0.17177934054E+03  0.17120000000E+03 0.  0.
        998    1    1    2    0    0 -0.13160613395E+01  0.22092392639E+02  0.14651682644E+04  0.14653695264E+04  0.10000000000E+02 0.  1.
</event>
<event>
 5    1  0.1279376E-008  0.3854416E+03  0.7957747E-01  0.3427802E+00
         13   -1    0    0    0    0  0.00000000000E+00  0.00000000000E+00  0.14999999963E+04  0.15000000000E+04  0.10566000000E+00 0. -1.
        994   -1    0    0    0    0 -0.00000000000E+00 -0.00000000000E+00  0.11368683772E-12  0.17120000000E+03  0.17120000000E+03 0.  0.
         13    1    1    2    0    0  0.12922742626E+02 -0.36048731384E+01  0.64661849817E+02  0.66039067022E+02  0.10566000000E+00 0. -1.
        994    1    1    2    0    0 -0.79808277737E+01 -0.61657303440E+00  0.16215187921E+01  0.17139469974E+03  0.17120000000E+03 0.  0.
        998    1    1    2    0    0 -0.49419148524E+01  0.42214461728E+01  0.14337166277E+04  0.14337662332E+04  0.10000000000E+02 0. -1.
</event>
<event>
 5    1  0.1279376E-008  0.3837991E+03  0.7957747E-01  0.3434782E+00
         13   -1    0    0    0    0  0.00000000000E+00  0.00000000000E+00  0.14999999963E+04  0.15000000000E+04  0.10566000000E+00 0. -1.
        994   -1    0    0    0    0 -0.00000000000E+00 -0.00000000000E+00  0.11368683772E-12  0.17120000000E+03  0.17120000000E+03 0.  0.
         13    1    1    2    0    0 -0.38220783730E+01  0.18262004304E+02  0.76634731194E+02  0.78873330559E+02  0.10566000000E+00 0. -1.
        994    1    1    2    0    0  0.61932883545E+01 -0.13183552448E+02  0.29283222667E+01  0.17184346932E+03  0.17120000000E+03 0.  0.
        998    1    1    2    0    0 -0.23712099815E+01 -0.50784518558E+01  0.14204369428E+04  0.14204832001E+04  0.10000000000E+02 0. -1.
</event>
<event>
 5    1  0.1279376E-008  0.3921816E+03  0.7957747E-01  0.3399774E+00
         13   -1    0    0    0    0  0.00000000000E+00  0.00000000000E+00  0.14999999963E+04  0.15000000000E+04  0.10566000000E+00 0.  1.
        994   -1    0    0    0    0 -0.00000000000E+00 -0.00000000000E+00  0.11368683772E-12  0.17120000000E+03  0.17120000000E+03 0.  0.
         13    1    1    2    0    0 -0.47456418666E+02 -0.12124686469E+03  0.39420367588E+03  0.41514992847E+03  0.10566000000E+00 0.  1.
        994    1    1    2    0    0  0.50637523180E+02  0.47763397329E+02  0.41814261730E+02  0.18948185497E+03  0.17120000000E+03 0.  0.
        998    1    1    2    0    0 -0.31811045140E+01  0.73483467364E+02  0.10639820587E+04  0.10665682166E+04  0.10000000000E+02 0.  1.
</event>
<event>
 5    1  0.1279376E-008  0.3787966E+03  0.7957747E-01  0.3456415E+00
         13   -1    0    0    0    0  0.00000000000E+00  0.00000000000E+00  0.14999999963E+04  0.15000000000E+04  0.10566000000E+00 0.  1.
        994   -1    0    0    0    0 -0.00000000000E+00 -0.00000000000E+00  0.11368683772E-12  0.17120000000E+03  0.17120000000E+03 0.  0.
         13    1    1    2    0    0  0.10635795656E+02  0.34711635171E+02  0.13101016970E+03  0.13594739238E+03  0.10566000000E+00 0.  1.
        994    1    1    2    0    0 -0.14637305139E+02 -0.27021399655E+02  0.79180212260E+01  0.17411646045E+03  0.17120000000E+03 0.  0.
        998    1    1    2    0    0  0.40015094828E+01 -0.76902355156E+01  0.13610718054E+04  0.13611361472E+04  0.10000000000E+02 0.  1.
</event>
<event>
 5    1  0.1279376E-008  0.3832413E+03  0.7957747E-01  0.3437165E+00
         13   -1    0    0    0    0  0.00000000000E+00  0.00000000000E+00  0.14999999963E+04  0.15000000000E+04  0.10566000000E+00 0. -1.
        994   -1    0    0    0    0 -0.00000000000E+00 -0.00000000000E+00  0.11368683772E-12  0.17120000000E+03  0.17120000000E+03 0.  0.
         13    1    1    2    0    0 -0.26602688537E+02 -0.84881431986E+01  0.14750105785E+03  0.15012103398E+03  0.10566000000E+00 0. -1.
        994    1    1    2    0    0  0.25404742449E+02 -0.34527173707E+01  0.46829276240E+01  0.17317243432E+03  0.17120000000E+03 0.  0.
        998    1    1    2    0    0  0.11979460886E+01  0.11940860569E+02  0.13478160108E+04  0.13479065317E+04  0.10000000000E+02 0. -1.
</event>
<event>
 5    1  0.1279376E-008  0.3797278E+03  0.7957747E-01  0.3452345E+00
         13   -1    0    0    0    0  0.00000000000E+00  0.00000000000E+00  0.14999999963E+04  0.15000000000E+04  0.10566000000E+00 0.  1.
        994   -1    0    0    0    0 -0.00000000000E+00 -0.00000000000E+00  0.11368683772E-12  0.17120000000E+03  0.17120000000E+03 0.  0.
         13    1    1    2    0    0 -0.13910460413E+03 -0.82118562372E+02  0.48013778852E+03  0.50658252665E+03  0.10566000000E+00 0.  1.
        994    1    1    2    0    0  0.14208167895E+03  0.86454705381E+02  0.12453904481E+03  0.26922301770E+03  0.17120000000E+03 0.  0.
        998    1    1    2    0    0 -0.29770748222E+01 -0.43361430085E+01  0.89532316295E+03  0.89539445565E+03  0.10000000000E+02 0. -1.
</event>
<event>
 5    1  0.1279376E-008  0.3810972E+03  0.7957747E-01  0.3446395E+00
         13   -1    0    0    0    0  0.00000000000E+00  0.00000000000E+00  0.14999999963E+04  0.15000000000E+04  0.10566000000E+00 0. -1.
        994   -1    0    0    0    0 -0.00000000000E+00 -0.00000000000E+00  0.11368683772E-12  0.17120000000E+03  0.17120000000E+03 0.  0.
         13    1    1    2    0    0  0.62026815339E+01 -0.14294337182E+02  0.31968952260E+02  0.35564398017E+02  0.10566000000E+00 0. -1.
        994    1    1    2    0    0 -0.87628488224E+01  0.13577422650E+02  0.44505689862E+01  0.17201854984E+03  0.17120000000E+03 0.  0.
        998    1    1    2    0    0  0.25601672885E+01  0.71691453195E+00  0.14635804750E+04  0.14636170521E+04  0.10000000000E+02 0. -1.
</event>
<event>
 5    1  0.1279376E-008  0.3860836E+03  0.7957747E-01  0.3425089E+00
         13   -1    0    0    0    0  0.00000000000E+00  0.00000000000E+00  0.14999999963E+04  0.15000000000E+04  0.10566000000E+00 0. -1.
        994   -1    0    0    0    0 -0.00000000000E+00 -0.00000000000E+00  0.11368683772E-12  0.17120000000E+03  0.17120000000E+03 0.  0.
         13    1    1    2    0    0 -0.19250523560E+01 -0.11920675295E+02  0.67508796015E+02  0.68580296219E+02  0.10566000000E+00 0. -1.
        994    1    1    2    0    0 -0.21974193160E+01  0.86204559815E+01  0.13524907953E+01  0.17143631513E+03  0.17120000000E+03 0.  0.
        998    1    1    2    0    0  0.41224716720E+01  0.33002193132E+01  0.14311387095E+04  0.14311833887E+04  0.10000000000E+02 0. -1.
</event>
<event>
 5    1  0.1279376E-008  0.3783259E+03  0.7957747E-01  0.3458481E+00
         13   -1    0    0    0    0  0.00000000000E+00  0.00000000000E+00  0.14999999963E+04  0.15000000000E+04  0.10566000000E+00 0.  1.
        994   -1    0    0    0    0 -0.00000000000E+00 -0.00000000000E+00  0.11368683772E-12  0.17120000000E+03  0.17120000000E+03 0.  0.
         13    1    1    2    0    0 -0.15993915417E+00 -0.32850520954E+02  0.10287268088E+03  0.10799065674E+03  0.10566000000E+00 0.  1.
        994    1    1    2    0    0  0.38012225807E+01  0.27280154929E+02  0.75350736341E+01  0.17356518511E+03  0.17120000000E+03 0.  0.
        998    1    1    2    0    0 -0.36412834265E+01  0.55703660259E+01  0.13895922418E+04  0.13896441582E+04  0.10000000000E+02 0.  1.
</event>
<event>
 5    1  0.1279376E-008  0.3846403E+03  0.7957747E-01  0.3431199E+00
         13   -1    0    0    0    0  0.00000000000E+00  0.00000000000E+00  0.14999999963E+04  0.15000000000E+04  0.10566000000E+00 0.  1.
        994   -1    0    0    0    0 -0.00000000000E+00 -0.00000000000E+00  0.11368683772E-12  0.17120000000E+03  0.17120000000E+03 0.  0.
         13    1    1    2    0    0 -0.19819366806E+01  0.16963302566E+02  0.88275310252E+02  0.89912308786E+02  0.10566000000E+00 0.  1.
        994    1    1    2    0    0 -0.71419185207E+01  0.10308811421E+01  0.19802632776E+01  0.17136344756E+03  0.17120000000E+03 0.  0.
        998    1    1    2    0    0  0.91238552013E+01 -0.17994183708E+02  0.14097444227E+04  0.14099242437E+04  0.10000000000E+02 0.  1.
</event>
<event>
 5    1  0.1279376E-008  0.3811703E+03  0.7957747E-01  0.3446079E+00
         13   -1    0    0    0    0  0.00000000000E+00  0.00000000000E+00  0.14999999963E+04  0.15000000000E+04  0.10566000000E+00 0.  1.
        994   -1    0    0    0    0 -0.00000000000E+00 -0.00000000000E+00  0.11368683772E-12  0.17120000000E+03  0.17120000000E+03 0.  0.
         13    1    1    2    0    0 -0.19547127870E+02  0.22639994942E+02  0.10905903982E+03  0.11308644883E+03  0.10566000000E+00 0.  1.
        994    1    1    2    0    0  0.28160009719E+02 -0.31539915102E+02  0.95198519335E+01  0.17660073605E+03  0.17120000000E+03 0.  0.
        998    1    1    2    0    0 -0.86128818490E+01  0.88999201602E+01  0.13814211045E+04  0.13815128151E+04  0.10000000000E+02 0.  1.
</event>
<event>
 5    1  0.1279376E-008  0.3751621E+03  0.7957747E-01  0.3472498E+00
         13   -1    0    0    0    0  0.00000000000E+00  0.00000000000E+00  0.14999999963E+04  0.15000000000E+04  0.10566000000E+00 0. -1.
        994   -1    0    0    0    0 -0.00000000000E+00 -0.00000000000E+00  0.11368683772E-12  0.17120000000E+03  0.17120000000E+03 0.  0.
         13    1    1    2    0    0 -0.41027336002E+02  0.43779214445E+01  0.54495032481E+02  0.68352967929E+02  0.10566000000E+00 0. -1.
        994    1    1    2    0    0  0.45676126067E+02  0.17861252243E+01  0.21171745666E+02  0.17845778647E+03  0.17120000000E+03 0.  0.
        998    1    1    2    0    0 -0.46487900642E+01 -0.61640466687E+01  0.14243332181E+04  0.14243892456E+04  0.10000000000E+02 0. -1.
</event>
<event>
 5    1  0.1279376E-008  0.3844481E+03  0.7957747E-01  0.3432016E+00
         13   -1    0    0    0    0  0.00000000000E+00  0.00000000000E+00  0.14999999963E+04  0.15000000000E+04  0.10566000000E+00 0. -1.
        994   -1    0    0    0    0 -0.00000000000E+00 -0.00000000000E+00  0.11368683772E-12  0.17120000000E+03  0.17120000000E+03 0.  0.
         13    1    1    2    0    0 -0.16714873339E+02  0.95328218159E+01  0.95298379798E+02  0.97221674737E+02  0.10566000000E+00 0. -1.
        994    1    1    2    0    0  0.10994128296E+02 -0.10359135772E+02  0.26565259814E+01  0.17188565874E+03  0.17120000000E+03 0.  0.
        998    1    1    2    0    0  0.57207450429E+01  0.82631395656E+00  0.14020450905E+04  0.14020926665E+04  0.10000000000E+02 0. -1.
</event>
<event>
 5    1  0.1279376E-008  0.3832991E+03  0.7957747E-01  0.3436918E+00
         13   -1    0    0    0    0  0.00000000000E+00  0.00000000000E+00  0.14999999963E+04  0.15000000000E+04  0.10566000000E+00 0.  1.
        994   -1    0    0    0    0 -0.00000000000E+00 -0.00000000000E+00  0.11368683772E-12  0.17120000000E+03  0.17120000000E+03 0.  0.
         13    1    1    2    0    0 -0.23487156892E+02  0.20995143079E+02  0.17821090363E+03  0.18097397577E+03  0.10566000000E+00 0.  1.
        994    1    1    2    0    0  0.19177290061E+02 -0.26302896969E+02  0.59888902240E+01  0.17437005950E+03  0.17120000000E+03 0.  0.
        998    1    1    2    0    0  0.43098668312E+01  0.53077538904E+01  0.13158002024E+04  0.13158559647E+04  0.10000000000E+02 0.  1.
</event>
<event>
 5    1  0.1279376E-008  0.3752306E+03  0.7957747E-01  0.3472192E+00
         13   -1    0    0    0    0  0.00000000000E+00  0.00000000000E+00  0.14999999963E+04  0.15000000000E+04  0.10566000000E+00 0.  1.
        994   -1    0    0    0    0 -0.00000000000E+00 -0.00000000000E+00  0.11368683772E-12  0.17120000000E+03  0.17120000000E+03 0.  0.
         13    1    1    2    0    0 -0.85113579449E+01  0.12270149655E+02  0.13923301933E+02  0.20417377094E+02  0.10566000000E+00 0.  1.
        994    1    1    2    0    0  0.21316500406E+01 -0.18420505972E+02  0.77291556845E+01  0.17237470470E+03  0.17120000000E+03 0.  0.
        998    1    1    2    0    0  0.63797079043E+01  0.61503563165E+01  0.14783475387E+04  0.14784079182E+04  0.10000000000E+02 0.  1.
</event>
<event>
 5    1  0.1279376E-008  0.3826468E+03  0.7957747E-01  0.3439714E+00
         13   -1    0    0    0    0  0.00000000000E+00  0.00000000000E+00  0.14999999963E+04  0.15000000000E+04  0.10566000000E+00 0.  1.
        994   -1    0    0    0    0 -0.00000000000E+00 -0.00000000000E+00  0.11368683772E-12  0.17120000000E+03  0.17120000000E+03 0.  0.
         13    1    1    2    0    0 -0.41004197192E+01  0.17132174688E+02  0.53292033532E+02  0.56128217979E+02  0.10566000000E+00 0.  1.
        994    1    1    2    0    0  0.48058543403E+01 -0.15709342397E+02  0.36978465960E+01  0.17202614262E+03  0.17120000000E+03 0.  0.
        998    1    1    2    0    0 -0.70543462118E+00 -0.14228322911E+01  0.14430101162E+04  0.14430456394E+04  0.10000000000E+02 0.  0.
</event>
<event>
 5    1  0.1279376E-008  0.3854207E+03  0.7957747E-01  0.3427890E+00
         13   -1    0    0    0    0  0.00000000000E+00  0.00000000000E+00  0.14999999963E+04  0.15000000000E+04  0.10566000000E+00 0.  1.
        994   -1    0    0    0    0 -0.00000000000E+00 -0.00000000000E+00  0.11368683772E-12  0.17120000000E+03  0.17120000000E+03 0.  0.
         13    1    1    2    0    0  0.72339489746E+01 -0.15384299042E+02  0.95309170478E+02  0.96813510504E+02  0.10566000000E+00 0.  1.
        994    1    1    2    0    0 -0.78879447717E+00  0.21179403208E+02  0.28980364966E+01  0.17253123756E+03  0.17120000000E+03 0.  0.
        998    1    1    2    0    0 -0.64451544975E+01 -0.57951041652E+01  0.14017927893E+04  0.14018552519E+04  0.10000000000E+02 0.  1.
</event>
<event>
 5    1  0.1279376E-008  0.3826556E+03  0.7957747E-01  0.3439676E+00
         13   -1    0    0    0    0  0.00000000000E+00  0.00000000000E+00  0.14999999963E+04  0.15000000000E+04  0.10566000000E+00 0.  1.
        994   -1    0    0    0    0 -0.00000000000E+00 -0.00000000000E+00  0.11368683772E-12  0.17120000000E+03  0.17120000000E+03 0.  0.
         13    1    1    2    0    0 -0.13585598912E+01 -0.14091359157E+02  0.35038287059E+02  0.37790274039E+02  0.10566000000E+00 0.  1.
        994    1    1    2    0    0 -0.14412973057E+01  0.83556565330E+01  0.30368597776E+01  0.17143674300E+03  0.17120000000E+03 0.  0.
        998    1    1    2    0    0  0.27998571969E+01  0.57357026238E+01  0.14619248494E+04  0.14619729830E+04  0.10000000000E+02 0.  1.
</event>
<event>
 5    1  0.1279376E-008  0.3706786E+03  0.7957747E-01  0.3492778E+00
         13   -1    0    0    0    0  0.00000000000E+00  0.00000000000E+00  0.14999999963E+04  0.15000000000E+04  0.10566000000E+00 0.  1.
        994   -1    0    0    0    0 -0.00000000000E+00 -0.00000000000E+00  0.11368683772E-12  0.17120000000E+03  0.17120000000E+03 0.  0.
         13    1    1    2    0    0 -0.14453082286E+02 -0.44272274243E+02  0.11669198930E+03  0.12564217996E+03  0.10566000000E+00 0.  1.
        994    1    1    2    0    0  0.18400580663E+02  0.28263212437E+02  0.12848460685E+02  0.17496260597E+03  0.17120000000E+03 0.  0.
        998    1    1    2    0    0 -0.39474983773E+01  0.16009061805E+02  0.13704595463E+04  0.13705952141E+04  0.10000000000E+02 0.  1.
</event>
<event>
 5    1  0.1882796E-008  0.3860810E+03  0.7957747E-01  0.3425100E+00
         13   -1    0    0    0    0  0.00000000000E+00  0.00000000000E+00  0.14999999963E+04  0.15000000000E+04  0.10566000000E+00 0. -1.
        994   -1    0    0    0    0 -0.00000000000E+00 -0.00000000000E+00  0.11368683772E-12  0.17120000000E+03  0.17120000000E+03 0.  0.
         13    1    1    2    0    0 -0.90764791111E+00  0.12197985353E+02  0.69752745294E+02  0.70817168198E+02  0.10566000000E+00 0. -1.
        994    1    1    2    0    0  0.58698902083E+01 -0.68295579438E+01  0.13601969516E+01  0.17144208529E+03  0.17120000000E+03 0.  0.
        998    1    1    2    0    0 -0.49622422972E+01 -0.53684274095E+01  0.14288870540E+04  0.14289407465E+04  0.10000000000E+02 0. -1.
</event>
<event>
 5    1  0.1279376E-008  0.3728511E+03  0.7957747E-01  0.3482889E+00
         13   -1    0    0    0    0  0.00000000000E+00  0.00000000000E+00  0.14999999963E+04  0.15000000000E+04  0.10566000000E+00 0. -1.
        994   -1    0    0    0    0 -0.00000000000E+00 -0.00000000000E+00  0.11368683772E-12  0.17120000000E+03  0.17120000000E+03 0.  0.
         13    1    1    2    0    0  0.12180892735E+03  0.12760072848E+03  0.94374780608E+03  0.96009337741E+03  0.10566000000E+00 0. -1.
        994    1    1    2    0    0 -0.12271316969E+03 -0.10233669827E+03  0.10098247342E+03  0.25502592371E+03  0.17120000000E+03 0.  0.
        998    1    1    2    0    0  0.90424233534E+00 -0.25264030215E+02  0.45526971678E+03  0.45608069888E+03  0.10000000000E+02 0. -1.
</event>
<event>
 5    1  0.1279376E-008  0.3840399E+03  0.7957747E-01  0.3433754E+00
         13   -1    0    0    0    0  0.00000000000E+00  0.00000000000E+00  0.14999999963E+04  0.15000000000E+04  0.10566000000E+00 0.  1.
        994   -1    0    0    0    0 -0.00000000000E+00 -0.00000000000E+00  0.11368683772E-12  0.17120000000E+03  0.17120000000E+03 0.  0.
         13    1    1    2    0    0 -0.21712604097E+02  0.68165185148E+01  0.11433463535E+03  0.11657753689E+03  0.10566000000E+00 0.  1.
        994    1    1    2    0    0  0.23074857769E+02 -0.45229736699E+01  0.39336769184E+01  0.17285201811E+03  0.17120000000E+03 0.  0.
        998    1    1    2    0    0 -0.13622536720E+01 -0.22935448450E+01  0.13817316840E+04  0.13817704450E+04  0.10000000000E+02 0.  1.
</event>
<event>
 5    1  0.1279376E-008  0.3744924E+03  0.7957747E-01  0.3475496E+00
         13   -1    0    0    0    0  0.00000000000E+00  0.00000000000E+00  0.14999999963E+04  0.15000000000E+04  0.10566000000E+00 0. -1.
        994   -1    0    0    0    0 -0.00000000000E+00 -0.00000000000E+00  0.11368683772E-12  0.17120000000E+03  0.17120000000E+03 0.  0.
         13    1    1    2    0    0  0.16560312935E+02 -0.50323469697E+01  0.18870717129E+02  0.25606319719E+02  0.10566000000E+00 0. -1.
        994    1    1    2    0    0 -0.41113598461E+01  0.73853073864E+01  0.71829402113E+01  0.17155897142E+03  0.17120000000E+03 0.  0.
        998    1    1    2    0    0 -0.12448953089E+02 -0.23529604167E+01  0.14739463389E+04  0.14740347089E+04  0.10000000000E+02 0. -1.
</event>
<event>
 5    1  0.1279376E-008  0.3846439E+03  0.7957747E-01  0.3431184E+00
         13   -1    0    0    0    0  0.00000000000E+00  0.00000000000E+00  0.14999999963E+04  0.15000000000E+04  0.10566000000E+00 0.  1.
        994   -1    0    0    0    0 -0.00000000000E+00 -0.00000000000E+00  0.11368683772E-12  0.17120000000E+03  0.17120000000E+03 0.  0.
         13    1    1    2    0    0  0.11424872318E+02  0.10646445425E+01  0.35268694542E+02  0.37088450416E+02  0.10566000000E+00 0.  1.
        994    1    1    2    0    0 -0.13269748901E+02  0.19103134591E+01  0.23990162302E+01  0.17174088276E+03  0.17120000000E+03 0.  0.
        998    1    1    2    0    0  0.18448765824E+01 -0.29749580016E+01  0.14623322855E+04  0.14623706668E+04  0.10000000000E+02 0.  1.
</event>
<event>
 5    1  0.1279376E-008  0.3824563E+03  0.7957747E-01  0.3440532E+00
         13   -1    0    0    0    0  0.00000000000E+00  0.00000000000E+00  0.14999999963E+04  0.15000000000E+04  0.10566000000E+00 0.  1.
        994   -1    0    0    0    0 -0.00000000000E+00 -0.00000000000E+00  0.11368683772E-12  0.17120000000E+03  0.17120000000E+03 0.  0.
         13    1    1    2    0    0 -0.89306918762E+01  0.12526067299E+02  0.40580216174E+02  0.43398441540E+02  0.10566000000E+00 0.  1.
        994    1    1    2    0    0  0.73586645718E+01 -0.17538797569E+01  0.30881138277E+01  0.17139487298E+03  0.17120000000E+03 0.  0.
        998    1    1    2    0    0  0.15720273043E+01 -0.10772187542E+02  0.14563316663E+04  0.14564066855E+04  0.10000000000E+02 0.  1.
</event>
<event>
 5    1  0.1279376E-008  0.3844801E+03  0.7957747E-01  0.3431880E+00
         13   -1    0    0    0    0  0.00000000000E+00  0.00000000000E+00  0.14999999963E+04  0.15000000000E+04  0.10566000000E+00 0.  1.
        994   -1    0    0    0    0 -0.00000000000E+00 -0.00000000000E+00  0.11368683772E-12  0.17120000000E+03  0.17120000000E+03 0.  0.
         13    1    1    2    0    0  0.10640020811E+02 -0.53912766763E+00  0.29203278949E+02  0.31086063869E+02  0.10566000000E+00 0.  1.
        994    1    1    2    0    0 -0.10542495536E+02  0.38002306861E+01  0.23022895853E+01  0.17158183617E+03  0.17120000000E+03 0.  0.
        998    1    1    2    0    0 -0.97525274540E-01 -0.32611030185E+01  0.14684944277E+04  0.14685321000E+04  0.10000000000E+02 0.  1.
</event>
<event>
 5    1  0.1279376E-008  0.3834820E+03  0.7957747E-01  0.3436136E+00
         13   -1    0    0    0    0  0.00000000000E+00  0.00000000000E+00  0.14999999963E+04  0.15000000000E+04  0.10566000000E+00 0.  1.
        994   -1    0    0    0    0 -0.00000000000E+00 -0.00000000000E+00  0.11368683772E-12  0.17120000000E+03  0.17120000000E+03 0.  0.
         13    1    1    2    0    0  0.16692174861E+02 -0.54873125339E+01  0.61643386044E+02  0.64098810500E+02  0.10566000000E+00 0.  1.
        994    1    1    2    0    0 -0.17505091086E+02  0.74933699705E+01  0.35848794273E+01  0.17229297771E+03  0.17120000000E+03 0.  0.
        998    1    1    2    0    0  0.81291622454E+00 -0.20060574366E+01  0.14347717308E+04  0.14348082118E+04  0.10000000000E+02 0.  1.
</event>
<event>
 5    1  0.1279376E-008  0.3753811E+03  0.7957747E-01  0.3471520E+00
         13   -1    0    0    0    0  0.00000000000E+00  0.00000000000E+00  0.14999999963E+04  0.15000000000E+04  0.10566000000E+00 0.  1.
        994   -1    0    0    0    0 -0.00000000000E+00 -0.00000000000E+00  0.11368683772E-12  0.17120000000E+03  0.17120000000E+03 0.  0.
         13    1    1    2    0    0 -0.22945728342E+02 -0.12290901362E+02  0.18205181815E+02  0.31764957334E+02  0.10566000000E+00 0.  1.
        994    1    1    2    0    0  0.28646947343E+02  0.11495212872E+02  0.17215398934E+02  0.17481017554E+03  0.17120000000E+03 0.  0.
        998    1    1    2    0    0 -0.57012190007E+01  0.79568849022E+00  0.14645794155E+04  0.14646248671E+04  0.10000000000E+02 0.  1.
</event>
<event>
 5    1  0.1279376E-008  0.3819330E+03  0.7957747E-01  0.3442785E+00
         13   -1    0    0    0    0  0.00000000000E+00  0.00000000000E+00  0.14999999963E+04  0.15000000000E+04  0.10566000000E+00 0. -1.
        994   -1    0    0    0    0 -0.00000000000E+00 -0.00000000000E+00  0.11368683772E-12  0.17120000000E+03  0.17120000000E+03 0.  0.
         13    1    1    2    0    0 -0.15045071633E+02 -0.18509477827E+02  0.12621411959E+03  0.12844831684E+03  0.10566000000E+00 0. -1.
        994    1    1    2    0    0 -0.93491318238E+01 -0.37806167248E+02  0.82150449976E+01  0.17576586561E+03  0.17120000000E+03 0.  0.
        998    1    1    2    0    0  0.24394203457E+02  0.56315645074E+02  0.13655708317E+04  0.13669858176E+04  0.10000000000E+02 0. -1.
</event>
<event>
 5    1  0.1279376E-008  0.3831012E+03  0.7957747E-01  0.3437765E+00
         13   -1    0    0    0    0  0.00000000000E+00  0.00000000000E+00  0.14999999963E+04  0.15000000000E+04  0.10566000000E+00 0.  1.
        994   -1    0    0    0    0 -0.00000000000E+00 -0.00000000000E+00  0.11368683772E-12  0.17120000000E+03  0.17120000000E+03 0.  0.
         13    1    1    2    0    0 -0.18465545227E+01  0.22445966621E+02  0.10135112970E+03  0.10382337808E+03  0.10566000000E+00 0.  1.
        994    1    1    2    0    0  0.22563471663E+02 -0.71079676012E+01  0.44298437922E+01  0.17288347802E+03  0.17120000000E+03 0.  0.
        998    1    1    2    0    0 -0.20716917141E+02 -0.15337999020E+02  0.13942190228E+04  0.13944931439E+04  0.10000000000E+02 0.  1.
</event>
<event>
 5    1  0.1279376E-008  0.4006253E+03  0.7957747E-01  0.3365991E+00
         13   -1    0    0    0    0  0.00000000000E+00  0.00000000000E+00  0.14999999963E+04  0.15000000000E+04  0.10566000000E+00 0. -1.
        994   -1    0    0    0    0 -0.00000000000E+00 -0.00000000000E+00  0.11368683772E-12  0.17120000000E+03  0.17120000000E+03 0.  0.
         13    1    1    2    0    0 -0.15921256129E+02  0.65731317519E+02  0.68172750482E+02  0.96029305797E+02  0.10566000000E+00 0. -1.
        994    1    1    2    0    0  0.20819226085E+02 -0.67724676188E+02  0.48135695844E+02  0.19143290510E+03  0.17120000000E+03 0.  0.
        998    1    1    2    0    0 -0.48979699561E+01  0.19933586693E+01  0.13836915500E+04  0.13837377891E+04  0.10000000000E+02 0. -1.
</event>
<event>
 5    1  0.1279376E-008  0.3840340E+03  0.7957747E-01  0.3433779E+00
         13   -1    0    0    0    0  0.00000000000E+00  0.00000000000E+00  0.14999999963E+04  0.15000000000E+04  0.10566000000E+00 0.  1.
        994   -1    0    0    0    0 -0.00000000000E+00 -0.00000000000E+00  0.11368683772E-12  0.17120000000E+03  0.17120000000E+03 0.  0.
         13    1    1    2    0    0 -0.15192603668E+02 -0.40246440195E+01  0.63198700538E+02  0.65123727468E+02  0.10566000000E+00 0.  1.
        994    1    1    2    0    0 -0.69218252351E+01  0.82038259288E+01  0.24906798462E+01  0.17155424189E+03  0.17120000000E+03 0.  0.
        998    1    1    2    0    0  0.22114428903E+02 -0.41791819093E+01  0.14343106159E+04  0.14345220306E+04  0.10000000000E+02 0.  1.
</event>
<event>
 5    1  0.1279376E-008  0.3848555E+03  0.7957747E-01  0.3430285E+00
         13   -1    0    0    0    0  0.00000000000E+00  0.00000000000E+00  0.14999999963E+04  0.15000000000E+04  0.10566000000E+00 0.  1.
        994   -1    0    0    0    0 -0.00000000000E+00 -0.00000000000E+00  0.11368683772E-12  0.17120000000E+03  0.17120000000E+03 0.  0.
         13    1    1    2    0    0 -0.11789735007E+01  0.20776835937E+02  0.11912447388E+03  0.12092856706E+03  0.10566000000E+00 0.  1.
        994    1    1    2    0    0  0.19735750928E+01 -0.20794316389E+02  0.31386966003E+01  0.17249808697E+03  0.17120000000E+03 0.  0.
        998    1    1    2    0    0 -0.79460159209E+00  0.17480452445E-01  0.13777368258E+04  0.13777733460E+04  0.10000000000E+02 0.  1.
</event>
<event>
 5    1  0.1279376E-008  0.3859315E+03  0.7957747E-01  0.3425731E+00
         13   -1    0    0    0    0  0.00000000000E+00  0.00000000000E+00  0.14999999963E+04  0.15000000000E+04  0.10566000000E+00 0.  1.
        994   -1    0    0    0    0 -0.00000000000E+00 -0.00000000000E+00  0.11368683772E-12  0.17120000000E+03  0.17120000000E+03 0.  0.
         13    1    1    2    0    0  0.72588518635E+01  0.12275509240E+02  0.84705643107E+02  0.85897824161E+02  0.10566000000E+00 0.  1.
        994    1    1    2    0    0 -0.15955392886E+01 -0.15083926500E+02  0.19230693685E+01  0.17188137997E+03  0.17120000000E+03 0.  0.
        998    1    1    2    0    0 -0.56633125749E+01  0.28084172607E+01  0.14133712838E+04  0.14134207959E+04  0.10000000000E+02 0.  1.
</event>
<event>
 5    1  0.1279376E-008  0.3798032E+03  0.7957747E-01  0.3452016E+00
         13   -1    0    0    0    0  0.00000000000E+00  0.00000000000E+00  0.14999999963E+04  0.15000000000E+04  0.10566000000E+00 0.  1.
        994   -1    0    0    0    0 -0.00000000000E+00 -0.00000000000E+00  0.11368683772E-12  0.17120000000E+03  0.17120000000E+03 0.  0.
         13    1    1    2    0    0  0.17785723441E+02  0.27941257900E+02  0.11992816004E+03  0.12441792710E+03  0.10566000000E+00 0.  1.
        994    1    1    2    0    0 -0.17088205928E+02 -0.26782837339E+02  0.76161988956E+01  0.17428933887E+03  0.17120000000E+03 0.  0.
        998    1    1    2    0    0 -0.69751751321E+00 -0.11584205611E+01  0.13724556373E+04  0.13724927340E+04  0.10000000000E+02 0.  1.
</event>
<event>
 5    1  0.1279376E-008  0.3811528E+03  0.7957747E-01  0.3446154E+00
         13   -1    0    0    0    0  0.00000000000E+00  0.00000000000E+00  0.14999999963E+04  0.15000000000E+04  0.10566000000E+00 0. -1.
        994   -1    0    0    0    0 -0.00000000000E+00 -0.00000000000E+00  0.11368683772E-12  0.17120000000E+03  0.17120000000E+03 0.  0.
         13    1    1    2    0    0 -0.14364969552E+02 -0.48485401828E+02  0.27899462861E+03  0.28354047418E+03  0.10566000000E+00 0. -1.
        994    1    1    2    0    0  0.12875196476E+02  0.54820876148E+02  0.14185841024E+02  0.18078102011E+03  0.17120000000E+03 0.  0.
        998    1    1    2    0    0  0.14897730763E+01 -0.63354743210E+01  0.12068195266E+04  0.12068785057E+04  0.10000000000E+02 0. -1.
</event>
<event>
 5    1  0.1279376E-008  0.3690650E+03  0.7957747E-01  0.3500199E+00
         13   -1    0    0    0    0  0.00000000000E+00  0.00000000000E+00  0.14999999963E+04  0.15000000000E+04  0.10566000000E+00 0.  1.
        994   -1    0    0    0    0 -0.00000000000E+00 -0.00000000000E+00  0.11368683772E-12  0.17120000000E+03  0.17120000000E+03 0.  0.
         13    1    1    2    0    0 -0.15728138164E+02 -0.28000635839E+02  0.43524448923E+02  0.54090653126E+02  0.10566000000E+00 0.  1.
        994    1    1    2    0    0  0.17587176609E+02  0.32163544820E+02  0.15142371016E+02  0.17573427041E+03  0.17120000000E+03 0.  0.
        998    1    1    2    0    0 -0.18590384447E+01 -0.41629089813E+01  0.14413331763E+04  0.14413750765E+04  0.10000000000E+02 0.  1.
</event>
<event>
 5    1  0.1279376E-008  0.3851783E+03  0.7957747E-01  0.3428916E+00
         13   -1    0    0    0    0  0.00000000000E+00  0.00000000000E+00  0.14999999963E+04  0.15000000000E+04  0.10566000000E+00 0. -1.
        994   -1    0    0    0    0 -0.00000000000E+00 -0.00000000000E+00  0.11368683772E-12  0.17120000000E+03  0.17120000000E+03 0.  0.
         13    1    1    2    0    0  0.85161652445E+01 -0.52443708473E+01  0.31384782397E+02  0.32940009505E+02  0.10566000000E+00 0. -1.
        994    1    1    2    0    0 -0.12514261010E+02  0.46941325292E+01  0.21290096024E+01  0.17173413840E+03  0.17120000000E+03 0.  0.
        998    1    1    2    0    0  0.39980957655E+01  0.55023831814E+00  0.14664862043E+04  0.14665258521E+04  0.10000000000E+02 0. -1.
</event>
<event>
 5    1  0.1279376E-008  0.3779445E+03  0.7957747E-01  0.3460158E+00
         13   -1    0    0    0    0  0.00000000000E+00  0.00000000000E+00  0.14999999963E+04  0.15000000000E+04  0.10566000000E+00 0.  1.
        994   -1    0    0    0    0 -0.00000000000E+00 -0.00000000000E+00  0.11368683772E-12  0.17120000000E+03  0.17120000000E+03 0.  0.
         13    1    1    2    0    0  0.35849003168E+01  0.94208290987E+01  0.74377236556E+01  0.12527347221E+02  0.10566000000E+00 0.  1.
        994    1    1    2    0    0 -0.49671926190E+01 -0.76579058828E+01  0.54548444535E+01  0.17152991533E+03  0.17120000000E+03 0.  0.
        998    1    1    2    0    0  0.13822923021E+01 -0.17629232159E+01  0.14871074282E+04  0.14871427374E+04  0.10000000000E+02 0.  1.
</event>
<event>
 5    1  0.1279376E-008  0.3732943E+03  0.7957747E-01  0.3480887E+00
         13   -1    0    0    0    0  0.00000000000E+00  0.00000000000E+00  0.14999999963E+04  0.15000000000E+04  0.10566000000E+00 0. -1.
        994   -1    0    0    0    0 -0.00000000000E+00 -0.00000000000E+00  0.11368683772E-12  0.17120000000E+03  0.17120000000E+03 0.  0.
         13    1    1    2    0    0 -0.11707327046E+03 -0.38382049610E+02  0.69240966530E+03  0.70328549548E+03  0.10566000000E+00 0. -1.
        994    1    1    2    0    0  0.95793090872E+02  0.39209307120E+02  0.45121911184E+02  0.20508318530E+03  0.17120000000E+03 0.  0.
        998    1    1    2    0    0  0.21280179586E+02 -0.82725751015E+00  0.76246841980E+03  0.76283131922E+03  0.10000000000E+02 0. -1.
</event>
<event>
 5    1  0.1279376E-008  0.3837104E+03  0.7957747E-01  0.3435160E+00
         13   -1    0    0    0    0  0.00000000000E+00  0.00000000000E+00  0.14999999963E+04  0.15000000000E+04  0.10566000000E+00 0.  1.
        994   -1    0    0    0    0 -0.00000000000E+00 -0.00000000000E+00  0.11368683772E-12  0.17120000000E+03  0.17120000000E+03 0.  0.
         13    1    1    2    0    0 -0.86870679719E+01 -0.93121307652E+01  0.34978670386E+02  0.37224984558E+02  0.10566000000E+00 0.  1.
        994    1    1    2    0    0  0.59894104836E+01  0.69091951685E+01  0.25479066932E+01  0.17146294598E+03  0.17120000000E+03 0.  0.
        998    1    1    2    0    0  0.26976574882E+01  0.24029355967E+01  0.14624734192E+04  0.14625120695E+04  0.10000000000E+02 0.  1.
</event>
<event>
 5    1  0.1314009E-008  0.3855237E+03  0.7957747E-01  0.3427454E+00
         13   -1    0    0    0    0  0.00000000000E+00  0.00000000000E+00  0.14999999963E+04  0.15000000000E+04  0.10566000000E+00 0. -1.
        994   -1    0    0    0    0 -0.00000000000E+00 -0.00000000000E+00  0.11368683772E-12  0.17120000000E+03  0.17120000000E+03 0.  0.
         13    1    1    2    0    0 -0.41493175058E+00  0.10308136681E+02  0.39007411541E+02  0.40348719550E+02  0.10566000000E+00 0. -1.
        994    1    1    2    0    0  0.20799485383E+01 -0.66352649500E+01  0.15291167799E+01  0.17134798255E+03  0.17120000000E+03 0.  0.
        998    1    1    2    0    0 -0.16650167877E+01 -0.36728717309E+01  0.14594634680E+04  0.14595032979E+04  0.10000000000E+02 0. -1.
</event>
<event>
 5    1  0.1279376E-008  0.3697762E+03  0.7957747E-01  0.3496920E+00
         13   -1    0    0    0    0  0.00000000000E+00  0.00000000000E+00  0.14999999963E+04  0.15000000000E+04  0.10566000000E+00 0. -1.
        994   -1    0    0    0    0 -0.00000000000E+00 -0.00000000000E+00  0.11368683772E-12  0.17120000000E+03  0.17120000000E+03 0.  0.
         13    1    1    2    0    0 -0.64664604731E+01  0.12194526619E+02  0.37994366920E+01  0.14316720075E+02  0.10566000000E+00 0. -1.
        994    1    1    2    0    0  0.51499381667E+01 -0.13319551961E+02  0.11533231006E+02  0.17218126421E+03  0.17120000000E+03 0.  0.
        998    1    1    2    0    0  0.13165223064E+01  0.11250253424E+01  0.14846673286E+04  0.14847020157E+04  0.10000000000E+02 0. -1.
</event>
<event>
 5    1  0.1279376E-008  0.3804348E+03  0.7957747E-01  0.3449267E+00
         13   -1    0    0    0    0  0.00000000000E+00  0.00000000000E+00  0.14999999963E+04  0.15000000000E+04  0.10566000000E+00 0.  1.
        994   -1    0    0    0    0 -0.00000000000E+00 -0.00000000000E+00  0.11368683772E-12  0.17120000000E+03  0.17120000000E+03 0.  0.
         13    1    1    2    0    0 -0.16020661991E+02 -0.99376571347E+01  0.46648966337E+02  0.50314569106E+02  0.10566000000E+00 0.  1.
        994    1    1    2    0    0 -0.67102335753E+01  0.40794642962E+01  0.41197103939E+01  0.17142952277E+03  0.17120000000E+03 0.  0.
        998    1    1    2    0    0  0.22730895566E+02  0.58581928385E+01  0.14492313195E+04  0.14494559081E+04  0.10000000000E+02 0.  1.
</event>
<event>
 5    1  0.1279376E-008  0.3836101E+03  0.7957747E-01  0.3435589E+00
         13   -1    0    0    0    0  0.00000000000E+00  0.00000000000E+00  0.14999999963E+04  0.15000000000E+04  0.10566000000E+00 0. -1.
        994   -1    0    0    0    0 -0.00000000000E+00 -0.00000000000E+00  0.11368683772E-12  0.17120000000E+03  0.17120000000E+03 0.  0.
         13    1    1    2    0    0  0.57493057917E+02  0.44309838403E+02  0.15743931213E+03  0.17336655287E+03  0.10566000000E+00 0. -1.
        994    1    1    2    0    0  0.91228082539E+01 -0.30117548445E+02  0.21969432242E+02  0.17544910461E+03  0.17120000000E+03 0.  0.
        998    1    1    2    0    0 -0.66615866170E+02 -0.14192289958E+02  0.13205912519E+04  0.13223843425E+04  0.10000000000E+02 0. -1.
</event>
<event>
 5    1  0.1279376E-008  0.3820484E+03  0.7957747E-01  0.3442287E+00
         13   -1    0    0    0    0  0.00000000000E+00  0.00000000000E+00  0.14999999963E+04  0.15000000000E+04  0.10566000000E+00 0.  1.
        994   -1    0    0    0    0 -0.00000000000E+00 -0.00000000000E+00  0.11368683772E-12  0.17120000000E+03  0.17120000000E+03 0.  0.
         13    1    1    2    0    0  0.89882364455E+01 -0.86889974604E+02  0.43787418259E+03  0.44650248266E+03  0.10566000000E+00 0.  1.
        994    1    1    2    0    0  0.10271813552E+02 -0.46706133079E+02  0.25853909351E+02  0.17962415664E+03  0.17120000000E+03 0.  0.
        998    1    1    2    0    0 -0.19260049998E+02  0.13359610768E+03  0.10362719043E+04  0.10450733607E+04  0.10000000000E+02 0.  1.
</event>
<event>
 5    1  0.1279376E-008  0.3783276E+03  0.7957747E-01  0.3458473E+00
         13   -1    0    0    0    0  0.00000000000E+00  0.00000000000E+00  0.14999999963E+04  0.15000000000E+04  0.10566000000E+00 0. -1.
        994   -1    0    0    0    0 -0.00000000000E+00 -0.00000000000E+00  0.11368683772E-12  0.17120000000E+03  0.17120000000E+03 0.  0.
         13    1    1    2    0    0  0.29391689877E+02 -0.16059975098E+02  0.12403921258E+03  0.12848163937E+03  0.10566000000E+00 0. -1.
        994    1    1    2    0    0  0.55775706376E+01  0.87467064954E+01  0.53415793992E+01  0.17159716384E+03  0.17120000000E+03 0.  0.
        998    1    1    2    0    0 -0.34969260515E+02  0.73132686027E+01  0.13706192043E+04  0.13711211968E+04  0.10000000000E+02 0. -1.
</event>
<event>
 5    1  0.1279376E-008  0.3812261E+03  0.7957747E-01  0.3445837E+00
         13   -1    0    0    0    0  0.00000000000E+00  0.00000000000E+00  0.14999999963E+04  0.15000000000E+04  0.10566000000E+00 0. -1.
        994   -1    0    0    0    0 -0.00000000000E+00 -0.00000000000E+00  0.11368683772E-12  0.17120000000E+03  0.17120000000E+03 0.  0.
         13    1    1    2    0    0  0.31879623477E+02 -0.47267723391E+01  0.13832354740E+03  0.14202840455E+03  0.10566000000E+00 0. -1.
        994    1    1    2    0    0 -0.27254271502E+02  0.75126216279E+01  0.61810638698E+01  0.17362857008E+03  0.17120000000E+03 0.  0.
        998    1    1    2    0    0 -0.46253519747E+01 -0.27858492889E+01  0.13554953850E+04  0.13555430254E+04  0.10000000000E+02 0. -1.
</event>
<event>
 5    1  0.1279376E-008  0.3776945E+03  0.7957747E-01  0.3461259E+00
         13   -1    0    0    0    0  0.00000000000E+00  0.00000000000E+00  0.14999999963E+04  0.15000000000E+04  0.10566000000E+00 0. -1.
        994   -1    0    0    0    0 -0.00000000000E+00 -0.00000000000E+00  0.11368683772E-12  0.17120000000E+03  0.17120000000E+03 0.  0.
         13    1    1    2    0    0  0.11743842821E+02  0.23759986832E+02  0.16644836790E+02  0.31297229499E+02  0.10566000000E+00 0. -1.
        994    1    1    2    0    0 -0.13131953812E+02 -0.24350833593E+02  0.17821620501E+02  0.17433433817E+03  0.17120000000E+03 0.  0.
        998    1    1    2    0    0  0.13881109912E+01  0.59084676053E+00  0.14655335390E+04  0.14655684323E+04  0.10000000000E+02 0. -1.
</event>
<event>
 5    1  0.1279376E-008  0.3770297E+03  0.7957747E-01  0.3464195E+00
         13   -1    0    0    0    0  0.00000000000E+00  0.00000000000E+00  0.14999999963E+04  0.15000000000E+04  0.10566000000E+00 0.  1.
        994   -1    0    0    0    0 -0.00000000000E+00 -0.00000000000E+00  0.11368683772E-12  0.17120000000E+03  0.17120000000E+03 0.  0.
         13    1    1    2    0    0  0.78835091119E+01 -0.12738162196E+02  0.16788623000E+02  0.22500655953E+02  0.10566000000E+00 0.  1.
        994    1    1    2    0    0 -0.12835521473E+02  0.23267488111E+02  0.80277080538E+01  0.17343589799E+03  0.17120000000E+03 0.  0.
        998    1    1    2    0    0  0.49520123613E+01 -0.10529325915E+02  0.14751836652E+04  0.14752634461E+04  0.10000000000E+02 0.  1.
</event>
<event>
 5    1  0.1279376E-008  0.3822102E+03  0.7957747E-01  0.3441591E+00
         13   -1    0    0    0    0  0.00000000000E+00  0.00000000000E+00  0.14999999963E+04  0.15000000000E+04  0.10566000000E+00 0. -1.
        994   -1    0    0    0    0 -0.00000000000E+00 -0.00000000000E+00  0.11368683772E-12  0.17120000000E+03  0.17120000000E+03 0.  0.
         13    1    1    2    0    0 -0.11276781619E+02 -0.16892461769E+02  0.64766633109E+02  0.67876719106E+02  0.10566000000E+00 0. -1.
        994    1    1    2    0    0  0.15580581164E+02  0.14882299358E+02  0.45637652300E+01  0.17261084930E+03  0.17120000000E+03 0.  0.
        998    1    1    2    0    0 -0.43037995444E+01  0.20101624113E+01  0.14306695979E+04  0.14307124316E+04  0.10000000000E+02 0. -1.
</event>
<event>
 5    1  0.1279376E-008  0.3789886E+03  0.7957747E-01  0.3455574E+00
         13   -1    0    0    0    0  0.00000000000E+00  0.00000000000E+00  0.14999999963E+04  0.15000000000E+04  0.10566000000E+00 0.  1.
        994   -1    0    0    0    0 -0.00000000000E+00 -0.00000000000E+00  0.11368683772E-12  0.17120000000E+03  0.17120000000E+03 0.  0.
         13    1    1    2    0    0  0.13300769747E+02  0.96242411008E+01  0.27259487410E+02  0.31821805582E+02  0.10566000000E+00 0.  1.
        994    1    1    2    0    0 -0.84286412237E+01 -0.45677530159E+01  0.49529003305E+01  0.17153972596E+03  0.17120000000E+03 0.  0.
        998    1    1    2    0    0 -0.48721285232E+01 -0.50564880849E+01  0.14677876085E+04  0.14678384685E+04  0.10000000000E+02 0.  1.
</event>
<event>
 5    1  0.1279376E-008  0.3756921E+03  0.7957747E-01  0.3470133E+00
         13   -1    0    0    0    0  0.00000000000E+00  0.00000000000E+00  0.14999999963E+04  0.15000000000E+04  0.10566000000E+00 0. -1.
        994   -1    0    0    0    0 -0.00000000000E+00 -0.00000000000E+00  0.11368683772E-12  0.17120000000E+03  0.17120000000E+03 0.  0.
         13    1    1    2    0    0 -0.17679749672E+03  0.31730942500E+02  0.80030900108E+03  0.82021870007E+03  0.10566000000E+00 0. -1.
        994    1    1    2    0    0  0.18698187998E+03 -0.39596884799E+02  0.14241067537E+03  0.29346273560E+03  0.17120000000E+03 0.  0.
        998    1    1    2    0    0 -0.10184383257E+02  0.78659422985E+01  0.55728031983E+03  0.55751856434E+03  0.10000000000E+02 0. -1.
</event>
<event>
 5    1  0.1279376E-008  0.3843485E+03  0.7957747E-01  0.3432440E+00
         13   -1    0    0    0    0  0.00000000000E+00  0.00000000000E+00  0.14999999963E+04  0.15000000000E+04  0.10566000000E+00 0. -1.
        994   -1    0    0    0    0 -0.00000000000E+00 -0.00000000000E+00  0.11368683772E-12  0.17120000000E+03  0.17120000000E+03 0.  0.
         13    1    1    2    0    0 -0.11576886237E+02 -0.76524908157E+01  0.49728901861E+02  0.51629059211E+02  0.10566000000E+00 0. -1.
        994    1    1    2    0    0  0.80783584334E+01 -0.10798126858E+01  0.21728992969E+01  0.17140766424E+03  0.17120000000E+03 0.  0.
        998    1    1    2    0    0  0.34985278037E+01  0.87323035015E+01  0.14480981951E+04  0.14481632765E+04  0.10000000000E+02 0. -1.
</event>
<event>
 5    1  0.1279376E-008  0.3770411E+03  0.7957747E-01  0.3464144E+00
         13   -1    0    0    0    0  0.00000000000E+00  0.00000000000E+00  0.14999999963E+04  0.15000000000E+04  0.10566000000E+00 0. -1.
        994   -1    0    0    0    0 -0.00000000000E+00 -0.00000000000E+00  0.11368683772E-12  0.17120000000E+03  0.17120000000E+03 0.  0.
         13    1    1    2    0    0  0.44281190528E+01  0.16870719054E+02  0.24282325413E+02  0.29897690400E+02  0.10566000000E+00 0. -1.
        994    1    1    2    0    0 -0.11163019497E+02 -0.15294549593E+02  0.68456111091E+01  0.17237992529E+03  0.17120000000E+03 0.  0.
        998    1    1    2    0    0  0.67349004447E+01 -0.15761694613E+01  0.14688720598E+04  0.14689223843E+04  0.10000000000E+02 0. -1.
</event>
<event>
 5    1  0.1279376E-008  0.3800405E+03  0.7957747E-01  0.3450982E+00
         13   -1    0    0    0    0  0.00000000000E+00  0.00000000000E+00  0.14999999963E+04  0.15000000000E+04  0.10566000000E+00 0. -1.
        994   -1    0    0    0    0 -0.00000000000E+00 -0.00000000000E+00  0.11368683772E-12  0.17120000000E+03  0.17120000000E+03 0.  0.
         13    1    1    2    0    0 -0.94096931950E+01 -0.11272157324E+02  0.24280338853E+02  0.28375163006E+02  0.10566000000E+00 0. -1.
        994    1    1    2    0    0  0.10247164370E+02  0.94882929025E+01  0.47648662503E+01  0.17183473464E+03  0.17120000000E+03 0.  0.
        998    1    1    2    0    0 -0.83747117537E+00  0.17838644212E+01  0.14709547912E+04  0.14709901023E+04  0.10000000000E+02 0. -1.
</event>
<event>
 5    1  0.1279376E-008  0.3755340E+03  0.7957747E-01  0.3470838E+00
         13   -1    0    0    0    0  0.00000000000E+00  0.00000000000E+00  0.14999999963E+04  0.15000000000E+04  0.10566000000E+00 0. -1.
        994   -1    0    0    0    0 -0.00000000000E+00 -0.00000000000E+00  0.11368683772E-12  0.17120000000E+03  0.17120000000E+03 0.  0.
         13    1    1    2    0    0  0.26510299799E+02  0.26167485823E+02  0.42844655607E+02  0.56773312286E+02  0.10566000000E+00 0. -1.
        994    1    1    2    0    0 -0.33087168305E+02 -0.25820968809E+02  0.20201872910E+02  0.17742333219E+03  0.17120000000E+03 0.  0.
        998    1    1    2    0    0  0.65768685058E+01 -0.34651701445E+00  0.14369534678E+04  0.14370033555E+04  0.10000000000E+02 0. -1.
</event>
<event>
 5    1  0.1279376E-008  0.3712695E+03  0.7957747E-01  0.3490077E+00
         13   -1    0    0    0    0  0.00000000000E+00  0.00000000000E+00  0.14999999963E+04  0.15000000000E+04  0.10566000000E+00 0. -1.
        994   -1    0    0    0    0 -0.00000000000E+00 -0.00000000000E+00  0.11368683772E-12  0.17120000000E+03  0.17120000000E+03 0.  0.
         13    1    1    2    0    0 -0.66520067976E+01  0.56939705742E+02  0.24546403393E+03  0.25206939997E+03  0.10566000000E+00 0. -1.
        994    1    1    2    0    0 -0.16923442685E+01  0.90638509864E+01  0.88997754232E+01  0.17167895452E+03  0.17120000000E+03 0.  0.
        998    1    1    2    0    0  0.83443510661E+01 -0.66003556728E+02  0.12456361869E+04  0.12474516455E+04  0.10000000000E+02 0. -1.
</event>
<event>
 5    1  0.1279376E-008  0.3791730E+03  0.7957747E-01  0.3454767E+00
         13   -1    0    0    0    0  0.00000000000E+00  0.00000000000E+00  0.14999999963E+04  0.15000000000E+04  0.10566000000E+00 0.  1.
        994   -1    0    0    0    0 -0.00000000000E+00 -0.00000000000E+00  0.11368683772E-12  0.17120000000E+03  0.17120000000E+03 0.  0.
         13    1    1    2    0    0  0.50139254083E+02  0.89114714702E+02  0.55984046304E+03  0.56910168898E+03  0.10566000000E+00 0.  1.
        994    1    1    2    0    0 -0.82131188444E+02 -0.92039519020E+02  0.57376013824E+02  0.21867384878E+03  0.17120000000E+03 0.  0.
        998    1    1    2    0    0  0.31991934361E+02  0.29248043180E+01  0.88278351941E+03  0.88342446224E+03  0.10000000000E+02 0.  1.
</event>
<event>
 5    1  0.1279376E-008  0.3723589E+03  0.7957747E-01  0.3485120E+00
         13   -1    0    0    0    0  0.00000000000E+00  0.00000000000E+00  0.14999999963E+04  0.15000000000E+04  0.10566000000E+00 0.  1.
        994   -1    0    0    0    0 -0.00000000000E+00 -0.00000000000E+00  0.11368683772E-12  0.17120000000E+03  0.17120000000E+03 0.  0.
         13    1    1    2    0    0 -0.22451369915E+02  0.47346341325E+01  0.28299001628E+02  0.36432477662E+02  0.10566000000E+00 0.  1.
        994    1    1    2    0    0  0.28374670049E+02 -0.15134993485E+02  0.11596581418E+02  0.17457981163E+03  0.17120000000E+03 0.  0.
        998    1    1    2    0    0 -0.59233001340E+01  0.10400359352E+02  0.14601044132E+04  0.14601877107E+04  0.10000000000E+02 0.  1.
</event>
<event>
 5    1  0.1279376E-008  0.3853624E+03  0.7957747E-01  0.3428137E+00
         13   -1    0    0    0    0  0.00000000000E+00  0.00000000000E+00  0.14999999963E+04  0.15000000000E+04  0.10566000000E+00 0.  1.
        994   -1    0    0    0    0 -0.00000000000E+00 -0.00000000000E+00  0.11368683772E-12  0.17120000000E+03  0.17120000000E+03 0.  0.
         13    1    1    2    0    0 -0.52656049065E+01  0.14223615518E+02  0.91385896976E+02  0.92636014398E+02  0.10566000000E+00 0.  1.
        994    1    1    2    0    0 -0.14326588395E+02  0.18996511057E+01  0.21367041899E+01  0.17182219098E+03  0.17120000000E+03 0.  0.
        998    1    1    2    0    0  0.19592193301E+02 -0.16123266623E+02  0.14064773951E+04  0.14067417946E+04  0.10000000000E+02 0.  1.
</event>
<event>
 5    1  0.1279376E-008  0.3834628E+03  0.7957747E-01  0.3436218E+00
         13   -1    0    0    0    0  0.00000000000E+00  0.00000000000E+00  0.14999999963E+04  0.15000000000E+04  0.10566000000E+00 0.  1.
        994   -1    0    0    0    0 -0.00000000000E+00 -0.00000000000E+00  0.11368683772E-12  0.17120000000E+03  0.17120000000E+03 0.  0.
         13    1    1    2    0    0  0.15012594159E+02 -0.18329547204E+02  0.11778695484E+03  0.12014627826E+03  0.10566000000E+00 0.  1.
        994    1    1    2    0    0 -0.30633716890E+02 -0.67247839747E+01  0.56531105009E+01  0.17414087685E+03  0.17120000000E+03 0.  0.
        998    1    1    2    0    0  0.15621122731E+02  0.25054331179E+02  0.13765599309E+04  0.13769128449E+04  0.10000000000E+02 0.  1.
</event>
<event>
 5    1  0.1279376E-008  0.3668691E+03  0.7957747E-01  0.3510405E+00
         13   -1    0    0    0    0  0.00000000000E+00  0.00000000000E+00  0.14999999963E+04  0.15000000000E+04  0.10566000000E+00 0.  1.
        994   -1    0    0    0    0 -0.00000000000E+00 -0.00000000000E+00  0.11368683772E-12  0.17120000000E+03  0.17120000000E+03 0.  0.
         13    1    1    2    0    0 -0.25433105495E+03  0.10751838905E+03  0.98800278920E+03  0.10258625698E+04  0.10566000000E+00 0.  1.
        994    1    1    2    0    0  0.25173144502E+03 -0.10702887697E+03  0.32479054868E+03  0.45784521558E+03  0.17120000000E+03 0.  0.
        998    1    1    2    0    0  0.25996099321E+01 -0.48951207764E+00  0.18720665839E+03  0.18749221461E+03  0.10000000000E+02 0.  0.
</event>
<event>
 5    1  0.1279376E-008  0.3788718E+03  0.7957747E-01  0.3456086E+00
         13   -1    0    0    0    0  0.00000000000E+00  0.00000000000E+00  0.14999999963E+04  0.15000000000E+04  0.10566000000E+00 0.  1.
        994   -1    0    0    0    0 -0.00000000000E+00 -0.00000000000E+00  0.11368683772E-12  0.17120000000E+03  0.17120000000E+03 0.  0.
         13    1    1    2    0    0 -0.28804378393E+02 -0.29760139710E+02  0.16361894413E+03  0.16877952534E+03  0.10566000000E+00 0.  1.
        994    1    1    2    0    0  0.25981790386E+02  0.30918572662E+02  0.10196029733E+02  0.17619424108E+03  0.17120000000E+03 0.  0.
        998    1    1    2    0    0  0.28225880071E+01 -0.11584329523E+01  0.13261850224E+04  0.13262262336E+04  0.10000000000E+02 0.  0.
</event>
<event>
 5    1  0.1279376E-008  0.3808551E+03  0.7957747E-01  0.3447443E+00
         13   -1    0    0    0    0  0.00000000000E+00  0.00000000000E+00  0.14999999963E+04  0.15000000000E+04  0.10566000000E+00 0. -1.
        994   -1    0    0    0    0 -0.00000000000E+00 -0.00000000000E+00  0.11368683772E-12  0.17120000000E+03  0.17120000000E+03 0.  0.
         13    1    1    2    0    0 -0.21697837240E+02 -0.19890920014E+02  0.12438001979E+03  0.12781566933E+03  0.10566000000E+00 0. -1.
        994    1    1    2    0    0  0.97174715866E-01  0.86907391875E+01  0.39539494553E+01  0.17146606693E+03  0.17120000000E+03 0.  0.
        998    1    1    2    0    0  0.21600662524E+02  0.11200180827E+02  0.13716660270E+04  0.13719182637E+04  0.10000000000E+02 0. -1.
</event>
<event>
 5    1  0.1279376E-008  0.3845699E+03  0.7957747E-01  0.3431499E+00
         13   -1    0    0    0    0  0.00000000000E+00  0.00000000000E+00  0.14999999963E+04  0.15000000000E+04  0.10566000000E+00 0. -1.
        994   -1    0    0    0    0 -0.00000000000E+00 -0.00000000000E+00  0.11368683772E-12  0.17120000000E+03  0.17120000000E+03 0.  0.
         13    1    1    2    0    0 -0.15260687414E+02 -0.10146545909E+02  0.93158856361E+02  0.94944323984E+02  0.10566000000E+00 0. -1.
        994    1    1    2    0    0  0.83848023888E+01  0.23517705684E+01  0.20936340228E+01  0.17143412449E+03  0.17120000000E+03 0.  0.
        998    1    1    2    0    0  0.68758850249E+01  0.77947753402E+01  0.14047475059E+04  0.14048215515E+04  0.10000000000E+02 0. -1.
</event>
<event>
 5    1  0.1279376E-008  0.3829170E+03  0.7957747E-01  0.3438555E+00
         13   -1    0    0    0    0  0.00000000000E+00  0.00000000000E+00  0.14999999963E+04  0.15000000000E+04  0.10566000000E+00 0.  1.
        994   -1    0    0    0    0 -0.00000000000E+00 -0.00000000000E+00  0.11368683772E-12  0.17120000000E+03  0.17120000000E+03 0.  0.
         13    1    1    2    0    0  0.18963435638E+02  0.20859775559E+02  0.15077701754E+03  0.15338990290E+03  0.10566000000E+00 0.  1.
        994    1    1    2    0    0 -0.25472646078E+02  0.25527082406E+01  0.48408170048E+01  0.17317114519E+03  0.17120000000E+03 0.  0.
        998    1    1    2    0    0  0.65092104398E+01 -0.23412483799E+02  0.13443821617E+04  0.13446389519E+04  0.10000000000E+02 0.  1.
</event>
<event>
 5    1  0.1279376E-008  0.3763379E+03  0.7957747E-01  0.3467261E+00
         13   -1    0    0    0    0  0.00000000000E+00  0.00000000000E+00  0.14999999963E+04  0.15000000000E+04  0.10566000000E+00 0. -1.
        994   -1    0    0    0    0 -0.00000000000E+00 -0.00000000000E+00  0.11368683772E-12  0.17120000000E+03  0.17120000000E+03 0.  0.
         13    1    1    2    0    0  0.66346971216E+01 -0.31648982095E+02  0.11737535053E+03  0.12174835255E+03  0.10566000000E+00 0. -1.
        994    1    1    2    0    0 -0.40204447175E+02 -0.52460849253E+02  0.20922159893E+02  0.18470439911E+03  0.17120000000E+03 0.  0.
        998    1    1    2    0    0  0.33569750054E+02  0.84109831348E+02  0.13617024859E+04  0.13647472483E+04  0.10000000000E+02 0. -1.
</event>
<event>
 5    1  0.1279376E-008  0.3852555E+03  0.7957747E-01  0.3428589E+00
         13   -1    0    0    0    0  0.00000000000E+00  0.00000000000E+00  0.14999999963E+04  0.15000000000E+04  0.10566000000E+00 0. -1.
        994   -1    0    0    0    0 -0.00000000000E+00 -0.00000000000E+00  0.11368683772E-12  0.17120000000E+03  0.17120000000E+03 0.  0.
         13    1    1    2    0    0 -0.13005050476E+02 -0.41228065782E+01  0.69911002856E+02  0.71229827715E+02  0.10566000000E+00 0. -1.
        994    1    1    2    0    0 -0.70379962793E+01 -0.44178089489E+01  0.17302502693E+01  0.17141028030E+03  0.17120000000E+03 0.  0.
        998    1    1    2    0    0  0.20043046755E+02  0.85406155271E+01  0.14283587432E+04  0.14285598920E+04  0.10000000000E+02 0. -1.
</event>
<event>
 5    1  0.1279376E-008  0.3763542E+03  0.7957747E-01  0.3467188E+00
         13   -1    0    0    0    0  0.00000000000E+00  0.00000000000E+00  0.14999999963E+04  0.15000000000E+04  0.10566000000E+00 0. -1.
        994   -1    0    0    0    0 -0.00000000000E+00 -0.00000000000E+00  0.11368683772E-12  0.17120000000E+03  0.17120000000E+03 0.  0.
         13    1    1    2    0    0 -0.11147691725E+02 -0.98885680204E+01  0.15811651796E+02  0.21727270994E+02  0.10566000000E+00 0. -1.
        994    1    1    2    0    0  0.15584381692E+02  0.36604119505E+01  0.68525703934E+01  0.17208332078E+03  0.17120000000E+03 0.  0.
        998    1    1    2    0    0 -0.44366899670E+01  0.62281560699E+01  0.14773357741E+04  0.14773894082E+04  0.10000000000E+02 0. -1.
</event>
<event>
 5    1  0.1279376E-008  0.3833013E+03  0.7957747E-01  0.3436909E+00
         13   -1    0    0    0    0  0.00000000000E+00  0.00000000000E+00  0.14999999963E+04  0.15000000000E+04  0.10566000000E+00 0. -1.
        994   -1    0    0    0    0 -0.00000000000E+00 -0.00000000000E+00  0.11368683772E-12  0.17120000000E+03  0.17120000000E+03 0.  0.
         13    1    1    2    0    0 -0.22118873915E+02  0.16278879896E+02  0.13599728827E+03  0.13874263979E+03  0.10566000000E+00 0. -1.
        994    1    1    2    0    0  0.21566623494E+02 -0.23324270257E+02  0.58201045277E+01  0.17421955817E+03  0.17120000000E+03 0.  0.
        998    1    1    2    0    0  0.55225042125E+00  0.70453903615E+01  0.13581826035E+04  0.13582378020E+04  0.10000000000E+02 0. -1.
</event>
<event>
 5    1  0.1279376E-008  0.3790959E+03  0.7957747E-01  0.3455105E+00
         13   -1    0    0    0    0  0.00000000000E+00  0.00000000000E+00  0.14999999963E+04  0.15000000000E+04  0.10566000000E+00 0.  1.
        994   -1    0    0    0    0 -0.00000000000E+00 -0.00000000000E+00  0.11368683772E-12  0.17120000000E+03  0.17120000000E+03 0.  0.
         13    1    1    2    0    0  0.15634551375E+02 -0.20270277790E+02  0.72105356042E+02  0.76514814856E+02  0.10566000000E+00 0.  1.
        994    1    1    2    0    0 -0.14007328707E+01  0.92271528133E+01  0.48823204306E+01  0.17152369940E+03  0.17120000000E+03 0.  0.
        998    1    1    2    0    0 -0.14233818504E+02  0.11043124977E+02  0.14230123198E+04  0.14231614857E+04  0.10000000000E+02 0.  1.
</event>
<event>
 5    1  0.1279376E-008  0.3815457E+03  0.7957747E-01  0.3444456E+00
         13   -1    0    0    0    0  0.00000000000E+00  0.00000000000E+00  0.14999999963E+04  0.15000000000E+04  0.10566000000E+00 0.  1.
        994   -1    0    0    0    0 -0.00000000000E+00 -0.00000000000E+00  0.11368683772E-12  0.17120000000E+03  0.17120000000E+03 0.  0.
         13    1    1    2    0    0 -0.42872496467E+02 -0.31018361532E+01  0.24954951674E+03  0.25322449489E+03  0.10566000000E+00 0.  1.
        994    1    1    2    0    0  0.34691033528E+02  0.60138500187E+01  0.74888321833E+01  0.17494329598E+03  0.17120000000E+03 0.  0.
        998    1    1    2    0    0  0.81814629395E+01 -0.29120138655E+01  0.12429616474E+04  0.12430322091E+04  0.10000000000E+02 0.  1.
</event>
<event>
 5    1  0.1279376E-008  0.2595166E+03  0.7957747E-01  0.4235467E+00
         13   -1    0    0    0    0  0.00000000000E+00  0.00000000000E+00  0.14999999963E+04  0.15000000000E+04  0.10566000000E+00 0.  1.
        994   -1    0    0    0    0 -0.00000000000E+00 -0.00000000000E+00  0.11368683772E-12  0.17120000000E+03  0.17120000000E+03 0.  0.
         13    1    1    2    0    0 -0.18466666305E+03  0.51191668332E+02  0.27034465225E+03  0.33137381537E+03  0.10566000000E+00 0.  1.
        994    1    1    2    0    0  0.18907373053E+03 -0.41322833414E+02  0.24828464290E+03  0.35834502374E+03  0.17120000000E+03 0.  0.
        998    1    1    2    0    0 -0.44070674739E+01 -0.98688349182E+01  0.98137070113E+03  0.98148116089E+03  0.10000000000E+02 0.  1.
</event>
<event>
 5    1  0.1279376E-008  0.3817412E+03  0.7957747E-01  0.3443612E+00
         13   -1    0    0    0    0  0.00000000000E+00  0.00000000000E+00  0.14999999963E+04  0.15000000000E+04  0.10566000000E+00 0. -1.
        994   -1    0    0    0    0 -0.00000000000E+00 -0.00000000000E+00  0.11368683772E-12  0.17120000000E+03  0.17120000000E+03 0.  0.
         13    1    1    2    0    0  0.98833582799E+01 -0.62785215198E+01  0.20101126675E+02  0.23262997679E+02  0.10566000000E+00 0. -1.
        994    1    1    2    0    0  0.29647571008E+01  0.84735628533E+01  0.35247078607E+01  0.17147143966E+03  0.17120000000E+03 0.  0.
        998    1    1    2    0    0 -0.12848115381E+02 -0.21950413336E+01  0.14763741617E+04  0.14764655627E+04  0.10000000000E+02 0. -1.
</event>
<event>
 5    1  0.1279376E-008  0.3826645E+03  0.7957747E-01  0.3439638E+00
         13   -1    0    0    0    0  0.00000000000E+00  0.00000000000E+00  0.14999999963E+04  0.15000000000E+04  0.10566000000E+00 0.  1.
        994   -1    0    0    0    0 -0.00000000000E+00 -0.00000000000E+00  0.11368683772E-12  0.17120000000E+03  0.17120000000E+03 0.  0.
         13    1    1    2    0    0  0.31913965455E+01 -0.16198772984E+02  0.51168626250E+02  0.53766390380E+02  0.10566000000E+00 0.  1.
        994    1    1    2    0    0 -0.29688260942E+01 -0.45636354326E+01  0.28923748307E+01  0.17131096442E+03  0.17120000000E+03 0.  0.
        998    1    1    2    0    0 -0.22257045128E+00  0.20762408417E+02  0.14459389952E+04  0.14461226452E+04  0.10000000000E+02 0.  1.
</event>
<event>
 5    1  0.1279376E-008  0.3861827E+03  0.7957747E-01  0.3424672E+00
         13   -1    0    0    0    0  0.00000000000E+00  0.00000000000E+00  0.14999999963E+04  0.15000000000E+04  0.10566000000E+00 0.  1.
        994   -1    0    0    0    0 -0.00000000000E+00 -0.00000000000E+00  0.11368683772E-12  0.17120000000E+03  0.17120000000E+03 0.  0.
         13    1    1    2    0    0 -0.51066284701E+01  0.11452007693E+02  0.72326759605E+02  0.73405704502E+02  0.10566000000E+00 0.  1.
        994    1    1    2    0    0  0.20972424514E+01 -0.15486716147E+02  0.18446169042E+01  0.17192172467E+03  0.17120000000E+03 0.  0.
        998    1    1    2    0    0  0.30093860187E+01  0.40347084549E+01  0.14258286198E+04  0.14258725708E+04  0.10000000000E+02 0.  1.
</event>
<event>
 5    1  0.1279376E-008  0.3862028E+03  0.7957747E-01  0.3424587E+00
         13   -1    0    0    0    0  0.00000000000E+00  0.00000000000E+00  0.14999999963E+04  0.15000000000E+04  0.10566000000E+00 0. -1.
        994   -1    0    0    0    0 -0.00000000000E+00 -0.00000000000E+00  0.11368683772E-12  0.17120000000E+03  0.17120000000E+03 0.  0.
         13    1    1    2    0    0 -0.59624375045E+01 -0.82088401278E+01  0.46847361828E+02  0.47933518455E+02  0.10566000000E+00 0. -1.
        994    1    1    2    0    0  0.54676803610E+01  0.18723288477E+02  0.22814652355E+01  0.17232266869E+03  0.17120000000E+03 0.  0.
        998    1    1    2    0    0  0.49475714354E+00 -0.10514448349E+02  0.14508711692E+04  0.14509438129E+04  0.10000000000E+02 0. -1.
</event>
<event>
 5    1  0.1279376E-008  0.3761863E+03  0.7957747E-01  0.3467934E+00
         13   -1    0    0    0    0  0.00000000000E+00  0.00000000000E+00  0.14999999963E+04  0.15000000000E+04  0.10566000000E+00 0. -1.
        994   -1    0    0    0    0 -0.00000000000E+00 -0.00000000000E+00  0.11368683772E-12  0.17120000000E+03  0.17120000000E+03 0.  0.
         13    1    1    2    0    0  0.44906437492E+02  0.43953477667E+02  0.31972492907E+03  0.32584127695E+03  0.10566000000E+00 0. -1.
        994    1    1    2    0    0 -0.75097601379E+02  0.14152531777E+02  0.26106200020E+02  0.18929056386E+03  0.17120000000E+03 0.  0.
        998    1    1    2    0    0  0.30191163887E+02 -0.58106009444E+02  0.11541688672E+04  0.11560681592E+04  0.10000000000E+02 0. -1.
</event>
<event>
 5    1  0.1279376E-008  0.3810909E+03  0.7957747E-01  0.3446422E+00
         13   -1    0    0    0    0  0.00000000000E+00  0.00000000000E+00  0.14999999963E+04  0.15000000000E+04  0.10566000000E+00 0.  1.
        994   -1    0    0    0    0 -0.00000000000E+00 -0.00000000000E+00  0.11368683772E-12  0.17120000000E+03  0.17120000000E+03 0.  0.
         13    1    1    2    0    0 -0.29373313795E+02  0.34331962817E+01  0.11085678044E+03  0.11473367131E+03  0.10566000000E+00 0.  1.
        994    1    1    2    0    0  0.32855626032E+02 -0.26927630905E+01  0.72117584327E+01  0.17449410476E+03  0.17120000000E+03 0.  0.
        998    1    1    2    0    0 -0.34823122368E+01 -0.74043319118E+00  0.13819314574E+04  0.13819722239E+04  0.10000000000E+02 0.  1.
</event>
<event>
 5    1  0.1279376E-008  0.3824588E+03  0.7957747E-01  0.3440522E+00
         13   -1    0    0    0    0  0.00000000000E+00  0.00000000000E+00  0.14999999963E+04  0.15000000000E+04  0.10566000000E+00 0. -1.
        994   -1    0    0    0    0 -0.00000000000E+00 -0.00000000000E+00  0.11368683772E-12  0.17120000000E+03  0.17120000000E+03 0.  0.
         13    1    1    2    0    0 -0.18996875120E+02  0.87288649145E+01  0.73604581882E+02  0.76516141991E+02  0.10566000000E+00 0. -1.
        994    1    1    2    0    0  0.11296753734E+02 -0.13098658604E+02  0.38898053309E+01  0.17211554865E+03  0.17120000000E+03 0.  0.
        998    1    1    2    0    0  0.77001213855E+01  0.43697936898E+01  0.14225056091E+04  0.14225683094E+04  0.10000000000E+02 0. -1.
</event>
<event>
 5    1  0.1279376E-008  0.3020439E+03  0.7957747E-01  0.3881534E+00
         13   -1    0    0    0    0  0.00000000000E+00  0.00000000000E+00  0.14999999963E+04  0.15000000000E+04  0.10566000000E+00 0. -1.
        994   -1    0    0    0    0 -0.00000000000E+00 -0.00000000000E+00  0.11368683772E-12  0.17120000000E+03  0.17120000000E+03 0.  0.
         13    1    1    2    0    0 -0.17868930149E+03  0.67444716322E+02  0.64438508120E+03  0.67209433882E+03  0.10566000000E+00 0. -1.
        994    1    1    2    0    0  0.17473970903E+03 -0.76369482613E+02  0.15739768525E+03  0.30074862445E+03  0.17120000000E+03 0.  0.
        998    1    1    2    0    0  0.39495924658E+01  0.89247662918E+01  0.69821722982E+03  0.69835703673E+03  0.10000000000E+02 0. -1.
</event>
<event>
 5    1  0.1279376E-008  0.3771749E+03  0.7957747E-01  0.3463553E+00
         13   -1    0    0    0    0  0.00000000000E+00  0.00000000000E+00  0.14999999963E+04  0.15000000000E+04  0.10566000000E+00 0.  1.
        994   -1    0    0    0    0 -0.00000000000E+00 -0.00000000000E+00  0.11368683772E-12  0.17120000000E+03  0.17120000000E+03 0.  0.
         13    1    1    2    0    0 -0.38077453502E+01 -0.11706393352E+02  0.10883542048E+02  0.16431713895E+02  0.10566000000E+00 0.  1.
        994    1    1    2    0    0  0.71403020175E+01  0.17223346434E+02  0.67400287865E+01  0.17234411961E+03  0.17120000000E+03 0.  0.
        998    1    1    2    0    0 -0.33325566673E+01 -0.55169530817E+01  0.14823764254E+04  0.14824241665E+04  0.10000000000E+02 0.  1.
</event>
<event>
 5    1  0.1279376E-008  0.3794984E+03  0.7957747E-01  0.3453346E+00
         13   -1    0    0    0    0  0.00000000000E+00  0.00000000000E+00  0.14999999963E+04  0.15000000000E+04  0.10566000000E+00 0. -1.
        994   -1    0    0    0    0 -0.00000000000E+00 -0.00000000000E+00  0.11368683772E-12  0.17120000000E+03  0.17120000000E+03 0.  0.
         13    1    1    2    0    0 -0.59876877488E+02  0.43067969723E+02  0.43247872662E+03  0.43872309105E+03  0.10566000000E+00 0. -1.
        994    1    1    2    0    0  0.55528978681E+02 -0.51939221437E+02  0.23994318915E+02  0.18885528199E+03  0.17120000000E+03 0.  0.
        998    1    1    2    0    0  0.43478988067E+01  0.88712517140E+01  0.10435269507E+04  0.10436216270E+04  0.10000000000E+02 0.  1.
</event>
<event>
 5    1  0.1279376E-008  0.3802678E+03  0.7957747E-01  0.3449993E+00
         13   -1    0    0    0    0  0.00000000000E+00  0.00000000000E+00  0.14999999963E+04  0.15000000000E+04  0.10566000000E+00 0.  1.
        994   -1    0    0    0    0 -0.00000000000E+00 -0.00000000000E+00  0.11368683772E-12  0.17120000000E+03  0.17120000000E+03 0.  0.
         13    1    1    2    0    0  0.23525851463E+02 -0.16561779581E+02  0.10292269651E+03  0.10686838096E+03  0.10566000000E+00 0.  1.
        994    1    1    2    0    0 -0.14566197699E+02  0.72134014871E+01  0.48809645111E+01  0.17203915569E+03  0.17120000000E+03 0.  0.
        998    1    1    2    0    0 -0.89596537633E+01  0.93483780937E+01  0.13921963353E+04  0.13922924633E+04  0.10000000000E+02 0.  1.
</event>
<event>
 5    1  0.1279376E-008  0.3778726E+03  0.7957747E-01  0.3460474E+00
         13   -1    0    0    0    0  0.00000000000E+00  0.00000000000E+00  0.14999999963E+04  0.15000000000E+04  0.10566000000E+00 0.  1.
        994   -1    0    0    0    0 -0.00000000000E+00 -0.00000000000E+00  0.11368683772E-12  0.17120000000E+03  0.17120000000E+03 0.  0.
         13    1    1    2    0    0  0.12093636692E+02 -0.63282408165E+01  0.15307767297E+02  0.20509548604E+02  0.10566000000E+00 0.  1.
        994    1    1    2    0    0 -0.14885886490E+02  0.10039314360E+02  0.62969758172E+01  0.17225408371E+03  0.17120000000E+03 0.  0.
        998    1    1    2    0    0  0.27922497979E+01 -0.37110735437E+01  0.14783952532E+04  0.14784363677E+04  0.10000000000E+02 0.  1.
</event>
<event>
 5    1  0.1279376E-008  0.3800538E+03  0.7957747E-01  0.3450924E+00
         13   -1    0    0    0    0  0.00000000000E+00  0.00000000000E+00  0.14999999963E+04  0.15000000000E+04  0.10566000000E+00 0.  1.
        994   -1    0    0    0    0 -0.00000000000E+00 -0.00000000000E+00  0.11368683772E-12  0.17120000000E+03  0.17120000000E+03 0.  0.
         13    1    1    2    0    0  0.20067242625E+01 -0.10925846380E+02  0.13511620184E+02  0.17492172690E+02  0.10566000000E+00 0.  1.
        994    1    1    2    0    0  0.63598472039E+01  0.10236068432E+01  0.42446903616E+01  0.17137372268E+03  0.17120000000E+03 0.  0.
        998    1    1    2    0    0 -0.83665714665E+01  0.99022395370E+01  0.14822436857E+04  0.14823341046E+04  0.10000000000E+02 0.  1.
</event>
<event>
 5    1  0.1279376E-008  0.3796082E+03  0.7957747E-01  0.3452866E+00
         13   -1    0    0    0    0  0.00000000000E+00  0.00000000000E+00  0.14999999963E+04  0.15000000000E+04  0.10566000000E+00 0.  1.
        994   -1    0    0    0    0 -0.00000000000E+00 -0.00000000000E+00  0.11368683772E-12  0.17120000000E+03  0.17120000000E+03 0.  0.
         13    1    1    2    0    0  0.26653861295E+02  0.37417142253E+02  0.25121007477E+03  0.25537616116E+03  0.10566000000E+00 0.  1.
        994    1    1    2    0    0 -0.25273706198E+01 -0.25352282862E+02  0.65068468427E+01  0.17320769297E+03  0.17120000000E+03 0.  0.
        998    1    1    2    0    0 -0.24126490675E+02 -0.12064859391E+02  0.12422830747E+04  0.12426161459E+04  0.10000000000E+02 0.  1.
</event>
<event>
 5    1  0.1279376E-008  0.3850946E+03  0.7957747E-01  0.3429271E+00
         13   -1    0    0    0    0  0.00000000000E+00  0.00000000000E+00  0.14999999963E+04  0.15000000000E+04  0.10566000000E+00 0. -1.
        994   -1    0    0    0    0 -0.00000000000E+00 -0.00000000000E+00  0.11368683772E-12  0.17120000000E+03  0.17120000000E+03 0.  0.
         13    1    1    2    0    0 -0.15888505542E+02 -0.11550578294E+02  0.10368290391E+03  0.10552732440E+03  0.10566000000E+00 0. -1.
        994    1    1    2    0    0  0.19847072412E+02  0.29369629796E+02  0.57249975505E+01  0.17492483253E+03  0.17120000000E+03 0.  0.
        998    1    1    2    0    0 -0.39585668702E+01 -0.17819051502E+02  0.13905920948E+04  0.13907478431E+04  0.10000000000E+02 0. -1.
</event>
<event>
 5    1  0.1279376E-008  0.3705709E+03  0.7957747E-01  0.3493271E+00
         13   -1    0    0    0    0  0.00000000000E+00  0.00000000000E+00  0.14999999963E+04  0.15000000000E+04  0.10566000000E+00 0.  1.
        994   -1    0    0    0    0 -0.00000000000E+00 -0.00000000000E+00  0.11368683772E-12  0.17120000000E+03  0.17120000000E+03 0.  0.
         13    1    1    2    0    0 -0.13412134338E+02 -0.72069825605E+02  0.21189358518E+03  0.22421607372E+03  0.10566000000E+00 0.  1.
        994    1    1    2    0    0  0.41913628495E+02  0.58571555055E+02  0.29640755246E+02  0.18808347532E+03  0.17120000000E+03 0.  0.
        998    1    1    2    0    0 -0.28501494157E+02  0.13498270550E+02  0.12584656559E+04  0.12589004510E+04  0.10000000000E+02 0.  1.
</event>
<event>
 5    1  0.1279376E-008  0.3853973E+03  0.7957747E-01  0.3427989E+00
         13   -1    0    0    0    0  0.00000000000E+00  0.00000000000E+00  0.14999999963E+04  0.15000000000E+04  0.10566000000E+00 0. -1.
        994   -1    0    0    0    0 -0.00000000000E+00 -0.00000000000E+00  0.11368683772E-12  0.17120000000E+03  0.17120000000E+03 0.  0.
         13    1    1    2    0    0 -0.11364733580E+02  0.64316386045E+01  0.45451206606E+02  0.47290025274E+02  0.10566000000E+00 0. -1.
        994    1    1    2    0    0  0.48220861144E+02 -0.34260541162E+02  0.13010858716E+02  0.18159779342E+03  0.17120000000E+03 0.  0.
        998    1    1    2    0    0 -0.36856127565E+02  0.27828902558E+02  0.14415379310E+04  0.14423121813E+04  0.10000000000E+02 0. -1.
</event>
<event>
 5    1  0.1279376E-008  0.3853985E+03  0.7957747E-01  0.3427984E+00
         13   -1    0    0    0    0  0.00000000000E+00  0.00000000000E+00  0.14999999963E+04  0.15000000000E+04  0.10566000000E+00 0. -1.
        994   -1    0    0    0    0 -0.00000000000E+00 -0.00000000000E+00  0.11368683772E-12  0.17120000000E+03  0.17120000000E+03 0.  0.
         13    1    1    2    0    0  0.22460966037E+01  0.11915207636E+02  0.55727872461E+02  0.57031781105E+02  0.10566000000E+00 0. -1.
        994    1    1    2    0    0 -0.14252576178E+02  0.68428978932E+01  0.22538013409E+01  0.17194324878E+03  0.17120000000E+03 0.  0.
        998    1    1    2    0    0  0.12006479574E+02 -0.18758105529E+02  0.14420183225E+04  0.14422249701E+04  0.10000000000E+02 0. -1.
</event>
<event>
 5    1  0.1279376E-008  0.3724182E+03  0.7957747E-01  0.3484851E+00
         13   -1    0    0    0    0  0.00000000000E+00  0.00000000000E+00  0.14999999963E+04  0.15000000000E+04  0.10566000000E+00 0.  1.
        994   -1    0    0    0    0 -0.00000000000E+00 -0.00000000000E+00  0.11368683772E-12  0.17120000000E+03  0.17120000000E+03 0.  0.
         13    1    1    2    0    0  0.39604725548E+02  0.93524318525E+01  0.92147595497E+02  0.10073327547E+03  0.10566000000E+00 0.  1.
        994    1    1    2    0    0 -0.41549028428E+02 -0.33852982579E+02  0.17925070148E+02  0.18028614570E+03  0.17120000000E+03 0.  0.
        998    1    1    2    0    0  0.19443028801E+01  0.24500550727E+02  0.13899273306E+04  0.13901805788E+04  0.10000000000E+02 0.  1.
</event>
<event>
 5    1  0.1279376E-008  0.3765393E+03  0.7957747E-01  0.3466367E+00
         13   -1    0    0    0    0  0.00000000000E+00  0.00000000000E+00  0.14999999963E+04  0.15000000000E+04  0.10566000000E+00 0.  1.
        994   -1    0    0    0    0 -0.00000000000E+00 -0.00000000000E+00  0.11368683772E-12  0.17120000000E+03  0.17120000000E+03 0.  0.
         13    1    1    2    0    0  0.32565329149E+02  0.97390514633E+01  0.90184898857E+02  0.96377782356E+02  0.10566000000E+00 0.  1.
        994    1    1    2    0    0 -0.33102519293E+02 -0.13604482824E+02  0.10234028184E+02  0.17519998307E+03  0.17120000000E+03 0.  0.
        998    1    1    2    0    0  0.53719014458E+00  0.38654313604E+01  0.13995810692E+04  0.13996222346E+04  0.10000000000E+02 0.  1.
</event>
<event>
 5    1  0.1279376E-008  0.3807615E+03  0.7957747E-01  0.3447849E+00
         13   -1    0    0    0    0  0.00000000000E+00  0.00000000000E+00  0.14999999963E+04  0.15000000000E+04  0.10566000000E+00 0. -1.
        994   -1    0    0    0    0 -0.00000000000E+00 -0.00000000000E+00  0.11368683772E-12  0.17120000000E+03  0.17120000000E+03 0.  0.
         13    1    1    2    0    0 -0.92873550071E+00  0.15590483648E+02  0.31714755393E+02  0.35351981609E+02  0.10566000000E+00 0. -1.
        994    1    1    2    0    0 -0.60947176538E+01 -0.47251001589E+01  0.39475829443E+01  0.17141906418E+03  0.17120000000E+03 0.  0.
        998    1    1    2    0    0  0.70234531545E+01 -0.10865383490E+02  0.14643376579E+04  0.14644289542E+04  0.10000000000E+02 0. -1.
</event>
<event>
 5    1  0.1279376E-008  0.3826575E+03  0.7957747E-01  0.3439668E+00
         13   -1    0    0    0    0  0.00000000000E+00  0.00000000000E+00  0.14999999963E+04  0.15000000000E+04  0.10566000000E+00 0.  1.
        994   -1    0    0    0    0 -0.00000000000E+00 -0.00000000000E+00  0.11368683772E-12  0.17120000000E+03  0.17120000000E+03 0.  0.
         13    1    1    2    0    0  0.29118919865E+02 -0.14128066004E+02  0.17363073852E+03  0.17662151133E+03  0.10566000000E+00 0.  1.
        994    1    1    2    0    0 -0.17833260595E+02  0.28002194224E+02  0.64585488853E+01  0.17450874167E+03  0.17120000000E+03 0.  0.
        998    1    1    2    0    0 -0.11285659270E+02 -0.13874128220E+02  0.13199107089E+04  0.13200697470E+04  0.10000000000E+02 0.  1.
</event>
<event>
 5    1  0.1279376E-008  0.3842473E+03  0.7957747E-01  0.3432871E+00
         13   -1    0    0    0    0  0.00000000000E+00  0.00000000000E+00  0.14999999963E+04  0.15000000000E+04  0.10566000000E+00 0. -1.
        994   -1    0    0    0    0 -0.00000000000E+00 -0.00000000000E+00  0.11368683772E-12  0.17120000000E+03  0.17120000000E+03 0.  0.
         13    1    1    2    0    0 -0.21259942597E+02 -0.55565803462E+01  0.11515042663E+03  0.11722837822E+03  0.10566000000E+00 0. -1.
        994    1    1    2    0    0  0.27187476549E+02 -0.22871580780E+02  0.61767466964E+01  0.17495673833E+03  0.17120000000E+03 0.  0.
        998    1    1    2    0    0 -0.59275339511E+01  0.28428161126E+02  0.13786728230E+04  0.13790148834E+04  0.10000000000E+02 0. -1.
</event>
<event>
 5    1  0.1279376E-008  0.3836414E+03  0.7957747E-01  0.3435455E+00
         13   -1    0    0    0    0  0.00000000000E+00  0.00000000000E+00  0.14999999963E+04  0.15000000000E+04  0.10566000000E+00 0. -1.
        994   -1    0    0    0    0 -0.00000000000E+00 -0.00000000000E+00  0.11368683772E-12  0.17120000000E+03  0.17120000000E+03 0.  0.
         13    1    1    2    0    0 -0.21382958151E+02 -0.26073589045E+01  0.96221379198E+02  0.98603215965E+02  0.10566000000E+00 0. -1.
        994    1    1    2    0    0  0.20722118932E+02 -0.79484349274E+01  0.39349719222E+01  0.17267746765E+03  0.17120000000E+03 0.  0.
        998    1    1    2    0    0  0.66083921928E+00  0.10555793832E+02  0.13998436452E+04  0.13999193164E+04  0.10000000000E+02 0. -1.
</event>
<event>
 5    1  0.1279376E-008  0.3780052E+03  0.7957747E-01  0.3459891E+00
         13   -1    0    0    0    0  0.00000000000E+00  0.00000000000E+00  0.14999999963E+04  0.15000000000E+04  0.10566000000E+00 0. -1.
        994   -1    0    0    0    0 -0.00000000000E+00 -0.00000000000E+00  0.11368683772E-12  0.17120000000E+03  0.17120000000E+03 0.  0.
         13    1    1    2    0    0  0.26527652953E+02  0.29841639594E+02  0.16922055210E+03  0.17386732367E+03  0.10566000000E+00 0. -1.
        994    1    1    2    0    0 -0.20942643195E+01 -0.79885350353E+01  0.53730551866E+01  0.17148327136E+03  0.17120000000E+03 0.  0.
        998    1    1    2    0    0 -0.24433388633E+02 -0.21853104559E+02  0.13254063890E+04  0.13258494050E+04  0.10000000000E+02 0. -1.
</event>
<event>
 5    1  0.1279376E-008  0.3838727E+03  0.7957747E-01  0.3434467E+00
         13   -1    0    0    0    0  0.00000000000E+00  0.00000000000E+00  0.14999999963E+04  0.15000000000E+04  0.10566000000E+00 0. -1.
        994   -1    0    0    0    0 -0.00000000000E+00 -0.00000000000E+00  0.11368683772E-12  0.17120000000E+03  0.17120000000E+03 0.  0.
         13    1    1    2    0    0  0.20873333451E+02 -0.32875464187E+01  0.10591494342E+03  0.10800227041E+03  0.10566000000E+00 0. -1.
        994    1    1    2    0    0 -0.78640273026E+01 -0.40091788066E+01  0.24480711482E+01  0.17144488762E+03  0.17120000000E+03 0.  0.
        998    1    1    2    0    0 -0.13009306148E+02  0.72967252254E+01  0.13916369817E+04  0.13917528420E+04  0.10000000000E+02 0. -1.
</event>
<event>
 5    1  0.1279376E-008  0.3808333E+03  0.7957747E-01  0.3447538E+00
         13   -1    0    0    0    0  0.00000000000E+00  0.00000000000E+00  0.14999999963E+04  0.15000000000E+04  0.10566000000E+00 0.  1.
        994   -1    0    0    0    0 -0.00000000000E+00 -0.00000000000E+00  0.11368683772E-12  0.17120000000E+03  0.17120000000E+03 0.  0.
         13    1    1    2    0    0  0.11904553383E+02  0.12710089724E+02  0.38812702508E+02  0.42540590170E+02  0.10566000000E+00 0.  1.
        994    1    1    2    0    0 -0.11639785991E+02 -0.11317258225E+02  0.45922395475E+01  0.17202933940E+03  0.17120000000E+03 0.  0.
        998    1    1    2    0    0 -0.26476739138E+00 -0.13928314989E+01  0.14565950542E+04  0.14566300704E+04  0.10000000000E+02 0.  1.
</event>
<event>
 5    1  0.1279376E-008  0.3842842E+03  0.7957747E-01  0.3432713E+00
         13   -1    0    0    0    0  0.00000000000E+00  0.00000000000E+00  0.14999999963E+04  0.15000000000E+04  0.10566000000E+00 0.  1.
        994   -1    0    0    0    0 -0.00000000000E+00 -0.00000000000E+00  0.11368683772E-12  0.17120000000E+03  0.17120000000E+03 0.  0.
         13    1    1    2    0    0 -0.13927675382E+02 -0.17488312184E+02  0.11727082788E+03  0.11938291100E+03  0.10566000000E+00 0.  1.
        994    1    1    2    0    0  0.97965256283E+01  0.21263210071E+02  0.37946892396E+01  0.17283499554E+03  0.17120000000E+03 0.  0.
        998    1    1    2    0    0  0.41311497537E+01 -0.37748978873E+01  0.13789344792E+04  0.13789820935E+04  0.10000000000E+02 0.  1.
</event>
<event>
 5    1  0.1279376E-008  0.3835641E+03  0.7957747E-01  0.3435785E+00
         13   -1    0    0    0    0  0.00000000000E+00  0.00000000000E+00  0.14999999963E+04  0.15000000000E+04  0.10566000000E+00 0.  1.
        994   -1    0    0    0    0 -0.00000000000E+00 -0.00000000000E+00  0.11368683772E-12  0.17120000000E+03  0.17120000000E+03 0.  0.
         13    1    1    2    0    0  0.44723882597E+01 -0.13360627237E+02  0.42261335565E+02  0.44548179140E+02  0.10566000000E+00 0.  1.
        994    1    1    2    0    0  0.11657783957E+01  0.70351409438E+01  0.25127433469E+01  0.17136687581E+03  0.17120000000E+03 0.  0.
        998    1    1    2    0    0 -0.56381666554E+01  0.63254862928E+01  0.14552259174E+04  0.14552849450E+04  0.10000000000E+02 0.  1.
</event>
<event>
 5    1  0.1279376E-008  0.3791999E+03  0.7957747E-01  0.3454650E+00
         13   -1    0    0    0    0  0.00000000000E+00  0.00000000000E+00  0.14999999963E+04  0.15000000000E+04  0.10566000000E+00 0. -1.
        994   -1    0    0    0    0 -0.00000000000E+00 -0.00000000000E+00  0.11368683772E-12  0.17120000000E+03  0.17120000000E+03 0.  0.
         13    1    1    2    0    0  0.20061650298E+02 -0.11180465415E+02  0.55134570090E+02  0.59726916902E+02  0.10566000000E+00 0. -1.
        994    1    1    2    0    0 -0.18458059166E+02  0.99448109872E+01  0.60123741708E+01  0.17258385746E+03  0.17120000000E+03 0.  0.
        998    1    1    2    0    0 -0.16035911318E+01  0.12356544275E+01  0.14388530520E+04  0.14388892256E+04  0.10000000000E+02 0. -1.
</event>
<event>
 5    1  0.1279376E-008  0.3848754E+03  0.7957747E-01  0.3430201E+00
         13   -1    0    0    0    0  0.00000000000E+00  0.00000000000E+00  0.14999999963E+04  0.15000000000E+04  0.10566000000E+00 0. -1.
        994   -1    0    0    0    0 -0.00000000000E+00 -0.00000000000E+00  0.11368683772E-12  0.17120000000E+03  0.17120000000E+03 0.  0.
         13    1    1    2    0    0  0.14026142845E+02 -0.12612739168E+02  0.99093700961E+02  0.10087312133E+03  0.10566000000E+00 0. -1.
        994    1    1    2    0    0 -0.13639001572E+02  0.14406347813E+02  0.29878839949E+01  0.17237149611E+03  0.17120000000E+03 0.  0.
        998    1    1    2    0    0 -0.38714127291E+00 -0.17936086451E+01  0.13979184113E+04  0.13979553826E+04  0.10000000000E+02 0. -1.
</event>
<event>
 5    1  0.1279376E-008  0.3837784E+03  0.7957747E-01  0.3434870E+00
         13   -1    0    0    0    0  0.00000000000E+00  0.00000000000E+00  0.14999999963E+04  0.15000000000E+04  0.10566000000E+00 0. -1.
        994   -1    0    0    0    0 -0.00000000000E+00 -0.00000000000E+00  0.11368683772E-12  0.17120000000E+03  0.17120000000E+03 0.  0.
         13    1    1    2    0    0 -0.14886060772E+02  0.80878297366E+01  0.59092112278E+02  0.61472731294E+02  0.10566000000E+00 0. -1.
        994    1    1    2    0    0  0.22342163197E+02 -0.11818608105E+02  0.43500247148E+01  0.17311041121E+03  0.17120000000E+03 0.  0.
        998    1    1    2    0    0 -0.74561024247E+01  0.37307783681E+01  0.14365578593E+04  0.14366168575E+04  0.10000000000E+02 0. -1.
</event>
<event>
 5    1  0.1279376E-008  0.3818277E+03  0.7957747E-01  0.3443239E+00
         13   -1    0    0    0    0  0.00000000000E+00  0.00000000000E+00  0.14999999963E+04  0.15000000000E+04  0.10566000000E+00 0. -1.
        994   -1    0    0    0    0 -0.00000000000E+00 -0.00000000000E+00  0.11368683772E-12  0.17120000000E+03  0.17120000000E+03 0.  0.
         13    1    1    2    0    0 -0.29612316299E+02 -0.19703659266E+02  0.15488038572E+03  0.15891214085E+03  0.10566000000E+00 0. -1.
        994    1    1    2    0    0  0.65317575178E+02  0.31628375655E+01  0.17555794132E+02  0.18410332717E+03  0.17120000000E+03 0.  0.
        998    1    1    2    0    0 -0.35705258879E+02  0.16540821701E+02  0.13275638164E+04  0.13281845320E+04  0.10000000000E+02 0. -1.
</event>
<event>
 5    1  0.1279376E-008  0.3729790E+03  0.7957747E-01  0.3482311E+00
         13   -1    0    0    0    0  0.00000000000E+00  0.00000000000E+00  0.14999999963E+04  0.15000000000E+04  0.10566000000E+00 0.  1.
        994   -1    0    0    0    0 -0.00000000000E+00 -0.00000000000E+00  0.11368683772E-12  0.17120000000E+03  0.17120000000E+03 0.  0.
         13    1    1    2    0    0  0.19482104146E+01  0.49257814983E+02  0.14000164269E+03  0.14842708304E+03  0.10566000000E+00 0.  1.
        994    1    1    2    0    0 -0.14117982316E+01 -0.50988110118E+02  0.16677844316E+02  0.17941396556E+03  0.17120000000E+03 0.  0.
        998    1    1    2    0    0 -0.53641218301E+00  0.17302951355E+01  0.13433205093E+04  0.13433589514E+04  0.10000000000E+02 0.  1.
</event>
<event>
 5    1  0.1279376E-008  0.3721932E+03  0.7957747E-01  0.3485872E+00
         13   -1    0    0    0    0  0.00000000000E+00  0.00000000000E+00  0.14999999963E+04  0.15000000000E+04  0.10566000000E+00 0.  1.
        994   -1    0    0    0    0 -0.00000000000E+00 -0.00000000000E+00  0.11368683772E-12  0.17120000000E+03  0.17120000000E+03 0.  0.
         13    1    1    2    0    0  0.56500599270E+02 -0.43087600555E+02  0.36010299942E+03  0.36704637363E+03  0.10566000000E+00 0.  1.
        994    1    1    2    0    0 -0.31818035539E+02 -0.54662869441E+01  0.11712359917E+02  0.17461067279E+03  0.17120000000E+03 0.  0.
        998    1    1    2    0    0 -0.24682563731E+02  0.48553887499E+02  0.11281846369E+04  0.11295429536E+04  0.10000000000E+02 0.  1.
</event>
<event>
 5    1  0.1279376E-008  0.3848743E+03  0.7957747E-01  0.3430205E+00
         13   -1    0    0    0    0  0.00000000000E+00  0.00000000000E+00  0.14999999963E+04  0.15000000000E+04  0.10566000000E+00 0. -1.
        994   -1    0    0    0    0 -0.00000000000E+00 -0.00000000000E+00  0.11368683772E-12  0.17120000000E+03  0.17120000000E+03 0.  0.
         13    1    1    2    0    0 -0.51903688588E+01  0.91871072206E+01  0.32642976547E+02  0.34306237769E+02  0.10566000000E+00 0. -1.
        994    1    1    2    0    0  0.30622958387E+01 -0.64690148296E+01  0.18610903791E+01  0.17135964947E+03  0.17120000000E+03 0.  0.
        998    1    1    2    0    0  0.21280730201E+01 -0.27180923911E+01  0.14654959294E+04  0.14655341128E+04  0.10000000000E+02 0. -1.
</event>
<event>
 5    1  0.1279376E-008  0.2331293E+03  0.7957747E-01  0.4530669E+00
         13   -1    0    0    0    0  0.00000000000E+00  0.00000000000E+00  0.14999999963E+04  0.15000000000E+04  0.10566000000E+00 0.  1.
        994   -1    0    0    0    0 -0.00000000000E+00 -0.00000000000E+00  0.11368683772E-12  0.17120000000E+03  0.17120000000E+03 0.  0.
         13    1    1    2    0    0  0.94829878141E+02 -0.12630228309E+03  0.16995845675E+03  0.23201478549E+03  0.10566000000E+00 0.  1.
        994    1    1    2    0    0 -0.95138434090E+02  0.12418484719E+03  0.19193947614E+03  0.30103720769E+03  0.17120000000E+03 0.  0.
        998    1    1    2    0    0  0.30855594898E+00  0.21174359024E+01  0.11381020634E+04  0.11381480068E+04  0.10000000000E+02 0.  0.
</event>
<event>
 5    1  0.1279376E-008  0.3908222E+03  0.7957747E-01  0.3405349E+00
         13   -1    0    0    0    0  0.00000000000E+00  0.00000000000E+00  0.14999999963E+04  0.15000000000E+04  0.10566000000E+00 0.  1.
        994   -1    0    0    0    0 -0.00000000000E+00 -0.00000000000E+00  0.11368683772E-12  0.17120000000E+03  0.17120000000E+03 0.  0.
         13    1    1    2    0    0 -0.97323346820E+02  0.16538326098E+02  0.20977396892E+03  0.23184149600E+03  0.10566000000E+00 0.  1.
        994    1    1    2    0    0  0.63301632980E+02 -0.12799099306E+02  0.38321443662E+02  0.18694621346E+03  0.17120000000E+03 0.  0.
        998    1    1    2    0    0  0.34021713840E+02 -0.37392267924E+01  0.12519045837E+04  0.12524122905E+04  0.10000000000E+02 0.  1.
</event>
<event>
 5    1  0.1279376E-008  0.3857736E+03  0.7957747E-01  0.3426398E+00
         13   -1    0    0    0    0  0.00000000000E+00  0.00000000000E+00  0.14999999963E+04  0.15000000000E+04  0.10566000000E+00 0. -1.
        994   -1    0    0    0    0 -0.00000000000E+00 -0.00000000000E+00  0.11368683772E-12  0.17120000000E+03  0.17120000000E+03 0.  0.
         13    1    1    2    0    0  0.41930587998E+02 -0.62565785097E+02  0.15108937277E+03  0.16882138906E+03  0.10566000000E+00 0. -1.
        994    1    1    2    0    0 -0.70884750228E+01  0.26635868423E+02  0.22352861347E+02  0.17483937307E+03  0.17120000000E+03 0.  0.
        998    1    1    2    0    0 -0.34842112975E+02  0.35929916674E+02  0.13265577622E+04  0.13275392379E+04  0.10000000000E+02 0. -1.
</event>
<event>
 5    1  0.1279376E-008  0.3848652E+03  0.7957747E-01  0.3430244E+00
         13   -1    0    0    0    0  0.00000000000E+00  0.00000000000E+00  0.14999999963E+04  0.15000000000E+04  0.10566000000E+00 0. -1.
        994   -1    0    0    0    0 -0.00000000000E+00 -0.00000000000E+00  0.11368683772E-12  0.17120000000E+03  0.17120000000E+03 0.  0.
         13    1    1    2    0    0 -0.54713252512E+01 -0.10617413954E+02  0.42075911489E+02  0.43738522731E+02  0.10566000000E+00 0. -1.
        994    1    1    2    0    0  0.11642806383E+02  0.19726862683E+01  0.21560224327E+01  0.17162032183E+03  0.17120000000E+03 0.  0.
        998    1    1    2    0    0 -0.61714811317E+01  0.86447276854E+01  0.14557680624E+04  0.14558411554E+04  0.10000000000E+02 0. -1.
</event>
<event>
 5    1  0.1279376E-008  0.3748792E+03  0.7957747E-01  0.3473763E+00
         13   -1    0    0    0    0  0.00000000000E+00  0.00000000000E+00  0.14999999963E+04  0.15000000000E+04  0.10566000000E+00 0. -1.
        994   -1    0    0    0    0 -0.00000000000E+00 -0.00000000000E+00  0.11368683772E-12  0.17120000000E+03  0.17120000000E+03 0.  0.
         13    1    1    2    0    0 -0.22171337431E+02  0.57734778845E+02  0.12653517791E+03  0.14084046047E+03  0.10566000000E+00 0. -1.
        994    1    1    2    0    0  0.27443347039E+02 -0.54030551398E+02  0.26722427311E+02  0.18356460961E+03  0.17120000000E+03 0.  0.
        998    1    1    2    0    0 -0.52720096075E+01 -0.37042274469E+01  0.13467423911E+04  0.13467949299E+04  0.10000000000E+02 0. -1.
</event>
<event>
 5    1  0.1279376E-008  0.3849148E+03  0.7957747E-01  0.3430034E+00
         13   -1    0    0    0    0  0.00000000000E+00  0.00000000000E+00  0.14999999963E+04  0.15000000000E+04  0.10566000000E+00 0.  1.
        994   -1    0    0    0    0 -0.00000000000E+00 -0.00000000000E+00  0.11368683772E-12  0.17120000000E+03  0.17120000000E+03 0.  0.
         13    1    1    2    0    0  0.13421759022E+02  0.61357922964E+01  0.73796062174E+02  0.75257302096E+02  0.10566000000E+00 0.  1.
        994    1    1    2    0    0  0.90650026956E+01  0.11390103740E+01  0.19470845009E+01  0.17145466677E+03  0.17120000000E+03 0.  0.
        998    1    1    2    0    0 -0.22486761717E+02 -0.72748026704E+01  0.14242568496E+04  0.14244880311E+04  0.10000000000E+02 0.  1.
</event>
<event>
 5    1  0.1279376E-008  0.3788533E+03  0.7957747E-01  0.3456167E+00
         13   -1    0    0    0    0  0.00000000000E+00  0.00000000000E+00  0.14999999963E+04  0.15000000000E+04  0.10566000000E+00 0. -1.
        994   -1    0    0    0    0 -0.00000000000E+00 -0.00000000000E+00  0.11368683772E-12  0.17120000000E+03  0.17120000000E+03 0.  0.
         13    1    1    2    0    0  0.11895672730E+02  0.18473233224E+02  0.48200586553E+02  0.52972399261E+02  0.10566000000E+00 0. -1.
        994    1    1    2    0    0 -0.52956089820E+01 -0.22102382677E+02  0.64484243693E+01  0.17282239719E+03  0.17120000000E+03 0.  0.
        998    1    1    2    0    0 -0.66000637481E+01  0.36291494535E+01  0.14453509854E+04  0.14454052035E+04  0.10000000000E+02 0. -1.
</event>
<event>
 5    1  0.1279376E-008  0.3811887E+03  0.7957747E-01  0.3445999E+00
         13   -1    0    0    0    0  0.00000000000E+00  0.00000000000E+00  0.14999999963E+04  0.15000000000E+04  0.10566000000E+00 0.  1.
        994   -1    0    0    0    0 -0.00000000000E+00 -0.00000000000E+00  0.11368683772E-12  0.17120000000E+03  0.17120000000E+03 0.  0.
         13    1    1    2    0    0  0.12401175155E+02 -0.22906050667E+02  0.91958321737E+02  0.95576254389E+02  0.10566000000E+00 0.  1.
        994    1    1    2    0    0 -0.14289613773E+02  0.17066477287E+02  0.51858135108E+01  0.17271881881E+03  0.17120000000E+03 0.  0.
        998    1    1    2    0    0  0.18884386180E+01  0.58395733795E+01  0.14028558610E+04  0.14029049268E+04  0.10000000000E+02 0.  1.
</event>
<event>
 5    1  0.1279376E-008  0.3816219E+03  0.7957747E-01  0.3444127E+00
         13   -1    0    0    0    0  0.00000000000E+00  0.00000000000E+00  0.14999999963E+04  0.15000000000E+04  0.10566000000E+00 0.  1.
        994   -1    0    0    0    0 -0.00000000000E+00 -0.00000000000E+00  0.11368683772E-12  0.17120000000E+03  0.17120000000E+03 0.  0.
         13    1    1    2    0    0  0.26961873114E+02  0.15522094872E+02  0.15346587641E+03  0.15658756151E+03  0.10566000000E+00 0.  1.
        994    1    1    2    0    0 -0.77045157257E+01 -0.72314190310E+01  0.36879987082E+01  0.17156542285E+03  0.17120000000E+03 0.  0.
        998    1    1    2    0    0 -0.19257357389E+02 -0.82906758407E+01  0.13428461212E+04  0.13430470156E+04  0.10000000000E+02 0.  1.
</event>
<event>
 5    1  0.1279376E-008  0.3818713E+03  0.7957747E-01  0.3443051E+00
         13   -1    0    0    0    0  0.00000000000E+00  0.00000000000E+00  0.14999999963E+04  0.15000000000E+04  0.10566000000E+00 0.  1.
        994   -1    0    0    0    0 -0.00000000000E+00 -0.00000000000E+00  0.11368683772E-12  0.17120000000E+03  0.17120000000E+03 0.  0.
         13    1    1    2    0    0 -0.27724739040E+01  0.13789631053E+02  0.29690714735E+02  0.32854074962E+02  0.10566000000E+00 0.  1.
        994    1    1    2    0    0 -0.10624848372E+01 -0.11190663483E+02  0.36114117843E+01  0.17160664940E+03  0.17120000000E+03 0.  0.
        998    1    1    2    0    0  0.38349587413E+01 -0.25989675699E+01  0.14666978698E+04  0.14667392756E+04  0.10000000000E+02 0.  1.
</event>
<event>
 5    1  0.1279376E-008  0.3769780E+03  0.7957747E-01  0.3464423E+00
         13   -1    0    0    0    0  0.00000000000E+00  0.00000000000E+00  0.14999999963E+04  0.15000000000E+04  0.10566000000E+00 0.  1.
        994   -1    0    0    0    0 -0.00000000000E+00 -0.00000000000E+00  0.11368683772E-12  0.17120000000E+03  0.17120000000E+03 0.  0.
         13    1    1    2    0    0  0.11044149322E+02  0.21021257473E+02  0.45661928209E+02  0.51467362006E+02  0.10566000000E+00 0.  1.
        994    1    1    2    0    0 -0.20527224628E+02 -0.20966704380E+02  0.85791699906E+01  0.17390805560E+03  0.17120000000E+03 0.  0.
        998    1    1    2    0    0  0.94830753055E+01 -0.54553092484E-01  0.14457588981E+04  0.14458245824E+04  0.10000000000E+02 0.  1.
</event>
<event>
 5    1  0.1279376E-008  0.3810013E+03  0.7957747E-01  0.3446810E+00
         13   -1    0    0    0    0  0.00000000000E+00  0.00000000000E+00  0.14999999963E+04  0.15000000000E+04  0.10566000000E+00 0.  1.
        994   -1    0    0    0    0 -0.00000000000E+00 -0.00000000000E+00  0.11368683772E-12  0.17120000000E+03  0.17120000000E+03 0.  0.
         13    1    1    2    0    0  0.22826252656E+02  0.60833283420E+02  0.38714147612E+03  0.39255605954E+03  0.10566000000E+00 0.  1.
        994    1    1    2    0    0 -0.21430812559E+02 -0.71457563164E+02  0.22399916050E+02  0.18808683978E+03  0.17120000000E+03 0.  0.
        998    1    1    2    0    0 -0.13954400976E+01  0.10624279744E+02  0.10904586041E+04  0.10905571007E+04  0.10000000000E+02 0.  1.
</event>
<event>
 5    1  0.1279376E-008  0.3800561E+03  0.7957747E-01  0.3450914E+00
         13   -1    0    0    0    0  0.00000000000E+00  0.00000000000E+00  0.14999999963E+04  0.15000000000E+04  0.10566000000E+00 0. -1.
        994   -1    0    0    0    0 -0.00000000000E+00 -0.00000000000E+00  0.11368683772E-12  0.17120000000E+03  0.17120000000E+03 0.  0.
         13    1    1    2    0    0 -0.14756223515E+02 -0.38161276355E+01  0.27670314449E+02  0.31590606647E+02  0.10566000000E+00 0. -1.
        994    1    1    2    0    0 -0.29932134863E+01  0.30327179384E+01  0.41655105278E+01  0.17130367242E+03  0.17120000000E+03 0.  0.
        998    1    1    2    0    0  0.17749437002E+02  0.78340969715E+00  0.14681641713E+04  0.14683057209E+04  0.10000000000E+02 0. -1.
</event>
<event>
 5    1  0.1279376E-008  0.3858833E+03  0.7957747E-01  0.3425935E+00
         13   -1    0    0    0    0  0.00000000000E+00  0.00000000000E+00  0.14999999963E+04  0.15000000000E+04  0.10566000000E+00 0.  1.
        994   -1    0    0    0    0 -0.00000000000E+00 -0.00000000000E+00  0.11368683772E-12  0.17120000000E+03  0.17120000000E+03 0.  0.
         13    1    1    2    0    0  0.99441534944E+01 -0.11585780248E+01  0.45741347597E+02  0.46824251577E+02  0.10566000000E+00 0.  1.
        994    1    1    2    0    0  0.43277133621E+01 -0.75809920958E+01  0.14421678245E+01  0.17142847019E+03  0.17120000000E+03 0.  0.
        998    1    1    2    0    0 -0.14271866857E+02  0.87395701206E+01  0.14528164809E+04  0.14529472782E+04  0.10000000000E+02 0.  1.
</event>
<event>
 5    1  0.1279376E-008  0.3843874E+03  0.7957747E-01  0.3432274E+00
         13   -1    0    0    0    0  0.00000000000E+00  0.00000000000E+00  0.14999999963E+04  0.15000000000E+04  0.10566000000E+00 0.  1.
        994   -1    0    0    0    0 -0.00000000000E+00 -0.00000000000E+00  0.11368683772E-12  0.17120000000E+03  0.17120000000E+03 0.  0.
         13    1    1    2    0    0  0.22017737965E+02  0.42648940194E+01  0.12682978980E+03  0.12879742564E+03  0.10566000000E+00 0.  1.
        994    1    1    2    0    0 -0.16120157514E+02 -0.40017321490E+01  0.28441661349E+01  0.17202733102E+03  0.17120000000E+03 0.  0.
        998    1    1    2    0    0 -0.58975804506E+01 -0.26316187049E+00  0.13703260403E+04  0.13703752433E+04  0.10000000000E+02 0.  1.
</event>
<event>
 5    1  0.1279376E-008  0.4026723E+03  0.7957747E-01  0.3358014E+00
         13   -1    0    0    0    0  0.00000000000E+00  0.00000000000E+00  0.14999999963E+04  0.15000000000E+04  0.10566000000E+00 0. -1.
        994   -1    0    0    0    0 -0.00000000000E+00 -0.00000000000E+00  0.11368683772E-12  0.17120000000E+03  0.17120000000E+03 0.  0.
         13    1    1    2    0    0  0.24991666709E+02 -0.40953115187E+02  0.26887739838E+02  0.54997297806E+02  0.10566000000E+00 0. -1.
        994    1    1    2    0    0 -0.26051485465E+02  0.49688095859E+02  0.41949294065E+02  0.18497775552E+03  0.17120000000E+03 0.  0.
        998    1    1    2    0    0  0.10598187564E+01 -0.87349806722E+01  0.14311629624E+04  0.14312249467E+04  0.10000000000E+02 0. -1.
</event>
<event>
 5    1  0.1279376E-008  0.3777382E+03  0.7957747E-01  0.3461066E+00
         13   -1    0    0    0    0  0.00000000000E+00  0.00000000000E+00  0.14999999963E+04  0.15000000000E+04  0.10566000000E+00 0. -1.
        994   -1    0    0    0    0 -0.00000000000E+00 -0.00000000000E+00  0.11368683772E-12  0.17120000000E+03  0.17120000000E+03 0.  0.
         13    1    1    2    0    0 -0.24233249407E+02 -0.13810928434E+02  0.75571853594E+02  0.80555001960E+02  0.10566000000E+00 0. -1.
        994    1    1    2    0    0  0.43258179958E+01  0.21454075055E+01  0.53578105503E+01  0.17135186491E+03  0.17120000000E+03 0.  0.
        998    1    1    2    0    0  0.19907431411E+02  0.11665520928E+02  0.14190703321E+04  0.14192931331E+04  0.10000000000E+02 0. -1.
</event>
<event>
 5    1  0.1279376E-008  0.3854816E+03  0.7957747E-01  0.3427632E+00
         13   -1    0    0    0    0  0.00000000000E+00  0.00000000000E+00  0.14999999963E+04  0.15000000000E+04  0.10566000000E+00 0. -1.
        994   -1    0    0    0    0 -0.00000000000E+00 -0.00000000000E+00  0.11368683772E-12  0.17120000000E+03  0.17120000000E+03 0.  0.
         13    1    1    2    0    0 -0.13348650966E+02  0.19419235410E+01  0.62153595131E+02  0.63600614002E+02  0.10566000000E+00 0. -1.
        994    1    1    2    0    0  0.17664492413E+02  0.69842062758E+00  0.24180688001E+01  0.17212730504E+03  0.17120000000E+03 0.  0.
        998    1    1    2    0    0 -0.43158414461E+01 -0.26403441685E+01  0.14354283323E+04  0.14354720810E+04  0.10000000000E+02 0. -1.
</event>
<event>
 5    1  0.1279376E-008  0.3798338E+03  0.7957747E-01  0.3451883E+00
         13   -1    0    0    0    0  0.00000000000E+00  0.00000000000E+00  0.14999999963E+04  0.15000000000E+04  0.10566000000E+00 0.  1.
        994   -1    0    0    0    0 -0.00000000000E+00 -0.00000000000E+00  0.11368683772E-12  0.17120000000E+03  0.17120000000E+03 0.  0.
         13    1    1    2    0    0  0.46564912639E+02 -0.27314543777E+02  0.28528826856E+03  0.29035113696E+03  0.10566000000E+00 0.  1.
        994    1    1    2    0    0 -0.42360683287E+02  0.31136502794E+02  0.13517696596E+02  0.17959977009E+03  0.17120000000E+03 0.  0.
        998    1    1    2    0    0 -0.42042293517E+01 -0.38219590166E+01  0.12011940311E+04  0.12012490930E+04  0.10000000000E+02 0.  1.
</event>
<event>
 5    1  0.1279376E-008  0.3861839E+03  0.7957747E-01  0.3424666E+00
         13   -1    0    0    0    0  0.00000000000E+00  0.00000000000E+00  0.14999999963E+04  0.15000000000E+04  0.10566000000E+00 0. -1.
        994   -1    0    0    0    0 -0.00000000000E+00 -0.00000000000E+00  0.11368683772E-12  0.17120000000E+03  0.17120000000E+03 0.  0.
         13    1    1    2    0    0 -0.32716565784E+01 -0.11564344055E+02  0.72052836385E+02  0.73048341427E+02  0.10566000000E+00 0. -1.
        994    1    1    2    0    0 -0.14203772799E+02  0.96009183458E+01  0.20069832163E+01  0.17206798882E+03  0.17120000000E+03 0.  0.
        998    1    1    2    0    0  0.17475429378E+02  0.19634257088E+01  0.14259401767E+04  0.14260836698E+04  0.10000000000E+02 0. -1.
</event>
<event>
 5    1  0.1279376E-008  0.3758680E+03  0.7957747E-01  0.3469350E+00
         13   -1    0    0    0    0  0.00000000000E+00  0.00000000000E+00  0.14999999963E+04  0.15000000000E+04  0.10566000000E+00 0. -1.
        994   -1    0    0    0    0 -0.00000000000E+00 -0.00000000000E+00  0.11368683772E-12  0.17120000000E+03  0.17120000000E+03 0.  0.
         13    1    1    2    0    0  0.13824234314E+02  0.54433901519E+01  0.14956756014E+02  0.21082117190E+02  0.10566000000E+00 0. -1.
        994    1    1    2    0    0 -0.10118984270E+02 -0.48428609006E+01  0.66603232891E+01  0.17169638042E+03  0.17120000000E+03 0.  0.
        998    1    1    2    0    0 -0.37052500442E+01 -0.60052925126E+00  0.14783829170E+04  0.14784215024E+04  0.10000000000E+02 0. -1.
</event>
<event>
 5    1  0.1279376E-008  0.3758158E+03  0.7957747E-01  0.3469582E+00
         13   -1    0    0    0    0  0.00000000000E+00  0.00000000000E+00  0.14999999963E+04  0.15000000000E+04  0.10566000000E+00 0.  1.
        994   -1    0    0    0    0 -0.00000000000E+00 -0.00000000000E+00  0.11368683772E-12  0.17120000000E+03  0.17120000000E+03 0.  0.
         13    1    1    2    0    0 -0.53602895708E+02 -0.37414349253E+01  0.21122637083E+03  0.21795380167E+03  0.10566000000E+00 0.  1.
        994    1    1    2    0    0  0.44416847711E+02 -0.87717118244E+01  0.13240797971E+02  0.17757972300E+03  0.17120000000E+03 0.  0.
        998    1    1    2    0    0  0.91860479978E+01  0.12513146750E+02  0.12755328275E+04  0.12756664753E+04  0.10000000000E+02 0.  1.
</event>
<event>
 5    1  0.1279376E-008  0.3809065E+03  0.7957747E-01  0.3447221E+00
         13   -1    0    0    0    0  0.00000000000E+00  0.00000000000E+00  0.14999999963E+04  0.15000000000E+04  0.10566000000E+00 0.  1.
        994   -1    0    0    0    0 -0.00000000000E+00 -0.00000000000E+00  0.11368683772E-12  0.17120000000E+03  0.17120000000E+03 0.  0.
         13    1    1    2    0    0 -0.30201813291E+02  0.29222059962E+02  0.18129983058E+03  0.18610673831E+03  0.10566000000E+00 0.  1.
        994    1    1    2    0    0  0.42820311795E+02 -0.46927075910E+02  0.17246090663E+02  0.18341918438E+03  0.17120000000E+03 0.  0.
        998    1    1    2    0    0 -0.12618498505E+02  0.17705015948E+02  0.13014540750E+04  0.13016740773E+04  0.10000000000E+02 0.  1.
</event>
<event>
 5    1  0.1279376E-008  0.3818657E+03  0.7957747E-01  0.3443075E+00
         13   -1    0    0    0    0  0.00000000000E+00  0.00000000000E+00  0.14999999963E+04  0.15000000000E+04  0.10566000000E+00 0. -1.
        994   -1    0    0    0    0 -0.00000000000E+00 -0.00000000000E+00  0.11368683772E-12  0.17120000000E+03  0.17120000000E+03 0.  0.
         13    1    1    2    0    0 -0.57573585695E+01  0.19944949291E+02  0.72144879324E+02  0.75072251575E+02  0.10566000000E+00 0. -1.
        994    1    1    2    0    0  0.39300379514E+01  0.47339956084E+01  0.33200836130E+01  0.17134269424E+03  0.17120000000E+03 0.  0.
        998    1    1    2    0    0  0.18273206181E+01 -0.24678944899E+02  0.14245350333E+04  0.14247850542E+04  0.10000000000E+02 0. -1.
</event>
<event>
 5    1  0.1279376E-008  0.3778488E+03  0.7957747E-01  0.3460579E+00
         13   -1    0    0    0    0  0.00000000000E+00  0.00000000000E+00  0.14999999963E+04  0.15000000000E+04  0.10566000000E+00 0. -1.
        994   -1    0    0    0    0 -0.00000000000E+00 -0.00000000000E+00  0.11368683772E-12  0.17120000000E+03  0.17120000000E+03 0.  0.
         13    1    1    2    0    0  0.13975556067E+03  0.17136025448E+03  0.10771343474E+04  0.10995973659E+04  0.10566000000E+00 0. -1.
        994    1    1    2    0    0 -0.15643991577E+03 -0.15336915408E+03  0.18889009207E+03  0.33613159856E+03  0.17120000000E+03 0.  0.
        998    1    1    2    0    0  0.16684355105E+02 -0.17991100395E+02  0.23397555677E+03  0.23547103551E+03  0.10000000000E+02 0. -1.
</event>
<event>
 5    1  0.1279376E-008  0.3825690E+03  0.7957747E-01  0.3440048E+00
         13   -1    0    0    0    0  0.00000000000E+00  0.00000000000E+00  0.14999999963E+04  0.15000000000E+04  0.10566000000E+00 0. -1.
        994   -1    0    0    0    0 -0.00000000000E+00 -0.00000000000E+00  0.11368683772E-12  0.17120000000E+03  0.17120000000E+03 0.  0.
         13    1    1    2    0    0 -0.15639849415E+02 -0.68010109670E+01  0.94685966103E+02  0.96209677168E+02  0.10566000000E+00 0. -1.
        994    1    1    2    0    0 -0.10106330227E+03  0.45197029417E+02  0.44592445595E+02  0.20869712202E+03  0.17120000000E+03 0.  0.
        998    1    1    2    0    0  0.11670315169E+03 -0.38396018450E+02  0.13607215846E+04  0.13662932008E+04  0.10000000000E+02 0. -1.
</event>
<event>
 5    1  0.1279376E-008  0.3711133E+03  0.7957747E-01  0.3490790E+00
         13   -1    0    0    0    0  0.00000000000E+00  0.00000000000E+00  0.14999999963E+04  0.15000000000E+04  0.10566000000E+00 0.  1.
        994   -1    0    0    0    0 -0.00000000000E+00 -0.00000000000E+00  0.11368683772E-12  0.17120000000E+03  0.17120000000E+03 0.  0.
         13    1    1    2    0    0  0.33057741711E+02 -0.41533892232E+02  0.18323939320E+03  0.19077359585E+03  0.10566000000E+00 0.  1.
        994    1    1    2    0    0  0.10100788304E+01  0.65536743252E+01  0.88398100612E+01  0.17155626817E+03  0.17120000000E+03 0.  0.
        998    1    1    2    0    0 -0.34067820541E+02  0.34980217907E+02  0.13079207930E+04  0.13088701360E+04  0.10000000000E+02 0.  1.
</event>
<event>
 5    1  0.1279376E-008  0.3859072E+03  0.7957747E-01  0.3425834E+00
         13   -1    0    0    0    0  0.00000000000E+00  0.00000000000E+00  0.14999999963E+04  0.15000000000E+04  0.10566000000E+00 0. -1.
        994   -1    0    0    0    0 -0.00000000000E+00 -0.00000000000E+00  0.11368683772E-12  0.17120000000E+03  0.17120000000E+03 0.  0.
         13    1    1    2    0    0 -0.24637624094E+02  0.42656464701E+02  0.49512501210E+02  0.69843292032E+02  0.10566000000E+00 0. -1.
        994    1    1    2    0    0  0.35029997054E+02 -0.64750216550E+02  0.39974127335E+02  0.19059659518E+03  0.17120000000E+03 0.  0.
        998    1    1    2    0    0 -0.10392372960E+02  0.22093751849E+02  0.14105133677E+04  0.14107601128E+04  0.10000000000E+02 0. -1.
</event>
<event>
 5    1  0.1279376E-008  0.3751226E+03  0.7957747E-01  0.3472675E+00
         13   -1    0    0    0    0  0.00000000000E+00  0.00000000000E+00  0.14999999963E+04  0.15000000000E+04  0.10566000000E+00 0. -1.
        994   -1    0    0    0    0 -0.00000000000E+00 -0.00000000000E+00  0.11368683772E-12  0.17120000000E+03  0.17120000000E+03 0.  0.
         13    1    1    2    0    0 -0.15895840045E+02 -0.82307981742E+01  0.22204964338E+02  0.28521840309E+02  0.10566000000E+00 0. -1.
        994    1    1    2    0    0 -0.45056969913E+00 -0.42087959182E+01  0.66766836224E+01  0.17138242349E+03  0.17120000000E+03 0.  0.
        998    1    1    2    0    0  0.16346409744E+02  0.12439594092E+02  0.14711183483E+04  0.14712957362E+04  0.10000000000E+02 0. -1.
</event>
<event>
 5    1  0.1279376E-008  0.3739211E+03  0.7957747E-01  0.3478062E+00
         13   -1    0    0    0    0  0.00000000000E+00  0.00000000000E+00  0.14999999963E+04  0.15000000000E+04  0.10566000000E+00 0.  1.
        994   -1    0    0    0    0 -0.00000000000E+00 -0.00000000000E+00  0.11368683772E-12  0.17120000000E+03  0.17120000000E+03 0.  0.
         13    1    1    2    0    0  0.29330528234E+01 -0.57821017569E+02  0.21207029899E+03  0.21983106184E+03  0.10566000000E+00 0.  1.
        994    1    1    2    0    0 -0.51642488233E+01  0.46558972657E+02  0.14757464316E+02  0.17810567131E+03  0.17120000000E+03 0.  0.
        998    1    1    2    0    0  0.22311960000E+01  0.11262044913E+02  0.12731722330E+04  0.12732632668E+04  0.10000000000E+02 0.  1.
</event>
<event>
 5    1  0.1279376E-008  0.3811495E+03  0.7957747E-01  0.3446169E+00
         13   -1    0    0    0    0  0.00000000000E+00  0.00000000000E+00  0.14999999963E+04  0.15000000000E+04  0.10566000000E+00 0. -1.
        994   -1    0    0    0    0 -0.00000000000E+00 -0.00000000000E+00  0.11368683772E-12  0.17120000000E+03  0.17120000000E+03 0.  0.
         13    1    1    2    0    0 -0.31866786632E+02 -0.53303058266E+02  0.32538288929E+03  0.33125631151E+03  0.10566000000E+00 0. -1.
        994    1    1    2    0    0  0.38971317767E+02  0.79520887931E+02  0.30127721900E+02  0.19508832577E+03  0.17120000000E+03 0.  0.
        998    1    1    2    0    0 -0.71045311357E+01 -0.26217829665E+02  0.11444893851E+04  0.11448553627E+04  0.10000000000E+02 0. -1.
</event>
<event>
 5    1  0.1279376E-008  0.3852045E+03  0.7957747E-01  0.3428805E+00
         13   -1    0    0    0    0  0.00000000000E+00  0.00000000000E+00  0.14999999963E+04  0.15000000000E+04  0.10566000000E+00 0. -1.
        994   -1    0    0    0    0 -0.00000000000E+00 -0.00000000000E+00  0.11368683772E-12  0.17120000000E+03  0.17120000000E+03 0.  0.
         13    1    1    2    0    0 -0.85673918705E+01  0.58543586985E+01  0.34281655007E+02  0.35817827311E+02  0.10566000000E+00 0. -1.
        994    1    1    2    0    0  0.11338707413E+02 -0.49127340913E+01  0.20306602496E+01  0.17165740538E+03  0.17120000000E+03 0.  0.
        998    1    1    2    0    0 -0.27713155425E+01 -0.94162460720E+00  0.14636876810E+04  0.14637247673E+04  0.10000000000E+02 0. -1.
</event>
<event>
 5    1  0.1279376E-008  0.3811189E+03  0.7957747E-01  0.3446301E+00
         13   -1    0    0    0    0  0.00000000000E+00  0.00000000000E+00  0.14999999963E+04  0.15000000000E+04  0.10566000000E+00 0.  1.
        994   -1    0    0    0    0 -0.00000000000E+00 -0.00000000000E+00  0.11368683772E-12  0.17120000000E+03  0.17120000000E+03 0.  0.
         13    1    1    2    0    0 -0.27849974941E+02 -0.81183628091E+01  0.11053532651E+03  0.11427860031E+03  0.10566000000E+00 0.  1.
        994    1    1    2    0    0  0.25469836123E+02  0.90366714248E+01  0.60057612438E+01  0.17342399820E+03  0.17120000000E+03 0.  0.
        998    1    1    2    0    0  0.23801388180E+01 -0.91830861565E+00  0.13834589085E+04  0.13834974015E+04  0.10000000000E+02 0.  1.
</event>
<event>
 5    1  0.1279376E-008  0.3808249E+03  0.7957747E-01  0.3447574E+00
         13   -1    0    0    0    0  0.00000000000E+00  0.00000000000E+00  0.14999999963E+04  0.15000000000E+04  0.10566000000E+00 0. -1.
        994   -1    0    0    0    0 -0.00000000000E+00 -0.00000000000E+00  0.11368683772E-12  0.17120000000E+03  0.17120000000E+03 0.  0.
         13    1    1    2    0    0  0.22957235344E+02  0.10786816542E+01  0.67666313897E+02  0.71462853352E+02  0.10566000000E+00 0. -1.
        994    1    1    2    0    0 -0.21175807751E+02 -0.39249231676E+01  0.52651300030E+01  0.17262960769E+03  0.17120000000E+03 0.  0.
        998    1    1    2    0    0 -0.17814275927E+01  0.28462415134E+01  0.14270685524E+04  0.14271075390E+04  0.10000000000E+02 0. -1.
</event>
<event>
 5    1  0.1279376E-008  0.3806093E+03  0.7957747E-01  0.3448510E+00
         13   -1    0    0    0    0  0.00000000000E+00  0.00000000000E+00  0.14999999963E+04  0.15000000000E+04  0.10566000000E+00 0. -1.
        994   -1    0    0    0    0 -0.00000000000E+00 -0.00000000000E+00  0.11368683772E-12  0.17120000000E+03  0.17120000000E+03 0.  0.
         13    1    1    2    0    0  0.84893876530E+01 -0.69991356266E+01  0.14667256746E+02  0.18335680700E+02  0.10566000000E+00 0. -1.
        994    1    1    2    0    0  0.47954279481E+01 -0.27008391190E+01  0.39269419876E+01  0.17133345130E+03  0.17120000000E+03 0.  0.
        998    1    1    2    0    0 -0.13284815601E+02  0.96999747456E+01  0.14814057975E+04  0.14815308680E+04  0.10000000000E+02 0. -1.
</event>
<event>
 5    1  0.1279376E-008  0.3859768E+03  0.7957747E-01  0.3425540E+00
         13   -1    0    0    0    0  0.00000000000E+00  0.00000000000E+00  0.14999999963E+04  0.15000000000E+04  0.10566000000E+00 0.  1.
        994   -1    0    0    0    0 -0.00000000000E+00 -0.00000000000E+00  0.11368683772E-12  0.17120000000E+03  0.17120000000E+03 0.  0.
         13    1    1    2    0    0 -0.11429687252E+02 -0.27559464208E+01  0.60718853698E+02  0.61846773156E+02  0.10566000000E+00 0.  1.
        994    1    1    2    0    0  0.85012305391E+01  0.10188552753E+01  0.13862949434E+01  0.17141957531E+03  0.17120000000E+03 0.  0.
        998    1    1    2    0    0  0.29284567133E+01  0.17370911456E+01  0.14378948476E+04  0.14379336515E+04  0.10000000000E+02 0.  1.
</event>
<event>
 5    1  0.1279376E-008  0.3738450E+03  0.7957747E-01  0.3478405E+00
         13   -1    0    0    0    0  0.00000000000E+00  0.00000000000E+00  0.14999999963E+04  0.15000000000E+04  0.10566000000E+00 0. -1.
        994   -1    0    0    0    0 -0.00000000000E+00 -0.00000000000E+00  0.11368683772E-12  0.17120000000E+03  0.17120000000E+03 0.  0.
         13    1    1    2    0    0 -0.28919377312E+02  0.18744332506E+02  0.42063811739E+02  0.54378817634E+02  0.10566000000E+00 0. -1.
        994    1    1    2    0    0  0.94045051226E+01 -0.58262234803E+01  0.13420370183E+02  0.17208118994E+03  0.17120000000E+03 0.  0.
        998    1    1    2    0    0  0.19514872189E+02 -0.12918109025E+02  0.14445158144E+04  0.14447399924E+04  0.10000000000E+02 0. -1.
</event>
<event>
 5    1  0.1279376E-008  0.3856647E+03  0.7957747E-01  0.3426858E+00
         13   -1    0    0    0    0  0.00000000000E+00  0.00000000000E+00  0.14999999963E+04  0.15000000000E+04  0.10566000000E+00 0. -1.
        994   -1    0    0    0    0 -0.00000000000E+00 -0.00000000000E+00  0.11368683772E-12  0.17120000000E+03  0.17120000000E+03 0.  0.
         13    1    1    2    0    0 -0.13690467287E+02 -0.74499039920E+01  0.90085140865E+02  0.91423595055E+02  0.10566000000E+00 0. -1.
        994    1    1    2    0    0  0.12605930473E+02  0.88014513317E+01  0.20765357888E+01  0.17190150386E+03  0.17120000000E+03 0.  0.
        998    1    1    2    0    0  0.10845368136E+01 -0.13515473396E+01  0.14078383196E+04  0.14078749011E+04  0.10000000000E+02 0. -1.
</event>
<event>
 5    1  0.1384512E-008  0.3865032E+03  0.7957747E-01  0.3423322E+00
         13   -1    0    0    0    0  0.00000000000E+00  0.00000000000E+00  0.14999999963E+04  0.15000000000E+04  0.10566000000E+00 0.  1.
        994   -1    0    0    0    0 -0.00000000000E+00 -0.00000000000E+00  0.11368683772E-12  0.17120000000E+03  0.17120000000E+03 0.  0.
         13    1    1    2    0    0 -0.12830707185E+01 -0.99328037892E+01  0.59618957136E+02  0.60454429744E+02  0.10566000000E+00 0.  1.
        994    1    1    2    0    0  0.80004997322E+01  0.22306100924E+01  0.11114479014E+01  0.17140495598E+03  0.17120000000E+03 0.  0.
        998    1    1    2    0    0 -0.67174290137E+01  0.77021936968E+01  0.14392695912E+04  0.14393406143E+04  0.10000000000E+02 0.  1.
</event>
<event>
 5    1  0.1279376E-008  0.3826730E+03  0.7957747E-01  0.3439601E+00
         13   -1    0    0    0    0  0.00000000000E+00  0.00000000000E+00  0.14999999963E+04  0.15000000000E+04  0.10566000000E+00 0. -1.
        994   -1    0    0    0    0 -0.00000000000E+00 -0.00000000000E+00  0.11368683772E-12  0.17120000000E+03  0.17120000000E+03 0.  0.
         13    1    1    2    0    0  0.26601719636E+02  0.32134521652E+02  0.25008962225E+03  0.25354508335E+03  0.10566000000E+00 0. -1.
        994    1    1    2    0    0 -0.74202934280E+01 -0.56896606022E+02  0.13776982975E+02  0.18108431680E+03  0.17120000000E+03 0.  0.
        998    1    1    2    0    0 -0.19181426208E+02  0.24762084370E+02  0.12361333911E+04  0.12365705998E+04  0.10000000000E+02 0. -1.
</event>
<event>
 5    1  0.1279376E-008  0.3784046E+03  0.7957747E-01  0.3458135E+00
         13   -1    0    0    0    0  0.00000000000E+00  0.00000000000E+00  0.14999999963E+04  0.15000000000E+04  0.10566000000E+00 0. -1.
        994   -1    0    0    0    0 -0.00000000000E+00 -0.00000000000E+00  0.11368683772E-12  0.17120000000E+03  0.17120000000E+03 0.  0.
         13    1    1    2    0    0 -0.60124797983E+02  0.75028929510E+01  0.32041158547E+03  0.32609029425E+03  0.10566000000E+00 0. -1.
        994    1    1    2    0    0  0.49254109883E+02 -0.17358967066E+02  0.14161426302E+02  0.17954745076E+03  0.17120000000E+03 0.  0.
        998    1    1    2    0    0  0.10870688100E+02  0.98560741148E+01  0.11654269845E+04  0.11655622550E+04  0.10000000000E+02 0. -1.
</event>
<event>
 5    1  0.1279376E-008  0.3851370E+03  0.7957747E-01  0.3429091E+00
         13   -1    0    0    0    0  0.00000000000E+00  0.00000000000E+00  0.14999999963E+04  0.15000000000E+04  0.10566000000E+00 0. -1.
        994   -1    0    0    0    0 -0.00000000000E+00 -0.00000000000E+00  0.11368683772E-12  0.17120000000E+03  0.17120000000E+03 0.  0.
         13    1    1    2    0    0 -0.15114506778E+02  0.99446781958E+01  0.10326109732E+03  0.10483420398E+03  0.10566000000E+00 0. -1.
        994    1    1    2    0    0  0.68661907225E+01 -0.14356735150E+02  0.23950899944E+01  0.17195475241E+03  0.17120000000E+03 0.  0.
        998    1    1    2    0    0  0.82483160552E+01  0.44120569541E+01  0.13943438090E+04  0.13944110436E+04  0.10000000000E+02 0. -1.
</event>
<event>
 5    1  0.1279376E-008  0.3830788E+03  0.7957747E-01  0.3437861E+00
         13   -1    0    0    0    0  0.00000000000E+00  0.00000000000E+00  0.14999999963E+04  0.15000000000E+04  0.10566000000E+00 0.  1.
        994   -1    0    0    0    0 -0.00000000000E+00 -0.00000000000E+00  0.11368683772E-12  0.17120000000E+03  0.17120000000E+03 0.  0.
         13    1    1    2    0    0  0.73634761745E+01  0.19265966362E+02  0.85321919159E+02  0.87779492447E+02  0.10566000000E+00 0.  1.
        994    1    1    2    0    0  0.46892527458E+01 -0.74618633266E+01  0.28440464932E+01  0.17145027587E+03  0.17120000000E+03 0.  0.
        998    1    1    2    0    0 -0.12052728920E+02 -0.11804103035E+02  0.14118340306E+04  0.14119702317E+04  0.10000000000E+02 0.  1.
</event>
<event>
 5    1  0.1279376E-008  0.3780227E+03  0.7957747E-01  0.3459813E+00
         13   -1    0    0    0    0  0.00000000000E+00  0.00000000000E+00  0.14999999963E+04  0.15000000000E+04  0.10566000000E+00 0.  1.
        994   -1    0    0    0    0 -0.00000000000E+00 -0.00000000000E+00  0.11368683772E-12  0.17120000000E+03  0.17120000000E+03 0.  0.
         13    1    1    2    0    0 -0.55226257196E+02  0.81397157399E+01  0.32172816089E+03  0.32653516676E+03  0.10566000000E+00 0.  1.
        994    1    1    2    0    0  0.34450513983E+02  0.39539114796E+02  0.14445157654E+02  0.17963374430E+03  0.17120000000E+03 0.  0.
        998    1    1    2    0    0  0.20775743213E+02 -0.47678830536E+02  0.11638266777E+04  0.11650310889E+04  0.10000000000E+02 0.  1.
</event>
<event>
 5    1  0.1279376E-008  0.3986814E+03  0.7957747E-01  0.3373642E+00
         13   -1    0    0    0    0  0.00000000000E+00  0.00000000000E+00  0.14999999963E+04  0.15000000000E+04  0.10566000000E+00 0. -1.
        994   -1    0    0    0    0 -0.00000000000E+00 -0.00000000000E+00  0.11368683772E-12  0.17120000000E+03  0.17120000000E+03 0.  0.
         13    1    1    2    0    0 -0.11925567347E+03 -0.37930574081E+02  0.22568849243E+03  0.25806191289E+03  0.10566000000E+00 0. -1.
        994    1    1    2    0    0  0.12657199074E+03  0.43907206798E+02  0.10093021120E+03  0.23967615481E+03  0.17120000000E+03 0.  0.
        998    1    1    2    0    0 -0.73163172750E+01 -0.59766327167E+01  0.11733812926E+04  0.11734619323E+04  0.10000000000E+02 0. -1.
</event>
<event>
 5    1  0.1279376E-008  0.3798031E+03  0.7957747E-01  0.3452016E+00
         13   -1    0    0    0    0  0.00000000000E+00  0.00000000000E+00  0.14999999963E+04  0.15000000000E+04  0.10566000000E+00 0.  1.
        994   -1    0    0    0    0 -0.00000000000E+00 -0.00000000000E+00  0.11368683772E-12  0.17120000000E+03  0.17120000000E+03 0.  0.
         13    1    1    2    0    0  0.33958687891E+02  0.43898167385E+01  0.19272938378E+03  0.19574751470E+03  0.10566000000E+00 0.  1.
        994    1    1    2    0    0  0.23029130306E+02  0.12959129268E+02  0.65719071725E+01  0.17335198250E+03  0.17120000000E+03 0.  0.
        998    1    1    2    0    0 -0.56987818197E+02 -0.17348946007E+02  0.13006987053E+04  0.13021005028E+04  0.10000000000E+02 0.  1.
</event>
<event>
 5    1  0.1279376E-008  0.3840625E+03  0.7957747E-01  0.3433658E+00
         13   -1    0    0    0    0  0.00000000000E+00  0.00000000000E+00  0.14999999963E+04  0.15000000000E+04  0.10566000000E+00 0. -1.
        994   -1    0    0    0    0 -0.00000000000E+00 -0.00000000000E+00  0.11368683772E-12  0.17120000000E+03  0.17120000000E+03 0.  0.
         13    1    1    2    0    0  0.23680365605E+01  0.18241341071E+02  0.80477835129E+02  0.82553299343E+02  0.10566000000E+00 0. -1.
        994    1    1    2    0    0 -0.11591244458E+02 -0.10163974897E+02  0.28806491558E+01  0.17191684465E+03  0.17120000000E+03 0.  0.
        998    1    1    2    0    0  0.92232078973E+01 -0.80773661738E+01  0.14166415120E+04  0.14167298560E+04  0.10000000000E+02 0. -1.
</event>
<event>
 5    1  0.1279376E-008  0.3839896E+03  0.7957747E-01  0.3433969E+00
         13   -1    0    0    0    0  0.00000000000E+00  0.00000000000E+00  0.14999999963E+04  0.15000000000E+04  0.10566000000E+00 0. -1.
        994   -1    0    0    0    0 -0.00000000000E+00 -0.00000000000E+00  0.11368683772E-12  0.17120000000E+03  0.17120000000E+03 0.  0.
         13    1    1    2    0    0 -0.17610902697E+02 -0.12908222711E+02  0.10696373077E+03  0.10916967057E+03  0.10566000000E+00 0. -1.
        994    1    1    2    0    0  0.22041357664E+02  0.27341844602E+01  0.37619183237E+01  0.17267567646E+03  0.17120000000E+03 0.  0.
        998    1    1    2    0    0 -0.44304549667E+01  0.10174038251E+02  0.13892743472E+04  0.13893546530E+04  0.10000000000E+02 0. -1.
</event>
<event>
 5    1  0.1279376E-008  0.3791286E+03  0.7957747E-01  0.3454961E+00
         13   -1    0    0    0    0  0.00000000000E+00  0.00000000000E+00  0.14999999963E+04  0.15000000000E+04  0.10566000000E+00 0.  1.
        994   -1    0    0    0    0 -0.00000000000E+00 -0.00000000000E+00  0.11368683772E-12  0.17120000000E+03  0.17120000000E+03 0.  0.
         13    1    1    2    0    0 -0.19458963205E+02 -0.10135912311E+02  0.54193388764E+02  0.58466422134E+02  0.10566000000E+00 0.  1.
        994    1    1    2    0    0 -0.50695113228E+01  0.43732429577E+01  0.47239501052E+01  0.17139597692E+03  0.17120000000E+03 0.  0.
        998    1    1    2    0    0  0.24528474528E+02  0.57626693532E+01  0.14410826574E+04  0.14413376009E+04  0.10000000000E+02 0.  1.
</event>
<event>
 5    1  0.1279376E-008  0.3856784E+03  0.7957747E-01  0.3426800E+00
         13   -1    0    0    0    0  0.00000000000E+00  0.00000000000E+00  0.14999999963E+04  0.15000000000E+04  0.10566000000E+00 0.  1.
        994   -1    0    0    0    0 -0.00000000000E+00 -0.00000000000E+00  0.11368683772E-12  0.17120000000E+03  0.17120000000E+03 0.  0.
         13    1    1    2    0    0  0.83619847950E+01  0.93063523191E+01  0.47637079991E+02  0.49252751571E+02  0.10566000000E+00 0.  1.
        994    1    1    2    0    0 -0.19256966726E+02 -0.51063183552E+02  0.11128399702E+02  0.18003211036E+03  0.17120000000E+03 0.  0.
        998    1    1    2    0    0  0.10894981931E+02  0.41756831232E+02  0.14412345166E+04  0.14419151381E+04  0.10000000000E+02 0.  1.
</event>
<event>
 5    1  0.1279376E-008  0.3836953E+03  0.7957747E-01  0.3435224E+00
         13   -1    0    0    0    0  0.00000000000E+00  0.00000000000E+00  0.14999999963E+04  0.15000000000E+04  0.10566000000E+00 0. -1.
        994   -1    0    0    0    0 -0.00000000000E+00 -0.00000000000E+00  0.11368683772E-12  0.17120000000E+03  0.17120000000E+03 0.  0.
         13    1    1    2    0    0 -0.14965757917E+02  0.92026003446E+01  0.66859388540E+02  0.69129232334E+02  0.10566000000E+00 0. -1.
        994    1    1    2    0    0  0.88726269832E+01 -0.89424802096E+01  0.28035318429E+01  0.17168573398E+03  0.17120000000E+03 0.  0.
        998    1    1    2    0    0  0.60931309334E+01 -0.26012013498E+00  0.14303370759E+04  0.14303850337E+04  0.10000000000E+02 0. -1.
</event>
<event>
 5    1  0.1279376E-008  0.3849718E+03  0.7957747E-01  0.3429792E+00
         13   -1    0    0    0    0  0.00000000000E+00  0.00000000000E+00  0.14999999963E+04  0.15000000000E+04  0.10566000000E+00 0.  1.
        994   -1    0    0    0    0 -0.00000000000E+00 -0.00000000000E+00  0.11368683772E-12  0.17120000000E+03  0.17120000000E+03 0.  0.
         13    1    1    2    0    0 -0.78127214630E+01 -0.76092645100E+01  0.36554061776E+02  0.38146429969E+02  0.10566000000E+00 0.  1.
        994    1    1    2    0    0  0.12491023829E+01  0.47009267978E+01  0.17219389265E+01  0.17127773949E+03  0.17120000000E+03 0.  0.
        998    1    1    2    0    0  0.65636190801E+01  0.29083377122E+01  0.14617239956E+04  0.14617758305E+04  0.10000000000E+02 0.  1.
</event>
<event>
 5    1  0.1279376E-008  0.3790317E+03  0.7957747E-01  0.3455385E+00
         13   -1    0    0    0    0  0.00000000000E+00  0.00000000000E+00  0.14999999963E+04  0.15000000000E+04  0.10566000000E+00 0.  1.
        994   -1    0    0    0    0 -0.00000000000E+00 -0.00000000000E+00  0.11368683772E-12  0.17120000000E+03  0.17120000000E+03 0.  0.
         13    1    1    2    0    0 -0.12044040445E+02 -0.11650679193E+02  0.30494750681E+02  0.34795663796E+02  0.10566000000E+00 0.  1.
        994    1    1    2    0    0 -0.35055301570E+02  0.19618549667E+02  0.10053791682E+02  0.17613710678E+03  0.17120000000E+03 0.  0.
        998    1    1    2    0    0  0.47099342015E+02 -0.79678704742E+01  0.14594514539E+04  0.14602672294E+04  0.10000000000E+02 0.  1.
</event>
<event>
 5    1  0.1279376E-008  0.3733594E+03  0.7957747E-01  0.3480593E+00
         13   -1    0    0    0    0  0.00000000000E+00  0.00000000000E+00  0.14999999963E+04  0.15000000000E+04  0.10566000000E+00 0. -1.
        994   -1    0    0    0    0 -0.00000000000E+00 -0.00000000000E+00  0.11368683772E-12  0.17120000000E+03  0.17120000000E+03 0.  0.
         13    1    1    2    0    0  0.43894837663E+02  0.61093664555E+02  0.26196278927E+03  0.27255037470E+03  0.10566000000E+00 0. -1.
        994    1    1    2    0    0 -0.84828143813E+02 -0.62147827339E+02  0.46319913166E+02  0.20618714989E+03  0.17120000000E+03 0.  0.
        998    1    1    2    0    0  0.40933306149E+02  0.10541627845E+01  0.11917172938E+04  0.11924624754E+04  0.10000000000E+02 0. -1.
</event>
<event>
 5    1  0.1279376E-008  0.3817073E+03  0.7957747E-01  0.3443758E+00
         13   -1    0    0    0    0  0.00000000000E+00  0.00000000000E+00  0.14999999963E+04  0.15000000000E+04  0.10566000000E+00 0. -1.
        994   -1    0    0    0    0 -0.00000000000E+00 -0.00000000000E+00  0.11368683772E-12  0.17120000000E+03  0.17120000000E+03 0.  0.
         13    1    1    2    0    0 -0.12218712835E+02 -0.34867382179E+02  0.18157527042E+03  0.18529603686E+03  0.10566000000E+00 0. -1.
        994    1    1    2    0    0  0.10742497670E+02  0.37501905466E+02  0.83490424363E+01  0.17578663396E+03  0.17120000000E+03 0.  0.
        998    1    1    2    0    0  0.14762151648E+01 -0.26345232878E+01  0.13100756834E+04  0.13101173292E+04  0.10000000000E+02 0. -1.
</event>
<event>
 5    1  0.1279376E-008  0.3852326E+03  0.7957747E-01  0.3428686E+00
         13   -1    0    0    0    0  0.00000000000E+00  0.00000000000E+00  0.14999999963E+04  0.15000000000E+04  0.10566000000E+00 0.  1.
        994   -1    0    0    0    0 -0.00000000000E+00 -0.00000000000E+00  0.11368683772E-12  0.17120000000E+03  0.17120000000E+03 0.  0.
         13    1    1    2    0    0  0.90024473494E+01 -0.17261846123E+02  0.10647173678E+03  0.10823704212E+03  0.10566000000E+00 0.  1.
        994    1    1    2    0    0 -0.25695128755E+02  0.23367504177E+02  0.54888204267E+01  0.17477370238E+03  0.17120000000E+03 0.  0.
        998    1    1    2    0    0  0.16692681406E+02 -0.61056580541E+01  0.13880394391E+04  0.13881892555E+04  0.10000000000E+02 0.  1.
</event>
<event>
 5    1  0.1279376E-008  0.3752518E+03  0.7957747E-01  0.3472097E+00
         13   -1    0    0    0    0  0.00000000000E+00  0.00000000000E+00  0.14999999963E+04  0.15000000000E+04  0.10566000000E+00 0. -1.
        994   -1    0    0    0    0 -0.00000000000E+00 -0.00000000000E+00  0.11368683772E-12  0.17120000000E+03  0.17120000000E+03 0.  0.
         13    1    1    2    0    0  0.55439315712E+02 -0.23676793694E+02  0.11225588307E+03  0.12741861219E+03  0.10566000000E+00 0. -1.
        994    1    1    2    0    0 -0.68969838245E+02  0.29797767649E+02  0.34131496193E+02  0.19005037379E+03  0.17120000000E+03 0.  0.
        998    1    1    2    0    0  0.13530522532E+02 -0.61209739548E+01  0.13536126170E+04  0.13537310140E+04  0.10000000000E+02 0. -1.
</event>
<event>
 5    1  0.1279376E-008  0.3797827E+03  0.7957747E-01  0.3452105E+00
         13   -1    0    0    0    0  0.00000000000E+00  0.00000000000E+00  0.14999999963E+04  0.15000000000E+04  0.10566000000E+00 0.  1.
        994   -1    0    0    0    0 -0.00000000000E+00 -0.00000000000E+00  0.11368683772E-12  0.17120000000E+03  0.17120000000E+03 0.  0.
         13    1    1    2    0    0 -0.35824305112E+02  0.71558309398E+01  0.15094705107E+03  0.15530489414E+03  0.10566000000E+00 0.  1.
        994    1    1    2    0    0  0.25855173004E+02 -0.60970000205E+01  0.66071324663E+01  0.17337461631E+03  0.17120000000E+03 0.  0.
        998    1    1    2    0    0  0.99691321083E+01 -0.10588309193E+01  0.13424458127E+04  0.13425204896E+04  0.10000000000E+02 0.  1.
</event>
<event>
 5    1  0.1279376E-008  0.3779376E+03  0.7957747E-01  0.3460188E+00
         13   -1    0    0    0    0  0.00000000000E+00  0.00000000000E+00  0.14999999963E+04  0.15000000000E+04  0.10566000000E+00 0.  1.
        994   -1    0    0    0    0 -0.00000000000E+00 -0.00000000000E+00  0.11368683772E-12  0.17120000000E+03  0.17120000000E+03 0.  0.
         13    1    1    2    0    0  0.75637408793E+01 -0.19111005093E+02  0.39023122075E+02  0.44105055405E+02  0.10566000000E+00 0.  1.
        994    1    1    2    0    0 -0.31470641840E+01  0.11064187221E+02  0.56233682728E+01  0.17167813641E+03  0.17120000000E+03 0.  0.
        998    1    1    2    0    0 -0.44166766953E+01  0.80468178725E+01  0.14553535059E+04  0.14554168082E+04  0.10000000000E+02 0.  1.
</event>
<event>
 5    1  0.1279376E-008  0.2981700E+03  0.7957747E-01  0.3909171E+00
         13   -1    0    0    0    0  0.00000000000E+00  0.00000000000E+00  0.14999999963E+04  0.15000000000E+04  0.10566000000E+00 0. -1.
        994   -1    0    0    0    0 -0.00000000000E+00 -0.00000000000E+00  0.11368683772E-12  0.17120000000E+03  0.17120000000E+03 0.  0.
         13    1    1    2    0    0 -0.18851272972E+03 -0.65531134367E+01  0.63993064433E+03  0.66715158193E+03  0.10566000000E+00 0. -1.
        994    1    1    2    0    0  0.17823033815E+03  0.74088790253E+02  0.16652339373E+03  0.30707439317E+03  0.17120000000E+03 0.  0.
        998    1    1    2    0    0  0.10282391563E+02 -0.67535676816E+02  0.69354595822E+03  0.69697402490E+03  0.10000000000E+02 0. -1.
</event>
<event>
 5    1  0.1279376E-008  0.3848458E+03  0.7957747E-01  0.3430327E+00
         13   -1    0    0    0    0  0.00000000000E+00  0.00000000000E+00  0.14999999963E+04  0.15000000000E+04  0.10566000000E+00 0.  1.
        994   -1    0    0    0    0 -0.00000000000E+00 -0.00000000000E+00  0.11368683772E-12  0.17120000000E+03  0.17120000000E+03 0.  0.
         13    1    1    2    0    0  0.32219006964E+01  0.18846796104E+02  0.11191519654E+03  0.11353679910E+03  0.10566000000E+00 0.  1.
        994    1    1    2    0    0  0.27537895907E+00 -0.68444193326E+01  0.18611281548E+01  0.17134709133E+03  0.17120000000E+03 0.  0.
        998    1    1    2    0    0 -0.34972796555E+01 -0.12002376771E+02  0.13862236716E+04  0.13863161096E+04  0.10000000000E+02 0.  1.
</event>
<event>
 5    1  0.1279376E-008  0.3746479E+03  0.7957747E-01  0.3474799E+00
         13   -1    0    0    0    0  0.00000000000E+00  0.00000000000E+00  0.14999999963E+04  0.15000000000E+04  0.10566000000E+00 0. -1.
        994   -1    0    0    0    0 -0.00000000000E+00 -0.00000000000E+00  0.11368683772E-12  0.17120000000E+03  0.17120000000E+03 0.  0.
         13    1    1    2    0    0 -0.17028928133E+02 -0.46651421609E+00  0.18062787428E+02  0.24828964590E+02  0.10566000000E+00 0. -1.
        994    1    1    2    0    0  0.15244101868E+02 -0.94796763181E+01  0.79571115525E+01  0.17232237965E+03  0.17120000000E+03 0.  0.
        998    1    1    2    0    0  0.17848262654E+01  0.99461905342E+01  0.14739800973E+04  0.14740486558E+04  0.10000000000E+02 0. -1.
</event>
<event>
 5    1  0.1279376E-008  0.3808485E+03  0.7957747E-01  0.3447472E+00
         13   -1    0    0    0    0  0.00000000000E+00  0.00000000000E+00  0.14999999963E+04  0.15000000000E+04  0.10566000000E+00 0. -1.
        994   -1    0    0    0    0 -0.00000000000E+00 -0.00000000000E+00  0.11368683772E-12  0.17120000000E+03  0.17120000000E+03 0.  0.
         13    1    1    2    0    0  0.21211222874E+01  0.15378411559E+02  0.37648942123E+02  0.40724055654E+02  0.10566000000E+00 0. -1.
        994    1    1    2    0    0  0.39052772365E+02  0.38796849206E+02  0.13873990923E+02  0.18036696527E+03  0.17120000000E+03 0.  0.
        998    1    1    2    0    0 -0.41173894653E+02 -0.54175260765E+02  0.14484770632E+04  0.14501089791E+04  0.10000000000E+02 0. -1.
</event>
<event>
 5    1  0.1279376E-008  0.3840492E+03  0.7957747E-01  0.3433715E+00
         13   -1    0    0    0    0  0.00000000000E+00  0.00000000000E+00  0.14999999963E+04  0.15000000000E+04  0.10566000000E+00 0. -1.
        994   -1    0    0    0    0 -0.00000000000E+00 -0.00000000000E+00  0.11368683772E-12  0.17120000000E+03  0.17120000000E+03 0.  0.
         13    1    1    2    0    0 -0.13103732873E+02 -0.12401314594E+02  0.80586115023E+02  0.82581072392E+02  0.10566000000E+00 0. -1.
        994    1    1    2    0    0  0.51635441576E+01  0.87976746908E+00  0.21934611668E+01  0.17129415475E+03  0.17120000000E+03 0.  0.
        998    1    1    2    0    0  0.79401887156E+01  0.11521547125E+02  0.14172204201E+04  0.14173247729E+04  0.10000000000E+02 0. -1.
</event>
<event>
 5    1  0.1279376E-008  0.3809114E+03  0.7957747E-01  0.3447200E+00
         13   -1    0    0    0    0  0.00000000000E+00  0.00000000000E+00  0.14999999963E+04  0.15000000000E+04  0.10566000000E+00 0.  1.
        994   -1    0    0    0    0 -0.00000000000E+00 -0.00000000000E+00  0.11368683772E-12  0.17120000000E+03  0.17120000000E+03 0.  0.
         13    1    1    2    0    0 -0.22068209253E+02  0.22957488138E+02  0.12197440501E+03  0.12606275724E+03  0.10566000000E+00 0.  1.
        994    1    1    2    0    0  0.23814998647E+02 -0.30465611304E+02  0.86735576089E+01  0.17572699916E+03  0.17120000000E+03 0.  0.
        998    1    1    2    0    0 -0.17467893938E+01  0.75081231661E+01  0.13693520337E+04  0.13694102436E+04  0.10000000000E+02 0.  1.
</event>
<event>
 5    1  0.1279376E-008  0.3829482E+03  0.7957747E-01  0.3438421E+00
         13   -1    0    0    0    0  0.00000000000E+00  0.00000000000E+00  0.14999999963E+04  0.15000000000E+04  0.10566000000E+00 0.  1.
        994   -1    0    0    0    0 -0.00000000000E+00 -0.00000000000E+00  0.11368683772E-12  0.17120000000E+03  0.17120000000E+03 0.  0.
         13    1    1    2    0    0  0.21617055397E+02  0.15464101446E+02  0.15872896041E+03  0.16093890007E+03  0.10566000000E+00 0.  1.
        994    1    1    2    0    0  0.10814955824E+02 -0.51136739731E+01  0.31262004966E+01  0.17164593226E+03  0.17120000000E+03 0.  0.
        998    1    1    2    0    0 -0.32432011221E+02 -0.10350427473E+02  0.13381448354E+04  0.13386151677E+04  0.10000000000E+02 0. -1.
</event>
<event>
 5    1  0.1279376E-008  0.3801292E+03  0.7957747E-01  0.3450596E+00
         13   -1    0    0    0    0  0.00000000000E+00  0.00000000000E+00  0.14999999963E+04  0.15000000000E+04  0.10566000000E+00 0.  1.
        994   -1    0    0    0    0 -0.00000000000E+00 -0.00000000000E+00  0.11368683772E-12  0.17120000000E+03  0.17120000000E+03 0.  0.
         13    1    1    2    0    0  0.14348560054E+02 -0.19448182885E+02  0.70820689663E+02  0.74831104773E+02  0.10566000000E+00 0.  1.
        994    1    1    2    0    0 -0.83523656949E+01  0.10867297828E+02  0.46959422120E+01  0.17181196713E+03  0.17120000000E+03 0.  0.
        998    1    1    2    0    0 -0.59961943591E+01  0.85808850579E+01  0.14244833644E+04  0.14245569281E+04  0.10000000000E+02 0.  1.
</event>
<event>
 5    1  0.1279376E-008  0.3845086E+03  0.7957747E-01  0.3431759E+00
         13   -1    0    0    0    0  0.00000000000E+00  0.00000000000E+00  0.14999999963E+04  0.15000000000E+04  0.10566000000E+00 0. -1.
        994   -1    0    0    0    0 -0.00000000000E+00 -0.00000000000E+00  0.11368683772E-12  0.17120000000E+03  0.17120000000E+03 0.  0.
         13    1    1    2    0    0 -0.34782948582E+01 -0.93997971534E+01  0.25081399111E+02  0.27010043818E+02  0.10566000000E+00 0. -1.
        994    1    1    2    0    0  0.16261632971E+02  0.14910572068E+02  0.34793025314E+01  0.17265083670E+03  0.17120000000E+03 0.  0.
        998    1    1    2    0    0 -0.12783338112E+02 -0.55107749148E+01  0.14714392946E+04  0.14715391195E+04  0.10000000000E+02 0. -1.
</event>
<event>
 5    1  0.1279376E-008  0.3689189E+03  0.7957747E-01  0.3500874E+00
         13   -1    0    0    0    0  0.00000000000E+00  0.00000000000E+00  0.14999999963E+04  0.15000000000E+04  0.10566000000E+00 0.  1.
        994   -1    0    0    0    0 -0.00000000000E+00 -0.00000000000E+00  0.11368683772E-12  0.17120000000E+03  0.17120000000E+03 0.  0.
         13    1    1    2    0    0  0.37450179014E+02 -0.38319190632E+02  0.13460488863E+03  0.14487706335E+03  0.10566000000E+00 0.  1.
        994    1    1    2    0    0 -0.35172269030E+02  0.12664544765E+02  0.15251158039E+02  0.17589632465E+03  0.17120000000E+03 0.  0.
        998    1    1    2    0    0 -0.22779099838E+01  0.25654645868E+02  0.13501439496E+04  0.13504266120E+04  0.10000000000E+02 0.  1.
</event>
<event>
 5    1  0.1279376E-008  0.3840938E+03  0.7957747E-01  0.3433525E+00
         13   -1    0    0    0    0  0.00000000000E+00  0.00000000000E+00  0.14999999963E+04  0.15000000000E+04  0.10566000000E+00 0.  1.
        994   -1    0    0    0    0 -0.00000000000E+00 -0.00000000000E+00  0.11368683772E-12  0.17120000000E+03  0.17120000000E+03 0.  0.
         13    1    1    2    0    0 -0.68456957310E+01  0.10933915135E+02  0.38709398769E+02  0.40802484818E+02  0.10566000000E+00 0.  1.
        994    1    1    2    0    0  0.11046467898E+02 -0.87269211809E+01  0.27346798503E+01  0.17179959860E+03  0.17120000000E+03 0.  0.
        998    1    1    2    0    0 -0.42007721671E+01 -0.22069939542E+01  0.14585559177E+04  0.14585979166E+04  0.10000000000E+02 0.  1.
</event>
<event>
 5    1  0.1279376E-008  0.3851498E+03  0.7957747E-01  0.3429037E+00
         13   -1    0    0    0    0  0.00000000000E+00  0.00000000000E+00  0.14999999963E+04  0.15000000000E+04  0.10566000000E+00 0. -1.
        994   -1    0    0    0    0 -0.00000000000E+00 -0.00000000000E+00  0.11368683772E-12  0.17120000000E+03  0.17120000000E+03 0.  0.
         13    1    1    2    0    0 -0.50830954768E+01 -0.15963041209E+02  0.94467594299E+02  0.95941618086E+02  0.10566000000E+00 0. -1.
        994    1    1    2    0    0  0.31185247487E+01  0.44089286046E+01  0.16516703679E+01  0.17129311680E+03  0.17120000000E+03 0.  0.
        998    1    1    2    0    0  0.19645707281E+01  0.11554112604E+02  0.14038807316E+04  0.14039652651E+04  0.10000000000E+02 0.  0.
</event>
<event>
 5    1  0.1279376E-008  0.3846238E+03  0.7957747E-01  0.3431269E+00
         13   -1    0    0    0    0  0.00000000000E+00  0.00000000000E+00  0.14999999963E+04  0.15000000000E+04  0.10566000000E+00 0. -1.
        994   -1    0    0    0    0 -0.00000000000E+00 -0.00000000000E+00  0.11368683772E-12  0.17120000000E+03  0.17120000000E+03 0.  0.
         13    1    1    2    0    0 -0.70483060923E+01  0.78317993314E+01  0.29562306441E+02  0.31384021822E+02  0.10566000000E+00 0. -1.
        994    1    1    2    0    0  0.64370564457E+01 -0.10455332028E+02  0.23135399658E+01  0.17165530033E+03  0.17120000000E+03 0.  0.
        998    1    1    2    0    0  0.61124964661E+00  0.26235326965E+01  0.14681241499E+04  0.14681606779E+04  0.10000000000E+02 0. -1.
</event>
<event>
 5    1  0.1279376E-008  0.3844047E+03  0.7957747E-01  0.3432201E+00
         13   -1    0    0    0    0  0.00000000000E+00  0.00000000000E+00  0.14999999963E+04  0.15000000000E+04  0.10566000000E+00 0.  1.
        994   -1    0    0    0    0 -0.00000000000E+00 -0.00000000000E+00  0.11368683772E-12  0.17120000000E+03  0.17120000000E+03 0.  0.
         13    1    1    2    0    0 -0.14757904957E+02 -0.98600021648E+00  0.53909281126E+02  0.55901607408E+02  0.10566000000E+00 0.  1.
        994    1    1    2    0    0  0.18444047651E+02  0.30018563883E+01  0.30774039969E+01  0.17224431616E+03  0.17120000000E+03 0.  0.
        998    1    1    2    0    0 -0.36861426938E+01 -0.20158561718E+01  0.14430133112E+04  0.14430540764E+04  0.10000000000E+02 0.  1.
</event>
<event>
 5    1  0.1279376E-008  0.3795519E+03  0.7957747E-01  0.3453112E+00
         13   -1    0    0    0    0  0.00000000000E+00  0.00000000000E+00  0.14999999963E+04  0.15000000000E+04  0.10566000000E+00 0. -1.
        994   -1    0    0    0    0 -0.00000000000E+00 -0.00000000000E+00  0.11368683772E-12  0.17120000000E+03  0.17120000000E+03 0.  0.
         13    1    1    2    0    0 -0.16207012829E+02  0.20653563311E+02  0.83971320879E+02  0.87979718325E+02  0.10566000000E+00 0. -1.
        994    1    1    2    0    0  0.68199150106E+01  0.63815970853E+01  0.46516078080E+01  0.17151767687E+03  0.17120000000E+03 0.  0.
        998    1    1    2    0    0  0.93870978188E+01 -0.27035160396E+02  0.14113770676E+04  0.14117026048E+04  0.10000000000E+02 0. -1.
</event>
<event>
 5    1  0.1279376E-008  0.3782911E+03  0.7957747E-01  0.3458634E+00
         13   -1    0    0    0    0  0.00000000000E+00  0.00000000000E+00  0.14999999963E+04  0.15000000000E+04  0.10566000000E+00 0.  1.
        994   -1    0    0    0    0 -0.00000000000E+00 -0.00000000000E+00  0.11368683772E-12  0.17120000000E+03  0.17120000000E+03 0.  0.
         13    1    1    2    0    0 -0.13467024806E+02  0.68794048121E+01  0.20606381554E+02  0.25560146566E+02  0.10566000000E+00 0.  1.
        994    1    1    2    0    0  0.10257128560E+02 -0.96702178562E+01  0.56666658740E+01  0.17187283934E+03  0.17120000000E+03 0.  0.
        998    1    1    2    0    0  0.32098962462E+01  0.27908130441E+01  0.14737269489E+04  0.14737670141E+04  0.10000000000E+02 0.  1.
</event>
<event>
 5    1  0.1279376E-008  0.3815810E+03  0.7957747E-01  0.3444303E+00
         13   -1    0    0    0    0  0.00000000000E+00  0.00000000000E+00  0.14999999963E+04  0.15000000000E+04  0.10566000000E+00 0.  1.
        994   -1    0    0    0    0 -0.00000000000E+00 -0.00000000000E+00  0.11368683772E-12  0.17120000000E+03  0.17120000000E+03 0.  0.
         13    1    1    2    0    0 -0.56976892931E+01  0.27495803847E+02  0.11868325149E+03  0.12195986324E+03  0.10566000000E+00 0.  1.
        994    1    1    2    0    0  0.10286435434E+02 -0.12923607451E+02  0.42450081947E+01  0.17204734952E+03  0.17120000000E+03 0.  0.
        998    1    1    2    0    0 -0.45887461413E+01 -0.14572196397E+02  0.13770717366E+04  0.13771927872E+04  0.10000000000E+02 0.  1.
</event>
<event>
 5    1  0.1279376E-008  0.3690473E+03  0.7957747E-01  0.3500281E+00
         13   -1    0    0    0    0  0.00000000000E+00  0.00000000000E+00  0.14999999963E+04  0.15000000000E+04  0.10566000000E+00 0.  1.
        994   -1    0    0    0    0 -0.00000000000E+00 -0.00000000000E+00  0.11368683772E-12  0.17120000000E+03  0.17120000000E+03 0.  0.
         13    1    1    2    0    0 -0.89568091026E+02  0.87231556700E+02  0.41844328164E+03  0.43672254182E+03  0.10566000000E+00 0.  1.
        994    1    1    2    0    0  0.10767635577E+03 -0.11500334968E+03  0.10154133162E+03  0.25385044821E+03  0.17120000000E+03 0.  0.
        998    1    1    2    0    0 -0.18108264743E+02  0.27771792978E+02  0.98001538302E+03  0.98062700998E+03  0.10000000000E+02 0.  1.
</event>
<event>
 5    1  0.1279376E-008  0.3827048E+03  0.7957747E-01  0.3439465E+00
         13   -1    0    0    0    0  0.00000000000E+00  0.00000000000E+00  0.14999999963E+04  0.15000000000E+04  0.10566000000E+00 0. -1.
        994   -1    0    0    0    0 -0.00000000000E+00 -0.00000000000E+00  0.11368683772E-12  0.17120000000E+03  0.17120000000E+03 0.  0.
         13    1    1    2    0    0 -0.37044795678E+01 -0.24557689629E+02  0.10641159761E+03  0.10927141693E+03  0.10566000000E+00 0. -1.
        994    1    1    2    0    0 -0.90178522117E-01  0.21251052527E+02  0.42717283955E+01  0.17256680744E+03  0.17120000000E+03 0.  0.
        998    1    1    2    0    0  0.37946580899E+01  0.33066371019E+01  0.13893166703E+04  0.13893617756E+04  0.10000000000E+02 0. -1.
</event>
<event>
 5    1  0.1279376E-008  0.4134979E+03  0.7957747E-01  0.3317126E+00
         13   -1    0    0    0    0  0.00000000000E+00  0.00000000000E+00  0.14999999963E+04  0.15000000000E+04  0.10566000000E+00 0. -1.
        994   -1    0    0    0    0 -0.00000000000E+00 -0.00000000000E+00  0.11368683772E-12  0.17120000000E+03  0.17120000000E+03 0.  0.
         13    1    1    2    0    0  0.11461446655E+02  0.55104004637E+02  0.37800519553E+02  0.67799015693E+02  0.10566000000E+00 0. -1.
        994    1    1    2    0    0  0.29611710845E+02  0.27891508730E+02  0.42994508337E+02  0.18114291989E+03  0.17120000000E+03 0.  0.
        998    1    1    2    0    0 -0.41073157500E+02 -0.82995513367E+02  0.14192049684E+04  0.14222580644E+04  0.10000000000E+02 0. -1.
</event>
<event>
 5    1  0.1279376E-008  0.3840319E+03  0.7957747E-01  0.3433789E+00
         13   -1    0    0    0    0  0.00000000000E+00  0.00000000000E+00  0.14999999963E+04  0.15000000000E+04  0.10566000000E+00 0.  1.
        994   -1    0    0    0    0 -0.00000000000E+00 -0.00000000000E+00  0.11368683772E-12  0.17120000000E+03  0.17120000000E+03 0.  0.
         13    1    1    2    0    0 -0.11105109949E+02  0.18804211363E+01  0.28908690677E+02  0.31025521935E+02  0.10566000000E+00 0.  1.
        994    1    1    2    0    0  0.13622235898E+02  0.54368550335E+01  0.28215720919E+01  0.17185030105E+03  0.17120000000E+03 0.  0.
        998    1    1    2    0    0 -0.25171259494E+01 -0.73172761698E+01  0.14682697335E+04  0.14683241770E+04  0.10000000000E+02 0.  1.
</event>
<event>
 5    1  0.1279376E-008  0.3836185E+03  0.7957747E-01  0.3435552E+00
         13   -1    0    0    0    0  0.00000000000E+00  0.00000000000E+00  0.14999999963E+04  0.15000000000E+04  0.10566000000E+00 0.  1.
        994   -1    0    0    0    0 -0.00000000000E+00 -0.00000000000E+00  0.11368683772E-12  0.17120000000E+03  0.17120000000E+03 0.  0.
         13    1    1    2    0    0  0.31833150524E+02 -0.78259851987E+01  0.19596991330E+03  0.19869276182E+03  0.10566000000E+00 0.  1.
        994    1    1    2    0    0 -0.37089614746E+02  0.46151479720E+01  0.69459851989E+01  0.17536996842E+03  0.17120000000E+03 0.  0.
        998    1    1    2    0    0  0.52564642215E+01  0.32108372267E+01  0.12970840978E+04  0.12971372698E+04  0.10000000000E+02 0.  1.
</event>
<event>
 5    1  0.1279376E-008  0.3696279E+03  0.7957747E-01  0.3497603E+00
         13   -1    0    0    0    0  0.00000000000E+00  0.00000000000E+00  0.14999999963E+04  0.15000000000E+04  0.10566000000E+00 0.  1.
        994   -1    0    0    0    0 -0.00000000000E+00 -0.00000000000E+00  0.11368683772E-12  0.17120000000E+03  0.17120000000E+03 0.  0.
         13    1    1    2    0    0  0.65613144178E+02  0.47906422219E+02  0.49117302855E+03  0.49784642724E+03  0.10566000000E+00 0.  1.
        994    1    1    2    0    0 -0.53308874083E+01 -0.10231507643E+02  0.99246526314E+01  0.17187507335E+03  0.17120000000E+03 0.  0.
        998    1    1    2    0    0 -0.60282256770E+02 -0.37674914576E+02  0.99890231510E+03  0.10014784994E+04  0.10000000000E+02 0. -1.
</event>
<event>
 5    1  0.1279376E-008  0.3819366E+03  0.7957747E-01  0.3442769E+00
         13   -1    0    0    0    0  0.00000000000E+00  0.00000000000E+00  0.14999999963E+04  0.15000000000E+04  0.10566000000E+00 0.  1.
        994   -1    0    0    0    0 -0.00000000000E+00 -0.00000000000E+00  0.11368683772E-12  0.17120000000E+03  0.17120000000E+03 0.  0.
         13    1    1    2    0    0 -0.97657748850E+01 -0.13879347491E+02  0.44542077284E+02  0.47665652819E+02  0.10566000000E+00 0.  1.
        994    1    1    2    0    0  0.63465719228E+01  0.89305003771E+01  0.35575576744E+01  0.17158708876E+03  0.17120000000E+03 0.  0.
        998    1    1    2    0    0  0.34192029623E+01  0.49488471138E+01  0.14519003613E+04  0.14519472584E+04  0.10000000000E+02 0.  1.
</event>
<event>
 5    1  0.1279376E-008  0.3848878E+03  0.7957747E-01  0.3430148E+00
         13   -1    0    0    0    0  0.00000000000E+00  0.00000000000E+00  0.14999999963E+04  0.15000000000E+04  0.10566000000E+00 0.  1.
        994   -1    0    0    0    0 -0.00000000000E+00 -0.00000000000E+00  0.11368683772E-12  0.17120000000E+03  0.17120000000E+03 0.  0.
         13    1    1    2    0    0  0.11694715414E+02 -0.10323814974E+02  0.72813461267E+02  0.74465823234E+02  0.10566000000E+00 0.  1.
        994    1    1    2    0    0 -0.83053783629E+01  0.38993966224E+01  0.19628751189E+01  0.17145692603E+03  0.17120000000E+03 0.  0.
        998    1    1    2    0    0 -0.33893370506E+01  0.64244183512E+01  0.14252236599E+04  0.14252772507E+04  0.10000000000E+02 0.  1.
</event>
<event>
 5    1  0.1279376E-008  0.3701283E+03  0.7957747E-01  0.3495302E+00
         13   -1    0    0    0    0  0.00000000000E+00  0.00000000000E+00  0.14999999963E+04  0.15000000000E+04  0.10566000000E+00 0. -1.
        994   -1    0    0    0    0 -0.00000000000E+00 -0.00000000000E+00  0.11368683772E-12  0.17120000000E+03  0.17120000000E+03 0.  0.
         13    1    1    2    0    0 -0.23125042237E+01  0.16701406786E+02  0.80880867864E+01  0.18700614330E+02  0.10566000000E+00 0. -1.
        994    1    1    2    0    0 -0.10064980015E+02 -0.89574603158E+01  0.11641839743E+02  0.17212353805E+03  0.17120000000E+03 0.  0.
        998    1    1    2    0    0  0.12377484238E+02 -0.77439464699E+01  0.14802700697E+04  0.14803758476E+04  0.10000000000E+02 0. -1.
</event>
<event>
 5    1  0.1279376E-008  0.3842468E+03  0.7957747E-01  0.3432873E+00
         13   -1    0    0    0    0  0.00000000000E+00  0.00000000000E+00  0.14999999963E+04  0.15000000000E+04  0.10566000000E+00 0. -1.
        994   -1    0    0    0    0 -0.00000000000E+00 -0.00000000000E+00  0.11368683772E-12  0.17120000000E+03  0.17120000000E+03 0.  0.
         13    1    1    2    0    0  0.11884531889E+02 -0.18181033717E+02  0.12134317190E+03  0.12327192956E+03  0.10566000000E+00 0. -1.
        994    1    1    2    0    0 -0.64989794766E+01  0.67976253610E+01  0.22961764716E+01  0.17147348737E+03  0.17120000000E+03 0.  0.
        998    1    1    2    0    0 -0.53855524124E+01  0.11383408356E+02  0.13763606479E+04  0.13764545831E+04  0.10000000000E+02 0. -1.
</event>
<event>
 5    1  0.1279376E-008  0.3744935E+03  0.7957747E-01  0.3475491E+00
         13   -1    0    0    0    0  0.00000000000E+00  0.00000000000E+00  0.14999999963E+04  0.15000000000E+04  0.10566000000E+00 0. -1.
        994   -1    0    0    0    0 -0.00000000000E+00 -0.00000000000E+00  0.11368683772E-12  0.17120000000E+03  0.17120000000E+03 0.  0.
         13    1    1    2    0    0 -0.42666284504E+02 -0.26057249449E+02  0.16216561664E+03  0.16969705498E+03  0.10566000000E+00 0. -1.
        994    1    1    2    0    0  0.47491588551E+02  0.12666931738E+02  0.15210162907E+02  0.17876434543E+03  0.17120000000E+03 0.  0.
        998    1    1    2    0    0 -0.48253040479E+01  0.13390317712E+02  0.13226242167E+04  0.13227385996E+04  0.10000000000E+02 0. -1.
</event>
<event>
 5    1  0.1279376E-008  0.3690642E+03  0.7957747E-01  0.3500203E+00
         13   -1    0    0    0    0  0.00000000000E+00  0.00000000000E+00  0.14999999963E+04  0.15000000000E+04  0.10566000000E+00 0.  1.
        994   -1    0    0    0    0 -0.00000000000E+00 -0.00000000000E+00  0.11368683772E-12  0.17120000000E+03  0.17120000000E+03 0.  0.
         13    1    1    2    0    0 -0.22250307582E+02  0.68150967845E+02  0.20116971544E+03  0.21356239411E+03  0.10566000000E+00 0.  1.
        994    1    1    2    0    0  0.23088076822E+02 -0.76880541195E+02  0.33248437980E+02  0.19198587327E+03  0.17120000000E+03 0.  0.
        998    1    1    2    0    0 -0.83776923976E+00  0.87295733499E+01  0.12655818429E+04  0.12656517326E+04  0.10000000000E+02 0.  1.
</event>
<event>
 5    1  0.1279376E-008  0.3811199E+03  0.7957747E-01  0.3446297E+00
         13   -1    0    0    0    0  0.00000000000E+00  0.00000000000E+00  0.14999999963E+04  0.15000000000E+04  0.10566000000E+00 0. -1.
        994   -1    0    0    0    0 -0.00000000000E+00 -0.00000000000E+00  0.11368683772E-12  0.17120000000E+03  0.17120000000E+03 0.  0.
         13    1    1    2    0    0  0.13309389368E+02 -0.28289455664E+01  0.23241822231E+02  0.26932067187E+02  0.10566000000E+00 0. -1.
        994    1    1    2    0    0 -0.27098274854E+02  0.46350667011E+01  0.60902207026E+01  0.17350023381E+03  0.17120000000E+03 0.  0.
        998    1    1    2    0    0  0.13788885486E+02 -0.18061211347E+01  0.14706679533E+04  0.14707676990E+04  0.10000000000E+02 0. -1.
</event>
<event>
 5    1  0.1279376E-008  0.3781565E+03  0.7957747E-01  0.3459225E+00
         13   -1    0    0    0    0  0.00000000000E+00  0.00000000000E+00  0.14999999963E+04  0.15000000000E+04  0.10566000000E+00 0.  1.
        994   -1    0    0    0    0 -0.00000000000E+00 -0.00000000000E+00  0.11368683772E-12  0.17120000000E+03  0.17120000000E+03 0.  0.
         13    1    1    2    0    0 -0.51388028230E+02 -0.65826818421E+02  0.46148179373E+03  0.46897692542E+03  0.10566000000E+00 0.  1.
        994    1    1    2    0    0  0.50276212696E+02  0.69125257464E+02  0.30047029254E+02  0.19369631579E+03  0.17120000000E+03 0.  0.
        998    1    1    2    0    0  0.11118155339E+01 -0.32984390427E+01  0.10084711733E+04  0.10085267588E+04  0.10000000000E+02 0.  0.
</event>
<event>
 5    1  0.1279376E-008  0.3819253E+03  0.7957747E-01  0.3442818E+00
         13   -1    0    0    0    0  0.00000000000E+00  0.00000000000E+00  0.14999999963E+04  0.15000000000E+04  0.10566000000E+00 0.  1.
        994   -1    0    0    0    0 -0.00000000000E+00 -0.00000000000E+00  0.11368683772E-12  0.17120000000E+03  0.17120000000E+03 0.  0.
         13    1    1    2    0    0  0.15897032885E+01  0.11021100394E+02  0.18276912403E+02  0.21402067691E+02  0.10566000000E+00 0.  1.
        994    1    1    2    0    0 -0.57381386101E+01 -0.79660158618E+01  0.34846174262E+01  0.17151666450E+03  0.17120000000E+03 0.  0.
        998    1    1    2    0    0  0.41484353217E+01 -0.30550845318E+01  0.14782384664E+04  0.14782812678E+04  0.10000000000E+02 0.  1.
</event>
<event>
 5    1  0.1279376E-008  0.3809411E+03  0.7957747E-01  0.3447071E+00
         13   -1    0    0    0    0  0.00000000000E+00  0.00000000000E+00  0.14999999963E+04  0.15000000000E+04  0.10566000000E+00 0. -1.
        994   -1    0    0    0    0 -0.00000000000E+00 -0.00000000000E+00  0.11368683772E-12  0.17120000000E+03  0.17120000000E+03 0.  0.
         13    1    1    2    0    0  0.69198043896E+01 -0.18483169987E+02  0.51521247002E+02  0.55172106379E+02  0.10566000000E+00 0. -1.
        994    1    1    2    0    0 -0.41836095402E+01  0.14187007795E+02  0.43882381422E+01  0.17189377654E+03  0.17120000000E+03 0.  0.
        998    1    1    2    0    0 -0.27361948494E+01  0.42961621930E+01  0.14440905111E+04  0.14441341171E+04  0.10000000000E+02 0. -1.
</event>
<event>
 5    1  0.1279376E-008  0.3801106E+03  0.7957747E-01  0.3450677E+00
         13   -1    0    0    0    0  0.00000000000E+00  0.00000000000E+00  0.14999999963E+04  0.15000000000E+04  0.10566000000E+00 0.  1.
        994   -1    0    0    0    0 -0.00000000000E+00 -0.00000000000E+00  0.11368683772E-12  0.17120000000E+03  0.17120000000E+03 0.  0.
         13    1    1    2    0    0 -0.23982830945E+02 -0.41558493595E+02  0.23574219600E+03  0.24057572344E+03  0.10566000000E+00 0.  1.
        994    1    1    2    0    0  0.28571048733E+02  0.40780406437E+02  0.12407405984E+02  0.17872529227E+03  0.17120000000E+03 0.  0.
        998    1    1    2    0    0 -0.45882177885E+01  0.77808715783E+00  0.12518503943E+04  0.12518989843E+04  0.10000000000E+02 0.  1.
</event>
<event>
 5    1  0.1279376E-008  0.2894133E+03  0.7957747E-01  0.3974623E+00
         13   -1    0    0    0    0  0.00000000000E+00  0.00000000000E+00  0.14999999963E+04  0.15000000000E+04  0.10566000000E+00 0.  1.
        994   -1    0    0    0    0 -0.00000000000E+00 -0.00000000000E+00  0.11368683772E-12  0.17120000000E+03  0.17120000000E+03 0.  0.
         13    1    1    2    0    0 -0.12837512721E+03  0.21472849790E+02  0.69860383611E+03  0.71062549036E+03  0.10566000000E+00 0.  1.
        994    1    1    2    0    0  0.73832679221E+02 -0.19257545325E+02  0.33170078038E+02  0.19034655671E+03  0.17120000000E+03 0.  0.
        998    1    1    2    0    0  0.54542447993E+02 -0.22153044651E+01  0.76822608213E+03  0.77022795293E+03  0.10000000000E+02 0.  1.
</event>
<event>
 5    1  0.1279376E-008  0.3805385E+03  0.7957747E-01  0.3448817E+00
         13   -1    0    0    0    0  0.00000000000E+00  0.00000000000E+00  0.14999999963E+04  0.15000000000E+04  0.10566000000E+00 0. -1.
        994   -1    0    0    0    0 -0.00000000000E+00 -0.00000000000E+00  0.11368683772E-12  0.17120000000E+03  0.17120000000E+03 0.  0.
         13    1    1    2    0    0  0.20080868291E+02  0.99162502834E+01  0.59335913656E+02  0.63421881905E+02  0.10566000000E+00 0. -1.
        994    1    1    2    0    0 -0.27471152585E+02 -0.14298585727E+02  0.70687305903E+01  0.17412214314E+03  0.17120000000E+03 0.  0.
        998    1    1    2    0    0  0.73902842940E+01  0.43823354431E+01  0.14335953520E+04  0.14336559750E+04  0.10000000000E+02 0. -1.
</event>
<event>
 5    1  0.1984824E-008  0.3856948E+03  0.7957747E-01  0.3426731E+00
         13   -1    0    0    0    0  0.00000000000E+00  0.00000000000E+00  0.14999999963E+04  0.15000000000E+04  0.10566000000E+00 0.  1.
        994   -1    0    0    0    0 -0.00000000000E+00 -0.00000000000E+00  0.11368683772E-12  0.17120000000E+03  0.17120000000E+03 0.  0.
         13    1    1    2    0    0  0.10634508217E+02 -0.41142530986E+01  0.51302700838E+02  0.52554715496E+02  0.10566000000E+00 0.  1.
        994    1    1    2    0    0 -0.46477911980E+01  0.60236530145E+01  0.14755307600E+01  0.17137532947E+03  0.17120000000E+03 0.  0.
        998    1    1    2    0    0 -0.59867170194E+01 -0.19093999159E+01  0.14472217647E+04  0.14472699550E+04  0.10000000000E+02 0.  1.
</event>
<event>
 5    1  0.1279376E-008  0.3829394E+03  0.7957747E-01  0.3438459E+00
         13   -1    0    0    0    0  0.00000000000E+00  0.00000000000E+00  0.14999999963E+04  0.15000000000E+04  0.10566000000E+00 0.  1.
        994   -1    0    0    0    0 -0.00000000000E+00 -0.00000000000E+00  0.11368683772E-12  0.17120000000E+03  0.17120000000E+03 0.  0.
         13    1    1    2    0    0 -0.92289409674E+01 -0.62288120387E+01  0.22466861590E+02  0.25074737975E+02  0.10566000000E+00 0.  1.
        994    1    1    2    0    0  0.54428557081E+01  0.32408391200E+01  0.27895277515E+01  0.17133986454E+03  0.17120000000E+03 0.  0.
        998    1    1    2    0    0  0.37860852593E+01  0.29879729186E+01  0.14747436069E+04  0.14747853975E+04  0.10000000000E+02 0.  1.
</event>
<event>
 5    1  0.1279376E-008  0.3843317E+03  0.7957747E-01  0.3432511E+00
         13   -1    0    0    0    0  0.00000000000E+00  0.00000000000E+00  0.14999999963E+04  0.15000000000E+04  0.10566000000E+00 0. -1.
        994   -1    0    0    0    0 -0.00000000000E+00 -0.00000000000E+00  0.11368683772E-12  0.17120000000E+03  0.17120000000E+03 0.  0.
         13    1    1    2    0    0  0.90039620804E+01  0.86535139335E+01  0.41099299961E+02  0.42954839749E+02  0.10566000000E+00 0. -1.
        994    1    1    2    0    0  0.50769256897E+01 -0.40330595495E+01  0.21008502229E+01  0.17133561893E+03  0.17120000000E+03 0.  0.
        998    1    1    2    0    0 -0.14080887770E+02 -0.46204543840E+01  0.14567998461E+04  0.14569095413E+04  0.10000000000E+02 0. -1.
</event>
<event>
 5    1  0.1279376E-008  0.3729763E+03  0.7957747E-01  0.3482323E+00
         13   -1    0    0    0    0  0.00000000000E+00  0.00000000000E+00  0.14999999963E+04  0.15000000000E+04  0.10566000000E+00 0. -1.
        994   -1    0    0    0    0 -0.00000000000E+00 -0.00000000000E+00  0.11368683772E-12  0.17120000000E+03  0.17120000000E+03 0.  0.
         13    1    1    2    0    0 -0.25546482852E+02  0.15933778335E+02  0.30680452136E+02  0.42986153416E+02  0.10566000000E+00 0. -1.
        994    1    1    2    0    0  0.22113812213E+02 -0.16861114658E+02  0.15258092979E+02  0.17411366196E+03  0.17120000000E+03 0.  0.
        998    1    1    2    0    0  0.34326706396E+01  0.92733632296E+00  0.14540614512E+04  0.14541001846E+04  0.10000000000E+02 0. -1.
</event>
<event>
 5    1  0.1279376E-008  0.3847865E+03  0.7957747E-01  0.3430578E+00
         13   -1    0    0    0    0  0.00000000000E+00  0.00000000000E+00  0.14999999963E+04  0.15000000000E+04  0.10566000000E+00 0. -1.
        994   -1    0    0    0    0 -0.00000000000E+00 -0.00000000000E+00  0.11368683772E-12  0.17120000000E+03  0.17120000000E+03 0.  0.
         13    1    1    2    0    0 -0.12222311444E+02 -0.13027742483E+02  0.92549843504E+02  0.94258111948E+02  0.10566000000E+00 0. -1.
        994    1    1    2    0    0  0.36163817084E+02 -0.16708692197E+02  0.69764286854E+01  0.17591222987E+03  0.17120000000E+03 0.  0.
        998    1    1    2    0    0 -0.23941505640E+02  0.29736434680E+02  0.14004737241E+04  0.14010296582E+04  0.10000000000E+02 0. -1.
</event>
<event>
 5    1  0.1279376E-008  0.3806556E+03  0.7957747E-01  0.3448309E+00
         13   -1    0    0    0    0  0.00000000000E+00  0.00000000000E+00  0.14999999963E+04  0.15000000000E+04  0.10566000000E+00 0.  1.
        994   -1    0    0    0    0 -0.00000000000E+00 -0.00000000000E+00  0.11368683772E-12  0.17120000000E+03  0.17120000000E+03 0.  0.
         13    1    1    2    0    0 -0.11842479887E+03 -0.20143879150E+03  0.98834180987E+03  0.10155892693E+04  0.10566000000E+00 0.  1.
        994    1    1    2    0    0  0.12258121192E+03  0.21028139029E+03  0.23654169756E+03  0.38013922621E+03  0.17120000000E+03 0.  0.
        998    1    1    2    0    0 -0.41564130500E+01 -0.88425987925E+01  0.27511648885E+03  0.27547150444E+03  0.10000000000E+02 0. -1.
</event>
<event>
 5    1  0.1279376E-008  0.3770518E+03  0.7957747E-01  0.3464097E+00
         13   -1    0    0    0    0  0.00000000000E+00  0.00000000000E+00  0.14999999963E+04  0.15000000000E+04  0.10566000000E+00 0.  1.
        994   -1    0    0    0    0 -0.00000000000E+00 -0.00000000000E+00  0.11368683772E-12  0.17120000000E+03  0.17120000000E+03 0.  0.
         13    1    1    2    0    0 -0.54023036787E+02  0.30729216523E+02  0.11832214983E+03  0.13365221868E+03  0.10566000000E+00 0.  1.
        994    1    1    2    0    0  0.50228595741E+02 -0.30825041196E+02  0.27274556389E+02  0.18310225673E+03  0.17120000000E+03 0.  0.
        998    1    1    2    0    0  0.37944410465E+01  0.95824673620E-01  0.13544032901E+04  0.13544455246E+04  0.10000000000E+02 0.  1.
</event>
<event>
 5    1  0.2053158E-008  0.3864527E+03  0.7957747E-01  0.3423534E+00
         13   -1    0    0    0    0  0.00000000000E+00  0.00000000000E+00  0.14999999963E+04  0.15000000000E+04  0.10566000000E+00 0. -1.
        994   -1    0    0    0    0 -0.00000000000E+00 -0.00000000000E+00  0.11368683772E-12  0.17120000000E+03  0.17120000000E+03 0.  0.
         13    1    1    2    0    0 -0.10706384044E+02  0.32741928918E+01  0.67165957411E+02  0.68092760242E+02  0.10566000000E+00 0. -1.
        994    1    1    2    0    0  0.13846059272E+02  0.15436626005E+01  0.15461776428E+01  0.17177289343E+03  0.17120000000E+03 0.  0.
        998    1    1    2    0    0 -0.31396752276E+01 -0.48178554922E+01  0.14312878612E+04  0.14313343463E+04  0.10000000000E+02 0. -1.
</event>
<event>
 5    1  0.1279376E-008  0.3798042E+03  0.7957747E-01  0.3452012E+00
         13   -1    0    0    0    0  0.00000000000E+00  0.00000000000E+00  0.14999999963E+04  0.15000000000E+04  0.10566000000E+00 0.  1.
        994   -1    0    0    0    0 -0.00000000000E+00 -0.00000000000E+00  0.11368683772E-12  0.17120000000E+03  0.17120000000E+03 0.  0.
         13    1    1    2    0    0  0.10313565120E+03 -0.36695226190E+02  0.50667801494E+03  0.51836871449E+03  0.10566000000E+00 0.  1.
        994    1    1    2    0    0 -0.19481527392E+01  0.10735586980E+03  0.59255855934E+02  0.21059386159E+03  0.17120000000E+03 0.  0.
        998    1    1    2    0    0 -0.10118749846E+03 -0.70660643605E+02  0.93406612540E+03  0.94223742391E+03  0.10000000000E+02 0.  1.
</event>
<event>
 5    1  0.1279376E-008  0.3838664E+03  0.7957747E-01  0.3434494E+00
         13   -1    0    0    0    0  0.00000000000E+00  0.00000000000E+00  0.14999999963E+04  0.15000000000E+04  0.10566000000E+00 0.  1.
        994   -1    0    0    0    0 -0.00000000000E+00 -0.00000000000E+00  0.11368683772E-12  0.17120000000E+03  0.17120000000E+03 0.  0.
         13    1    1    2    0    0 -0.13791899218E+02 -0.13652383064E+02  0.81075372577E+02  0.83365647901E+02  0.10566000000E+00 0.  1.
        994    1    1    2    0    0  0.11450936189E+02  0.18025841282E+02  0.37007765818E+01  0.17256648180E+03  0.17120000000E+03 0.  0.
        998    1    1    2    0    0  0.23409630290E+01 -0.43734582181E+01  0.14152238471E+04  0.14152678703E+04  0.10000000000E+02 0.  1.
</event>
<event>
 5    1  0.1279376E-008  0.3814949E+03  0.7957747E-01  0.3444675E+00
         13   -1    0    0    0    0  0.00000000000E+00  0.00000000000E+00  0.14999999963E+04  0.15000000000E+04  0.10566000000E+00 0. -1.
        994   -1    0    0    0    0 -0.00000000000E+00 -0.00000000000E+00  0.11368683772E-12  0.17120000000E+03  0.17120000000E+03 0.  0.
         13    1    1    2    0    0 -0.10400292751E+02 -0.78492190755E+01  0.23713976313E+02  0.27058088736E+02  0.10566000000E+00 0. -1.
        994    1    1    2    0    0  0.11350448596E+02  0.15621064140E+01  0.38172109256E+01  0.17162541758E+03  0.17120000000E+03 0.  0.
        998    1    1    2    0    0 -0.95015584479E+00  0.62871126615E+01  0.14724688090E+04  0.14725164937E+04  0.10000000000E+02 0. -1.
</event>
<event>
 5    1  0.1279376E-008  0.3853160E+03  0.7957747E-01  0.3428333E+00
         13   -1    0    0    0    0  0.00000000000E+00  0.00000000000E+00  0.14999999963E+04  0.15000000000E+04  0.10566000000E+00 0.  1.
        994   -1    0    0    0    0 -0.00000000000E+00 -0.00000000000E+00  0.11368683772E-12  0.17120000000E+03  0.17120000000E+03 0.  0.
         13    1    1    2    0    0  0.15100613908E+02  0.18355807316E+01  0.76698710788E+02  0.78192718955E+02  0.10566000000E+00 0.  1.
        994    1    1    2    0    0 -0.14521833850E+02  0.54787488794E+01  0.22651789359E+01  0.17191704797E+03  0.17120000000E+03 0.  0.
        998    1    1    2    0    0 -0.57878005820E+00 -0.73143296110E+01  0.14210361066E+04  0.14210902331E+04  0.10000000000E+02 0.  1.
</event>
<event>
 5    1  0.1279376E-008  0.3813519E+03  0.7957747E-01  0.3445293E+00
         13   -1    0    0    0    0  0.00000000000E+00  0.00000000000E+00  0.14999999963E+04  0.15000000000E+04  0.10566000000E+00 0. -1.
        994   -1    0    0    0    0 -0.00000000000E+00 -0.00000000000E+00  0.11368683772E-12  0.17120000000E+03  0.17120000000E+03 0.  0.
         13    1    1    2    0    0 -0.11902591850E+02 -0.13384796586E+02  0.48807043814E+02  0.51990029451E+02  0.10566000000E+00 0. -1.
        994    1    1    2    0    0 -0.61555160086E+01 -0.41392916807E+01  0.36353939043E+01  0.17139918378E+03  0.17120000000E+03 0.  0.
        998    1    1    2    0    0  0.18058107858E+02  0.17524088267E+02  0.14475575586E+04  0.14478107868E+04  0.10000000000E+02 0. -1.
</event>
<event>
 5    1  0.1279376E-008  0.3776824E+03  0.7957747E-01  0.3461313E+00
         13   -1    0    0    0    0  0.00000000000E+00  0.00000000000E+00  0.14999999963E+04  0.15000000000E+04  0.10566000000E+00 0. -1.
        994   -1    0    0    0    0 -0.00000000000E+00 -0.00000000000E+00  0.11368683772E-12  0.17120000000E+03  0.17120000000E+03 0.  0.
         13    1    1    2    0    0 -0.83624725257E+01  0.42903710337E+02  0.16633403126E+03  0.17198162817E+03  0.10566000000E+00 0. -1.
        994    1    1    2    0    0  0.15243460435E+01 -0.37534419850E+02  0.10076238465E+02  0.17556231625E+03  0.17120000000E+03 0.  0.
        998    1    1    2    0    0  0.68381264822E+01 -0.53692904868E+01  0.13235897266E+04  0.13236560556E+04  0.10000000000E+02 0. -1.
</event>
<event>
 5    1  0.1279376E-008  0.3792765E+03  0.7957747E-01  0.3454315E+00
         13   -1    0    0    0    0  0.00000000000E+00  0.00000000000E+00  0.14999999963E+04  0.15000000000E+04  0.10566000000E+00 0.  1.
        994   -1    0    0    0    0 -0.00000000000E+00 -0.00000000000E+00  0.11368683772E-12  0.17120000000E+03  0.17120000000E+03 0.  0.
         13    1    1    2    0    0  0.64276951696E+02 -0.87598662553E+02  0.59909045154E+03  0.60886322971E+03  0.10566000000E+00 0.  1.
        994    1    1    2    0    0 -0.80079712706E+02  0.96348284307E+02  0.59029664396E+02  0.22020375463E+03  0.17120000000E+03 0.  0.
        998    1    1    2    0    0  0.15802761010E+02 -0.87496217533E+01  0.84187988034E+03  0.84213301566E+03  0.10000000000E+02 0. -1.
</event>
<event>
 5    1  0.1279376E-008  0.3744193E+03  0.7957747E-01  0.3475824E+00
         13   -1    0    0    0    0  0.00000000000E+00  0.00000000000E+00  0.14999999963E+04  0.15000000000E+04  0.10566000000E+00 0. -1.
        994   -1    0    0    0    0 -0.00000000000E+00 -0.00000000000E+00  0.11368683772E-12  0.17120000000E+03  0.17120000000E+03 0.  0.
         13    1    1    2    0    0 -0.81421664575E+02  0.58827389989E+02  0.54276641211E+03  0.55198327742E+03  0.10566000000E+00 0. -1.
        994    1    1    2    0    0  0.67543925967E+02 -0.51711560361E+02  0.32037612233E+02  0.19383528061E+03  0.17120000000E+03 0.  0.
        998    1    1    2    0    0  0.13877738608E+02 -0.71158296285E+01  0.92519597194E+03  0.92538144198E+03  0.10000000000E+02 0.  0.
</event>
<event>
 5    1  0.1279376E-008  0.3830569E+03  0.7957747E-01  0.3437955E+00
         13   -1    0    0    0    0  0.00000000000E+00  0.00000000000E+00  0.14999999963E+04  0.15000000000E+04  0.10566000000E+00 0. -1.
        994   -1    0    0    0    0 -0.00000000000E+00 -0.00000000000E+00  0.11368683772E-12  0.17120000000E+03  0.17120000000E+03 0.  0.
         13    1    1    2    0    0 -0.56403783648E+00  0.13649460093E+02  0.34715967328E+02  0.37307310960E+02  0.10566000000E+00 0. -1.
        994    1    1    2    0    0  0.32018366710E+01 -0.11819203315E+02  0.30943154908E+01  0.17166525599E+03  0.17120000000E+03 0.  0.
        998    1    1    2    0    0 -0.26377988345E+01 -0.18302567775E+01  0.14621897135E+04  0.14622274331E+04  0.10000000000E+02 0. -1.
</event>
<event>
 5    1  0.1279376E-008  0.3815998E+03  0.7957747E-01  0.3444222E+00
         13   -1    0    0    0    0  0.00000000000E+00  0.00000000000E+00  0.14999999963E+04  0.15000000000E+04  0.10566000000E+00 0.  1.
        994   -1    0    0    0    0 -0.00000000000E+00 -0.00000000000E+00  0.11368683772E-12  0.17120000000E+03  0.17120000000E+03 0.  0.
         13    1    1    2    0    0 -0.13574598234E+02 -0.18383888322E+02  0.74436400828E+02  0.77865435203E+02  0.10566000000E+00 0.  1.
        994    1    1    2    0    0  0.10290564617E+02  0.20079534399E+02  0.50224690143E+01  0.17275343301E+03  0.17120000000E+03 0.  0.
        998    1    1    2    0    0  0.32840336169E+01 -0.16956460769E+01  0.14205411264E+04  0.14205811318E+04  0.10000000000E+02 0.  0.
</event>
<event>
 5    1  0.1279376E-008  0.3845220E+03  0.7957747E-01  0.3431702E+00
         13   -1    0    0    0    0  0.00000000000E+00  0.00000000000E+00  0.14999999963E+04  0.15000000000E+04  0.10566000000E+00 0. -1.
        994   -1    0    0    0    0 -0.00000000000E+00 -0.00000000000E+00  0.11368683772E-12  0.17120000000E+03  0.17120000000E+03 0.  0.
         13    1    1    2    0    0  0.12117842224E+02  0.10326668146E+02  0.70816710552E+02  0.72584432439E+02  0.10566000000E+00 0. -1.
        994    1    1    2    0    0  0.13769430072E+00 -0.49174745498E+01  0.19473513236E+01  0.17128173485E+03  0.17120000000E+03 0.  0.
        998    1    1    2    0    0 -0.12255536525E+02 -0.54091935967E+01  0.14272359344E+04  0.14273338327E+04  0.10000000000E+02 0. -1.
</event>
<event>
 5    1  0.1279376E-008  0.3806422E+03  0.7957747E-01  0.3448367E+00
         13   -1    0    0    0    0  0.00000000000E+00  0.00000000000E+00  0.14999999963E+04  0.15000000000E+04  0.10566000000E+00 0.  1.
        994   -1    0    0    0    0 -0.00000000000E+00 -0.00000000000E+00  0.11368683772E-12  0.17120000000E+03  0.17120000000E+03 0.  0.
         13    1    1    2    0    0 -0.13805502355E+02  0.10555829782E+02  0.40265683710E+02  0.43856058718E+02  0.10566000000E+00 0.  1.
        994    1    1    2    0    0 -0.26803412070E+00  0.49559419542E+01  0.38914972160E+01  0.17131613162E+03  0.17120000000E+03 0.  0.
        998    1    1    2    0    0  0.14073536475E+02 -0.15511771736E+02  0.14558428154E+04  0.14560278097E+04  0.10000000000E+02 0.  1.
</event>
<event>
 5    1  0.1279376E-008  0.3853867E+03  0.7957747E-01  0.3428034E+00
         13   -1    0    0    0    0  0.00000000000E+00  0.00000000000E+00  0.14999999963E+04  0.15000000000E+04  0.10566000000E+00 0.  1.
        994   -1    0    0    0    0 -0.00000000000E+00 -0.00000000000E+00  0.11368683772E-12  0.17120000000E+03  0.17120000000E+03 0.  0.
         13    1    1    2    0    0  0.65957021255E+01  0.10672046560E+02  0.53351460774E+02  0.54806800628E+02  0.10566000000E+00 0.  1.
        994    1    1    2    0    0 -0.90194943911E+01 -0.98411386202E+01  0.20237974763E+01  0.17173157847E+03  0.17120000000E+03 0.  0.
        998    1    1    2    0    0  0.24237922655E+01 -0.83090793976E+00  0.14446247380E+04  0.14446616209E+04  0.10000000000E+02 0.  1.
</event>
<event>
 5    1  0.1279376E-008  0.3788428E+03  0.7957747E-01  0.3456213E+00
         13   -1    0    0    0    0  0.00000000000E+00  0.00000000000E+00  0.14999999963E+04  0.15000000000E+04  0.10566000000E+00 0.  1.
        994   -1    0    0    0    0 -0.00000000000E+00 -0.00000000000E+00  0.11368683772E-12  0.17120000000E+03  0.17120000000E+03 0.  0.
         13    1    1    2    0    0  0.12049532956E+02  0.15875518778E+02  0.39465724995E+02  0.44212870912E+02  0.10566000000E+00 0.  1.
        994    1    1    2    0    0 -0.97182991916E+01 -0.16860946721E+02  0.59903940310E+01  0.17240667529E+03  0.17120000000E+03 0.  0.
        998    1    1    2    0    0 -0.23312337645E+01  0.98542794302E+00  0.14545438773E+04  0.14545804538E+04  0.10000000000E+02 0.  1.
</event>
<event>
 5    1  0.1279376E-008  0.3726135E+03  0.7957747E-01  0.3483965E+00
         13   -1    0    0    0    0  0.00000000000E+00  0.00000000000E+00  0.14999999963E+04  0.15000000000E+04  0.10566000000E+00 0. -1.
        994   -1    0    0    0    0 -0.00000000000E+00 -0.00000000000E+00  0.11368683772E-12  0.17120000000E+03  0.17120000000E+03 0.  0.
         13    1    1    2    0    0 -0.21929427947E+01  0.20869401950E+02  0.26595496114E+02  0.33877315617E+02  0.10566000000E+00 0. -1.
        994    1    1    2    0    0  0.26525521933E+01  0.18810954650E+02  0.91470462934E+01  0.17249346800E+03  0.17120000000E+03 0.  0.
        998    1    1    2    0    0 -0.45960939859E+00 -0.39680356600E+02  0.14642574539E+04  0.14648292164E+04  0.10000000000E+02 0. -1.
</event>
<event>
 5    1  0.1279376E-008  0.3752975E+03  0.7957747E-01  0.3471893E+00
         13   -1    0    0    0    0  0.00000000000E+00  0.00000000000E+00  0.14999999963E+04  0.15000000000E+04  0.10566000000E+00 0. -1.
        994   -1    0    0    0    0 -0.00000000000E+00 -0.00000000000E+00  0.11368683772E-12  0.17120000000E+03  0.17120000000E+03 0.  0.
         13    1    1    2    0    0 -0.37246045896E+01 -0.15237780883E+02  0.16613636972E+02  0.22849217559E+02  0.10566000000E+00 0. -1.
        994    1    1    2    0    0  0.37790559120E+01 -0.57132423640E+01  0.66854142306E+01  0.17146736472E+03  0.17120000000E+03 0.  0.
        998    1    1    2    0    0 -0.54451322359E-01  0.20951023247E+02  0.14767009451E+04  0.14768834177E+04  0.10000000000E+02 0. -1.
</event>
<event>
 5    1  0.1279376E-008  0.3860320E+03  0.7957747E-01  0.3425307E+00
         13   -1    0    0    0    0  0.00000000000E+00  0.00000000000E+00  0.14999999963E+04  0.15000000000E+04  0.10566000000E+00 0. -1.
        994   -1    0    0    0    0 -0.00000000000E+00 -0.00000000000E+00  0.11368683772E-12  0.17120000000E+03  0.17120000000E+03 0.  0.
         13    1    1    2    0    0 -0.87859496440E+01 -0.10463392926E+02  0.82548235207E+02  0.83671367877E+02  0.10566000000E+00 0. -1.
        994    1    1    2    0    0  0.58908996120E+01  0.10176987272E+02  0.15719927095E+01  0.17161056182E+03  0.17120000000E+03 0.  0.
        998    1    1    2    0    0  0.28950500320E+01  0.28640565417E+00  0.14158797684E+04  0.14159180703E+04  0.10000000000E+02 0. -1.
</event>
<event>
 5    1  0.1279376E-008  0.3840409E+03  0.7957747E-01  0.3433750E+00
         13   -1    0    0    0    0  0.00000000000E+00  0.00000000000E+00  0.14999999963E+04  0.15000000000E+04  0.10566000000E+00 0. -1.
        994   -1    0    0    0    0 -0.00000000000E+00 -0.00000000000E+00  0.11368683772E-12  0.17120000000E+03  0.17120000000E+03 0.  0.
         13    1    1    2    0    0 -0.11866119407E+01 -0.10125839872E+02  0.24003734508E+02  0.26079323522E+02  0.10566000000E+00 0. -1.
        994    1    1    2    0    0 -0.23239402314E+01  0.76569088378E+01  0.23183407314E+01  0.17140257774E+03  0.17120000000E+03 0.  0.
        998    1    1    2    0    0  0.35105521721E+01  0.24689310346E+01  0.14736779210E+04  0.14737180987E+04  0.10000000000E+02 0. -1.
</event>
<event>
 5    1  0.1279376E-008  0.3793972E+03  0.7957747E-01  0.3453788E+00
         13   -1    0    0    0    0  0.00000000000E+00  0.00000000000E+00  0.14999999963E+04  0.15000000000E+04  0.10566000000E+00 0.  1.
        994   -1    0    0    0    0 -0.00000000000E+00 -0.00000000000E+00  0.11368683772E-12  0.17120000000E+03  0.17120000000E+03 0.  0.
         13    1    1    2    0    0 -0.26008412546E+02  0.33901077377E+02  0.18572463037E+03  0.19057641528E+03  0.10566000000E+00 0.  1.
        994    1    1    2    0    0  0.25270609020E+02 -0.29417178785E+02  0.94919598066E+01  0.17579394583E+03  0.17120000000E+03 0.  0.
        998    1    1    2    0    0  0.73780352662E+00 -0.44838985922E+01  0.13047834061E+04  0.13048296389E+04  0.10000000000E+02 0.  0.
</event>
<event>
 5    1  0.1279376E-008  0.3793318E+03  0.7957747E-01  0.3454073E+00
         13   -1    0    0    0    0  0.00000000000E+00  0.00000000000E+00  0.14999999963E+04  0.15000000000E+04  0.10566000000E+00 0.  1.
        994   -1    0    0    0    0 -0.00000000000E+00 -0.00000000000E+00  0.11368683772E-12  0.17120000000E+03  0.17120000000E+03 0.  0.
         13    1    1    2    0    0  0.12425382291E+02 -0.57756943693E+01  0.22110654201E+02  0.26012323306E+02  0.10566000000E+00 0.  1.
        994    1    1    2    0    0  0.48596465218E+02 -0.25873634679E+01  0.12446662771E+02  0.17841712445E+03  0.17120000000E+03 0.  0.
        998    1    1    2    0    0 -0.61021847509E+02  0.83630578372E+01  0.14654426793E+04  0.14667705522E+04  0.10000000000E+02 0.  1.
</event>
<event>
 5    1  0.1373361E-008  0.3858173E+03  0.7957747E-01  0.3426213E+00
         13   -1    0    0    0    0  0.00000000000E+00  0.00000000000E+00  0.14999999963E+04  0.15000000000E+04  0.10566000000E+00 0. -1.
        994   -1    0    0    0    0 -0.00000000000E+00 -0.00000000000E+00  0.11368683772E-12  0.17120000000E+03  0.17120000000E+03 0.  0.
         13    1    1    2    0    0 -0.10356475858E+02 -0.73640028653E+01  0.62540324060E+02  0.63818401954E+02  0.10566000000E+00 0. -1.
        994    1    1    2    0    0  0.11831883242E+02  0.13068690128E+02  0.22449182999E+01  0.17211991105E+03  0.17120000000E+03 0.  0.
        998    1    1    2    0    0 -0.14754073835E+01 -0.57046872628E+01  0.14352147539E+04  0.14352616870E+04  0.10000000000E+02 0. -1.
</event>
<event>
 5    1  0.1279376E-008  0.3706005E+03  0.7957747E-01  0.3493136E+00
         13   -1    0    0    0    0  0.00000000000E+00  0.00000000000E+00  0.14999999963E+04  0.15000000000E+04  0.10566000000E+00 0.  1.
        994   -1    0    0    0    0 -0.00000000000E+00 -0.00000000000E+00  0.11368683772E-12  0.17120000000E+03  0.17120000000E+03 0.  0.
         13    1    1    2    0    0 -0.22335091511E+02  0.85303530020E+02  0.50201631633E+03  0.50970181633E+03  0.10566000000E+00 0.  1.
        994    1    1    2    0    0 -0.44565802736E+02 -0.54931311551E+02  0.26423808685E+02  0.18711284677E+03  0.17120000000E+03 0.  0.
        998    1    1    2    0    0  0.66900894247E+02 -0.30372218469E+02  0.97155987126E+03  0.97438533689E+03  0.10000000000E+02 0.  1.
</event>
<event>
 5    1  0.1279376E-008  0.3786335E+03  0.7957747E-01  0.3457130E+00
         13   -1    0    0    0    0  0.00000000000E+00  0.00000000000E+00  0.14999999963E+04  0.15000000000E+04  0.10566000000E+00 0. -1.
        994   -1    0    0    0    0 -0.00000000000E+00 -0.00000000000E+00  0.11368683772E-12  0.17120000000E+03  0.17120000000E+03 0.  0.
         13    1    1    2    0    0 -0.62894045904E+02  0.17798865420E+02  0.33989096222E+03  0.34611896507E+03  0.10566000000E+00 0. -1.
        994    1    1    2    0    0  0.61596225017E+02 -0.25320219990E+02  0.19865599933E+02  0.18476820759E+03  0.17120000000E+03 0.  0.
        998    1    1    2    0    0  0.12978208869E+01  0.75213545696E+01  0.11402434341E+04  0.11403128273E+04  0.10000000000E+02 0. -1.
</event>
<event>
 5    1  0.1589327E-008  0.3861995E+03  0.7957747E-01  0.3424601E+00
         13   -1    0    0    0    0  0.00000000000E+00  0.00000000000E+00  0.14999999963E+04  0.15000000000E+04  0.10566000000E+00 0.  1.
        994   -1    0    0    0    0 -0.00000000000E+00 -0.00000000000E+00  0.11368683772E-12  0.17120000000E+03  0.17120000000E+03 0.  0.
         13    1    1    2    0    0  0.24927668208E+01 -0.97651504358E+01  0.48593891869E+02  0.49628112401E+02  0.10566000000E+00 0.  1.
        994    1    1    2    0    0 -0.60913728639E+01  0.91626414225E+01  0.14324661765E+01  0.17155917574E+03  0.17120000000E+03 0.  0.
        998    1    1    2    0    0  0.35986060431E+01  0.60250901335E+00  0.14499736382E+04  0.14500127119E+04  0.10000000000E+02 0.  1.
</event>
<event>
 5    1  0.1279376E-008  0.3759166E+03  0.7957747E-01  0.3469134E+00
         13   -1    0    0    0    0  0.00000000000E+00  0.00000000000E+00  0.14999999963E+04  0.15000000000E+04  0.10566000000E+00 0.  1.
        994   -1    0    0    0    0 -0.00000000000E+00 -0.00000000000E+00  0.11368683772E-12  0.17120000000E+03  0.17120000000E+03 0.  0.
         13    1    1    2    0    0  0.86759555913E+01 -0.28723551109E+02  0.74030302502E+02  0.79879981511E+02  0.10566000000E+00 0.  1.
        994    1    1    2    0    0  0.94946755345E+00  0.55186635645E+01  0.63150763014E+01  0.17140792667E+03  0.17120000000E+03 0.  0.
        998    1    1    2    0    0 -0.96254231448E+01  0.23204887545E+02  0.14196546175E+04  0.14199120918E+04  0.10000000000E+02 0.  1.
</event>
<event>
 5    1  0.1279376E-008  0.3823175E+03  0.7957747E-01  0.3441129E+00
         13   -1    0    0    0    0  0.00000000000E+00  0.00000000000E+00  0.14999999963E+04  0.15000000000E+04  0.10566000000E+00 0. -1.
        994   -1    0    0    0    0 -0.00000000000E+00 -0.00000000000E+00  0.11368683772E-12  0.17120000000E+03  0.17120000000E+03 0.  0.
         13    1    1    2    0    0 -0.13149626315E+02  0.48151627762E+01  0.31416226985E+02  0.34396060047E+02  0.10566000000E+00 0. -1.
        994    1    1    2    0    0  0.10090475708E+02 -0.14792557405E+02  0.40322644109E+01  0.17218111572E+03  0.17120000000E+03 0.  0.
        998    1    1    2    0    0  0.30591506073E+01  0.99773946288E+01  0.14645515049E+04  0.14646228242E+04  0.10000000000E+02 0. -1.
</event>
<event>
 5    1  0.1279376E-008  0.3698571E+03  0.7957747E-01  0.3496548E+00
         13   -1    0    0    0    0  0.00000000000E+00  0.00000000000E+00  0.14999999963E+04  0.15000000000E+04  0.10566000000E+00 0.  1.
        994   -1    0    0    0    0 -0.00000000000E+00 -0.00000000000E+00  0.11368683772E-12  0.17120000000E+03  0.17120000000E+03 0.  0.
         13    1    1    2    0    0  0.19184428290E+02  0.40875802349E+02  0.12110641817E+03  0.12925033537E+03  0.10566000000E+00 0.  1.
        994    1    1    2    0    0 -0.97222462698E+01  0.99918618891E+01  0.10016392141E+02  0.17205850019E+03  0.17120000000E+03 0.  0.
        998    1    1    2    0    0 -0.94621820199E+01 -0.50867664238E+02  0.13688771860E+04  0.13698911644E+04  0.10000000000E+02 0.  1.
</event>
<event>
 5    1  0.1279376E-008  0.3845562E+03  0.7957747E-01  0.3431557E+00
         13   -1    0    0    0    0  0.00000000000E+00  0.00000000000E+00  0.14999999963E+04  0.15000000000E+04  0.10566000000E+00 0.  1.
        994   -1    0    0    0    0 -0.00000000000E+00 -0.00000000000E+00  0.11368683772E-12  0.17120000000E+03  0.17120000000E+03 0.  0.
         13    1    1    2    0    0 -0.15365355912E+02  0.22552663618E+01  0.64198037232E+02  0.66049826171E+02  0.10566000000E+00 0.  1.
        994    1    1    2    0    0  0.19345784710E+02  0.36685714633E+02  0.75362550141E+01  0.17631317643E+03  0.17120000000E+03 0.  0.
        998    1    1    2    0    0 -0.39804287977E+01 -0.38940980995E+02  0.14282657040E+04  0.14288369974E+04  0.10000000000E+02 0.  1.
</event>
<event>
 5    1  0.1279376E-008  0.3833933E+03  0.7957747E-01  0.3436515E+00
         13   -1    0    0    0    0  0.00000000000E+00  0.00000000000E+00  0.14999999963E+04  0.15000000000E+04  0.10566000000E+00 0.  1.
        994   -1    0    0    0    0 -0.00000000000E+00 -0.00000000000E+00  0.11368683772E-12  0.17120000000E+03  0.17120000000E+03 0.  0.
         13    1    1    2    0    0  0.15971696672E+02 -0.88239535751E+00  0.52325071417E+02  0.54715610012E+02  0.10566000000E+00 0.  1.
        994    1    1    2    0    0 -0.89142649901E+01  0.53033645655E+01  0.27856931204E+01  0.17153655553E+03  0.17120000000E+03 0.  0.
        998    1    1    2    0    0 -0.70574316819E+01 -0.44209692080E+01  0.14448892317E+04  0.14449478345E+04  0.10000000000E+02 0.  1.
</event>
<event>
 5    1  0.1279376E-008  0.3713669E+03  0.7957747E-01  0.3489632E+00
         13   -1    0    0    0    0  0.00000000000E+00  0.00000000000E+00  0.14999999963E+04  0.15000000000E+04  0.10566000000E+00 0.  1.
        994   -1    0    0    0    0 -0.00000000000E+00 -0.00000000000E+00  0.11368683772E-12  0.17120000000E+03  0.17120000000E+03 0.  0.
         13    1    1    2    0    0  0.32044213825E+02  0.51168933671E+02  0.18626894759E+03  0.19580915048E+03  0.10566000000E+00 0.  1.
        994    1    1    2    0    0 -0.30378057182E+02 -0.50585681592E+02  0.20635375598E+02  0.18225530518E+03  0.17120000000E+03 0.  0.
        998    1    1    2    0    0 -0.16661566422E+01 -0.58325207879E+00  0.12930956731E+04  0.12931355443E+04  0.10000000000E+02 0.  0.
</event>
<event>
 5    1  0.1279376E-008  0.3845384E+03  0.7957747E-01  0.3431632E+00
         13   -1    0    0    0    0  0.00000000000E+00  0.00000000000E+00  0.14999999963E+04  0.15000000000E+04  0.10566000000E+00 0.  1.
        994   -1    0    0    0    0 -0.00000000000E+00 -0.00000000000E+00  0.11368683772E-12  0.17120000000E+03  0.17120000000E+03 0.  0.
         13    1    1    2    0    0 -0.16095698870E+02 -0.82806792736E+01  0.91959913388E+02  0.93724479223E+02  0.10566000000E+00 0.  1.
        994    1    1    2    0    0  0.66577566790E+01 -0.13825777538E+01  0.20117984289E+01  0.17134679623E+03  0.17120000000E+03 0.  0.
        998    1    1    2    0    0  0.94379421912E+01  0.96632570274E+01  0.14060282845E+04  0.14061287245E+04  0.10000000000E+02 0.  1.
</event>
<event>
 5    1  0.1279376E-008  0.3796873E+03  0.7957747E-01  0.3452521E+00
         13   -1    0    0    0    0  0.00000000000E+00  0.00000000000E+00  0.14999999963E+04  0.15000000000E+04  0.10566000000E+00 0.  1.
        994   -1    0    0    0    0 -0.00000000000E+00 -0.00000000000E+00  0.11368683772E-12  0.17120000000E+03  0.17120000000E+03 0.  0.
         13    1    1    2    0    0 -0.38283508027E+02 -0.37563001106E+02  0.80386717962E+02  0.96636647436E+02  0.10566000000E+00 0.  1.
        994    1    1    2    0    0  0.31673880112E+02  0.37768489504E+02  0.25002088516E+02  0.17990063344E+03  0.17120000000E+03 0.  0.
        998    1    1    2    0    0  0.66096279149E+01 -0.20548839870E+00  0.13946111898E+04  0.13946627191E+04  0.10000000000E+02 0.  1.
</event>
<event>
 5    1  0.1279376E-008  0.3849331E+03  0.7957747E-01  0.3429956E+00
         13   -1    0    0    0    0  0.00000000000E+00  0.00000000000E+00  0.14999999963E+04  0.15000000000E+04  0.10566000000E+00 0.  1.
        994   -1    0    0    0    0 -0.00000000000E+00 -0.00000000000E+00  0.11368683772E-12  0.17120000000E+03  0.17120000000E+03 0.  0.
         13    1    1    2    0    0  0.18120891821E+02 -0.98722911027E+01  0.11796801790E+03  0.11975931389E+03  0.10566000000E+00 0.  1.
        994    1    1    2    0    0 -0.20097179907E+02  0.10563566335E+02  0.33607913337E+01  0.17273164300E+03  0.17120000000E+03 0.  0.
        998    1    1    2    0    0  0.19762880852E+01 -0.69127523210E+00  0.13786711870E+04  0.13787090431E+04  0.10000000000E+02 0.  1.
</event>
<event>
 5    1  0.1279376E-008  0.3858508E+03  0.7957747E-01  0.3426072E+00
         13   -1    0    0    0    0  0.00000000000E+00  0.00000000000E+00  0.14999999963E+04  0.15000000000E+04  0.10566000000E+00 0. -1.
        994   -1    0    0    0    0 -0.00000000000E+00 -0.00000000000E+00  0.11368683772E-12  0.17120000000E+03  0.17120000000E+03 0.  0.
         13    1    1    2    0    0  0.27073590758E+01 -0.12551046064E+02  0.67011236042E+02  0.68230311961E+02  0.10566000000E+00 0. -1.
        994    1    1    2    0    0 -0.10896639727E+01  0.12255436135E+02  0.17049720228E+01  0.17165002188E+03  0.17120000000E+03 0.  0.
        998    1    1    2    0    0 -0.16176951030E+01  0.29560992895E+00  0.14312837882E+04  0.14313196662E+04  0.10000000000E+02 0. -1.
</event>
<event>
 5    1  0.1279376E-008  0.3840594E+03  0.7957747E-01  0.3433671E+00
         13   -1    0    0    0    0  0.00000000000E+00  0.00000000000E+00  0.14999999963E+04  0.15000000000E+04  0.10566000000E+00 0.  1.
        994   -1    0    0    0    0 -0.00000000000E+00 -0.00000000000E+00  0.11368683772E-12  0.17120000000E+03  0.17120000000E+03 0.  0.
         13    1    1    2    0    0 -0.58852557986E+01 -0.86954209917E+01  0.25270901907E+02  0.27365603031E+02  0.10566000000E+00 0.  1.
        994    1    1    2    0    0  0.38401803293E+01  0.11169531602E+02  0.25581767537E+01  0.17162601694E+03  0.17120000000E+03 0.  0.
        998    1    1    2    0    0  0.20450754693E+01 -0.24741106101E+01  0.14721709176E+04  0.14722083800E+04  0.10000000000E+02 0.  0.
</event>
<event>
 5    1  0.1279376E-008  0.3783392E+03  0.7957747E-01  0.3458422E+00
         13   -1    0    0    0    0  0.00000000000E+00  0.00000000000E+00  0.14999999963E+04  0.15000000000E+04  0.10566000000E+00 0. -1.
        994   -1    0    0    0    0 -0.00000000000E+00 -0.00000000000E+00  0.11368683772E-12  0.17120000000E+03  0.17120000000E+03 0.  0.
         13    1    1    2    0    0  0.73480153411E+01 -0.10203900578E+02  0.13612188489E+02  0.18531480134E+02  0.10566000000E+00 0. -1.
        994    1    1    2    0    0 -0.75133152444E+01  0.96517863836E+01  0.54769040979E+01  0.17172374141E+03  0.17120000000E+03 0.  0.
        998    1    1    2    0    0  0.16529990333E+00  0.55211419449E+00  0.14809109037E+04  0.14809447785E+04  0.10000000000E+02 0.  0.
</event>
<event>
 5    1  0.1279376E-008  0.3722293E+03  0.7957747E-01  0.3485708E+00
         13   -1    0    0    0    0  0.00000000000E+00  0.00000000000E+00  0.14999999963E+04  0.15000000000E+04  0.10566000000E+00 0.  1.
        994   -1    0    0    0    0 -0.00000000000E+00 -0.00000000000E+00  0.11368683772E-12  0.17120000000E+03  0.17120000000E+03 0.  0.
         13    1    1    2    0    0 -0.36265579190E+02 -0.19774670258E+03  0.58501081041E+03  0.61859244263E+03  0.10566000000E+00 0.  1.
        994    1    1    2    0    0  0.61010570820E+02  0.24891313760E+03  0.28436450124E+03  0.41934788588E+03  0.17120000000E+03 0.  0.
        998    1    1    2    0    0 -0.24744991630E+02 -0.51166435023E+02  0.63062468462E+03  0.63325967149E+03  0.10000000000E+02 0.  1.
</event>
<event>
 5    1  0.1279376E-008  0.3771074E+03  0.7957747E-01  0.3463851E+00
         13   -1    0    0    0    0  0.00000000000E+00  0.00000000000E+00  0.14999999963E+04  0.15000000000E+04  0.10566000000E+00 0.  1.
        994   -1    0    0    0    0 -0.00000000000E+00 -0.00000000000E+00  0.11368683772E-12  0.17120000000E+03  0.17120000000E+03 0.  0.
         13    1    1    2    0    0  0.21061044351E+02  0.62872241643E+02  0.33521077727E+03  0.34170566680E+03  0.10566000000E+00 0.  1.
        994    1    1    2    0    0 -0.30162217510E+02 -0.48918249675E+02  0.16830359799E+02  0.18137104380E+03  0.17120000000E+03 0.  0.
        998    1    1    2    0    0  0.91011731589E+01 -0.13953991967E+02  0.11479588592E+04  0.11481232894E+04  0.10000000000E+02 0.  1.
</event>
<event>
 5    1  0.1279376E-008  0.3815371E+03  0.7957747E-01  0.3444493E+00
         13   -1    0    0    0    0  0.00000000000E+00  0.00000000000E+00  0.14999999963E+04  0.15000000000E+04  0.10566000000E+00 0. -1.
        994   -1    0    0    0    0 -0.00000000000E+00 -0.00000000000E+00  0.11368683772E-12  0.17120000000E+03  0.17120000000E+03 0.  0.
         13    1    1    2    0    0  0.94597492323E+01 -0.11288000773E+02  0.30729593946E+02  0.34076750507E+02  0.10566000000E+00 0. -1.
        994    1    1    2    0    0 -0.97004816888E+01  0.86266576784E+01  0.39199160156E+01  0.17173620559E+03  0.17120000000E+03 0.  0.
        998    1    1    2    0    0  0.24073245654E+00  0.26613430951E+01  0.14653504863E+04  0.14653870439E+04  0.10000000000E+02 0. -1.
</event>
<event>
 5    1  0.1279376E-008  0.3760064E+03  0.7957747E-01  0.3468734E+00
         13   -1    0    0    0    0  0.00000000000E+00  0.00000000000E+00  0.14999999963E+04  0.15000000000E+04  0.10566000000E+00 0. -1.
        994   -1    0    0    0    0 -0.00000000000E+00 -0.00000000000E+00  0.11368683772E-12  0.17120000000E+03  0.17120000000E+03 0.  0.
         13    1    1    2    0    0  0.13472406723E+02  0.31168232506E+01  0.12709035342E+02  0.18781668547E+02  0.10566000000E+00 0. -1.
        994    1    1    2    0    0 -0.12558227515E+02 -0.15496916434E+01  0.67053950885E+01  0.17179788400E+03  0.17120000000E+03 0.  0.
        998    1    1    2    0    0 -0.91417920791E+00 -0.15671316072E+01  0.14805855658E+04  0.14806204475E+04  0.10000000000E+02 0. -1.
</event>
<event>
 5    1  0.1279376E-008  0.3745585E+03  0.7957747E-01  0.3475200E+00
         13   -1    0    0    0    0  0.00000000000E+00  0.00000000000E+00  0.14999999963E+04  0.15000000000E+04  0.10566000000E+00 0.  1.
        994   -1    0    0    0    0 -0.00000000000E+00 -0.00000000000E+00  0.11368683772E-12  0.17120000000E+03  0.17120000000E+03 0.  0.
         13    1    1    2    0    0  0.21433017617E+02 -0.68966224413E+01  0.34568584911E+02  0.41254525474E+02  0.10566000000E+00 0.  1.
        994    1    1    2    0    0 -0.81681393258E+01  0.15095434252E+01  0.71405651571E+01  0.17155006526E+03  0.17120000000E+03 0.  0.
        998    1    1    2    0    0 -0.13264878291E+02  0.53870790160E+01  0.14582908462E+04  0.14583954093E+04  0.10000000000E+02 0.  1.
</event>
<event>
 5    1  0.1279376E-008  0.3719000E+03  0.7957747E-01  0.3487204E+00
         13   -1    0    0    0    0  0.00000000000E+00  0.00000000000E+00  0.14999999963E+04  0.15000000000E+04  0.10566000000E+00 0. -1.
        994   -1    0    0    0    0 -0.00000000000E+00 -0.00000000000E+00  0.11368683772E-12  0.17120000000E+03  0.17120000000E+03 0.  0.
         13    1    1    2    0    0 -0.15924713686E+03 -0.49793136284E+02  0.87986007412E+03  0.89554048944E+03  0.10566000000E+00 0. -1.
        994    1    1    2    0    0  0.21413208227E+03 -0.31412176419E+02  0.19161287156E+03  0.33595268422E+03  0.17120000000E+03 0.  0.
        998    1    1    2    0    0 -0.54884945413E+02  0.81205312704E+02  0.42852705060E+03  0.43970682635E+03  0.10000000000E+02 0. -1.
</event>
<event>
 5    1  0.1279376E-008  0.3831616E+03  0.7957747E-01  0.3437507E+00
         13   -1    0    0    0    0  0.00000000000E+00  0.00000000000E+00  0.14999999963E+04  0.15000000000E+04  0.10566000000E+00 0.  1.
        994   -1    0    0    0    0 -0.00000000000E+00 -0.00000000000E+00  0.11368683772E-12  0.17120000000E+03  0.17120000000E+03 0.  0.
         13    1    1    2    0    0 -0.71223960897E+01 -0.16336088897E+02  0.59939931646E+02  0.62533214344E+02  0.10566000000E+00 0.  1.
        994    1    1    2    0    0  0.87202979991E+01  0.15069737066E+02  0.35491918986E+01  0.17211965993E+03  0.17120000000E+03 0.  0.
        998    1    1    2    0    0 -0.15979019094E+01  0.12663518310E+01  0.14365108727E+04  0.14365471257E+04  0.10000000000E+02 0.  1.
</event>
<event>
 5    1  0.1279376E-008  0.3789647E+03  0.7957747E-01  0.3455679E+00
         13   -1    0    0    0    0  0.00000000000E+00  0.00000000000E+00  0.14999999963E+04  0.15000000000E+04  0.10566000000E+00 0. -1.
        994   -1    0    0    0    0 -0.00000000000E+00 -0.00000000000E+00  0.11368683772E-12  0.17120000000E+03  0.17120000000E+03 0.  0.
         13    1    1    2    0    0  0.23689785671E+02 -0.20483074665E+02  0.90519017436E+02  0.95783432673E+02  0.10566000000E+00 0. -1.
        994    1    1    2    0    0 -0.61343079515E+02  0.42886115557E+01  0.17447192027E+02  0.18274356378E+03  0.17120000000E+03 0.  0.
        998    1    1    2    0    0  0.37653293844E+02  0.16194463109E+02  0.13920337868E+04  0.13926730035E+04  0.10000000000E+02 0. -1.
</event>
<event>
 5    1  0.1279376E-008  0.3823295E+03  0.7957747E-01  0.3441078E+00
         13   -1    0    0    0    0  0.00000000000E+00  0.00000000000E+00  0.14999999963E+04  0.15000000000E+04  0.10566000000E+00 0. -1.
        994   -1    0    0    0    0 -0.00000000000E+00 -0.00000000000E+00  0.11368683772E-12  0.17120000000E+03  0.17120000000E+03 0.  0.
         13    1    1    2    0    0 -0.10619953179E+02  0.16607139347E+01  0.18248053287E+02  0.21178857125E+02  0.10566000000E+00 0. -1.
        994    1    1    2    0    0  0.89600451670E+01 -0.26387416622E+01  0.32513138202E+01  0.17148544081E+03  0.17120000000E+03 0.  0.
        998    1    1    2    0    0  0.16599080121E+01  0.97802772748E+00  0.14785006292E+04  0.14785357021E+04  0.10000000000E+02 0. -1.
</event>
<event>
 5    1  0.1279376E-008  0.3779435E+03  0.7957747E-01  0.3460162E+00
         13   -1    0    0    0    0  0.00000000000E+00  0.00000000000E+00  0.14999999963E+04  0.15000000000E+04  0.10566000000E+00 0. -1.
        994   -1    0    0    0    0 -0.00000000000E+00 -0.00000000000E+00  0.11368683772E-12  0.17120000000E+03  0.17120000000E+03 0.  0.
         13    1    1    2    0    0 -0.39923863345E+02  0.21582380841E+02  0.20579482527E+03  0.21073973356E+03  0.10566000000E+00 0. -1.
        994    1    1    2    0    0  0.23581184607E+02  0.12037648794E+01  0.70536333718E+01  0.17296449075E+03  0.17120000000E+03 0.  0.
        998    1    1    2    0    0  0.16342678738E+02 -0.22786145720E+02  0.12871515376E+04  0.12874957757E+04  0.10000000000E+02 0. -1.
</event>
<event>
 5    1  0.1279376E-008  0.3764312E+03  0.7957747E-01  0.3466846E+00
         13   -1    0    0    0    0  0.00000000000E+00  0.00000000000E+00  0.14999999963E+04  0.15000000000E+04  0.10566000000E+00 0.  1.
        994   -1    0    0    0    0 -0.00000000000E+00 -0.00000000000E+00  0.11368683772E-12  0.17120000000E+03  0.17120000000E+03 0.  0.
         13    1    1    2    0    0 -0.65115555500E+01 -0.17809342466E+02  0.65546723070E+01  0.20063597082E+02  0.10566000000E+00 0.  1.
        994    1    1    2    0    0 -0.20078999872E+01 -0.88886666872E+01  0.14677761107E+02  0.17206951133E+03  0.17120000000E+03 0.  0.
        998    1    1    2    0    0  0.85194555373E+01  0.26698009154E+02  0.14787675629E+04  0.14790668916E+04  0.10000000000E+02 0.  1.
</event>
<event>
 5    1  0.1279376E-008  0.3692528E+03  0.7957747E-01  0.3499332E+00
         13   -1    0    0    0    0  0.00000000000E+00  0.00000000000E+00  0.14999999963E+04  0.15000000000E+04  0.10566000000E+00 0. -1.
        994   -1    0    0    0    0 -0.00000000000E+00 -0.00000000000E+00  0.11368683772E-12  0.17120000000E+03  0.17120000000E+03 0.  0.
         13    1    1    2    0    0 -0.26076806668E+02 -0.12908433587E+01  0.35592664605E+02  0.44141987499E+02  0.10566000000E+00 0. -1.
        994    1    1    2    0    0 -0.33123950924E+02  0.12918461133E+02  0.14054890258E+02  0.17541682560E+03  0.17120000000E+03 0.  0.
        998    1    1    2    0    0  0.59200757592E+02 -0.11627617774E+02  0.14503524414E+04  0.14516411869E+04  0.10000000000E+02 0. -1.
</event>
<event>
 5    1  0.1279376E-008  0.3747197E+03  0.7957747E-01  0.3474477E+00
         13   -1    0    0    0    0  0.00000000000E+00  0.00000000000E+00  0.14999999963E+04  0.15000000000E+04  0.10566000000E+00 0. -1.
        994   -1    0    0    0    0 -0.00000000000E+00 -0.00000000000E+00  0.11368683772E-12  0.17120000000E+03  0.17120000000E+03 0.  0.
         13    1    1    2    0    0 -0.86769510771E+02  0.65277835330E+01  0.23331405937E+03  0.24901209092E+03  0.10566000000E+00 0. -1.
        994    1    1    2    0    0  0.85830585527E+02 -0.20183810112E+02  0.41636386527E+02  0.19702107574E+03  0.17120000000E+03 0.  0.
        998    1    1    2    0    0  0.93892524325E+00  0.13656026579E+02  0.12250495504E+04  0.12251668333E+04  0.10000000000E+02 0. -1.
</event>
<event>
 5    1  0.1279376E-008  0.3795694E+03  0.7957747E-01  0.3453036E+00
         13   -1    0    0    0    0  0.00000000000E+00  0.00000000000E+00  0.14999999963E+04  0.15000000000E+04  0.10566000000E+00 0.  1.
        994   -1    0    0    0    0 -0.00000000000E+00 -0.00000000000E+00  0.11368683772E-12  0.17120000000E+03  0.17120000000E+03 0.  0.
         13    1    1    2    0    0  0.26117377193E+02  0.74073861263E-01  0.74640609470E+02  0.79078155166E+02  0.10566000000E+00 0.  1.
        994    1    1    2    0    0 -0.22950030021E+02 -0.35936412822E+01  0.61592243181E+01  0.17287855327E+03  0.17120000000E+03 0.  0.
        998    1    1    2    0    0 -0.31673471723E+01  0.35195674209E+01  0.14192001625E+04  0.14192432916E+04  0.10000000000E+02 0.  1.
</event>
<event>
 5    1  0.1279376E-008  0.3843293E+03  0.7957747E-01  0.3432522E+00
         13   -1    0    0    0    0  0.00000000000E+00  0.00000000000E+00  0.14999999963E+04  0.15000000000E+04  0.10566000000E+00 0. -1.
        994   -1    0    0    0    0 -0.00000000000E+00 -0.00000000000E+00  0.11368683772E-12  0.17120000000E+03  0.17120000000E+03 0.  0.
         13    1    1    2    0    0  0.13994577129E+02  0.10989155208E+02  0.79719355629E+02  0.81681066026E+02  0.10566000000E+00 0. -1.
        994    1    1    2    0    0 -0.79206002040E+01 -0.10420892597E+02  0.25283659246E+01  0.17171826794E+03  0.17120000000E+03 0.  0.
        998    1    1    2    0    0 -0.60739769245E+01 -0.56826261077E+00  0.14177522747E+04  0.14178006660E+04  0.10000000000E+02 0. -1.
</event>
<event>
 5    1  0.1279376E-008  0.3851849E+03  0.7957747E-01  0.3428888E+00
         13   -1    0    0    0    0  0.00000000000E+00  0.00000000000E+00  0.14999999963E+04  0.15000000000E+04  0.10566000000E+00 0.  1.
        994   -1    0    0    0    0 -0.00000000000E+00 -0.00000000000E+00  0.11368683772E-12  0.17120000000E+03  0.17120000000E+03 0.  0.
         13    1    1    2    0    0 -0.16233964307E+02  0.34141008360E+01  0.92773830139E+02  0.94245383995E+02  0.10566000000E+00 0.  1.
        994    1    1    2    0    0  0.70309066258E+01  0.27034719178E+01  0.17248865812E+01  0.17137432025E+03  0.17120000000E+03 0.  0.
        998    1    1    2    0    0  0.92030576808E+01 -0.61175727538E+01  0.14055012796E+04  0.14055802958E+04  0.10000000000E+02 0.  1.
</event>
<event>
 5    1  0.1279376E-008  0.3850970E+03  0.7957747E-01  0.3429261E+00
         13   -1    0    0    0    0  0.00000000000E+00  0.00000000000E+00  0.14999999963E+04  0.15000000000E+04  0.10566000000E+00 0. -1.
        994   -1    0    0    0    0 -0.00000000000E+00 -0.00000000000E+00  0.11368683772E-12  0.17120000000E+03  0.17120000000E+03 0.  0.
         13    1    1    2    0    0 -0.77974034940E+01 -0.14137069343E+02  0.85673598542E+02  0.87181608623E+02  0.10566000000E+00 0. -1.
        994    1    1    2    0    0  0.62206080086E+01  0.27411978527E+01  0.17339270106E+01  0.17134367987E+03  0.17120000000E+03 0.  0.
        998    1    1    2    0    0  0.15767954854E+01  0.11395871490E+02  0.14125924707E+04  0.14126747115E+04  0.10000000000E+02 0. -1.
</event>
<event>
 5    1  0.1279376E-008  0.3784320E+03  0.7957747E-01  0.3458014E+00
         13   -1    0    0    0    0  0.00000000000E+00  0.00000000000E+00  0.14999999963E+04  0.15000000000E+04  0.10566000000E+00 0. -1.
        994   -1    0    0    0    0 -0.00000000000E+00 -0.00000000000E+00  0.11368683772E-12  0.17120000000E+03  0.17120000000E+03 0.  0.
         13    1    1    2    0    0 -0.15893248431E+01 -0.10325407034E+02  0.89247969953E+01  0.13740565829E+02  0.10566000000E+00 0. -1.
        994    1    1    2    0    0  0.21910447028E+01  0.39925090589E+01  0.49964589596E+01  0.17133343342E+03  0.17120000000E+03 0.  0.
        998    1    1    2    0    0 -0.60171985969E+00  0.63328979748E+01  0.14860787403E+04  0.14861260008E+04  0.10000000000E+02 0. -1.
</event>
<event>
 5    1  0.1279376E-008  0.3846793E+03  0.7957747E-01  0.3431033E+00
         13   -1    0    0    0    0  0.00000000000E+00  0.00000000000E+00  0.14999999963E+04  0.15000000000E+04  0.10566000000E+00 0. -1.
        994   -1    0    0    0    0 -0.00000000000E+00 -0.00000000000E+00  0.11368683772E-12  0.17120000000E+03  0.17120000000E+03 0.  0.
         13    1    1    2    0    0 -0.95455595732E+01  0.11763086941E+02  0.61419574975E+02  0.63260281979E+02  0.10566000000E+00 0. -1.
        994    1    1    2    0    0 -0.32985325355E+01 -0.24906913726E+02  0.38702618256E+01  0.17307701637E+03  0.17120000000E+03 0.  0.
        998    1    1    2    0    0  0.12844092109E+02  0.13143826785E+02  0.14347101595E+04  0.14348627017E+04  0.10000000000E+02 0. -1.
</event>
<event>
 5    1  0.1279376E-008  0.3785755E+03  0.7957747E-01  0.3457385E+00
         13   -1    0    0    0    0  0.00000000000E+00  0.00000000000E+00  0.14999999963E+04  0.15000000000E+04  0.10566000000E+00 0. -1.
        994   -1    0    0    0    0 -0.00000000000E+00 -0.00000000000E+00  0.11368683772E-12  0.17120000000E+03  0.17120000000E+03 0.  0.
         13    1    1    2    0    0 -0.75107413646E+02 -0.24502532100E+02  0.40923035191E+03  0.41678650380E+03  0.10566000000E+00 0. -1.
        994    1    1    2    0    0  0.92375158382E+02  0.11455101380E+02  0.34529494750E+02  0.19790430829E+03  0.17120000000E+03 0.  0.
        998    1    1    2    0    0 -0.17267744736E+02  0.13047430719E+02  0.10562401496E+04  0.10565091879E+04  0.10000000000E+02 0. -1.
</event>
<event>
 5    1  0.1279376E-008  0.3759363E+03  0.7957747E-01  0.3469046E+00
         13   -1    0    0    0    0  0.00000000000E+00  0.00000000000E+00  0.14999999963E+04  0.15000000000E+04  0.10566000000E+00 0.  1.
        994   -1    0    0    0    0 -0.00000000000E+00 -0.00000000000E+00  0.11368683772E-12  0.17120000000E+03  0.17120000000E+03 0.  0.
         13    1    1    2    0    0 -0.36580453523E+02 -0.15859869764E+02  0.14324744621E+03  0.14869265973E+03  0.10566000000E+00 0.  1.
        994    1    1    2    0    0  0.33040999543E+01 -0.87919013344E+01  0.64976657066E+01  0.17158051831E+03  0.17120000000E+03 0.  0.
        998    1    1    2    0    0  0.33276353568E+02  0.24651771098E+02  0.13502548844E+04  0.13509268220E+04  0.10000000000E+02 0.  1.
</event>
<event>
 5    1  0.1279376E-008  0.3720745E+03  0.7957747E-01  0.3486411E+00
         13   -1    0    0    0    0  0.00000000000E+00  0.00000000000E+00  0.14999999963E+04  0.15000000000E+04  0.10566000000E+00 0.  1.
        994   -1    0    0    0    0 -0.00000000000E+00 -0.00000000000E+00  0.11368683772E-12  0.17120000000E+03  0.17120000000E+03 0.  0.
         13    1    1    2    0    0 -0.56974677806E+01  0.60463410086E+02  0.20981584641E+03  0.21842844519E+03  0.10566000000E+00 0.  1.
        994    1    1    2    0    0 -0.13529920754E+02 -0.47664664014E+02  0.16664425154E+02  0.17900313410E+03  0.17120000000E+03 0.  0.
        998    1    1    2    0    0  0.19227388535E+02 -0.12798746072E+02  0.12735197247E+04  0.12737684207E+04  0.10000000000E+02 0.  1.
</event>
<event>
 5    1  0.1279376E-008  0.3838381E+03  0.7957747E-01  0.3434615E+00
         13   -1    0    0    0    0  0.00000000000E+00  0.00000000000E+00  0.14999999963E+04  0.15000000000E+04  0.10566000000E+00 0. -1.
        994   -1    0    0    0    0 -0.00000000000E+00 -0.00000000000E+00  0.11368683772E-12  0.17120000000E+03  0.17120000000E+03 0.  0.
         13    1    1    2    0    0 -0.13397369581E+02  0.11849091329E+02  0.68875132706E+02  0.71159578037E+02  0.10566000000E+00 0. -1.
        994    1    1    2    0    0  0.10730224177E+02 -0.17075670352E+02  0.35518595564E+01  0.17242033504E+03  0.17120000000E+03 0.  0.
        998    1    1    2    0    0  0.26671454048E+01  0.52265790228E+01  0.14275730040E+04  0.14276200869E+04  0.10000000000E+02 0. -1.
</event>
<event>
 5    1  0.1279376E-008  0.3779643E+03  0.7957747E-01  0.3460071E+00
         13   -1    0    0    0    0  0.00000000000E+00  0.00000000000E+00  0.14999999963E+04  0.15000000000E+04  0.10566000000E+00 0. -1.
        994   -1    0    0    0    0 -0.00000000000E+00 -0.00000000000E+00  0.11368683772E-12  0.17120000000E+03  0.17120000000E+03 0.  0.
         13    1    1    2    0    0 -0.18678624336E+02 -0.55119806148E+01  0.56083101312E+01  0.20266653497E+02  0.10566000000E+00 0. -1.
        994    1    1    2    0    0  0.14446110419E+02  0.21137648293E+02  0.17574588917E+02  0.17399366787E+03  0.17120000000E+03 0.  0.
        998    1    1    2    0    0  0.42325139174E+01 -0.15625667678E+02  0.14768170972E+04  0.14769396786E+04  0.10000000000E+02 0. -1.
</event>
<event>
 5    1  0.1279376E-008  0.3786365E+03  0.7957747E-01  0.3457117E+00
         13   -1    0    0    0    0  0.00000000000E+00  0.00000000000E+00  0.14999999963E+04  0.15000000000E+04  0.10566000000E+00 0.  1.
        994   -1    0    0    0    0 -0.00000000000E+00 -0.00000000000E+00  0.11368683772E-12  0.17120000000E+03  0.17120000000E+03 0.  0.
         13    1    1    2    0    0 -0.24030551034E+01  0.22569147355E+02  0.50683879768E+02  0.55533844802E+02  0.10566000000E+00 0.  1.
        994    1    1    2    0    0 -0.74232914396E+00 -0.19828751045E+02  0.61462742946E+01  0.17245563809E+03  0.17120000000E+03 0.  0.
        998    1    1    2    0    0  0.31453842474E+01 -0.27403963108E+01  0.14431698422E+04  0.14432105171E+04  0.10000000000E+02 0.  1.
</event>
<event>
 5    1  0.1279376E-008  0.3847502E+03  0.7957747E-01  0.3430732E+00
         13   -1    0    0    0    0  0.00000000000E+00  0.00000000000E+00  0.14999999963E+04  0.15000000000E+04  0.10566000000E+00 0.  1.
        994   -1    0    0    0    0 -0.00000000000E+00 -0.00000000000E+00  0.11368683772E-12  0.17120000000E+03  0.17120000000E+03 0.  0.
         13    1    1    2    0    0 -0.13296646247E+02  0.15276258588E+02  0.11793478734E+03  0.11966114702E+03  0.10566000000E+00 0.  1.
        994    1    1    2    0    0  0.40939939290E+01 -0.11782118218E+02  0.22664430521E+01  0.17166873874E+03  0.17120000000E+03 0.  0.
        998    1    1    2    0    0  0.92026523179E+01 -0.34941403701E+01  0.13797987659E+04  0.13798701142E+04  0.10000000000E+02 0.  1.
</event>
<event>
 5    1  0.1279376E-008  0.3777858E+03  0.7957747E-01  0.3460857E+00
         13   -1    0    0    0    0  0.00000000000E+00  0.00000000000E+00  0.14999999963E+04  0.15000000000E+04  0.10566000000E+00 0. -1.
        994   -1    0    0    0    0 -0.00000000000E+00 -0.00000000000E+00  0.11368683772E-12  0.17120000000E+03  0.17120000000E+03 0.  0.
         13    1    1    2    0    0 -0.26468228420E+02  0.30100764057E+02  0.48126890924E+02  0.62632514771E+02  0.10566000000E+00 0. -1.
        994    1    1    2    0    0  0.21447653774E+02 -0.11549904871E+02  0.17252024481E+02  0.17378283720E+03  0.17120000000E+03 0.  0.
        998    1    1    2    0    0  0.50205746453E+01 -0.18550859187E+02  0.14346210809E+04  0.14347846480E+04  0.10000000000E+02 0. -1.
</event>
<event>
 5    1  0.1279376E-008  0.3755971E+03  0.7957747E-01  0.3470557E+00
         13   -1    0    0    0    0  0.00000000000E+00  0.00000000000E+00  0.14999999963E+04  0.15000000000E+04  0.10566000000E+00 0.  1.
        994   -1    0    0    0    0 -0.00000000000E+00 -0.00000000000E+00  0.11368683772E-12  0.17120000000E+03  0.17120000000E+03 0.  0.
         13    1    1    2    0    0  0.17447129528E+02 -0.65232203999E+01  0.25051467418E+02  0.31217653931E+02  0.10566000000E+00 0.  1.
        994    1    1    2    0    0 -0.90125744724E+01 -0.98636058773E+01  0.69782378009E+01  0.17186230832E+03  0.17120000000E+03 0.  0.
        998    1    1    2    0    0 -0.84345550552E+01  0.16386826277E+02  0.14679702911E+04  0.14681200377E+04  0.10000000000E+02 0.  1.
</event>
<event>
 5    1  0.1279376E-008  0.3840406E+03  0.7957747E-01  0.3433751E+00
         13   -1    0    0    0    0  0.00000000000E+00  0.00000000000E+00  0.14999999963E+04  0.15000000000E+04  0.10566000000E+00 0.  1.
        994   -1    0    0    0    0 -0.00000000000E+00 -0.00000000000E+00  0.11368683772E-12  0.17120000000E+03  0.17120000000E+03 0.  0.
         13    1    1    2    0    0 -0.16019546327E+02 -0.47436826301E+01  0.62998337437E+02  0.65176146506E+02  0.10566000000E+00 0.  1.
        994    1    1    2    0    0  0.18053149218E+02  0.53798809382E+01  0.32787377778E+01  0.17226447526E+03  0.17120000000E+03 0.  0.
        998    1    1    2    0    0 -0.20336028908E+01 -0.63619830808E+00  0.14337229211E+04  0.14337593782E+04  0.10000000000E+02 0.  1.
</event>
<event>
 5    1  0.1279376E-008  0.3839942E+03  0.7957747E-01  0.3433949E+00
         13   -1    0    0    0    0  0.00000000000E+00  0.00000000000E+00  0.14999999963E+04  0.15000000000E+04  0.10566000000E+00 0. -1.
        994   -1    0    0    0    0 -0.00000000000E+00 -0.00000000000E+00  0.11368683772E-12  0.17120000000E+03  0.17120000000E+03 0.  0.
         13    1    1    2    0    0 -0.10425969552E+02  0.42676405140E+01  0.29045932782E+02  0.31154309042E+02  0.10566000000E+00 0. -1.
        994    1    1    2    0    0  0.95402139014E+01 -0.35527922905E+00  0.24311111091E+01  0.17148321261E+03  0.17120000000E+03 0.  0.
        998    1    1    2    0    0  0.88575565053E+00 -0.39123612849E+01  0.14685229524E+04  0.14685624784E+04  0.10000000000E+02 0. -1.
</event>
<event>
 5    1  0.1279376E-008  0.3772396E+03  0.7957747E-01  0.3463267E+00
         13   -1    0    0    0    0  0.00000000000E+00  0.00000000000E+00  0.14999999963E+04  0.15000000000E+04  0.10566000000E+00 0. -1.
        994   -1    0    0    0    0 -0.00000000000E+00 -0.00000000000E+00  0.11368683772E-12  0.17120000000E+03  0.17120000000E+03 0.  0.
         13    1    1    2    0    0  0.50289035248E+02  0.33684290942E+02  0.29841950997E+03  0.30449603219E+03  0.10566000000E+00 0. -1.
        994    1    1    2    0    0 -0.40500331937E+02 -0.23393629631E+02  0.12949088671E+02  0.17794565938E+03  0.17120000000E+03 0.  0.
        998    1    1    2    0    0 -0.97887033113E+01 -0.10290661311E+02  0.11886313976E+04  0.11887583084E+04  0.10000000000E+02 0. -1.
</event>
<event>
 5    1  0.1279376E-008  0.3819773E+03  0.7957747E-01  0.3442594E+00
         13   -1    0    0    0    0  0.00000000000E+00  0.00000000000E+00  0.14999999963E+04  0.15000000000E+04  0.10566000000E+00 0. -1.
        994   -1    0    0    0    0 -0.00000000000E+00 -0.00000000000E+00  0.11368683772E-12  0.17120000000E+03  0.17120000000E+03 0.  0.
         13    1    1    2    0    0 -0.12325745767E+02 -0.32108716274E+02  0.16226531020E+03  0.16587023762E+03  0.10566000000E+00 0. -1.
        994    1    1    2    0    0  0.25775817046E+02  0.33116852844E+02  0.90095344291E+01  0.17649852803E+03  0.17120000000E+03 0.  0.
        998    1    1    2    0    0 -0.13450071279E+02 -0.10081365697E+01  0.13287251516E+04  0.13288312343E+04  0.10000000000E+02 0. -1.
</event>
<event>
 5    1  0.1279376E-008  0.3844294E+03  0.7957747E-01  0.3432096E+00
         13   -1    0    0    0    0  0.00000000000E+00  0.00000000000E+00  0.14999999963E+04  0.15000000000E+04  0.10566000000E+00 0.  1.
        994   -1    0    0    0    0 -0.00000000000E+00 -0.00000000000E+00  0.11368683772E-12  0.17120000000E+03  0.17120000000E+03 0.  0.
         13    1    1    2    0    0  0.31115330330E+01  0.16857972970E+02  0.74161984859E+02  0.76117567307E+02  0.10566000000E+00 0.  1.
        994    1    1    2    0    0 -0.11534797576E+01 -0.16210011024E+02  0.27843230108E+01  0.17199211443E+03  0.17120000000E+03 0.  0.
        998    1    1    2    0    0 -0.19580532755E+01 -0.64796194658E+00  0.14230536884E+04  0.14230903183E+04  0.10000000000E+02 0.  1.
</event>
<event>
 5    1  0.1279376E-008  0.3736676E+03  0.7957747E-01  0.3479203E+00
         13   -1    0    0    0    0  0.00000000000E+00  0.00000000000E+00  0.14999999963E+04  0.15000000000E+04  0.10566000000E+00 0.  1.
        994   -1    0    0    0    0 -0.00000000000E+00 -0.00000000000E+00  0.11368683772E-12  0.17120000000E+03  0.17120000000E+03 0.  0.
         13    1    1    2    0    0  0.51743862714E+02 -0.17381637409E+02  0.19606484349E+03  0.20352145505E+03  0.10566000000E+00 0.  1.
        994    1    1    2    0    0 -0.33937897211E+02  0.95072497838E+01  0.11617803402E+02  0.17517586027E+03  0.17120000000E+03 0.  0.
        998    1    1    2    0    0 -0.17805965502E+02  0.78743876251E+01  0.12923173494E+04  0.12925026847E+04  0.10000000000E+02 0.  1.
</event>
<event>
 5    1  0.1279376E-008  0.2308172E+03  0.7957747E-01  0.4560381E+00
         13   -1    0    0    0    0  0.00000000000E+00  0.00000000000E+00  0.14999999963E+04  0.15000000000E+04  0.10566000000E+00 0. -1.
        994   -1    0    0    0    0 -0.00000000000E+00 -0.00000000000E+00  0.11368683772E-12  0.17120000000E+03  0.17120000000E+03 0.  0.
         13    1    1    2    0    0  0.55213967576E+02 -0.14278876418E+03  0.13596986469E+03  0.20475602227E+03  0.10566000000E+00 0. -1.
        994    1    1    2    0    0 -0.58911908934E+02  0.14594227207E+03  0.21298132250E+03  0.31534147131E+03  0.17120000000E+03 0.  0.
        998    1    1    2    0    0  0.36979413578E+01 -0.31535078928E+01  0.11510488091E+04  0.11511025064E+04  0.10000000000E+02 0.  0.
</event>
<event>
 5    1  0.1279376E-008  0.2564021E+03  0.7957747E-01  0.4266631E+00
         13   -1    0    0    0    0  0.00000000000E+00  0.00000000000E+00  0.14999999963E+04  0.15000000000E+04  0.10566000000E+00 0.  1.
        994   -1    0    0    0    0 -0.00000000000E+00 -0.00000000000E+00  0.11368683772E-12  0.17120000000E+03  0.17120000000E+03 0.  0.
         13    1    1    2    0    0 -0.46346524726E+01 -0.16538854765E+03  0.44439140240E+03  0.47419255729E+03  0.10566000000E+00 0.  1.
        994    1    1    2    0    0 -0.20535387318E+02  0.10416548030E+03  0.76301449639E+02  0.21541471778E+03  0.17120000000E+03 0.  0.
        998    1    1    2    0    0  0.25170039791E+02  0.61223067356E+02  0.97930714424E+03  0.98159272494E+03  0.10000000000E+02 0. -1.
</event>
<event>
 5    1  0.1279376E-008  0.3833495E+03  0.7957747E-01  0.3436702E+00
         13   -1    0    0    0    0  0.00000000000E+00  0.00000000000E+00  0.14999999963E+04  0.15000000000E+04  0.10566000000E+00 0.  1.
        994   -1    0    0    0    0 -0.00000000000E+00 -0.00000000000E+00  0.11368683772E-12  0.17120000000E+03  0.17120000000E+03 0.  0.
         13    1    1    2    0    0 -0.18924489074E+02 -0.18093373209E+02  0.14350430501E+03  0.14587324347E+03  0.10566000000E+00 0.  1.
        994    1    1    2    0    0  0.79315318929E+01  0.88487363873E+01  0.29188127864E+01  0.17163673500E+03  0.17120000000E+03 0.  0.
        998    1    1    2    0    0  0.10992957181E+02  0.92446368216E+01  0.13535768785E+04  0.13536900215E+04  0.10000000000E+02 0.  1.
</event>
<event>
 5    1  0.1279376E-008  0.3860474E+03  0.7957747E-01  0.3425242E+00
         13   -1    0    0    0    0  0.00000000000E+00  0.00000000000E+00  0.14999999963E+04  0.15000000000E+04  0.10566000000E+00 0.  1.
        994   -1    0    0    0    0 -0.00000000000E+00 -0.00000000000E+00  0.11368683772E-12  0.17120000000E+03  0.17120000000E+03 0.  0.
         13    1    1    2    0    0  0.99813017710E+01 -0.38992283026E+01  0.56329302208E+02  0.57339618220E+02  0.10566000000E+00 0.  1.
        994    1    1    2    0    0 -0.64992067123E+01 -0.22722329177E+02  0.29437841651E+01  0.17284863261E+03  0.17120000000E+03 0.  0.
        998    1    1    2    0    0 -0.34820950587E+01  0.26621557479E+02  0.14407269099E+04  0.14410117492E+04  0.10000000000E+02 0.  1.
</event>
<event>
 5    1  0.1279376E-008  0.3808907E+03  0.7957747E-01  0.3447289E+00
         13   -1    0    0    0    0  0.00000000000E+00  0.00000000000E+00  0.14999999963E+04  0.15000000000E+04  0.10566000000E+00 0. -1.
        994   -1    0    0    0    0 -0.00000000000E+00 -0.00000000000E+00  0.11368683772E-12  0.17120000000E+03  0.17120000000E+03 0.  0.
         13    1    1    2    0    0 -0.84246069093E+01 -0.36908615730E+02  0.21996311971E+03  0.22319723366E+03  0.10566000000E+00 0. -1.
        994    1    1    2    0    0 -0.13532866321E+02  0.10171016659E+02  0.46400138207E+01  0.17209752404E+03  0.17120000000E+03 0.  0.
        998    1    1    2    0    0  0.21957473231E+02  0.26737599071E+02  0.12753968628E+04  0.12759052423E+04  0.10000000000E+02 0. -1.
</event>
<event>
 5    1  0.1279376E-008  0.3755809E+03  0.7957747E-01  0.3470629E+00
         13   -1    0    0    0    0  0.00000000000E+00  0.00000000000E+00  0.14999999963E+04  0.15000000000E+04  0.10566000000E+00 0. -1.
        994   -1    0    0    0    0 -0.00000000000E+00 -0.00000000000E+00  0.11368683772E-12  0.17120000000E+03  0.17120000000E+03 0.  0.
         13    1    1    2    0    0 -0.62556719555E+02 -0.16459301433E+03  0.82338443153E+03  0.84200126887E+03  0.10566000000E+00 0. -1.
        994    1    1    2    0    0  0.77105254742E+02  0.16573961281E+03  0.12977886028E+03  0.28207593329E+03  0.17120000000E+03 0.  0.
        998    1    1    2    0    0 -0.14548535187E+02 -0.11465984880E+01  0.54683670448E+03  0.54712279785E+03  0.10000000000E+02 0. -1.
</event>
<event>
 5    1  0.1279376E-008  0.3857328E+03  0.7957747E-01  0.3426570E+00
         13   -1    0    0    0    0  0.00000000000E+00  0.00000000000E+00  0.14999999963E+04  0.15000000000E+04  0.10566000000E+00 0.  1.
        994   -1    0    0    0    0 -0.00000000000E+00 -0.00000000000E+00  0.11368683772E-12  0.17120000000E+03  0.17120000000E+03 0.  0.
         13    1    1    2    0    0  0.96469658581E+01 -0.42291905396E+01  0.44456363673E+02  0.45687300620E+02  0.10566000000E+00 0.  1.
        994    1    1    2    0    0 -0.84630138001E+01 -0.48151105880E+01  0.15778602776E+01  0.17148392792E+03  0.17120000000E+03 0.  0.
        998    1    1    2    0    0 -0.11839520581E+01  0.90443011276E+01  0.14539657723E+04  0.14540287715E+04  0.10000000000E+02 0.  1.
</event>
<event>
 5    1  0.1279376E-008  0.3828694E+03  0.7957747E-01  0.3438759E+00
         13   -1    0    0    0    0  0.00000000000E+00  0.00000000000E+00  0.14999999963E+04  0.15000000000E+04  0.10566000000E+00 0.  1.
        994   -1    0    0    0    0 -0.00000000000E+00 -0.00000000000E+00  0.11368683772E-12  0.17120000000E+03  0.17120000000E+03 0.  0.
         13    1    1    2    0    0  0.46442419082E+01  0.13784587414E+02  0.39487674992E+02  0.42081723745E+02  0.10566000000E+00 0.  1.
        994    1    1    2    0    0  0.24476313046E+01 -0.40528537224E+01  0.27658655076E+01  0.17128778863E+03  0.17120000000E+03 0.  0.
        998    1    1    2    0    0 -0.70918732127E+01 -0.97317336920E+01  0.14577464558E+04  0.14578304876E+04  0.10000000000E+02 0.  1.
</event>
<event>
 5    1  0.1279376E-008  0.3778252E+03  0.7957747E-01  0.3460683E+00
         13   -1    0    0    0    0  0.00000000000E+00  0.00000000000E+00  0.14999999963E+04  0.15000000000E+04  0.10566000000E+00 0. -1.
        994   -1    0    0    0    0 -0.00000000000E+00 -0.00000000000E+00  0.11368683772E-12  0.17120000000E+03  0.17120000000E+03 0.  0.
         13    1    1    2    0    0  0.11256536570E+02  0.19386877642E+02  0.44383561820E+02  0.49723961670E+02  0.10566000000E+00 0. -1.
        994    1    1    2    0    0 -0.13713735900E+02 -0.21417669777E+02  0.74158927343E+01  0.17323746303E+03  0.17120000000E+03 0.  0.
        998    1    1    2    0    0  0.24571993299E+01  0.20307921345E+01  0.14482005417E+04  0.14482385753E+04  0.10000000000E+02 0. -1.
</event>
<event>
 5    1  0.1279376E-008  0.3933834E+03  0.7957747E-01  0.3394877E+00
         13   -1    0    0    0    0  0.00000000000E+00  0.00000000000E+00  0.14999999963E+04  0.15000000000E+04  0.10566000000E+00 0. -1.
        994   -1    0    0    0    0 -0.00000000000E+00 -0.00000000000E+00  0.11368683772E-12  0.17120000000E+03  0.17120000000E+03 0.  0.
         13    1    1    2    0    0  0.43678524188E+02  0.10485388167E+03  0.29737030606E+03  0.31832571380E+03  0.10566000000E+00 0. -1.
        994    1    1    2    0    0 -0.22714858289E+01 -0.47743887078E+02  0.32642371473E+02  0.18071968021E+03  0.17120000000E+03 0.  0.
        998    1    1    2    0    0 -0.41407038359E+02 -0.57109994593E+02  0.11699873187E+04  0.11721546060E+04  0.10000000000E+02 0. -1.
</event>
<event>
 5    1  0.1279376E-008  0.3763510E+03  0.7957747E-01  0.3467203E+00
         13   -1    0    0    0    0  0.00000000000E+00  0.00000000000E+00  0.14999999963E+04  0.15000000000E+04  0.10566000000E+00 0.  1.
        994   -1    0    0    0    0 -0.00000000000E+00 -0.00000000000E+00  0.11368683772E-12  0.17120000000E+03  0.17120000000E+03 0.  0.
         13    1    1    2    0    0 -0.17482403485E+02  0.32790851363E+02  0.99211964377E+02  0.10594290634E+03  0.10566000000E+00 0.  1.
        994    1    1    2    0    0  0.20821826046E+02 -0.48784011170E+02  0.15566654016E+02  0.17990327652E+03  0.17120000000E+03 0.  0.
        998    1    1    2    0    0 -0.33394225616E+01  0.15993159808E+02  0.13852213779E+04  0.13853538171E+04  0.10000000000E+02 0.  1.
</event>
<event>
 5    1  0.1279376E-008  0.3852023E+03  0.7957747E-01  0.3428814E+00
         13   -1    0    0    0    0  0.00000000000E+00  0.00000000000E+00  0.14999999963E+04  0.15000000000E+04  0.10566000000E+00 0.  1.
        994   -1    0    0    0    0 -0.00000000000E+00 -0.00000000000E+00  0.11368683772E-12  0.17120000000E+03  0.17120000000E+03 0.  0.
         13    1    1    2    0    0  0.69668519185E+01 -0.75456069238E+01  0.35285744788E+02  0.36750076990E+02  0.10566000000E+00 0.  1.
        994    1    1    2    0    0 -0.13499355405E+02 -0.99205964867E+01  0.24526081635E+01  0.17203518860E+03  0.17120000000E+03 0.  0.
        998    1    1    2    0    0  0.65325034862E+01  0.17466203410E+02  0.14622616433E+04  0.14624147344E+04  0.10000000000E+02 0.  1.
</event>
<event>
 5    1  0.1279376E-008  0.3829747E+03  0.7957747E-01  0.3438308E+00
         13   -1    0    0    0    0  0.00000000000E+00  0.00000000000E+00  0.14999999963E+04  0.15000000000E+04  0.10566000000E+00 0.  1.
        994   -1    0    0    0    0 -0.00000000000E+00 -0.00000000000E+00  0.11368683772E-12  0.17120000000E+03  0.17120000000E+03 0.  0.
         13    1    1    2    0    0  0.30664231388E+01  0.16280621233E+02  0.53084748886E+02  0.55609920939E+02  0.10566000000E+00 0.  1.
        994    1    1    2    0    0 -0.35721553247E+01 -0.25425443548E+01  0.27026790141E+01  0.17127746291E+03  0.17120000000E+03 0.  0.
        998    1    1    2    0    0  0.50573218585E+00 -0.13738076878E+02  0.14442125684E+04  0.14443126162E+04  0.10000000000E+02 0.  1.
</event>
<event>
 5    1  0.1279376E-008  0.3859214E+03  0.7957747E-01  0.3425774E+00
         13   -1    0    0    0    0  0.00000000000E+00  0.00000000000E+00  0.14999999963E+04  0.15000000000E+04  0.10566000000E+00 0.  1.
        994   -1    0    0    0    0 -0.00000000000E+00 -0.00000000000E+00  0.11368683772E-12  0.17120000000E+03  0.17120000000E+03 0.  0.
         13    1    1    2    0    0  0.11546155158E+02 -0.39516395854E+00  0.60463041612E+02  0.61556968887E+02  0.10566000000E+00 0.  1.
        994    1    1    2    0    0 -0.91754864171E+00 -0.48947307655E+01  0.12546954602E+01  0.17127701114E+03  0.17120000000E+03 0.  0.
        998    1    1    2    0    0 -0.10628606517E+02  0.52898947241E+01  0.14382822592E+04  0.14383660200E+04  0.10000000000E+02 0.  1.
</event>
<event>
 5    1  0.1279376E-008  0.4038433E+03  0.7957747E-01  0.3353486E+00
         13   -1    0    0    0    0  0.00000000000E+00  0.00000000000E+00  0.14999999963E+04  0.15000000000E+04  0.10566000000E+00 0.  1.
        994   -1    0    0    0    0 -0.00000000000E+00 -0.00000000000E+00  0.11368683772E-12  0.17120000000E+03  0.17120000000E+03 0.  0.
         13    1    1    2    0    0 -0.96348522920E+01 -0.34935025384E+02  0.77402406865E+01  0.37056832935E+02  0.10566000000E+00 0.  1.
        994    1    1    2    0    0  0.20364509571E+02  0.74190047901E+02  0.54045157053E+02  0.19531819029E+03  0.17120000000E+03 0.  0.
        998    1    1    2    0    0 -0.10729657279E+02 -0.39255022516E+02  0.14382145985E+04  0.14388249768E+04  0.10000000000E+02 0.  1.
</event>
<event>
 5    1  0.1279376E-008  0.3851366E+03  0.7957747E-01  0.3429093E+00
         13   -1    0    0    0    0  0.00000000000E+00  0.00000000000E+00  0.14999999963E+04  0.15000000000E+04  0.10566000000E+00 0. -1.
        994   -1    0    0    0    0 -0.00000000000E+00 -0.00000000000E+00  0.11368683772E-12  0.17120000000E+03  0.17120000000E+03 0.  0.
         13    1    1    2    0    0  0.16534917563E+02 -0.11408552130E+02  0.12007887603E+03  0.12174771535E+03  0.10566000000E+00 0. -1.
        994    1    1    2    0    0 -0.15654673252E+02  0.14526333154E+02  0.30630257241E+01  0.17255406479E+03  0.17120000000E+03 0.  0.
        998    1    1    2    0    0 -0.88024431137E+00 -0.31177810238E+01  0.13768580945E+04  0.13768982199E+04  0.10000000000E+02 0.  0.
</event>
<event>
 5    1  0.1279376E-008  0.3730297E+03  0.7957747E-01  0.3482082E+00
         13   -1    0    0    0    0  0.00000000000E+00  0.00000000000E+00  0.14999999963E+04  0.15000000000E+04  0.10566000000E+00 0. -1.
        994   -1    0    0    0    0 -0.00000000000E+00 -0.00000000000E+00  0.11368683772E-12  0.17120000000E+03  0.17120000000E+03 0.  0.
         13    1    1    2    0    0  0.39886082569E+02 -0.47297400799E+02  0.31362405643E+03  0.31966858407E+03  0.10566000000E+00 0. -1.
        994    1    1    2    0    0 -0.11963186324E+02 -0.50620956580E+01  0.82716538322E+01  0.17189125311E+03  0.17120000000E+03 0.  0.
        998    1    1    2    0    0 -0.27922896245E+02  0.52359496457E+02  0.11781042860E+04  0.11796401628E+04  0.10000000000E+02 0. -1.
</event>
<event>
 5    1  0.1279376E-008  0.3722175E+03  0.7957747E-01  0.3485761E+00
         13   -1    0    0    0    0  0.00000000000E+00  0.00000000000E+00  0.14999999963E+04  0.15000000000E+04  0.10566000000E+00 0.  1.
        994   -1    0    0    0    0 -0.00000000000E+00 -0.00000000000E+00  0.11368683772E-12  0.17120000000E+03  0.17120000000E+03 0.  0.
         13    1    1    2    0    0  0.72825705149E+02  0.27911805001E+02  0.44519911299E+03  0.45197888619E+03  0.10566000000E+00 0.  1.
        994    1    1    2    0    0 -0.33168863040E+02  0.12534423007E+02  0.12441134753E+02  0.17527551760E+03  0.17120000000E+03 0.  0.
        998    1    1    2    0    0 -0.39656842109E+02 -0.40446228008E+02  0.10423597485E+04  0.10439455962E+04  0.10000000000E+02 0.  1.
</event>
<event>
 5    1  0.1279376E-008  0.3689375E+03  0.7957747E-01  0.3500788E+00
         13   -1    0    0    0    0  0.00000000000E+00  0.00000000000E+00  0.14999999963E+04  0.15000000000E+04  0.10566000000E+00 0. -1.
        994   -1    0    0    0    0 -0.00000000000E+00 -0.00000000000E+00  0.11368683772E-12  0.17120000000E+03  0.17120000000E+03 0.  0.
         13    1    1    2    0    0 -0.23902051571E+01 -0.17741893150E+02  0.12159465791E+02  0.21641433076E+02  0.10566000000E+00 0. -1.
        994    1    1    2    0    0 -0.12237664773E+02  0.80406640694E+01  0.10569945861E+02  0.17214986632E+03  0.17120000000E+03 0.  0.
        998    1    1    2    0    0  0.14627869930E+02  0.97012290802E+01  0.14772705846E+04  0.14774087006E+04  0.10000000000E+02 0. -1.
</event>
<event>
 5    1  0.1279376E-008  0.3808226E+03  0.7957747E-01  0.3447584E+00
         13   -1    0    0    0    0  0.00000000000E+00  0.00000000000E+00  0.14999999963E+04  0.15000000000E+04  0.10566000000E+00 0.  1.
        994   -1    0    0    0    0 -0.00000000000E+00 -0.00000000000E+00  0.11368683772E-12  0.17120000000E+03  0.17120000000E+03 0.  0.
         13    1    1    2    0    0 -0.76165197914E+01 -0.47070840248E+02  0.28129516655E+03  0.28530800420E+03  0.10566000000E+00 0.  1.
        994    1    1    2    0    0 -0.81674445020E+01  0.37862433177E+02  0.87363665776E+01  0.17574423204E+03  0.17120000000E+03 0.  0.
        998    1    1    2    0    0  0.15783964293E+02  0.92084070711E+01  0.12099684632E+04  0.12101477638E+04  0.10000000000E+02 0.  1.
</event>
<event>
 5    1  0.1279376E-008  0.3834477E+03  0.7957747E-01  0.3436282E+00
         13   -1    0    0    0    0  0.00000000000E+00  0.00000000000E+00  0.14999999963E+04  0.15000000000E+04  0.10566000000E+00 0.  1.
        994   -1    0    0    0    0 -0.00000000000E+00 -0.00000000000E+00  0.11368683772E-12  0.17120000000E+03  0.17120000000E+03 0.  0.
         13    1    1    2    0    0 -0.88027917267E+01 -0.88822559159E+01  0.31720926608E+02  0.34097096082E+02  0.10566000000E+00 0.  1.
        994    1    1    2    0    0  0.67200063262E+01  0.61950129894E+01  0.26789540133E+01  0.17146472951E+03  0.17120000000E+03 0.  0.
        998    1    1    2    0    0  0.20827854005E+01  0.26872429265E+01  0.14656001157E+04  0.14656381744E+04  0.10000000000E+02 0.  1.
</event>
<event>
 5    1  0.1279376E-008  0.3685504E+03  0.7957747E-01  0.3502579E+00
         13   -1    0    0    0    0  0.00000000000E+00  0.00000000000E+00  0.14999999963E+04  0.15000000000E+04  0.10566000000E+00 0. -1.
        994   -1    0    0    0    0 -0.00000000000E+00 -0.00000000000E+00  0.11368683772E-12  0.17120000000E+03  0.17120000000E+03 0.  0.
         13    1    1    2    0    0  0.40472202291E+02  0.65140587157E+02  0.25032034310E+03  0.26180447015E+03  0.10566000000E+00 0. -1.
        994    1    1    2    0    0 -0.35354086641E+02 -0.61353860091E+02  0.27661718676E+02  0.18732009575E+03  0.17120000000E+03 0.  0.
        998    1    1    2    0    0 -0.51181156499E+01 -0.37867270658E+01  0.12220179345E+04  0.12220754341E+04  0.10000000000E+02 0. -1.
</event>
<event>
 5    1  0.1279376E-008  0.3853649E+03  0.7957747E-01  0.3428126E+00
         13   -1    0    0    0    0  0.00000000000E+00  0.00000000000E+00  0.14999999963E+04  0.15000000000E+04  0.10566000000E+00 0.  1.
        994   -1    0    0    0    0 -0.00000000000E+00 -0.00000000000E+00  0.11368683772E-12  0.17120000000E+03  0.17120000000E+03 0.  0.
         13    1    1    2    0    0  0.12262441375E+02  0.77355539453E+00  0.53271511979E+02  0.54670202204E+02  0.10566000000E+00 0.  1.
        994    1    1    2    0    0 -0.57256084758E+01  0.91562590311E+01  0.18322373391E+01  0.17155004158E+03  0.17120000000E+03 0.  0.
        998    1    1    2    0    0 -0.65368328995E+01 -0.99298144257E+01  0.14448962470E+04  0.14449797562E+04  0.10000000000E+02 0.  1.
</event>
<event>
 5    1  0.1279376E-008  0.3830860E+03  0.7957747E-01  0.3437830E+00
         13   -1    0    0    0    0  0.00000000000E+00  0.00000000000E+00  0.14999999963E+04  0.15000000000E+04  0.10566000000E+00 0.  1.
        994   -1    0    0    0    0 -0.00000000000E+00 -0.00000000000E+00  0.11368683772E-12  0.17120000000E+03  0.17120000000E+03 0.  0.
         13    1    1    2    0    0 -0.69844356058E+02 -0.12843685787E+02  0.14836499484E+03  0.16448518837E+03  0.10566000000E+00 0.  1.
        994    1    1    2    0    0  0.16038832117E+02  0.12765799492E+02  0.19574343375E+02  0.17353041431E+03  0.17120000000E+03 0.  0.
        998    1    1    2    0    0  0.53805523941E+02  0.77886295493E-01  0.13320606581E+04  0.13331843973E+04  0.10000000000E+02 0.  1.
</event>
<event>
 5    1  0.1279376E-008  0.3690561E+03  0.7957747E-01  0.3500240E+00
         13   -1    0    0    0    0  0.00000000000E+00  0.00000000000E+00  0.14999999963E+04  0.15000000000E+04  0.10566000000E+00 0. -1.
        994   -1    0    0    0    0 -0.00000000000E+00 -0.00000000000E+00  0.11368683772E-12  0.17120000000E+03  0.17120000000E+03 0.  0.
         13    1    1    2    0    0  0.63879807015E+01  0.13493321758E+02  0.72670505224E+01  0.16604132523E+02  0.10566000000E+00 0. -1.
        994    1    1    2    0    0 -0.49801187490E+02  0.35257675049E+02  0.22792436624E+02  0.18317258827E+03  0.17120000000E+03 0.  0.
        998    1    1    2    0    0  0.43413206789E+02 -0.48750996807E+02  0.14699405091E+04  0.14714232792E+04  0.10000000000E+02 0. -1.
</event>
<event>
 5    1  0.1279376E-008  0.3842721E+03  0.7957747E-01  0.3432765E+00
         13   -1    0    0    0    0  0.00000000000E+00  0.00000000000E+00  0.14999999963E+04  0.15000000000E+04  0.10566000000E+00 0.  1.
        994   -1    0    0    0    0 -0.00000000000E+00 -0.00000000000E+00  0.11368683772E-12  0.17120000000E+03  0.17120000000E+03 0.  0.
         13    1    1    2    0    0 -0.92802469339E+01 -0.85092334826E+01  0.37582349021E+02  0.39635516391E+02  0.10566000000E+00 0.  1.
        994    1    1    2    0    0  0.82850340802E+01  0.18980394178E+02  0.34070707730E+01  0.17248172449E+03  0.17120000000E+03 0.  0.
        998    1    1    2    0    0  0.99521285373E+00 -0.10471160695E+02  0.14590105765E+04  0.14590827591E+04  0.10000000000E+02 0.  1.
</event>
<event>
 5    1  0.1279376E-008  0.3845167E+03  0.7957747E-01  0.3431725E+00
         13   -1    0    0    0    0  0.00000000000E+00  0.00000000000E+00  0.14999999963E+04  0.15000000000E+04  0.10566000000E+00 0. -1.
        994   -1    0    0    0    0 -0.00000000000E+00 -0.00000000000E+00  0.11368683772E-12  0.17120000000E+03  0.17120000000E+03 0.  0.
         13    1    1    2    0    0  0.10859958429E+02 -0.48031491407E+01  0.37524167877E+02  0.39358395263E+02  0.10566000000E+00 0. -1.
        994    1    1    2    0    0 -0.64244820926E+01  0.27737077259E+01  0.20316012106E+01  0.17135499651E+03  0.17120000000E+03 0.  0.
        998    1    1    2    0    0 -0.44354763360E+01  0.20294414147E+01  0.14604442272E+04  0.14604866082E+04  0.10000000000E+02 0. -1.
</event>
<event>
 5    1  0.1279376E-008  0.3166587E+03  0.7957747E-01  0.3783830E+00
         13   -1    0    0    0    0  0.00000000000E+00  0.00000000000E+00  0.14999999963E+04  0.15000000000E+04  0.10566000000E+00 0. -1.
        994   -1    0    0    0    0 -0.00000000000E+00 -0.00000000000E+00  0.11368683772E-12  0.17120000000E+03  0.17120000000E+03 0.  0.
         13    1    1    2    0    0  0.96745292826E+02 -0.14823576540E+03  0.82814733676E+03  0.84685389317E+03  0.10566000000E+00 0. -1.
        994    1    1    2    0    0 -0.11236596713E+03  0.10274642981E+03  0.99326280860E+02  0.24971601766E+03  0.17120000000E+03 0.  0.
        998    1    1    2    0    0  0.15620674302E+02  0.45489335587E+02  0.57252637865E+03  0.57463008916E+03  0.10000000000E+02 0. -1.
</event>
<event>
 5    1  0.1279376E-008  0.3849972E+03  0.7957747E-01  0.3429684E+00
         13   -1    0    0    0    0  0.00000000000E+00  0.00000000000E+00  0.14999999963E+04  0.15000000000E+04  0.10566000000E+00 0.  1.
        994   -1    0    0    0    0 -0.00000000000E+00 -0.00000000000E+00  0.11368683772E-12  0.17120000000E+03  0.17120000000E+03 0.  0.
         13    1    1    2    0    0  0.71258392630E+01  0.85749482963E+01  0.37363101860E+02  0.38991279386E+02  0.10566000000E+00 0.  1.
        994    1    1    2    0    0 -0.44603705002E+01 -0.10236241211E+02  0.20416667744E+01  0.17157588392E+03  0.17120000000E+03 0.  0.
        998    1    1    2    0    0 -0.26654687628E+01  0.16612929147E+01  0.14605952276E+04  0.14606328367E+04  0.10000000000E+02 0.  1.
</event>
<event>
 5    1  0.1279376E-008  0.3793127E+03  0.7957747E-01  0.3454157E+00
         13   -1    0    0    0    0  0.00000000000E+00  0.00000000000E+00  0.14999999963E+04  0.15000000000E+04  0.10566000000E+00 0.  1.
        994   -1    0    0    0    0 -0.00000000000E+00 -0.00000000000E+00  0.11368683772E-12  0.17120000000E+03  0.17120000000E+03 0.  0.
         13    1    1    2    0    0 -0.35322006405E+01 -0.23154580641E+02  0.62040531211E+02  0.66314777561E+02  0.10566000000E+00 0.  1.
        994    1    1    2    0    0 -0.89715023921E+01  0.62784989575E+01  0.48823367672E+01  0.17161930141E+03  0.17120000000E+03 0.  0.
        998    1    1    2    0    0  0.12503703033E+02  0.16876081684E+02  0.14330771283E+04  0.14332659210E+04  0.10000000000E+02 0.  1.
</event>
<event>
 5    1  0.1279376E-008  0.3824634E+03  0.7957747E-01  0.3440502E+00
         13   -1    0    0    0    0  0.00000000000E+00  0.00000000000E+00  0.14999999963E+04  0.15000000000E+04  0.10566000000E+00 0.  1.
        994   -1    0    0    0    0 -0.00000000000E+00 -0.00000000000E+00  0.11368683772E-12  0.17120000000E+03  0.17120000000E+03 0.  0.
         13    1    1    2    0    0 -0.22357142887E+02 -0.30148611534E+01  0.92327713874E+02  0.95043932679E+02  0.10566000000E+00 0.  1.
        994    1    1    2    0    0  0.31716468338E+01  0.60269658305E+01  0.30485892612E+01  0.17136253254E+03  0.17120000000E+03 0.  0.
        998    1    1    2    0    0  0.19185496053E+02 -0.30121046771E+01  0.14046236931E+04  0.14047935348E+04  0.10000000000E+02 0.  1.
</event>
<event>
 5    1  0.1279376E-008  0.3852630E+03  0.7957747E-01  0.3428558E+00
         13   -1    0    0    0    0  0.00000000000E+00  0.00000000000E+00  0.14999999963E+04  0.15000000000E+04  0.10566000000E+00 0. -1.
        994   -1    0    0    0    0 -0.00000000000E+00 -0.00000000000E+00  0.11368683772E-12  0.17120000000E+03  0.17120000000E+03 0.  0.
         13    1    1    2    0    0  0.98607735391E+01  0.42258633576E+01  0.36556362394E+02  0.38098183309E+02  0.10566000000E+00 0. -1.
        994    1    1    2    0    0 -0.17098358805E+02 -0.29755516059E+01  0.24899640495E+01  0.17209546102E+03  0.17120000000E+03 0.  0.
        998    1    1    2    0    0  0.72375852663E+01 -0.12503117517E+01  0.14609536698E+04  0.14610063557E+04  0.10000000000E+02 0. -1.
</event>
<event>
 5    1  0.1279376E-008  0.3850879E+03  0.7957747E-01  0.3429300E+00
         13   -1    0    0    0    0  0.00000000000E+00  0.00000000000E+00  0.14999999963E+04  0.15000000000E+04  0.10566000000E+00 0.  1.
        994   -1    0    0    0    0 -0.00000000000E+00 -0.00000000000E+00  0.11368683772E-12  0.17120000000E+03  0.17120000000E+03 0.  0.
         13    1    1    2    0    0 -0.67267854946E+01  0.92314793908E+01  0.42827566934E+02  0.44324727955E+02  0.10566000000E+00 0.  1.
        994    1    1    2    0    0 -0.44047873532E+01 -0.27904854901E+01  0.16759130443E+01  0.17128758754E+03  0.17120000000E+03 0.  0.
        998    1    1    2    0    0  0.11131572848E+02 -0.64409939007E+01  0.14554965163E+04  0.14555876845E+04  0.10000000000E+02 0.  1.
</event>
<event>
 5    1  0.1279376E-008  0.3802048E+03  0.7957747E-01  0.3450267E+00
         13   -1    0    0    0    0  0.00000000000E+00  0.00000000000E+00  0.14999999963E+04  0.15000000000E+04  0.10566000000E+00 0. -1.
        994   -1    0    0    0    0 -0.00000000000E+00 -0.00000000000E+00  0.11368683772E-12  0.17120000000E+03  0.17120000000E+03 0.  0.
         13    1    1    2    0    0  0.13072278163E+02  0.28644053695E+01  0.20301281388E+02  0.24315477880E+02  0.10566000000E+00 0. -1.
        994    1    1    2    0    0 -0.13180431020E+02 -0.46038356590E+01  0.46812267069E+01  0.17183210686E+03  0.17120000000E+03 0.  0.
        998    1    1    2    0    0  0.10815285659E+00  0.17394302894E+01  0.14750174882E+04  0.14750524153E+04  0.10000000000E+02 0. -1.
</event>
<event>
 5    1  0.1279376E-008  0.3847384E+03  0.7957747E-01  0.3430783E+00
         13   -1    0    0    0    0  0.00000000000E+00  0.00000000000E+00  0.14999999963E+04  0.15000000000E+04  0.10566000000E+00 0. -1.
        994   -1    0    0    0    0 -0.00000000000E+00 -0.00000000000E+00  0.11368683772E-12  0.17120000000E+03  0.17120000000E+03 0.  0.
         13    1    1    2    0    0 -0.85503132717E+01  0.90635719315E+01  0.45819799507E+02  0.47483906580E+02  0.10566000000E+00 0. -1.
        994    1    1    2    0    0  0.69833736503E+01  0.63357647391E+01  0.20527854799E+01  0.17147175671E+03  0.17120000000E+03 0.  0.
        998    1    1    2    0    0  0.15669396214E+01 -0.15399336671E+02  0.14521274113E+04  0.14522443367E+04  0.10000000000E+02 0. -1.
</event>
<event>
 5    1  0.1279376E-008  0.3694924E+03  0.7957747E-01  0.3498227E+00
         13   -1    0    0    0    0  0.00000000000E+00  0.00000000000E+00  0.14999999963E+04  0.15000000000E+04  0.10566000000E+00 0.  1.
        994   -1    0    0    0    0 -0.00000000000E+00 -0.00000000000E+00  0.11368683772E-12  0.17120000000E+03  0.17120000000E+03 0.  0.
         13    1    1    2    0    0  0.19627131848E+02  0.19774394467E+02  0.37359209562E+02  0.46604427732E+02  0.10566000000E+00 0.  1.
        994    1    1    2    0    0 -0.94809734804E+01 -0.10811034671E+02  0.10251109928E+02  0.17210837453E+03  0.17120000000E+03 0.  0.
        998    1    1    2    0    0 -0.10146158367E+02 -0.89633597960E+01  0.14523896768E+04  0.14524871977E+04  0.10000000000E+02 0.  1.
</event>
<event>
 5    1  0.1279376E-008  0.3855441E+03  0.7957747E-01  0.3427368E+00
         13   -1    0    0    0    0  0.00000000000E+00  0.00000000000E+00  0.14999999963E+04  0.15000000000E+04  0.10566000000E+00 0.  1.
        994   -1    0    0    0    0 -0.00000000000E+00 -0.00000000000E+00  0.11368683772E-12  0.17120000000E+03  0.17120000000E+03 0.  0.
         13    1    1    2    0    0 -0.55516103845E+01 -0.14819667752E+02  0.88381051017E+02  0.89786771147E+02  0.10566000000E+00 0.  1.
        994    1    1    2    0    0  0.79064268636E+01  0.14155239183E+02  0.22237433684E+01  0.17198042742E+03  0.17120000000E+03 0.  0.
        998    1    1    2    0    0 -0.23548164791E+01  0.66442856930E+00  0.14093952019E+04  0.14094328014E+04  0.10000000000E+02 0.  1.
</event>
<event>
 5    1  0.1279376E-008  0.3835109E+03  0.7957747E-01  0.3436012E+00
         13   -1    0    0    0    0  0.00000000000E+00  0.00000000000E+00  0.14999999963E+04  0.15000000000E+04  0.10566000000E+00 0.  1.
        994   -1    0    0    0    0 -0.00000000000E+00 -0.00000000000E+00  0.11368683772E-12  0.17120000000E+03  0.17120000000E+03 0.  0.
         13    1    1    2    0    0 -0.12379833336E+02  0.11649540249E+01  0.31820777266E+02  0.34164168674E+02  0.10566000000E+00 0.  1.
        994    1    1    2    0    0  0.90802592703E+01  0.13186231762E+01  0.26494999538E+01  0.17146617662E+03  0.17120000000E+03 0.  0.
        998    1    1    2    0    0  0.32995740658E+01 -0.24835772011E+01  0.14655297191E+04  0.14655696547E+04  0.10000000000E+02 0.  1.
</event>
<event>
 5    1  0.1279376E-008  0.3851154E+03  0.7957747E-01  0.3429183E+00
         13   -1    0    0    0    0  0.00000000000E+00  0.00000000000E+00  0.14999999963E+04  0.15000000000E+04  0.10566000000E+00 0. -1.
        994   -1    0    0    0    0 -0.00000000000E+00 -0.00000000000E+00  0.11368683772E-12  0.17120000000E+03  0.17120000000E+03 0.  0.
         13    1    1    2    0    0 -0.32530687728E+01  0.11779509240E+02  0.48037966254E+02  0.49568101237E+02  0.10566000000E+00 0. -1.
        994    1    1    2    0    0 -0.61818127647E+01 -0.80214785013E+01  0.19100797309E+01  0.17150990447E+03  0.17120000000E+03 0.  0.
        998    1    1    2    0    0  0.94348815375E+01 -0.37580307384E+01  0.14500519503E+04  0.14501219943E+04  0.10000000000E+02 0. -1.
</event>
<event>
 5    1  0.1279376E-008  0.3798483E+03  0.7957747E-01  0.3451819E+00
         13   -1    0    0    0    0  0.00000000000E+00  0.00000000000E+00  0.14999999963E+04  0.15000000000E+04  0.10566000000E+00 0.  1.
        994   -1    0    0    0    0 -0.00000000000E+00 -0.00000000000E+00  0.11368683772E-12  0.17120000000E+03  0.17120000000E+03 0.  0.
         13    1    1    2    0    0 -0.56964678910E+02  0.41380613141E+02  0.42371023456E+03  0.42952031829E+03  0.10566000000E+00 0.  1.
        994    1    1    2    0    0  0.56817353456E+02 -0.40972642364E+02  0.20800101167E+02  0.18614256172E+03  0.17120000000E+03 0.  0.
        998    1    1    2    0    0  0.14732545420E+00 -0.40797077726E+00  0.10554896605E+04  0.10555371200E+04  0.10000000000E+02 0.  0.
</event>
<event>
 5    1  0.1279376E-008  0.3722215E+03  0.7957747E-01  0.3485743E+00
         13   -1    0    0    0    0  0.00000000000E+00  0.00000000000E+00  0.14999999963E+04  0.15000000000E+04  0.10566000000E+00 0. -1.
        994   -1    0    0    0    0 -0.00000000000E+00 -0.00000000000E+00  0.11368683772E-12  0.17120000000E+03  0.17120000000E+03 0.  0.
         13    1    1    2    0    0  0.19365373406E+02  0.83406796741E+01  0.12862465510E+02  0.24698963695E+02  0.10566000000E+00 0. -1.
        994    1    1    2    0    0 -0.17944758374E+02 -0.14762373053E+02  0.14023015540E+02  0.17333789827E+03  0.17120000000E+03 0.  0.
        998    1    1    2    0    0 -0.14206150320E+01  0.64216933789E+01  0.14731145152E+04  0.14731631380E+04  0.10000000000E+02 0. -1.
</event>
<event>
 5    1  0.1279376E-008  0.3706121E+03  0.7957747E-01  0.3493083E+00
         13   -1    0    0    0    0  0.00000000000E+00  0.00000000000E+00  0.14999999963E+04  0.15000000000E+04  0.10566000000E+00 0.  1.
        994   -1    0    0    0    0 -0.00000000000E+00 -0.00000000000E+00  0.11368683772E-12  0.17120000000E+03  0.17120000000E+03 0.  0.
         13    1    1    2    0    0  0.25159223929E+02 -0.10557200833E+02  0.31176638953E+02  0.41429880745E+02  0.10566000000E+00 0.  1.
        994    1    1    2    0    0  0.10716521788E+02 -0.24183220501E+02  0.13717987478E+02  0.17377368953E+03  0.17120000000E+03 0.  0.
        998    1    1    2    0    0 -0.35875745716E+02  0.34740421335E+02  0.14551053698E+04  0.14559964297E+04  0.10000000000E+02 0.  1.
</event>
<event>
 5    1  0.1279376E-008  0.3854535E+03  0.7957747E-01  0.3427751E+00
         13   -1    0    0    0    0  0.00000000000E+00  0.00000000000E+00  0.14999999963E+04  0.15000000000E+04  0.10566000000E+00 0. -1.
        994   -1    0    0    0    0 -0.00000000000E+00 -0.00000000000E+00  0.11368683772E-12  0.17120000000E+03  0.17120000000E+03 0.  0.
         13    1    1    2    0    0 -0.11662882711E+02 -0.43063119333E+00  0.49126990620E+02  0.50494362535E+02  0.10566000000E+00 0. -1.
        994    1    1    2    0    0  0.61461625065E+01  0.11402825157E+01  0.15334867874E+01  0.17132094775E+03  0.17120000000E+03 0.  0.
        998    1    1    2    0    0  0.55167202043E+01 -0.70965132234E+00  0.14493395189E+04  0.14493846897E+04  0.10000000000E+02 0. -1.
</event>
<event>
 5    1  0.1279376E-008  0.3796200E+03  0.7957747E-01  0.3452815E+00
         13   -1    0    0    0    0  0.00000000000E+00  0.00000000000E+00  0.14999999963E+04  0.15000000000E+04  0.10566000000E+00 0. -1.
        994   -1    0    0    0    0 -0.00000000000E+00 -0.00000000000E+00  0.11368683772E-12  0.17120000000E+03  0.17120000000E+03 0.  0.
         13    1    1    2    0    0 -0.16421341575E+02  0.13281419087E+02  0.47754937323E+02  0.52216872319E+02  0.10566000000E+00 0. -1.
        994    1    1    2    0    0  0.17380909733E+02 -0.20096174607E+02  0.66915895539E+01  0.17337868851E+03  0.17120000000E+03 0.  0.
        998    1    1    2    0    0 -0.95956815806E+00  0.68147555196E+01  0.14455534694E+04  0.14456044392E+04  0.10000000000E+02 0. -1.
</event>
<event>
 5    1  0.1279376E-008  0.3790672E+03  0.7957747E-01  0.3455230E+00
         13   -1    0    0    0    0  0.00000000000E+00  0.00000000000E+00  0.14999999963E+04  0.15000000000E+04  0.10566000000E+00 0. -1.
        994   -1    0    0    0    0 -0.00000000000E+00 -0.00000000000E+00  0.11368683772E-12  0.17120000000E+03  0.17120000000E+03 0.  0.
         13    1    1    2    0    0 -0.19990703058E+01  0.22366382091E+02  0.48378511270E+02  0.53336130781E+02  0.10566000000E+00 0. -1.
        994    1    1    2    0    0 -0.44912483100E+01 -0.40867743490E+02  0.10293869795E+02  0.17636821574E+03  0.17120000000E+03 0.  0.
        998    1    1    2    0    0  0.64903186158E+01  0.18501361399E+02  0.14413276152E+04  0.14414956535E+04  0.10000000000E+02 0. -1.
</event>
<event>
 5    1  0.1279376E-008  0.3828495E+03  0.7957747E-01  0.3438844E+00
         13   -1    0    0    0    0  0.00000000000E+00  0.00000000000E+00  0.14999999963E+04  0.15000000000E+04  0.10566000000E+00 0.  1.
        994   -1    0    0    0    0 -0.00000000000E+00 -0.00000000000E+00  0.11368683772E-12  0.17120000000E+03  0.17120000000E+03 0.  0.
         13    1    1    2    0    0  0.14804659349E+02 -0.65874129011E+02  0.14879314398E+03  0.16339519476E+03  0.10566000000E+00 0.  1.
        994    1    1    2    0    0 -0.23639760176E+01 -0.13086330674E+02  0.18549302185E+02  0.17271466945E+03  0.17120000000E+03 0.  0.
        998    1    1    2    0    0 -0.12440683331E+02  0.78960459685E+02  0.13326575501E+04  0.13350901358E+04  0.10000000000E+02 0.  1.
</event>
<event>
 5    1  0.1279376E-008  0.3875579E+03  0.7957747E-01  0.3418896E+00
         13   -1    0    0    0    0  0.00000000000E+00  0.00000000000E+00  0.14999999963E+04  0.15000000000E+04  0.10566000000E+00 0.  1.
        994   -1    0    0    0    0 -0.00000000000E+00 -0.00000000000E+00  0.11368683772E-12  0.17120000000E+03  0.17120000000E+03 0.  0.
         13    1    1    2    0    0 -0.94031638818E+02 -0.14262149303E+01  0.32327685465E+03  0.33667776747E+03  0.10566000000E+00 0.  1.
        994    1    1    2    0    0  0.11426450719E+01 -0.16283299928E+03  0.12762243265E+03  0.26853829635E+03  0.17120000000E+03 0.  0.
        998    1    1    2    0    0  0.92888993746E+02  0.16425921421E+03  0.10491007090E+04  0.10659839362E+04  0.10000000000E+02 0. -1.
</event>
<event>
 5    1  0.1279376E-008  0.3801211E+03  0.7957747E-01  0.3450631E+00
         13   -1    0    0    0    0  0.00000000000E+00  0.00000000000E+00  0.14999999963E+04  0.15000000000E+04  0.10566000000E+00 0.  1.
        994   -1    0    0    0    0 -0.00000000000E+00 -0.00000000000E+00  0.11368683772E-12  0.17120000000E+03  0.17120000000E+03 0.  0.
         13    1    1    2    0    0 -0.74580263240E+01 -0.85761331737E+01  0.13949561798E+02  0.17993711547E+02  0.10566000000E+00 0.  1.
        994    1    1    2    0    0  0.27433121942E+01  0.14342421201E+02  0.47848629096E+01  0.17188823613E+03  0.17120000000E+03 0.  0.
        998    1    1    2    0    0  0.47147141299E+01 -0.57662880270E+01  0.14812655716E+04  0.14813180523E+04  0.10000000000E+02 0.  1.
</event>
<event>
 5    1  0.1279376E-008  0.3837695E+03  0.7957747E-01  0.3434908E+00
         13   -1    0    0    0    0  0.00000000000E+00  0.00000000000E+00  0.14999999963E+04  0.15000000000E+04  0.10566000000E+00 0.  1.
        994   -1    0    0    0    0 -0.00000000000E+00 -0.00000000000E+00  0.11368683772E-12  0.17120000000E+03  0.17120000000E+03 0.  0.
         13    1    1    2    0    0 -0.22803110601E+02  0.35854720225E+00  0.12151645363E+03  0.12363806079E+03  0.10566000000E+00 0.  1.
        994    1    1    2    0    0  0.73467111786E+01  0.31316304457E+01  0.24528959509E+01  0.17140372800E+03  0.17120000000E+03 0.  0.
        998    1    1    2    0    0  0.15456399422E+02 -0.34901776480E+01  0.13760306467E+04  0.13761582112E+04  0.10000000000E+02 0.  1.
</event>
<event>
 5    1  0.1279376E-008  0.3766297E+03  0.7957747E-01  0.3465966E+00
         13   -1    0    0    0    0  0.00000000000E+00  0.00000000000E+00  0.14999999963E+04  0.15000000000E+04  0.10566000000E+00 0.  1.
        994   -1    0    0    0    0 -0.00000000000E+00 -0.00000000000E+00  0.11368683772E-12  0.17120000000E+03  0.17120000000E+03 0.  0.
         13    1    1    2    0    0 -0.23888224767E+02 -0.11742868443E+02  0.56576853562E+02  0.62525944733E+02  0.10566000000E+00 0.  1.
        994    1    1    2    0    0  0.25717325658E+02  0.72494547723E+01  0.82615123981E+01  0.17346938641E+03  0.17120000000E+03 0.  0.
        998    1    1    2    0    0 -0.18291008905E+01  0.44934136703E+01  0.14351616303E+04  0.14352046689E+04  0.10000000000E+02 0.  1.
</event>
<event>
 5    1  0.1279376E-008  0.3845244E+03  0.7957747E-01  0.3431692E+00
         13   -1    0    0    0    0  0.00000000000E+00  0.00000000000E+00  0.14999999963E+04  0.15000000000E+04  0.10566000000E+00 0.  1.
        994   -1    0    0    0    0 -0.00000000000E+00 -0.00000000000E+00  0.11368683772E-12  0.17120000000E+03  0.17120000000E+03 0.  0.
         13    1    1    2    0    0 -0.11997728664E+02  0.10599736493E+02  0.72308403658E+02  0.74059545708E+02  0.10566000000E+00 0.  1.
        994    1    1    2    0    0  0.78656690293E+01  0.60598608471E+01  0.21912421810E+01  0.17150169738E+03  0.17120000000E+03 0.  0.
        998    1    1    2    0    0  0.41320596346E+01 -0.16659597340E+02  0.14255003504E+04  0.14256387569E+04  0.10000000000E+02 0.  1.
</event>
<event>
 5    1  0.3134569E-008  0.3863662E+03  0.7957747E-01  0.3423899E+00
         13   -1    0    0    0    0  0.00000000000E+00  0.00000000000E+00  0.14999999963E+04  0.15000000000E+04  0.10566000000E+00 0.  1.
        994   -1    0    0    0    0 -0.00000000000E+00 -0.00000000000E+00  0.11368683772E-12  0.17120000000E+03  0.17120000000E+03 0.  0.
         13    1    1    2    0    0 -0.10084462903E+02  0.33164812871E+01  0.61264457157E+02  0.62177490420E+02  0.10566000000E+00 0.  1.
        994    1    1    2    0    0  0.56120622948E+01  0.11609883017E+01  0.10609147356E+01  0.17129917886E+03  0.17120000000E+03 0.  0.
        998    1    1    2    0    0  0.44724006081E+01 -0.44774695888E+01  0.14376746244E+04  0.14377233307E+04  0.10000000000E+02 0.  1.
</event>
<event>
 5    1  0.1279376E-008  0.3766543E+03  0.7957747E-01  0.3465857E+00
         13   -1    0    0    0    0  0.00000000000E+00  0.00000000000E+00  0.14999999963E+04  0.15000000000E+04  0.10566000000E+00 0. -1.
        994   -1    0    0    0    0 -0.00000000000E+00 -0.00000000000E+00  0.11368683772E-12  0.17120000000E+03  0.17120000000E+03 0.  0.
         13    1    1    2    0    0  0.28510660485E+02 -0.17321453841E+02  0.30564762675E+02  0.45244960005E+02  0.10566000000E+00 0. -1.
        994    1    1    2    0    0 -0.45093778051E+02  0.22006112414E+02  0.23569311714E+02  0.17995185539E+03  0.17120000000E+03 0.  0.
        998    1    1    2    0    0  0.16583117566E+02 -0.46846585737E+01  0.14458659219E+04  0.14460031846E+04  0.10000000000E+02 0. -1.
</event>
<event>
 5    1  0.1279376E-008  0.3707280E+03  0.7957747E-01  0.3492552E+00
         13   -1    0    0    0    0  0.00000000000E+00  0.00000000000E+00  0.14999999963E+04  0.15000000000E+04  0.10566000000E+00 0.  1.
        994   -1    0    0    0    0 -0.00000000000E+00 -0.00000000000E+00  0.11368683772E-12  0.17120000000E+03  0.17120000000E+03 0.  0.
         13    1    1    2    0    0 -0.79057753680E+01  0.62210189839E+01 -0.85875764131E+00  0.10097078295E+02  0.10566000000E+00 0.  1.
        994    1    1    2    0    0  0.57735639273E+01 -0.94903457108E+01  0.11756921196E+02  0.17196239676E+03  0.17120000000E+03 0.  0.
        998    1    1    2    0    0  0.21322114407E+01  0.32693267269E+01  0.14891018327E+04  0.14891405249E+04  0.10000000000E+02 0.  1.
</event>
<event>
 5    1  0.1279376E-008  0.3801853E+03  0.7957747E-01  0.3450352E+00
         13   -1    0    0    0    0  0.00000000000E+00  0.00000000000E+00  0.14999999963E+04  0.15000000000E+04  0.10566000000E+00 0.  1.
        994   -1    0    0    0    0 -0.00000000000E+00 -0.00000000000E+00  0.11368683772E-12  0.17120000000E+03  0.17120000000E+03 0.  0.
         13    1    1    2    0    0  0.51925296028E+01  0.95695910933E+01  0.13466349971E+02  0.17317424258E+02  0.10566000000E+00 0.  1.
        994    1    1    2    0    0 -0.22943424326E+02  0.23649472452E+02  0.76753019098E+01  0.17451088369E+03  0.17120000000E+03 0.  0.
        998    1    1    2    0    0  0.17750894723E+02 -0.33219063546E+02  0.14788583444E+04  0.14793716921E+04  0.10000000000E+02 0.  1.
</event>
<event>
 5    1  0.1279376E-008  0.3770996E+03  0.7957747E-01  0.3463886E+00
         13   -1    0    0    0    0  0.00000000000E+00  0.00000000000E+00  0.14999999963E+04  0.15000000000E+04  0.10566000000E+00 0. -1.
        994   -1    0    0    0    0 -0.00000000000E+00 -0.00000000000E+00  0.11368683772E-12  0.17120000000E+03  0.17120000000E+03 0.  0.
         13    1    1    2    0    0 -0.62885081668E+02 -0.14150386796E+02  0.38272369553E+03  0.38811364988E+03  0.10566000000E+00 0. -1.
        994    1    1    2    0    0  0.27411901879E+02  0.35346603557E+02  0.12387735113E+02  0.17738007422E+03  0.17120000000E+03 0.  0.
        998    1    1    2    0    0  0.35473179789E+02 -0.21196216761E+02  0.11048885656E+04  0.11057062759E+04  0.10000000000E+02 0. -1.
</event>
<event>
 5    1  0.1279376E-008  0.3537832E+03  0.7957747E-01  0.3573910E+00
         13   -1    0    0    0    0  0.00000000000E+00  0.00000000000E+00  0.14999999963E+04  0.15000000000E+04  0.10566000000E+00 0. -1.
        994   -1    0    0    0    0 -0.00000000000E+00 -0.00000000000E+00  0.11368683772E-12  0.17120000000E+03  0.17120000000E+03 0.  0.
         13    1    1    2    0    0  0.20394072486E+03  0.57743831599E+02  0.11233885973E+04  0.11432095701E+04  0.10566000000E+00 0. -1.
        994    1    1    2    0    0 -0.15704416102E+03 -0.52840286487E+02  0.11976609496E+03  0.26666143682E+03  0.17120000000E+03 0.  0.
        998    1    1    2    0    0 -0.46896563840E+02 -0.49035451111E+01  0.25684530400E+03  0.26132899311E+03  0.10000000000E+02 0. -1.
</event>
<event>
 5    1  0.1279376E-008  0.3744854E+03  0.7957747E-01  0.3475528E+00
         13   -1    0    0    0    0  0.00000000000E+00  0.00000000000E+00  0.14999999963E+04  0.15000000000E+04  0.10566000000E+00 0. -1.
        994   -1    0    0    0    0 -0.00000000000E+00 -0.00000000000E+00  0.11368683772E-12  0.17120000000E+03  0.17120000000E+03 0.  0.
         13    1    1    2    0    0  0.15836450168E+02  0.26220154467E+02  0.28917551441E+02  0.42125118393E+02  0.10566000000E+00 0. -1.
        994    1    1    2    0    0 -0.20001239786E+02 -0.28243666967E+02  0.17596579371E+02  0.17554724128E+03  0.17120000000E+03 0.  0.
        998    1    1    2    0    0  0.41647896180E+01  0.20235125001E+01  0.14534858655E+04  0.14535276403E+04  0.10000000000E+02 0. -1.
</event>
<event>
 5    1  0.1279376E-008  0.3807663E+03  0.7957747E-01  0.3447829E+00
         13   -1    0    0    0    0  0.00000000000E+00  0.00000000000E+00  0.14999999963E+04  0.15000000000E+04  0.10566000000E+00 0.  1.
        994   -1    0    0    0    0 -0.00000000000E+00 -0.00000000000E+00  0.11368683772E-12  0.17120000000E+03  0.17120000000E+03 0.  0.
         13    1    1    2    0    0 -0.89778176978E+01 -0.16327940973E+02  0.47780416199E+02  0.51285302019E+02  0.10566000000E+00 0.  1.
        994    1    1    2    0    0 -0.28207069106E+02  0.11708168312E+02  0.68632049226E+01  0.17403810943E+03  0.17120000000E+03 0.  0.
        998    1    1    2    0    0  0.37184886804E+02  0.46197726616E+01  0.14453563752E+04  0.14458765885E+04  0.10000000000E+02 0.  1.
</event>
<event>
 5    1  0.1279376E-008  0.3813593E+03  0.7957747E-01  0.3445261E+00
         13   -1    0    0    0    0  0.00000000000E+00  0.00000000000E+00  0.14999999963E+04  0.15000000000E+04  0.10566000000E+00 0. -1.
        994   -1    0    0    0    0 -0.00000000000E+00 -0.00000000000E+00  0.11368683772E-12  0.17120000000E+03  0.17120000000E+03 0.  0.
         13    1    1    2    0    0 -0.22847797482E+02 -0.91277188747E+01  0.92154484900E+02  0.95382374435E+02  0.10566000000E+00 0. -1.
        994    1    1    2    0    0 -0.89986500419E+00  0.12663655559E+02  0.39851250207E+01  0.17171633338E+03  0.17120000000E+03 0.  0.
        998    1    1    2    0    0  0.23747662486E+02 -0.35359366839E+01  0.14038603864E+04  0.14041012922E+04  0.10000000000E+02 0. -1.
</event>
<event>
 5    1  0.1279376E-008  0.3845481E+03  0.7957747E-01  0.3431591E+00
         13   -1    0    0    0    0  0.00000000000E+00  0.00000000000E+00  0.14999999963E+04  0.15000000000E+04  0.10566000000E+00 0.  1.
        994   -1    0    0    0    0 -0.00000000000E+00 -0.00000000000E+00  0.11368683772E-12  0.17120000000E+03  0.17120000000E+03 0.  0.
         13    1    1    2    0    0 -0.16388443314E+02 -0.24547398711E+01  0.76938851999E+02  0.78703271426E+02  0.10566000000E+00 0.  1.
        994    1    1    2    0    0  0.53801120783E+01 -0.55554195160E+01  0.20516802829E+01  0.17138686555E+03  0.17120000000E+03 0.  0.
        998    1    1    2    0    0  0.11008331236E+02  0.80101593871E+01  0.14210094640E+04  0.14211098630E+04  0.10000000000E+02 0.  1.
</event>
<event>
 5    1  0.1279376E-008  0.3835518E+03  0.7957747E-01  0.3435837E+00
         13   -1    0    0    0    0  0.00000000000E+00  0.00000000000E+00  0.14999999963E+04  0.15000000000E+04  0.10566000000E+00 0. -1.
        994   -1    0    0    0    0 -0.00000000000E+00 -0.00000000000E+00  0.11368683772E-12  0.17120000000E+03  0.17120000000E+03 0.  0.
         13    1    1    2    0    0  0.83017087889E+01  0.83077141541E+01  0.28391206307E+02  0.30724717132E+02  0.10566000000E+00 0. -1.
        994    1    1    2    0    0 -0.83883897230E+01 -0.57618410967E+01  0.26930955768E+01  0.17152334144E+03  0.17120000000E+03 0.  0.
        998    1    1    2    0    0  0.86680934132E-01 -0.25458730574E+01  0.14689156944E+04  0.14689519414E+04  0.10000000000E+02 0. -1.
</event>
<event>
 5    1  0.1279376E-008  0.3823814E+03  0.7957747E-01  0.3440854E+00
         13   -1    0    0    0    0  0.00000000000E+00  0.00000000000E+00  0.14999999963E+04  0.15000000000E+04  0.10566000000E+00 0. -1.
        994   -1    0    0    0    0 -0.00000000000E+00 -0.00000000000E+00  0.11368683772E-12  0.17120000000E+03  0.17120000000E+03 0.  0.
         13    1    1    2    0    0  0.32522543707E+01  0.16898940906E+02  0.52623602563E+02  0.55366109426E+02  0.10566000000E+00 0. -1.
        994    1    1    2    0    0  0.17298741689E+02 -0.84981411429E+00  0.39313874033E+01  0.17211875103E+03  0.17120000000E+03 0.  0.
        998    1    1    2    0    0 -0.20550996059E+02 -0.16049126792E+02  0.14434450063E+04  0.14437151395E+04  0.10000000000E+02 0. -1.
</event>
<event>
 5    1  0.1279376E-008  0.3689761E+03  0.7957747E-01  0.3500610E+00
         13   -1    0    0    0    0  0.00000000000E+00  0.00000000000E+00  0.14999999963E+04  0.15000000000E+04  0.10566000000E+00 0. -1.
        994   -1    0    0    0    0 -0.00000000000E+00 -0.00000000000E+00  0.11368683772E-12  0.17120000000E+03  0.17120000000E+03 0.  0.
         13    1    1    2    0    0 -0.47908027278E+01 -0.64901549855E+02  0.17417016844E+03  0.18593122842E+03  0.10566000000E+00 0. -1.
        994    1    1    2    0    0  0.80329186569E+01  0.68686927503E+02  0.27248768640E+02  0.18663964526E+03  0.17120000000E+03 0.  0.
        998    1    1    2    0    0 -0.32421159291E+01 -0.37853776477E+01  0.12985810592E+04  0.12986291263E+04  0.10000000000E+02 0. -1.
</event>
<event>
 5    1  0.1279376E-008  0.3855837E+03  0.7957747E-01  0.3427200E+00
         13   -1    0    0    0    0  0.00000000000E+00  0.00000000000E+00  0.14999999963E+04  0.15000000000E+04  0.10566000000E+00 0.  1.
        994   -1    0    0    0    0 -0.00000000000E+00 -0.00000000000E+00  0.11368683772E-12  0.17120000000E+03  0.17120000000E+03 0.  0.
         13    1    1    2    0    0 -0.62454980186E+01 -0.12154328505E+02  0.70243705488E+02  0.71560626546E+02  0.10566000000E+00 0.  1.
        994    1    1    2    0    0  0.12873476866E+02  0.32987502233E+01  0.19205382299E+01  0.17172575994E+03  0.17120000000E+03 0.  0.
        998    1    1    2    0    0 -0.66279788477E+01  0.88555782814E+01  0.14278357526E+04  0.14279136135E+04  0.10000000000E+02 0.  1.
</event>
<event>
 5    1  0.1279376E-008  0.3823298E+03  0.7957747E-01  0.3441076E+00
         13   -1    0    0    0    0  0.00000000000E+00  0.00000000000E+00  0.14999999963E+04  0.15000000000E+04  0.10566000000E+00 0. -1.
        994   -1    0    0    0    0 -0.00000000000E+00 -0.00000000000E+00  0.11368683772E-12  0.17120000000E+03  0.17120000000E+03 0.  0.
         13    1    1    2    0    0 -0.85412641999E+01  0.66619215282E+01  0.18804865931E+02  0.21701809586E+02  0.10566000000E+00 0. -1.
        994    1    1    2    0    0  0.23228257893E+01 -0.46479930564E+01  0.30512284100E+01  0.17130601085E+03  0.17120000000E+03 0.  0.
        998    1    1    2    0    0  0.62184384107E+01 -0.20139284718E+01  0.14781439019E+04  0.14781921796E+04  0.10000000000E+02 0. -1.
</event>
<event>
 5    1  0.1279376E-008  0.3717009E+03  0.7957747E-01  0.3488110E+00
         13   -1    0    0    0    0  0.00000000000E+00  0.00000000000E+00  0.14999999963E+04  0.15000000000E+04  0.10566000000E+00 0. -1.
        994   -1    0    0    0    0 -0.00000000000E+00 -0.00000000000E+00  0.11368683772E-12  0.17120000000E+03  0.17120000000E+03 0.  0.
         13    1    1    2    0    0 -0.93958525907E+00  0.68621182709E+02  0.33875971413E+03  0.34564129473E+03  0.10566000000E+00 0. -1.
        994    1    1    2    0    0  0.10360653893E+02 -0.13533127883E+02  0.93818773771E+01  0.17230191039E+03  0.17120000000E+03 0.  0.
        998    1    1    2    0    0 -0.94210686341E+01 -0.55088054826E+02  0.11518584048E+04  0.11532567949E+04  0.10000000000E+02 0. -1.
</event>
<event>
 5    1  0.1279376E-008  0.3796884E+03  0.7957747E-01  0.3452516E+00
         13   -1    0    0    0    0  0.00000000000E+00  0.00000000000E+00  0.14999999963E+04  0.15000000000E+04  0.10566000000E+00 0.  1.
        994   -1    0    0    0    0 -0.00000000000E+00 -0.00000000000E+00  0.11368683772E-12  0.17120000000E+03  0.17120000000E+03 0.  0.
         13    1    1    2    0    0 -0.16951810953E+02  0.21290015557E+02  0.96683474040E+02  0.10044069879E+03  0.10566000000E+00 0.  1.
        994    1    1    2    0    0 -0.16513223186E+02 -0.16572279866E+01  0.52127301290E+01  0.17208150830E+03  0.17120000000E+03 0.  0.
        998    1    1    2    0    0  0.33465034140E+02 -0.19632787570E+02  0.13981037921E+04  0.13986777929E+04  0.10000000000E+02 0.  1.
</event>
<event>
 5    1  0.1279376E-008  0.3842781E+03  0.7957747E-01  0.3432740E+00
         13   -1    0    0    0    0  0.00000000000E+00  0.00000000000E+00  0.14999999963E+04  0.15000000000E+04  0.10566000000E+00 0. -1.
        994   -1    0    0    0    0 -0.00000000000E+00 -0.00000000000E+00  0.11368683772E-12  0.17120000000E+03  0.17120000000E+03 0.  0.
         13    1    1    2    0    0  0.32831127433E+01  0.21192305461E+02  0.93144263100E+02  0.95581156891E+02  0.10566000000E+00 0. -1.
        994    1    1    2    0    0 -0.41387809839E+02 -0.41179601687E+02  0.13307327719E+02  0.18137043687E+03  0.17120000000E+03 0.  0.
        998    1    1    2    0    0  0.38104697096E+02  0.19987296226E+02  0.13935484055E+04  0.13942484062E+04  0.10000000000E+02 0. -1.
</event>
<event>
 5    1  0.1279376E-008  0.3818562E+03  0.7957747E-01  0.3443116E+00
         13   -1    0    0    0    0  0.00000000000E+00  0.00000000000E+00  0.14999999963E+04  0.15000000000E+04  0.10566000000E+00 0. -1.
        994   -1    0    0    0    0 -0.00000000000E+00 -0.00000000000E+00  0.11368683772E-12  0.17120000000E+03  0.17120000000E+03 0.  0.
         13    1    1    2    0    0 -0.14482296137E+02  0.16998080190E+02  0.68515643276E+02  0.72063001388E+02  0.10566000000E+00 0. -1.
        994    1    1    2    0    0  0.61450359930E+02  0.11864424956E+00  0.15848637509E+02  0.18258362501E+03  0.17120000000E+03 0.  0.
        998    1    1    2    0    0 -0.46968063793E+02 -0.17116724440E+02  0.14156357155E+04  0.14165533736E+04  0.10000000000E+02 0. -1.
</event>
<event>
 5    1  0.1279376E-008  0.3859031E+03  0.7957747E-01  0.3425851E+00
         13   -1    0    0    0    0  0.00000000000E+00  0.00000000000E+00  0.14999999963E+04  0.15000000000E+04  0.10566000000E+00 0.  1.
        994   -1    0    0    0    0 -0.00000000000E+00 -0.00000000000E+00  0.11368683772E-12  0.17120000000E+03  0.17120000000E+03 0.  0.
         13    1    1    2    0    0  0.10304684052E+02 -0.30091309263E+01  0.48783794165E+02  0.49951087270E+02  0.10566000000E+00 0.  1.
        994    1    1    2    0    0 -0.84531543999E+01  0.18083511719E+01  0.14275027814E+01  0.17142404650E+03  0.17120000000E+03 0.  0.
        998    1    1    2    0    0 -0.18515296519E+01  0.12007797544E+01  0.14497886993E+04  0.14498248662E+04  0.10000000000E+02 0.  1.
</event>
<event>
 5    1  0.1279376E-008  0.3808378E+03  0.7957747E-01  0.3447519E+00
         13   -1    0    0    0    0  0.00000000000E+00  0.00000000000E+00  0.14999999963E+04  0.15000000000E+04  0.10566000000E+00 0.  1.
        994   -1    0    0    0    0 -0.00000000000E+00 -0.00000000000E+00  0.11368683772E-12  0.17120000000E+03  0.17120000000E+03 0.  0.
         13    1    1    2    0    0  0.67426724034E+00 -0.35864416533E+02  0.17164184040E+03  0.17535006002E+03  0.10566000000E+00 0.  1.
        994    1    1    2    0    0 -0.48903544335E+01  0.21260860602E+02  0.52990595656E+01  0.17266574586E+03  0.17120000000E+03 0.  0.
        998    1    1    2    0    0  0.42160871932E+01  0.14603555930E+02  0.13230590963E+04  0.13231841941E+04  0.10000000000E+02 0.  1.
</event>
<event>
 5    1  0.1279376E-008  0.3840841E+03  0.7957747E-01  0.3433566E+00
         13   -1    0    0    0    0  0.00000000000E+00  0.00000000000E+00  0.14999999963E+04  0.15000000000E+04  0.10566000000E+00 0.  1.
        994   -1    0    0    0    0 -0.00000000000E+00 -0.00000000000E+00  0.11368683772E-12  0.17120000000E+03  0.17120000000E+03 0.  0.
         13    1    1    2    0    0  0.17620675647E+02  0.80833474299E+01  0.96148350070E+02  0.98083357922E+02  0.10566000000E+00 0.  1.
        994    1    1    2    0    0 -0.63300817337E+01  0.79270945496E+01  0.24250398164E+01  0.17151743229E+03  0.17120000000E+03 0.  0.
        998    1    1    2    0    0 -0.11290593913E+02 -0.16010441979E+02  0.14014266064E+04  0.14015992098E+04  0.10000000000E+02 0.  1.
</event>
<event>
 5    1  0.1279376E-008  0.3692679E+03  0.7957747E-01  0.3499262E+00
         13   -1    0    0    0    0  0.00000000000E+00  0.00000000000E+00  0.14999999963E+04  0.15000000000E+04  0.10566000000E+00 0.  1.
        994   -1    0    0    0    0 -0.00000000000E+00 -0.00000000000E+00  0.11368683772E-12  0.17120000000E+03  0.17120000000E+03 0.  0.
         13    1    1    2    0    0 -0.40429745381E+02 -0.36704429044E+02  0.16059783189E+03  0.16962739812E+03  0.10566000000E+00 0.  1.
        994    1    1    2    0    0  0.13305065746E+02  0.14929797017E+02  0.11039739243E+02  0.17271722397E+03  0.17120000000E+03 0.  0.
        998    1    1    2    0    0  0.27124679635E+02  0.21774632027E+02  0.13283624252E+04  0.13288553779E+04  0.10000000000E+02 0.  1.
</event>
<event>
 5    1  0.1279376E-008  0.3856156E+03  0.7957747E-01  0.3427066E+00
         13   -1    0    0    0    0  0.00000000000E+00  0.00000000000E+00  0.14999999963E+04  0.15000000000E+04  0.10566000000E+00 0.  1.
        994   -1    0    0    0    0 -0.00000000000E+00 -0.00000000000E+00  0.11368683772E-12  0.17120000000E+03  0.17120000000E+03 0.  0.
         13    1    1    2    0    0  0.24413642803E+01 -0.10938188136E+02  0.50535608954E+02  0.51763531135E+02  0.10566000000E+00 0.  1.
        994    1    1    2    0    0  0.10135032352E+02  0.55007497562E+00  0.16630180053E+01  0.17150867935E+03  0.17120000000E+03 0.  0.
        998    1    1    2    0    0 -0.12576396632E+02  0.10388113160E+02  0.14478013693E+04  0.14479277895E+04  0.10000000000E+02 0.  1.
</event>
<event>
 5    1  0.1279376E-008  0.3802647E+03  0.7957747E-01  0.3450007E+00
         13   -1    0    0    0    0  0.00000000000E+00  0.00000000000E+00  0.14999999963E+04  0.15000000000E+04  0.10566000000E+00 0. -1.
        994   -1    0    0    0    0 -0.00000000000E+00 -0.00000000000E+00  0.11368683772E-12  0.17120000000E+03  0.17120000000E+03 0.  0.
         13    1    1    2    0    0  0.50242667179E+01 -0.19313711918E+02  0.51298661760E+02  0.55043860570E+02  0.10566000000E+00 0. -1.
        994    1    1    2    0    0  0.31569776346E+01 -0.18131862449E+01  0.40438846071E+01  0.17128644767E+03  0.17120000000E+03 0.  0.
        998    1    1    2    0    0 -0.81812443525E+01  0.21126898163E+02  0.14446574499E+04  0.14448696918E+04  0.10000000000E+02 0. -1.
</event>
<event>
 5    1  0.1279376E-008  0.3854531E+03  0.7957747E-01  0.3427753E+00
         13   -1    0    0    0    0  0.00000000000E+00  0.00000000000E+00  0.14999999963E+04  0.15000000000E+04  0.10566000000E+00 0. -1.
        994   -1    0    0    0    0 -0.00000000000E+00 -0.00000000000E+00  0.11368683772E-12  0.17120000000E+03  0.17120000000E+03 0.  0.
         13    1    1    2    0    0 -0.65937627710E+01  0.79929441520E+01  0.39721037507E+02  0.41050418370E+02  0.10566000000E+00 0. -1.
        994    1    1    2    0    0 -0.73891260177E+01 -0.63617906745E+01  0.17176310781E+01  0.17148603972E+03  0.17120000000E+03 0.  0.
        998    1    1    2    0    0  0.13982888789E+02 -0.16311534775E+01  0.14585613277E+04  0.14586635419E+04  0.10000000000E+02 0. -1.
</event>
<event>
 5    1  0.1279376E-008  0.3812199E+03  0.7957747E-01  0.3445864E+00
         13   -1    0    0    0    0  0.00000000000E+00  0.00000000000E+00  0.14999999963E+04  0.15000000000E+04  0.10566000000E+00 0. -1.
        994   -1    0    0    0    0 -0.00000000000E+00 -0.00000000000E+00  0.11368683772E-12  0.17120000000E+03  0.17120000000E+03 0.  0.
         13    1    1    2    0    0 -0.17197049237E+02 -0.42632332523E+02  0.24977283395E+03  0.25396797835E+03  0.10566000000E+00 0. -1.
        994    1    1    2    0    0  0.16877051591E+02  0.43749489915E+02  0.10874576445E+02  0.17783854799E+03  0.17120000000E+03 0.  0.
        998    1    1    2    0    0  0.31999764653E+00 -0.11171573921E+01  0.12393525859E+04  0.12393934737E+04  0.10000000000E+02 0.  0.
</event>
<event>
 5    1  0.1279376E-008  0.3824287E+03  0.7957747E-01  0.3440651E+00
         13   -1    0    0    0    0  0.00000000000E+00  0.00000000000E+00  0.14999999963E+04  0.15000000000E+04  0.10566000000E+00 0.  1.
        994   -1    0    0    0    0 -0.00000000000E+00 -0.00000000000E+00  0.11368683772E-12  0.17120000000E+03  0.17120000000E+03 0.  0.
         13    1    1    2    0    0 -0.67404894807E+01 -0.23758317569E+02  0.10508584152E+03  0.10794877074E+03  0.10566000000E+00 0.  1.
        994    1    1    2    0    0  0.90237690073E+01  0.11183595974E+02  0.35972551729E+01  0.17183969702E+03  0.17120000000E+03 0.  0.
        998    1    1    2    0    0 -0.22832795266E+01  0.12574721595E+02  0.13913168996E+04  0.13914115322E+04  0.10000000000E+02 0.  1.
</event>
<event>
 5    1  0.1279376E-008  0.3801252E+03  0.7957747E-01  0.3450613E+00
         13   -1    0    0    0    0  0.00000000000E+00  0.00000000000E+00  0.14999999963E+04  0.15000000000E+04  0.10566000000E+00 0. -1.
        994   -1    0    0    0    0 -0.00000000000E+00 -0.00000000000E+00  0.11368683772E-12  0.17120000000E+03  0.17120000000E+03 0.  0.
         13    1    1    2    0    0  0.10821597497E+02  0.28554715210E+02  0.10758275306E+03  0.11183263680E+03  0.10566000000E+00 0. -1.
        994    1    1    2    0    0  0.17988261141E+02 -0.37457011679E+02  0.98611002983E+01  0.17644627103E+03  0.17120000000E+03 0.  0.
        998    1    1    2    0    0 -0.28809858639E+02  0.89022964687E+01  0.13825561429E+04  0.13829210922E+04  0.10000000000E+02 0. -1.
</event>
<event>
 5    1  0.1279376E-008  0.3781406E+03  0.7957747E-01  0.3459295E+00
         13   -1    0    0    0    0  0.00000000000E+00  0.00000000000E+00  0.14999999963E+04  0.15000000000E+04  0.10566000000E+00 0.  1.
        994   -1    0    0    0    0 -0.00000000000E+00 -0.00000000000E+00  0.11368683772E-12  0.17120000000E+03  0.17120000000E+03 0.  0.
         13    1    1    2    0    0  0.46442743604E+02 -0.36707081505E+02  0.25952069414E+03  0.26618666405E+03  0.10566000000E+00 0.  1.
        994    1    1    2    0    0 -0.59439996882E+02  0.39692869263E+02  0.22455135102E+02  0.18687511924E+03  0.17120000000E+03 0.  0.
        998    1    1    2    0    0  0.12997253277E+02 -0.29857877575E+01  0.12180241670E+04  0.12181382167E+04  0.10000000000E+02 0.  1.
</event>
<event>
 5    1  0.1279376E-008  0.3777971E+03  0.7957747E-01  0.3460807E+00
         13   -1    0    0    0    0  0.00000000000E+00  0.00000000000E+00  0.14999999963E+04  0.15000000000E+04  0.10566000000E+00 0.  1.
        994   -1    0    0    0    0 -0.00000000000E+00 -0.00000000000E+00  0.11368683772E-12  0.17120000000E+03  0.17120000000E+03 0.  0.
         13    1    1    2    0    0  0.12454695035E+02  0.33272090927E+01  0.13537008409E+02  0.18693622160E+02  0.10566000000E+00 0.  1.
        994    1    1    2    0    0 -0.76820843759E+01 -0.54972211948E+01  0.55498635628E+01  0.17155021086E+03  0.17120000000E+03 0.  0.
        998    1    1    2    0    0 -0.47726106595E+01  0.21700121021E+01  0.14809131243E+04  0.14809561670E+04  0.10000000000E+02 0.  1.
</event>
<event>
 5    1  0.1279376E-008  0.3791664E+03  0.7957747E-01  0.3454796E+00
         13   -1    0    0    0    0  0.00000000000E+00  0.00000000000E+00  0.14999999963E+04  0.15000000000E+04  0.10566000000E+00 0.  1.
        994   -1    0    0    0    0 -0.00000000000E+00 -0.00000000000E+00  0.11368683772E-12  0.17120000000E+03  0.17120000000E+03 0.  0.
         13    1    1    2    0    0  0.38848551538E+02 -0.15128759334E+02  0.20183836773E+03  0.20609907125E+03  0.10566000000E+00 0.  1.
        994    1    1    2    0    0 -0.23476587539E+02 -0.16413162932E+02  0.73099772437E+01  0.17373375564E+03  0.17120000000E+03 0.  0.
        998    1    1    2    0    0 -0.15371963999E+02  0.31541922266E+02  0.12908516513E+04  0.12913671731E+04  0.10000000000E+02 0.  1.
</event>
<event>
 5    1  0.1279376E-008  0.3727317E+03  0.7957747E-01  0.3483430E+00
         13   -1    0    0    0    0  0.00000000000E+00  0.00000000000E+00  0.14999999963E+04  0.15000000000E+04  0.10566000000E+00 0.  1.
        994   -1    0    0    0    0 -0.00000000000E+00 -0.00000000000E+00  0.11368683772E-12  0.17120000000E+03  0.17120000000E+03 0.  0.
         13    1    1    2    0    0 -0.38324331028E+01 -0.20892161300E+02  0.25198105151E+02  0.32956419929E+02  0.10566000000E+00 0.  1.
        994    1    1    2    0    0 -0.20013250001E+01  0.19592040820E+02  0.91778621829E+01  0.17257324972E+03  0.17120000000E+03 0.  0.
        998    1    1    2    0    0  0.58337581029E+01  0.13001204797E+01  0.14656240289E+04  0.14656703303E+04  0.10000000000E+02 0.  1.
</event>
<event>
 5    1  0.1279376E-008  0.3807836E+03  0.7957747E-01  0.3447754E+00
         13   -1    0    0    0    0  0.00000000000E+00  0.00000000000E+00  0.14999999963E+04  0.15000000000E+04  0.10566000000E+00 0.  1.
        994   -1    0    0    0    0 -0.00000000000E+00 -0.00000000000E+00  0.11368683772E-12  0.17120000000E+03  0.17120000000E+03 0.  0.
         13    1    1    2    0    0 -0.15166881338E+02 -0.87485688097E+01  0.39190700354E+02  0.42924281054E+02  0.10566000000E+00 0.  1.
        994    1    1    2    0    0  0.11628632157E+02  0.91698258688E+01  0.44697058451E+01  0.17189743763E+03  0.17120000000E+03 0.  0.
        998    1    1    2    0    0  0.35382491814E+01 -0.42125705916E+00  0.14563395901E+04  0.14563782813E+04  0.10000000000E+02 0.  1.
</event>
<event>
 5    1  0.1279376E-008  0.3841712E+03  0.7957747E-01  0.3433195E+00
         13   -1    0    0    0    0  0.00000000000E+00  0.00000000000E+00  0.14999999963E+04  0.15000000000E+04  0.10566000000E+00 0. -1.
        994   -1    0    0    0    0 -0.00000000000E+00 -0.00000000000E+00  0.11368683772E-12  0.17120000000E+03  0.17120000000E+03 0.  0.
         13    1    1    2    0    0  0.16493148453E+02 -0.80872324116E+01  0.91340922362E+02  0.93169751186E+02  0.10566000000E+00 0. -1.
        994    1    1    2    0    0  0.60349923286E+01  0.45370756799E+01  0.22301876966E+01  0.17138092054E+03  0.17120000000E+03 0.  0.
        998    1    1    2    0    0 -0.22528140781E+02  0.35501567317E+01  0.14064288862E+04  0.14066493283E+04  0.10000000000E+02 0. -1.
</event>
<event>
 5    1  0.1279376E-008  0.3856780E+03  0.7957747E-01  0.3426802E+00
         13   -1    0    0    0    0  0.00000000000E+00  0.00000000000E+00  0.14999999963E+04  0.15000000000E+04  0.10566000000E+00 0.  1.
        994   -1    0    0    0    0 -0.00000000000E+00 -0.00000000000E+00  0.11368683772E-12  0.17120000000E+03  0.17120000000E+03 0.  0.
         13    1    1    2    0    0  0.74523635320E+01 -0.74926000400E+01  0.42243660353E+02  0.43545548356E+02  0.10566000000E+00 0.  1.
        994    1    1    2    0    0 -0.10970931704E+02  0.59369053816E+01  0.18046560892E+01  0.17166334778E+03  0.17120000000E+03 0.  0.
        998    1    1    2    0    0  0.35185681720E+01  0.15556946584E+01  0.14559516798E+04  0.14559911039E+04  0.10000000000E+02 0.  1.
</event>
<event>
 5    1  0.1279376E-008  0.3823388E+03  0.7957747E-01  0.3441038E+00
         13   -1    0    0    0    0  0.00000000000E+00  0.00000000000E+00  0.14999999963E+04  0.15000000000E+04  0.10566000000E+00 0.  1.
        994   -1    0    0    0    0 -0.00000000000E+00 -0.00000000000E+00  0.11368683772E-12  0.17120000000E+03  0.17120000000E+03 0.  0.
         13    1    1    2    0    0 -0.23112815373E+02 -0.12255878836E+02  0.13233132496E+03  0.13489254809E+03  0.10566000000E+00 0.  1.
        994    1    1    2    0    0 -0.41113909073E+01 -0.14390425655E+01  0.30201155260E+01  0.17128203489E+03  0.17120000000E+03 0.  0.
        998    1    1    2    0    0  0.27224206281E+02  0.13694921402E+02  0.13646485558E+04  0.13650254170E+04  0.10000000000E+02 0.  1.
</event>
<event>
 5    1  0.1279376E-008  0.3272280E+03  0.7957747E-01  0.3718967E+00
         13   -1    0    0    0    0  0.00000000000E+00  0.00000000000E+00  0.14999999963E+04  0.15000000000E+04  0.10566000000E+00 0. -1.
        994   -1    0    0    0    0 -0.00000000000E+00 -0.00000000000E+00  0.11368683772E-12  0.17120000000E+03  0.17120000000E+03 0.  0.
         13    1    1    2    0    0 -0.24251644542E+03  0.38787937640E+02  0.73314129488E+03  0.77318490662E+03  0.10566000000E+00 0. -1.
        994    1    1    2    0    0  0.22731827194E+03 -0.91076333539E+02  0.28478130292E+03  0.41276909499E+03  0.17120000000E+03 0.  0.
        998    1    1    2    0    0  0.15198173479E+02  0.52288395898E+02  0.48207739848E+03  0.48524599839E+03  0.10000000000E+02 0.  1.
</event>
<event>
 5    1  0.1279376E-008  0.3804077E+03  0.7957747E-01  0.3449385E+00
         13   -1    0    0    0    0  0.00000000000E+00  0.00000000000E+00  0.14999999963E+04  0.15000000000E+04  0.10566000000E+00 0.  1.
        994   -1    0    0    0    0 -0.00000000000E+00 -0.00000000000E+00  0.11368683772E-12  0.17120000000E+03  0.17120000000E+03 0.  0.
         13    1    1    2    0    0 -0.32103972468E+01 -0.28740180207E+02  0.10344296319E+03  0.10740932178E+03  0.10566000000E+00 0.  1.
        994    1    1    2    0    0  0.75812865701E+01  0.19878216875E+02  0.54399753066E+01  0.17260258614E+03  0.17120000000E+03 0.  0.
        998    1    1    2    0    0 -0.43708893233E+01  0.88619633327E+01  0.13911170578E+04  0.13911880921E+04  0.10000000000E+02 0.  1.
</event>
<event>
 5    1  0.1279376E-008  0.3858831E+03  0.7957747E-01  0.3425935E+00
         13   -1    0    0    0    0  0.00000000000E+00  0.00000000000E+00  0.14999999963E+04  0.15000000000E+04  0.10566000000E+00 0. -1.
        994   -1    0    0    0    0 -0.00000000000E+00 -0.00000000000E+00  0.11368683772E-12  0.17120000000E+03  0.17120000000E+03 0.  0.
         13    1    1    2    0    0 -0.13192805761E+02 -0.29195634277E+01  0.76125140049E+02  0.77315083173E+02  0.10566000000E+00 0. -1.
        994    1    1    2    0    0  0.11202867250E+02 -0.41110914309E+00  0.16045324275E+01  0.17157414657E+03  0.17120000000E+03 0.  0.
        998    1    1    2    0    0  0.19899385112E+01  0.33306725708E+01  0.14222703238E+04  0.14223107703E+04  0.10000000000E+02 0. -1.
</event>
<event>
 5    1  0.1279376E-008  0.3841213E+03  0.7957747E-01  0.3433408E+00
         13   -1    0    0    0    0  0.00000000000E+00  0.00000000000E+00  0.14999999963E+04  0.15000000000E+04  0.10566000000E+00 0.  1.
        994   -1    0    0    0    0 -0.00000000000E+00 -0.00000000000E+00  0.11368683772E-12  0.17120000000E+03  0.17120000000E+03 0.  0.
         13    1    1    2    0    0 -0.18988163761E+02 -0.42974263079E+01  0.85064485806E+02  0.87263945278E+02  0.10566000000E+00 0.  1.
        994    1    1    2    0    0  0.22524264188E+02  0.67009237651E+01  0.38904949091E+01  0.17284912730E+03  0.17120000000E+03 0.  0.
        998    1    1    2    0    0 -0.35361004271E+01 -0.24034974573E+01  0.14110450156E+04  0.14110869274E+04  0.10000000000E+02 0.  1.
</event>
<event>
 5    1  0.1279376E-008  0.3767133E+03  0.7957747E-01  0.3465595E+00
         13   -1    0    0    0    0  0.00000000000E+00  0.00000000000E+00  0.14999999963E+04  0.15000000000E+04  0.10566000000E+00 0.  1.
        994   -1    0    0    0    0 -0.00000000000E+00 -0.00000000000E+00  0.11368683772E-12  0.17120000000E+03  0.17120000000E+03 0.  0.
         13    1    1    2    0    0 -0.26774713213E+02  0.60504292970E+01  0.56364992725E+02  0.62693831684E+02  0.10566000000E+00 0.  1.
        994    1    1    2    0    0  0.49731416169E+02  0.78287272260E+00  0.14208383037E+02  0.17884391181E+03  0.17120000000E+03 0.  0.
        998    1    1    2    0    0 -0.22956702957E+02 -0.68333020196E+01  0.14294266205E+04  0.14296622565E+04  0.10000000000E+02 0.  1.
</event>
<event>
 5    1  0.1279376E-008  0.3785949E+03  0.7957747E-01  0.3457299E+00
         13   -1    0    0    0    0  0.00000000000E+00  0.00000000000E+00  0.14999999963E+04  0.15000000000E+04  0.10566000000E+00 0. -1.
        994   -1    0    0    0    0 -0.00000000000E+00 -0.00000000000E+00  0.11368683772E-12  0.17120000000E+03  0.17120000000E+03 0.  0.
         13    1    1    2    0    0  0.23739531518E+02  0.18091587543E+01  0.58935419919E+02  0.63562829524E+02  0.10566000000E+00 0. -1.
        994    1    1    2    0    0 -0.55659717582E+01  0.61351736006E+01  0.50745873908E+01  0.17147539717E+03  0.17120000000E+03 0.  0.
        998    1    1    2    0    0 -0.18173559760E+02 -0.79443323550E+01  0.14359899890E+04  0.14361617733E+04  0.10000000000E+02 0. -1.
</event>
<event>
 5    1  0.1279376E-008  0.3701083E+03  0.7957747E-01  0.3495393E+00
         13   -1    0    0    0    0  0.00000000000E+00  0.00000000000E+00  0.14999999963E+04  0.15000000000E+04  0.10566000000E+00 0.  1.
        994   -1    0    0    0    0 -0.00000000000E+00 -0.00000000000E+00  0.11368683772E-12  0.17120000000E+03  0.17120000000E+03 0.  0.
         13    1    1    2    0    0 -0.53837500831E+01  0.19753588799E+02  0.15274498660E+02  0.25544285246E+02  0.10566000000E+00 0.  1.
        994    1    1    2    0    0  0.12745664233E+02  0.18912855541E+02  0.12817321860E+02  0.17318738927E+03  0.17120000000E+03 0.  0.
        998    1    1    2    0    0 -0.73619141495E+01 -0.38666444340E+02  0.14719081758E+04  0.14724683255E+04  0.10000000000E+02 0.  1.
</event>
<event>
 5    1  0.1279376E-008  0.2736330E+03  0.7957747E-01  0.4104317E+00
         13   -1    0    0    0    0  0.00000000000E+00  0.00000000000E+00  0.14999999963E+04  0.15000000000E+04  0.10566000000E+00 0. -1.
        994   -1    0    0    0    0 -0.00000000000E+00 -0.00000000000E+00  0.11368683772E-12  0.17120000000E+03  0.17120000000E+03 0.  0.
         13    1    1    2    0    0 -0.17876810617E+03  0.13464627444E+03  0.69281200342E+03  0.72806327902E+03  0.10566000000E+00 0. -1.
        994    1    1    2    0    0  0.78520511080E+02 -0.72432749119E+01  0.92007619206E+02  0.20974455341E+03  0.17120000000E+03 0.  0.
        998    1    1    2    0    0  0.10024759509E+03 -0.12740299952E+03  0.71518037365E+03  0.73339216758E+03  0.10000000000E+02 0. -1.
</event>
<event>
 5    1  0.1279376E-008  0.3856033E+03  0.7957747E-01  0.3427118E+00
         13   -1    0    0    0    0  0.00000000000E+00  0.00000000000E+00  0.14999999963E+04  0.15000000000E+04  0.10566000000E+00 0. -1.
        994   -1    0    0    0    0 -0.00000000000E+00 -0.00000000000E+00  0.11368683772E-12  0.17120000000E+03  0.17120000000E+03 0.  0.
         13    1    1    2    0    0  0.66078171066E+01 -0.97225526496E+01  0.50873762605E+02  0.52214386548E+02  0.10566000000E+00 0. -1.
        994    1    1    2    0    0 -0.12496194570E+02  0.62336865153E+01  0.19712714288E+01  0.17177991628E+03  0.17120000000E+03 0.  0.
        998    1    1    2    0    0  0.58883774635E+01  0.34888661343E+01  0.14471549622E+04  0.14472056972E+04  0.10000000000E+02 0. -1.
</event>
<event>
 5    1  0.1279376E-008  0.3782837E+03  0.7957747E-01  0.3458666E+00
         13   -1    0    0    0    0  0.00000000000E+00  0.00000000000E+00  0.14999999963E+04  0.15000000000E+04  0.10566000000E+00 0. -1.
        994   -1    0    0    0    0 -0.00000000000E+00 -0.00000000000E+00  0.11368683772E-12  0.17120000000E+03  0.17120000000E+03 0.  0.
         13    1    1    2    0    0  0.20020346845E+02  0.24139416385E+02  0.14270454876E+03  0.14610997609E+03  0.10566000000E+00 0. -1.
        994    1    1    2    0    0  0.40242897264E+02  0.25873394782E+02  0.12736235446E+02  0.17821496859E+03  0.17120000000E+03 0.  0.
        998    1    1    2    0    0 -0.60263244109E+02 -0.50012811167E+02  0.13445592121E+04  0.13468750553E+04  0.10000000000E+02 0. -1.
</event>
<event>
 5    1  0.1279376E-008  0.3829982E+03  0.7957747E-01  0.3438207E+00
         13   -1    0    0    0    0  0.00000000000E+00  0.00000000000E+00  0.14999999963E+04  0.15000000000E+04  0.10566000000E+00 0.  1.
        994   -1    0    0    0    0 -0.00000000000E+00 -0.00000000000E+00  0.11368683772E-12  0.17120000000E+03  0.17120000000E+03 0.  0.
         13    1    1    2    0    0 -0.87011731079E+01 -0.78180670520E+01  0.25307192754E+02  0.27880060169E+02  0.10566000000E+00 0.  1.
        994    1    1    2    0    0  0.41476660282E+01  0.40845629591E+01  0.27394529206E+01  0.17132084342E+03  0.17120000000E+03 0.  0.
        998    1    1    2    0    0  0.45535070796E+01  0.37335040929E+01  0.14719533506E+04  0.14719990964E+04  0.10000000000E+02 0.  1.
</event>
<event>
 5    1  0.1279376E-008  0.3839167E+03  0.7957747E-01  0.3434280E+00
         13   -1    0    0    0    0  0.00000000000E+00  0.00000000000E+00  0.14999999963E+04  0.15000000000E+04  0.10566000000E+00 0.  1.
        994   -1    0    0    0    0 -0.00000000000E+00 -0.00000000000E+00  0.11368683772E-12  0.17120000000E+03  0.17120000000E+03 0.  0.
         13    1    1    2    0    0 -0.33356327620E+01  0.10035536985E+02  0.25181356384E+02  0.27312091129E+02  0.10566000000E+00 0.  1.
        994    1    1    2    0    0  0.49934956811E+01 -0.53160989136E+01  0.23445130306E+01  0.17137132971E+03  0.17120000000E+03 0.  0.
        998    1    1    2    0    0 -0.16578629191E+01 -0.47194380710E+01  0.14724741269E+04  0.14725165792E+04  0.10000000000E+02 0.  1.
</event>
<event>
 5    1  0.1279376E-008  0.3842151E+03  0.7957747E-01  0.3433008E+00
         13   -1    0    0    0    0  0.00000000000E+00  0.00000000000E+00  0.14999999963E+04  0.15000000000E+04  0.10566000000E+00 0. -1.
        994   -1    0    0    0    0 -0.00000000000E+00 -0.00000000000E+00  0.11368683772E-12  0.17120000000E+03  0.17120000000E+03 0.  0.
         13    1    1    2    0    0  0.23026021837E+02  0.14311434037E+02  0.16348764030E+03  0.16572035035E+03  0.10566000000E+00 0. -1.
        994    1    1    2    0    0 -0.25157401313E+02 -0.12277394743E+02  0.46082420845E+01  0.17353473761E+03  0.17120000000E+03 0.  0.
        998    1    1    2    0    0  0.21313794762E+01 -0.20340392941E+01  0.13319041139E+04  0.13319449120E+04  0.10000000000E+02 0. -1.
</event>
<event>
 5    1  0.1279376E-008  0.3773946E+03  0.7957747E-01  0.3462582E+00
         13   -1    0    0    0    0  0.00000000000E+00  0.00000000000E+00  0.14999999963E+04  0.15000000000E+04  0.10566000000E+00 0. -1.
        994   -1    0    0    0    0 -0.00000000000E+00 -0.00000000000E+00  0.11368683772E-12  0.17120000000E+03  0.17120000000E+03 0.  0.
         13    1    1    2    0    0 -0.83713349376E+02 -0.12429515651E+02  0.20145865794E+03  0.21851320268E+03  0.10566000000E+00 0. -1.
        994    1    1    2    0    0  0.86509021721E+02  0.10089239135E+02  0.42660914736E+02  0.19676126964E+03  0.17120000000E+03 0.  0.
        998    1    1    2    0    0 -0.27956723454E+01  0.23402765165E+01  0.12558804236E+04  0.12559255277E+04  0.10000000000E+02 0.  0.
</event>
<event>
 5    1  0.1279376E-008  0.3722565E+03  0.7957747E-01  0.3485584E+00
         13   -1    0    0    0    0  0.00000000000E+00  0.00000000000E+00  0.14999999963E+04  0.15000000000E+04  0.10566000000E+00 0.  1.
        994   -1    0    0    0    0 -0.00000000000E+00 -0.00000000000E+00  0.11368683772E-12  0.17120000000E+03  0.17120000000E+03 0.  0.
         13    1    1    2    0    0  0.87789631678E+01 -0.65066214340E+02  0.21762276895E+03  0.22731115936E+03  0.10566000000E+00 0.  1.
        994    1    1    2    0    0  0.22909751347E+02 -0.20716342007E+01  0.14003819966E+02  0.17330520866E+03  0.17120000000E+03 0.  0.
        998    1    1    2    0    0 -0.31688714515E+02  0.67137848541E+02  0.12683734074E+04  0.12705836320E+04  0.10000000000E+02 0.  1.
</event>
<event>
 5    1  0.1279376E-008  0.3740539E+03  0.7957747E-01  0.3477465E+00
         13   -1    0    0    0    0  0.00000000000E+00  0.00000000000E+00  0.14999999963E+04  0.15000000000E+04  0.10566000000E+00 0.  1.
        994   -1    0    0    0    0 -0.00000000000E+00 -0.00000000000E+00  0.11368683772E-12  0.17120000000E+03  0.17120000000E+03 0.  0.
         13    1    1    2    0    0 -0.85288977034E+01 -0.89453124548E+01 -0.23126445419E+00  0.12362255386E+02  0.10566000000E+00 0.  1.
        994    1    1    2    0    0  0.71643987927E+01  0.60955666936E+01  0.13412537652E+02  0.17198203601E+03  0.17120000000E+03 0.  0.
        998    1    1    2    0    0  0.13644989106E+01  0.28497457612E+01  0.14868187231E+04  0.14868557086E+04  0.10000000000E+02 0.  1.
</event>
<event>
 5    1  0.1279376E-008  0.3807768E+03  0.7957747E-01  0.3447783E+00
         13   -1    0    0    0    0  0.00000000000E+00  0.00000000000E+00  0.14999999963E+04  0.15000000000E+04  0.10566000000E+00 0. -1.
        994   -1    0    0    0    0 -0.00000000000E+00 -0.00000000000E+00  0.11368683772E-12  0.17120000000E+03  0.17120000000E+03 0.  0.
         13    1    1    2    0    0 -0.26285393928E+02 -0.78434905310E+01  0.97419282852E+02  0.10120755956E+03  0.10566000000E+00 0. -1.
        994    1    1    2    0    0  0.29820621795E+02 -0.25631743576E+02  0.89145461479E+01  0.17588395292E+03  0.17120000000E+03 0.  0.
        998    1    1    2    0    0 -0.35352278667E+01  0.33475234107E+02  0.13936661673E+04  0.13941084875E+04  0.10000000000E+02 0. -1.
</event>
<event>
 5    1  0.1279376E-008  0.3848632E+03  0.7957747E-01  0.3430253E+00
         13   -1    0    0    0    0  0.00000000000E+00  0.00000000000E+00  0.14999999963E+04  0.15000000000E+04  0.10566000000E+00 0. -1.
        994   -1    0    0    0    0 -0.00000000000E+00 -0.00000000000E+00  0.11368683772E-12  0.17120000000E+03  0.17120000000E+03 0.  0.
         13    1    1    2    0    0  0.50921294833E+01 -0.99386286945E+01  0.36634811937E+02  0.38299174047E+02  0.10566000000E+00 0. -1.
        994    1    1    2    0    0 -0.38552022424E+01  0.56454343675E+01  0.18518389151E+01  0.17134644093E+03  0.17120000000E+03 0.  0.
        998    1    1    2    0    0 -0.12369272409E+01  0.42931943270E+01  0.14615133454E+04  0.14615543850E+04  0.10000000000E+02 0. -1.
</event>
<event>
 5    1  0.1279376E-008  0.3717758E+03  0.7957747E-01  0.3487769E+00
         13   -1    0    0    0    0  0.00000000000E+00  0.00000000000E+00  0.14999999963E+04  0.15000000000E+04  0.10566000000E+00 0.  1.
        994   -1    0    0    0    0 -0.00000000000E+00 -0.00000000000E+00  0.11368683772E-12  0.17120000000E+03  0.17120000000E+03 0.  0.
         13    1    1    2    0    0 -0.24466781410E+02  0.24703681276E+02  0.45144124043E+02  0.56981561586E+02  0.10566000000E+00 0.  1.
        994    1    1    2    0    0  0.22695904711E+02 -0.24562519360E+02  0.15825519349E+02  0.17515224381E+03  0.17120000000E+03 0.  0.
        998    1    1    2    0    0  0.17708766991E+01 -0.14116191614E+00  0.14390303529E+04  0.14390661946E+04  0.10000000000E+02 0.  1.
</event>
<event>
 5    1  0.1279376E-008  0.3837873E+03  0.7957747E-01  0.3434832E+00
         13   -1    0    0    0    0  0.00000000000E+00  0.00000000000E+00  0.14999999963E+04  0.15000000000E+04  0.10566000000E+00 0.  1.
        994   -1    0    0    0    0 -0.00000000000E+00 -0.00000000000E+00  0.11368683772E-12  0.17120000000E+03  0.17120000000E+03 0.  0.
         13    1    1    2    0    0  0.53000082198E+01  0.20181036709E+02  0.11027434739E+03  0.11223104377E+03  0.10566000000E+00 0.  1.
        994    1    1    2    0    0 -0.13293558346E+02  0.78808119881E+01  0.30223394231E+01  0.17192265827E+03  0.17120000000E+03 0.  0.
        998    1    1    2    0    0  0.79935501265E+01 -0.28061848697E+02  0.13867033095E+04  0.13870462980E+04  0.10000000000E+02 0.  1.
</event>
<event>
 5    1  0.1279376E-008  0.3834722E+03  0.7957747E-01  0.3436178E+00
         13   -1    0    0    0    0  0.00000000000E+00  0.00000000000E+00  0.14999999963E+04  0.15000000000E+04  0.10566000000E+00 0.  1.
        994   -1    0    0    0    0 -0.00000000000E+00 -0.00000000000E+00  0.11368683772E-12  0.17120000000E+03  0.17120000000E+03 0.  0.
         13    1    1    2    0    0  0.34048873974E+02  0.32288415710E+02  0.61978769519E+02  0.77738321586E+02  0.10566000000E+00 0.  1.
        994    1    1    2    0    0  0.22872399732E+01  0.29541863612E+02  0.21476598142E+02  0.17506752252E+03  0.17120000000E+03 0.  0.
        998    1    1    2    0    0 -0.36336113948E+02 -0.61830279322E+02  0.14165446286E+04  0.14183941559E+04  0.10000000000E+02 0.  1.
</event>
<event>
 5    1  0.1279376E-008  0.3759932E+03  0.7957747E-01  0.3468793E+00
         13   -1    0    0    0    0  0.00000000000E+00  0.00000000000E+00  0.14999999963E+04  0.15000000000E+04  0.10566000000E+00 0.  1.
        994   -1    0    0    0    0 -0.00000000000E+00 -0.00000000000E+00  0.11368683772E-12  0.17120000000E+03  0.17120000000E+03 0.  0.
         13    1    1    2    0    0 -0.39496011753E+02 -0.94982649544E+01  0.12558165002E+03  0.13198830996E+03  0.10566000000E+00 0.  1.
        994    1    1    2    0    0  0.33574437332E+02  0.56195425005E+01  0.10105553531E+02  0.17484388554E+03  0.17120000000E+03 0.  0.
        998    1    1    2    0    0  0.59215744209E+01  0.38787224538E+01  0.13643127927E+04  0.13643678045E+04  0.10000000000E+02 0.  1.
</event>
<event>
 5    1  0.1279376E-008  0.3805278E+03  0.7957747E-01  0.3448863E+00
         13   -1    0    0    0    0  0.00000000000E+00  0.00000000000E+00  0.14999999963E+04  0.15000000000E+04  0.10566000000E+00 0. -1.
        994   -1    0    0    0    0 -0.00000000000E+00 -0.00000000000E+00  0.11368683772E-12  0.17120000000E+03  0.17120000000E+03 0.  0.
         13    1    1    2    0    0  0.20931852499E+02 -0.42929988521E+01  0.63435072796E+02  0.66937223671E+02  0.10566000000E+00 0. -1.
        994    1    1    2    0    0  0.82689759697E+01 -0.18570100739E+01  0.41066701254E+01  0.17145882651E+03  0.17120000000E+03 0.  0.
        998    1    1    2    0    0 -0.29200828469E+02  0.61500089260E+01  0.14324582534E+04  0.14328039498E+04  0.10000000000E+02 0. -1.
</event>
<event>
 5    1  0.1279376E-008  0.3814589E+03  0.7957747E-01  0.3444831E+00
         13   -1    0    0    0    0  0.00000000000E+00  0.00000000000E+00  0.14999999963E+04  0.15000000000E+04  0.10566000000E+00 0.  1.
        994   -1    0    0    0    0 -0.00000000000E+00 -0.00000000000E+00  0.11368683772E-12  0.17120000000E+03  0.17120000000E+03 0.  0.
         13    1    1    2    0    0 -0.23098185883E+02 -0.13055242435E+02  0.10608598108E+03  0.10935361033E+03  0.10566000000E+00 0.  1.
        994    1    1    2    0    0  0.20702955872E+01  0.17398453814E+02  0.44205145979E+01  0.17215101878E+03  0.17120000000E+03 0.  0.
        998    1    1    2    0    0  0.21027890296E+02 -0.43432113788E+01  0.13894935006E+04  0.13896953709E+04  0.10000000000E+02 0.  1.
</event>
<event>
 5    1  0.1279376E-008  0.3842633E+03  0.7957747E-01  0.3432803E+00
         13   -1    0    0    0    0  0.00000000000E+00  0.00000000000E+00  0.14999999963E+04  0.15000000000E+04  0.10566000000E+00 0.  1.
        994   -1    0    0    0    0 -0.00000000000E+00 -0.00000000000E+00  0.11368683772E-12  0.17120000000E+03  0.17120000000E+03 0.  0.
         13    1    1    2    0    0 -0.22683398303E+02 -0.13198377581E+02  0.13327267198E+03  0.13583206539E+03  0.10566000000E+00 0.  1.
        994    1    1    2    0    0  0.59328561554E+02 -0.25974014362E+01  0.13709782654E+02  0.18172512994E+03  0.17120000000E+03 0.  0.
        998    1    1    2    0    0 -0.36645163251E+02  0.15795779017E+02  0.13530175416E+04  0.13536428047E+04  0.10000000000E+02 0.  1.
</event>
<event>
 5    1  0.1279376E-008  0.3859426E+03  0.7957747E-01  0.3425684E+00
         13   -1    0    0    0    0  0.00000000000E+00  0.00000000000E+00  0.14999999963E+04  0.15000000000E+04  0.10566000000E+00 0.  1.
        994   -1    0    0    0    0 -0.00000000000E+00 -0.00000000000E+00  0.11368683772E-12  0.17120000000E+03  0.17120000000E+03 0.  0.
         13    1    1    2    0    0 -0.66004122719E+01 -0.11165030761E+02  0.75723644135E+02  0.76826458979E+02  0.10566000000E+00 0.  1.
        994    1    1    2    0    0 -0.41745537751E+01  0.74752065274E+01  0.14032342584E+01  0.17141970330E+03  0.17120000000E+03 0.  0.
        998    1    1    2    0    0  0.10774966047E+02  0.36898242332E+01  0.14228731179E+04  0.14229538377E+04  0.10000000000E+02 0.  1.
</event>
<event>
 5    1  0.1279376E-008  0.2156213E+03  0.7957747E-01  0.4775230E+00
         13   -1    0    0    0    0  0.00000000000E+00  0.00000000000E+00  0.14999999963E+04  0.15000000000E+04  0.10566000000E+00 0.  1.
        994   -1    0    0    0    0 -0.00000000000E+00 -0.00000000000E+00  0.11368683772E-12  0.17120000000E+03  0.17120000000E+03 0.  0.
         13    1    1    2    0    0  0.53543416941E+01  0.12347925316E+03  0.67527362988E+02  0.14083945062E+03  0.10566000000E+00 0.  1.
        994    1    1    2    0    0  0.72979021517E+01 -0.11940562629E+03  0.17416942279E+03  0.27194740448E+03  0.17120000000E+03 0.  0.
        998    1    1    2    0    0 -0.12652243846E+02 -0.40736268641E+01  0.12583032105E+04  0.12584131449E+04  0.10000000000E+02 0.  1.
</event>
<event>
 5    1  0.1279376E-008  0.3818684E+03  0.7957747E-01  0.3443063E+00
         13   -1    0    0    0    0  0.00000000000E+00  0.00000000000E+00  0.14999999963E+04  0.15000000000E+04  0.10566000000E+00 0. -1.
        994   -1    0    0    0    0 -0.00000000000E+00 -0.00000000000E+00  0.11368683772E-12  0.17120000000E+03  0.17120000000E+03 0.  0.
         13    1    1    2    0    0 -0.19599698501E+02  0.13177585032E+02  0.75881190949E+02  0.79471776326E+02  0.10566000000E+00 0. -1.
        994    1    1    2    0    0  0.32681270851E+02 -0.24339668062E+02  0.87294834226E+01  0.17619911687E+03  0.17120000000E+03 0.  0.
        998    1    1    2    0    0 -0.13081572350E+02  0.11162083030E+02  0.14153893219E+04  0.14155291068E+04  0.10000000000E+02 0. -1.
</event>
<event>
 5    1  0.1279376E-008  0.3820137E+03  0.7957747E-01  0.3442437E+00
         13   -1    0    0    0    0  0.00000000000E+00  0.00000000000E+00  0.14999999963E+04  0.15000000000E+04  0.10566000000E+00 0.  1.
        994   -1    0    0    0    0 -0.00000000000E+00 -0.00000000000E+00  0.11368683772E-12  0.17120000000E+03  0.17120000000E+03 0.  0.
         13    1    1    2    0    0 -0.20020750393E+02 -0.17124286126E+02  0.10277458621E+03  0.10609758883E+03  0.10566000000E+00 0.  1.
        994    1    1    2    0    0  0.21995616027E+02  0.17458451759E+02  0.57432927301E+01  0.17358291988E+03  0.17120000000E+03 0.  0.
        998    1    1    2    0    0 -0.19748656336E+01 -0.33416563365E+00  0.13914821173E+04  0.13915194913E+04  0.10000000000E+02 0.  1.
</event>
<event>
 5    1  0.1279376E-008  0.3852806E+03  0.7957747E-01  0.3428483E+00
         13   -1    0    0    0    0  0.00000000000E+00  0.00000000000E+00  0.14999999963E+04  0.15000000000E+04  0.10566000000E+00 0. -1.
        994   -1    0    0    0    0 -0.00000000000E+00 -0.00000000000E+00  0.11368683772E-12  0.17120000000E+03  0.17120000000E+03 0.  0.
         13    1    1    2    0    0  0.53278028261E+01 -0.13748703314E+02  0.70959436460E+02  0.72475272421E+02  0.10566000000E+00 0. -1.
        994    1    1    2    0    0  0.72089538594E+01  0.18138463285E+02  0.27436412159E+01  0.17233090388E+03  0.17120000000E+03 0.  0.
        998    1    1    2    0    0 -0.12536756685E+02 -0.43897599711E+01  0.14262969186E+04  0.14263938237E+04  0.10000000000E+02 0. -1.
</event>
<event>
 5    1  0.1279376E-008  0.3852320E+03  0.7957747E-01  0.3428689E+00
         13   -1    0    0    0    0  0.00000000000E+00  0.00000000000E+00  0.14999999963E+04  0.15000000000E+04  0.10566000000E+00 0.  1.
        994   -1    0    0    0    0 -0.00000000000E+00 -0.00000000000E+00  0.11368683772E-12  0.17120000000E+03  0.17120000000E+03 0.  0.
         13    1    1    2    0    0 -0.23553082282E+01  0.12883225731E+02  0.55486752963E+02  0.57011541818E+02  0.10566000000E+00 0.  1.
        994    1    1    2    0    0 -0.15793799508E+00 -0.12589280582E+02  0.20360692356E+01  0.17167440260E+03  0.17120000000E+03 0.  0.
        998    1    1    2    0    0  0.25132462232E+01 -0.29394514915E+00  0.14424771741E+04  0.14425140556E+04  0.10000000000E+02 0.  1.
</event>
<event>
 5    1  0.1279376E-008  0.3811843E+03  0.7957747E-01  0.3446018E+00
         13   -1    0    0    0    0  0.00000000000E+00  0.00000000000E+00  0.14999999963E+04  0.15000000000E+04  0.10566000000E+00 0. -1.
        994   -1    0    0    0    0 -0.00000000000E+00 -0.00000000000E+00  0.11368683772E-12  0.17120000000E+03  0.17120000000E+03 0.  0.
         13    1    1    2    0    0  0.17907404652E+01  0.41195402258E+02  0.23916837453E+03  0.24269691069E+03  0.10566000000E+00 0. -1.
        994    1    1    2    0    0  0.33486268403E+01 -0.23869231831E+02  0.54734405099E+01  0.17297500421E+03  0.17120000000E+03 0.  0.
        998    1    1    2    0    0 -0.51393673054E+01 -0.17326170427E+02  0.12553581812E+04  0.12555280851E+04  0.10000000000E+02 0. -1.
</event>
<event>
 5    1  0.1279376E-008  0.3750012E+03  0.7957747E-01  0.3473218E+00
         13   -1    0    0    0    0  0.00000000000E+00  0.00000000000E+00  0.14999999963E+04  0.15000000000E+04  0.10566000000E+00 0.  1.
        994   -1    0    0    0    0 -0.00000000000E+00 -0.00000000000E+00  0.11368683772E-12  0.17120000000E+03  0.17120000000E+03 0.  0.
         13    1    1    2    0    0  0.91381468586E+02  0.13322625054E+03  0.84652703463E+03  0.86180498847E+03  0.10566000000E+00 0.  1.
        994    1    1    2    0    0 -0.81223106458E+02 -0.13238667085E+03  0.93675146624E+02  0.24941510928E+03  0.17120000000E+03 0.  0.
        998    1    1    2    0    0 -0.10158362128E+02 -0.83957968876E+00  0.55979781503E+03  0.55997990225E+03  0.10000000000E+02 0.  0.
</event>
<event>
 5    1  0.1279376E-008  0.3831650E+03  0.7957747E-01  0.3437492E+00
         13   -1    0    0    0    0  0.00000000000E+00  0.00000000000E+00  0.14999999963E+04  0.15000000000E+04  0.10566000000E+00 0. -1.
        994   -1    0    0    0    0 -0.00000000000E+00 -0.00000000000E+00  0.11368683772E-12  0.17120000000E+03  0.17120000000E+03 0.  0.
         13    1    1    2    0    0  0.23988998829E+02 -0.48537733441E+01  0.11224813511E+03  0.11488553512E+03  0.10566000000E+00 0. -1.
        994    1    1    2    0    0 -0.20712811065E+02  0.45037881482E+01  0.40317921696E+01  0.17255433926E+03  0.17120000000E+03 0.  0.
        998    1    1    2    0    0 -0.32761877638E+01  0.34998519591E+00  0.13837200690E+04  0.13837601256E+04  0.10000000000E+02 0.  0.
</event>
<event>
 5    1  0.1279376E-008  0.3712872E+03  0.7957747E-01  0.3489996E+00
         13   -1    0    0    0    0  0.00000000000E+00  0.00000000000E+00  0.14999999963E+04  0.15000000000E+04  0.10566000000E+00 0.  1.
        994   -1    0    0    0    0 -0.00000000000E+00 -0.00000000000E+00  0.11368683772E-12  0.17120000000E+03  0.17120000000E+03 0.  0.
         13    1    1    2    0    0 -0.45102630248E+02 -0.14988969608E+02  0.87484405365E+02  0.99561281688E+02  0.10566000000E+00 0.  1.
        994    1    1    2    0    0  0.46707986405E+02  0.16450412517E+02  0.20283080317E+02  0.17936860208E+03  0.17120000000E+03 0.  0.
        998    1    1    2    0    0 -0.16053561566E+01 -0.14614429093E+01  0.13922325106E+04  0.13922701162E+04  0.10000000000E+02 0.  1.
</event>
<event>
 5    1  0.1279376E-008  0.3797096E+03  0.7957747E-01  0.3452424E+00
         13   -1    0    0    0    0  0.00000000000E+00  0.00000000000E+00  0.14999999963E+04  0.15000000000E+04  0.10566000000E+00 0. -1.
        994   -1    0    0    0    0 -0.00000000000E+00 -0.00000000000E+00  0.11368683772E-12  0.17120000000E+03  0.17120000000E+03 0.  0.
         13    1    1    2    0    0  0.14959534749E+02  0.25345985563E+01  0.24928798391E+02  0.29183351812E+02  0.10566000000E+00 0. -1.
        994    1    1    2    0    0 -0.13155367283E+02 -0.35754208247E+01  0.49018963741E+01  0.17181186196E+03  0.17120000000E+03 0.  0.
        998    1    1    2    0    0 -0.18041674663E+01  0.10408222684E+01  0.14701693015E+04  0.14702047862E+04  0.10000000000E+02 0. -1.
</event>
<event>
 5    1  0.1279376E-008  0.4193230E+03  0.7957747E-01  0.3295987E+00
         13   -1    0    0    0    0  0.00000000000E+00  0.00000000000E+00  0.14999999963E+04  0.15000000000E+04  0.10566000000E+00 0. -1.
        994   -1    0    0    0    0 -0.00000000000E+00 -0.00000000000E+00  0.11368683772E-12  0.17120000000E+03  0.17120000000E+03 0.  0.
         13    1    1    2    0    0 -0.49251710935E+02  0.29218418329E+01  0.16518535859E+02  0.52030196816E+02  0.10566000000E+00 0. -1.
        994    1    1    2    0    0  0.28643254598E+02 -0.12154339968E+02  0.44006614432E+02  0.17948310820E+03  0.17120000000E+03 0.  0.
        998    1    1    2    0    0  0.20608456337E+02  0.92324981353E+01  0.14394748460E+04  0.14396866950E+04  0.10000000000E+02 0. -1.
</event>
<event>
 5    1  0.1279376E-008  0.3825619E+03  0.7957747E-01  0.3440079E+00
         13   -1    0    0    0    0  0.00000000000E+00  0.00000000000E+00  0.14999999963E+04  0.15000000000E+04  0.10566000000E+00 0.  1.
        994   -1    0    0    0    0 -0.00000000000E+00 -0.00000000000E+00  0.11368683772E-12  0.17120000000E+03  0.17120000000E+03 0.  0.
         13    1    1    2    0    0  0.11178379163E+02  0.62011759748E+01  0.27578262995E+02  0.30397080420E+02  0.10566000000E+00 0.  1.
        994    1    1    2    0    0 -0.10625768885E+02 -0.13873122030E+01  0.32262169889E+01  0.17156538134E+03  0.17120000000E+03 0.  0.
        998    1    1    2    0    0 -0.55261027792E+00 -0.48138637718E+01  0.14691955163E+04  0.14692375382E+04  0.10000000000E+02 0.  1.
</event>
<event>
 5    1  0.1279376E-008  0.3733569E+03  0.7957747E-01  0.3480604E+00
         13   -1    0    0    0    0  0.00000000000E+00  0.00000000000E+00  0.14999999963E+04  0.15000000000E+04  0.10566000000E+00 0.  1.
        994   -1    0    0    0    0 -0.00000000000E+00 -0.00000000000E+00  0.11368683772E-12  0.17120000000E+03  0.17120000000E+03 0.  0.
         13    1    1    2    0    0 -0.41599910598E+01 -0.71798899992E+02  0.41887426393E+03  0.42500358553E+03  0.10566000000E+00 0.  1.
        994    1    1    2    0    0  0.38281188568E+01  0.18739589835E+02  0.87763328536E+01  0.17248852350E+03  0.17120000000E+03 0.  0.
        998    1    1    2    0    0  0.33187220305E+00  0.53059310157E+02  0.10723493995E+04  0.10737078910E+04  0.10000000000E+02 0.  1.
</event>
<event>
 5    1  0.1279376E-008  0.4592739E+03  0.7957747E-01  0.3165129E+00
         13   -1    0    0    0    0  0.00000000000E+00  0.00000000000E+00  0.14999999963E+04  0.15000000000E+04  0.10566000000E+00 0. -1.
        994   -1    0    0    0    0 -0.00000000000E+00 -0.00000000000E+00  0.11368683772E-12  0.17120000000E+03  0.17120000000E+03 0.  0.
         13    1    1    2    0    0  0.38220986369E+01  0.40061113885E+02 -0.14286656792E+02  0.42703875820E+02  0.10566000000E+00 0. -1.
        994    1    1    2    0    0  0.18266091752E+02 -0.44585834193E+02  0.81737288426E+02  0.19573444009E+03  0.17120000000E+03 0.  0.
        998    1    1    2    0    0 -0.22088190389E+02  0.45247203080E+01  0.14325493646E+04  0.14327616841E+04  0.10000000000E+02 0. -1.
</event>
<event>
 5    1  0.1279376E-008  0.3836245E+03  0.7957747E-01  0.3435527E+00
         13   -1    0    0    0    0  0.00000000000E+00  0.00000000000E+00  0.14999999963E+04  0.15000000000E+04  0.10566000000E+00 0. -1.
        994   -1    0    0    0    0 -0.00000000000E+00 -0.00000000000E+00  0.11368683772E-12  0.17120000000E+03  0.17120000000E+03 0.  0.
         13    1    1    2    0    0 -0.25328135291E+02  0.27207180920E+01  0.15159155273E+03  0.15371703474E+03  0.10566000000E+00 0. -1.
        994    1    1    2    0    0  0.54654067627E+01 -0.14487283945E+01  0.24202112786E+01  0.17131044016E+03  0.17120000000E+03 0.  0.
        998    1    1    2    0    0  0.19862728528E+02 -0.12719896976E+01  0.13459882323E+04  0.13461725251E+04  0.10000000000E+02 0. -1.
</event>
<event>
 5    1  0.1279376E-008  0.3717973E+03  0.7957747E-01  0.3487671E+00
         13   -1    0    0    0    0  0.00000000000E+00  0.00000000000E+00  0.14999999963E+04  0.15000000000E+04  0.10566000000E+00 0. -1.
        994   -1    0    0    0    0 -0.00000000000E+00 -0.00000000000E+00  0.11368683772E-12  0.17120000000E+03  0.17120000000E+03 0.  0.
         13    1    1    2    0    0  0.11470888984E+02  0.13293842846E+02  0.14399431316E+02  0.22708199796E+02  0.10566000000E+00 0. -1.
        994    1    1    2    0    0 -0.23090229557E+02 -0.14161098476E+02  0.10858013154E+02  0.17366931756E+03  0.17120000000E+03 0.  0.
        998    1    1    2    0    0  0.11619340573E+02  0.86725563056E+00  0.14747425518E+04  0.14748224826E+04  0.10000000000E+02 0. -1.
</event>
<event>
 5    1  0.1279376E-008  0.3794244E+03  0.7957747E-01  0.3453669E+00
         13   -1    0    0    0    0  0.00000000000E+00  0.00000000000E+00  0.14999999963E+04  0.15000000000E+04  0.10566000000E+00 0. -1.
        994   -1    0    0    0    0 -0.00000000000E+00 -0.00000000000E+00  0.11368683772E-12  0.17120000000E+03  0.17120000000E+03 0.  0.
         13    1    1    2    0    0  0.53137718628E+01  0.20925687029E+02  0.49081095347E+02  0.53619825005E+02  0.10566000000E+00 0. -1.
        994    1    1    2    0    0 -0.46215619152E+01 -0.24326430824E+02  0.64802774660E+01  0.17310276736E+03  0.17120000000E+03 0.  0.
        998    1    1    2    0    0 -0.69220994765E+00  0.34007437949E+01  0.14444386235E+04  0.14444774076E+04  0.10000000000E+02 0. -1.
</event>
<event>
 5    1  0.1279376E-008  0.3842983E+03  0.7957747E-01  0.3432654E+00
         13   -1    0    0    0    0  0.00000000000E+00  0.00000000000E+00  0.14999999963E+04  0.15000000000E+04  0.10566000000E+00 0.  1.
        994   -1    0    0    0    0 -0.00000000000E+00 -0.00000000000E+00  0.11368683772E-12  0.17120000000E+03  0.17120000000E+03 0.  0.
         13    1    1    2    0    0 -0.20842275178E+02  0.12447067720E+01  0.11229467385E+03  0.11421932703E+03  0.10566000000E+00 0.  1.
        994    1    1    2    0    0  0.10336230795E+02  0.25577243914E+01  0.23527414299E+01  0.17154694697E+03  0.17120000000E+03 0.  0.
        998    1    1    2    0    0  0.10506044383E+02 -0.38024311633E+01  0.13853525810E+04  0.13854337260E+04  0.10000000000E+02 0.  1.
</event>
<event>
 5    1  0.1279376E-008  0.3834788E+03  0.7957747E-01  0.3436150E+00
         13   -1    0    0    0    0  0.00000000000E+00  0.00000000000E+00  0.14999999963E+04  0.15000000000E+04  0.10566000000E+00 0.  1.
        994   -1    0    0    0    0 -0.00000000000E+00 -0.00000000000E+00  0.11368683772E-12  0.17120000000E+03  0.17120000000E+03 0.  0.
         13    1    1    2    0    0 -0.18632106563E+02  0.59433819228E+01  0.87653604145E+02  0.89808934229E+02  0.10566000000E+00 0.  1.
        994    1    1    2    0    0 -0.14767048456E+01  0.57257044431E+01  0.25028404273E+01  0.17132036820E+03  0.17120000000E+03 0.  0.
        998    1    1    2    0    0  0.20108811408E+02 -0.11669086366E+02  0.14098435517E+04  0.14100706976E+04  0.10000000000E+02 0.  1.
</event>
<event>
 5    1  0.1279376E-008  0.3829761E+03  0.7957747E-01  0.3438301E+00
         13   -1    0    0    0    0  0.00000000000E+00  0.00000000000E+00  0.14999999963E+04  0.15000000000E+04  0.10566000000E+00 0.  1.
        994   -1    0    0    0    0 -0.00000000000E+00 -0.00000000000E+00  0.11368683772E-12  0.17120000000E+03  0.17120000000E+03 0.  0.
         13    1    1    2    0    0  0.18204379701E+02  0.51904323288E+01  0.65383121004E+02  0.68068375215E+02  0.10566000000E+00 0.  1.
        994    1    1    2    0    0 -0.12066614111E+02 -0.22130270096E+02  0.47443900551E+01  0.17311066191E+03  0.17120000000E+03 0.  0.
        998    1    1    2    0    0 -0.61377655900E+01  0.16939837767E+02  0.14298724852E+04  0.14300209629E+04  0.10000000000E+02 0.  1.
</event>
<event>
 5    1  0.1279376E-008  0.3781715E+03  0.7957747E-01  0.3459159E+00
         13   -1    0    0    0    0  0.00000000000E+00  0.00000000000E+00  0.14999999963E+04  0.15000000000E+04  0.10566000000E+00 0.  1.
        994   -1    0    0    0    0 -0.00000000000E+00 -0.00000000000E+00  0.11368683772E-12  0.17120000000E+03  0.17120000000E+03 0.  0.
         13    1    1    2    0    0 -0.41519417050E+01  0.35970404427E+02  0.11359879683E+03  0.11923005669E+03  0.10566000000E+00 0.  1.
        994    1    1    2    0    0 -0.88846390483E+01 -0.46888120601E+02  0.12757118593E+02  0.17818422135E+03  0.17120000000E+03 0.  0.
        998    1    1    2    0    0  0.13036580753E+02  0.10917716174E+02  0.13736440809E+04  0.13737857220E+04  0.10000000000E+02 0.  1.
</event>
<event>
 5    1  0.1279376E-008  0.2466193E+03  0.7957747E-01  0.4370483E+00
         13   -1    0    0    0    0  0.00000000000E+00  0.00000000000E+00  0.14999999963E+04  0.15000000000E+04  0.10566000000E+00 0.  1.
        994   -1    0    0    0    0 -0.00000000000E+00 -0.00000000000E+00  0.11368683772E-12  0.17120000000E+03  0.17120000000E+03 0.  0.
         13    1    1    2    0    0  0.12622361375E+03  0.10392382095E+03  0.27576536146E+03  0.32059180740E+03  0.10566000000E+00 0.  1.
        994    1    1    2    0    0 -0.13243574970E+03 -0.10308242487E+03  0.16436422640E+03  0.29067207131E+03  0.17120000000E+03 0.  0.
        998    1    1    2    0    0  0.62121359463E+01 -0.84139607816E+00  0.10598704084E+04  0.10599361213E+04  0.10000000000E+02 0.  1.
</event>
<event>
 5    1  0.1279376E-008  0.3730140E+03  0.7957747E-01  0.3482153E+00
         13   -1    0    0    0    0  0.00000000000E+00  0.00000000000E+00  0.14999999963E+04  0.15000000000E+04  0.10566000000E+00 0. -1.
        994   -1    0    0    0    0 -0.00000000000E+00 -0.00000000000E+00  0.11368683772E-12  0.17120000000E+03  0.17120000000E+03 0.  0.
         13    1    1    2    0    0 -0.93844622665E+01 -0.59504897702E+02  0.19981777087E+03  0.20870087135E+03  0.10566000000E+00 0. -1.
        994    1    1    2    0    0  0.12895979048E+02  0.61565050140E+02  0.21365508737E+02  0.18363683355E+03  0.17120000000E+03 0.  0.
        998    1    1    2    0    0 -0.35115167811E+01 -0.20601524375E+01  0.12788167167E+04  0.12788622951E+04  0.10000000000E+02 0. -1.
</event>
<event>
 5    1  0.1279376E-008  0.3711264E+03  0.7957747E-01  0.3490730E+00
         13   -1    0    0    0    0  0.00000000000E+00  0.00000000000E+00  0.14999999963E+04  0.15000000000E+04  0.10566000000E+00 0.  1.
        994   -1    0    0    0    0 -0.00000000000E+00 -0.00000000000E+00  0.11368683772E-12  0.17120000000E+03  0.17120000000E+03 0.  0.
         13    1    1    2    0    0  0.54509171202E+02 -0.18928797318E+02  0.16283261967E+03  0.17275422515E+03  0.10566000000E+00 0.  1.
        994    1    1    2    0    0  0.90609991448E+00  0.73885981772E+01  0.11730179219E+02  0.17176277101E+03  0.17120000000E+03 0.  0.
        998    1    1    2    0    0 -0.55415271117E+02  0.11540199141E+02  0.13254371974E+04  0.13266830038E+04  0.10000000000E+02 0.  1.
</event>
<event>
 5    1  0.1279376E-008  0.3748926E+03  0.7957747E-01  0.3473703E+00
         13   -1    0    0    0    0  0.00000000000E+00  0.00000000000E+00  0.14999999963E+04  0.15000000000E+04  0.10566000000E+00 0. -1.
        994   -1    0    0    0    0 -0.00000000000E+00 -0.00000000000E+00  0.11368683772E-12  0.17120000000E+03  0.17120000000E+03 0.  0.
         13    1    1    2    0    0  0.15620928078E+02  0.28567261654E+02  0.73971068802E+02  0.80819750161E+02  0.10566000000E+00 0. -1.
        994    1    1    2    0    0 -0.10283664443E+02 -0.27102973634E+02  0.95966606751E+01  0.17390187127E+03  0.17120000000E+03 0.  0.
        998    1    1    2    0    0 -0.53372636358E+01 -0.14642880203E+01  0.14164322668E+04  0.14164783786E+04  0.10000000000E+02 0. -1.
</event>
<event>
 5    1  0.1279376E-008  0.3824544E+03  0.7957747E-01  0.3440541E+00
         13   -1    0    0    0    0  0.00000000000E+00  0.00000000000E+00  0.14999999963E+04  0.15000000000E+04  0.10566000000E+00 0.  1.
        994   -1    0    0    0    0 -0.00000000000E+00 -0.00000000000E+00  0.11368683772E-12  0.17120000000E+03  0.17120000000E+03 0.  0.
         13    1    1    2    0    0 -0.39022906346E+01  0.10876732619E+02  0.21710771930E+02  0.24594714199E+02  0.10566000000E+00 0.  1.
        994    1    1    2    0    0  0.28406064891E+01 -0.10952201578E+02  0.33238973494E+01  0.17160567607E+03  0.17120000000E+03 0.  0.
        998    1    1    2    0    0  0.10616841455E+01  0.75468958826E-01  0.14749653270E+04  0.14749996097E+04  0.10000000000E+02 0.  1.
</event>
<event>
 5    1  0.1279376E-008  0.3797920E+03  0.7957747E-01  0.3452065E+00
         13   -1    0    0    0    0  0.00000000000E+00  0.00000000000E+00  0.14999999963E+04  0.15000000000E+04  0.10566000000E+00 0. -1.
        994   -1    0    0    0    0 -0.00000000000E+00 -0.00000000000E+00  0.11368683772E-12  0.17120000000E+03  0.17120000000E+03 0.  0.
         13    1    1    2    0    0 -0.17754586797E+02 -0.36469741457E+02  0.17183345962E+03  0.17655598660E+03  0.10566000000E+00 0. -1.
        994    1    1    2    0    0  0.15369302900E+02  0.37995393897E+02  0.98782233646E+01  0.17631473202E+03  0.17120000000E+03 0.  0.
        998    1    1    2    0    0  0.23852838965E+01 -0.15256524395E+01  0.13182883133E+04  0.13183292814E+04  0.10000000000E+02 0. -1.
</event>
<event>
 5    1  0.1279376E-008  0.3808871E+03  0.7957747E-01  0.3447305E+00
         13   -1    0    0    0    0  0.00000000000E+00  0.00000000000E+00  0.14999999963E+04  0.15000000000E+04  0.10566000000E+00 0.  1.
        994   -1    0    0    0    0 -0.00000000000E+00 -0.00000000000E+00  0.11368683772E-12  0.17120000000E+03  0.17120000000E+03 0.  0.
         13    1    1    2    0    0  0.44875852619E+01 -0.10489678606E+02  0.16096385238E+02  0.19730092765E+02  0.10566000000E+00 0.  1.
        994    1    1    2    0    0 -0.30480907555E+01  0.78454015670E+01  0.39221895665E+01  0.17145163969E+03  0.17120000000E+03 0.  0.
        998    1    1    2    0    0 -0.14394945064E+01  0.26442770389E+01  0.14799814215E+04  0.14800182675E+04  0.10000000000E+02 0.  1.
</event>
<event>
 5    1  0.1279376E-008  0.3806829E+03  0.7957747E-01  0.3448190E+00
         13   -1    0    0    0    0  0.00000000000E+00  0.00000000000E+00  0.14999999963E+04  0.15000000000E+04  0.10566000000E+00 0.  1.
        994   -1    0    0    0    0 -0.00000000000E+00 -0.00000000000E+00  0.11368683772E-12  0.17120000000E+03  0.17120000000E+03 0.  0.
         13    1    1    2    0    0 -0.11140229762E+02 -0.67206583078E+01  0.20584789116E+02  0.24351933685E+02  0.10566000000E+00 0.  1.
        994    1    1    2    0    0  0.98465875010E+01  0.80500766972E+01  0.43285414446E+01  0.17172633837E+03  0.17120000000E+03 0.  0.
        998    1    1    2    0    0  0.12936422607E+01 -0.13294183893E+01  0.14750866657E+04  0.14751217279E+04  0.10000000000E+02 0.  1.
</event>
<event>
 5    1  0.1279376E-008  0.3832153E+03  0.7957747E-01  0.3437277E+00
         13   -1    0    0    0    0  0.00000000000E+00  0.00000000000E+00  0.14999999963E+04  0.15000000000E+04  0.10566000000E+00 0.  1.
        994   -1    0    0    0    0 -0.00000000000E+00 -0.00000000000E+00  0.11368683772E-12  0.17120000000E+03  0.17120000000E+03 0.  0.
         13    1    1    2    0    0 -0.10809524914E+02  0.25138834970E+01  0.23291496949E+02  0.25800589785E+02  0.10566000000E+00 0.  1.
        994    1    1    2    0    0  0.90043202422E+01 -0.10869832758E+02  0.31780950191E+01  0.17181027715E+03  0.17120000000E+03 0.  0.
        998    1    1    2    0    0  0.18052046721E+01  0.83559492610E+01  0.14735304043E+04  0.14735891331E+04  0.10000000000E+02 0.  1.
</event>
<event>
 5    1  0.1279376E-008  0.3730050E+03  0.7957747E-01  0.3482193E+00
         13   -1    0    0    0    0  0.00000000000E+00  0.00000000000E+00  0.14999999963E+04  0.15000000000E+04  0.10566000000E+00 0. -1.
        994   -1    0    0    0    0 -0.00000000000E+00 -0.00000000000E+00  0.11368683772E-12  0.17120000000E+03  0.17120000000E+03 0.  0.
         13    1    1    2    0    0  0.49634838032E+01  0.11078227909E+02  0.59671183267E+01  0.13527045880E+02  0.10566000000E+00 0. -1.
        994    1    1    2    0    0 -0.12500840588E+02 -0.86789676602E+01  0.84997382108E+01  0.17208509826E+03  0.17120000000E+03 0.  0.
        998    1    1    2    0    0  0.75373567844E+01 -0.23992602490E+01  0.14855331397E+04  0.14855878559E+04  0.10000000000E+02 0. -1.
</event>
<event>
 5    1  0.1279376E-008  0.3763230E+03  0.7957747E-01  0.3467327E+00
         13   -1    0    0    0    0  0.00000000000E+00  0.00000000000E+00  0.14999999963E+04  0.15000000000E+04  0.10566000000E+00 0. -1.
        994   -1    0    0    0    0 -0.00000000000E+00 -0.00000000000E+00  0.11368683772E-12  0.17120000000E+03  0.17120000000E+03 0.  0.
         13    1    1    2    0    0 -0.12125134736E+02 -0.13781773666E+02  0.25095966092E+02  0.31093003327E+02  0.10566000000E+00 0. -1.
        994    1    1    2    0    0  0.14695410554E+02  0.13440342784E+02  0.73441906075E+01  0.17251079688E+03  0.17120000000E+03 0.  0.
        998    1    1    2    0    0 -0.25702758175E+01  0.34143088218E+00  0.14675598396E+04  0.14675961998E+04  0.10000000000E+02 0. -1.
</event>
<event>
 5    1  0.1279376E-008  0.3860146E+03  0.7957747E-01  0.3425380E+00
         13   -1    0    0    0    0  0.00000000000E+00  0.00000000000E+00  0.14999999963E+04  0.15000000000E+04  0.10566000000E+00 0. -1.
        994   -1    0    0    0    0 -0.00000000000E+00 -0.00000000000E+00  0.11368683772E-12  0.17120000000E+03  0.17120000000E+03 0.  0.
         13    1    1    2    0    0  0.87339910678E+00  0.12994996631E+02  0.74499878527E+02  0.75629860690E+02  0.10566000000E+00 0. -1.
        994    1    1    2    0    0 -0.25961263864E+01 -0.11126272555E+02  0.15552165260E+01  0.17158785654E+03  0.17120000000E+03 0.  0.
        998    1    1    2    0    0  0.17227272796E+01 -0.18687240764E+01  0.14239449012E+04  0.14239822828E+04  0.10000000000E+02 0. -1.
</event>
<event>
 5    1  0.1279376E-008  0.3719841E+03  0.7957747E-01  0.3486822E+00
         13   -1    0    0    0    0  0.00000000000E+00  0.00000000000E+00  0.14999999963E+04  0.15000000000E+04  0.10566000000E+00 0.  1.
        994   -1    0    0    0    0 -0.00000000000E+00 -0.00000000000E+00  0.11368683772E-12  0.17120000000E+03  0.17120000000E+03 0.  0.
         13    1    1    2    0    0  0.33512500223E+02 -0.62305658896E+02  0.21678841723E+03  0.22804015394E+03  0.10566000000E+00 0.  1.
        994    1    1    2    0    0 -0.77245568442E+01  0.30968536889E+02  0.15586576179E+02  0.17484593336E+03  0.17120000000E+03 0.  0.
        998    1    1    2    0    0 -0.25787943379E+02  0.31337122007E+02  0.12676250029E+04  0.12683139127E+04  0.10000000000E+02 0.  1.
</event>
<event>
 5    1  0.1279376E-008  0.3830436E+03  0.7957747E-01  0.3438012E+00
         13   -1    0    0    0    0  0.00000000000E+00  0.00000000000E+00  0.14999999963E+04  0.15000000000E+04  0.10566000000E+00 0.  1.
        994   -1    0    0    0    0 -0.00000000000E+00 -0.00000000000E+00  0.11368683772E-12  0.17120000000E+03  0.17120000000E+03 0.  0.
         13    1    1    2    0    0  0.17257661177E+02 -0.15834042246E+01  0.59660318774E+02  0.62126474538E+02  0.10566000000E+00 0.  1.
        994    1    1    2    0    0 -0.25265184310E+01 -0.82359485451E+01  0.28502510423E+01  0.17144030470E+03  0.17120000000E+03 0.  0.
        998    1    1    2    0    0 -0.14731142746E+02  0.98193527697E+01  0.14374894265E+04  0.14376332208E+04  0.10000000000E+02 0.  1.
</event>
<event>
 5    1  0.1279376E-008  0.3842878E+03  0.7957747E-01  0.3432698E+00
         13   -1    0    0    0    0  0.00000000000E+00  0.00000000000E+00  0.14999999963E+04  0.15000000000E+04  0.10566000000E+00 0.  1.
        994   -1    0    0    0    0 -0.00000000000E+00 -0.00000000000E+00  0.11368683772E-12  0.17120000000E+03  0.17120000000E+03 0.  0.
         13    1    1    2    0    0  0.97672141024E+01 -0.27243753132E+01  0.25106687072E+02  0.27077252297E+02  0.10566000000E+00 0.  1.
        994    1    1    2    0    0 -0.98493480233E+01  0.89124697569E+00  0.23065744215E+01  0.17150091622E+03  0.17120000000E+03 0.  0.
        998    1    1    2    0    0  0.82133920933E-01  0.18331283375E+01  0.14725867348E+04  0.14726218315E+04  0.10000000000E+02 0.  1.
</event>
<event>
 5    1  0.1279376E-008  0.3778738E+03  0.7957747E-01  0.3460469E+00
         13   -1    0    0    0    0  0.00000000000E+00  0.00000000000E+00  0.14999999963E+04  0.15000000000E+04  0.10566000000E+00 0. -1.
        994   -1    0    0    0    0 -0.00000000000E+00 -0.00000000000E+00  0.11368683772E-12  0.17120000000E+03  0.17120000000E+03 0.  0.
         13    1    1    2    0    0 -0.10332162448E+02  0.60061651187E+01  0.11686043726E+02  0.16715333747E+02  0.10566000000E+00 0. -1.
        994    1    1    2    0    0 -0.11588102494E+01  0.29408822241E+01  0.52439598395E+01  0.17130945900E+03  0.17120000000E+03 0.  0.
        998    1    1    2    0    0  0.11490972698E+02 -0.89470473428E+01  0.14830699927E+04  0.14831752072E+04  0.10000000000E+02 0. -1.
</event>
<event>
 5    1  0.1279376E-008  0.3752748E+03  0.7957747E-01  0.3471995E+00
         13   -1    0    0    0    0  0.00000000000E+00  0.00000000000E+00  0.14999999963E+04  0.15000000000E+04  0.10566000000E+00 0.  1.
        994   -1    0    0    0    0 -0.00000000000E+00 -0.00000000000E+00  0.11368683772E-12  0.17120000000E+03  0.17120000000E+03 0.  0.
         13    1    1    2    0    0 -0.33187686445E+02 -0.19664782083E+01  0.77717515771E+02  0.84529953210E+02  0.10566000000E+00 0.  1.
        994    1    1    2    0    0  0.35260238533E+02  0.29777606973E+01  0.10801880809E+02  0.17515213989E+03  0.17120000000E+03 0.  0.
        998    1    1    2    0    0 -0.20725520880E+01 -0.10112824890E+01  0.14114805997E+04  0.14115179069E+04  0.10000000000E+02 0.  0.
</event>
<event>
 5    1  0.1279376E-008  0.3847426E+03  0.7957747E-01  0.3430765E+00
         13   -1    0    0    0    0  0.00000000000E+00  0.00000000000E+00  0.14999999963E+04  0.15000000000E+04  0.10566000000E+00 0.  1.
        994   -1    0    0    0    0 -0.00000000000E+00 -0.00000000000E+00  0.11368683772E-12  0.17120000000E+03  0.17120000000E+03 0.  0.
         13    1    1    2    0    0  0.12036830570E+02 -0.26133454284E+01  0.37646040591E+02  0.39609978550E+02  0.10566000000E+00 0.  1.
        994    1    1    2    0    0 -0.32036020224E+02  0.25125536060E+02  0.72329561666E+01  0.17612312400E+03  0.17120000000E+03 0.  0.
        998    1    1    2    0    0  0.19999189654E+02 -0.22512190631E+02  0.14551209995E+04  0.14554668974E+04  0.10000000000E+02 0.  1.
</event>
<event>
 5    1  0.1279376E-008  0.3707332E+03  0.7957747E-01  0.3492528E+00
         13   -1    0    0    0    0  0.00000000000E+00  0.00000000000E+00  0.14999999963E+04  0.15000000000E+04  0.10566000000E+00 0. -1.
        994   -1    0    0    0    0 -0.00000000000E+00 -0.00000000000E+00  0.11368683772E-12  0.17120000000E+03  0.17120000000E+03 0.  0.
         13    1    1    2    0    0  0.44025738093E+02 -0.41625182870E+02  0.20092896359E+03  0.20986514965E+03  0.10566000000E+00 0. -1.
        994    1    1    2    0    0  0.10621205483E+02 -0.57516918671E+01  0.11838564694E+02  0.17203337926E+03  0.17120000000E+03 0.  0.
        998    1    1    2    0    0 -0.54646943576E+02  0.47376874738E+02  0.12872324680E+04  0.12893014711E+04  0.10000000000E+02 0. -1.
</event>
<event>
 5    1  0.1279376E-008  0.3754389E+03  0.7957747E-01  0.3471262E+00
         13   -1    0    0    0    0  0.00000000000E+00  0.00000000000E+00  0.14999999963E+04  0.15000000000E+04  0.10566000000E+00 0. -1.
        994   -1    0    0    0    0 -0.00000000000E+00 -0.00000000000E+00  0.11368683772E-12  0.17120000000E+03  0.17120000000E+03 0.  0.
         13    1    1    2    0    0 -0.16759220137E+02 -0.40203270315E+01  0.19915896550E+02  0.26337968571E+02  0.10566000000E+00 0. -1.
        994    1    1    2    0    0  0.17259745810E+02  0.92585417061E+01  0.77566631458E+01  0.17249123237E+03  0.17120000000E+03 0.  0.
        998    1    1    2    0    0 -0.50052567311E+00 -0.52382146746E+01  0.14723274366E+04  0.14723707991E+04  0.10000000000E+02 0. -1.
</event>
<event>
 5    1  0.1279376E-008  0.3824521E+03  0.7957747E-01  0.3440551E+00
         13   -1    0    0    0    0  0.00000000000E+00  0.00000000000E+00  0.14999999963E+04  0.15000000000E+04  0.10566000000E+00 0. -1.
        994   -1    0    0    0    0 -0.00000000000E+00 -0.00000000000E+00  0.11368683772E-12  0.17120000000E+03  0.17120000000E+03 0.  0.
         13    1    1    2    0    0 -0.59163794832E+00  0.12174458692E+02  0.24409763317E+02  0.27283973118E+02  0.10566000000E+00 0. -1.
        994    1    1    2    0    0 -0.22326881239E+01 -0.10110892743E+02  0.32560669436E+01  0.17154374667E+03  0.17120000000E+03 0.  0.
        998    1    1    2    0    0  0.28243260722E+01 -0.20635659486E+01  0.14723341660E+04  0.14723722802E+04  0.10000000000E+02 0. -1.
</event>
<event>
 5    1  0.1279376E-008  0.3700161E+03  0.7957747E-01  0.3495817E+00
         13   -1    0    0    0    0  0.00000000000E+00  0.00000000000E+00  0.14999999963E+04  0.15000000000E+04  0.10566000000E+00 0. -1.
        994   -1    0    0    0    0 -0.00000000000E+00 -0.00000000000E+00  0.11368683772E-12  0.17120000000E+03  0.17120000000E+03 0.  0.
         13    1    1    2    0    0  0.10373777734E+01  0.10668216585E+02  0.11251927088E+00  0.10719646560E+02  0.10566000000E+00 0. -1.
        994    1    1    2    0    0  0.78763182995E+01 -0.11540860477E+02  0.11630175170E+02  0.17216250702E+03  0.17120000000E+03 0.  0.
        998    1    1    2    0    0 -0.89136960729E+01  0.87264389134E+00  0.14882573018E+04  0.14883178464E+04  0.10000000000E+02 0. -1.
</event>
<event>
 5    1  0.1279376E-008  0.3831787E+03  0.7957747E-01  0.3437434E+00
         13   -1    0    0    0    0  0.00000000000E+00  0.00000000000E+00  0.14999999963E+04  0.15000000000E+04  0.10566000000E+00 0.  1.
        994   -1    0    0    0    0 -0.00000000000E+00 -0.00000000000E+00  0.11368683772E-12  0.17120000000E+03  0.17120000000E+03 0.  0.
         13    1    1    2    0    0  0.15618586650E+02  0.28332185241E+02  0.19194957454E+03  0.19465688608E+03  0.10566000000E+00 0.  1.
        994    1    1    2    0    0  0.10569612310E+02 -0.37896086125E+02  0.76745275268E+01  0.17582994176E+03  0.17120000000E+03 0.  0.
        998    1    1    2    0    0 -0.26188198960E+02  0.95639008840E+01  0.13003758942E+04  0.13007131722E+04  0.10000000000E+02 0.  1.
</event>
<event>
 5    1  0.1279376E-008  0.3856135E+03  0.7957747E-01  0.3427074E+00
         13   -1    0    0    0    0  0.00000000000E+00  0.00000000000E+00  0.14999999963E+04  0.15000000000E+04  0.10566000000E+00 0.  1.
        994   -1    0    0    0    0 -0.00000000000E+00 -0.00000000000E+00  0.11368683772E-12  0.17120000000E+03  0.17120000000E+03 0.  0.
         13    1    1    2    0    0 -0.11593176059E+02 -0.12983037396E+02  0.10341360949E+03  0.10486823533E+03  0.10566000000E+00 0.  1.
        994    1    1    2    0    0  0.19875050206E+02  0.13519290727E+02  0.32245224080E+01  0.17290930104E+03  0.17120000000E+03 0.  0.
        998    1    1    2    0    0 -0.82818741469E+01 -0.53625333167E+00  0.13933618644E+04  0.13934224636E+04  0.10000000000E+02 0.  1.
</event>
<event>
 5    1  0.1279376E-008  0.3830321E+03  0.7957747E-01  0.3438062E+00
         13   -1    0    0    0    0  0.00000000000E+00  0.00000000000E+00  0.14999999963E+04  0.15000000000E+04  0.10566000000E+00 0. -1.
        994   -1    0    0    0    0 -0.00000000000E+00 -0.00000000000E+00  0.11368683772E-12  0.17120000000E+03  0.17120000000E+03 0.  0.
         13    1    1    2    0    0  0.64494730930E+01  0.21886780314E+02  0.88214866180E+02  0.91118058775E+02  0.10566000000E+00 0. -1.
        994    1    1    2    0    0 -0.19719922712E+02 -0.29742477701E+02  0.68367544095E+01  0.17501334676E+03  0.17120000000E+03 0.  0.
        998    1    1    2    0    0  0.13270449618E+02  0.78556973867E+01  0.14049483757E+04  0.14050685945E+04  0.10000000000E+02 0. -1.
</event>
<event>
 5    1  0.1279376E-008  0.3830831E+03  0.7957747E-01  0.3437843E+00
         13   -1    0    0    0    0  0.00000000000E+00  0.00000000000E+00  0.14999999963E+04  0.15000000000E+04  0.10566000000E+00 0.  1.
        994   -1    0    0    0    0 -0.00000000000E+00 -0.00000000000E+00  0.11368683772E-12  0.17120000000E+03  0.17120000000E+03 0.  0.
         13    1    1    2    0    0 -0.22252493036E+02 -0.12644635835E+02  0.11651216247E+03  0.11929021515E+03  0.10566000000E+00 0.  1.
        994    1    1    2    0    0  0.21539830914E+02  0.17045872813E+02  0.50857391742E+01  0.17346420622E+03  0.17120000000E+03 0.  0.
        998    1    1    2    0    0  0.71266212200E+00 -0.44012369781E+01  0.13784020946E+04  0.13784455786E+04  0.10000000000E+02 0.  1.
</event>
<event>
 5    1  0.1279376E-008  0.3817083E+03  0.7957747E-01  0.3443754E+00
         13   -1    0    0    0    0  0.00000000000E+00  0.00000000000E+00  0.14999999963E+04  0.15000000000E+04  0.10566000000E+00 0.  1.
        994   -1    0    0    0    0 -0.00000000000E+00 -0.00000000000E+00  0.11368683772E-12  0.17120000000E+03  0.17120000000E+03 0.  0.
         13    1    1    2    0    0 -0.19354289276E+02  0.53296926868E+01  0.60515588542E+02  0.63758464208E+02  0.10566000000E+00 0.  1.
        994    1    1    2    0    0  0.12603773778E+02 -0.19811172566E+01  0.38145986837E+01  0.17171712524E+03  0.17120000000E+03 0.  0.
        998    1    1    2    0    0  0.67505154976E+01 -0.33485754302E+01  0.14356698091E+04  0.14357244105E+04  0.10000000000E+02 0.  1.
</event>
<event>
 5    1  0.1279376E-008  0.3848682E+03  0.7957747E-01  0.3430231E+00
         13   -1    0    0    0    0  0.00000000000E+00  0.00000000000E+00  0.14999999963E+04  0.15000000000E+04  0.10566000000E+00 0. -1.
        994   -1    0    0    0    0 -0.00000000000E+00 -0.00000000000E+00  0.11368683772E-12  0.17120000000E+03  0.17120000000E+03 0.  0.
         13    1    1    2    0    0  0.11226908657E+02  0.13561544414E+02  0.96175631815E+02  0.97773832306E+02  0.10566000000E+00 0. -1.
        994    1    1    2    0    0  0.19841828595E+01 -0.76860389259E+01  0.19029137588E+01  0.17139449599E+03  0.17120000000E+03 0.  0.
        998    1    1    2    0    0 -0.13211091516E+02 -0.58755054885E+01  0.14019214507E+04  0.14020316717E+04  0.10000000000E+02 0. -1.
</event>
<event>
 5    1  0.1279376E-008  0.3685918E+03  0.7957747E-01  0.3502388E+00
         13   -1    0    0    0    0  0.00000000000E+00  0.00000000000E+00  0.14999999963E+04  0.15000000000E+04  0.10566000000E+00 0. -1.
        994   -1    0    0    0    0 -0.00000000000E+00 -0.00000000000E+00  0.11368683772E-12  0.17120000000E+03  0.17120000000E+03 0.  0.
         13    1    1    2    0    0 -0.22112537463E+02  0.77017581241E+01  0.22300287981E+02  0.32335667603E+02  0.10566000000E+00 0. -1.
        994    1    1    2    0    0  0.21487414709E+02 -0.60469930324E+01  0.11931453461E+02  0.17306089881E+03  0.17120000000E+03 0.  0.
        998    1    1    2    0    0  0.62512275441E+00 -0.16547650917E+01  0.14657682548E+04  0.14658034336E+04  0.10000000000E+02 0. -1.
</event>
<event>
 5    1  0.1279376E-008  0.3766659E+03  0.7957747E-01  0.3465806E+00
         13   -1    0    0    0    0  0.00000000000E+00  0.00000000000E+00  0.14999999963E+04  0.15000000000E+04  0.10566000000E+00 0.  1.
        994   -1    0    0    0    0 -0.00000000000E+00 -0.00000000000E+00  0.11368683772E-12  0.17120000000E+03  0.17120000000E+03 0.  0.
         13    1    1    2    0    0  0.28013759487E+02 -0.33149448744E+02  0.20140825813E+03  0.20603144003E+03  0.10566000000E+00 0.  1.
        994    1    1    2    0    0  0.15952268817E+02  0.77866168500E+00  0.66884115363E+01  0.17207340307E+03  0.17120000000E+03 0.  0.
        998    1    1    2    0    0 -0.43966028304E+02  0.32370787059E+02  0.12919033266E+04  0.12930951569E+04  0.10000000000E+02 0.  1.
</event>
<event>
 5    1  0.1279376E-008  0.3748292E+03  0.7957747E-01  0.3473987E+00
         13   -1    0    0    0    0  0.00000000000E+00  0.00000000000E+00  0.14999999963E+04  0.15000000000E+04  0.10566000000E+00 0. -1.
        994   -1    0    0    0    0 -0.00000000000E+00 -0.00000000000E+00  0.11368683772E-12  0.17120000000E+03  0.17120000000E+03 0.  0.
         13    1    1    2    0    0 -0.96882633618E+01  0.93090284252E+01  0.10285091589E+02  0.16920837161E+02  0.10566000000E+00 0. -1.
        994    1    1    2    0    0  0.12455028900E+02 -0.22872435811E+01  0.73120364988E+01  0.17182335437E+03  0.17120000000E+03 0.  0.
        998    1    1    2    0    0 -0.27667655381E+01 -0.70217848441E+01  0.14824028682E+04  0.14824558085E+04  0.10000000000E+02 0. -1.
</event>
<event>
 5    1  0.1279376E-008  0.2429909E+03  0.7957747E-01  0.4411498E+00
         13   -1    0    0    0    0  0.00000000000E+00  0.00000000000E+00  0.14999999963E+04  0.15000000000E+04  0.10566000000E+00 0.  1.
        994   -1    0    0    0    0 -0.00000000000E+00 -0.00000000000E+00  0.11368683772E-12  0.17120000000E+03  0.17120000000E+03 0.  0.
         13    1    1    2    0    0  0.25243748216E+02 -0.16196979209E+03  0.23231970286E+03  0.28433064533E+03  0.10566000000E+00 0.  1.
        994    1    1    2    0    0 -0.19910449232E+02  0.17015175023E+03  0.18670644834E+03  0.30580513721E+03  0.17120000000E+03 0.  0.
        998    1    1    2    0    0 -0.53332989849E+01 -0.81819581438E+01  0.10809738451E+04  0.10810642175E+04  0.10000000000E+02 0.  1.
</event>
<event>
 5    1  0.1279376E-008  0.3845937E+03  0.7957747E-01  0.3431397E+00
         13   -1    0    0    0    0  0.00000000000E+00  0.00000000000E+00  0.14999999963E+04  0.15000000000E+04  0.10566000000E+00 0. -1.
        994   -1    0    0    0    0 -0.00000000000E+00 -0.00000000000E+00  0.11368683772E-12  0.17120000000E+03  0.17120000000E+03 0.  0.
         13    1    1    2    0    0 -0.12764819417E+02  0.14002461451E+02  0.98541729334E+02  0.10034686405E+03  0.10566000000E+00 0. -1.
        994    1    1    2    0    0  0.12013407597E+02 -0.40560923784E+01  0.23615737838E+01  0.17168515043E+03  0.17120000000E+03 0.  0.
        998    1    1    2    0    0  0.75141181977E+00 -0.99463690724E+01  0.13990966932E+04  0.13991679855E+04  0.10000000000E+02 0. -1.
</event>
<event>
 5    1  0.1279376E-008  0.3838081E+03  0.7957747E-01  0.3434743E+00
         13   -1    0    0    0    0  0.00000000000E+00  0.00000000000E+00  0.14999999963E+04  0.15000000000E+04  0.10566000000E+00 0. -1.
        994   -1    0    0    0    0 -0.00000000000E+00 -0.00000000000E+00  0.11368683772E-12  0.17120000000E+03  0.17120000000E+03 0.  0.
         13    1    1    2    0    0 -0.14554591439E+02  0.55720165166E-01  0.46825447245E+02  0.49035425056E+02  0.10566000000E+00 0. -1.
        994    1    1    2    0    0  0.10917368642E+02 -0.30907173627E+01  0.26482000875E+01  0.17159602104E+03  0.17120000000E+03 0.  0.
        998    1    1    2    0    0  0.36372227977E+01  0.30349971975E+01  0.14505263489E+04  0.14505685539E+04  0.10000000000E+02 0. -1.
</event>
<event>
 5    1  0.1279376E-008  0.3806515E+03  0.7957747E-01  0.3448326E+00
         13   -1    0    0    0    0  0.00000000000E+00  0.00000000000E+00  0.14999999963E+04  0.15000000000E+04  0.10566000000E+00 0.  1.
        994   -1    0    0    0    0 -0.00000000000E+00 -0.00000000000E+00  0.11368683772E-12  0.17120000000E+03  0.17120000000E+03 0.  0.
         13    1    1    2    0    0 -0.64770380308E+02  0.28734170227E+02  0.13907290576E+03  0.15608375632E+03  0.10566000000E+00 0.  1.
        994    1    1    2    0    0  0.69849214829E+02  0.15882854312E+02  0.35568715127E+02  0.18895965540E+03  0.17120000000E+03 0.  0.
        998    1    1    2    0    0 -0.50788345213E+01 -0.44617024539E+02  0.13253583754E+04  0.13261565883E+04  0.10000000000E+02 0.  1.
</event>
<event>
 5    1  0.1279376E-008  0.3762716E+03  0.7957747E-01  0.3467555E+00
         13   -1    0    0    0    0  0.00000000000E+00  0.00000000000E+00  0.14999999963E+04  0.15000000000E+04  0.10566000000E+00 0.  1.
        994   -1    0    0    0    0 -0.00000000000E+00 -0.00000000000E+00  0.11368683772E-12  0.17120000000E+03  0.17120000000E+03 0.  0.
         13    1    1    2    0    0 -0.28355543261E+02 -0.15801515190E+02  0.30140548715E+02  0.44296597576E+02  0.10566000000E+00 0.  1.
        994    1    1    2    0    0  0.30945387189E+02  0.20132388860E+02  0.19181907847E+02  0.17618262019E+03  0.17120000000E+03 0.  0.
        998    1    1    2    0    0 -0.25898439274E+01 -0.43308736698E+01  0.14506775397E+04  0.14507207822E+04  0.10000000000E+02 0.  1.
</event>
<event>
 5    1  0.1279376E-008  0.3816983E+03  0.7957747E-01  0.3443797E+00
         13   -1    0    0    0    0  0.00000000000E+00  0.00000000000E+00  0.14999999963E+04  0.15000000000E+04  0.10566000000E+00 0.  1.
        994   -1    0    0    0    0 -0.00000000000E+00 -0.00000000000E+00  0.11368683772E-12  0.17120000000E+03  0.17120000000E+03 0.  0.
         13    1    1    2    0    0 -0.34904562942E+02 -0.84510464190E+02  0.19588101833E+03  0.21617060757E+03  0.10566000000E+00 0.  1.
        994    1    1    2    0    0  0.38965622763E+02  0.94022115861E+02  0.56087194911E+02  0.20691469610E+03  0.17120000000E+03 0.  0.
        998    1    1    2    0    0 -0.40610598209E+01 -0.95116516704E+01  0.12480317830E+04  0.12481146963E+04  0.10000000000E+02 0.  1.
</event>
<event>
 5    1  0.1279376E-008  0.3852530E+03  0.7957747E-01  0.3428600E+00
         13   -1    0    0    0    0  0.00000000000E+00  0.00000000000E+00  0.14999999963E+04  0.15000000000E+04  0.10566000000E+00 0.  1.
        994   -1    0    0    0    0 -0.00000000000E+00 -0.00000000000E+00  0.11368683772E-12  0.17120000000E+03  0.17120000000E+03 0.  0.
         13    1    1    2    0    0 -0.61135860251E+01 -0.14681292336E+02  0.79656907930E+02  0.81228999894E+02  0.10566000000E+00 0.  1.
        994    1    1    2    0    0  0.14053089959E+02  0.13921972217E+02  0.27914595969E+01  0.17236166306E+03  0.17120000000E+03 0.  0.
        998    1    1    2    0    0 -0.79395039339E+01  0.75932011952E+00  0.14175516288E+04  0.14176093370E+04  0.10000000000E+02 0.  1.
</event>
<event>
 5    1  0.1279376E-008  0.3853393E+03  0.7957747E-01  0.3428235E+00
         13   -1    0    0    0    0  0.00000000000E+00  0.00000000000E+00  0.14999999963E+04  0.15000000000E+04  0.10566000000E+00 0.  1.
        994   -1    0    0    0    0 -0.00000000000E+00 -0.00000000000E+00  0.11368683772E-12  0.17120000000E+03  0.17120000000E+03 0.  0.
         13    1    1    2    0    0 -0.13632201867E+01  0.15122384513E+02  0.89455188306E+02  0.90734705386E+02  0.10566000000E+00 0.  1.
        994    1    1    2    0    0  0.46926301671E+01  0.58013193210E+01  0.16447133165E+01  0.17137042092E+03  0.17120000000E+03 0.  0.
        998    1    1    2    0    0 -0.33294099804E+01 -0.20923703834E+02  0.14089000947E+04  0.14090948737E+04  0.10000000000E+02 0.  1.
</event>
<event>
 5    1  0.1279376E-008  0.3800114E+03  0.7957747E-01  0.3451109E+00
         13   -1    0    0    0    0  0.00000000000E+00  0.00000000000E+00  0.14999999963E+04  0.15000000000E+04  0.10566000000E+00 0.  1.
        994   -1    0    0    0    0 -0.00000000000E+00 -0.00000000000E+00  0.11368683772E-12  0.17120000000E+03  0.17120000000E+03 0.  0.
         13    1    1    2    0    0  0.79024846520E+02  0.73328632131E+01  0.46699181540E+03  0.47368772843E+03  0.10566000000E+00 0.  1.
        994    1    1    2    0    0 -0.86993202652E+02 -0.22113865825E+02  0.31547599129E+02  0.19586100015E+03  0.17120000000E+03 0.  0.
        998    1    1    2    0    0  0.79683561317E+01  0.14781002612E+02  0.10014605818E+04  0.10016512714E+04  0.10000000000E+02 0.  1.
</event>
<event>
 5    1  0.1279376E-008  0.3776022E+03  0.7957747E-01  0.3461666E+00
         13   -1    0    0    0    0  0.00000000000E+00  0.00000000000E+00  0.14999999963E+04  0.15000000000E+04  0.10566000000E+00 0.  1.
        994   -1    0    0    0    0 -0.00000000000E+00 -0.00000000000E+00  0.11368683772E-12  0.17120000000E+03  0.17120000000E+03 0.  0.
         13    1    1    2    0    0  0.93461127493E+02  0.13639613664E+03  0.45176736872E+03  0.48107447973E+03  0.10566000000E+00 0.  1.
        994    1    1    2    0    0 -0.72821332478E+02 -0.18700201791E+03  0.17823349760E+03  0.31835408091E+03  0.17120000000E+03 0.  0.
        998    1    1    2    0    0 -0.20639795016E+02  0.50605881268E+02  0.86999912995E+03  0.87177143935E+03  0.10000000000E+02 0.  1.
</event>
<event>
 5    1  0.1279376E-008  0.3747637E+03  0.7957747E-01  0.3474280E+00
         13   -1    0    0    0    0  0.00000000000E+00  0.00000000000E+00  0.14999999963E+04  0.15000000000E+04  0.10566000000E+00 0. -1.
        994   -1    0    0    0    0 -0.00000000000E+00 -0.00000000000E+00  0.11368683772E-12  0.17120000000E+03  0.17120000000E+03 0.  0.
         13    1    1    2    0    0 -0.30101027602E+02 -0.13771205083E+02  0.81066012677E+02  0.87563848291E+02  0.10566000000E+00 0. -1.
        994    1    1    2    0    0 -0.39719758955E+01  0.35730616276E+02  0.11209596989E+02  0.17529275112E+03  0.17120000000E+03 0.  0.
        998    1    1    2    0    0  0.34073003497E+02 -0.21959411193E+02  0.14077243866E+04  0.14083434006E+04  0.10000000000E+02 0. -1.
</event>
<event>
 5    1  0.1279376E-008  0.3787425E+03  0.7957747E-01  0.3456652E+00
         13   -1    0    0    0    0  0.00000000000E+00  0.00000000000E+00  0.14999999963E+04  0.15000000000E+04  0.10566000000E+00 0. -1.
        994   -1    0    0    0    0 -0.00000000000E+00 -0.00000000000E+00  0.11368683772E-12  0.17120000000E+03  0.17120000000E+03 0.  0.
         13    1    1    2    0    0 -0.17446066763E+02  0.34543731778E+01  0.31543333479E+02  0.36211752106E+02  0.10566000000E+00 0. -1.
        994    1    1    2    0    0  0.77370428120E+01 -0.64951219875E+01  0.51118985189E+01  0.17157394892E+03  0.17120000000E+03 0.  0.
        998    1    1    2    0    0  0.97090239506E+01  0.30407488096E+01  0.14633447643E+04  0.14634142990E+04  0.10000000000E+02 0. -1.
</event>
<event>
 5    1  0.1279376E-008  0.2908336E+03  0.7957747E-01  0.3963713E+00
         13   -1    0    0    0    0  0.00000000000E+00  0.00000000000E+00  0.14999999963E+04  0.15000000000E+04  0.10566000000E+00 0.  1.
        994   -1    0    0    0    0 -0.00000000000E+00 -0.00000000000E+00  0.11368683772E-12  0.17120000000E+03  0.17120000000E+03 0.  0.
         13    1    1    2    0    0  0.15963390082E+03 -0.39238858439E+02  0.63848183336E+03  0.65930397617E+03  0.10566000000E+00 0.  1.
        994    1    1    2    0    0 -0.15295802814E+03 -0.16820728763E+02  0.10465780764E+03  0.25286714296E+03  0.17120000000E+03 0.  0.
        998    1    1    2    0    0 -0.66758726804E+01  0.56059587202E+02  0.75686035528E+03  0.75902888087E+03  0.10000000000E+02 0.  1.
</event>
<event>
 5    1  0.1279376E-008  0.3852518E+03  0.7957747E-01  0.3428605E+00
         13   -1    0    0    0    0  0.00000000000E+00  0.00000000000E+00  0.14999999963E+04  0.15000000000E+04  0.10566000000E+00 0.  1.
        994   -1    0    0    0    0 -0.00000000000E+00 -0.00000000000E+00  0.11368683772E-12  0.17120000000E+03  0.17120000000E+03 0.  0.
         13    1    1    2    0    0 -0.50548794271E+01  0.14680615229E+02  0.76512184488E+02  0.78071747826E+02  0.10566000000E+00 0.  1.
        994    1    1    2    0    0  0.64331542433E+01 -0.15724592188E+02  0.24542507765E+01  0.17205845408E+03  0.17120000000E+03 0.  0.
        998    1    1    2    0    0 -0.13782748162E+01  0.10439769589E+01  0.14210335610E+04  0.14210697981E+04  0.10000000000E+02 0.  1.
</event>
<event>
 5    1  0.1279376E-008  0.3846409E+03  0.7957747E-01  0.3431196E+00
         13   -1    0    0    0    0  0.00000000000E+00  0.00000000000E+00  0.14999999963E+04  0.15000000000E+04  0.10566000000E+00 0. -1.
        994   -1    0    0    0    0 -0.00000000000E+00 -0.00000000000E+00  0.11368683772E-12  0.17120000000E+03  0.17120000000E+03 0.  0.
         13    1    1    2    0    0 -0.79930606372E+01 -0.94310940060E+01  0.42619964297E+02  0.44376875433E+02  0.10566000000E+00 0. -1.
        994    1    1    2    0    0  0.61780536055E+01  0.17177903413E+01  0.19439078660E+01  0.17133107695E+03  0.17120000000E+03 0.  0.
        998    1    1    2    0    0  0.18150070318E+01  0.77133036646E+01  0.14554361241E+04  0.14554920476E+04  0.10000000000E+02 0. -1.
</event>
<event>
 5    1  0.1279376E-008  0.3704432E+03  0.7957747E-01  0.3493857E+00
         13   -1    0    0    0    0  0.00000000000E+00  0.00000000000E+00  0.14999999963E+04  0.15000000000E+04  0.10566000000E+00 0.  1.
        994   -1    0    0    0    0 -0.00000000000E+00 -0.00000000000E+00  0.11368683772E-12  0.17120000000E+03  0.17120000000E+03 0.  0.
         13    1    1    2    0    0  0.72635088048E+02  0.47836222557E+02  0.38416796942E+03  0.39388983243E+03  0.10566000000E+00 0.  1.
        994    1    1    2    0    0 -0.62417197955E+02 -0.15933191188E+02  0.23503595889E+02  0.18442242868E+03  0.17120000000E+03 0.  0.
        998    1    1    2    0    0 -0.10217890092E+02 -0.31903031369E+02  0.10923284310E+04  0.10928877389E+04  0.10000000000E+02 0.  1.
</event>
<event>
 5    1  0.1279376E-008  0.3808106E+03  0.7957747E-01  0.3447637E+00
         13   -1    0    0    0    0  0.00000000000E+00  0.00000000000E+00  0.14999999963E+04  0.15000000000E+04  0.10566000000E+00 0.  1.
        994   -1    0    0    0    0 -0.00000000000E+00 -0.00000000000E+00  0.11368683772E-12  0.17120000000E+03  0.17120000000E+03 0.  0.
         13    1    1    2    0    0  0.10625527399E+02 -0.28883394010E+01  0.14714582866E+02  0.18378641135E+02  0.10566000000E+00 0.  1.
        994    1    1    2    0    0 -0.11057882294E+02 -0.13237096811E+02  0.47170069535E+01  0.17213130932E+03  0.17120000000E+03 0.  0.
        998    1    1    2    0    0  0.43235489441E+00  0.16125436212E+02  0.14805684065E+04  0.14806900495E+04  0.10000000000E+02 0.  1.
</event>
<event>
 5    1  0.1279376E-008  0.3793932E+03  0.7957747E-01  0.3453805E+00
         13   -1    0    0    0    0  0.00000000000E+00  0.00000000000E+00  0.14999999963E+04  0.15000000000E+04  0.10566000000E+00 0.  1.
        994   -1    0    0    0    0 -0.00000000000E+00 -0.00000000000E+00  0.11368683772E-12  0.17120000000E+03  0.17120000000E+03 0.  0.
         13    1    1    2    0    0 -0.43343342316E+01 -0.27322837776E+02  0.80592773793E+02  0.85208745261E+02  0.10566000000E+00 0.  1.
        994    1    1    2    0    0  0.18399705923E+01  0.28045957192E+02  0.70903744728E+01  0.17363661658E+03  0.17120000000E+03 0.  0.
        998    1    1    2    0    0  0.24943636393E+01 -0.72311941571E+00  0.14123168480E+04  0.14123546382E+04  0.10000000000E+02 0.  1.
</event>
<event>
 5    1  0.1279376E-008  0.3837208E+03  0.7957747E-01  0.3435116E+00
         13   -1    0    0    0    0  0.00000000000E+00  0.00000000000E+00  0.14999999963E+04  0.15000000000E+04  0.10566000000E+00 0. -1.
        994   -1    0    0    0    0 -0.00000000000E+00 -0.00000000000E+00  0.11368683772E-12  0.17120000000E+03  0.17120000000E+03 0.  0.
         13    1    1    2    0    0  0.73530863833E+01  0.18051030160E+02  0.81680951797E+02  0.83974380734E+02  0.10566000000E+00 0. -1.
        994    1    1    2    0    0 -0.64813611806E+01 -0.14218064610E+02  0.30732910754E+01  0.17193907794E+03  0.17120000000E+03 0.  0.
        998    1    1    2    0    0 -0.87172520269E+00 -0.38329655501E+01  0.14152457534E+04  0.14152865413E+04  0.10000000000E+02 0. -1.
</event>
<event>
 5    1  0.1279376E-008  0.3715246E+03  0.7957747E-01  0.3488913E+00
         13   -1    0    0    0    0  0.00000000000E+00  0.00000000000E+00  0.14999999963E+04  0.15000000000E+04  0.10566000000E+00 0.  1.
        994   -1    0    0    0    0 -0.00000000000E+00 -0.00000000000E+00  0.11368683772E-12  0.17120000000E+03  0.17120000000E+03 0.  0.
         13    1    1    2    0    0  0.40669921104E+02 -0.28480018745E+01  0.64738377596E+02  0.76506354605E+02  0.10566000000E+00 0.  1.
        994    1    1    2    0    0 -0.36178227142E+02 -0.21484300438E+01  0.16377919006E+02  0.17575880092E+03  0.17120000000E+03 0.  0.
        998    1    1    2    0    0 -0.44916939619E+01  0.49964319182E+01  0.14188836997E+04  0.14189348445E+04  0.10000000000E+02 0.  1.
</event>
<event>
 5    1  0.1279376E-008  0.3774528E+03  0.7957747E-01  0.3462325E+00
         13   -1    0    0    0    0  0.00000000000E+00  0.00000000000E+00  0.14999999963E+04  0.15000000000E+04  0.10566000000E+00 0.  1.
        994   -1    0    0    0    0 -0.00000000000E+00 -0.00000000000E+00  0.11368683772E-12  0.17120000000E+03  0.17120000000E+03 0.  0.
         13    1    1    2    0    0  0.17867735745E+03 -0.83260040279E+02  0.75443658342E+03  0.77976432461E+03  0.10566000000E+00 0.  1.
        994    1    1    2    0    0 -0.20225920872E+03  0.11192317074E+03  0.21410500206E+03  0.35858886704E+03  0.17120000000E+03 0.  0.
        998    1    1    2    0    0  0.23581851270E+02 -0.28663130460E+02  0.53145841080E+03  0.53284680835E+03  0.10000000000E+02 0.  1.
</event>
<event>
 5    1  0.1279376E-008  0.3793358E+03  0.7957747E-01  0.3454055E+00
         13   -1    0    0    0    0  0.00000000000E+00  0.00000000000E+00  0.14999999963E+04  0.15000000000E+04  0.10566000000E+00 0. -1.
        994   -1    0    0    0    0 -0.00000000000E+00 -0.00000000000E+00  0.11368683772E-12  0.17120000000E+03  0.17120000000E+03 0.  0.
         13    1    1    2    0    0  0.35914324103E+02 -0.80594930332E+01  0.15207604631E+03  0.15646702249E+03  0.10566000000E+00 0. -1.
        994    1    1    2    0    0 -0.19510267639E+02  0.19228141808E+01  0.57575047674E+01  0.17241501274E+03  0.17120000000E+03 0.  0.
        998    1    1    2    0    0 -0.16404056463E+02  0.61366788523E+01  0.13421664452E+04  0.13423179648E+04  0.10000000000E+02 0. -1.
</event>
<event>
 5    1  0.1279376E-008  0.3705914E+03  0.7957747E-01  0.3493177E+00
         13   -1    0    0    0    0  0.00000000000E+00  0.00000000000E+00  0.14999999963E+04  0.15000000000E+04  0.10566000000E+00 0.  1.
        994   -1    0    0    0    0 -0.00000000000E+00 -0.00000000000E+00  0.11368683772E-12  0.17120000000E+03  0.17120000000E+03 0.  0.
         13    1    1    2    0    0 -0.10307539684E+03 -0.71503007227E+02  0.50285195995E+03  0.51826375743E+03  0.10566000000E+00 0.  1.
        994    1    1    2    0    0  0.70711008301E+02  0.99792318737E+02  0.65665234018E+02  0.22040852191E+03  0.17120000000E+03 0.  0.
        998    1    1    2    0    0  0.32364388538E+02 -0.28289311510E+02  0.93148280231E+03  0.93252772066E+03  0.10000000000E+02 0.  1.
</event>
<event>
 5    1  0.1279376E-008  0.3729329E+03  0.7957747E-01  0.3482520E+00
         13   -1    0    0    0    0  0.00000000000E+00  0.00000000000E+00  0.14999999963E+04  0.15000000000E+04  0.10566000000E+00 0.  1.
        994   -1    0    0    0    0 -0.00000000000E+00 -0.00000000000E+00  0.11368683772E-12  0.17120000000E+03  0.17120000000E+03 0.  0.
         13    1    1    2    0    0  0.64408543647E+01 -0.96287302776E+01 -0.46252030064E+00  0.11594056269E+02  0.10566000000E+00 0.  1.
        994    1    1    2    0    0  0.31021063381E+01  0.15416028648E+02  0.13371998236E+02  0.17243992386E+03  0.17120000000E+03 0.  0.
        998    1    1    2    0    0 -0.95429607028E+01 -0.57872983703E+01  0.14870905183E+04  0.14871660199E+04  0.10000000000E+02 0.  1.
</event>
<event>
 5    1  0.1279376E-008  0.3813856E+03  0.7957747E-01  0.3445148E+00
         13   -1    0    0    0    0  0.00000000000E+00  0.00000000000E+00  0.14999999963E+04  0.15000000000E+04  0.10566000000E+00 0. -1.
        994   -1    0    0    0    0 -0.00000000000E+00 -0.00000000000E+00  0.11368683772E-12  0.17120000000E+03  0.17120000000E+03 0.  0.
         13    1    1    2    0    0 -0.12409412584E+02 -0.53306812161E+01  0.25431855178E+02  0.28795834850E+02  0.10566000000E+00 0. -1.
        994    1    1    2    0    0  0.86041375976E+01 -0.37526647435E+01  0.37286247085E+01  0.17149768604E+03  0.17120000000E+03 0.  0.
        998    1    1    2    0    0  0.38052749864E+01  0.90833459596E+01  0.14708395164E+04  0.14709064791E+04  0.10000000000E+02 0. -1.
</event>
<event>
 5    1  0.1279376E-008  0.3839481E+03  0.7957747E-01  0.3434146E+00
         13   -1    0    0    0    0  0.00000000000E+00  0.00000000000E+00  0.14999999963E+04  0.15000000000E+04  0.10566000000E+00 0.  1.
        994   -1    0    0    0    0 -0.00000000000E+00 -0.00000000000E+00  0.11368683772E-12  0.17120000000E+03  0.17120000000E+03 0.  0.
         13    1    1    2    0    0 -0.57147062692E+01  0.21753386437E+02  0.10347878317E+03  0.10589493576E+03  0.10566000000E+00 0.  1.
        994    1    1    2    0    0 -0.10608928721E+02 -0.36260510300E+02  0.68777429015E+01  0.17545403194E+03  0.17120000000E+03 0.  0.
        998    1    1    2    0    0  0.16323634991E+02  0.14507123863E+02  0.13896434702E+04  0.13898510323E+04  0.10000000000E+02 0.  1.
</event>
<event>
 5    1  0.1279376E-008  0.3740554E+03  0.7957747E-01  0.3477458E+00
         13   -1    0    0    0    0  0.00000000000E+00  0.00000000000E+00  0.14999999963E+04  0.15000000000E+04  0.10566000000E+00 0. -1.
        994   -1    0    0    0    0 -0.00000000000E+00 -0.00000000000E+00  0.11368683772E-12  0.17120000000E+03  0.17120000000E+03 0.  0.
         13    1    1    2    0    0  0.43745053129E+02  0.26003952025E+02  0.20946495079E+03  0.21555837252E+03  0.10566000000E+00 0. -1.
        994    1    1    2    0    0 -0.75645086616E+01  0.62906862064E+01  0.74947607918E+01  0.17164616501E+03  0.17120000000E+03 0.  0.
        998    1    1    2    0    0 -0.36180544467E+02 -0.32294638232E+02  0.12830402847E+04  0.12839954625E+04  0.10000000000E+02 0. -1.
</event>
<event>
 5    1  0.1279376E-008  0.3790542E+03  0.7957747E-01  0.3455287E+00
         13   -1    0    0    0    0  0.00000000000E+00  0.00000000000E+00  0.14999999963E+04  0.15000000000E+04  0.10566000000E+00 0.  1.
        994   -1    0    0    0    0 -0.00000000000E+00 -0.00000000000E+00  0.11368683772E-12  0.17120000000E+03  0.17120000000E+03 0.  0.
         13    1    1    2    0    0  0.13187872609E+02 -0.22746013809E+01  0.17375195269E+02  0.21931766232E+02  0.10566000000E+00 0.  1.
        994    1    1    2    0    0 -0.10549642367E+02  0.44930766425E+01  0.50523690047E+01  0.17165794221E+03  0.17120000000E+03 0.  0.
        998    1    1    2    0    0 -0.26382302420E+01 -0.22184752616E+01  0.14775724320E+04  0.14776102916E+04  0.10000000000E+02 0.  1.
</event>
<event>
 5    1  0.1279376E-008  0.3702760E+03  0.7957747E-01  0.3494623E+00
         13   -1    0    0    0    0  0.00000000000E+00  0.00000000000E+00  0.14999999963E+04  0.15000000000E+04  0.10566000000E+00 0.  1.
        994   -1    0    0    0    0 -0.00000000000E+00 -0.00000000000E+00  0.11368683772E-12  0.17120000000E+03  0.17120000000E+03 0.  0.
         13    1    1    2    0    0 -0.69422709308E+01 -0.35396532267E+02  0.63082177300E+02  0.72666924244E+02  0.10566000000E+00 0.  1.
        994    1    1    2    0    0  0.13424305006E+02 -0.29063688629E+02  0.14679779156E+02  0.17478514204E+03  0.17120000000E+03 0.  0.
        998    1    1    2    0    0 -0.64820340748E+01  0.64460220896E+02  0.14222380398E+04  0.14237479337E+04  0.10000000000E+02 0.  1.
</event>
<event>
 5    1  0.1279376E-008  0.3855448E+03  0.7957747E-01  0.3427365E+00
         13   -1    0    0    0    0  0.00000000000E+00  0.00000000000E+00  0.14999999963E+04  0.15000000000E+04  0.10566000000E+00 0. -1.
        994   -1    0    0    0    0 -0.00000000000E+00 -0.00000000000E+00  0.11368683772E-12  0.17120000000E+03  0.17120000000E+03 0.  0.
         13    1    1    2    0    0 -0.12520066659E+00 -0.12080213898E+02  0.52386824893E+02  0.53761862220E+02  0.10566000000E+00 0. -1.
        994    1    1    2    0    0 -0.70642590186E-01  0.12826963447E+02  0.19002048338E+01  0.17169038051E+03  0.17120000000E+03 0.  0.
        998    1    1    2    0    0  0.19584325678E+00 -0.74674954850E+00  0.14457129666E+04  0.14457477573E+04  0.10000000000E+02 0. -1.
</event>
<event>
 5    1  0.1279376E-008  0.3852919E+03  0.7957747E-01  0.3428435E+00
         13   -1    0    0    0    0  0.00000000000E+00  0.00000000000E+00  0.14999999963E+04  0.15000000000E+04  0.10566000000E+00 0. -1.
        994   -1    0    0    0    0 -0.00000000000E+00 -0.00000000000E+00  0.11368683772E-12  0.17120000000E+03  0.17120000000E+03 0.  0.
         13    1    1    2    0    0 -0.16495714998E+02  0.10596290467E+01  0.95122239187E+02  0.96547827417E+02  0.10566000000E+00 0. -1.
        994    1    1    2    0    0  0.72404820507E+01  0.50612652513E+01  0.17417111522E+01  0.17143661961E+03  0.17120000000E+03 0.  0.
        998    1    1    2    0    0  0.92552329475E+01 -0.61208942980E+01  0.14031360459E+04  0.14032155530E+04  0.10000000000E+02 0. -1.
</event>
<event>
 5    1  0.1279376E-008  0.4508399E+03  0.7957747E-01  0.3190883E+00
         13   -1    0    0    0    0  0.00000000000E+00  0.00000000000E+00  0.14999999963E+04  0.15000000000E+04  0.10566000000E+00 0.  1.
        994   -1    0    0    0    0 -0.00000000000E+00 -0.00000000000E+00  0.11368683772E-12  0.17120000000E+03  0.17120000000E+03 0.  0.
         13    1    1    2    0    0  0.57729709359E+02 -0.14045036215E+02  0.58970335419E+01  0.59705682758E+02  0.10566000000E+00 0.  1.
        994    1    1    2    0    0 -0.65658316795E+02  0.14251954104E+02  0.85467533352E+02  0.20280106513E+03  0.17120000000E+03 0.  0.
        998    1    1    2    0    0  0.79286074360E+01 -0.20691788853E+00  0.14086354294E+04  0.14086932521E+04  0.10000000000E+02 0.  1.
</event>
<event>
 5    1  0.1279376E-008  0.3842424E+03  0.7957747E-01  0.3432892E+00
         13   -1    0    0    0    0  0.00000000000E+00  0.00000000000E+00  0.14999999963E+04  0.15000000000E+04  0.10566000000E+00 0. -1.
        994   -1    0    0    0    0 -0.00000000000E+00 -0.00000000000E+00  0.11368683772E-12  0.17120000000E+03  0.17120000000E+03 0.  0.
         13    1    1    2    0    0  0.13688143439E+02  0.50938503714E+01  0.53238875501E+02  0.55205992529E+02  0.10566000000E+00 0. -1.
        994    1    1    2    0    0 -0.56543494390E+01 -0.78808720459E+01  0.23169558770E+01  0.17149019825E+03  0.17120000000E+03 0.  0.
        998    1    1    2    0    0 -0.80337939996E+01  0.27870216745E+01  0.14444441649E+04  0.14445038092E+04  0.10000000000E+02 0. -1.
</event>
<event>
 5    1  0.1279376E-008  0.3712093E+03  0.7957747E-01  0.3490352E+00
         13   -1    0    0    0    0  0.00000000000E+00  0.00000000000E+00  0.14999999963E+04  0.15000000000E+04  0.10566000000E+00 0. -1.
        994   -1    0    0    0    0 -0.00000000000E+00 -0.00000000000E+00  0.11368683772E-12  0.17120000000E+03  0.17120000000E+03 0.  0.
         13    1    1    2    0    0  0.66756366474E+00 -0.11197739774E+02  0.32796240343E+01  0.11687690753E+02  0.10566000000E+00 0. -1.
        994    1    1    2    0    0 -0.56385627342E+01  0.78765141011E+01  0.89615199234E+01  0.17170783821E+03  0.17120000000E+03 0.  0.
        998    1    1    2    0    0  0.49709990694E+01  0.33212256733E+01  0.14877588523E+04  0.14878044710E+04  0.10000000000E+02 0. -1.
</event>
<event>
 5    1  0.1279376E-008  0.3829955E+03  0.7957747E-01  0.3438218E+00
         13   -1    0    0    0    0  0.00000000000E+00  0.00000000000E+00  0.14999999963E+04  0.15000000000E+04  0.10566000000E+00 0.  1.
        994   -1    0    0    0    0 -0.00000000000E+00 -0.00000000000E+00  0.11368683772E-12  0.17120000000E+03  0.17120000000E+03 0.  0.
         13    1    1    2    0    0 -0.21599410632E+01  0.10315904541E+02  0.19790324791E+02  0.22422117457E+02  0.10566000000E+00 0.  1.
        994    1    1    2    0    0  0.63111438175E+01 -0.12230935880E+02  0.32559157423E+01  0.17178319859E+03  0.17120000000E+03 0.  0.
        998    1    1    2    0    0 -0.41512027543E+01  0.19150313392E+01  0.14769537557E+04  0.14769946840E+04  0.10000000000E+02 0.  1.
</event>
<event>
 5    1  0.1279376E-008  0.3721404E+03  0.7957747E-01  0.3486112E+00
         13   -1    0    0    0    0  0.00000000000E+00  0.00000000000E+00  0.14999999963E+04  0.15000000000E+04  0.10566000000E+00 0. -1.
        994   -1    0    0    0    0 -0.00000000000E+00 -0.00000000000E+00  0.11368683772E-12  0.17120000000E+03  0.17120000000E+03 0.  0.
         13    1    1    2    0    0 -0.13528156340E+00 -0.10903067279E+02  0.34661200408E+01  0.11442042185E+02  0.10566000000E+00 0. -1.
        994    1    1    2    0    0  0.14758115743E+02  0.11224204876E+02  0.93354387702E+01  0.17245397987E+03  0.17120000000E+03 0.  0.
        998    1    1    2    0    0 -0.14622834179E+02 -0.32113759692E+00  0.14871984375E+04  0.14873039779E+04  0.10000000000E+02 0. -1.
</event>
<event>
 5    1  0.1279376E-008  0.3881966E+03  0.7957747E-01  0.3416227E+00
         13   -1    0    0    0    0  0.00000000000E+00  0.00000000000E+00  0.14999999963E+04  0.15000000000E+04  0.10566000000E+00 0. -1.
        994   -1    0    0    0    0 -0.00000000000E+00 -0.00000000000E+00  0.11368683772E-12  0.17120000000E+03  0.17120000000E+03 0.  0.
         13    1    1    2    0    0  0.82736722560E+01  0.95615162144E+02  0.25279052455E+03  0.27039558678E+03  0.10566000000E+00 0. -1.
        994    1    1    2    0    0  0.12896786699E+02 -0.24061699741E+02  0.23693838066E+02  0.17497465663E+03  0.17120000000E+03 0.  0.
        998    1    1    2    0    0 -0.21170458955E+02 -0.71553462403E+02  0.12235156337E+04  0.12258297566E+04  0.10000000000E+02 0. -1.
</event>
<event>
 5    1  0.1279376E-008  0.3859134E+03  0.7957747E-01  0.3425807E+00
         13   -1    0    0    0    0  0.00000000000E+00  0.00000000000E+00  0.14999999963E+04  0.15000000000E+04  0.10566000000E+00 0. -1.
        994   -1    0    0    0    0 -0.00000000000E+00 -0.00000000000E+00  0.11368683772E-12  0.17120000000E+03  0.17120000000E+03 0.  0.
         13    1    1    2    0    0 -0.12695841503E+02  0.12008075923E+01  0.67122952728E+02  0.68323702163E+02  0.10566000000E+00 0. -1.
        994    1    1    2    0    0  0.14100202994E+02  0.35968898840E+01  0.18719397277E+01  0.17182752253E+03  0.17120000000E+03 0.  0.
        998    1    1    2    0    0 -0.14043614914E+01 -0.47976974764E+01  0.14310051038E+04  0.14310487753E+04  0.10000000000E+02 0. -1.
</event>
<event>
 5    1  0.1279376E-008  0.3837951E+03  0.7957747E-01  0.3434798E+00
         13   -1    0    0    0    0  0.00000000000E+00  0.00000000000E+00  0.14999999963E+04  0.15000000000E+04  0.10566000000E+00 0.  1.
        994   -1    0    0    0    0 -0.00000000000E+00 -0.00000000000E+00  0.11368683772E-12  0.17120000000E+03  0.17120000000E+03 0.  0.
         13    1    1    2    0    0  0.15572396115E+00 -0.14231795537E+02  0.45480597382E+02  0.47655683359E+02  0.10566000000E+00 0.  1.
        994    1    1    2    0    0 -0.30000397884E+01  0.65558712780E+01  0.24011521793E+01  0.17136856543E+03  0.17120000000E+03 0.  0.
        998    1    1    2    0    0  0.28443158272E+01  0.76759242588E+01  0.14521182467E+04  0.14521757512E+04  0.10000000000E+02 0.  1.
</event>
<event>
 5    1  0.1279376E-008  0.3709516E+03  0.7957747E-01  0.3491529E+00
         13   -1    0    0    0    0  0.00000000000E+00  0.00000000000E+00  0.14999999963E+04  0.15000000000E+04  0.10566000000E+00 0. -1.
        994   -1    0    0    0    0 -0.00000000000E+00 -0.00000000000E+00  0.11368683772E-12  0.17120000000E+03  0.17120000000E+03 0.  0.
         13    1    1    2    0    0 -0.32232413205E+02 -0.30711397931E+02  0.10630390020E+03  0.11525037434E+03  0.10566000000E+00 0. -1.
        994    1    1    2    0    0  0.56633795945E+01  0.46635754776E+02  0.16417141902E+02  0.17828609043E+03  0.17120000000E+03 0.  0.
        998    1    1    2    0    0  0.26569033610E+02 -0.15924356845E+02  0.13772789542E+04  0.13776635352E+04  0.10000000000E+02 0. -1.
</event>
<event>
 5    1  0.1279376E-008  0.3910887E+03  0.7957747E-01  0.3404253E+00
         13   -1    0    0    0    0  0.00000000000E+00  0.00000000000E+00  0.14999999963E+04  0.15000000000E+04  0.10566000000E+00 0. -1.
        994   -1    0    0    0    0 -0.00000000000E+00 -0.00000000000E+00  0.11368683772E-12  0.17120000000E+03  0.17120000000E+03 0.  0.
         13    1    1    2    0    0  0.25542527052E+02 -0.97038063574E+01  0.66727225365E+01  0.28126872135E+02  0.10566000000E+00 0. -1.
        994    1    1    2    0    0 -0.35517115313E+02 -0.20206483302E+01  0.27352540410E+02  0.17698347371E+03  0.17120000000E+03 0.  0.
        998    1    1    2    0    0  0.99745882602E+01  0.11724454688E+02  0.14659747333E+04  0.14660896542E+04  0.10000000000E+02 0. -1.
</event>
<event>
 5    1  0.1279376E-008  0.3843345E+03  0.7957747E-01  0.3432500E+00
         13   -1    0    0    0    0  0.00000000000E+00  0.00000000000E+00  0.14999999963E+04  0.15000000000E+04  0.10566000000E+00 0.  1.
        994   -1    0    0    0    0 -0.00000000000E+00 -0.00000000000E+00  0.11368683772E-12  0.17120000000E+03  0.17120000000E+03 0.  0.
         13    1    1    2    0    0  0.14860532178E+02  0.11760595793E+02  0.89896458401E+02  0.91872364872E+02  0.10566000000E+00 0.  1.
        994    1    1    2    0    0 -0.16246369128E+02 -0.26976906211E+01  0.28552929988E+01  0.17201399578E+03  0.17120000000E+03 0.  0.
        998    1    1    2    0    0  0.13858369500E+01 -0.90629051723E+01  0.14072482449E+04  0.14073136394E+04  0.10000000000E+02 0.  1.
</event>
<event>
 5    1  0.1279376E-008  0.3762527E+03  0.7957747E-01  0.3467639E+00
         13   -1    0    0    0    0  0.00000000000E+00  0.00000000000E+00  0.14999999963E+04  0.15000000000E+04  0.10566000000E+00 0. -1.
        994   -1    0    0    0    0 -0.00000000000E+00 -0.00000000000E+00  0.11368683772E-12  0.17120000000E+03  0.17120000000E+03 0.  0.
         13    1    1    2    0    0 -0.18591448861E+02  0.37777432344E+02  0.13134780858E+03  0.13793126675E+03  0.10566000000E+00 0. -1.
        994    1    1    2    0    0  0.21207080964E+02 -0.39250496228E+02  0.12803808955E+02  0.17738015464E+03  0.17120000000E+03 0.  0.
        998    1    1    2    0    0 -0.26156321029E+01  0.14730638841E+01  0.13558483787E+04  0.13558885786E+04  0.10000000000E+02 0. -1.
</event>
<event>
 5    1  0.1279376E-008  0.3845217E+03  0.7957747E-01  0.3431703E+00
         13   -1    0    0    0    0  0.00000000000E+00  0.00000000000E+00  0.14999999963E+04  0.15000000000E+04  0.10566000000E+00 0. -1.
        994   -1    0    0    0    0 -0.00000000000E+00 -0.00000000000E+00  0.11368683772E-12  0.17120000000E+03  0.17120000000E+03 0.  0.
         13    1    1    2    0    0 -0.17487858744E+02 -0.17907665777E+02  0.14285020032E+03  0.14502655134E+03  0.10566000000E+00 0. -1.
        994    1    1    2    0    0  0.21479454284E+02  0.26098718723E+02  0.56400487865E+01  0.17459599144E+03  0.17120000000E+03 0.  0.
        998    1    1    2    0    0 -0.39915955395E+01 -0.81910529460E+01  0.13515097472E+04  0.13515774572E+04  0.10000000000E+02 0. -1.
</event>
<event>
 5    1  0.1279376E-008  0.3797021E+03  0.7957747E-01  0.3452457E+00
         13   -1    0    0    0    0  0.00000000000E+00  0.00000000000E+00  0.14999999963E+04  0.15000000000E+04  0.10566000000E+00 0.  1.
        994   -1    0    0    0    0 -0.00000000000E+00 -0.00000000000E+00  0.11368683772E-12  0.17120000000E+03  0.17120000000E+03 0.  0.
         13    1    1    2    0    0  0.55632371841E+02 -0.95743797675E+01  0.25009238787E+03  0.25638417108E+03  0.10566000000E+00 0.  1.
        994    1    1    2    0    0 -0.82003782514E+02  0.11813067724E+02  0.27605772172E+02  0.19218659572E+03  0.17120000000E+03 0.  0.
        998    1    1    2    0    0  0.26371410672E+02 -0.22386879569E+01  0.12223018362E+04  0.12226292332E+04  0.10000000000E+02 0.  1.
</event>
<event>
 5    1  0.1279376E-008  0.3844173E+03  0.7957747E-01  0.3432147E+00
         13   -1    0    0    0    0  0.00000000000E+00  0.00000000000E+00  0.14999999963E+04  0.15000000000E+04  0.10566000000E+00 0.  1.
        994   -1    0    0    0    0 -0.00000000000E+00 -0.00000000000E+00  0.11368683772E-12  0.17120000000E+03  0.17120000000E+03 0.  0.
         13    1    1    2    0    0  0.18995234824E+02 -0.14972691220E+02  0.14380391888E+03  0.14582379325E+03  0.10566000000E+00 0.  1.
        994    1    1    2    0    0 -0.21843354838E+02  0.66780244446E+01  0.36406521553E+01  0.17275538344E+03  0.17120000000E+03 0.  0.
        998    1    1    2    0    0  0.28481200142E+01  0.82946667752E+01  0.13525554252E+04  0.13526208233E+04  0.10000000000E+02 0.  1.
</event>
<event>
 5    1  0.1279376E-008  0.3727536E+03  0.7957747E-01  0.3483331E+00
         13   -1    0    0    0    0  0.00000000000E+00  0.00000000000E+00  0.14999999963E+04  0.15000000000E+04  0.10566000000E+00 0. -1.
        994   -1    0    0    0    0 -0.00000000000E+00 -0.00000000000E+00  0.11368683772E-12  0.17120000000E+03  0.17120000000E+03 0.  0.
         13    1    1    2    0    0  0.14084294888E+02 -0.40919082740E+01  0.10219091422E+02  0.17876019393E+02  0.10566000000E+00 0. -1.
        994    1    1    2    0    0 -0.15354923426E+02 -0.17171570018E+02  0.96564708328E+01  0.17301249643E+03  0.17120000000E+03 0.  0.
        998    1    1    2    0    0  0.12706285381E+01  0.21263478292E+02  0.14801244340E+04  0.14803114842E+04  0.10000000000E+02 0. -1.
</event>
<event>
 5    1  0.1279376E-008  0.3807038E+03  0.7957747E-01  0.3448100E+00
         13   -1    0    0    0    0  0.00000000000E+00  0.00000000000E+00  0.14999999963E+04  0.15000000000E+04  0.10566000000E+00 0.  1.
        994   -1    0    0    0    0 -0.00000000000E+00 -0.00000000000E+00  0.11368683772E-12  0.17120000000E+03  0.17120000000E+03 0.  0.
         13    1    1    2    0    0 -0.33646884884E+02 -0.17708639945E+02  0.17487359851E+03  0.17895947980E+03  0.10566000000E+00 0.  1.
        994    1    1    2    0    0  0.29096548337E+02  0.17519529011E+02  0.76350985836E+01  0.17470339937E+03  0.17120000000E+03 0.  0.
        998    1    1    2    0    0  0.45503365466E+01  0.18911093388E+00  0.13174912992E+04  0.13175371208E+04  0.10000000000E+02 0.  1.
</event>
<event>
 5    1  0.1279376E-008  0.3773003E+03  0.7957747E-01  0.3462998E+00
         13   -1    0    0    0    0  0.00000000000E+00  0.00000000000E+00  0.14999999963E+04  0.15000000000E+04  0.10566000000E+00 0. -1.
        994   -1    0    0    0    0 -0.00000000000E+00 -0.00000000000E+00  0.11368683772E-12  0.17120000000E+03  0.17120000000E+03 0.  0.
         13    1    1    2    0    0  0.14879687646E+02 -0.16536579504E+02  0.41532181644E+02  0.47114720017E+02  0.10566000000E+00 0. -1.
        994    1    1    2    0    0 -0.15201319041E+02  0.19043283145E+02  0.75074033413E+01  0.17308820826E+03  0.17120000000E+03 0.  0.
        998    1    1    2    0    0  0.32163139518E+00 -0.25067036415E+01  0.14509604113E+04  0.14509970717E+04  0.10000000000E+02 0. -1.
</event>
<event>
 5    1  0.1279376E-008  0.3836541E+03  0.7957747E-01  0.3435401E+00
         13   -1    0    0    0    0  0.00000000000E+00  0.00000000000E+00  0.14999999963E+04  0.15000000000E+04  0.10566000000E+00 0. -1.
        994   -1    0    0    0    0 -0.00000000000E+00 -0.00000000000E+00  0.11368683772E-12  0.17120000000E+03  0.17120000000E+03 0.  0.
         13    1    1    2    0    0 -0.92137755431E+01  0.28377944680E+02  0.17474922096E+03  0.17727803811E+03  0.10566000000E+00 0. -1.
        994    1    1    2    0    0  0.42234491261E+01 -0.29037761598E+02  0.51490743856E+01  0.17377278869E+03  0.17120000000E+03 0.  0.
        998    1    1    2    0    0  0.49903264170E+01  0.65981691723E+00  0.13201017009E+04  0.13201491732E+04  0.10000000000E+02 0. -1.
</event>
<event>
 5    1  0.1279376E-008  0.3823206E+03  0.7957747E-01  0.3441116E+00
         13   -1    0    0    0    0  0.00000000000E+00  0.00000000000E+00  0.14999999963E+04  0.15000000000E+04  0.10566000000E+00 0. -1.
        994   -1    0    0    0    0 -0.00000000000E+00 -0.00000000000E+00  0.11368683772E-12  0.17120000000E+03  0.17120000000E+03 0.  0.
         13    1    1    2    0    0 -0.13365299283E+02 -0.25729820767E+02  0.12928638049E+03  0.13249767638E+03  0.10566000000E+00 0. -1.
        994    1    1    2    0    0  0.15931118606E+02  0.25611200508E+02  0.59901520569E+01  0.17393980583E+03  0.17120000000E+03 0.  0.
        998    1    1    2    0    0 -0.25658193232E+01  0.11862025908E+00  0.13647234637E+04  0.13647625178E+04  0.10000000000E+02 0. -1.
</event>
<event>
 5    1  0.1279376E-008  0.3823146E+03  0.7957747E-01  0.3441142E+00
         13   -1    0    0    0    0  0.00000000000E+00  0.00000000000E+00  0.14999999963E+04  0.15000000000E+04  0.10566000000E+00 0.  1.
        994   -1    0    0    0    0 -0.00000000000E+00 -0.00000000000E+00  0.11368683772E-12  0.17120000000E+03  0.17120000000E+03 0.  0.
         13    1    1    2    0    0  0.28224795880E+02 -0.23069410439E+01  0.14543841118E+03  0.14816984744E+03  0.10566000000E+00 0.  1.
        994    1    1    2    0    0 -0.59607834060E+01 -0.10624048478E+01  0.30909142480E+01  0.17133491586E+03  0.17120000000E+03 0.  0.
        998    1    1    2    0    0 -0.22264012474E+02  0.33693458917E+01  0.13514706709E+04  0.13516952367E+04  0.10000000000E+02 0.  1.
</event>
<event>
 5    1  0.1279376E-008  0.3838436E+03  0.7957747E-01  0.3434592E+00
         13   -1    0    0    0    0  0.00000000000E+00  0.00000000000E+00  0.14999999963E+04  0.15000000000E+04  0.10566000000E+00 0. -1.
        994   -1    0    0    0    0 -0.00000000000E+00 -0.00000000000E+00  0.11368683772E-12  0.17120000000E+03  0.17120000000E+03 0.  0.
         13    1    1    2    0    0 -0.14625222229E+02  0.12479218071E+02  0.74496655480E+02  0.76937577624E+02  0.10566000000E+00 0. -1.
        994    1    1    2    0    0  0.22115449293E+02 -0.22837373654E+02  0.55486635350E+01  0.17421500050E+03  0.17120000000E+03 0.  0.
        998    1    1    2    0    0 -0.74902270644E+01  0.10358155583E+02  0.14199546773E+04  0.14200474219E+04  0.10000000000E+02 0. -1.
</event>
<event>
 5    1  0.1279376E-008  0.3842892E+03  0.7957747E-01  0.3432692E+00
         13   -1    0    0    0    0  0.00000000000E+00  0.00000000000E+00  0.14999999963E+04  0.15000000000E+04  0.10566000000E+00 0. -1.
        994   -1    0    0    0    0 -0.00000000000E+00 -0.00000000000E+00  0.11368683772E-12  0.17120000000E+03  0.17120000000E+03 0.  0.
         13    1    1    2    0    0 -0.61079806963E+01 -0.96698261089E+01  0.32141227554E+02  0.34115724203E+02  0.10566000000E+00 0. -1.
        994    1    1    2    0    0  0.27809265370E+01  0.10623778077E+02  0.23810744155E+01  0.17156837625E+03  0.17120000000E+03 0.  0.
        998    1    1    2    0    0  0.33270541594E+01 -0.95395196797E+00  0.14654776943E+04  0.14655158995E+04  0.10000000000E+02 0. -1.
</event>
<event>
 5    1  0.1279376E-008  0.3841387E+03  0.7957747E-01  0.3433334E+00
         13   -1    0    0    0    0  0.00000000000E+00  0.00000000000E+00  0.14999999963E+04  0.15000000000E+04  0.10566000000E+00 0. -1.
        994   -1    0    0    0    0 -0.00000000000E+00 -0.00000000000E+00  0.11368683772E-12  0.17120000000E+03  0.17120000000E+03 0.  0.
         13    1    1    2    0    0  0.15809491199E+01 -0.14462478571E+02  0.51028811722E+02  0.53062354606E+02  0.10566000000E+00 0. -1.
        994    1    1    2    0    0  0.49117576525E+01  0.10162664108E+02  0.24786610599E+01  0.17158959428E+03  0.17120000000E+03 0.  0.
        998    1    1    2    0    0 -0.64927067724E+01  0.42998144631E+01  0.14464925235E+04  0.14465480511E+04  0.10000000000E+02 0. -1.
</event>
<event>
 5    1  0.1279376E-008  0.3786644E+03  0.7957747E-01  0.3456995E+00
         13   -1    0    0    0    0  0.00000000000E+00  0.00000000000E+00  0.14999999963E+04  0.15000000000E+04  0.10566000000E+00 0. -1.
        994   -1    0    0    0    0 -0.00000000000E+00 -0.00000000000E+00  0.11368683772E-12  0.17120000000E+03  0.17120000000E+03 0.  0.
         13    1    1    2    0    0  0.37368707174E+01  0.13314058093E+02  0.17550778050E+02  0.22344335297E+02  0.10566000000E+00 0. -1.
        994    1    1    2    0    0 -0.70884648760E+01 -0.14576949836E+02  0.56915327228E+01  0.17205977841E+03  0.17120000000E+03 0.  0.
        998    1    1    2    0    0  0.33515941587E+01  0.12628917425E+01  0.14767576855E+04  0.14767958863E+04  0.10000000000E+02 0. -1.
</event>
<event>
 5    1  0.1279376E-008  0.3846086E+03  0.7957747E-01  0.3431334E+00
         13   -1    0    0    0    0  0.00000000000E+00  0.00000000000E+00  0.14999999963E+04  0.15000000000E+04  0.10566000000E+00 0.  1.
        994   -1    0    0    0    0 -0.00000000000E+00 -0.00000000000E+00  0.11368683772E-12  0.17120000000E+03  0.17120000000E+03 0.  0.
         13    1    1    2    0    0  0.10885578964E+02  0.26776984573E+01  0.36344726934E+02  0.38034408611E+02  0.10566000000E+00 0.  1.
        994    1    1    2    0    0  0.58534945109E+01  0.23069594134E+01  0.19549502471E+01  0.17132672672E+03  0.17120000000E+03 0.  0.
        998    1    1    2    0    0 -0.16739073475E+02 -0.49846578706E+01  0.14617003191E+04  0.14618388647E+04  0.10000000000E+02 0.  1.
</event>
<event>
 5    1  0.1279376E-008  0.3855282E+03  0.7957747E-01  0.3427435E+00
         13   -1    0    0    0    0  0.00000000000E+00  0.00000000000E+00  0.14999999963E+04  0.15000000000E+04  0.10566000000E+00 0. -1.
        994   -1    0    0    0    0 -0.00000000000E+00 -0.00000000000E+00  0.11368683772E-12  0.17120000000E+03  0.17120000000E+03 0.  0.
         13    1    1    2    0    0  0.10088791083E+02  0.11412082464E+02  0.82367868656E+02  0.83764528786E+02  0.10566000000E+00 0. -1.
        994    1    1    2    0    0 -0.72454041185E+01 -0.12806269295E+02  0.20792269481E+01  0.17184370689E+03  0.17120000000E+03 0.  0.
        998    1    1    2    0    0 -0.28433869647E+01  0.13941868303E+01  0.14155529007E+04  0.14155917643E+04  0.10000000000E+02 0. -1.
</event>
<event>
 5    1  0.1279376E-008  0.3813789E+03  0.7957747E-01  0.3445176E+00
         13   -1    0    0    0    0  0.00000000000E+00  0.00000000000E+00  0.14999999963E+04  0.15000000000E+04  0.10566000000E+00 0. -1.
        994   -1    0    0    0    0 -0.00000000000E+00 -0.00000000000E+00  0.11368683772E-12  0.17120000000E+03  0.17120000000E+03 0.  0.
         13    1    1    2    0    0  0.40389125041E+01 -0.13855734915E+02  0.29080747894E+02  0.32465293258E+02  0.10566000000E+00 0. -1.
        994    1    1    2    0    0  0.76393064143E+01  0.11268848279E+02  0.40557373660E+01  0.17178834346E+03  0.17120000000E+03 0.  0.
        998    1    1    2    0    0 -0.11678218918E+02  0.25868866353E+01  0.14668635110E+04  0.14669463633E+04  0.10000000000E+02 0. -1.
</event>
<event>
 5    1  0.1279376E-008  0.3743187E+03  0.7957747E-01  0.3476275E+00
         13   -1    0    0    0    0  0.00000000000E+00  0.00000000000E+00  0.14999999963E+04  0.15000000000E+04  0.10566000000E+00 0. -1.
        994   -1    0    0    0    0 -0.00000000000E+00 -0.00000000000E+00  0.11368683772E-12  0.17120000000E+03  0.17120000000E+03 0.  0.
         13    1    1    2    0    0  0.31361205501E+02  0.24675040028E+02  0.54077680095E+02  0.67207064058E+02  0.10566000000E+00 0. -1.
        994    1    1    2    0    0 -0.25996483262E+02 -0.23357782689E+02  0.17588882275E+02  0.17561381476E+03  0.17120000000E+03 0.  0.
        998    1    1    2    0    0 -0.53647222386E+01 -0.13172573398E+01  0.14283334339E+04  0.14283791212E+04  0.10000000000E+02 0. -1.
</event>
<event>
 5    1  0.1279376E-008  0.3807592E+03  0.7957747E-01  0.3447859E+00
         13   -1    0    0    0    0  0.00000000000E+00  0.00000000000E+00  0.14999999963E+04  0.15000000000E+04  0.10566000000E+00 0.  1.
        994   -1    0    0    0    0 -0.00000000000E+00 -0.00000000000E+00  0.11368683772E-12  0.17120000000E+03  0.17120000000E+03 0.  0.
         13    1    1    2    0    0  0.27807569295E+01 -0.18880919110E+02  0.45930623252E+02  0.49737863162E+02  0.10566000000E+00 0.  1.
        994    1    1    2    0    0 -0.17524894995E+01  0.19643802248E+02  0.50484471852E+01  0.17240613970E+03  0.17120000000E+03 0.  0.
        998    1    1    2    0    0 -0.10282674301E+01 -0.76288313816E+00  0.14490209258E+04  0.14490559971E+04  0.10000000000E+02 0.  1.
</event>
<event>
 5    1  0.1279376E-008  0.3840740E+03  0.7957747E-01  0.3433609E+00
         13   -1    0    0    0    0  0.00000000000E+00  0.00000000000E+00  0.14999999963E+04  0.15000000000E+04  0.10566000000E+00 0.  1.
        994   -1    0    0    0    0 -0.00000000000E+00 -0.00000000000E+00  0.11368683772E-12  0.17120000000E+03  0.17120000000E+03 0.  0.
         13    1    1    2    0    0 -0.67433084564E+01 -0.12306135366E+02  0.46971491514E+02  0.49022906438E+02  0.10566000000E+00 0.  1.
        994    1    1    2    0    0  0.30670918628E+01  0.73219731687E+01  0.22984574001E+01  0.17139936187E+03  0.17120000000E+03 0.  0.
        998    1    1    2    0    0  0.36762165936E+01  0.49841621971E+01  0.14507300474E+04  0.14507777317E+04  0.10000000000E+02 0.  1.
</event>
<event>
 5    1  0.1279376E-008  0.3778456E+03  0.7957747E-01  0.3460593E+00
         13   -1    0    0    0    0  0.00000000000E+00  0.00000000000E+00  0.14999999963E+04  0.15000000000E+04  0.10566000000E+00 0. -1.
        994   -1    0    0    0    0 -0.00000000000E+00 -0.00000000000E+00  0.11368683772E-12  0.17120000000E+03  0.17120000000E+03 0.  0.
         13    1    1    2    0    0  0.20076899339E+02 -0.14552760089E+02  0.13343879747E+02  0.28159101620E+02  0.10566000000E+00 0. -1.
        994    1    1    2    0    0 -0.27399637166E+02  0.17517780675E+02  0.18960453845E+02  0.17528990720E+03  0.17120000000E+03 0.  0.
        998    1    1    2    0    0  0.73227378265E+01 -0.29650205858E+01  0.14676956627E+04  0.14677509912E+04  0.10000000000E+02 0. -1.
</event>
<event>
 5    1  0.1279376E-008  0.3820961E+03  0.7957747E-01  0.3442082E+00
         13   -1    0    0    0    0  0.00000000000E+00  0.00000000000E+00  0.14999999963E+04  0.15000000000E+04  0.10566000000E+00 0. -1.
        994   -1    0    0    0    0 -0.00000000000E+00 -0.00000000000E+00  0.11368683772E-12  0.17120000000E+03  0.17120000000E+03 0.  0.
         13    1    1    2    0    0 -0.58837541040E+01  0.84311551382E+02  0.28648082310E+03  0.29868767873E+03  0.10566000000E+00 0. -1.
        994    1    1    2    0    0 -0.57342250804E+02  0.12614498858E+02  0.30181473806E+02  0.18348738559E+03  0.17120000000E+03 0.  0.
        998    1    1    2    0    0  0.63226004908E+02 -0.96926050239E+02  0.11833376994E+04  0.11890249357E+04  0.10000000000E+02 0. -1.
</event>
<event>
 5    1  0.1279376E-008  0.3804900E+03  0.7957747E-01  0.3449028E+00
         13   -1    0    0    0    0  0.00000000000E+00  0.00000000000E+00  0.14999999963E+04  0.15000000000E+04  0.10566000000E+00 0. -1.
        994   -1    0    0    0    0 -0.00000000000E+00 -0.00000000000E+00  0.11368683772E-12  0.17120000000E+03  0.17120000000E+03 0.  0.
         13    1    1    2    0    0 -0.19991915525E+02  0.33356130064E+02  0.19348586903E+03  0.19735526539E+03  0.10566000000E+00 0. -1.
        994    1    1    2    0    0  0.30058648049E+02 -0.88338497321E+01  0.71689138112E+01  0.17419067871E+03  0.17120000000E+03 0.  0.
        998    1    1    2    0    0 -0.10066732524E+02 -0.24522280332E+02  0.12993452134E+04  0.12996540559E+04  0.10000000000E+02 0. -1.
</event>
<event>
 5    1  0.1279376E-008  0.3819329E+03  0.7957747E-01  0.3442785E+00
         13   -1    0    0    0    0  0.00000000000E+00  0.00000000000E+00  0.14999999963E+04  0.15000000000E+04  0.10566000000E+00 0.  1.
        994   -1    0    0    0    0 -0.00000000000E+00 -0.00000000000E+00  0.11368683772E-12  0.17120000000E+03  0.17120000000E+03 0.  0.
         13    1    1    2    0    0 -0.11737855581E+01 -0.10585318584E+02  0.16226337544E+02  0.19409583617E+02  0.10566000000E+00 0.  1.
        994    1    1    2    0    0 -0.67501438538E+01  0.17940533461E+02  0.43820183963E+01  0.17232547481E+03  0.17120000000E+03 0.  0.
        998    1    1    2    0    0  0.79239294119E+01 -0.73552148772E+01  0.14793916403E+04  0.14794649416E+04  0.10000000000E+02 0.  1.
</event>
<event>
 5    1  0.1279376E-008  0.3727831E+03  0.7957747E-01  0.3483197E+00
         13   -1    0    0    0    0  0.00000000000E+00  0.00000000000E+00  0.14999999963E+04  0.15000000000E+04  0.10566000000E+00 0. -1.
        994   -1    0    0    0    0 -0.00000000000E+00 -0.00000000000E+00  0.11368683772E-12  0.17120000000E+03  0.17120000000E+03 0.  0.
         13    1    1    2    0    0 -0.31430241098E+02  0.35739744224E+01  0.62726993523E+02  0.70251834346E+02  0.10566000000E+00 0. -1.
        994    1    1    2    0    0  0.90935258426E+01 -0.26500183616E+02  0.10514580455E+02  0.17379570865E+03  0.17120000000E+03 0.  0.
        998    1    1    2    0    0  0.22336715255E+02  0.22926209193E+02  0.14267584223E+04  0.14271524570E+04  0.10000000000E+02 0. -1.
</event>
<event>
 5    1  0.1279376E-008  0.3789327E+03  0.7957747E-01  0.3455819E+00
         13   -1    0    0    0    0  0.00000000000E+00  0.00000000000E+00  0.14999999963E+04  0.15000000000E+04  0.10566000000E+00 0. -1.
        994   -1    0    0    0    0 -0.00000000000E+00 -0.00000000000E+00  0.11368683772E-12  0.17120000000E+03  0.17120000000E+03 0.  0.
         13    1    1    2    0    0 -0.20318973539E+02  0.15289466173E+02  0.65506223563E+02  0.70268804964E+02  0.10566000000E+00 0. -1.
        994    1    1    2    0    0  0.20670057044E+02 -0.11596135464E+02  0.65596035545E+01  0.17295719128E+03  0.17120000000E+03 0.  0.
        998    1    1    2    0    0 -0.35108350507E+00 -0.36933307090E+01  0.14279341692E+04  0.14279740038E+04  0.10000000000E+02 0. -1.
</event>
<event>
 5    1  0.1424741E-008  0.3861401E+03  0.7957747E-01  0.3424851E+00
         13   -1    0    0    0    0  0.00000000000E+00  0.00000000000E+00  0.14999999963E+04  0.15000000000E+04  0.10566000000E+00 0. -1.
        994   -1    0    0    0    0 -0.00000000000E+00 -0.00000000000E+00  0.11368683772E-12  0.17120000000E+03  0.17120000000E+03 0.  0.
         13    1    1    2    0    0 -0.63635623505E+01 -0.91552075264E+01  0.59888220499E+02  0.60917344568E+02  0.10566000000E+00 0. -1.
        994    1    1    2    0    0  0.24423286584E+01  0.54758616263E+01  0.11829612016E+01  0.17130904654E+03  0.17120000000E+03 0.  0.
        998    1    1    2    0    0  0.39212336921E+01  0.36793459001E+01  0.14389288146E+04  0.14389736089E+04  0.10000000000E+02 0. -1.
</event>
<event>
 5    1  0.1279376E-008  0.3918642E+03  0.7957747E-01  0.3401072E+00
         13   -1    0    0    0    0  0.00000000000E+00  0.00000000000E+00  0.14999999963E+04  0.15000000000E+04  0.10566000000E+00 0. -1.
        994   -1    0    0    0    0 -0.00000000000E+00 -0.00000000000E+00  0.11368683772E-12  0.17120000000E+03  0.17120000000E+03 0.  0.
         13    1    1    2    0    0 -0.38321935621E+02  0.30954980194E+02  0.43637531921E+02  0.65810537946E+02  0.10566000000E+00 0. -1.
        994    1    1    2    0    0  0.32103686641E+02 -0.30139389224E+02  0.30386947980E+02  0.17936509160E+03  0.17120000000E+03 0.  0.
        998    1    1    2    0    0  0.62182489795E+01 -0.81559097030E+00  0.14259755164E+04  0.14260243704E+04  0.10000000000E+02 0. -1.
</event>
<event>
 5    1  0.1279376E-008  0.3741730E+03  0.7957747E-01  0.3476930E+00
         13   -1    0    0    0    0  0.00000000000E+00  0.00000000000E+00  0.14999999963E+04  0.15000000000E+04  0.10566000000E+00 0.  1.
        994   -1    0    0    0    0 -0.00000000000E+00 -0.00000000000E+00  0.11368683772E-12  0.17120000000E+03  0.17120000000E+03 0.  0.
         13    1    1    2    0    0 -0.67107982350E+01 -0.42365974412E+02  0.11679965843E+03  0.12442701465E+03  0.10566000000E+00 0.  1.
        994    1    1    2    0    0  0.95753210742E+01  0.43994628501E+02  0.14045816244E+02  0.17757798024E+03  0.17120000000E+03 0.  0.
        998    1    1    2    0    0 -0.28645228392E+01 -0.16286540888E+01  0.13691545216E+04  0.13691950051E+04  0.10000000000E+02 0.  1.
</event>
<event>
 5    1  0.1279376E-008  0.3839274E+03  0.7957747E-01  0.3434234E+00
         13   -1    0    0    0    0  0.00000000000E+00  0.00000000000E+00  0.14999999963E+04  0.15000000000E+04  0.10566000000E+00 0. -1.
        994   -1    0    0    0    0 -0.00000000000E+00 -0.00000000000E+00  0.11368683772E-12  0.17120000000E+03  0.17120000000E+03 0.  0.
         13    1    1    2    0    0  0.18235532012E+01 -0.10432785485E+02  0.25548516178E+02  0.27656937686E+02  0.10566000000E+00 0. -1.
        994    1    1    2    0    0  0.83179791353E+01  0.57854157274E+01  0.25024767350E+01  0.17151781890E+03  0.17120000000E+03 0.  0.
        998    1    1    2    0    0 -0.10141532336E+02  0.46473697575E+01  0.14719490034E+04  0.14720252434E+04  0.10000000000E+02 0. -1.
</event>
<event>
 5    1  0.1902394E-008  0.3863610E+03  0.7957747E-01  0.3423921E+00
         13   -1    0    0    0    0  0.00000000000E+00  0.00000000000E+00  0.14999999963E+04  0.15000000000E+04  0.10566000000E+00 0. -1.
        994   -1    0    0    0    0 -0.00000000000E+00 -0.00000000000E+00  0.11368683772E-12  0.17120000000E+03  0.17120000000E+03 0.  0.
         13    1    1    2    0    0  0.22242442050E+01  0.10784046287E+02  0.65031598020E+02  0.65957280278E+02  0.10566000000E+00 0. -1.
        994    1    1    2    0    0 -0.10911634046E+01 -0.64382493786E+01  0.10955771828E+01  0.17132799532E+03  0.17120000000E+03 0.  0.
        998    1    1    2    0    0 -0.11330808005E+01 -0.43457969088E+01  0.14338728211E+04  0.14339147244E+04  0.10000000000E+02 0. -1.
</event>
<event>
 5    1  0.1279376E-008  0.3753584E+03  0.7957747E-01  0.3471621E+00
         13   -1    0    0    0    0  0.00000000000E+00  0.00000000000E+00  0.14999999963E+04  0.15000000000E+04  0.10566000000E+00 0.  1.
        994   -1    0    0    0    0 -0.00000000000E+00 -0.00000000000E+00  0.11368683772E-12  0.17120000000E+03  0.17120000000E+03 0.  0.
         13    1    1    2    0    0  0.36167097280E+01  0.35298313618E+02  0.39460801465E+02  0.53068046411E+02  0.10566000000E+00 0.  1.
        994    1    1    2    0    0 -0.11866589772E+02 -0.31905598734E+02  0.17940517071E+02  0.17547103845E+03  0.17120000000E+03 0.  0.
        998    1    1    2    0    0  0.82498800443E+01 -0.33927148843E+01  0.14425986777E+04  0.14426609151E+04  0.10000000000E+02 0.  1.
</event>
<event>
 5    1  0.1279376E-008  0.3857222E+03  0.7957747E-01  0.3426615E+00
         13   -1    0    0    0    0  0.00000000000E+00  0.00000000000E+00  0.14999999963E+04  0.15000000000E+04  0.10566000000E+00 0.  1.
        994   -1    0    0    0    0 -0.00000000000E+00 -0.00000000000E+00  0.11368683772E-12  0.17120000000E+03  0.17120000000E+03 0.  0.
         13    1    1    2    0    0 -0.11380765927E+02 -0.11360351206E+02  0.96919028500E+02  0.98244026089E+02  0.10566000000E+00 0.  1.
        994    1    1    2    0    0  0.11374179387E+02  0.12215570313E+02  0.21865637417E+01  0.17202561779E+03  0.17120000000E+03 0.  0.
        998    1    1    2    0    0  0.65865398538E-02 -0.85521910720E+00  0.14008944040E+04  0.14009303561E+04  0.10000000000E+02 0.  1.
</event>
<event>
 5    1  0.3169947E-008  0.3865227E+03  0.7957747E-01  0.3423240E+00
         13   -1    0    0    0    0  0.00000000000E+00  0.00000000000E+00  0.14999999963E+04  0.15000000000E+04  0.10566000000E+00 0. -1.
        994   -1    0    0    0    0 -0.00000000000E+00 -0.00000000000E+00  0.11368683772E-12  0.17120000000E+03  0.17120000000E+03 0.  0.
         13    1    1    2    0    0 -0.10182311169E+02  0.14617897351E+01  0.60010775224E+02  0.60886128116E+02  0.10566000000E+00 0. -1.
        994    1    1    2    0    0  0.10678929565E+02  0.10431868933E+01  0.12528511269E+01  0.17154048330E+03  0.17120000000E+03 0.  0.
        998    1    1    2    0    0 -0.49661839632E+00 -0.25049766285E+01  0.14387363699E+04  0.14387733886E+04  0.10000000000E+02 0. -1.
</event>
<event>
 5    1  0.1279376E-008  0.3831860E+03  0.7957747E-01  0.3437402E+00
         13   -1    0    0    0    0  0.00000000000E+00  0.00000000000E+00  0.14999999963E+04  0.15000000000E+04  0.10566000000E+00 0. -1.
        994   -1    0    0    0    0 -0.00000000000E+00 -0.00000000000E+00  0.11368683772E-12  0.17120000000E+03  0.17120000000E+03 0.  0.
         13    1    1    2    0    0  0.18327171259E+02 -0.26323023258E+01  0.64329753017E+02  0.66941336326E+02  0.10566000000E+00 0. -1.
        994    1    1    2    0    0 -0.19002674445E+02  0.67128385476E+01  0.38782397076E+01  0.17242576542E+03  0.17120000000E+03 0.  0.
        998    1    1    2    0    0  0.67550318550E+00 -0.40805362218E+01  0.14317920036E+04  0.14318328983E+04  0.10000000000E+02 0. -1.
</event>
<event>
 5    1  0.1279376E-008  0.3815446E+03  0.7957747E-01  0.3444460E+00
         13   -1    0    0    0    0  0.00000000000E+00  0.00000000000E+00  0.14999999963E+04  0.15000000000E+04  0.10566000000E+00 0. -1.
        994   -1    0    0    0    0 -0.00000000000E+00 -0.00000000000E+00  0.11368683772E-12  0.17120000000E+03  0.17120000000E+03 0.  0.
         13    1    1    2    0    0  0.51964778078E+01  0.14070816889E+02  0.32194372623E+02  0.35517320594E+02  0.10566000000E+00 0. -1.
        994    1    1    2    0    0 -0.61051292311E+01 -0.93395102571E+01  0.37696537329E+01  0.17160463089E+03  0.17120000000E+03 0.  0.
        998    1    1    2    0    0  0.90865142332E+00 -0.47313066321E+01  0.14640359699E+04  0.14640780485E+04  0.10000000000E+02 0. -1.
</event>
<event>
 5    1  0.1279376E-008  0.3853321E+03  0.7957747E-01  0.3428265E+00
         13   -1    0    0    0    0  0.00000000000E+00  0.00000000000E+00  0.14999999963E+04  0.15000000000E+04  0.10566000000E+00 0.  1.
        994   -1    0    0    0    0 -0.00000000000E+00 -0.00000000000E+00  0.11368683772E-12  0.17120000000E+03  0.17120000000E+03 0.  0.
         13    1    1    2    0    0  0.83895596760E+01 -0.62248317978E+01  0.36498365397E+02  0.37964128900E+02  0.10566000000E+00 0.  1.
        994    1    1    2    0    0 -0.73164168302E+01  0.86713455565E+01  0.18883297040E+01  0.17158592010E+03  0.17120000000E+03 0.  0.
        998    1    1    2    0    0 -0.10731428458E+01 -0.24465137587E+01  0.14616133012E+04  0.14616499510E+04  0.10000000000E+02 0.  1.
</event>
<event>
 5    1  0.1279376E-008  0.3732813E+03  0.7957747E-01  0.3480945E+00
         13   -1    0    0    0    0  0.00000000000E+00  0.00000000000E+00  0.14999999963E+04  0.15000000000E+04  0.10566000000E+00 0. -1.
        994   -1    0    0    0    0 -0.00000000000E+00 -0.00000000000E+00  0.11368683772E-12  0.17120000000E+03  0.17120000000E+03 0.  0.
         13    1    1    2    0    0  0.61476624671E+02  0.31881638764E+02  0.25658517568E+03  0.26576639708E+03  0.10566000000E+00 0. -1.
        994    1    1    2    0    0  0.17563677473E+02  0.59314286642E+01  0.13900795953E+02  0.17276092365E+03  0.17120000000E+03 0.  0.
        998    1    1    2    0    0 -0.79040302144E+02 -0.37813067429E+02  0.12295140246E+04  0.12326726793E+04  0.10000000000E+02 0. -1.
</event>
<event>
 5    1  0.1279376E-008  0.3805660E+03  0.7957747E-01  0.3448698E+00
         13   -1    0    0    0    0  0.00000000000E+00  0.00000000000E+00  0.14999999963E+04  0.15000000000E+04  0.10566000000E+00 0. -1.
        994   -1    0    0    0    0 -0.00000000000E+00 -0.00000000000E+00  0.11368683772E-12  0.17120000000E+03  0.17120000000E+03 0.  0.
         13    1    1    2    0    0  0.28965019698E+02  0.12552502666E+02  0.11096663625E+03  0.11536959398E+03  0.10566000000E+00 0. -1.
        994    1    1    2    0    0 -0.43967973196E+02 -0.12383242530E+02  0.10841325764E+02  0.17752042617E+03  0.17120000000E+03 0.  0.
        998    1    1    2    0    0  0.15002953498E+02 -0.16926013604E+00  0.13781920343E+04  0.13783099799E+04  0.10000000000E+02 0. -1.
</event>
<event>
 5    1  0.1279376E-008  0.3811258E+03  0.7957747E-01  0.3446271E+00
         13   -1    0    0    0    0  0.00000000000E+00  0.00000000000E+00  0.14999999963E+04  0.15000000000E+04  0.10566000000E+00 0.  1.
        994   -1    0    0    0    0 -0.00000000000E+00 -0.00000000000E+00  0.11368683772E-12  0.17120000000E+03  0.17120000000E+03 0.  0.
         13    1    1    2    0    0  0.46435323536E+01  0.33214576853E+02  0.14112139469E+03  0.14505181733E+03  0.10566000000E+00 0.  1.
        994    1    1    2    0    0 -0.12911068078E+02 -0.34509226023E+02  0.81006352749E+01  0.17530728066E+03  0.17120000000E+03 0.  0.
        998    1    1    2    0    0  0.82675357246E+01  0.12946491700E+01  0.13507779663E+04  0.13508409020E+04  0.10000000000E+02 0.  1.
</event>
<event>
 5    1  0.1279376E-008  0.3764907E+03  0.7957747E-01  0.3466583E+00
         13   -1    0    0    0    0  0.00000000000E+00  0.00000000000E+00  0.14999999963E+04  0.15000000000E+04  0.10566000000E+00 0. -1.
        994   -1    0    0    0    0 -0.00000000000E+00 -0.00000000000E+00  0.11368683772E-12  0.17120000000E+03  0.17120000000E+03 0.  0.
         13    1    1    2    0    0 -0.27438884834E+02  0.27062885261E+02  0.10837889100E+03  0.11502733300E+03  0.10566000000E+00 0. -1.
        994    1    1    2    0    0  0.28205434487E+02 -0.45290409295E+02  0.15604932625E+02  0.17999922675E+03  0.17120000000E+03 0.  0.
        998    1    1    2    0    0 -0.76654965291E+00  0.18227524034E+02  0.13760161727E+04  0.13761734402E+04  0.10000000000E+02 0. -1.
</event>
<event>
 5    1  0.1279376E-008  0.3778524E+03  0.7957747E-01  0.3460563E+00
         13   -1    0    0    0    0  0.00000000000E+00  0.00000000000E+00  0.14999999963E+04  0.15000000000E+04  0.10566000000E+00 0.  1.
        994   -1    0    0    0    0 -0.00000000000E+00 -0.00000000000E+00  0.11368683772E-12  0.17120000000E+03  0.17120000000E+03 0.  0.
         13    1    1    2    0    0 -0.54448609554E+02 -0.13230715692E+03  0.71704117388E+03  0.73117569096E+03  0.10566000000E+00 0.  1.
        994    1    1    2    0    0  0.48378067069E+02  0.15247896451E+03  0.96874206079E+02  0.25354353432E+03  0.17120000000E+03 0.  0.
        998    1    1    2    0    0  0.60705424854E+01 -0.20171807593E+02  0.68608461632E+03  0.68648077472E+03  0.10000000000E+02 0.  1.
</event>
<event>
 5    1  0.1279376E-008  0.3822879E+03  0.7957747E-01  0.3441256E+00
         13   -1    0    0    0    0  0.00000000000E+00  0.00000000000E+00  0.14999999963E+04  0.15000000000E+04  0.10566000000E+00 0.  1.
        994   -1    0    0    0    0 -0.00000000000E+00 -0.00000000000E+00  0.11368683772E-12  0.17120000000E+03  0.17120000000E+03 0.  0.
         13    1    1    2    0    0 -0.37575757073E+02 -0.25147456226E+01  0.19546517715E+03  0.19906006156E+03  0.10566000000E+00 0.  1.
        994    1    1    2    0    0  0.45309930152E+02  0.78931139735E+00  0.98263174318E+01  0.17736856908E+03  0.17120000000E+03 0.  0.
        998    1    1    2    0    0 -0.77341730793E+01  0.17254342253E+01  0.12947085017E+04  0.12947713694E+04  0.10000000000E+02 0.  1.
</event>
<event>
 5    1  0.1279376E-008  0.3858948E+03  0.7957747E-01  0.3425886E+00
         13   -1    0    0    0    0  0.00000000000E+00  0.00000000000E+00  0.14999999963E+04  0.15000000000E+04  0.10566000000E+00 0.  1.
        994   -1    0    0    0    0 -0.00000000000E+00 -0.00000000000E+00  0.11368683772E-12  0.17120000000E+03  0.17120000000E+03 0.  0.
         13    1    1    2    0    0 -0.22806307624E+01 -0.13596862166E+02  0.80212807987E+02  0.81389075844E+02  0.10566000000E+00 0.  1.
        994    1    1    2    0    0  0.71790510207E+01  0.90500947391E+01  0.16242415222E+01  0.17159697302E+03  0.17120000000E+03 0.  0.
        998    1    1    2    0    0 -0.48984202584E+01  0.45467674269E+01  0.14181629468E+04  0.14182139511E+04  0.10000000000E+02 0.  1.
</event>
<event>
 5    1  0.1279376E-008  0.3737522E+03  0.7957747E-01  0.3478822E+00
         13   -1    0    0    0    0  0.00000000000E+00  0.00000000000E+00  0.14999999963E+04  0.15000000000E+04  0.10566000000E+00 0.  1.
        994   -1    0    0    0    0 -0.00000000000E+00 -0.00000000000E+00  0.11368683772E-12  0.17120000000E+03  0.17120000000E+03 0.  0.
         13    1    1    2    0    0  0.63119925510E+01  0.14707363042E+02  0.13957869652E+02  0.21236314814E+02  0.10566000000E+00 0.  1.
        994    1    1    2    0    0 -0.16204332778E+02 -0.15998450530E+02  0.90929509685E+01  0.17294696464E+03  0.17120000000E+03 0.  0.
        998    1    1    2    0    0  0.98923402273E+01  0.12910874875E+01  0.14769491757E+04  0.14770167205E+04  0.10000000000E+02 0.  1.
</event>
<event>
 5    1  0.1279376E-008  0.3786255E+03  0.7957747E-01  0.3457165E+00
         13   -1    0    0    0    0  0.00000000000E+00  0.00000000000E+00  0.14999999963E+04  0.15000000000E+04  0.10566000000E+00 0.  1.
        994   -1    0    0    0    0 -0.00000000000E+00 -0.00000000000E+00  0.11368683772E-12  0.17120000000E+03  0.17120000000E+03 0.  0.
         13    1    1    2    0    0 -0.20522909136E+02  0.14495359548E+02  0.60715023905E+02  0.65708679333E+02  0.10566000000E+00 0.  1.
        994    1    1    2    0    0  0.28378352522E+02 -0.84707956544E+01  0.77795919232E+01  0.17391678275E+03  0.17120000000E+03 0.  0.
        998    1    1    2    0    0 -0.78554433864E+01 -0.60245638933E+01  0.14315053805E+04  0.14315745379E+04  0.10000000000E+02 0.  1.
</event>
<event>
 5    1  0.1279376E-008  0.3807090E+03  0.7957747E-01  0.3448077E+00
         13   -1    0    0    0    0  0.00000000000E+00  0.00000000000E+00  0.14999999963E+04  0.15000000000E+04  0.10566000000E+00 0. -1.
        994   -1    0    0    0    0 -0.00000000000E+00 -0.00000000000E+00  0.11368683772E-12  0.17120000000E+03  0.17120000000E+03 0.  0.
         13    1    1    2    0    0 -0.51004709466E+02 -0.10700516206E+02  0.26488191380E+03  0.26996003567E+03  0.10566000000E+00 0. -1.
        994    1    1    2    0    0  0.63071714266E+02  0.15479957000E+02  0.17972408728E+02  0.18398401475E+03  0.17120000000E+03 0.  0.
        998    1    1    2    0    0 -0.12067004800E+02 -0.47794407936E+01  0.12171456737E+04  0.12172559496E+04  0.10000000000E+02 0. -1.
</event>
<event>
 5    1  0.1279376E-008  0.3808076E+03  0.7957747E-01  0.3447650E+00
         13   -1    0    0    0    0  0.00000000000E+00  0.00000000000E+00  0.14999999963E+04  0.15000000000E+04  0.10566000000E+00 0.  1.
        994   -1    0    0    0    0 -0.00000000000E+00 -0.00000000000E+00  0.11368683772E-12  0.17120000000E+03  0.17120000000E+03 0.  0.
         13    1    1    2    0    0  0.25852715169E+02 -0.28615407200E+02  0.22808356392E+03  0.23132083284E+03  0.10566000000E+00 0.  1.
        994    1    1    2    0    0 -0.39232707209E+01  0.44030061214E+01  0.38420058782E+01  0.17134462211E+03  0.17120000000E+03 0.  0.
        998    1    1    2    0    0 -0.21929444448E+02  0.24212401079E+02  0.12680744265E+04  0.12685345451E+04  0.10000000000E+02 0.  1.
</event>
<event>
 5    1  0.1279376E-008  0.3694408E+03  0.7957747E-01  0.3498465E+00
         13   -1    0    0    0    0  0.00000000000E+00  0.00000000000E+00  0.14999999963E+04  0.15000000000E+04  0.10566000000E+00 0.  1.
        994   -1    0    0    0    0 -0.00000000000E+00 -0.00000000000E+00  0.11368683772E-12  0.17120000000E+03  0.17120000000E+03 0.  0.
         13    1    1    2    0    0 -0.10029498823E+02  0.24967517282E+02  0.29439655833E+02  0.39883232886E+02  0.10566000000E+00 0.  1.
        994    1    1    2    0    0 -0.16742662937E+01 -0.24285786897E+02  0.12713830697E+02  0.17338882347E+03  0.17120000000E+03 0.  0.
        998    1    1    2    0    0  0.11703765116E+02 -0.68173038555E+00  0.14578465097E+04  0.14579279436E+04  0.10000000000E+02 0.  1.
</event>
<event>
 5    1  0.1279376E-008  0.3762229E+03  0.7957747E-01  0.3467772E+00
         13   -1    0    0    0    0  0.00000000000E+00  0.00000000000E+00  0.14999999963E+04  0.15000000000E+04  0.10566000000E+00 0.  1.
        994   -1    0    0    0    0 -0.00000000000E+00 -0.00000000000E+00  0.11368683772E-12  0.17120000000E+03  0.17120000000E+03 0.  0.
         13    1    1    2    0    0  0.33485784979E+02  0.34646521837E+02  0.15478093567E+03  0.16210745968E+03  0.10566000000E+00 0.  1.
        994    1    1    2    0    0 -0.53368647996E+02 -0.40872064073E+02  0.21505646824E+02  0.18517740428E+03  0.17120000000E+03 0.  0.
        998    1    1    2    0    0  0.19882863017E+02  0.62255422362E+01  0.13237134138E+04  0.13239151360E+04  0.10000000000E+02 0.  1.
</event>
<event>
 5    1  0.1279376E-008  0.3807044E+03  0.7957747E-01  0.3448097E+00
         13   -1    0    0    0    0  0.00000000000E+00  0.00000000000E+00  0.14999999963E+04  0.15000000000E+04  0.10566000000E+00 0.  1.
        994   -1    0    0    0    0 -0.00000000000E+00 -0.00000000000E+00  0.11368683772E-12  0.17120000000E+03  0.17120000000E+03 0.  0.
         13    1    1    2    0    0  0.30780167500E+02  0.97242387111E+01  0.12787392990E+03  0.13188530108E+03  0.10566000000E+00 0.  1.
        994    1    1    2    0    0 -0.27601791116E+02 -0.13096752067E+02  0.68972171045E+01  0.17404136115E+03  0.17120000000E+03 0.  0.
        998    1    1    2    0    0 -0.31783763840E+01  0.33725133556E+01  0.13652288493E+04  0.13652733378E+04  0.10000000000E+02 0.  1.
</event>
<event>
 5    1  0.1279376E-008  0.3811163E+03  0.7957747E-01  0.3446312E+00
         13   -1    0    0    0    0  0.00000000000E+00  0.00000000000E+00  0.14999999963E+04  0.15000000000E+04  0.10566000000E+00 0. -1.
        994   -1    0    0    0    0 -0.00000000000E+00 -0.00000000000E+00  0.11368683772E-12  0.17120000000E+03  0.17120000000E+03 0.  0.
         13    1    1    2    0    0  0.90939499067E+01  0.13610661542E+02  0.35478320492E+02  0.39072655675E+02  0.10566000000E+00 0. -1.
        994    1    1    2    0    0 -0.10600327823E+02 -0.12993476085E+02  0.45078330768E+01  0.17207834823E+03  0.17120000000E+03 0.  0.
        998    1    1    2    0    0  0.15063779167E+01 -0.61718545701E+00  0.14600138427E+04  0.14600489961E+04  0.10000000000E+02 0. -1.
</event>
<event>
 5    1  0.1279376E-008  0.3821849E+03  0.7957747E-01  0.3441700E+00
         13   -1    0    0    0    0  0.00000000000E+00  0.00000000000E+00  0.14999999963E+04  0.15000000000E+04  0.10566000000E+00 0. -1.
        994   -1    0    0    0    0 -0.00000000000E+00 -0.00000000000E+00  0.11368683772E-12  0.17120000000E+03  0.17120000000E+03 0.  0.
         13    1    1    2    0    0  0.16311870709E+02  0.57658504806E+01  0.51018992257E+02  0.53872728655E+02  0.10566000000E+00 0. -1.
        994    1    1    2    0    0  0.42401732141E+01 -0.82204761507E+01  0.33182743820E+01  0.17148179566E+03  0.17120000000E+03 0.  0.
        998    1    1    2    0    0 -0.20552043923E+02  0.24546256700E+01  0.14456627296E+04  0.14458454757E+04  0.10000000000E+02 0. -1.
</event>
<event>
 5    1  0.1279376E-008  0.3702016E+03  0.7957747E-01  0.3494965E+00
         13   -1    0    0    0    0  0.00000000000E+00  0.00000000000E+00  0.14999999963E+04  0.15000000000E+04  0.10566000000E+00 0.  1.
        994   -1    0    0    0    0 -0.00000000000E+00 -0.00000000000E+00  0.11368683772E-12  0.17120000000E+03  0.17120000000E+03 0.  0.
         13    1    1    2    0    0 -0.35814163033E+01  0.74726848524E+02  0.25037822200E+03  0.26131627131E+03  0.10566000000E+00 0.  1.
        994    1    1    2    0    0  0.59190811846E+01 -0.75594943801E+02  0.29301011160E+02  0.18951944572E+03  0.17120000000E+03 0.  0.
        998    1    1    2    0    0 -0.23376648813E+01  0.86809527769E+00  0.12203207631E+04  0.12203642830E+04  0.10000000000E+02 0.  1.
</event>
<event>
 5    1  0.1279376E-008  0.3833033E+03  0.7957747E-01  0.3436900E+00
         13   -1    0    0    0    0  0.00000000000E+00  0.00000000000E+00  0.14999999963E+04  0.15000000000E+04  0.10566000000E+00 0.  1.
        994   -1    0    0    0    0 -0.00000000000E+00 -0.00000000000E+00  0.11368683772E-12  0.17120000000E+03  0.17120000000E+03 0.  0.
         13    1    1    2    0    0 -0.76259240984E+01  0.14443599169E+02  0.55775854395E+02  0.58118236147E+02  0.10566000000E+00 0.  1.
        994    1    1    2    0    0  0.33821493218E+02  0.15454821145E+02  0.70608702344E+01  0.17533408336E+03  0.17120000000E+03 0.  0.
        998    1    1    2    0    0 -0.26195569119E+02 -0.29898420313E+02  0.14371632716E+04  0.14377476805E+04  0.10000000000E+02 0.  1.
</event>
<event>
 5    1  0.1279376E-008  0.3855760E+03  0.7957747E-01  0.3427233E+00
         13   -1    0    0    0    0  0.00000000000E+00  0.00000000000E+00  0.14999999963E+04  0.15000000000E+04  0.10566000000E+00 0. -1.
        994   -1    0    0    0    0 -0.00000000000E+00 -0.00000000000E+00  0.11368683772E-12  0.17120000000E+03  0.17120000000E+03 0.  0.
         13    1    1    2    0    0 -0.85059876673E+01  0.13030764531E+02  0.91764675735E+02  0.93074806082E+02  0.10566000000E+00 0. -1.
        994    1    1    2    0    0  0.51699857079E+01 -0.67721319658E+01  0.15827309428E+01  0.17141918084E+03  0.17120000000E+03 0.  0.
        998    1    1    2    0    0  0.33360019594E+01 -0.62586325649E+01  0.14066525896E+04  0.14067060131E+04  0.10000000000E+02 0. -1.
</event>
<event>
 5    1  0.1279376E-008  0.3813561E+03  0.7957747E-01  0.3445275E+00
         13   -1    0    0    0    0  0.00000000000E+00  0.00000000000E+00  0.14999999963E+04  0.15000000000E+04  0.10566000000E+00 0. -1.
        994   -1    0    0    0    0 -0.00000000000E+00 -0.00000000000E+00  0.11368683772E-12  0.17120000000E+03  0.17120000000E+03 0.  0.
         13    1    1    2    0    0  0.94542829514E+01  0.66666759507E+01  0.17827498636E+02  0.21252268256E+02  0.10566000000E+00 0. -1.
        994    1    1    2    0    0 -0.12852711905E+02 -0.12860645203E+01  0.40056039987E+01  0.17173331368E+03  0.17120000000E+03 0.  0.
        998    1    1    2    0    0  0.33984289537E+01 -0.53806114304E+01  0.14781668936E+04  0.14782144181E+04  0.10000000000E+02 0. -1.
</event>
<event>
 5    1  0.1279376E-008  0.3759750E+03  0.7957747E-01  0.3468874E+00
         13   -1    0    0    0    0  0.00000000000E+00  0.00000000000E+00  0.14999999963E+04  0.15000000000E+04  0.10566000000E+00 0.  1.
        994   -1    0    0    0    0 -0.00000000000E+00 -0.00000000000E+00  0.11368683772E-12  0.17120000000E+03  0.17120000000E+03 0.  0.
         13    1    1    2    0    0 -0.47449761351E+01  0.26512578428E+02  0.56063448232E+02  0.62197692924E+02  0.10566000000E+00 0.  1.
        994    1    1    2    0    0  0.13399072294E+02 -0.16804516760E+02  0.77455095646E+01  0.17271757247E+03  0.17120000000E+03 0.  0.
        998    1    1    2    0    0 -0.86540961593E+01 -0.97080616681E+01  0.14361910385E+04  0.14362847346E+04  0.10000000000E+02 0.  1.
</event>
<event>
 5    1  0.1279376E-008  0.3832069E+03  0.7957747E-01  0.3437313E+00
         13   -1    0    0    0    0  0.00000000000E+00  0.00000000000E+00  0.14999999963E+04  0.15000000000E+04  0.10566000000E+00 0.  1.
        994   -1    0    0    0    0 -0.00000000000E+00 -0.00000000000E+00  0.11368683772E-12  0.17120000000E+03  0.17120000000E+03 0.  0.
         13    1    1    2    0    0 -0.47555746040E+01 -0.19758679954E+02  0.79136685434E+02  0.81704633093E+02  0.10566000000E+00 0.  1.
        994    1    1    2    0    0  0.69318475467E+01  0.16175318329E+02  0.35480880683E+01  0.17213866609E+03  0.17120000000E+03 0.  0.
        998    1    1    2    0    0 -0.21762729426E+01  0.35833616252E+01  0.14173152228E+04  0.14173567008E+04  0.10000000000E+02 0.  1.
</event>
<event>
 5    1  0.1279376E-008  0.3842636E+03  0.7957747E-01  0.3432801E+00
         13   -1    0    0    0    0  0.00000000000E+00  0.00000000000E+00  0.14999999963E+04  0.15000000000E+04  0.10566000000E+00 0.  1.
        994   -1    0    0    0    0 -0.00000000000E+00 -0.00000000000E+00  0.11368683772E-12  0.17120000000E+03  0.17120000000E+03 0.  0.
         13    1    1    2    0    0 -0.13590553606E+02  0.53330350701E+01  0.57199483311E+02  0.59033350451E+02  0.10566000000E+00 0.  1.
        994    1    1    2    0    0 -0.11631114852E+01  0.82081873201E+01  0.22227702363E+01  0.17141501648E+03  0.17120000000E+03 0.  0.
        998    1    1    2    0    0  0.14753665091E+02 -0.13541222390E+02  0.14405777427E+04  0.14407516331E+04  0.10000000000E+02 0.  1.
</event>
<event>
 5    1  0.1279376E-008  0.3840920E+03  0.7957747E-01  0.3433532E+00
         13   -1    0    0    0    0  0.00000000000E+00  0.00000000000E+00  0.14999999963E+04  0.15000000000E+04  0.10566000000E+00 0. -1.
        994   -1    0    0    0    0 -0.00000000000E+00 -0.00000000000E+00  0.11368683772E-12  0.17120000000E+03  0.17120000000E+03 0.  0.
         13    1    1    2    0    0  0.14138765606E+02  0.20403966632E+01  0.49386503761E+02  0.51411144990E+02  0.10566000000E+00 0. -1.
        994    1    1    2    0    0 -0.60753004943E+01 -0.11400757333E+01  0.22076618762E+01  0.17132577979E+03  0.17120000000E+03 0.  0.
        998    1    1    2    0    0 -0.80634651118E+01 -0.90032092986E+00  0.14484058306E+04  0.14484630752E+04  0.10000000000E+02 0. -1.
</event>
<event>
 5    1  0.1279376E-008  0.3749456E+03  0.7957747E-01  0.3473466E+00
         13   -1    0    0    0    0  0.00000000000E+00  0.00000000000E+00  0.14999999963E+04  0.15000000000E+04  0.10566000000E+00 0. -1.
        994   -1    0    0    0    0 -0.00000000000E+00 -0.00000000000E+00  0.11368683772E-12  0.17120000000E+03  0.17120000000E+03 0.  0.
         13    1    1    2    0    0 -0.32730977646E+02 -0.99328211808E+01  0.85930704560E+02  0.92488242412E+02  0.10566000000E+00 0. -1.
        994    1    1    2    0    0  0.13460312579E+02  0.17537938964E+02  0.83701100575E+01  0.17282435610E+03  0.17120000000E+03 0.  0.
        998    1    1    2    0    0  0.19270665068E+02 -0.76051177834E+01  0.14056991817E+04  0.14058874015E+04  0.10000000000E+02 0. -1.
</event>
<event>
 5    1  0.1279376E-008  0.3863003E+03  0.7957747E-01  0.3424176E+00
         13   -1    0    0    0    0  0.00000000000E+00  0.00000000000E+00  0.14999999963E+04  0.15000000000E+04  0.10566000000E+00 0. -1.
        994   -1    0    0    0    0 -0.00000000000E+00 -0.00000000000E+00  0.11368683772E-12  0.17120000000E+03  0.17120000000E+03 0.  0.
         13    1    1    2    0    0  0.44218279491E+01  0.10286731018E+02  0.59217233060E+02  0.60266584877E+02  0.10566000000E+00 0. -1.
        994    1    1    2    0    0 -0.11399182915E+02 -0.15958251631E+02  0.22464556435E+01  0.17233425002E+03  0.17120000000E+03 0.  0.
        998    1    1    2    0    0  0.69773549658E+01  0.56715206127E+01  0.14385363076E+04  0.14385991651E+04  0.10000000000E+02 0. -1.
</event>
<event>
 5    1  0.1279376E-008  0.3733267E+03  0.7957747E-01  0.3480740E+00
         13   -1    0    0    0    0  0.00000000000E+00  0.00000000000E+00  0.14999999963E+04  0.15000000000E+04  0.10566000000E+00 0. -1.
        994   -1    0    0    0    0 -0.00000000000E+00 -0.00000000000E+00  0.11368683772E-12  0.17120000000E+03  0.17120000000E+03 0.  0.
         13    1    1    2    0    0  0.30483092032E+02 -0.85466213283E+02  0.44437937109E+03  0.45354903718E+03  0.10566000000E+00 0. -1.
        994    1    1    2    0    0  0.40253111888E+01  0.82531862020E+02  0.31253497435E+02  0.19264976637E+03  0.17120000000E+03 0.  0.
        998    1    1    2    0    0 -0.34508403221E+02  0.29343512631E+01  0.10243671278E+04  0.10250011965E+04  0.10000000000E+02 0. -1.
</event>
<event>
 5    1  0.1279376E-008  0.3837863E+03  0.7957747E-01  0.3434836E+00
         13   -1    0    0    0    0  0.00000000000E+00  0.00000000000E+00  0.14999999963E+04  0.15000000000E+04  0.10566000000E+00 0.  1.
        994   -1    0    0    0    0 -0.00000000000E+00 -0.00000000000E+00  0.11368683772E-12  0.17120000000E+03  0.17120000000E+03 0.  0.
         13    1    1    2    0    0  0.22352175595E+02  0.16312305178E+02  0.14275060543E+03  0.14540790064E+03  0.10566000000E+00 0.  1.
        994    1    1    2    0    0 -0.25277046686E+02 -0.32482695800E+02  0.78472658033E+01  0.17625287004E+03  0.17120000000E+03 0.  0.
        998    1    1    2    0    0  0.29248710905E+01  0.16170390622E+02  0.13494021250E+04  0.13495392293E+04  0.10000000000E+02 0.  1.
</event>
<event>
 5    1  0.1279376E-008  0.3800218E+03  0.7957747E-01  0.3451064E+00
         13   -1    0    0    0    0  0.00000000000E+00  0.00000000000E+00  0.14999999963E+04  0.15000000000E+04  0.10566000000E+00 0. -1.
        994   -1    0    0    0    0 -0.00000000000E+00 -0.00000000000E+00  0.11368683772E-12  0.17120000000E+03  0.17120000000E+03 0.  0.
         13    1    1    2    0    0 -0.30697376304E+02  0.44509501139E+01  0.27602049262E+02  0.41521369876E+02  0.10566000000E+00 0. -1.
        994    1    1    2    0    0 -0.67344611239E+02 -0.94316974611E+01  0.33293936867E+02  0.18719556568E+03  0.17120000000E+03 0.  0.
        998    1    1    2    0    0  0.98041987543E+02  0.49807473472E+01  0.14391040101E+04  0.14424830644E+04  0.10000000000E+02 0. -1.
</event>
<event>
 5    1  0.1279376E-008  0.3835870E+03  0.7957747E-01  0.3435687E+00
         13   -1    0    0    0    0  0.00000000000E+00  0.00000000000E+00  0.14999999963E+04  0.15000000000E+04  0.10566000000E+00 0.  1.
        994   -1    0    0    0    0 -0.00000000000E+00 -0.00000000000E+00  0.11368683772E-12  0.17120000000E+03  0.17120000000E+03 0.  0.
         13    1    1    2    0    0  0.47371203874E+00 -0.24854123399E+02  0.13224302016E+03  0.13455920407E+03  0.10566000000E+00 0.  1.
        994    1    1    2    0    0 -0.11675237136E+02  0.14690541644E+02  0.34975060445E+01  0.17226083630E+03  0.17120000000E+03 0.  0.
        998    1    1    2    0    0  0.11201525097E+02  0.10163581755E+02  0.13642594701E+04  0.13643799596E+04  0.10000000000E+02 0.  1.
</event>
<event>
 5    1  0.1279376E-008  0.3704666E+03  0.7957747E-01  0.3493749E+00
         13   -1    0    0    0    0  0.00000000000E+00  0.00000000000E+00  0.14999999963E+04  0.15000000000E+04  0.10566000000E+00 0.  1.
        994   -1    0    0    0    0 -0.00000000000E+00 -0.00000000000E+00  0.11368683772E-12  0.17120000000E+03  0.17120000000E+03 0.  0.
         13    1    1    2    0    0  0.38390121011E+02 -0.14141773597E+02  0.93541130767E+02  0.10209674559E+03  0.10566000000E+00 0.  1.
        994    1    1    2    0    0 -0.10225106239E+02  0.12140634966E+02  0.98956048892E+01  0.17221878763E+03  0.17120000000E+03 0.  0.
        998    1    1    2    0    0 -0.28165014772E+02  0.20011386317E+01  0.13965632606E+04  0.13968844668E+04  0.10000000000E+02 0.  1.
</event>
<event>
 5    1  0.1279376E-008  0.3834146E+03  0.7957747E-01  0.3436424E+00
         13   -1    0    0    0    0  0.00000000000E+00  0.00000000000E+00  0.14999999963E+04  0.15000000000E+04  0.10566000000E+00 0. -1.
        994   -1    0    0    0    0 -0.00000000000E+00 -0.00000000000E+00  0.11368683772E-12  0.17120000000E+03  0.17120000000E+03 0.  0.
         13    1    1    2    0    0 -0.17525290187E+02  0.93505239170E+01  0.78066312674E+02  0.80553885270E+02  0.10566000000E+00 0. -1.
        994    1    1    2    0    0  0.18533616174E+02 -0.54249421037E+01  0.36530447839E+01  0.17232443141E+03  0.17120000000E+03 0.  0.
        998    1    1    2    0    0 -0.10083259870E+01 -0.39255818134E+01  0.14182806388E+04  0.14183216833E+04  0.10000000000E+02 0. -1.
</event>
<event>
 5    1  0.1279376E-008  0.3839202E+03  0.7957747E-01  0.3434265E+00
         13   -1    0    0    0    0  0.00000000000E+00  0.00000000000E+00  0.14999999963E+04  0.15000000000E+04  0.10566000000E+00 0. -1.
        994   -1    0    0    0    0 -0.00000000000E+00 -0.00000000000E+00  0.11368683772E-12  0.17120000000E+03  0.17120000000E+03 0.  0.
         13    1    1    2    0    0  0.87493595267E+01 -0.12597251044E+02  0.53650956522E+02  0.55800343420E+02  0.10566000000E+00 0. -1.
        994    1    1    2    0    0 -0.57633393991E+01  0.89393034142E+01  0.25406257526E+01  0.17154889101E+03  0.17120000000E+03 0.  0.
        998    1    1    2    0    0 -0.29860201277E+01  0.36579476302E+01  0.14438084140E+04  0.14438507656E+04  0.10000000000E+02 0. -1.
</event>
<event>
 5    1  0.1279376E-008  0.3737547E+03  0.7957747E-01  0.3478811E+00
         13   -1    0    0    0    0  0.00000000000E+00  0.00000000000E+00  0.14999999963E+04  0.15000000000E+04  0.10566000000E+00 0.  1.
        994   -1    0    0    0    0 -0.00000000000E+00 -0.00000000000E+00  0.11368683772E-12  0.17120000000E+03  0.17120000000E+03 0.  0.
         13    1    1    2    0    0  0.90497485035E+01  0.18305980482E+02  0.24979649499E+02  0.32264545906E+02  0.10566000000E+00 0.  1.
        994    1    1    2    0    0 -0.65540185065E+01 -0.20300356780E+02  0.88744833569E+01  0.17275200751E+03  0.17120000000E+03 0.  0.
        998    1    1    2    0    0 -0.24957299971E+01  0.19943762977E+01  0.14661458634E+04  0.14661834466E+04  0.10000000000E+02 0.  1.
</event>
<event>
 5    1  0.1279376E-008  0.3849112E+03  0.7957747E-01  0.3430049E+00
         13   -1    0    0    0    0  0.00000000000E+00  0.00000000000E+00  0.14999999963E+04  0.15000000000E+04  0.10566000000E+00 0.  1.
        994   -1    0    0    0    0 -0.00000000000E+00 -0.00000000000E+00  0.11368683772E-12  0.17120000000E+03  0.17120000000E+03 0.  0.
         13    1    1    2    0    0  0.97842818035E+01  0.51146724998E+01  0.42130131256E+02  0.43552854888E+02  0.10566000000E+00 0.  1.
        994    1    1    2    0    0  0.17477397669E+02  0.13220657371E+02  0.32556462260E+01  0.17262758888E+03  0.17120000000E+03 0.  0.
        998    1    1    2    0    0 -0.27261679473E+02 -0.18335329871E+02  0.14546142188E+04  0.14550195562E+04  0.10000000000E+02 0.  1.
</event>
<event>
 5    1  0.1279376E-008  0.3829744E+03  0.7957747E-01  0.3438309E+00
         13   -1    0    0    0    0  0.00000000000E+00  0.00000000000E+00  0.14999999963E+04  0.15000000000E+04  0.10566000000E+00 0. -1.
        994   -1    0    0    0    0 -0.00000000000E+00 -0.00000000000E+00  0.11368683772E-12  0.17120000000E+03  0.17120000000E+03 0.  0.
         13    1    1    2    0    0 -0.11019695002E+02  0.22356063315E+02  0.11733226698E+03  0.11995040343E+03  0.10566000000E+00 0. -1.
        994    1    1    2    0    0  0.33469320983E+01 -0.14767777819E+02  0.33985439975E+01  0.17190194681E+03  0.17120000000E+03 0.  0.
        998    1    1    2    0    0  0.76727629041E+01 -0.75882854959E+01  0.13792691853E+04  0.13793476498E+04  0.10000000000E+02 0. -1.
</event>
<event>
 5    1  0.1279376E-008  0.3846990E+03  0.7957747E-01  0.3430950E+00
         13   -1    0    0    0    0  0.00000000000E+00  0.00000000000E+00  0.14999999963E+04  0.15000000000E+04  0.10566000000E+00 0. -1.
        994   -1    0    0    0    0 -0.00000000000E+00 -0.00000000000E+00  0.11368683772E-12  0.17120000000E+03  0.17120000000E+03 0.  0.
         13    1    1    2    0    0 -0.11933156807E+02  0.10697193509E+02  0.73904606052E+02  0.75622299225E+02  0.10566000000E+00 0. -1.
        994    1    1    2    0    0  0.15126139981E+02  0.67030718342E+01  0.26812314832E+01  0.17201848821E+03  0.17120000000E+03 0.  0.
        998    1    1    2    0    0 -0.31929831737E+01 -0.17400265344E+02  0.14234141587E+04  0.14235592126E+04  0.10000000000E+02 0. -1.
</event>
<event>
 5    1  0.1279376E-008  0.3831406E+03  0.7957747E-01  0.3437597E+00
         13   -1    0    0    0    0  0.00000000000E+00  0.00000000000E+00  0.14999999963E+04  0.15000000000E+04  0.10566000000E+00 0.  1.
        994   -1    0    0    0    0 -0.00000000000E+00 -0.00000000000E+00  0.11368683772E-12  0.17120000000E+03  0.17120000000E+03 0.  0.
         13    1    1    2    0    0 -0.30723791625E+01  0.14464072900E+02  0.43095424060E+02  0.45561778472E+02  0.10566000000E+00 0.  1.
        994    1    1    2    0    0  0.10937836863E+02 -0.16455015681E+01  0.29610094698E+01  0.17158249190E+03  0.17120000000E+03 0.  0.
        998    1    1    2    0    0 -0.78654577004E+01 -0.12818571332E+02  0.14539435627E+04  0.14540557296E+04  0.10000000000E+02 0.  1.
</event>
<event>
 5    1  0.1279376E-008  0.3804150E+03  0.7957747E-01  0.3449354E+00
         13   -1    0    0    0    0  0.00000000000E+00  0.00000000000E+00  0.14999999963E+04  0.15000000000E+04  0.10566000000E+00 0. -1.
        994   -1    0    0    0    0 -0.00000000000E+00 -0.00000000000E+00  0.11368683772E-12  0.17120000000E+03  0.17120000000E+03 0.  0.
         13    1    1    2    0    0 -0.38754416187E+01 -0.12970544681E+02  0.21923997161E+02  0.25766778856E+02  0.10566000000E+00 0. -1.
        994    1    1    2    0    0 -0.29408908014E+01  0.76758171161E+01  0.41494110431E+01  0.17144743981E+03  0.17120000000E+03 0.  0.
        998    1    1    2    0    0  0.68163324201E+01  0.52947275647E+01  0.14739265881E+04  0.14739857813E+04  0.10000000000E+02 0. -1.
</event>
<event>
 5    1  0.1279376E-008  0.3741942E+03  0.7957747E-01  0.3476834E+00
         13   -1    0    0    0    0  0.00000000000E+00  0.00000000000E+00  0.14999999963E+04  0.15000000000E+04  0.10566000000E+00 0.  1.
        994   -1    0    0    0    0 -0.00000000000E+00 -0.00000000000E+00  0.11368683772E-12  0.17120000000E+03  0.17120000000E+03 0.  0.
         13    1    1    2    0    0  0.56827986357E+01 -0.13617010257E+02  0.11441827359E+02  0.18672004338E+02  0.10566000000E+00 0.  1.
        994    1    1    2    0    0 -0.83526830992E+01  0.37133298937E+02  0.12046807103E+02  0.17579310216E+03  0.17120000000E+03 0.  0.
        998    1    1    2    0    0  0.26698844635E+01 -0.23516288680E+02  0.14765113618E+04  0.14767348935E+04  0.10000000000E+02 0.  1.
</event>
<event>
 5    1  0.1279376E-008  0.3818618E+03  0.7957747E-01  0.3443092E+00
         13   -1    0    0    0    0  0.00000000000E+00  0.00000000000E+00  0.14999999963E+04  0.15000000000E+04  0.10566000000E+00 0. -1.
        994   -1    0    0    0    0 -0.00000000000E+00 -0.00000000000E+00  0.11368683772E-12  0.17120000000E+03  0.17120000000E+03 0.  0.
         13    1    1    2    0    0  0.10402318622E+02  0.52429538631E+01  0.20837739094E+02  0.23872983318E+02  0.10566000000E+00 0. -1.
        994    1    1    2    0    0  0.14148822883E+02 -0.13466053485E+02  0.44649144442E+01  0.17236849842E+03  0.17120000000E+03 0.  0.
        998    1    1    2    0    0 -0.24551141506E+02  0.82230996223E+01  0.14746973427E+04  0.14749585183E+04  0.10000000000E+02 0. -1.
</event>
<event>
 5    1  0.1279376E-008  0.3814691E+03  0.7957747E-01  0.3444786E+00
         13   -1    0    0    0    0  0.00000000000E+00  0.00000000000E+00  0.14999999963E+04  0.15000000000E+04  0.10566000000E+00 0.  1.
        994   -1    0    0    0    0 -0.00000000000E+00 -0.00000000000E+00  0.11368683772E-12  0.17120000000E+03  0.17120000000E+03 0.  0.
         13    1    1    2    0    0 -0.18894122781E+02 -0.18583064224E+02  0.98382317822E+02  0.10188920343E+03  0.10566000000E+00 0.  1.
        994    1    1    2    0    0  0.13855077360E+02  0.19270402491E+02  0.52696199441E+01  0.17291766964E+03  0.17120000000E+03 0.  0.
        998    1    1    2    0    0  0.50390454217E+01 -0.68733826676E+00  0.13963480585E+04  0.13963931269E+04  0.10000000000E+02 0.  1.
</event>
<event>
 5    1  0.1279376E-008  0.3691787E+03  0.7957747E-01  0.3499674E+00
         13   -1    0    0    0    0  0.00000000000E+00  0.00000000000E+00  0.14999999963E+04  0.15000000000E+04  0.10566000000E+00 0. -1.
        994   -1    0    0    0    0 -0.00000000000E+00 -0.00000000000E+00  0.11368683772E-12  0.17120000000E+03  0.17120000000E+03 0.  0.
         13    1    1    2    0    0 -0.46354359052E+01  0.24843041954E+02  0.25677916149E+02  0.36028190925E+02  0.10566000000E+00 0. -1.
        994    1    1    2    0    0  0.57155074905E+01 -0.23114588713E+02  0.12484025781E+02  0.17329813079E+03  0.17120000000E+03 0.  0.
        998    1    1    2    0    0 -0.10800715853E+01 -0.17284532409E+01  0.14618380543E+04  0.14618736783E+04  0.10000000000E+02 0. -1.
</event>
<event>
 5    1  0.1279376E-008  0.3813338E+03  0.7957747E-01  0.3445371E+00
         13   -1    0    0    0    0  0.00000000000E+00  0.00000000000E+00  0.14999999963E+04  0.15000000000E+04  0.10566000000E+00 0.  1.
        994   -1    0    0    0    0 -0.00000000000E+00 -0.00000000000E+00  0.11368683772E-12  0.17120000000E+03  0.17120000000E+03 0.  0.
         13    1    1    2    0    0 -0.91318891809E+01  0.58111313158E+01  0.15405760617E+02  0.18828416593E+02  0.10566000000E+00 0.  1.
        994    1    1    2    0    0  0.72742175692E+01 -0.62273761357E+01  0.37665956038E+01  0.17150895515E+03  0.17120000000E+03 0.  0.
        998    1    1    2    0    0  0.18576716117E+01  0.41624481994E+00  0.14808276401E+04  0.14808626283E+04  0.10000000000E+02 0.  1.
</event>
<event>
 5    1  0.1279376E-008  0.3819364E+03  0.7957747E-01  0.3442770E+00
         13   -1    0    0    0    0  0.00000000000E+00  0.00000000000E+00  0.14999999963E+04  0.15000000000E+04  0.10566000000E+00 0. -1.
        994   -1    0    0    0    0 -0.00000000000E+00 -0.00000000000E+00  0.11368683772E-12  0.17120000000E+03  0.17120000000E+03 0.  0.
         13    1    1    2    0    0 -0.13966551227E+01 -0.48837092414E+02  0.25857929845E+03  0.26315447363E+03  0.10566000000E+00 0. -1.
        994    1    1    2    0    0  0.24412633950E+02  0.69820544046E+02  0.21549403567E+02  0.18773572346E+03  0.17120000000E+03 0.  0.
        998    1    1    2    0    0 -0.23015978827E+02 -0.20983451632E+02  0.12198712943E+04  0.12203098029E+04  0.10000000000E+02 0. -1.
</event>
<event>
 5    1  0.1279376E-008  0.3854028E+03  0.7957747E-01  0.3427966E+00
         13   -1    0    0    0    0  0.00000000000E+00  0.00000000000E+00  0.14999999963E+04  0.15000000000E+04  0.10566000000E+00 0. -1.
        994   -1    0    0    0    0 -0.00000000000E+00 -0.00000000000E+00  0.11368683772E-12  0.17120000000E+03  0.17120000000E+03 0.  0.
         13    1    1    2    0    0 -0.18238302255E+02  0.28843366605E+01  0.11095475359E+03  0.11248076981E+03  0.10566000000E+00 0. -1.
        994    1    1    2    0    0  0.20052630947E+02 -0.32637028809E+01  0.27871224372E+01  0.17242380293E+03  0.17120000000E+03 0.  0.
        998    1    1    2    0    0 -0.18143286913E+01  0.37936622043E+00  0.13862581202E+04  0.13862954273E+04  0.10000000000E+02 0.  0.
</event>
<event>
 5    1  0.1279376E-008  0.3837938E+03  0.7957747E-01  0.3434804E+00
         13   -1    0    0    0    0  0.00000000000E+00  0.00000000000E+00  0.14999999963E+04  0.15000000000E+04  0.10566000000E+00 0.  1.
        994   -1    0    0    0    0 -0.00000000000E+00 -0.00000000000E+00  0.11368683772E-12  0.17120000000E+03  0.17120000000E+03 0.  0.
         13    1    1    2    0    0 -0.11210677506E+02 -0.51198133909E+01  0.33467508416E+02  0.35664787437E+02  0.10566000000E+00 0.  1.
        994    1    1    2    0    0  0.60226230771E+01  0.62189776764E+01  0.24776860022E+01  0.17143665477E+03  0.17120000000E+03 0.  0.
        998    1    1    2    0    0  0.51880544286E+01 -0.10991642855E+01  0.14640548019E+04  0.14640985578E+04  0.10000000000E+02 0.  1.
</event>
<event>
 5    1  0.1279376E-008  0.3748735E+03  0.7957747E-01  0.3473789E+00
         13   -1    0    0    0    0  0.00000000000E+00  0.00000000000E+00  0.14999999963E+04  0.15000000000E+04  0.10566000000E+00 0. -1.
        994   -1    0    0    0    0 -0.00000000000E+00 -0.00000000000E+00  0.11368683772E-12  0.17120000000E+03  0.17120000000E+03 0.  0.
         13    1    1    2    0    0 -0.19998351064E+02  0.19600385242E+02  0.54427063635E+02  0.61208051487E+02  0.10566000000E+00 0. -1.
        994    1    1    2    0    0  0.10758889118E+02 -0.23995208183E+02  0.90989161733E+01  0.17344668918E+03  0.17120000000E+03 0.  0.
        998    1    1    2    0    0  0.92394619465E+01  0.43948229406E+01  0.14364740165E+04  0.14365452593E+04  0.10000000000E+02 0. -1.
</event>
<event>
 5    1  0.1279376E-008  0.3852985E+03  0.7957747E-01  0.3428407E+00
         13   -1    0    0    0    0  0.00000000000E+00  0.00000000000E+00  0.14999999963E+04  0.15000000000E+04  0.10566000000E+00 0. -1.
        994   -1    0    0    0    0 -0.00000000000E+00 -0.00000000000E+00  0.11368683772E-12  0.17120000000E+03  0.17120000000E+03 0.  0.
         13    1    1    2    0    0  0.97693882619E+01  0.12488438937E+02  0.80738432669E+02  0.82280664363E+02  0.10566000000E+00 0. -1.
        994    1    1    2    0    0 -0.83812065532E+01 -0.15646676321E+02  0.25178364243E+01  0.17213611650E+03  0.17120000000E+03 0.  0.
        998    1    1    2    0    0 -0.13881817087E+01  0.31582373844E+01  0.14167437272E+04  0.14167832191E+04  0.10000000000E+02 0. -1.
</event>
<event>
 5    1  0.1279376E-008  0.3510980E+03  0.7957747E-01  0.3587543E+00
         13   -1    0    0    0    0  0.00000000000E+00  0.00000000000E+00  0.14999999963E+04  0.15000000000E+04  0.10566000000E+00 0.  1.
        994   -1    0    0    0    0 -0.00000000000E+00 -0.00000000000E+00  0.11368683772E-12  0.17120000000E+03  0.17120000000E+03 0.  0.
         13    1    1    2    0    0  0.27157255582E+03 -0.10616359167E+03  0.74935863254E+03  0.80409000279E+03  0.10566000000E+00 0.  1.
        994    1    1    2    0    0 -0.26894244784E+03  0.10856820705E+03  0.42952824836E+03  0.54582144697E+03  0.17120000000E+03 0.  0.
        998    1    1    2    0    0 -0.26301079755E+01 -0.24046153765E+01  0.32111311538E+03  0.32128855024E+03  0.10000000000E+02 0.  0.
</event>
<event>
 5    1  0.1279376E-008  0.3788645E+03  0.7957747E-01  0.3456118E+00
         13   -1    0    0    0    0  0.00000000000E+00  0.00000000000E+00  0.14999999963E+04  0.15000000000E+04  0.10566000000E+00 0.  1.
        994   -1    0    0    0    0 -0.00000000000E+00 -0.00000000000E+00  0.11368683772E-12  0.17120000000E+03  0.17120000000E+03 0.  0.
         13    1    1    2    0    0  0.24560746149E+02  0.10519504941E+02  0.16741294778E+02  0.31530498735E+02  0.10566000000E+00 0.  1.
        994    1    1    2    0    0 -0.66155300543E+01  0.45156565515E+01  0.15936642645E+02  0.17212661901E+03  0.17120000000E+03 0.  0.
        998    1    1    2    0    0 -0.17945216095E+02 -0.15035161492E+02  0.14673220589E+04  0.14675428823E+04  0.10000000000E+02 0.  1.
</event>
<event>
 5    1  0.1279376E-008  0.3761493E+03  0.7957747E-01  0.3468099E+00
         13   -1    0    0    0    0  0.00000000000E+00  0.00000000000E+00  0.14999999963E+04  0.15000000000E+04  0.10566000000E+00 0. -1.
        994   -1    0    0    0    0 -0.00000000000E+00 -0.00000000000E+00  0.11368683772E-12  0.17120000000E+03  0.17120000000E+03 0.  0.
         13    1    1    2    0    0 -0.24996668172E+02  0.20585056144E+02  0.82180478858E+02  0.88330177321E+02  0.10566000000E+00 0. -1.
        994    1    1    2    0    0  0.28403860125E+02 -0.53429878097E+01  0.89233885115E+01  0.17385164265E+03  0.17120000000E+03 0.  0.
        998    1    1    2    0    0 -0.34071919527E+01 -0.15242068334E+02  0.14088961289E+04  0.14090181800E+04  0.10000000000E+02 0. -1.
</event>
<event>
 5    1  0.1279376E-008  0.3836878E+03  0.7957747E-01  0.3435256E+00
         13   -1    0    0    0    0  0.00000000000E+00  0.00000000000E+00  0.14999999963E+04  0.15000000000E+04  0.10566000000E+00 0.  1.
        994   -1    0    0    0    0 -0.00000000000E+00 -0.00000000000E+00  0.11368683772E-12  0.17120000000E+03  0.17120000000E+03 0.  0.
         13    1    1    2    0    0 -0.21591808911E+02  0.14200035862E+02  0.13614527780E+03  0.13857631494E+03  0.10566000000E+00 0.  1.
        994    1    1    2    0    0  0.21462852731E+02 -0.11688676792E+02  0.42581422143E+01  0.17298800822E+03  0.17120000000E+03 0.  0.
        998    1    1    2    0    0  0.12895617998E+00 -0.25113590700E+01  0.13595965763E+04  0.13596356768E+04  0.10000000000E+02 0.  1.
</event>
<event>
 5    1  0.1279376E-008  0.3739234E+03  0.7957747E-01  0.3478052E+00
         13   -1    0    0    0    0  0.00000000000E+00  0.00000000000E+00  0.14999999963E+04  0.15000000000E+04  0.10566000000E+00 0.  1.
        994   -1    0    0    0    0 -0.00000000000E+00 -0.00000000000E+00  0.11368683772E-12  0.17120000000E+03  0.17120000000E+03 0.  0.
         13    1    1    2    0    0 -0.43599197639E+01 -0.11920594072E+03  0.46411158578E+03  0.47919582680E+03  0.10566000000E+00 0.  1.
        994    1    1    2    0    0 -0.17146045951E+02  0.91553345713E+02  0.44458257956E+02  0.19990492416E+03  0.17120000000E+03 0.  0.
        998    1    1    2    0    0  0.21505965715E+02  0.27652595012E+02  0.99143015254E+03  0.99209924904E+03  0.10000000000E+02 0.  1.
</event>
<event>
 5    1  0.1279376E-008  0.3855850E+03  0.7957747E-01  0.3427195E+00
         13   -1    0    0    0    0  0.00000000000E+00  0.00000000000E+00  0.14999999963E+04  0.15000000000E+04  0.10566000000E+00 0.  1.
        994   -1    0    0    0    0 -0.00000000000E+00 -0.00000000000E+00  0.11368683772E-12  0.17120000000E+03  0.17120000000E+03 0.  0.
         13    1    1    2    0    0  0.39821288376E+01  0.13921223978E+02  0.82898394742E+02  0.84153507603E+02  0.10566000000E+00 0.  1.
        994    1    1    2    0    0  0.10621879808E+02 -0.63284601796E+01  0.18419276010E+01  0.17165577892E+03  0.17120000000E+03 0.  0.
        998    1    1    2    0    0 -0.14604008646E+02 -0.75927637987E+01  0.14152596739E+04  0.14153907135E+04  0.10000000000E+02 0.  1.
</event>
<event>
 5    1  0.1279376E-008  0.3814941E+03  0.7957747E-01  0.3444678E+00
         13   -1    0    0    0    0  0.00000000000E+00  0.00000000000E+00  0.14999999963E+04  0.15000000000E+04  0.10566000000E+00 0. -1.
        994   -1    0    0    0    0 -0.00000000000E+00 -0.00000000000E+00  0.11368683772E-12  0.17120000000E+03  0.17120000000E+03 0.  0.
         13    1    1    2    0    0  0.11659195880E+02  0.19286047439E+00  0.18729340885E+02  0.22062942182E+02  0.10566000000E+00 0. -1.
        994    1    1    2    0    0 -0.83390628426E+01 -0.27767705502E+00  0.36124300313E+01  0.17144126319E+03  0.17120000000E+03 0.  0.
        998    1    1    2    0    0 -0.33201330370E+01  0.84816580633E-01  0.14776582254E+04  0.14776957946E+04  0.10000000000E+02 0. -1.
</event>
<event>
 5    1  0.1279376E-008  0.3769927E+03  0.7957747E-01  0.3464358E+00
         13   -1    0    0    0    0  0.00000000000E+00  0.00000000000E+00  0.14999999963E+04  0.15000000000E+04  0.10566000000E+00 0. -1.
        994   -1    0    0    0    0 -0.00000000000E+00 -0.00000000000E+00  0.11368683772E-12  0.17120000000E+03  0.17120000000E+03 0.  0.
         13    1    1    2    0    0  0.16703184464E+02 -0.10614436691E+02  0.31950493358E+02  0.37583345079E+02  0.10566000000E+00 0. -1.
        994    1    1    2    0    0 -0.16906204685E+02  0.56553624652E+01  0.67327794720E+01  0.17225728780E+03  0.17120000000E+03 0.  0.
        998    1    1    2    0    0  0.20302022060E+00  0.49590742260E+01  0.14613167234E+04  0.14613593671E+04  0.10000000000E+02 0. -1.
</event>
<event>
 5    1  0.1279376E-008  0.3862619E+03  0.7957747E-01  0.3424338E+00
         13   -1    0    0    0    0  0.00000000000E+00  0.00000000000E+00  0.14999999963E+04  0.15000000000E+04  0.10566000000E+00 0. -1.
        994   -1    0    0    0    0 -0.00000000000E+00 -0.00000000000E+00  0.11368683772E-12  0.17120000000E+03  0.17120000000E+03 0.  0.
         13    1    1    2    0    0 -0.52043143571E+01 -0.10518368500E+02  0.69076978767E+02  0.70066833262E+02  0.10566000000E+00 0. -1.
        994    1    1    2    0    0  0.56023318090E+01  0.70388448438E+01  0.12700198983E+01  0.17144090646E+03  0.17120000000E+03 0.  0.
        998    1    1    2    0    0 -0.39801745190E+00  0.34795236563E+01  0.14296529976E+04  0.14296922603E+04  0.10000000000E+02 0. -1.
</event>
<event>
 5    1  0.1279376E-008  0.3717416E+03  0.7957747E-01  0.3487925E+00
         13   -1    0    0    0    0  0.00000000000E+00  0.00000000000E+00  0.14999999963E+04  0.15000000000E+04  0.10566000000E+00 0.  1.
        994   -1    0    0    0    0 -0.00000000000E+00 -0.00000000000E+00  0.11368683772E-12  0.17120000000E+03  0.17120000000E+03 0.  0.
         13    1    1    2    0    0 -0.35822373460E+02 -0.77356838685E+02  0.45275289853E+03  0.46070871624E+03  0.10566000000E+00 0.  1.
        994    1    1    2    0    0  0.12417774984E+02 -0.46940411760E+01  0.12482838442E+02  0.17216705961E+03  0.17120000000E+03 0.  0.
        998    1    1    2    0    0  0.23404598476E+02  0.82050879861E+02  0.10347642593E+04  0.10383242242E+04  0.10000000000E+02 0.  1.
</event>
<event>
 5    1  0.1279376E-008  0.3855396E+03  0.7957747E-01  0.3427387E+00
         13   -1    0    0    0    0  0.00000000000E+00  0.00000000000E+00  0.14999999963E+04  0.15000000000E+04  0.10566000000E+00 0.  1.
        994   -1    0    0    0    0 -0.00000000000E+00 -0.00000000000E+00  0.11368683772E-12  0.17120000000E+03  0.17120000000E+03 0.  0.
         13    1    1    2    0    0  0.14476618936E+02 -0.13993673406E+01  0.78411671710E+02  0.79749182749E+02  0.10566000000E+00 0.  1.
        994    1    1    2    0    0 -0.88219790313E+01  0.14736856048E+01  0.16251656730E+01  0.17144118591E+03  0.17120000000E+03 0.  0.
        998    1    1    2    0    0 -0.56546399043E+01 -0.74318264152E-01  0.14199631589E+04  0.14200096313E+04  0.10000000000E+02 0.  1.
</event>
<event>
 5    1  0.1279376E-008  0.3849663E+03  0.7957747E-01  0.3429815E+00
         13   -1    0    0    0    0  0.00000000000E+00  0.00000000000E+00  0.14999999963E+04  0.15000000000E+04  0.10566000000E+00 0. -1.
        994   -1    0    0    0    0 -0.00000000000E+00 -0.00000000000E+00  0.11368683772E-12  0.17120000000E+03  0.17120000000E+03 0.  0.
         13    1    1    2    0    0 -0.11611973105E+02 -0.42101688606E+01  0.49067574990E+02  0.50598433975E+02  0.10566000000E+00 0. -1.
        994    1    1    2    0    0 -0.12253978161E+02  0.29490771738E+02  0.50084431651E+01  0.17422511329E+03  0.17120000000E+03 0.  0.
        998    1    1    2    0    0  0.23865951266E+02 -0.25280602877E+02  0.14459239781E+04  0.14463764527E+04  0.10000000000E+02 0. -1.
</event>
<event>
 5    1  0.1279376E-008  0.3778952E+03  0.7957747E-01  0.3460375E+00
         13   -1    0    0    0    0  0.00000000000E+00  0.00000000000E+00  0.14999999963E+04  0.15000000000E+04  0.10566000000E+00 0. -1.
        994   -1    0    0    0    0 -0.00000000000E+00 -0.00000000000E+00  0.11368683772E-12  0.17120000000E+03  0.17120000000E+03 0.  0.
         13    1    1    2    0    0  0.19215650434E+02 -0.37239008033E+02  0.15066831600E+03  0.15638713998E+03  0.10566000000E+00 0. -1.
        994    1    1    2    0    0 -0.21115334649E+02  0.37335944313E+02  0.11418059673E+02  0.17686051618E+03  0.17120000000E+03 0.  0.
        998    1    1    2    0    0  0.18996842156E+01 -0.96936279266E-01  0.13379136206E+04  0.13379523438E+04  0.10000000000E+02 0.  1.
</event>
<event>
 5    1  0.1279376E-008  0.3856658E+03  0.7957747E-01  0.3426854E+00
         13   -1    0    0    0    0  0.00000000000E+00  0.00000000000E+00  0.14999999963E+04  0.15000000000E+04  0.10566000000E+00 0. -1.
        994   -1    0    0    0    0 -0.00000000000E+00 -0.00000000000E+00  0.11368683772E-12  0.17120000000E+03  0.17120000000E+03 0.  0.
         13    1    1    2    0    0 -0.24168207223E+01  0.15604836571E+02  0.76908092994E+02  0.78512533260E+02  0.10566000000E+00 0. -1.
        994    1    1    2    0    0 -0.92640566197E+01 -0.43506787949E+02  0.78201845323E+01  0.17705721852E+03  0.17120000000E+03 0.  0.
        998    1    1    2    0    0  0.11680877342E+02  0.27901951378E+02  0.14152717188E+04  0.14156302482E+04  0.10000000000E+02 0. -1.
</event>
<event>
 5    1  0.1279376E-008  0.3811610E+03  0.7957747E-01  0.3446119E+00
         13   -1    0    0    0    0  0.00000000000E+00  0.00000000000E+00  0.14999999963E+04  0.15000000000E+04  0.10566000000E+00 0. -1.
        994   -1    0    0    0    0 -0.00000000000E+00 -0.00000000000E+00  0.11368683772E-12  0.17120000000E+03  0.17120000000E+03 0.  0.
         13    1    1    2    0    0  0.22821911606E+02 -0.63807297092E+01  0.75767795826E+02  0.79387174086E+02  0.10566000000E+00 0. -1.
        994    1    1    2    0    0 -0.20864834215E+02  0.22743449740E+01  0.50165818810E+01  0.17255468712E+03  0.17120000000E+03 0.  0.
        998    1    1    2    0    0 -0.19570773909E+01  0.41063847352E+01  0.14192156186E+04  0.14192581388E+04  0.10000000000E+02 0. -1.
</event>
<event>
 5    1  0.1279376E-008  0.3806329E+03  0.7957747E-01  0.3448407E+00
         13   -1    0    0    0    0  0.00000000000E+00  0.00000000000E+00  0.14999999963E+04  0.15000000000E+04  0.10566000000E+00 0. -1.
        994   -1    0    0    0    0 -0.00000000000E+00 -0.00000000000E+00  0.11368683772E-12  0.17120000000E+03  0.17120000000E+03 0.  0.
         13    1    1    2    0    0 -0.15415175972E+02 -0.49526486530E+01  0.32417222530E+02  0.36235947062E+02  0.10566000000E+00 0. -1.
        994    1    1    2    0    0  0.15875121880E+02  0.10797734143E+01  0.46590630608E+01  0.17200096591E+03  0.17120000000E+03 0.  0.
        998    1    1    2    0    0 -0.45994590798E+00  0.38728752387E+01  0.14629237107E+04  0.14629630870E+04  0.10000000000E+02 0. -1.
</event>
<event>
 5    1  0.1279376E-008  0.3751119E+03  0.7957747E-01  0.3472722E+00
         13   -1    0    0    0    0  0.00000000000E+00  0.00000000000E+00  0.14999999963E+04  0.15000000000E+04  0.10566000000E+00 0. -1.
        994   -1    0    0    0    0 -0.00000000000E+00 -0.00000000000E+00  0.11368683772E-12  0.17120000000E+03  0.17120000000E+03 0.  0.
         13    1    1    2    0    0 -0.59304063645E+02 -0.24899390011E+02  0.13359384994E+03  0.14827096646E+03  0.10566000000E+00 0. -1.
        994    1    1    2    0    0  0.60399494711E+02  0.25921374187E+02  0.29210559553E+02  0.18569521639E+03  0.17120000000E+03 0.  0.
        998    1    1    2    0    0 -0.10954310662E+01 -0.10219841764E+01  0.13371955868E+04  0.13372338172E+04  0.10000000000E+02 0.  0.
</event>
<event>
 5    1  0.1279376E-008  0.3800706E+03  0.7957747E-01  0.3450851E+00
         13   -1    0    0    0    0  0.00000000000E+00  0.00000000000E+00  0.14999999963E+04  0.15000000000E+04  0.10566000000E+00 0. -1.
        994   -1    0    0    0    0 -0.00000000000E+00 -0.00000000000E+00  0.11368683772E-12  0.17120000000E+03  0.17120000000E+03 0.  0.
         13    1    1    2    0    0  0.35315457151E+02 -0.69073607650E+01  0.16854537142E+03  0.17234397738E+03  0.10566000000E+00 0. -1.
        994    1    1    2    0    0 -0.17679245006E+02 -0.29495809439E+02  0.80599080000E+01  0.17480549361E+03  0.17120000000E+03 0.  0.
        998    1    1    2    0    0 -0.17636212146E+02  0.36403170204E+02  0.13233947169E+04  0.13240505290E+04  0.10000000000E+02 0. -1.
</event>
<event>
 5    1  0.1279376E-008  0.3829806E+03  0.7957747E-01  0.3438282E+00
         13   -1    0    0    0    0  0.00000000000E+00  0.00000000000E+00  0.14999999963E+04  0.15000000000E+04  0.10566000000E+00 0. -1.
        994   -1    0    0    0    0 -0.00000000000E+00 -0.00000000000E+00  0.11368683772E-12  0.17120000000E+03  0.17120000000E+03 0.  0.
         13    1    1    2    0    0 -0.23997592240E+02 -0.75127094107E+00  0.10075279600E+03  0.10357406001E+03  0.10566000000E+00 0. -1.
        994    1    1    2    0    0  0.26829218684E+02 -0.70511564802E-01  0.50225122745E+01  0.17336227264E+03  0.17120000000E+03 0.  0.
        998    1    1    2    0    0 -0.28316264441E+01  0.82178250587E+00  0.13942246880E+04  0.13942636673E+04  0.10000000000E+02 0. -1.
</event>
<event>
 5    1  0.1279376E-008  0.3808357E+03  0.7957747E-01  0.3447528E+00
         13   -1    0    0    0    0  0.00000000000E+00  0.00000000000E+00  0.14999999963E+04  0.15000000000E+04  0.10566000000E+00 0.  1.
        994   -1    0    0    0    0 -0.00000000000E+00 -0.00000000000E+00  0.11368683772E-12  0.17120000000E+03  0.17120000000E+03 0.  0.
         13    1    1    2    0    0  0.10922604675E+02  0.21593093110E+02  0.74605689277E+02  0.78432040643E+02  0.10566000000E+00 0.  1.
        994    1    1    2    0    0 -0.11799570181E+02 -0.20453361731E+02  0.55728654282E+01  0.17291057426E+03  0.17120000000E+03 0.  0.
        998    1    1    2    0    0  0.87696550651E+00 -0.11397313788E+01  0.14198214416E+04  0.14198573851E+04  0.10000000000E+02 0.  1.
</event>
<event>
 5    1  0.1279376E-008  0.3703190E+03  0.7957747E-01  0.3494426E+00
         13   -1    0    0    0    0  0.00000000000E+00  0.00000000000E+00  0.14999999963E+04  0.15000000000E+04  0.10566000000E+00 0. -1.
        994   -1    0    0    0    0 -0.00000000000E+00 -0.00000000000E+00  0.11368683772E-12  0.17120000000E+03  0.17120000000E+03 0.  0.
         13    1    1    2    0    0  0.22747320243E+02 -0.29437261665E+02  0.78782725425E+02  0.87124749308E+02  0.10566000000E+00 0. -1.
        994    1    1    2    0    0 -0.79317705291E+01 -0.57990403463E+01  0.94359326996E+01  0.17174113857E+03  0.17120000000E+03 0.  0.
        998    1    1    2    0    0 -0.14815549714E+02  0.35236302011E+02  0.14117813382E+04  0.14123341121E+04  0.10000000000E+02 0. -1.
</event>
<event>
 5    1  0.1279376E-008  0.3781180E+03  0.7957747E-01  0.3459394E+00
         13   -1    0    0    0    0  0.00000000000E+00  0.00000000000E+00  0.14999999963E+04  0.15000000000E+04  0.10566000000E+00 0.  1.
        994   -1    0    0    0    0 -0.00000000000E+00 -0.00000000000E+00  0.11368683772E-12  0.17120000000E+03  0.17120000000E+03 0.  0.
         13    1    1    2    0    0 -0.99501046462E+01 -0.16967888379E+02  0.35355470883E+02  0.40459044773E+02  0.10566000000E+00 0.  1.
        994    1    1    2    0    0  0.19586362755E+02  0.10757135625E+02  0.67677308858E+01  0.17278479029E+03  0.17120000000E+03 0.  0.
        998    1    1    2    0    0 -0.96362581087E+01  0.62107527546E+01  0.14578767945E+04  0.14579561649E+04  0.10000000000E+02 0.  1.
</event>
<event>
 5    1  0.1279376E-008  0.3735677E+03  0.7957747E-01  0.3479653E+00
         13   -1    0    0    0    0  0.00000000000E+00  0.00000000000E+00  0.14999999963E+04  0.15000000000E+04  0.10566000000E+00 0.  1.
        994   -1    0    0    0    0 -0.00000000000E+00 -0.00000000000E+00  0.11368683772E-12  0.17120000000E+03  0.17120000000E+03 0.  0.
         13    1    1    2    0    0 -0.75353616868E+01 -0.13010070693E+02  0.11882123829E+02  0.19163497747E+02  0.10566000000E+00 0.  1.
        994    1    1    2    0    0 -0.81782245756E+01  0.19578152451E+02  0.89552902246E+01  0.17274207546E+03  0.17120000000E+03 0.  0.
        998    1    1    2    0    0  0.15713586262E+02 -0.65680817579E+01  0.14791625822E+04  0.14792944268E+04  0.10000000000E+02 0.  1.
</event>
<event>
 5    1  0.1279376E-008  0.3713417E+03  0.7957747E-01  0.3489747E+00
         13   -1    0    0    0    0  0.00000000000E+00  0.00000000000E+00  0.14999999963E+04  0.15000000000E+04  0.10566000000E+00 0.  1.
        994   -1    0    0    0    0 -0.00000000000E+00 -0.00000000000E+00  0.11368683772E-12  0.17120000000E+03  0.17120000000E+03 0.  0.
         13    1    1    2    0    0 -0.82227243127E+01  0.34527602771E+02  0.52043376681E+02  0.62994386803E+02  0.10566000000E+00 0.  1.
        994    1    1    2    0    0 -0.26916497748E+00 -0.71195890352E+01  0.11828395200E+02  0.17175596622E+03  0.17120000000E+03 0.  0.
        998    1    1    2    0    0  0.84918892902E+01 -0.27408013736E+02  0.14361282244E+04  0.14364496470E+04  0.10000000000E+02 0.  1.
</event>
<event>
 5    1  0.1279376E-008  0.3768289E+03  0.7957747E-01  0.3465083E+00
         13   -1    0    0    0    0  0.00000000000E+00  0.00000000000E+00  0.14999999963E+04  0.15000000000E+04  0.10566000000E+00 0. -1.
        994   -1    0    0    0    0 -0.00000000000E+00 -0.00000000000E+00  0.11368683772E-12  0.17120000000E+03  0.17120000000E+03 0.  0.
         13    1    1    2    0    0 -0.37516427104E+02 -0.18311265053E+02  0.13987489522E+03  0.14597185416E+03  0.10566000000E+00 0. -1.
        994    1    1    2    0    0  0.35288277177E+02  0.13699364046E+02  0.10598812145E+02  0.17565508789E+03  0.17120000000E+03 0.  0.
        998    1    1    2    0    0  0.22281499268E+01  0.46119010072E+01  0.13495262889E+04  0.13495730579E+04  0.10000000000E+02 0. -1.
</event>
<event>
 5    1  0.1279376E-008  0.3830989E+03  0.7957747E-01  0.3437775E+00
         13   -1    0    0    0    0  0.00000000000E+00  0.00000000000E+00  0.14999999963E+04  0.15000000000E+04  0.10566000000E+00 0.  1.
        994   -1    0    0    0    0 -0.00000000000E+00 -0.00000000000E+00  0.11368683772E-12  0.17120000000E+03  0.17120000000E+03 0.  0.
         13    1    1    2    0    0  0.85377572880E+01 -0.88355778228E+01  0.28359885274E+02  0.30907199675E+02  0.10566000000E+00 0.  1.
        994    1    1    2    0    0 -0.77804671488E+01  0.50007561790E+01  0.28600591217E+01  0.17147350574E+03  0.17120000000E+03 0.  0.
        998    1    1    2    0    0 -0.75729013927E+00  0.38348216438E+01  0.14687800519E+04  0.14688192946E+04  0.10000000000E+02 0.  1.
</event>
<event>
 5    1  0.1279376E-008  0.3707070E+03  0.7957747E-01  0.3492648E+00
         13   -1    0    0    0    0  0.00000000000E+00  0.00000000000E+00  0.14999999963E+04  0.15000000000E+04  0.10566000000E+00 0. -1.
        994   -1    0    0    0    0 -0.00000000000E+00 -0.00000000000E+00  0.11368683772E-12  0.17120000000E+03  0.17120000000E+03 0.  0.
         13    1    1    2    0    0  0.16817875541E+02 -0.44875347905E+02  0.11900549643E+03  0.12829246717E+03  0.10566000000E+00 0. -1.
        994    1    1    2    0    0 -0.12090855733E+02  0.41627659668E+02  0.15409241543E+02  0.17727361780E+03  0.17120000000E+03 0.  0.
        998    1    1    2    0    0 -0.47270198078E+01  0.32476882364E+01  0.13655852583E+04  0.13656339150E+04  0.10000000000E+02 0. -1.
</event>
<event>
 5    1  0.1279376E-008  0.3732763E+03  0.7957747E-01  0.3480968E+00
         13   -1    0    0    0    0  0.00000000000E+00  0.00000000000E+00  0.14999999963E+04  0.15000000000E+04  0.10566000000E+00 0.  1.
        994   -1    0    0    0    0 -0.00000000000E+00 -0.00000000000E+00  0.11368683772E-12  0.17120000000E+03  0.17120000000E+03 0.  0.
         13    1    1    2    0    0 -0.10677416320E+02 -0.13280660682E+02  0.56852598647E+01  0.17964312155E+02  0.10566000000E+00 0.  1.
        994    1    1    2    0    0  0.85398840708E+01  0.14441537701E+02  0.13677882426E+02  0.17256306702E+03  0.17120000000E+03 0.  0.
        998    1    1    2    0    0  0.21375322494E+01 -0.11608770187E+01  0.14806368540E+04  0.14806726208E+04  0.10000000000E+02 0.  1.
</event>
<event>
 5    1  0.1279376E-008  0.3801953E+03  0.7957747E-01  0.3450308E+00
         13   -1    0    0    0    0  0.00000000000E+00  0.00000000000E+00  0.14999999963E+04  0.15000000000E+04  0.10566000000E+00 0.  1.
        994   -1    0    0    0    0 -0.00000000000E+00 -0.00000000000E+00  0.11368683772E-12  0.17120000000E+03  0.17120000000E+03 0.  0.
         13    1    1    2    0    0 -0.85773496030E+01  0.10620999641E+02  0.21735114724E+02  0.25667156751E+02  0.10566000000E+00 0.  1.
        994    1    1    2    0    0  0.25450057757E+01 -0.37830009196E+01  0.41040250710E+01  0.17130986887E+03  0.17120000000E+03 0.  0.
        998    1    1    2    0    0  0.60323438273E+01 -0.68379987217E+01  0.14741608565E+04  0.14742229744E+04  0.10000000000E+02 0.  1.
</event>
<event>
 5    1  0.1279376E-008  0.3765918E+03  0.7957747E-01  0.3466134E+00
         13   -1    0    0    0    0  0.00000000000E+00  0.00000000000E+00  0.14999999963E+04  0.15000000000E+04  0.10566000000E+00 0. -1.
        994   -1    0    0    0    0 -0.00000000000E+00 -0.00000000000E+00  0.11368683772E-12  0.17120000000E+03  0.17120000000E+03 0.  0.
         13    1    1    2    0    0  0.90130355411E+00 -0.13310485741E+02 -0.52725781025E+00  0.13351799264E+02  0.10566000000E+00 0. -1.
        994    1    1    2    0    0 -0.80041175972E+01  0.11630929301E+02  0.15181390590E+02  0.17245074379E+03  0.17120000000E+03 0.  0.
        998    1    1    2    0    0  0.71028140430E+01  0.16795564395E+01  0.14853458635E+04  0.14853974569E+04  0.10000000000E+02 0. -1.
</event>
<event>
 5    1  0.1279376E-008  0.3854692E+03  0.7957747E-01  0.3427685E+00
         13   -1    0    0    0    0  0.00000000000E+00  0.00000000000E+00  0.14999999963E+04  0.15000000000E+04  0.10566000000E+00 0. -1.
        994   -1    0    0    0    0 -0.00000000000E+00 -0.00000000000E+00  0.11368683772E-12  0.17120000000E+03  0.17120000000E+03 0.  0.
         13    1    1    2    0    0 -0.25724038022E+02 -0.52553805466E+01  0.96163308922E+01  0.27961225665E+02  0.10566000000E+00 0. -1.
        994    1    1    2    0    0  0.18915803106E+02 -0.13446401303E+01  0.20695391905E+02  0.17348589254E+03  0.17120000000E+03 0.  0.
        998    1    1    2    0    0  0.68082349160E+01  0.66000206769E+01  0.14696882735E+04  0.14697528818E+04  0.10000000000E+02 0. -1.
</event>
<event>
 5    1  0.1279376E-008  0.3844240E+03  0.7957747E-01  0.3432119E+00
         13   -1    0    0    0    0  0.00000000000E+00  0.00000000000E+00  0.14999999963E+04  0.15000000000E+04  0.10566000000E+00 0. -1.
        994   -1    0    0    0    0 -0.00000000000E+00 -0.00000000000E+00  0.11368683772E-12  0.17120000000E+03  0.17120000000E+03 0.  0.
         13    1    1    2    0    0  0.94174680669E+01  0.18401321766E+02  0.10628830942E+03  0.10827979142E+03  0.10566000000E+00 0. -1.
        994    1    1    2    0    0 -0.67368172454E+01 -0.17972657907E+02  0.31311140124E+01  0.17230103022E+03  0.17120000000E+03 0.  0.
        998    1    1    2    0    0 -0.26806508215E+01 -0.42866385920E+00  0.13905805729E+04  0.13906191784E+04  0.10000000000E+02 0. -1.
</event>
<event>
 5    1  0.1279376E-008  0.3784569E+03  0.7957747E-01  0.3457905E+00
         13   -1    0    0    0    0  0.00000000000E+00  0.00000000000E+00  0.14999999963E+04  0.15000000000E+04  0.10566000000E+00 0.  1.
        994   -1    0    0    0    0 -0.00000000000E+00 -0.00000000000E+00  0.11368683772E-12  0.17120000000E+03  0.17120000000E+03 0.  0.
         13    1    1    2    0    0 -0.30242897489E+02  0.72659902415E+01  0.90497277696E+02  0.95693238514E+02  0.10566000000E+00 0.  1.
        994    1    1    2    0    0  0.31864613136E+02 -0.11375906111E+02  0.87701888015E+01  0.17473156848E+03  0.17120000000E+03 0.  0.
        998    1    1    2    0    0 -0.16217156468E+01  0.41099158692E+01  0.14007325298E+04  0.14007751930E+04  0.10000000000E+02 0.  1.
</event>
<event>
 5    1  0.1279376E-008  0.3754584E+03  0.7957747E-01  0.3471175E+00
         13   -1    0    0    0    0  0.00000000000E+00  0.00000000000E+00  0.14999999963E+04  0.15000000000E+04  0.10566000000E+00 0.  1.
        994   -1    0    0    0    0 -0.00000000000E+00 -0.00000000000E+00  0.11368683772E-12  0.17120000000E+03  0.17120000000E+03 0.  0.
         13    1    1    2    0    0  0.56823174350E+02  0.20566463402E+02  0.12167052175E+03  0.13585131426E+03  0.10566000000E+00 0.  1.
        994    1    1    2    0    0 -0.43198622502E+02 -0.30478019411E+02  0.23884611481E+02  0.18076212357E+03  0.17120000000E+03 0.  0.
        998    1    1    2    0    0 -0.13624551849E+02  0.99115560099E+01  0.13544448630E+04  0.13545865622E+04  0.10000000000E+02 0.  1.
</event>
<event>
 5    1  0.1279376E-008  0.3765733E+03  0.7957747E-01  0.3466216E+00
         13   -1    0    0    0    0  0.00000000000E+00  0.00000000000E+00  0.14999999963E+04  0.15000000000E+04  0.10566000000E+00 0. -1.
        994   -1    0    0    0    0 -0.00000000000E+00 -0.00000000000E+00  0.11368683772E-12  0.17120000000E+03  0.17120000000E+03 0.  0.
         13    1    1    2    0    0 -0.76923916604E+02 -0.41093273664E+02  0.47523904286E+03  0.48317502534E+03  0.10566000000E+00 0. -1.
        994    1    1    2    0    0  0.61758786820E+02  0.55817375706E+02  0.29675715085E+02  0.19266503379E+03  0.17120000000E+03 0.  0.
        998    1    1    2    0    0  0.15165129784E+02 -0.14724102043E+02  0.99508523833E+03  0.99535994087E+03  0.10000000000E+02 0. -1.
</event>
<event>
 5    1  0.1279376E-008  0.3808228E+03  0.7957747E-01  0.3447584E+00
         13   -1    0    0    0    0  0.00000000000E+00  0.00000000000E+00  0.14999999963E+04  0.15000000000E+04  0.10566000000E+00 0. -1.
        994   -1    0    0    0    0 -0.00000000000E+00 -0.00000000000E+00  0.11368683772E-12  0.17120000000E+03  0.17120000000E+03 0.  0.
         13    1    1    2    0    0  0.70061949422E+02 -0.13860992500E+03  0.84490150035E+03  0.85905759093E+03  0.10566000000E+00 0. -1.
        994    1    1    2    0    0 -0.71174148917E+02  0.15679340306E+03  0.10986661180E+03  0.26651462081E+03  0.17120000000E+03 0.  0.
        998    1    1    2    0    0  0.11121994945E+01 -0.18183478053E+02  0.54523188412E+03  0.54562778826E+03  0.10000000000E+02 0.  1.
</event>
<event>
 5    1  0.1279376E-008  0.3833752E+03  0.7957747E-01  0.3436593E+00
         13   -1    0    0    0    0  0.00000000000E+00  0.00000000000E+00  0.14999999963E+04  0.15000000000E+04  0.10566000000E+00 0.  1.
        994   -1    0    0    0    0 -0.00000000000E+00 -0.00000000000E+00  0.11368683772E-12  0.17120000000E+03  0.17120000000E+03 0.  0.
         13    1    1    2    0    0 -0.44191793577E+01 -0.31369133407E+02  0.19006477245E+03  0.19268674206E+03  0.10566000000E+00 0.  1.
        994    1    1    2    0    0 -0.91381049633E+01  0.28885850020E+02  0.54795420766E+01  0.17394643622E+03  0.17120000000E+03 0.  0.
        998    1    1    2    0    0  0.13557284321E+02  0.24832833870E+01  0.13044556818E+04  0.13045668217E+04  0.10000000000E+02 0.  1.
</event>
<event>
 5    1  0.1279376E-008  0.3821927E+03  0.7957747E-01  0.3441666E+00
         13   -1    0    0    0    0  0.00000000000E+00  0.00000000000E+00  0.14999999963E+04  0.15000000000E+04  0.10566000000E+00 0. -1.
        994   -1    0    0    0    0 -0.00000000000E+00 -0.00000000000E+00  0.11368683772E-12  0.17120000000E+03  0.17120000000E+03 0.  0.
         13    1    1    2    0    0  0.11694013127E+02  0.70453930391E+01  0.29642926856E+02  0.32635897149E+02  0.10566000000E+00 0. -1.
        994    1    1    2    0    0 -0.64838372797E+01 -0.73794254404E+01  0.33506621499E+01  0.17151432302E+03  0.17120000000E+03 0.  0.
        998    1    1    2    0    0 -0.52101758473E+01  0.33403240137E+00  0.14670064073E+04  0.14670497798E+04  0.10000000000E+02 0. -1.
</event>
<event>
 5    1  0.1279376E-008  0.3815331E+03  0.7957747E-01  0.3444510E+00
         13   -1    0    0    0    0  0.00000000000E+00  0.00000000000E+00  0.14999999963E+04  0.15000000000E+04  0.10566000000E+00 0.  1.
        994   -1    0    0    0    0 -0.00000000000E+00 -0.00000000000E+00  0.11368683772E-12  0.17120000000E+03  0.17120000000E+03 0.  0.
         13    1    1    2    0    0  0.17183011006E+02 -0.13636843620E+02  0.72984014499E+02  0.76209559162E+02  0.10566000000E+00 0.  1.
        994    1    1    2    0    0 -0.35772014813E+01  0.61336438104E+01  0.35289804635E+01  0.17138352214E+03  0.17120000000E+03 0.  0.
        998    1    1    2    0    0 -0.13605809525E+02  0.75031998093E+01  0.14234870013E+04  0.14236069187E+04  0.10000000000E+02 0.  1.
</event>
<event>
 5    1  0.1279376E-008  0.3830310E+03  0.7957747E-01  0.3438066E+00
         13   -1    0    0    0    0  0.00000000000E+00  0.00000000000E+00  0.14999999963E+04  0.15000000000E+04  0.10566000000E+00 0.  1.
        994   -1    0    0    0    0 -0.00000000000E+00 -0.00000000000E+00  0.11368683772E-12  0.17120000000E+03  0.17120000000E+03 0.  0.
         13    1    1    2    0    0  0.89790895411E+00 -0.17757310269E+02  0.58007178843E+02  0.60671016720E+02  0.10566000000E+00 0.  1.
        994    1    1    2    0    0  0.12199004834E+02  0.18566810610E+02  0.42461002343E+01  0.17268761259E+03  0.17120000000E+03 0.  0.
        998    1    1    2    0    0 -0.13096913788E+02 -0.80950034108E+00  0.14377467172E+04  0.14378413707E+04  0.10000000000E+02 0.  1.
</event>
<event>
 5    1  0.1279376E-008  0.3735724E+03  0.7957747E-01  0.3479632E+00
         13   -1    0    0    0    0  0.00000000000E+00  0.00000000000E+00  0.14999999963E+04  0.15000000000E+04  0.10566000000E+00 0.  1.
        994   -1    0    0    0    0 -0.00000000000E+00 -0.00000000000E+00  0.11368683772E-12  0.17120000000E+03  0.17120000000E+03 0.  0.
         13    1    1    2    0    0 -0.49060861483E+02  0.24982393528E+00  0.96132951365E+02  0.10792861550E+03  0.10566000000E+00 0.  1.
        994    1    1    2    0    0  0.88470786357E+01 -0.76512932559E+02  0.34152502915E+02  0.19080967770E+03  0.17120000000E+03 0.  0.
        998    1    1    2    0    0  0.40213782847E+02  0.76263108623E+02  0.13697145420E+04  0.13724617068E+04  0.10000000000E+02 0.  1.
</event>
<event>
 5    1  0.1279376E-008  0.3823152E+03  0.7957747E-01  0.3441139E+00
         13   -1    0    0    0    0  0.00000000000E+00  0.00000000000E+00  0.14999999963E+04  0.15000000000E+04  0.10566000000E+00 0. -1.
        994   -1    0    0    0    0 -0.00000000000E+00 -0.00000000000E+00  0.11368683772E-12  0.17120000000E+03  0.17120000000E+03 0.  0.
         13    1    1    2    0    0 -0.61309989735E+01  0.99419230102E+01  0.21335478876E+02  0.24323749802E+02  0.10566000000E+00 0. -1.
        994    1    1    2    0    0  0.49330555014E+01 -0.15487762094E+02  0.38459815748E+01  0.17201289889E+03  0.17120000000E+03 0.  0.
        998    1    1    2    0    0  0.11979434721E+01  0.55458390838E+01  0.14748185358E+04  0.14748633513E+04  0.10000000000E+02 0. -1.
</event>
<event>
 5    1  0.1279376E-008  0.3802495E+03  0.7957747E-01  0.3450073E+00
         13   -1    0    0    0    0  0.00000000000E+00  0.00000000000E+00  0.14999999963E+04  0.15000000000E+04  0.10566000000E+00 0.  1.
        994   -1    0    0    0    0 -0.00000000000E+00 -0.00000000000E+00  0.11368683772E-12  0.17120000000E+03  0.17120000000E+03 0.  0.
         13    1    1    2    0    0  0.11752465194E+02  0.26332052468E+02  0.10516002360E+03  0.10904191466E+03  0.10566000000E+00 0.  1.
        994    1    1    2    0    0 -0.92116260123E+01 -0.95934404505E+01  0.45983273321E+01  0.17177739306E+03  0.17120000000E+03 0.  0.
        998    1    1    2    0    0 -0.25408391820E+01 -0.16738612018E+02  0.13902416454E+04  0.13903806923E+04  0.10000000000E+02 0.  1.
</event>
<event>
 5    1  0.1279376E-008  0.3780540E+03  0.7957747E-01  0.3459676E+00
         13   -1    0    0    0    0  0.00000000000E+00  0.00000000000E+00  0.14999999963E+04  0.15000000000E+04  0.10566000000E+00 0.  1.
        994   -1    0    0    0    0 -0.00000000000E+00 -0.00000000000E+00  0.11368683772E-12  0.17120000000E+03  0.17120000000E+03 0.  0.
         13    1    1    2    0    0  0.41401706632E+02 -0.16981020399E+02  0.23839578807E+03  0.24255931089E+03  0.10566000000E+00 0.  1.
        994    1    1    2    0    0 -0.14799353040E+01 -0.65582929814E+01  0.52708257607E+01  0.17141301882E+03  0.17120000000E+03 0.  0.
        998    1    1    2    0    0 -0.39921771328E+02  0.23539313380E+02  0.12563333824E+04  0.12572276703E+04  0.10000000000E+02 0.  1.
</event>
<event>
 5    1  0.1279376E-008  0.3706747E+03  0.7957747E-01  0.3492796E+00
         13   -1    0    0    0    0  0.00000000000E+00  0.00000000000E+00  0.14999999963E+04  0.15000000000E+04  0.10566000000E+00 0. -1.
        994   -1    0    0    0    0 -0.00000000000E+00 -0.00000000000E+00  0.11368683772E-12  0.17120000000E+03  0.17120000000E+03 0.  0.
         13    1    1    2    0    0  0.24530710028E+02 -0.40367621140E+00  0.30153809234E+02  0.38873925250E+02  0.10566000000E+00 0. -1.
        994    1    1    2    0    0 -0.16100492752E+02  0.66219184886E+01  0.99629872978E+01  0.17237104393E+03  0.17120000000E+03 0.  0.
        998    1    1    2    0    0 -0.84302172765E+01 -0.62182422772E+01  0.14598831997E+04  0.14599550308E+04  0.10000000000E+02 0. -1.
</event>
<event>
 5    1  0.1279376E-008  0.3851828E+03  0.7957747E-01  0.3428897E+00
         13   -1    0    0    0    0  0.00000000000E+00  0.00000000000E+00  0.14999999963E+04  0.15000000000E+04  0.10566000000E+00 0.  1.
        994   -1    0    0    0    0 -0.00000000000E+00 -0.00000000000E+00  0.11368683772E-12  0.17120000000E+03  0.17120000000E+03 0.  0.
         13    1    1    2    0    0  0.11730117226E+02  0.79204175884E+01  0.58575677508E+02  0.60261511967E+02  0.10566000000E+00 0.  1.
        994    1    1    2    0    0 -0.13455567845E+02 -0.28795995097E+02  0.48668750103E+01  0.17419353637E+03  0.17120000000E+03 0.  0.
        998    1    1    2    0    0  0.17254506187E+01  0.20875577509E+02  0.14365574438E+04  0.14367449517E+04  0.10000000000E+02 0.  1.
</event>
<event>
 5    1  0.1279376E-008  0.3763856E+03  0.7957747E-01  0.3467049E+00
         13   -1    0    0    0    0  0.00000000000E+00  0.00000000000E+00  0.14999999963E+04  0.15000000000E+04  0.10566000000E+00 0. -1.
        994   -1    0    0    0    0 -0.00000000000E+00 -0.00000000000E+00  0.11368683772E-12  0.17120000000E+03  0.17120000000E+03 0.  0.
         13    1    1    2    0    0 -0.32789534780E+02 -0.11305015405E+02  0.10656974205E+03  0.11207175402E+03  0.10566000000E+00 0. -1.
        994    1    1    2    0    0 -0.17783617158E+01  0.18886445117E+02  0.71873992511E+01  0.17239767715E+03  0.17120000000E+03 0.  0.
        998    1    1    2    0    0  0.34567896496E+02 -0.75814297120E+01  0.13862428550E+04  0.13867305688E+04  0.10000000000E+02 0. -1.
</event>
<event>
 5    1  0.1279376E-008  0.3854091E+03  0.7957747E-01  0.3427939E+00
         13   -1    0    0    0    0  0.00000000000E+00  0.00000000000E+00  0.14999999963E+04  0.15000000000E+04  0.10566000000E+00 0.  1.
        994   -1    0    0    0    0 -0.00000000000E+00 -0.00000000000E+00  0.11368683772E-12  0.17120000000E+03  0.17120000000E+03 0.  0.
         13    1    1    2    0    0  0.10391254574E+02  0.41638210564E+01  0.42596842447E+02  0.44043361905E+02  0.10566000000E+00 0.  1.
        994    1    1    2    0    0 -0.13420504876E+02 -0.28681877384E+01  0.20459533774E+01  0.17176135298E+03  0.17120000000E+03 0.  0.
        998    1    1    2    0    0  0.30292503025E+01 -0.12956333180E+01  0.14553572005E+04  0.14553952851E+04  0.10000000000E+02 0.  1.
</event>
<event>
 5    1  0.1279376E-008  0.3840506E+03  0.7957747E-01  0.3433709E+00
         13   -1    0    0    0    0  0.00000000000E+00  0.00000000000E+00  0.14999999963E+04  0.15000000000E+04  0.10566000000E+00 0.  1.
        994   -1    0    0    0    0 -0.00000000000E+00 -0.00000000000E+00  0.11368683772E-12  0.17120000000E+03  0.17120000000E+03 0.  0.
         13    1    1    2    0    0  0.39780258588E+00 -0.11152926973E+02  0.28727543574E+02  0.30819295106E+02  0.10566000000E+00 0.  1.
        994    1    1    2    0    0 -0.85319572163E+00  0.10388531260E+02  0.24607330431E+01  0.17153467501E+03  0.17120000000E+03 0.  0.
        998    1    1    2    0    0  0.45539313574E+00  0.76439571342E+00  0.14688117197E+04  0.14688460299E+04  0.10000000000E+02 0.  1.
</event>
<event>
 5    1  0.1279376E-008  0.3826092E+03  0.7957747E-01  0.3439875E+00
         13   -1    0    0    0    0  0.00000000000E+00  0.00000000000E+00  0.14999999963E+04  0.15000000000E+04  0.10566000000E+00 0. -1.
        994   -1    0    0    0    0 -0.00000000000E+00 -0.00000000000E+00  0.11368683772E-12  0.17120000000E+03  0.17120000000E+03 0.  0.
         13    1    1    2    0    0  0.30690872989E+01 -0.12195124471E+02  0.26002580206E+02  0.28884004209E+02  0.10566000000E+00 0. -1.
        994    1    1    2    0    0 -0.39497434607E+01  0.19596551209E+02  0.41474038397E+01  0.17241306868E+03  0.17120000000E+03 0.  0.
        998    1    1    2    0    0  0.88065616188E+00 -0.74014267384E+01  0.14698500122E+04  0.14699029271E+04  0.10000000000E+02 0. -1.
</event>
<event>
 5    1  0.1279376E-008  0.3817431E+03  0.7957747E-01  0.3443604E+00
         13   -1    0    0    0    0  0.00000000000E+00  0.00000000000E+00  0.14999999963E+04  0.15000000000E+04  0.10566000000E+00 0.  1.
        994   -1    0    0    0    0 -0.00000000000E+00 -0.00000000000E+00  0.11368683772E-12  0.17120000000E+03  0.17120000000E+03 0.  0.
         13    1    1    2    0    0  0.28242480190E+02  0.78250556684E+01  0.11841834061E+03  0.12199091663E+03  0.10566000000E+00 0.  1.
        994    1    1    2    0    0 -0.32956780694E+02 -0.79244812158E+01  0.70840650374E+01  0.17466702830E+03  0.17120000000E+03 0.  0.
        998    1    1    2    0    0  0.47143005043E+01  0.99425547319E-01  0.13744975906E+04  0.13745420551E+04  0.10000000000E+02 0.  1.
</event>
<event>
 5    1  0.1279376E-008  0.3821667E+03  0.7957747E-01  0.3441778E+00
         13   -1    0    0    0    0  0.00000000000E+00  0.00000000000E+00  0.14999999963E+04  0.15000000000E+04  0.10566000000E+00 0.  1.
        994   -1    0    0    0    0 -0.00000000000E+00 -0.00000000000E+00  0.11368683772E-12  0.17120000000E+03  0.17120000000E+03 0.  0.
         13    1    1    2    0    0 -0.19322613952E+02 -0.54121815723E+01  0.62703827787E+02  0.65836435980E+02  0.10566000000E+00 0.  1.
        994    1    1    2    0    0  0.21374348096E+02  0.19554805967E+01  0.45739755993E+01  0.17260083405E+03  0.17120000000E+03 0.  0.
        998    1    1    2    0    0 -0.20517341441E+01  0.34567009755E+01  0.14327221929E+04  0.14327627300E+04  0.10000000000E+02 0.  1.
</event>
<event>
 5    1  0.1279376E-008  0.3790465E+03  0.7957747E-01  0.3455321E+00
         13   -1    0    0    0    0  0.00000000000E+00  0.00000000000E+00  0.14999999963E+04  0.15000000000E+04  0.10566000000E+00 0.  1.
        994   -1    0    0    0    0 -0.00000000000E+00 -0.00000000000E+00  0.11368683772E-12  0.17120000000E+03  0.17120000000E+03 0.  0.
         13    1    1    2    0    0  0.18943316141E+02  0.24529965238E+02  0.96733043412E+02  0.10157687371E+03  0.10566000000E+00 0.  1.
        994    1    1    2    0    0 -0.25251535079E+02 -0.19470072473E+02  0.80323319087E+01  0.17432923479E+03  0.17120000000E+03 0.  0.
        998    1    1    2    0    0  0.63082189374E+01 -0.50598927657E+01  0.13952346210E+04  0.13952938915E+04  0.10000000000E+02 0.  1.
</event>
<event>
 5    1  0.1279376E-008  0.3751422E+03  0.7957747E-01  0.3472587E+00
         13   -1    0    0    0    0  0.00000000000E+00  0.00000000000E+00  0.14999999963E+04  0.15000000000E+04  0.10566000000E+00 0.  1.
        994   -1    0    0    0    0 -0.00000000000E+00 -0.00000000000E+00  0.11368683772E-12  0.17120000000E+03  0.17120000000E+03 0.  0.
         13    1    1    2    0    0 -0.23446841540E+01  0.31867435175E+02  0.67170525257E+02  0.74383611069E+02  0.10566000000E+00 0.  1.
        994    1    1    2    0    0  0.21221157352E+02 -0.49025886326E+02  0.16364457204E+02  0.18008639735E+03  0.17120000000E+03 0.  0.
        998    1    1    2    0    0 -0.18876473198E+02  0.17158451151E+02  0.14164650138E+04  0.14167299916E+04  0.10000000000E+02 0.  1.
</event>
<event>
 5    1  0.1279376E-008  0.3838885E+03  0.7957747E-01  0.3434400E+00
         13   -1    0    0    0    0  0.00000000000E+00  0.00000000000E+00  0.14999999963E+04  0.15000000000E+04  0.10566000000E+00 0.  1.
        994   -1    0    0    0    0 -0.00000000000E+00 -0.00000000000E+00  0.11368683772E-12  0.17120000000E+03  0.17120000000E+03 0.  0.
         13    1    1    2    0    0 -0.27829709001E+01  0.10305575316E+02  0.24260243394E+02  0.26505101078E+02  0.10566000000E+00 0.  1.
        994    1    1    2    0    0 -0.13348850988E+02 -0.24940526555E+02  0.48286289143E+01  0.17358852884E+03  0.17120000000E+03 0.  0.
        998    1    1    2    0    0  0.16131821888E+02  0.14634951239E+02  0.14709111240E+04  0.14711063701E+04  0.10000000000E+02 0.  1.
</event>
<event>
 5    1  0.1279376E-008  0.3859792E+03  0.7957747E-01  0.3425530E+00
         13   -1    0    0    0    0  0.00000000000E+00  0.00000000000E+00  0.14999999963E+04  0.15000000000E+04  0.10566000000E+00 0. -1.
        994   -1    0    0    0    0 -0.00000000000E+00 -0.00000000000E+00  0.11368683772E-12  0.17120000000E+03  0.17120000000E+03 0.  0.
         13    1    1    2    0    0  0.87040023161E+01  0.69472982157E+01  0.58595237680E+02  0.59644259167E+02  0.10566000000E+00 0. -1.
        994    1    1    2    0    0 -0.32311581268E+01  0.68434466210E+01  0.13325352860E+01  0.17137236882E+03  0.17120000000E+03 0.  0.
        998    1    1    2    0    0 -0.54728441892E+01 -0.13790744837E+02  0.14400722233E+04  0.14401833720E+04  0.10000000000E+02 0. -1.
</event>
<event>
 5    1  0.1279376E-008  0.3813378E+03  0.7957747E-01  0.3445354E+00
         13   -1    0    0    0    0  0.00000000000E+00  0.00000000000E+00  0.14999999963E+04  0.15000000000E+04  0.10566000000E+00 0. -1.
        994   -1    0    0    0    0 -0.00000000000E+00 -0.00000000000E+00  0.11368683772E-12  0.17120000000E+03  0.17120000000E+03 0.  0.
         13    1    1    2    0    0 -0.27182470609E+02 -0.18225423793E+02  0.17343137945E+03  0.17649223021E+03  0.10566000000E+00 0. -1.
        994    1    1    2    0    0  0.46372300000E+01 -0.11246870953E+01  0.35351476488E+01  0.17130296580E+03  0.17120000000E+03 0.  0.
        998    1    1    2    0    0  0.22545240609E+02  0.19350110888E+02  0.13230334692E+04  0.13234048040E+04  0.10000000000E+02 0. -1.
</event>
<event>
 5    1  0.1279376E-008  0.3832261E+03  0.7957747E-01  0.3437231E+00
         13   -1    0    0    0    0  0.00000000000E+00  0.00000000000E+00  0.14999999963E+04  0.15000000000E+04  0.10566000000E+00 0.  1.
        994   -1    0    0    0    0 -0.00000000000E+00 -0.00000000000E+00  0.11368683772E-12  0.17120000000E+03  0.17120000000E+03 0.  0.
         13    1    1    2    0    0  0.81509141791E+01  0.13414496062E+02  0.48834728014E+02  0.51295496203E+02  0.10566000000E+00 0.  1.
        994    1    1    2    0    0  0.13827690152E+02 -0.17972322054E+02  0.42161142863E+01  0.17274670762E+03  0.17120000000E+03 0.  0.
        998    1    1    2    0    0 -0.21978604331E+02  0.45578259920E+01  0.14469491540E+04  0.14471577962E+04  0.10000000000E+02 0.  1.
</event>
<event>
 5    1  0.1279376E-008  0.3810442E+03  0.7957747E-01  0.3446624E+00
         13   -1    0    0    0    0  0.00000000000E+00  0.00000000000E+00  0.14999999963E+04  0.15000000000E+04  0.10566000000E+00 0. -1.
        994   -1    0    0    0    0 -0.00000000000E+00 -0.00000000000E+00  0.11368683772E-12  0.17120000000E+03  0.17120000000E+03 0.  0.
         13    1    1    2    0    0 -0.18253224131E+02  0.35684155690E+01  0.43976772797E+02  0.47748104575E+02  0.10566000000E+00 0. -1.
        994    1    1    2    0    0  0.27316591258E+02 -0.59184282841E+01  0.62139172700E+01  0.17357786932E+03  0.17120000000E+03 0.  0.
        998    1    1    2    0    0 -0.90633671274E+01  0.23500127151E+01  0.14498093062E+04  0.14498740261E+04  0.10000000000E+02 0. -1.
</event>
<event>
 5    1  0.1279376E-008  0.3813337E+03  0.7957747E-01  0.3445372E+00
         13   -1    0    0    0    0  0.00000000000E+00  0.00000000000E+00  0.14999999963E+04  0.15000000000E+04  0.10566000000E+00 0. -1.
        994   -1    0    0    0    0 -0.00000000000E+00 -0.00000000000E+00  0.11368683772E-12  0.17120000000E+03  0.17120000000E+03 0.  0.
         13    1    1    2    0    0  0.47722003407E+01  0.14472750464E+02  0.32975742548E+02  0.36326920634E+02  0.10566000000E+00 0. -1.
        994    1    1    2    0    0  0.80038201967E+01 -0.65151872489E+01  0.38159864384E+01  0.17155322951E+03  0.17120000000E+03 0.  0.
        998    1    1    2    0    0 -0.12776020537E+02 -0.79575632154E+01  0.14632082673E+04  0.14633198499E+04  0.10000000000E+02 0. -1.
</event>
<event>
 5    1  0.1279376E-008  0.3828713E+03  0.7957747E-01  0.3438751E+00
         13   -1    0    0    0    0  0.00000000000E+00  0.00000000000E+00  0.14999999963E+04  0.15000000000E+04  0.10566000000E+00 0. -1.
        994   -1    0    0    0    0 -0.00000000000E+00 -0.00000000000E+00  0.11368683772E-12  0.17120000000E+03  0.17120000000E+03 0.  0.
         13    1    1    2    0    0  0.29240797035E+01 -0.30313858117E+02  0.14814946463E+03  0.15124733145E+03  0.10566000000E+00 0. -1.
        994    1    1    2    0    0 -0.20636141456E+02  0.36395153983E+02  0.85090870959E+01  0.17644348141E+03  0.17120000000E+03 0.  0.
        998    1    1    2    0    0  0.17712061752E+02 -0.60812958662E+01  0.13433414446E+04  0.13435091871E+04  0.10000000000E+02 0. -1.
</event>
<event>
 5    1  0.1279376E-008  0.3760252E+03  0.7957747E-01  0.3468650E+00
         13   -1    0    0    0    0  0.00000000000E+00  0.00000000000E+00  0.14999999963E+04  0.15000000000E+04  0.10566000000E+00 0. -1.
        994   -1    0    0    0    0 -0.00000000000E+00 -0.00000000000E+00  0.11368683772E-12  0.17120000000E+03  0.17120000000E+03 0.  0.
         13    1    1    2    0    0  0.17308826238E+02 -0.16066284705E+02  0.46671511708E+02  0.52306425409E+02  0.10566000000E+00 0. -1.
        994    1    1    2    0    0  0.12726451795E+02 -0.25660716131E+01  0.67243749764E+01  0.17182317806E+03  0.17120000000E+03 0.  0.
        998    1    1    2    0    0 -0.30035278033E+02  0.18632356318E+02  0.14466041096E+04  0.14470703965E+04  0.10000000000E+02 0. -1.
</event>
<event>
 5    1  0.1279376E-008  0.3766705E+03  0.7957747E-01  0.3465785E+00
         13   -1    0    0    0    0  0.00000000000E+00  0.00000000000E+00  0.14999999963E+04  0.15000000000E+04  0.10566000000E+00 0.  1.
        994   -1    0    0    0    0 -0.00000000000E+00 -0.00000000000E+00  0.11368683772E-12  0.17120000000E+03  0.17120000000E+03 0.  0.
         13    1    1    2    0    0  0.11711024630E+02  0.12187924267E+01  0.91834189958E+01  0.14932511556E+02  0.10566000000E+00 0.  1.
        994    1    1    2    0    0 -0.12977471170E+02 -0.13007311206E+01  0.63985888175E+01  0.17181527464E+03  0.17120000000E+03 0.  0.
        998    1    1    2    0    0  0.12664465393E+01  0.81938693884E-01  0.14844179885E+04  0.14844522138E+04  0.10000000000E+02 0.  1.
</event>
<event>
 5    1  0.1279376E-008  0.3850381E+03  0.7957747E-01  0.3429511E+00
         13   -1    0    0    0    0  0.00000000000E+00  0.00000000000E+00  0.14999999963E+04  0.15000000000E+04  0.10566000000E+00 0.  1.
        994   -1    0    0    0    0 -0.00000000000E+00 -0.00000000000E+00  0.11368683772E-12  0.17120000000E+03  0.17120000000E+03 0.  0.
         13    1    1    2    0    0 -0.11083995751E+02 -0.18629172876E+01  0.38579365656E+02  0.40183380160E+02  0.10566000000E+00 0.  1.
        994    1    1    2    0    0  0.10229536632E+02  0.62231960956E+00  0.19566824777E+01  0.17151763556E+03  0.17120000000E+03 0.  0.
        998    1    1    2    0    0  0.85445911839E+00  0.12405976780E+01  0.14594639481E+04  0.14594989843E+04  0.10000000000E+02 0.  1.
</event>
<event>
 5    1  0.1279376E-008  0.3734452E+03  0.7957747E-01  0.3480206E+00
         13   -1    0    0    0    0  0.00000000000E+00  0.00000000000E+00  0.14999999963E+04  0.15000000000E+04  0.10566000000E+00 0.  1.
        994   -1    0    0    0    0 -0.00000000000E+00 -0.00000000000E+00  0.11368683772E-12  0.17120000000E+03  0.17120000000E+03 0.  0.
         13    1    1    2    0    0 -0.28555456813E+02 -0.15264291479E+02  0.64249938076E+02  0.71947747810E+02  0.10566000000E+00 0.  1.
        994    1    1    2    0    0  0.31504317941E+02  0.14311404471E+02  0.11581751862E+02  0.17504546645E+03  0.17120000000E+03 0.  0.
        998    1    1    2    0    0 -0.29488611283E+01  0.95288700844E+00  0.14241683063E+04  0.14242067857E+04  0.10000000000E+02 0.  1.
</event>
<event>
 5    1  0.1279376E-008  0.3703411E+03  0.7957747E-01  0.3494325E+00
         13   -1    0    0    0    0  0.00000000000E+00  0.00000000000E+00  0.14999999963E+04  0.15000000000E+04  0.10566000000E+00 0.  1.
        994   -1    0    0    0    0 -0.00000000000E+00 -0.00000000000E+00  0.11368683772E-12  0.17120000000E+03  0.17120000000E+03 0.  0.
         13    1    1    2    0    0  0.72491489761E+02 -0.28076156238E+02  0.23742834954E+03  0.24983098080E+03  0.10566000000E+00 0.  1.
        994    1    1    2    0    0 -0.63146052025E+02  0.27483919464E+02  0.27909781627E+02  0.18663114859E+03  0.17120000000E+03 0.  0.
        998    1    1    2    0    0 -0.93454377361E+01  0.59223677372E+00  0.12346618651E+04  0.12347378706E+04  0.10000000000E+02 0.  1.
</event>
<event>
 5    1  0.1279376E-008  0.3828508E+03  0.7957747E-01  0.3438839E+00
         13   -1    0    0    0    0  0.00000000000E+00  0.00000000000E+00  0.14999999963E+04  0.15000000000E+04  0.10566000000E+00 0. -1.
        994   -1    0    0    0    0 -0.00000000000E+00 -0.00000000000E+00  0.11368683772E-12  0.17120000000E+03  0.17120000000E+03 0.  0.
         13    1    1    2    0    0  0.38201987227E+01 -0.15560530055E+02  0.45402963244E+02  0.48147318194E+02  0.10566000000E+00 0. -1.
        994    1    1    2    0    0 -0.47861776047E+01  0.16461696932E+02  0.36748502077E+01  0.17209543714E+03  0.17120000000E+03 0.  0.
        998    1    1    2    0    0  0.96597888193E+00 -0.90116687654E+00  0.14509221828E+04  0.14509572447E+04  0.10000000000E+02 0. -1.
</event>
<event>
 5    1  0.1279376E-008  0.2799685E+03  0.7957747E-01  0.4050290E+00
         13   -1    0    0    0    0  0.00000000000E+00  0.00000000000E+00  0.14999999963E+04  0.15000000000E+04  0.10566000000E+00 0. -1.
        994   -1    0    0    0    0 -0.00000000000E+00 -0.00000000000E+00  0.11368683772E-12  0.17120000000E+03  0.17120000000E+03 0.  0.
         13    1    1    2    0    0 -0.81599312752E+01  0.14954737773E+03  0.67822864763E+03  0.69456829203E+03  0.10566000000E+00 0. -1.
        994    1    1    2    0    0 -0.39360576580E+01 -0.50004055861E+02  0.32967931830E+02  0.18141726126E+03  0.17120000000E+03 0.  0.
        998    1    1    2    0    0  0.12095988933E+02 -0.99543321868E+02  0.78880341682E+03  0.79521444672E+03  0.10000000000E+02 0. -1.
</event>
<event>
 5    1  0.1279376E-008  0.3801727E+03  0.7957747E-01  0.3450407E+00
         13   -1    0    0    0    0  0.00000000000E+00  0.00000000000E+00  0.14999999963E+04  0.15000000000E+04  0.10566000000E+00 0. -1.
        994   -1    0    0    0    0 -0.00000000000E+00 -0.00000000000E+00  0.11368683772E-12  0.17120000000E+03  0.17120000000E+03 0.  0.
         13    1    1    2    0    0 -0.85025422931E+01  0.15771846943E+02  0.36896714448E+02  0.41017350993E+02  0.10566000000E+00 0. -1.
        994    1    1    2    0    0  0.74089337557E+01 -0.20687008591E+02  0.56608576463E+01  0.17269722040E+03  0.17120000000E+03 0.  0.
        998    1    1    2    0    0  0.10936085374E+01  0.49151616482E+01  0.14574424242E+04  0.14574854286E+04  0.10000000000E+02 0. -1.
</event>
<event>
 5    1  0.1279376E-008  0.3859368E+03  0.7957747E-01  0.3425709E+00
         13   -1    0    0    0    0  0.00000000000E+00  0.00000000000E+00  0.14999999963E+04  0.15000000000E+04  0.10566000000E+00 0.  1.
        994   -1    0    0    0    0 -0.00000000000E+00 -0.00000000000E+00  0.11368683772E-12  0.17120000000E+03  0.17120000000E+03 0.  0.
         13    1    1    2    0    0  0.55460799631E+01  0.12852151131E+02  0.83018878294E+02  0.84190748357E+02  0.10566000000E+00 0.  1.
        994    1    1    2    0    0 -0.43574071276E+01 -0.11008625894E+02  0.16254973423E+01  0.17161660492E+03  0.17120000000E+03 0.  0.
        998    1    1    2    0    0 -0.11886728355E+01 -0.18435252364E+01  0.14153556206E+04  0.14153926467E+04  0.10000000000E+02 0.  0.
</event>
<event>
 5    1  0.1279376E-008  0.3853228E+03  0.7957747E-01  0.3428304E+00
         13   -1    0    0    0    0  0.00000000000E+00  0.00000000000E+00  0.14999999963E+04  0.15000000000E+04  0.10566000000E+00 0. -1.
        994   -1    0    0    0    0 -0.00000000000E+00 -0.00000000000E+00  0.11368683772E-12  0.17120000000E+03  0.17120000000E+03 0.  0.
         13    1    1    2    0    0  0.60977665468E+01  0.94742523752E+01  0.46756946914E+02  0.48095399611E+02  0.10566000000E+00 0. -1.
        994    1    1    2    0    0  0.14154806985E+02 -0.21571517467E+01  0.21437512812E+01  0.17181108094E+03  0.17120000000E+03 0.  0.
        998    1    1    2    0    0 -0.20252573532E+02 -0.73171006285E+01  0.14510992981E+04  0.14512935194E+04  0.10000000000E+02 0. -1.
</event>
<event>
 5    1  0.1279376E-008  0.3776119E+03  0.7957747E-01  0.3461623E+00
         13   -1    0    0    0    0  0.00000000000E+00  0.00000000000E+00  0.14999999963E+04  0.15000000000E+04  0.10566000000E+00 0.  1.
        994   -1    0    0    0    0 -0.00000000000E+00 -0.00000000000E+00  0.11368683772E-12  0.17120000000E+03  0.17120000000E+03 0.  0.
         13    1    1    2    0    0 -0.28001595182E+02  0.26660824838E+02  0.42320247999E+02  0.57322800599E+02  0.10566000000E+00 0.  1.
        994    1    1    2    0    0  0.27978642800E+02 -0.32773561395E+02  0.21721623653E+02  0.17787124476E+03  0.17120000000E+03 0.  0.
        998    1    1    2    0    0  0.22952381830E-01  0.61127365568E+01  0.14359581246E+04  0.14360059546E+04  0.10000000000E+02 0.  1.
</event>
<event>
 5    1  0.1279376E-008  0.3857452E+03  0.7957747E-01  0.3426518E+00
         13   -1    0    0    0    0  0.00000000000E+00  0.00000000000E+00  0.14999999963E+04  0.15000000000E+04  0.10566000000E+00 0. -1.
        994   -1    0    0    0    0 -0.00000000000E+00 -0.00000000000E+00  0.11368683772E-12  0.17120000000E+03  0.17120000000E+03 0.  0.
         13    1    1    2    0    0 -0.14287270238E+02 -0.26001010701E+00  0.84543343638E+02  0.85742532116E+02  0.10566000000E+00 0. -1.
        994    1    1    2    0    0  0.51395205737E+01 -0.28841541162E+01  0.13745503335E+01  0.17130692457E+03  0.17120000000E+03 0.  0.
        998    1    1    2    0    0  0.91477496648E+01  0.31441642232E+01  0.14140821023E+04  0.14141505433E+04  0.10000000000E+02 0. -1.
</event>
<event>
 5    1  0.1279376E-008  0.3850306E+03  0.7957747E-01  0.3429542E+00
         13   -1    0    0    0    0  0.00000000000E+00  0.00000000000E+00  0.14999999963E+04  0.15000000000E+04  0.10566000000E+00 0. -1.
        994   -1    0    0    0    0 -0.00000000000E+00 -0.00000000000E+00  0.11368683772E-12  0.17120000000E+03  0.17120000000E+03 0.  0.
         13    1    1    2    0    0  0.82680359580E+01  0.10259618794E+02  0.49529119390E+02  0.51251975844E+02  0.10566000000E+00 0. -1.
        994    1    1    2    0    0 -0.39004105818E+01 -0.27370616220E+02  0.41324601787E+01  0.17346723340E+03  0.17120000000E+03 0.  0.
        998    1    1    2    0    0 -0.43676253761E+01  0.17110997425E+02  0.14463384167E+04  0.14464807908E+04  0.10000000000E+02 0. -1.
</event>
<event>
 5    1  0.1279376E-008  0.3853685E+03  0.7957747E-01  0.3428111E+00
         13   -1    0    0    0    0  0.00000000000E+00  0.00000000000E+00  0.14999999963E+04  0.15000000000E+04  0.10566000000E+00 0.  1.
        994   -1    0    0    0    0 -0.00000000000E+00 -0.00000000000E+00  0.11368683772E-12  0.17120000000E+03  0.17120000000E+03 0.  0.
         13    1    1    2    0    0  0.36340625081E+01  0.11453443351E+02  0.48490116149E+02  0.49956884442E+02  0.10566000000E+00 0.  1.
        994    1    1    2    0    0 -0.20321011942E+01 -0.13458695890E+02  0.20560673899E+01  0.17175253519E+03  0.17120000000E+03 0.  0.
        998    1    1    2    0    0 -0.16019613140E+01  0.20052525390E+01  0.14494538127E+04  0.14494905804E+04  0.10000000000E+02 0.  1.
</event>
<event>
 5    1  0.1455077E-008  0.3862430E+03  0.7957747E-01  0.3424418E+00
         13   -1    0    0    0    0  0.00000000000E+00  0.00000000000E+00  0.14999999963E+04  0.15000000000E+04  0.10566000000E+00 0. -1.
        994   -1    0    0    0    0 -0.00000000000E+00 -0.00000000000E+00  0.11368683772E-12  0.17120000000E+03  0.17120000000E+03 0.  0.
         13    1    1    2    0    0 -0.95117402443E+01 -0.42039890067E+01  0.57084241062E+02  0.58023861192E+02  0.10566000000E+00 0. -1.
        994    1    1    2    0    0 -0.23092046325E+01  0.55498218241E+01  0.11326205888E+01  0.17130924020E+03  0.17120000000E+03 0.  0.
        998    1    1    2    0    0  0.11820944877E+02 -0.13458328174E+01  0.14417831346E+04  0.14418668986E+04  0.10000000000E+02 0. -1.
</event>
<event>
 5    1  0.1279376E-008  0.3781321E+03  0.7957747E-01  0.3459333E+00
         13   -1    0    0    0    0  0.00000000000E+00  0.00000000000E+00  0.14999999963E+04  0.15000000000E+04  0.10566000000E+00 0.  1.
        994   -1    0    0    0    0 -0.00000000000E+00 -0.00000000000E+00  0.11368683772E-12  0.17120000000E+03  0.17120000000E+03 0.  0.
         13    1    1    2    0    0 -0.23282063999E+01  0.27798041425E+02  0.81691073865E+02  0.86322617925E+02  0.10566000000E+00 0.  1.
        994    1    1    2    0    0 -0.15640560641E+02  0.16932880034E+01  0.59119851791E+01  0.17202292269E+03  0.17120000000E+03 0.  0.
        998    1    1    2    0    0  0.17968767041E+02 -0.29491329429E+02  0.14123969372E+04  0.14128544594E+04  0.10000000000E+02 0.  1.
</event>
<event>
 5    1  0.1279376E-008  0.3800416E+03  0.7957747E-01  0.3450977E+00
         13   -1    0    0    0    0  0.00000000000E+00  0.00000000000E+00  0.14999999963E+04  0.15000000000E+04  0.10566000000E+00 0.  1.
        994   -1    0    0    0    0 -0.00000000000E+00 -0.00000000000E+00  0.11368683772E-12  0.17120000000E+03  0.17120000000E+03 0.  0.
         13    1    1    2    0    0  0.95312370266E+01  0.44950229196E+01  0.11173620911E+02  0.15359384057E+02  0.10566000000E+00 0.  1.
        994    1    1    2    0    0 -0.22968060920E+02 -0.13990178568E+02  0.65333511558E+01  0.17342255216E+03  0.17120000000E+03 0.  0.
        998    1    1    2    0    0  0.13436823894E+02  0.94951556487E+01  0.14822930242E+04  0.14824180638E+04  0.10000000000E+02 0.  1.
</event>
<event>
 5    1  0.1279376E-008  0.3699046E+03  0.7957747E-01  0.3496330E+00
         13   -1    0    0    0    0  0.00000000000E+00  0.00000000000E+00  0.14999999963E+04  0.15000000000E+04  0.10566000000E+00 0. -1.
        994   -1    0    0    0    0 -0.00000000000E+00 -0.00000000000E+00  0.11368683772E-12  0.17120000000E+03  0.17120000000E+03 0.  0.
         13    1    1    2    0    0  0.40502872291E+02  0.15977268309E+03  0.69610297305E+03  0.71535106988E+03  0.10566000000E+00 0. -1.
        994    1    1    2    0    0 -0.26445484085E+02 -0.15120853441E+03  0.98435786697E+02  0.25012482606E+03  0.17120000000E+03 0.  0.
        998    1    1    2    0    0 -0.14057388206E+02 -0.85641486839E+01  0.70546123653E+03  0.70572410407E+03  0.10000000000E+02 0. -1.
</event>
<event>
 5    1  0.1279376E-008  0.3781491E+03  0.7957747E-01  0.3459258E+00
         13   -1    0    0    0    0  0.00000000000E+00  0.00000000000E+00  0.14999999963E+04  0.15000000000E+04  0.10566000000E+00 0.  1.
        994   -1    0    0    0    0 -0.00000000000E+00 -0.00000000000E+00  0.11368683772E-12  0.17120000000E+03  0.17120000000E+03 0.  0.
         13    1    1    2    0    0 -0.43038133696E+02  0.31993251970E+02  0.30312148493E+03  0.30782867786E+03  0.10566000000E+00 0.  1.
        994    1    1    2    0    0  0.18784468225E+02 -0.11899020650E+02  0.67352205835E+01  0.17276934374E+03  0.17120000000E+03 0.  0.
        998    1    1    2    0    0  0.24253665470E+02 -0.20094231320E+02  0.11901432908E+04  0.11906019784E+04  0.10000000000E+02 0. -1.
</event>
<event>
 5    1  0.1279376E-008  0.3833115E+03  0.7957747E-01  0.3436865E+00
         13   -1    0    0    0    0  0.00000000000E+00  0.00000000000E+00  0.14999999963E+04  0.15000000000E+04  0.10566000000E+00 0.  1.
        994   -1    0    0    0    0 -0.00000000000E+00 -0.00000000000E+00  0.11368683772E-12  0.17120000000E+03  0.17120000000E+03 0.  0.
         13    1    1    2    0    0  0.10564576317E+02  0.33656958410E+02  0.20999670254E+03  0.21293902264E+03  0.10566000000E+00 0.  1.
        994    1    1    2    0    0  0.13080752054E+02 -0.47280923786E+02  0.10469806335E+02  0.17839744581E+03  0.17120000000E+03 0.  0.
        998    1    1    2    0    0 -0.23645328371E+02  0.13623965376E+02  0.12795334874E+04  0.12798635315E+04  0.10000000000E+02 0.  1.
</event>
<event>
 5    1  0.1279376E-008  0.3765688E+03  0.7957747E-01  0.3466236E+00
         13   -1    0    0    0    0  0.00000000000E+00  0.00000000000E+00  0.14999999963E+04  0.15000000000E+04  0.10566000000E+00 0. -1.
        994   -1    0    0    0    0 -0.00000000000E+00 -0.00000000000E+00  0.11368683772E-12  0.17120000000E+03  0.17120000000E+03 0.  0.
         13    1    1    2    0    0 -0.98818389113E+01  0.20859146703E+02  0.11960270358E+02  0.25996422302E+02  0.10566000000E+00 0. -1.
        994    1    1    2    0    0  0.80615775962E+01 -0.23560713801E+02  0.16677267333E+02  0.17380353136E+03  0.17120000000E+03 0.  0.
        998    1    1    2    0    0  0.18202613152E+01  0.27015670980E+01  0.14713624586E+04  0.14714000463E+04  0.10000000000E+02 0. -1.
</event>
<event>
 5    1  0.1279376E-008  0.3695558E+03  0.7957747E-01  0.3497935E+00
         13   -1    0    0    0    0  0.00000000000E+00  0.00000000000E+00  0.14999999963E+04  0.15000000000E+04  0.10566000000E+00 0.  1.
        994   -1    0    0    0    0 -0.00000000000E+00 -0.00000000000E+00  0.11368683772E-12  0.17120000000E+03  0.17120000000E+03 0.  0.
         13    1    1    2    0    0  0.81320488053E+02  0.29803032709E+02  0.29289818769E+03  0.30543510284E+03  0.10566000000E+00 0.  1.
        994    1    1    2    0    0 -0.73190293480E+02 -0.28481499017E+02  0.32555773177E+02  0.19114741226E+03  0.17120000000E+03 0.  0.
        998    1    1    2    0    0 -0.81301945723E+01 -0.13215336923E+01  0.11745460354E+04  0.11746174849E+04  0.10000000000E+02 0.  0.
</event>
<event>
 5    1  0.1279376E-008  0.3837247E+03  0.7957747E-01  0.3435099E+00
         13   -1    0    0    0    0  0.00000000000E+00  0.00000000000E+00  0.14999999963E+04  0.15000000000E+04  0.10566000000E+00 0.  1.
        994   -1    0    0    0    0 -0.00000000000E+00 -0.00000000000E+00  0.11368683772E-12  0.17120000000E+03  0.17120000000E+03 0.  0.
         13    1    1    2    0    0 -0.16698962545E+02 -0.83110395319E+01  0.70704971017E+02  0.73124091917E+02  0.10566000000E+00 0.  1.
        994    1    1    2    0    0  0.16359865148E+02  0.24969878738E+02  0.52130099663E+01  0.17386131112E+03  0.17120000000E+03 0.  0.
        998    1    1    2    0    0  0.33909739656E+00 -0.16658839206E+02  0.14240820153E+04  0.14242145970E+04  0.10000000000E+02 0.  1.
</event>
<event>
 5    1  0.1279376E-008  0.3859317E+03  0.7957747E-01  0.3425730E+00
         13   -1    0    0    0    0  0.00000000000E+00  0.00000000000E+00  0.14999999963E+04  0.15000000000E+04  0.10566000000E+00 0.  1.
        994   -1    0    0    0    0 -0.00000000000E+00 -0.00000000000E+00  0.11368683772E-12  0.17120000000E+03  0.17120000000E+03 0.  0.
         13    1    1    2    0    0 -0.73943924622E+01  0.73732059663E+01  0.46910963751E+02  0.48059243546E+02  0.10566000000E+00 0.  1.
        994    1    1    2    0    0  0.19388520182E+02  0.76871218131E+01  0.25958306074E+01  0.17248531791E+03  0.17120000000E+03 0.  0.
        998    1    1    2    0    0 -0.11994127720E+02 -0.15060327779E+02  0.14504932019E+04  0.14506554385E+04  0.10000000000E+02 0.  1.
</event>
<event>
 5    1  0.1279376E-008  0.3813310E+03  0.7957747E-01  0.3445383E+00
         13   -1    0    0    0    0  0.00000000000E+00  0.00000000000E+00  0.14999999963E+04  0.15000000000E+04  0.10566000000E+00 0.  1.
        994   -1    0    0    0    0 -0.00000000000E+00 -0.00000000000E+00  0.11368683772E-12  0.17120000000E+03  0.17120000000E+03 0.  0.
         13    1    1    2    0    0 -0.36688605043E+02  0.10380623743E+02  0.18778623722E+03  0.19161809189E+03  0.10566000000E+00 0.  1.
        994    1    1    2    0    0  0.36118186036E+02 -0.48760329826E+01  0.78963394613E+01  0.17521441504E+03  0.17120000000E+03 0.  0.
        998    1    1    2    0    0  0.57041900689E+00 -0.55045907603E+01  0.13043174196E+04  0.13043674931E+04  0.10000000000E+02 0.  1.
</event>
<event>
 5    1  0.1279376E-008  0.3839900E+03  0.7957747E-01  0.3433967E+00
         13   -1    0    0    0    0  0.00000000000E+00  0.00000000000E+00  0.14999999963E+04  0.15000000000E+04  0.10566000000E+00 0.  1.
        994   -1    0    0    0    0 -0.00000000000E+00 -0.00000000000E+00  0.11368683772E-12  0.17120000000E+03  0.17120000000E+03 0.  0.
         13    1    1    2    0    0  0.11534732270E+02 -0.78128101336E+01  0.45411164290E+02  0.47500263757E+02  0.10566000000E+00 0.  1.
        994    1    1    2    0    0 -0.34040651155E+01  0.83078088069E+01  0.23984043201E+01  0.17145203320E+03  0.17120000000E+03 0.  0.
        998    1    1    2    0    0 -0.81306671540E+01 -0.49499867329E+00  0.14521904277E+04  0.14522477030E+04  0.10000000000E+02 0.  1.
</event>
<event>
 5    1  0.1279376E-008  0.3787052E+03  0.7957747E-01  0.3456816E+00
         13   -1    0    0    0    0  0.00000000000E+00  0.00000000000E+00  0.14999999963E+04  0.15000000000E+04  0.10566000000E+00 0. -1.
        994   -1    0    0    0    0 -0.00000000000E+00 -0.00000000000E+00  0.11368683772E-12  0.17120000000E+03  0.17120000000E+03 0.  0.
         13    1    1    2    0    0  0.26467297969E+02  0.27000047804E+01  0.80363742027E+02  0.84653116211E+02  0.10566000000E+00 0. -1.
        994    1    1    2    0    0  0.82141040530E+01 -0.42505643827E+01  0.50753868181E+01  0.17152474560E+03  0.17120000000E+03 0.  0.
        998    1    1    2    0    0 -0.34681402022E+02  0.15505596022E+01  0.14145608674E+04  0.14150221382E+04  0.10000000000E+02 0. -1.
</event>
<event>
 5    1  0.1279376E-008  0.3792182E+03  0.7957747E-01  0.3454570E+00
         13   -1    0    0    0    0  0.00000000000E+00  0.00000000000E+00  0.14999999963E+04  0.15000000000E+04  0.10566000000E+00 0.  1.
        994   -1    0    0    0    0 -0.00000000000E+00 -0.00000000000E+00  0.11368683772E-12  0.17120000000E+03  0.17120000000E+03 0.  0.
         13    1    1    2    0    0 -0.17504474780E+02 -0.22657624888E+02  0.11667502118E+03  0.12013678177E+03  0.10566000000E+00 0.  1.
        994    1    1    2    0    0  0.72361290235E+02 -0.81027246211E+02  0.45156499279E+02  0.20772607054E+03  0.17120000000E+03 0.  0.
        998    1    1    2    0    0 -0.54856815455E+02  0.10368487110E+03  0.13381684758E+04  0.13433371477E+04  0.10000000000E+02 0.  1.
</event>
<event>
 5    1  0.1279376E-008  0.3852462E+03  0.7957747E-01  0.3428629E+00
         13   -1    0    0    0    0  0.00000000000E+00  0.00000000000E+00  0.14999999963E+04  0.15000000000E+04  0.10566000000E+00 0. -1.
        994   -1    0    0    0    0 -0.00000000000E+00 -0.00000000000E+00  0.11368683772E-12  0.17120000000E+03  0.17120000000E+03 0.  0.
         13    1    1    2    0    0 -0.13709144010E+02 -0.51664916473E+01  0.66797982600E+02  0.68385780020E+02  0.10566000000E+00 0. -1.
        994    1    1    2    0    0  0.19613358814E+02  0.37490777154E+01  0.28193011127E+01  0.17238366479E+03  0.17120000000E+03 0.  0.
        998    1    1    2    0    0 -0.59042148039E+01  0.14174139319E+01  0.14303827126E+04  0.14304305552E+04  0.10000000000E+02 0. -1.
</event>
<event>
 5    1  0.1279376E-008  0.3768939E+03  0.7957747E-01  0.3464796E+00
         13   -1    0    0    0    0  0.00000000000E+00  0.00000000000E+00  0.14999999963E+04  0.15000000000E+04  0.10566000000E+00 0. -1.
        994   -1    0    0    0    0 -0.00000000000E+00 -0.00000000000E+00  0.11368683772E-12  0.17120000000E+03  0.17120000000E+03 0.  0.
         13    1    1    2    0    0  0.14271969212E+03  0.12936871061E+03  0.99208601424E+03  0.10106135981E+04  0.10566000000E+00 0. -1.
        994    1    1    2    0    0 -0.14049930053E+03 -0.12241850307E+03  0.13376402061E+03  0.28623171828E+03  0.17120000000E+03 0.  0.
        998    1    1    2    0    0 -0.22203915975E+01 -0.69502075390E+01  0.37414996143E+03  0.37435468364E+03  0.10000000000E+02 0.  0.
</event>
<event>
 5    1  0.1279376E-008  0.3821367E+03  0.7957747E-01  0.3441907E+00
         13   -1    0    0    0    0  0.00000000000E+00  0.00000000000E+00  0.14999999963E+04  0.15000000000E+04  0.10566000000E+00 0. -1.
        994   -1    0    0    0    0 -0.00000000000E+00 -0.00000000000E+00  0.11368683772E-12  0.17120000000E+03  0.17120000000E+03 0.  0.
         13    1    1    2    0    0 -0.18804389259E+02 -0.15503634284E+02  0.10923142462E+03  0.11191730438E+03  0.10566000000E+00 0. -1.
        994    1    1    2    0    0 -0.28293695043E+02  0.28877195376E+02  0.85029060540E+01  0.17611406816E+03  0.17120000000E+03 0.  0.
        998    1    1    2    0    0  0.47098084301E+02 -0.13373561092E+02  0.13822656656E+04  0.13831686275E+04  0.10000000000E+02 0. -1.
</event>
<event>
 5    1  0.1279376E-008  0.3834748E+03  0.7957747E-01  0.3436167E+00
         13   -1    0    0    0    0  0.00000000000E+00  0.00000000000E+00  0.14999999963E+04  0.15000000000E+04  0.10566000000E+00 0.  1.
        994   -1    0    0    0    0 -0.00000000000E+00 -0.00000000000E+00  0.11368683772E-12  0.17120000000E+03  0.17120000000E+03 0.  0.
         13    1    1    2    0    0  0.61647285834E+01  0.22971308964E+02  0.12347946251E+03  0.12574924946E+03  0.10566000000E+00 0.  1.
        994    1    1    2    0    0  0.18107465859E+02 -0.13999163451E+02  0.41225246516E+01  0.17277237078E+03  0.17120000000E+03 0.  0.
        998    1    1    2    0    0 -0.24272194442E+02 -0.89721455127E+01  0.13723980091E+04  0.13726783798E+04  0.10000000000E+02 0.  1.
</event>
<event>
 5    1  0.1279376E-008  0.3842965E+03  0.7957747E-01  0.3432661E+00
         13   -1    0    0    0    0  0.00000000000E+00  0.00000000000E+00  0.14999999963E+04  0.15000000000E+04  0.10566000000E+00 0. -1.
        994   -1    0    0    0    0 -0.00000000000E+00 -0.00000000000E+00  0.11368683772E-12  0.17120000000E+03  0.17120000000E+03 0.  0.
         13    1    1    2    0    0  0.92512011457E+01 -0.17391074374E+02  0.10992305869E+03  0.11167418764E+03  0.10566000000E+00 0. -1.
        994    1    1    2    0    0 -0.27076438565E+01 -0.46970572941E+01  0.20767187761E+01  0.17129841343E+03  0.17120000000E+03 0.  0.
        998    1    1    2    0    0 -0.65435572891E+01  0.22088131668E+02  0.13880002188E+04  0.13882273989E+04  0.10000000000E+02 0. -1.
</event>
<event>
 5    1  0.1279376E-008  0.3834179E+03  0.7957747E-01  0.3436410E+00
         13   -1    0    0    0    0  0.00000000000E+00  0.00000000000E+00  0.14999999963E+04  0.15000000000E+04  0.10566000000E+00 0. -1.
        994   -1    0    0    0    0 -0.00000000000E+00 -0.00000000000E+00  0.11368683772E-12  0.17120000000E+03  0.17120000000E+03 0.  0.
         13    1    1    2    0    0  0.89439537708E+01 -0.77038869063E+01  0.29117415946E+02  0.31419408936E+02  0.10566000000E+00 0. -1.
        994    1    1    2    0    0 -0.68734676964E+01 -0.11171870650E+02  0.29866008868E+01  0.17172773520E+03  0.17120000000E+03 0.  0.
        998    1    1    2    0    0 -0.20704860744E+01  0.18875757556E+02  0.14678959794E+04  0.14680528559E+04  0.10000000000E+02 0. -1.
</event>
<event>
 5    1  0.1279376E-008  0.3736938E+03  0.7957747E-01  0.3479085E+00
         13   -1    0    0    0    0  0.00000000000E+00  0.00000000000E+00  0.14999999963E+04  0.15000000000E+04  0.10566000000E+00 0. -1.
        994   -1    0    0    0    0 -0.00000000000E+00 -0.00000000000E+00  0.11368683772E-12  0.17120000000E+03  0.17120000000E+03 0.  0.
         13    1    1    2    0    0  0.21069091598E+02  0.41637463855E+02  0.14171310206E+03  0.14919852370E+03  0.10566000000E+00 0. -1.
        994    1    1    2    0    0  0.28023523329E+02 -0.53349541574E+02  0.19852934350E+02  0.18257894306E+03  0.17120000000E+03 0.  0.
        998    1    1    2    0    0 -0.49092614928E+02  0.11712077719E+02  0.13384339599E+04  0.13394225332E+04  0.10000000000E+02 0. -1.
</event>
<event>
 5    1  0.1279376E-008  0.3843432E+03  0.7957747E-01  0.3432462E+00
         13   -1    0    0    0    0  0.00000000000E+00  0.00000000000E+00  0.14999999963E+04  0.15000000000E+04  0.10566000000E+00 0.  1.
        994   -1    0    0    0    0 -0.00000000000E+00 -0.00000000000E+00  0.11368683772E-12  0.17120000000E+03  0.17120000000E+03 0.  0.
         13    1    1    2    0    0  0.65051188576E+01 -0.24763712741E+02  0.15140436137E+03  0.15355406164E+03  0.10566000000E+00 0.  1.
        994    1    1    2    0    0 -0.12423638193E+02  0.24464122200E+02  0.44416130545E+01  0.17344165586E+03  0.17120000000E+03 0.  0.
        998    1    1    2    0    0  0.59185193355E+01  0.29959054115E+00  0.13441540219E+04  0.13442042825E+04  0.10000000000E+02 0.  1.
</event>
<event>
 5    1  0.1279376E-008  0.3822016E+03  0.7957747E-01  0.3441628E+00
         13   -1    0    0    0    0  0.00000000000E+00  0.00000000000E+00  0.14999999963E+04  0.15000000000E+04  0.10566000000E+00 0. -1.
        994   -1    0    0    0    0 -0.00000000000E+00 -0.00000000000E+00  0.11368683772E-12  0.17120000000E+03  0.17120000000E+03 0.  0.
         13    1    1    2    0    0  0.24678557291E+03  0.74532049494E+02  0.10221758687E+04  0.10541829363E+04  0.10566000000E+00 0. -1.
        994    1    1    2    0    0 -0.25279749659E+03 -0.99672834047E+02  0.30814378177E+03  0.44508794454E+03  0.17120000000E+03 0.  0.
        998    1    1    2    0    0  0.60119236831E+01  0.25140784553E+02  0.16968034582E+03  0.17192911921E+03  0.10000000000E+02 0. -1.
</event>
<event>
 5    1  0.1279376E-008  0.3723884E+03  0.7957747E-01  0.3484986E+00
         13   -1    0    0    0    0  0.00000000000E+00  0.00000000000E+00  0.14999999963E+04  0.15000000000E+04  0.10566000000E+00 0.  1.
        994   -1    0    0    0    0 -0.00000000000E+00 -0.00000000000E+00  0.11368683772E-12  0.17120000000E+03  0.17120000000E+03 0.  0.
         13    1    1    2    0    0  0.39803118112E+01 -0.30602568095E+02  0.35276321519E+02  0.46869927246E+02  0.10566000000E+00 0.  1.
        994    1    1    2    0    0 -0.24616726219E+01  0.83133355582E+01  0.12472405491E+02  0.17187254661E+03  0.17120000000E+03 0.  0.
        998    1    1    2    0    0 -0.15186391893E+01  0.22289232537E+02  0.14522512693E+04  0.14524575261E+04  0.10000000000E+02 0.  1.
</event>
<event>
 5    1  0.1279376E-008  0.3806904E+03  0.7957747E-01  0.3448158E+00
         13   -1    0    0    0    0  0.00000000000E+00  0.00000000000E+00  0.14999999963E+04  0.15000000000E+04  0.10566000000E+00 0. -1.
        994   -1    0    0    0    0 -0.00000000000E+00 -0.00000000000E+00  0.11368683772E-12  0.17120000000E+03  0.17120000000E+03 0.  0.
         13    1    1    2    0    0  0.17385519618E+02  0.40026438275E+01  0.39802773348E+02  0.43618223029E+02  0.10566000000E+00 0. -1.
        994    1    1    2    0    0 -0.17867791250E+02 -0.11053884142E+01  0.48546453129E+01  0.17220187986E+03  0.17120000000E+03 0.  0.
        998    1    1    2    0    0  0.48227163223E+00 -0.28972554133E+01  0.14553425776E+04  0.14553798971E+04  0.10000000000E+02 0. -1.
</event>
<event>
 5    1  0.1279376E-008  0.3745163E+03  0.7957747E-01  0.3475389E+00
         13   -1    0    0    0    0  0.00000000000E+00  0.00000000000E+00  0.14999999963E+04  0.15000000000E+04  0.10566000000E+00 0.  1.
        994   -1    0    0    0    0 -0.00000000000E+00 -0.00000000000E+00  0.11368683772E-12  0.17120000000E+03  0.17120000000E+03 0.  0.
         13    1    1    2    0    0  0.45692893033E+02  0.54594623012E+01  0.18186224499E+03  0.18759406579E+03  0.10566000000E+00 0.  1.
        994    1    1    2    0    0  0.47868732975E+01  0.94721352042E+01  0.73109067837E+01  0.17168437570E+03  0.17120000000E+03 0.  0.
        998    1    1    2    0    0 -0.50479766331E+02 -0.14931597505E+02  0.13108268445E+04  0.13119215585E+04  0.10000000000E+02 0.  1.
</event>
<event>
 5    1  0.1279376E-008  0.3842669E+03  0.7957747E-01  0.3432787E+00
         13   -1    0    0    0    0  0.00000000000E+00  0.00000000000E+00  0.14999999963E+04  0.15000000000E+04  0.10566000000E+00 0.  1.
        994   -1    0    0    0    0 -0.00000000000E+00 -0.00000000000E+00  0.11368683772E-12  0.17120000000E+03  0.17120000000E+03 0.  0.
         13    1    1    2    0    0 -0.70944719357E+01  0.15355208890E+02  0.68817788497E+02  0.70866163645E+02  0.10566000000E+00 0.  1.
        994    1    1    2    0    0  0.64162891207E+01 -0.16034745175E+02  0.29784231765E+01  0.17209472050E+03  0.17120000000E+03 0.  0.
        998    1    1    2    0    0  0.67818281504E+00  0.67953628436E+00  0.14282037846E+04  0.14282391159E+04  0.10000000000E+02 0.  1.
</event>
<event>
 5    1  0.1279376E-008  0.3810844E+03  0.7957747E-01  0.3446450E+00
         13   -1    0    0    0    0  0.00000000000E+00  0.00000000000E+00  0.14999999963E+04  0.15000000000E+04  0.10566000000E+00 0.  1.
        994   -1    0    0    0    0 -0.00000000000E+00 -0.00000000000E+00  0.11368683772E-12  0.17120000000E+03  0.17120000000E+03 0.  0.
         13    1    1    2    0    0  0.40787861923E+02 -0.28323167939E+02  0.67901802545E+02  0.84122039177E+02  0.10566000000E+00 0.  1.
        994    1    1    2    0    0 -0.40431599774E+02 -0.80877290644E+01  0.23134639418E+02  0.17760849406E+03  0.17120000000E+03 0.  0.
        998    1    1    2    0    0 -0.35626214871E+00  0.36410897004E+02  0.14089635543E+04  0.14094694668E+04  0.10000000000E+02 0.  1.
</event>
<event>
 5    1  0.1279376E-008  0.3824615E+03  0.7957747E-01  0.3440510E+00
         13   -1    0    0    0    0  0.00000000000E+00  0.00000000000E+00  0.14999999963E+04  0.15000000000E+04  0.10566000000E+00 0.  1.
        994   -1    0    0    0    0 -0.00000000000E+00 -0.00000000000E+00  0.11368683772E-12  0.17120000000E+03  0.17120000000E+03 0.  0.
         13    1    1    2    0    0  0.73131046803E+01 -0.80317961363E+01  0.19008732500E+02  0.21893705135E+02  0.10566000000E+00 0.  1.
        994    1    1    2    0    0 -0.16043238893E+02  0.14199575492E+01  0.37563609304E+01  0.17199695358E+03  0.17120000000E+03 0.  0.
        998    1    1    2    0    0  0.87301342126E+01  0.66118385871E+01  0.14772349028E+04  0.14773093413E+04  0.10000000000E+02 0.  1.
</event>
<event>
 5    1  0.1279376E-008  0.3702402E+03  0.7957747E-01  0.3494788E+00
         13   -1    0    0    0    0  0.00000000000E+00  0.00000000000E+00  0.14999999963E+04  0.15000000000E+04  0.10566000000E+00 0. -1.
        994   -1    0    0    0    0 -0.00000000000E+00 -0.00000000000E+00  0.11368683772E-12  0.17120000000E+03  0.17120000000E+03 0.  0.
         13    1    1    2    0    0  0.59063986975E+02 -0.90164954295E+02  0.37730148190E+03  0.39239609191E+03  0.10566000000E+00 0. -1.
        994    1    1    2    0    0 -0.57938833494E+02  0.93055514736E+02  0.54381139635E+02  0.21043522898E+03  0.17120000000E+03 0.  0.
        998    1    1    2    0    0 -0.11251534809E+01 -0.28905604408E+01  0.10683173747E+04  0.10683686791E+04  0.10000000000E+02 0. -1.
</event>
<event>
 5    1  0.1279376E-008  0.3770879E+03  0.7957747E-01  0.3463937E+00
         13   -1    0    0    0    0  0.00000000000E+00  0.00000000000E+00  0.14999999963E+04  0.15000000000E+04  0.10566000000E+00 0.  1.
        994   -1    0    0    0    0 -0.00000000000E+00 -0.00000000000E+00  0.11368683772E-12  0.17120000000E+03  0.17120000000E+03 0.  0.
         13    1    1    2    0    0 -0.70699597108E+02  0.44359872685E+02  0.36021009682E+03  0.36975337233E+03  0.10566000000E+00 0.  1.
        994    1    1    2    0    0 -0.14333123724E+02  0.12576194700E+02  0.16041441951E+02  0.17300395073E+03  0.17120000000E+03 0.  0.
        998    1    1    2    0    0  0.85032720832E+02 -0.56936067385E+02  0.11237484575E+04  0.11284426769E+04  0.10000000000E+02 0. -1.
</event>
<event>
 5    1  0.1279376E-008  0.3814884E+03  0.7957747E-01  0.3444703E+00
         13   -1    0    0    0    0  0.00000000000E+00  0.00000000000E+00  0.14999999963E+04  0.15000000000E+04  0.10566000000E+00 0. -1.
        994   -1    0    0    0    0 -0.00000000000E+00 -0.00000000000E+00  0.11368683772E-12  0.17120000000E+03  0.17120000000E+03 0.  0.
         13    1    1    2    0    0  0.14593633736E+02 -0.31947203917E+02  0.16129263863E+03  0.16507248234E+03  0.10566000000E+00 0. -1.
        994    1    1    2    0    0  0.19385464423E+02  0.51905180246E+02  0.13664191468E+02  0.18046078271E+03  0.17120000000E+03 0.  0.
        998    1    1    2    0    0 -0.33979098159E+02 -0.19957976329E+02  0.13250431662E+04  0.13256667350E+04  0.10000000000E+02 0. -1.
</event>
<event>
 5    1  0.1279376E-008  0.3711159E+03  0.7957747E-01  0.3490778E+00
         13   -1    0    0    0    0  0.00000000000E+00  0.00000000000E+00  0.14999999963E+04  0.15000000000E+04  0.10566000000E+00 0. -1.
        994   -1    0    0    0    0 -0.00000000000E+00 -0.00000000000E+00  0.11368683772E-12  0.17120000000E+03  0.17120000000E+03 0.  0.
         13    1    1    2    0    0  0.23950295878E+01  0.10338680194E+02  0.24287206443E+01  0.10887346917E+02  0.10566000000E+00 0. -1.
        994    1    1    2    0    0 -0.68586454273E+01 -0.72819372307E+01  0.90317125575E+01  0.17172966971E+03  0.17120000000E+03 0.  0.
        998    1    1    2    0    0  0.44636158395E+01 -0.30567429634E+01  0.14885395631E+04  0.14885829834E+04  0.10000000000E+02 0. -1.
</event>
<event>
 5    1  0.1279376E-008  0.3788166E+03  0.7957747E-01  0.3456327E+00
         13   -1    0    0    0    0  0.00000000000E+00  0.00000000000E+00  0.14999999963E+04  0.15000000000E+04  0.10566000000E+00 0.  1.
        994   -1    0    0    0    0 -0.00000000000E+00 -0.00000000000E+00  0.11368683772E-12  0.17120000000E+03  0.17120000000E+03 0.  0.
         13    1    1    2    0    0  0.14244250476E+02 -0.21855832628E+02  0.67341618818E+02  0.72218286331E+02  0.10566000000E+00 0.  1.
        994    1    1    2    0    0 -0.18267913526E+02  0.19976802394E+02  0.71948666581E+01  0.17347620991E+03  0.17120000000E+03 0.  0.
        998    1    1    2    0    0  0.40236630501E+01  0.18790302340E+01  0.14254635108E+04  0.14255055038E+04  0.10000000000E+02 0.  1.
</event>
<event>
 5    1  0.1279376E-008  0.3852294E+03  0.7957747E-01  0.3428700E+00
         13   -1    0    0    0    0  0.00000000000E+00  0.00000000000E+00  0.14999999963E+04  0.15000000000E+04  0.10566000000E+00 0.  1.
        994   -1    0    0    0    0 -0.00000000000E+00 -0.00000000000E+00  0.11368683772E-12  0.17120000000E+03  0.17120000000E+03 0.  0.
         13    1    1    2    0    0 -0.11838546806E+02  0.56275646341E+01  0.59269389663E+02  0.60701667105E+02  0.10566000000E+00 0.  1.
        994    1    1    2    0    0 -0.18446689719E+01 -0.84683578977E+01  0.17631863353E+01  0.17142830780E+03  0.17120000000E+03 0.  0.
        998    1    1    2    0    0  0.13683215778E+02  0.28407932636E+01  0.14389674203E+04  0.14390700251E+04  0.10000000000E+02 0.  1.
</event>
<event>
 5    1  0.1279376E-008  0.3822453E+03  0.7957747E-01  0.3441440E+00
         13   -1    0    0    0    0  0.00000000000E+00  0.00000000000E+00  0.14999999963E+04  0.15000000000E+04  0.10566000000E+00 0.  1.
        994   -1    0    0    0    0 -0.00000000000E+00 -0.00000000000E+00  0.11368683772E-12  0.17120000000E+03  0.17120000000E+03 0.  0.
         13    1    1    2    0    0  0.99842240510E+01 -0.91467564498E+00  0.15345946243E+02  0.18331137214E+02  0.10566000000E+00 0.  1.
        994    1    1    2    0    0 -0.11147488631E+02 -0.38163672157E+00  0.34169586923E+01  0.17159699227E+03  0.17120000000E+03 0.  0.
        998    1    1    2    0    0  0.11632645797E+01  0.12963123665E+01  0.14812370913E+04  0.14812718705E+04  0.10000000000E+02 0.  1.
</event>
<event>
 5    1  0.1279376E-008  0.3841927E+03  0.7957747E-01  0.3433103E+00
         13   -1    0    0    0    0  0.00000000000E+00  0.00000000000E+00  0.14999999963E+04  0.15000000000E+04  0.10566000000E+00 0. -1.
        994   -1    0    0    0    0 -0.00000000000E+00 -0.00000000000E+00  0.11368683772E-12  0.17120000000E+03  0.17120000000E+03 0.  0.
         13    1    1    2    0    0 -0.14594166207E+01  0.17343134556E+02  0.75397360801E+02  0.77380148571E+02  0.10566000000E+00 0. -1.
        994    1    1    2    0    0 -0.33079099324E+01 -0.89925402613E+01  0.23342509803E+01  0.17148380908E+03  0.17120000000E+03 0.  0.
        998    1    1    2    0    0  0.47673265531E+01 -0.83505942950E+01  0.14222683845E+04  0.14223360424E+04  0.10000000000E+02 0. -1.
</event>
<event>
 5    1  0.1279376E-008  0.3846704E+03  0.7957747E-01  0.3431071E+00
         13   -1    0    0    0    0  0.00000000000E+00  0.00000000000E+00  0.14999999963E+04  0.15000000000E+04  0.10566000000E+00 0. -1.
        994   -1    0    0    0    0 -0.00000000000E+00 -0.00000000000E+00  0.11368683772E-12  0.17120000000E+03  0.17120000000E+03 0.  0.
         13    1    1    2    0    0  0.36759372902E+01 -0.13063151059E+02  0.58509540170E+02  0.60062766216E+02  0.10566000000E+00 0. -1.
        994    1    1    2    0    0  0.17521286687E+02 -0.92254573752E+01  0.30857940044E+01  0.17236898409E+03  0.17120000000E+03 0.  0.
        998    1    1    2    0    0 -0.21197223977E+02  0.22288608434E+02  0.14384046621E+04  0.14387682497E+04  0.10000000000E+02 0. -1.
</event>
<event>
 5    1  0.1279376E-008  0.3836333E+03  0.7957747E-01  0.3435489E+00
         13   -1    0    0    0    0  0.00000000000E+00  0.00000000000E+00  0.14999999963E+04  0.15000000000E+04  0.10566000000E+00 0. -1.
        994   -1    0    0    0    0 -0.00000000000E+00 -0.00000000000E+00  0.11368683772E-12  0.17120000000E+03  0.17120000000E+03 0.  0.
         13    1    1    2    0    0  0.13585556363E+03  0.74495459872E+01  0.34154447979E+03  0.36764775634E+03  0.10566000000E+00 0. -1.
        994    1    1    2    0    0 -0.14983638116E+03  0.12623820662E+02  0.10694226925E+03  0.25170695445E+03  0.17120000000E+03 0.  0.
        998    1    1    2    0    0  0.13980817530E+02 -0.20073366649E+02  0.10515132472E+04  0.10518452892E+04  0.10000000000E+02 0. -1.
</event>
<event>
 5    1  0.1279376E-008  0.3805266E+03  0.7957747E-01  0.3448869E+00
         13   -1    0    0    0    0  0.00000000000E+00  0.00000000000E+00  0.14999999963E+04  0.15000000000E+04  0.10566000000E+00 0. -1.
        994   -1    0    0    0    0 -0.00000000000E+00 -0.00000000000E+00  0.11368683772E-12  0.17120000000E+03  0.17120000000E+03 0.  0.
         13    1    1    2    0    0 -0.76191101368E+02 -0.13167131476E+02  0.20092906606E+03  0.21529272638E+03  0.10566000000E+00 0. -1.
        994    1    1    2    0    0  0.32147893659E+01  0.87670199508E+02  0.45123019240E+02  0.19759029738E+03  0.17120000000E+03 0.  0.
        998    1    1    2    0    0  0.72976312002E+02 -0.74503068033E+02  0.12539479110E+04  0.12583169762E+04  0.10000000000E+02 0. -1.
</event>
<event>
 5    1  0.1279376E-008  0.3745085E+03  0.7957747E-01  0.3475424E+00
         13   -1    0    0    0    0  0.00000000000E+00  0.00000000000E+00  0.14999999963E+04  0.15000000000E+04  0.10566000000E+00 0. -1.
        994   -1    0    0    0    0 -0.00000000000E+00 -0.00000000000E+00  0.11368683772E-12  0.17120000000E+03  0.17120000000E+03 0.  0.
         13    1    1    2    0    0  0.14015480344E+01 -0.13449718693E+02  0.10052753941E+02  0.16850171977E+02  0.10566000000E+00 0. -1.
        994    1    1    2    0    0  0.11162935627E+01  0.11164446573E+02  0.73601155385E+01  0.17172507761E+03  0.17120000000E+03 0.  0.
        998    1    1    2    0    0 -0.25178415971E+01  0.22852721197E+01  0.14825871268E+04  0.14826247504E+04  0.10000000000E+02 0. -1.
</event>
<event>
 5    1  0.1465711E-008  0.3862088E+03  0.7957747E-01  0.3424562E+00
         13   -1    0    0    0    0  0.00000000000E+00  0.00000000000E+00  0.14999999963E+04  0.15000000000E+04  0.10566000000E+00 0.  1.
        994   -1    0    0    0    0 -0.00000000000E+00 -0.00000000000E+00  0.11368683772E-12  0.17120000000E+03  0.17120000000E+03 0.  0.
         13    1    1    2    0    0 -0.11445918813E+02 -0.46685375585E+01  0.72103456393E+02  0.73155477500E+02  0.10566000000E+00 0.  1.
        994    1    1    2    0    0  0.12990068485E+02  0.33663123350E+01  0.16212682642E+01  0.17173276463E+03  0.17120000000E+03 0.  0.
        998    1    1    2    0    0 -0.15441496720E+01  0.13022252235E+01  0.14262752716E+04  0.14263117579E+04  0.10000000000E+02 0.  1.
</event>
<event>
 5    1  0.1279376E-008  0.3757725E+03  0.7957747E-01  0.3469775E+00
         13   -1    0    0    0    0  0.00000000000E+00  0.00000000000E+00  0.14999999963E+04  0.15000000000E+04  0.10566000000E+00 0.  1.
        994   -1    0    0    0    0 -0.00000000000E+00 -0.00000000000E+00  0.11368683772E-12  0.17120000000E+03  0.17120000000E+03 0.  0.
         13    1    1    2    0    0 -0.58800951224E+02 -0.21957786264E+02  0.30708914329E+03  0.31343811085E+03  0.10566000000E+00 0.  1.
        994    1    1    2    0    0  0.36243966453E+02  0.10418468040E+02  0.11119472798E+02  0.17565663169E+03  0.17120000000E+03 0.  0.
        998    1    1    2    0    0  0.22556984770E+02  0.11539318225E+02  0.11817913802E+04  0.11821052575E+04  0.10000000000E+02 0.  1.
</event>
<event>
 5    1  0.1279376E-008  0.3816531E+03  0.7957747E-01  0.3443992E+00
         13   -1    0    0    0    0  0.00000000000E+00  0.00000000000E+00  0.14999999963E+04  0.15000000000E+04  0.10566000000E+00 0. -1.
        994   -1    0    0    0    0 -0.00000000000E+00 -0.00000000000E+00  0.11368683772E-12  0.17120000000E+03  0.17120000000E+03 0.  0.
         13    1    1    2    0    0 -0.78756367686E+02  0.12487849418E+03  0.84004033823E+03  0.85291557893E+03  0.10566000000E+00 0. -1.
        994    1    1    2    0    0  0.61579298178E+02 -0.16611650593E+03  0.11583708657E+03  0.27223955284E+03  0.17120000000E+03 0.  0.
        998    1    1    2    0    0  0.17177069508E+02  0.41238011749E+02  0.54412257148E+03  0.54604486823E+03  0.10000000000E+02 0. -1.
</event>
<event>
 5    1  0.1279376E-008  0.3751867E+03  0.7957747E-01  0.3472388E+00
         13   -1    0    0    0    0  0.00000000000E+00  0.00000000000E+00  0.14999999963E+04  0.15000000000E+04  0.10566000000E+00 0. -1.
        994   -1    0    0    0    0 -0.00000000000E+00 -0.00000000000E+00  0.11368683772E-12  0.17120000000E+03  0.17120000000E+03 0.  0.
         13    1    1    2    0    0  0.16168746127E+02  0.49180055493E+02  0.22761835676E+03  0.23343143256E+03  0.10566000000E+00 0. -1.
        994    1    1    2    0    0  0.22592412399E+02 -0.20285352399E+02  0.97210529233E+01  0.17414319249E+03  0.17120000000E+03 0.  0.
        998    1    1    2    0    0 -0.38761158525E+02 -0.28894703094E+02  0.12626605866E+04  0.12636253750E+04  0.10000000000E+02 0. -1.
</event>
<event>
 5    1  0.1279376E-008  0.2889130E+03  0.7957747E-01  0.3978494E+00
         13   -1    0    0    0    0  0.00000000000E+00  0.00000000000E+00  0.14999999963E+04  0.15000000000E+04  0.10566000000E+00 0.  1.
        994   -1    0    0    0    0 -0.00000000000E+00 -0.00000000000E+00  0.11368683772E-12  0.17120000000E+03  0.17120000000E+03 0.  0.
         13    1    1    2    0    0  0.30520738746E+02  0.11685759705E+03  0.71115651125E+03  0.72133959280E+03  0.10566000000E+00 0.  1.
        994    1    1    2    0    0 -0.77227825942E+02 -0.49296389148E+02  0.42277879100E+02  0.19872375335E+03  0.17120000000E+03 0.  0.
        998    1    1    2    0    0  0.46707087196E+02 -0.67561207907E+02  0.74656560593E+03  0.75113665385E+03  0.10000000000E+02 0.  1.
</event>
<event>
 5    1  0.1279376E-008  0.3826098E+03  0.7957747E-01  0.3439873E+00
         13   -1    0    0    0    0  0.00000000000E+00  0.00000000000E+00  0.14999999963E+04  0.15000000000E+04  0.10566000000E+00 0. -1.
        994   -1    0    0    0    0 -0.00000000000E+00 -0.00000000000E+00  0.11368683772E-12  0.17120000000E+03  0.17120000000E+03 0.  0.
         13    1    1    2    0    0  0.13156161330E+02  0.15993698421E+01  0.31198922713E+02  0.33897293510E+02  0.10566000000E+00 0. -1.
        994    1    1    2    0    0  0.11716699306E+01 -0.42987265013E+01  0.28872827435E+01  0.17128230575E+03  0.17120000000E+03 0.  0.
        998    1    1    2    0    0 -0.14327831261E+02  0.26993566593E+01  0.14659137908E+04  0.14660204007E+04  0.10000000000E+02 0. -1.
</event>
<event>
 5    1  0.1279376E-008  0.3769707E+03  0.7957747E-01  0.3464456E+00
         13   -1    0    0    0    0  0.00000000000E+00  0.00000000000E+00  0.14999999963E+04  0.15000000000E+04  0.10566000000E+00 0. -1.
        994   -1    0    0    0    0 -0.00000000000E+00 -0.00000000000E+00  0.11368683772E-12  0.17120000000E+03  0.17120000000E+03 0.  0.
         13    1    1    2    0    0  0.16397681004E+01 -0.17515056421E+02  0.25310992785E+02  0.30824074368E+02  0.10566000000E+00 0. -1.
        994    1    1    2    0    0 -0.11331605112E+02  0.52511691068E+01  0.61970859762E+01  0.17176677189E+03  0.17120000000E+03 0.  0.
        998    1    1    2    0    0  0.96918370114E+01  0.12263887314E+02  0.14684919175E+04  0.14686091537E+04  0.10000000000E+02 0. -1.
</event>
<event>
 5    1  0.1279376E-008  0.3849274E+03  0.7957747E-01  0.3429980E+00
         13   -1    0    0    0    0  0.00000000000E+00  0.00000000000E+00  0.14999999963E+04  0.15000000000E+04  0.10566000000E+00 0. -1.
        994   -1    0    0    0    0 -0.00000000000E+00 -0.00000000000E+00  0.11368683772E-12  0.17120000000E+03  0.17120000000E+03 0.  0.
         13    1    1    2    0    0  0.58702970281E+01  0.10946795435E+02  0.47875429851E+02  0.49460698185E+02  0.10566000000E+00 0. -1.
        994    1    1    2    0    0  0.40341510156E+01 -0.41620316350E+01  0.17767327930E+01  0.17130730767E+03  0.17120000000E+03 0.  0.
        998    1    1    2    0    0 -0.99044480437E+01 -0.67847637995E+01  0.14503478336E+04  0.14504319941E+04  0.10000000000E+02 0. -1.
</event>
<event>
 5    1  0.1279376E-008  0.3847759E+03  0.7957747E-01  0.3430623E+00
         13   -1    0    0    0    0  0.00000000000E+00  0.00000000000E+00  0.14999999963E+04  0.15000000000E+04  0.10566000000E+00 0. -1.
        994   -1    0    0    0    0 -0.00000000000E+00 -0.00000000000E+00  0.11368683772E-12  0.17120000000E+03  0.17120000000E+03 0.  0.
         13    1    1    2    0    0  0.52842606340E+01 -0.13552449219E+02  0.63634404774E+02  0.65275883182E+02  0.10566000000E+00 0. -1.
        994    1    1    2    0    0  0.41248117963E+01  0.34925922990E+01  0.18376079803E+01  0.17129515193E+03  0.17120000000E+03 0.  0.
        998    1    1    2    0    0 -0.94090724303E+01  0.10059856920E+02  0.14345279835E+04  0.14346289649E+04  0.10000000000E+02 0. -1.
</event>
<event>
 5    1  0.1279376E-008  0.3747119E+03  0.7957747E-01  0.3474512E+00
         13   -1    0    0    0    0  0.00000000000E+00  0.00000000000E+00  0.14999999963E+04  0.15000000000E+04  0.10566000000E+00 0.  1.
        994   -1    0    0    0    0 -0.00000000000E+00 -0.00000000000E+00  0.11368683772E-12  0.17120000000E+03  0.17120000000E+03 0.  0.
         13    1    1    2    0    0  0.12439291660E+02  0.54657758247E+02  0.26749296275E+03  0.27330331648E+03  0.10566000000E+00 0.  1.
        994    1    1    2    0    0 -0.14107180628E+02 -0.70438701235E+01  0.76731366079E+01  0.17209574567E+03  0.17120000000E+03 0.  0.
        998    1    1    2    0    0  0.16678889681E+01 -0.47613888123E+02  0.12248338969E+04  0.12258009379E+04  0.10000000000E+02 0.  1.
</event>
<event>
 5    1  0.1279376E-008  0.3791646E+03  0.7957747E-01  0.3454804E+00
         13   -1    0    0    0    0  0.00000000000E+00  0.00000000000E+00  0.14999999963E+04  0.15000000000E+04  0.10566000000E+00 0.  1.
        994   -1    0    0    0    0 -0.00000000000E+00 -0.00000000000E+00  0.11368683772E-12  0.17120000000E+03  0.17120000000E+03 0.  0.
         13    1    1    2    0    0 -0.20163591350E+02  0.39770951803E+01  0.43353422223E+02  0.47978308481E+02  0.10566000000E+00 0.  1.
        994    1    1    2    0    0  0.22801834450E+02  0.23345680176E+01  0.63185936816E+01  0.17284310368E+03  0.17120000000E+03 0.  0.
        998    1    1    2    0    0 -0.26382431002E+01 -0.63116631979E+01  0.14503279804E+04  0.14503785878E+04  0.10000000000E+02 0.  1.
</event>
<event>
 5    1  0.1279376E-008  0.3809552E+03  0.7957747E-01  0.3447010E+00
         13   -1    0    0    0    0  0.00000000000E+00  0.00000000000E+00  0.14999999963E+04  0.15000000000E+04  0.10566000000E+00 0. -1.
        994   -1    0    0    0    0 -0.00000000000E+00 -0.00000000000E+00  0.11368683772E-12  0.17120000000E+03  0.17120000000E+03 0.  0.
         13    1    1    2    0    0 -0.24486517227E+01 -0.15191778421E+02  0.31894981754E+02  0.35413091534E+02  0.10566000000E+00 0. -1.
        994    1    1    2    0    0  0.80666149022E+01  0.65733138859E+00  0.38700475922E+01  0.17143488452E+03  0.17120000000E+03 0.  0.
        998    1    1    2    0    0 -0.56179631795E+01  0.14534447032E+02  0.14642349669E+04  0.14643520240E+04  0.10000000000E+02 0. -1.
</event>
<event>
 5    1  0.1279376E-008  0.3735496E+03  0.7957747E-01  0.3479735E+00
         13   -1    0    0    0    0  0.00000000000E+00  0.00000000000E+00  0.14999999963E+04  0.15000000000E+04  0.10566000000E+00 0. -1.
        994   -1    0    0    0    0 -0.00000000000E+00 -0.00000000000E+00  0.11368683772E-12  0.17120000000E+03  0.17120000000E+03 0.  0.
         13    1    1    2    0    0 -0.19228544998E+02  0.58667627386E+00  0.86616443876E+01  0.21097781384E+02  0.10566000000E+00 0. -1.
        994    1    1    2    0    0  0.18374772509E+02  0.12978351754E+01  0.14030229811E+02  0.17275880293E+03  0.17120000000E+03 0.  0.
        998    1    1    2    0    0  0.85377248877E+00 -0.18845114493E+01  0.14773081221E+04  0.14773434157E+04  0.10000000000E+02 0. -1.
</event>
<event>
 5    1  0.1279376E-008  0.3821150E+03  0.7957747E-01  0.3442001E+00
         13   -1    0    0    0    0  0.00000000000E+00  0.00000000000E+00  0.14999999963E+04  0.15000000000E+04  0.10566000000E+00 0. -1.
        994   -1    0    0    0    0 -0.00000000000E+00 -0.00000000000E+00  0.11368683772E-12  0.17120000000E+03  0.17120000000E+03 0.  0.
         13    1    1    2    0    0  0.14588300048E+02 -0.28178448138E+01  0.37677127086E+02  0.40501059458E+02  0.10566000000E+00 0. -1.
        994    1    1    2    0    0  0.83026092815E+01 -0.12575268674E+02  0.38234651060E+01  0.17190441992E+03  0.17120000000E+03 0.  0.
        998    1    1    2    0    0 -0.22890909330E+02  0.15393113488E+02  0.14584994041E+04  0.14587945206E+04  0.10000000000E+02 0. -1.
</event>
<event>
 5    1  0.1279376E-008  0.3784437E+03  0.7957747E-01  0.3457963E+00
         13   -1    0    0    0    0  0.00000000000E+00  0.00000000000E+00  0.14999999963E+04  0.15000000000E+04  0.10566000000E+00 0.  1.
        994   -1    0    0    0    0 -0.00000000000E+00 -0.00000000000E+00  0.11368683772E-12  0.17120000000E+03  0.17120000000E+03 0.  0.
         13    1    1    2    0    0 -0.22167616945E+02  0.83000929470E+01  0.61372250823E+02  0.65778865291E+02  0.10566000000E+00 0.  1.
        994    1    1    2    0    0 -0.10140862482E+02  0.95786417650E+01  0.55749504616E+01  0.17185781199E+03  0.17120000000E+03 0.  0.
        998    1    1    2    0    0  0.32308479427E+02 -0.17878734712E+02  0.14330527950E+04  0.14335633227E+04  0.10000000000E+02 0.  1.
</event>
<event>
 5    1  0.1279376E-008  0.3855213E+03  0.7957747E-01  0.3427464E+00
         13   -1    0    0    0    0  0.00000000000E+00  0.00000000000E+00  0.14999999963E+04  0.15000000000E+04  0.10566000000E+00 0.  1.
        994   -1    0    0    0    0 -0.00000000000E+00 -0.00000000000E+00  0.11368683772E-12  0.17120000000E+03  0.17120000000E+03 0.  0.
         13    1    1    2    0    0 -0.90431701569E+01 -0.88975382687E+01  0.56910717001E+02  0.58307683776E+02  0.10566000000E+00 0.  1.
        994    1    1    2    0    0  0.75795165196E+01  0.12324599983E+02  0.20591336300E+01  0.17182265528E+03  0.17120000000E+03 0.  0.
        998    1    1    2    0    0  0.14636536373E+01 -0.34270617144E+01  0.14410301456E+04  0.14410696609E+04  0.10000000000E+02 0.  1.
</event>
<event>
 5    1  0.1279376E-008  0.3780237E+03  0.7957747E-01  0.3459809E+00
         13   -1    0    0    0    0  0.00000000000E+00  0.00000000000E+00  0.14999999963E+04  0.15000000000E+04  0.10566000000E+00 0.  1.
        994   -1    0    0    0    0 -0.00000000000E+00 -0.00000000000E+00  0.11368683772E-12  0.17120000000E+03  0.17120000000E+03 0.  0.
         13    1    1    2    0    0  0.45075715904E+02 -0.31294471994E+02  0.23566644405E+03  0.24197075889E+03  0.10566000000E+00 0.  1.
        994    1    1    2    0    0 -0.47527918606E+02  0.38980734725E+02  0.17955191739E+02  0.18278465372E+03  0.17120000000E+03 0.  0.
        998    1    1    2    0    0  0.24522027019E+01 -0.76862627314E+01  0.12463783605E+04  0.12464445874E+04  0.10000000000E+02 0.  0.
</event>
<event>
 5    1  0.1279376E-008  0.3849491E+03  0.7957747E-01  0.3429888E+00
         13   -1    0    0    0    0  0.00000000000E+00  0.00000000000E+00  0.14999999963E+04  0.15000000000E+04  0.10566000000E+00 0.  1.
        994   -1    0    0    0    0 -0.00000000000E+00 -0.00000000000E+00  0.11368683772E-12  0.17120000000E+03  0.17120000000E+03 0.  0.
         13    1    1    2    0    0  0.20714651115E+01 -0.10893132991E+02  0.36596594505E+02  0.38239681059E+02  0.10566000000E+00 0.  1.
        994    1    1    2    0    0  0.11749548606E+02  0.12079223567E+02  0.25899879167E+01  0.17204681796E+03  0.17120000000E+03 0.  0.
        998    1    1    2    0    0 -0.13821013718E+02 -0.11860905765E+01  0.14608134139E+04  0.14609135010E+04  0.10000000000E+02 0.  1.
</event>
<event>
 5    1  0.1279376E-008  0.3822892E+03  0.7957747E-01  0.3441251E+00
         13   -1    0    0    0    0  0.00000000000E+00  0.00000000000E+00  0.14999999963E+04  0.15000000000E+04  0.10566000000E+00 0. -1.
        994   -1    0    0    0    0 -0.00000000000E+00 -0.00000000000E+00  0.11368683772E-12  0.17120000000E+03  0.17120000000E+03 0.  0.
         13    1    1    2    0    0  0.17208499914E+02 -0.35899606538E+02  0.23411119702E+03  0.23747205721E+03  0.10566000000E+00 0. -1.
        994    1    1    2    0    0 -0.18143997412E+02  0.31585898700E+02  0.73968744813E+01  0.17518854812E+03  0.17120000000E+03 0.  0.
        998    1    1    2    0    0  0.93549749792E+00  0.43137078384E+01  0.12584919248E+04  0.12585393947E+04  0.10000000000E+02 0.  0.
</event>
<event>
 5    1  0.1279376E-008  0.3765342E+03  0.7957747E-01  0.3466390E+00
         13   -1    0    0    0    0  0.00000000000E+00  0.00000000000E+00  0.14999999963E+04  0.15000000000E+04  0.10566000000E+00 0.  1.
        994   -1    0    0    0    0 -0.00000000000E+00 -0.00000000000E+00  0.11368683772E-12  0.17120000000E+03  0.17120000000E+03 0.  0.
         13    1    1    2    0    0 -0.17214281585E+02  0.41384774611E+02  0.18237339512E+03  0.18780068549E+03  0.10566000000E+00 0.  1.
        994    1    1    2    0    0 -0.18552998286E+01 -0.14959442125E+02  0.66617906885E+01  0.17199141403E+03  0.17120000000E+03 0.  0.
        998    1    1    2    0    0  0.19069581414E+02 -0.26425332486E+02  0.13109648105E+04  0.13114079005E+04  0.10000000000E+02 0.  1.
</event>
<event>
 5    1  0.1279376E-008  0.3822349E+03  0.7957747E-01  0.3441485E+00
         13   -1    0    0    0    0  0.00000000000E+00  0.00000000000E+00  0.14999999963E+04  0.15000000000E+04  0.10566000000E+00 0.  1.
        994   -1    0    0    0    0 -0.00000000000E+00 -0.00000000000E+00  0.11368683772E-12  0.17120000000E+03  0.17120000000E+03 0.  0.
         13    1    1    2    0    0 -0.36099603135E+02  0.15663994890E+02  0.23078894228E+03  0.23411981789E+03  0.10566000000E+00 0.  1.
        994    1    1    2    0    0  0.32439082908E+02 -0.11159408067E+02  0.69242384734E+01  0.17474041195E+03  0.17120000000E+03 0.  0.
        998    1    1    2    0    0  0.36605202272E+01 -0.45045868231E+01  0.12622868155E+04  0.12623397702E+04  0.10000000000E+02 0.  0.
</event>
<event>
 5    1  0.1279376E-008  0.3854888E+03  0.7957747E-01  0.3427602E+00
         13   -1    0    0    0    0  0.00000000000E+00  0.00000000000E+00  0.14999999963E+04  0.15000000000E+04  0.10566000000E+00 0. -1.
        994   -1    0    0    0    0 -0.00000000000E+00 -0.00000000000E+00  0.11368683772E-12  0.17120000000E+03  0.17120000000E+03 0.  0.
         13    1    1    2    0    0  0.43571551622E+01 -0.14734371249E+02  0.77661499579E+02  0.79166951300E+02  0.10566000000E+00 0. -1.
        994    1    1    2    0    0  0.14289874055E+02  0.29080974391E+02  0.48425634846E+01  0.17430660915E+03  0.17120000000E+03 0.  0.
        998    1    1    2    0    0 -0.18647029217E+02 -0.14346603142E+02  0.14174959332E+04  0.14177264396E+04  0.10000000000E+02 0. -1.
</event>
<event>
 5    1  0.1279376E-008  0.3783594E+03  0.7957747E-01  0.3458333E+00
         13   -1    0    0    0    0  0.00000000000E+00  0.00000000000E+00  0.14999999963E+04  0.15000000000E+04  0.10566000000E+00 0.  1.
        994   -1    0    0    0    0 -0.00000000000E+00 -0.00000000000E+00  0.11368683772E-12  0.17120000000E+03  0.17120000000E+03 0.  0.
         13    1    1    2    0    0  0.19172896372E+02  0.27561620566E+02  0.12601272937E+03  0.13040882643E+03  0.10566000000E+00 0.  1.
        994    1    1    2    0    0 -0.14632424573E+02  0.12140969650E+02  0.61796486225E+01  0.17236339243E+03  0.17120000000E+03 0.  0.
        998    1    1    2    0    0 -0.45404717988E+01 -0.39702590216E+02  0.13678076183E+04  0.13684277811E+04  0.10000000000E+02 0.  1.
</event>
<event>
 5    1  0.1279376E-008  0.3784734E+03  0.7957747E-01  0.3457833E+00
         13   -1    0    0    0    0  0.00000000000E+00  0.00000000000E+00  0.14999999963E+04  0.15000000000E+04  0.10566000000E+00 0.  1.
        994   -1    0    0    0    0 -0.00000000000E+00 -0.00000000000E+00  0.11368683772E-12  0.17120000000E+03  0.17120000000E+03 0.  0.
         13    1    1    2    0    0  0.15952678965E+02 -0.97396472108E+01  0.32632244147E+02  0.37606159283E+02  0.10566000000E+00 0.  1.
        994    1    1    2    0    0 -0.22820641291E+02  0.62597669279E+01  0.67894220013E+01  0.17296098578E+03  0.17120000000E+03 0.  0.
        998    1    1    2    0    0  0.68679623264E+01  0.34798802828E+01  0.14605783301E+04  0.14606328549E+04  0.10000000000E+02 0.  1.
</event>
<event>
 5    1  0.1279376E-008  0.3827835E+03  0.7957747E-01  0.3439128E+00
         13   -1    0    0    0    0  0.00000000000E+00  0.00000000000E+00  0.14999999963E+04  0.15000000000E+04  0.10566000000E+00 0.  1.
        994   -1    0    0    0    0 -0.00000000000E+00 -0.00000000000E+00  0.11368683772E-12  0.17120000000E+03  0.17120000000E+03 0.  0.
         13    1    1    2    0    0 -0.10940062119E+02 -0.55341115700E+01  0.27219213311E+02  0.29853108504E+02  0.10566000000E+00 0.  1.
        994    1    1    2    0    0 -0.13084070067E+01  0.42481210656E+01  0.28000804588E+01  0.17128058533E+03  0.17120000000E+03 0.  0.
        998    1    1    2    0    0  0.12248469125E+02  0.12859905044E+01  0.14699807025E+04  0.14700663062E+04  0.10000000000E+02 0.  1.
</event>
<event>
 5    1  0.1279376E-008  0.3822703E+03  0.7957747E-01  0.3441332E+00
         13   -1    0    0    0    0  0.00000000000E+00  0.00000000000E+00  0.14999999963E+04  0.15000000000E+04  0.10566000000E+00 0.  1.
        994   -1    0    0    0    0 -0.00000000000E+00 -0.00000000000E+00  0.11368683772E-12  0.17120000000E+03  0.17120000000E+03 0.  0.
         13    1    1    2    0    0 -0.10601840503E+03 -0.32203259143E+02  0.32751032207E+03  0.34574553407E+03  0.10566000000E+00 0.  1.
        994    1    1    2    0    0  0.67330108580E+02  0.38095132577E+02  0.39789629598E+02  0.19203446897E+03  0.17120000000E+03 0.  0.
        998    1    1    2    0    0  0.38688296447E+02 -0.58918734333E+01  0.11327000446E+04  0.11334199970E+04  0.10000000000E+02 0.  1.
</event>
<event>
 5    1  0.1279376E-008  0.3752231E+03  0.7957747E-01  0.3472226E+00
         13   -1    0    0    0    0  0.00000000000E+00  0.00000000000E+00  0.14999999963E+04  0.15000000000E+04  0.10566000000E+00 0.  1.
        994   -1    0    0    0    0 -0.00000000000E+00 -0.00000000000E+00  0.11368683772E-12  0.17120000000E+03  0.17120000000E+03 0.  0.
         13    1    1    2    0    0 -0.20295399642E+02  0.73200275665E+01  0.32004496129E+02  0.38597732922E+02  0.10566000000E+00 0.  1.
        994    1    1    2    0    0  0.26285294991E+02  0.42146073936E+01  0.89750776580E+01  0.17348968750E+03  0.17120000000E+03 0.  0.
        998    1    1    2    0    0 -0.59898953490E+01 -0.11534634960E+02  0.14590204225E+04  0.14591125796E+04  0.10000000000E+02 0.  1.
</event>
<event>
 5    1  0.1279376E-008  0.3740892E+03  0.7957747E-01  0.3477306E+00
         13   -1    0    0    0    0  0.00000000000E+00  0.00000000000E+00  0.14999999963E+04  0.15000000000E+04  0.10566000000E+00 0. -1.
        994   -1    0    0    0    0 -0.00000000000E+00 -0.00000000000E+00  0.11368683772E-12  0.17120000000E+03  0.17120000000E+03 0.  0.
         13    1    1    2    0    0  0.47793199895E+02 -0.12115050651E+01  0.15132730011E+03  0.15869978142E+03  0.10566000000E+00 0. -1.
        994    1    1    2    0    0 -0.36132714214E+02  0.80930128423E+01  0.11836440344E+02  0.17555799957E+03  0.17120000000E+03 0.  0.
        998    1    1    2    0    0 -0.11660485681E+02 -0.68815077772E+01  0.13368362558E+04  0.13369422190E+04  0.10000000000E+02 0. -1.
</event>
<event>
 5    1  0.1279376E-008  0.3851234E+03  0.7957747E-01  0.3429149E+00
         13   -1    0    0    0    0  0.00000000000E+00  0.00000000000E+00  0.14999999963E+04  0.15000000000E+04  0.10566000000E+00 0.  1.
        994   -1    0    0    0    0 -0.00000000000E+00 -0.00000000000E+00  0.11368683772E-12  0.17120000000E+03  0.17120000000E+03 0.  0.
         13    1    1    2    0    0 -0.53336491374E+01 -0.15103998323E+02  0.93353017061E+02  0.94717345491E+02  0.10566000000E+00 0.  1.
        994    1    1    2    0    0  0.56340924437E+01 -0.83642988373E+01  0.19033057580E+01  0.17150733823E+03  0.17120000000E+03 0.  0.
        998    1    1    2    0    0 -0.30044330635E+00  0.23468297161E+02  0.14047436735E+04  0.14049753163E+04  0.10000000000E+02 0.  1.
</event>
<event>
 5    1  0.1279376E-008  0.3726241E+03  0.7957747E-01  0.3483917E+00
         13   -1    0    0    0    0  0.00000000000E+00  0.00000000000E+00  0.14999999963E+04  0.15000000000E+04  0.10566000000E+00 0.  1.
        994   -1    0    0    0    0 -0.00000000000E+00 -0.00000000000E+00  0.11368683772E-12  0.17120000000E+03  0.17120000000E+03 0.  0.
         13    1    1    2    0    0  0.31835869447E+02  0.33690761875E+02  0.12845256864E+03  0.13656010975E+03  0.10566000000E+00 0.  1.
        994    1    1    2    0    0 -0.49797494980E+02 -0.34348963214E+01  0.16490427957E+02  0.17908926052E+03  0.17120000000E+03 0.  0.
        998    1    1    2    0    0  0.17961625533E+02 -0.30255865554E+02  0.13550569997E+04  0.13555506297E+04  0.10000000000E+02 0.  1.
</event>
<event>
 5    1  0.1279376E-008  0.3841600E+03  0.7957747E-01  0.3433242E+00
         13   -1    0    0    0    0  0.00000000000E+00  0.00000000000E+00  0.14999999963E+04  0.15000000000E+04  0.10566000000E+00 0. -1.
        994   -1    0    0    0    0 -0.00000000000E+00 -0.00000000000E+00  0.11368683772E-12  0.17120000000E+03  0.17120000000E+03 0.  0.
         13    1    1    2    0    0 -0.82112452908E+01 -0.61029627815E+01  0.24951285810E+02  0.26967545894E+02  0.10566000000E+00 0. -1.
        994    1    1    2    0    0  0.51457306854E+01  0.52220249361E+01  0.22250054817E+01  0.17137134748E+03  0.17120000000E+03 0.  0.
        998    1    1    2    0    0  0.30655146053E+01  0.88093784534E+00  0.14728237050E+04  0.14728611066E+04  0.10000000000E+02 0. -1.
</event>
<event>
 5    1  0.1279376E-008  0.3853515E+03  0.7957747E-01  0.3428183E+00
         13   -1    0    0    0    0  0.00000000000E+00  0.00000000000E+00  0.14999999963E+04  0.15000000000E+04  0.10566000000E+00 0.  1.
        994   -1    0    0    0    0 -0.00000000000E+00 -0.00000000000E+00  0.11368683772E-12  0.17120000000E+03  0.17120000000E+03 0.  0.
         13    1    1    2    0    0  0.13273395646E+02 -0.50000885232E+01  0.67476202395E+02  0.68950946120E+02  0.10566000000E+00 0.  1.
        994    1    1    2    0    0 -0.97533584447E+01  0.12351705497E+02  0.22697853359E+01  0.17193686212E+03  0.17120000000E+03 0.  0.
        998    1    1    2    0    0 -0.35200372011E+01 -0.73516169737E+01  0.14302540085E+04  0.14303121918E+04  0.10000000000E+02 0.  1.
</event>
<event>
 5    1  0.1279376E-008  0.3832705E+03  0.7957747E-01  0.3437041E+00
         13   -1    0    0    0    0  0.00000000000E+00  0.00000000000E+00  0.14999999963E+04  0.15000000000E+04  0.10566000000E+00 0.  1.
        994   -1    0    0    0    0 -0.00000000000E+00 -0.00000000000E+00  0.11368683772E-12  0.17120000000E+03  0.17120000000E+03 0.  0.
         13    1    1    2    0    0  0.27963697988E+02 -0.19864262529E+01  0.14765062323E+03  0.15028849589E+03  0.10566000000E+00 0.  1.
        994    1    1    2    0    0 -0.24791120690E+02 -0.97457894533E+00  0.45296537543E+01  0.17304770219E+03  0.17120000000E+03 0.  0.
        998    1    1    2    0    0 -0.31725772981E+01  0.29610051983E+01  0.13478197193E+04  0.13478638019E+04  0.10000000000E+02 0.  0.
</event>
<event>
 5    1  0.1279376E-008  0.3847575E+03  0.7957747E-01  0.3430701E+00
         13   -1    0    0    0    0  0.00000000000E+00  0.00000000000E+00  0.14999999963E+04  0.15000000000E+04  0.10566000000E+00 0.  1.
        994   -1    0    0    0    0 -0.00000000000E+00 -0.00000000000E+00  0.11368683772E-12  0.17120000000E+03  0.17120000000E+03 0.  0.
         13    1    1    2    0    0  0.93945788909E+01 -0.49685887789E+01  0.31330491569E+02  0.33084072497E+02  0.10566000000E+00 0.  1.
        994    1    1    2    0    0 -0.93896319121E+01  0.73604771051E+01  0.22191855077E+01  0.17162956212E+03  0.17120000000E+03 0.  0.
        998    1    1    2    0    0 -0.49469787309E-02 -0.23918883262E+01  0.14664503192E+04  0.14664863654E+04  0.10000000000E+02 0.  1.
</event>
<event>
 5    1  0.1279376E-008  0.3689521E+03  0.7957747E-01  0.3500721E+00
         13   -1    0    0    0    0  0.00000000000E+00  0.00000000000E+00  0.14999999963E+04  0.15000000000E+04  0.10566000000E+00 0.  1.
        994   -1    0    0    0    0 -0.00000000000E+00 -0.00000000000E+00  0.11368683772E-12  0.17120000000E+03  0.17120000000E+03 0.  0.
         13    1    1    2    0    0 -0.26396498058E+02 -0.66203141467E+02  0.28937556361E+03  0.29802325249E+03  0.10566000000E+00 0.  1.
        994    1    1    2    0    0  0.12916883220E+01  0.12979140289E+02  0.10978592245E+02  0.17204678442E+03  0.17120000000E+03 0.  0.
        998    1    1    2    0    0  0.25104809736E+02  0.53224001178E+02  0.11996458404E+04  0.12011299631E+04  0.10000000000E+02 0.  1.
</event>
<event>
 5    1  0.1279376E-008  0.3744923E+03  0.7957747E-01  0.3475497E+00
         13   -1    0    0    0    0  0.00000000000E+00  0.00000000000E+00  0.14999999963E+04  0.15000000000E+04  0.10566000000E+00 0. -1.
        994   -1    0    0    0    0 -0.00000000000E+00 -0.00000000000E+00  0.11368683772E-12  0.17120000000E+03  0.17120000000E+03 0.  0.
         13    1    1    2    0    0  0.13600476143E+01 -0.49310213735E+02  0.20400808696E+03  0.20988724977E+03  0.10566000000E+00 0. -1.
        994    1    1    2    0    0  0.68788495585E+01  0.18752236782E+01  0.71127934515E+01  0.17149596749E+03  0.17120000000E+03 0.  0.
        998    1    1    2    0    0 -0.82388971728E+01  0.47434990057E+02  0.12888791159E+04  0.12898167827E+04  0.10000000000E+02 0. -1.
</event>
<event>
 5    1  0.1279376E-008  0.3694694E+03  0.7957747E-01  0.3498333E+00
         13   -1    0    0    0    0  0.00000000000E+00  0.00000000000E+00  0.14999999963E+04  0.15000000000E+04  0.10566000000E+00 0.  1.
        994   -1    0    0    0    0 -0.00000000000E+00 -0.00000000000E+00  0.11368683772E-12  0.17120000000E+03  0.17120000000E+03 0.  0.
         13    1    1    2    0    0 -0.26599231285E+02 -0.82007767118E+02  0.31342524192E+03  0.32506643384E+03  0.10566000000E+00 0.  1.
        994    1    1    2    0    0  0.21286183610E+02  0.79106101800E+02  0.33166865496E+02  0.19266644213E+03  0.17120000000E+03 0.  0.
        998    1    1    2    0    0  0.53130476757E+01  0.29016653184E+01  0.11534078889E+04  0.11534671240E+04  0.10000000000E+02 0.  0.
</event>
<event>
 5    1  0.1279376E-008  0.3855337E+03  0.7957747E-01  0.3427412E+00
         13   -1    0    0    0    0  0.00000000000E+00  0.00000000000E+00  0.14999999963E+04  0.15000000000E+04  0.10566000000E+00 0. -1.
        994   -1    0    0    0    0 -0.00000000000E+00 -0.00000000000E+00  0.11368683772E-12  0.17120000000E+03  0.17120000000E+03 0.  0.
         13    1    1    2    0    0 -0.61518547664E+01  0.11107839029E+02  0.53384078097E+02  0.54873494178E+02  0.10566000000E+00 0. -1.
        994    1    1    2    0    0  0.21404238004E+02 -0.17692816681E+02  0.39012324922E+01  0.17348151712E+03  0.17120000000E+03 0.  0.
        998    1    1    2    0    0 -0.15252383238E+02  0.65849776522E+01  0.14427146857E+04  0.14428449887E+04  0.10000000000E+02 0. -1.
</event>
<event>
 5    1  0.1279376E-008  0.3809139E+03  0.7957747E-01  0.3447189E+00
         13   -1    0    0    0    0  0.00000000000E+00  0.00000000000E+00  0.14999999963E+04  0.15000000000E+04  0.10566000000E+00 0.  1.
        994   -1    0    0    0    0 -0.00000000000E+00 -0.00000000000E+00  0.11368683772E-12  0.17120000000E+03  0.17120000000E+03 0.  0.
         13    1    1    2    0    0 -0.20385334269E+02 -0.15587034346E+02  0.88992624009E+02  0.92618657866E+02  0.10566000000E+00 0.  1.
        994    1    1    2    0    0  0.19254470313E+02 -0.10279333838E+01  0.49126477077E+01  0.17235244524E+03  0.17120000000E+03 0.  0.
        998    1    1    2    0    0  0.11308639559E+01  0.16614967729E+02  0.14060947246E+04  0.14062288969E+04  0.10000000000E+02 0.  1.
</event>
<event>
 5    1  0.1279376E-008  0.3691667E+03  0.7957747E-01  0.3499729E+00
         13   -1    0    0    0    0  0.00000000000E+00  0.00000000000E+00  0.14999999963E+04  0.15000000000E+04  0.10566000000E+00 0.  1.
        994   -1    0    0    0    0 -0.00000000000E+00 -0.00000000000E+00  0.11368683772E-12  0.17120000000E+03  0.17120000000E+03 0.  0.
         13    1    1    2    0    0  0.42899759230E+02  0.54510021660E+02  0.21116589298E+03  0.22226735551E+03  0.10566000000E+00 0.  1.
        994    1    1    2    0    0 -0.19428162463E+02 -0.53896870984E+02  0.22029506583E+02  0.18187101297E+03  0.17120000000E+03 0.  0.
        998    1    1    2    0    0 -0.23471596767E+02 -0.61315067631E+00  0.12668045967E+04  0.12670616315E+04  0.10000000000E+02 0.  1.
</event>
<event>
 5    1  0.1279376E-008  0.3852062E+03  0.7957747E-01  0.3428798E+00
         13   -1    0    0    0    0  0.00000000000E+00  0.00000000000E+00  0.14999999963E+04  0.15000000000E+04  0.10566000000E+00 0.  1.
        994   -1    0    0    0    0 -0.00000000000E+00 -0.00000000000E+00  0.11368683772E-12  0.17120000000E+03  0.17120000000E+03 0.  0.
         13    1    1    2    0    0 -0.14750497120E+02  0.81986453392E+01  0.86345977529E+02  0.87979736020E+02  0.10566000000E+00 0.  1.
        994    1    1    2    0    0  0.18570440322E+02 -0.10851935994E+02  0.30496525946E+01  0.17257278508E+03  0.17120000000E+03 0.  0.
        998    1    1    2    0    0 -0.38199432026E+01  0.26532906549E+01  0.14106043662E+04  0.14106474789E+04  0.10000000000E+02 0.  1.
</event>
<event>
 5    1  0.1279376E-008  0.3762992E+03  0.7957747E-01  0.3467432E+00
         13   -1    0    0    0    0  0.00000000000E+00  0.00000000000E+00  0.14999999963E+04  0.15000000000E+04  0.10566000000E+00 0. -1.
        994   -1    0    0    0    0 -0.00000000000E+00 -0.00000000000E+00  0.11368683772E-12  0.17120000000E+03  0.17120000000E+03 0.  0.
         13    1    1    2    0    0  0.24600397058E+02  0.22810342367E+02  0.11499231909E+03  0.11978620901E+03  0.10566000000E+00 0. -1.
        994    1    1    2    0    0  0.12084292330E+02  0.26511788774E+02  0.88914145958E+01  0.17388905175E+03  0.17120000000E+03 0.  0.
        998    1    1    2    0    0 -0.36684689388E+02 -0.49322131141E+02  0.13761162626E+04  0.13775247392E+04  0.10000000000E+02 0. -1.
</event>
<event>
 5    1  0.1279376E-008  0.3751049E+03  0.7957747E-01  0.3472754E+00
         13   -1    0    0    0    0  0.00000000000E+00  0.00000000000E+00  0.14999999963E+04  0.15000000000E+04  0.10566000000E+00 0. -1.
        994   -1    0    0    0    0 -0.00000000000E+00 -0.00000000000E+00  0.11368683772E-12  0.17120000000E+03  0.17120000000E+03 0.  0.
         13    1    1    2    0    0 -0.11122747533E+02  0.76248190232E+01  0.11074730867E+02  0.17450335402E+02  0.10566000000E+00 0. -1.
        994    1    1    2    0    0  0.35522981490E+01  0.10503343586E+02  0.70427240048E+01  0.17170317123E+03  0.17120000000E+03 0.  0.
        998    1    1    2    0    0  0.75704493836E+01 -0.18128162609E+02  0.14818825414E+04  0.14820464934E+04  0.10000000000E+02 0. -1.
</event>
<event>
 5    1  0.1338259E-008  0.3843941E+03  0.7957747E-01  0.3432246E+00
         13   -1    0    0    0    0  0.00000000000E+00  0.00000000000E+00  0.14999999963E+04  0.15000000000E+04  0.10566000000E+00 0. -1.
        994   -1    0    0    0    0 -0.00000000000E+00 -0.00000000000E+00  0.11368683772E-12  0.17120000000E+03  0.17120000000E+03 0.  0.
         13    1    1    2    0    0  0.11377582834E+02  0.98500412900E+00  0.33934426439E+02  0.35804693632E+02  0.10566000000E+00 0. -1.
        994    1    1    2    0    0 -0.39281317498E+01  0.27629420529E+01  0.20072726032E+01  0.17127910909E+03  0.17120000000E+03 0.  0.
        998    1    1    2    0    0 -0.74494510841E+01 -0.37479461820E+01  0.14640582972E+04  0.14641161973E+04  0.10000000000E+02 0. -1.
</event>
<event>
 5    1  0.1279376E-008  0.3816860E+03  0.7957747E-01  0.3443850E+00
         13   -1    0    0    0    0  0.00000000000E+00  0.00000000000E+00  0.14999999963E+04  0.15000000000E+04  0.10566000000E+00 0.  1.
        994   -1    0    0    0    0 -0.00000000000E+00 -0.00000000000E+00  0.11368683772E-12  0.17120000000E+03  0.17120000000E+03 0.  0.
         13    1    1    2    0    0  0.17105389891E+02 -0.39698668676E+01  0.48599597174E+02  0.51674812199E+02  0.10566000000E+00 0.  1.
        994    1    1    2    0    0  0.57338694715E+01  0.11591077618E+02  0.38406353310E+01  0.17173066360E+03  0.17120000000E+03 0.  0.
        998    1    1    2    0    0 -0.22839259362E+02 -0.76212107501E+01  0.14475597638E+04  0.14477945242E+04  0.10000000000E+02 0.  1.
</event>
<event>
 5    1  0.1279376E-008  0.3741867E+03  0.7957747E-01  0.3476868E+00
         13   -1    0    0    0    0  0.00000000000E+00  0.00000000000E+00  0.14999999963E+04  0.15000000000E+04  0.10566000000E+00 0. -1.
        994   -1    0    0    0    0 -0.00000000000E+00 -0.00000000000E+00  0.11368683772E-12  0.17120000000E+03  0.17120000000E+03 0.  0.
         13    1    1    2    0    0 -0.74628951171E+02  0.62853810275E+02  0.28065053267E+03  0.29712760637E+03  0.10566000000E+00 0. -1.
        994    1    1    2    0    0  0.70700572022E+02 -0.74128763121E+02  0.51403805030E+02  0.20602290061E+03  0.17120000000E+03 0.  0.
        998    1    1    2    0    0  0.39283791495E+01  0.11274952845E+02  0.11679456586E+04  0.11680494930E+04  0.10000000000E+02 0. -1.
</event>
<event>
 5    1  0.1279376E-008  0.3833201E+03  0.7957747E-01  0.3436828E+00
         13   -1    0    0    0    0  0.00000000000E+00  0.00000000000E+00  0.14999999963E+04  0.15000000000E+04  0.10566000000E+00 0. -1.
        994   -1    0    0    0    0 -0.00000000000E+00 -0.00000000000E+00  0.11368683772E-12  0.17120000000E+03  0.17120000000E+03 0.  0.
         13    1    1    2    0    0  0.41317319755E+01  0.23235368238E+02  0.12569899581E+03  0.12789527848E+03  0.10566000000E+00 0. -1.
        994    1    1    2    0    0  0.13652091237E+02 -0.19559039517E+01  0.30956485794E+01  0.17178250259E+03  0.17120000000E+03 0.  0.
        998    1    1    2    0    0 -0.17783823212E+02 -0.21279464286E+02  0.13712053519E+04  0.13715222189E+04  0.10000000000E+02 0. -1.
</event>
<event>
 5    1  0.1279376E-008  0.3864008E+03  0.7957747E-01  0.3423753E+00
         13   -1    0    0    0    0  0.00000000000E+00  0.00000000000E+00  0.14999999963E+04  0.15000000000E+04  0.10566000000E+00 0. -1.
        994   -1    0    0    0    0 -0.00000000000E+00 -0.00000000000E+00  0.11368683772E-12  0.17120000000E+03  0.17120000000E+03 0.  0.
         13    1    1    2    0    0  0.28700839111E+01 -0.98099950904E+01  0.56476955764E+02  0.57394521357E+02  0.10566000000E+00 0. -1.
        994    1    1    2    0    0  0.62183140499E+01  0.10099093763E+02  0.13968954492E+01  0.17161599704E+03  0.17120000000E+03 0.  0.
        998    1    1    2    0    0 -0.90883979610E+01 -0.28909867215E+00  0.14421261451E+04  0.14421894816E+04  0.10000000000E+02 0. -1.
</event>
<event>
 5    1  0.1279376E-008  0.3760178E+03  0.7957747E-01  0.3468683E+00
         13   -1    0    0    0    0  0.00000000000E+00  0.00000000000E+00  0.14999999963E+04  0.15000000000E+04  0.10566000000E+00 0.  1.
        994   -1    0    0    0    0 -0.00000000000E+00 -0.00000000000E+00  0.11368683772E-12  0.17120000000E+03  0.17120000000E+03 0.  0.
         13    1    1    2    0    0  0.36508987774E+02  0.16238074799E+03  0.84674781287E+03  0.86294975710E+03  0.10566000000E+00 0.  1.
        994    1    1    2    0    0 -0.37959043715E+02 -0.16170690644E+03  0.10620781525E+03  0.26111214565E+03  0.17120000000E+03 0.  0.
        998    1    1    2    0    0  0.14500559409E+01 -0.67384155439E+00  0.54704436816E+03  0.54713809725E+03  0.10000000000E+02 0.  0.
</event>
<event>
 5    1  0.1279376E-008  0.3792642E+03  0.7957747E-01  0.3454369E+00
         13   -1    0    0    0    0  0.00000000000E+00  0.00000000000E+00  0.14999999963E+04  0.15000000000E+04  0.10566000000E+00 0. -1.
        994   -1    0    0    0    0 -0.00000000000E+00 -0.00000000000E+00  0.11368683772E-12  0.17120000000E+03  0.17120000000E+03 0.  0.
         13    1    1    2    0    0  0.18555562102E+01  0.17523561263E+03  0.77039358844E+03  0.79007420873E+03  0.10566000000E+00 0. -1.
        994    1    1    2    0    0 -0.25052762066E+02 -0.20700491640E+03  0.16750874907E+03  0.31756463486E+03  0.17120000000E+03 0.  0.
        998    1    1    2    0    0  0.23197205856E+02  0.31769303768E+02  0.56209765877E+03  0.56356115641E+03  0.10000000000E+02 0. -1.
</event>
<event>
 5    1  0.1279376E-008  0.3692775E+03  0.7957747E-01  0.3499218E+00
         13   -1    0    0    0    0  0.00000000000E+00  0.00000000000E+00  0.14999999963E+04  0.15000000000E+04  0.10566000000E+00 0. -1.
        994   -1    0    0    0    0 -0.00000000000E+00 -0.00000000000E+00  0.11368683772E-12  0.17120000000E+03  0.17120000000E+03 0.  0.
         13    1    1    2    0    0  0.11278092518E+02  0.46800002809E+01  0.32260889345E+01  0.12629987621E+02  0.10566000000E+00 0. -1.
        994    1    1    2    0    0 -0.11267152679E+02 -0.73529286892E+01  0.10274894629E+02  0.17203496083E+03  0.17120000000E+03 0.  0.
        998    1    1    2    0    0 -0.10939838409E-01  0.26729284083E+01  0.14864990127E+04  0.14865350515E+04  0.10000000000E+02 0. -1.
</event>
<event>
 5    1  0.1279376E-008  0.3697527E+03  0.7957747E-01  0.3497028E+00
         13   -1    0    0    0    0  0.00000000000E+00  0.00000000000E+00  0.14999999963E+04  0.15000000000E+04  0.10566000000E+00 0. -1.
        994   -1    0    0    0    0 -0.00000000000E+00 -0.00000000000E+00  0.11368683772E-12  0.17120000000E+03  0.17120000000E+03 0.  0.
         13    1    1    2    0    0  0.12382938805E+02  0.11078338839E+03  0.36526135999E+03  0.38189287580E+03  0.10566000000E+00 0. -1.
        994    1    1    2    0    0  0.38720274027E+02 -0.15613004233E+03  0.10509770145E+03  0.25735348567E+03  0.17120000000E+03 0.  0.
        998    1    1    2    0    0 -0.51103212832E+02  0.45346653937E+02  0.10296409348E+04  0.10319536385E+04  0.10000000000E+02 0.  1.
</event>
<event>
 5    1  0.1279376E-008  0.3783987E+03  0.7957747E-01  0.3458161E+00
         13   -1    0    0    0    0  0.00000000000E+00  0.00000000000E+00  0.14999999963E+04  0.15000000000E+04  0.10566000000E+00 0.  1.
        994   -1    0    0    0    0 -0.00000000000E+00 -0.00000000000E+00  0.11368683772E-12  0.17120000000E+03  0.17120000000E+03 0.  0.
         13    1    1    2    0    0  0.87012084937E+01 -0.10235787711E+02  0.16075659746E+02  0.20950426717E+02  0.10566000000E+00 0.  1.
        994    1    1    2    0    0 -0.13278616195E+02  0.26058264739E+01  0.55592732273E+01  0.17182391422E+03  0.17120000000E+03 0.  0.
        998    1    1    2    0    0  0.45774077015E+01  0.76299612369E+01  0.14783650633E+04  0.14784256591E+04  0.10000000000E+02 0.  1.
</event>
<event>
 5    1  0.1279376E-008  0.3755540E+03  0.7957747E-01  0.3470749E+00
         13   -1    0    0    0    0  0.00000000000E+00  0.00000000000E+00  0.14999999963E+04  0.15000000000E+04  0.10566000000E+00 0. -1.
        994   -1    0    0    0    0 -0.00000000000E+00 -0.00000000000E+00  0.11368683772E-12  0.17120000000E+03  0.17120000000E+03 0.  0.
         13    1    1    2    0    0  0.24599826269E+02 -0.37565964283E+02  0.70821525337E+02  0.83857335636E+02  0.10566000000E+00 0. -1.
        994    1    1    2    0    0 -0.29125657009E+02 -0.28196225678E+01  0.16965128873E+02  0.17450934005E+03  0.17120000000E+03 0.  0.
        998    1    1    2    0    0  0.45258307403E+01  0.40385586851E+02  0.14122133421E+04  0.14128333243E+04  0.10000000000E+02 0. -1.
</event>
<event>
 5    1  0.1279376E-008  0.3781678E+03  0.7957747E-01  0.3459176E+00
         13   -1    0    0    0    0  0.00000000000E+00  0.00000000000E+00  0.14999999963E+04  0.15000000000E+04  0.10566000000E+00 0.  1.
        994   -1    0    0    0    0 -0.00000000000E+00 -0.00000000000E+00  0.11368683772E-12  0.17120000000E+03  0.17120000000E+03 0.  0.
         13    1    1    2    0    0 -0.10669680395E+02  0.14044818255E+02  0.29735677400E+02  0.34573409928E+02  0.10566000000E+00 0.  1.
        994    1    1    2    0    0  0.22144300561E+01  0.25339967003E+01  0.50990156928E+01  0.17130897467E+03  0.17120000000E+03 0.  0.
        998    1    1    2    0    0  0.84552503385E+01 -0.16578814956E+02  0.14651653032E+04  0.14653176154E+04  0.10000000000E+02 0.  1.
</event>
<event>
 5    1  0.1279376E-008  0.3828177E+03  0.7957747E-01  0.3438981E+00
         13   -1    0    0    0    0  0.00000000000E+00  0.00000000000E+00  0.14999999963E+04  0.15000000000E+04  0.10566000000E+00 0. -1.
        994   -1    0    0    0    0 -0.00000000000E+00 -0.00000000000E+00  0.11368683772E-12  0.17120000000E+03  0.17120000000E+03 0.  0.
         13    1    1    2    0    0  0.21659014533E+02  0.22277953804E+02  0.16025604699E+03  0.16324041135E+03  0.10566000000E+00 0. -1.
        994    1    1    2    0    0 -0.14472133936E+02 -0.29339735647E+02  0.62704158350E+01  0.17441049528E+03  0.17120000000E+03 0.  0.
        998    1    1    2    0    0 -0.71868805970E+01  0.70617818434E+01  0.13334735335E+04  0.13335490934E+04  0.10000000000E+02 0. -1.
</event>
<event>
 5    1  0.1279376E-008  0.3852194E+03  0.7957747E-01  0.3428742E+00
         13   -1    0    0    0    0  0.00000000000E+00  0.00000000000E+00  0.14999999963E+04  0.15000000000E+04  0.10566000000E+00 0.  1.
        994   -1    0    0    0    0 -0.00000000000E+00 -0.00000000000E+00  0.11368683772E-12  0.17120000000E+03  0.17120000000E+03 0.  0.
         13    1    1    2    0    0 -0.58637276272E+01 -0.18875818187E+02  0.11728446247E+03  0.11893837108E+03  0.10566000000E+00 0.  1.
        994    1    1    2    0    0  0.34445582954E+01  0.23130743543E+02  0.33206013493E+01  0.17282176562E+03  0.17120000000E+03 0.  0.
        998    1    1    2    0    0  0.24191693317E+01 -0.42549253562E+01  0.13793949325E+04  0.13794398633E+04  0.10000000000E+02 0.  1.
</event>
<event>
 5    1  0.1279376E-008  0.3838000E+03  0.7957747E-01  0.3434777E+00
         13   -1    0    0    0    0  0.00000000000E+00  0.00000000000E+00  0.14999999963E+04  0.15000000000E+04  0.10566000000E+00 0.  1.
        994   -1    0    0    0    0 -0.00000000000E+00 -0.00000000000E+00  0.11368683772E-12  0.17120000000E+03  0.17120000000E+03 0.  0.
         13    1    1    2    0    0 -0.72166093453E+01  0.87456662983E+01  0.28015362401E+02  0.30223133920E+02  0.10566000000E+00 0.  1.
        994    1    1    2    0    0  0.48781488225E+01 -0.82609766634E+01  0.25310109890E+01  0.17148727675E+03  0.17120000000E+03 0.  0.
        998    1    1    2    0    0  0.23384605228E+01 -0.48468963485E+00  0.14694536229E+04  0.14694895893E+04  0.10000000000E+02 0.  1.
</event>
<event>
 5    1  0.1279376E-008  0.3755893E+03  0.7957747E-01  0.3470591E+00
         13   -1    0    0    0    0  0.00000000000E+00  0.00000000000E+00  0.14999999963E+04  0.15000000000E+04  0.10566000000E+00 0. -1.
        994   -1    0    0    0    0 -0.00000000000E+00 -0.00000000000E+00  0.11368683772E-12  0.17120000000E+03  0.17120000000E+03 0.  0.
         13    1    1    2    0    0 -0.11090355947E+02  0.34207031964E+02  0.11207028065E+03  0.11769824128E+03  0.10566000000E+00 0. -1.
        994    1    1    2    0    0 -0.16876495778E+02 -0.57640131123E+00  0.73443408220E+01  0.17218747832E+03  0.17120000000E+03 0.  0.
        998    1    1    2    0    0  0.27966851725E+02 -0.33630630653E+02  0.13805853748E+04  0.13813142804E+04  0.10000000000E+02 0. -1.
</event>
<event>
 5    1  0.1279376E-008  0.3858663E+03  0.7957747E-01  0.3426007E+00
         13   -1    0    0    0    0  0.00000000000E+00  0.00000000000E+00  0.14999999963E+04  0.15000000000E+04  0.10566000000E+00 0. -1.
        994   -1    0    0    0    0 -0.00000000000E+00 -0.00000000000E+00  0.11368683772E-12  0.17120000000E+03  0.17120000000E+03 0.  0.
         13    1    1    2    0    0 -0.28651423725E+01 -0.11851074563E+02  0.57728203420E+02  0.59001810508E+02  0.10566000000E+00 0. -1.
        994    1    1    2    0    0  0.34069689611E+01  0.19569584728E+02  0.24957207309E+01  0.17236659974E+03  0.17120000000E+03 0.  0.
        998    1    1    2    0    0 -0.54182658857E+00 -0.77185101650E+01  0.14397760721E+04  0.14398315898E+04  0.10000000000E+02 0. -1.
</event>
<event>
 5    1  0.1279376E-008  0.3841203E+03  0.7957747E-01  0.3433412E+00
         13   -1    0    0    0    0  0.00000000000E+00  0.00000000000E+00  0.14999999963E+04  0.15000000000E+04  0.10566000000E+00 0. -1.
        994   -1    0    0    0    0 -0.00000000000E+00 -0.00000000000E+00  0.11368683772E-12  0.17120000000E+03  0.17120000000E+03 0.  0.
         13    1    1    2    0    0  0.12127568594E+02  0.69846222366E+01  0.46177957444E+02  0.48252230886E+02  0.10566000000E+00 0. -1.
        994    1    1    2    0    0 -0.90628327682E+01 -0.96758051002E+01  0.26474020007E+01  0.17173294640E+03  0.17120000000E+03 0.  0.
        998    1    1    2    0    0 -0.30647358257E+01  0.26911828636E+01  0.14511746368E+04  0.14512148227E+04  0.10000000000E+02 0. -1.
</event>
<event>
 5    1  0.1279376E-008  0.3760267E+03  0.7957747E-01  0.3468644E+00
         13   -1    0    0    0    0  0.00000000000E+00  0.00000000000E+00  0.14999999963E+04  0.15000000000E+04  0.10566000000E+00 0. -1.
        994   -1    0    0    0    0 -0.00000000000E+00 -0.00000000000E+00  0.11368683772E-12  0.17120000000E+03  0.17120000000E+03 0.  0.
         13    1    1    2    0    0 -0.16199331650E+02  0.29630128477E+02  0.92194012061E+02  0.98184061249E+02  0.10566000000E+00 0. -1.
        994    1    1    2    0    0  0.54150515809E+01 -0.15643192097E+02  0.70812546292E+01  0.17214417332E+03  0.17120000000E+03 0.  0.
        998    1    1    2    0    0  0.10784280069E+02 -0.13986936380E+02  0.14007247296E+04  0.14008717654E+04  0.10000000000E+02 0. -1.
</event>
<event>
 5    1  0.1279376E-008  0.3806554E+03  0.7957747E-01  0.3448310E+00
         13   -1    0    0    0    0  0.00000000000E+00  0.00000000000E+00  0.14999999963E+04  0.15000000000E+04  0.10566000000E+00 0. -1.
        994   -1    0    0    0    0 -0.00000000000E+00 -0.00000000000E+00  0.11368683772E-12  0.17120000000E+03  0.17120000000E+03 0.  0.
         13    1    1    2    0    0 -0.36786543941E+02  0.21744346150E+02  0.20424617869E+03  0.20866858671E+03  0.10566000000E+00 0. -1.
        994    1    1    2    0    0  0.37149679334E+02 -0.26153055700E+02  0.10718668697E+02  0.17744974177E+03  0.17120000000E+03 0.  0.
        998    1    1    2    0    0 -0.36313539243E+00  0.44087095498E+01  0.12850351489E+04  0.12850816715E+04  0.10000000000E+02 0.  0.
</event>
<event>
 5    1  0.1279376E-008  0.3851549E+03  0.7957747E-01  0.3429015E+00
         13   -1    0    0    0    0  0.00000000000E+00  0.00000000000E+00  0.14999999963E+04  0.15000000000E+04  0.10566000000E+00 0. -1.
        994   -1    0    0    0    0 -0.00000000000E+00 -0.00000000000E+00  0.11368683772E-12  0.17120000000E+03  0.17120000000E+03 0.  0.
         13    1    1    2    0    0  0.75266999570E+01 -0.11534627565E+02  0.60443038519E+02  0.61992506924E+02  0.10566000000E+00 0. -1.
        994    1    1    2    0    0  0.59093358621E+00  0.13603610196E+02  0.21629191406E+01  0.17175425943E+03  0.17120000000E+03 0.  0.
        998    1    1    2    0    0 -0.81176335432E+01 -0.20689826319E+01  0.14373940386E+04  0.14374532336E+04  0.10000000000E+02 0. -1.
</event>
<event>
 5    1  0.1279376E-008  0.3708834E+03  0.7957747E-01  0.3491841E+00
         13   -1    0    0    0    0  0.00000000000E+00  0.00000000000E+00  0.14999999963E+04  0.15000000000E+04  0.10566000000E+00 0.  1.
        994   -1    0    0    0    0 -0.00000000000E+00 -0.00000000000E+00  0.11368683772E-12  0.17120000000E+03  0.17120000000E+03 0.  0.
         13    1    1    2    0    0 -0.14113708654E+02  0.46546973921E+01  0.86955057979E+01  0.17218767811E+02  0.10566000000E+00 0.  1.
        994    1    1    2    0    0  0.75391670833E+01  0.75656128695E+01  0.92014148128E+01  0.17177946202E+03  0.17120000000E+03 0.  0.
        998    1    1    2    0    0  0.65745415712E+01 -0.12220310262E+02  0.14821030757E+04  0.14822017702E+04  0.10000000000E+02 0.  1.
</event>
<event>
 5    1  0.1279376E-008  0.3804165E+03  0.7957747E-01  0.3449347E+00
         13   -1    0    0    0    0  0.00000000000E+00  0.00000000000E+00  0.14999999963E+04  0.15000000000E+04  0.10566000000E+00 0. -1.
        994   -1    0    0    0    0 -0.00000000000E+00 -0.00000000000E+00  0.11368683772E-12  0.17120000000E+03  0.17120000000E+03 0.  0.
         13    1    1    2    0    0 -0.33254868334E+02  0.25416094291E+02  0.23000166162E+03  0.23377904019E+03  0.10566000000E+00 0. -1.
        994    1    1    2    0    0  0.33081388624E+01 -0.29408919920E+02  0.68523537662E+01  0.17387415882E+03  0.17120000000E+03 0.  0.
        998    1    1    2    0    0  0.29946729472E+02  0.39928256290E+01  0.12631459809E+04  0.12635468010E+04  0.10000000000E+02 0. -1.
</event>
<event>
 5    1  0.1279376E-008  0.3844853E+03  0.7957747E-01  0.3431858E+00
         13   -1    0    0    0    0  0.00000000000E+00  0.00000000000E+00  0.14999999963E+04  0.15000000000E+04  0.10566000000E+00 0. -1.
        994   -1    0    0    0    0 -0.00000000000E+00 -0.00000000000E+00  0.11368683772E-12  0.17120000000E+03  0.17120000000E+03 0.  0.
         13    1    1    2    0    0 -0.10602329164E+02 -0.79859065910E+01  0.52453955533E+02  0.54107418187E+02  0.10566000000E+00 0. -1.
        994    1    1    2    0    0 -0.76499857551E+01 -0.12413417486E+02  0.25866077437E+01  0.17183930213E+03  0.17120000000E+03 0.  0.
        998    1    1    2    0    0  0.18252314919E+02  0.20399324077E+02  0.14449594330E+04  0.14452532797E+04  0.10000000000E+02 0. -1.
</event>
<event>
 5    1  0.1279376E-008  0.3717565E+03  0.7957747E-01  0.3487857E+00
         13   -1    0    0    0    0  0.00000000000E+00  0.00000000000E+00  0.14999999963E+04  0.15000000000E+04  0.10566000000E+00 0. -1.
        994   -1    0    0    0    0 -0.00000000000E+00 -0.00000000000E+00  0.11368683772E-12  0.17120000000E+03  0.17120000000E+03 0.  0.
         13    1    1    2    0    0  0.58987833120E+02 -0.64367992120E+02  0.33236473174E+03  0.34364098844E+03  0.10566000000E+00 0. -1.
        994    1    1    2    0    0 -0.72717833540E+02  0.61397005881E+02  0.40156812183E+02  0.19994870645E+03  0.17120000000E+03 0.  0.
        998    1    1    2    0    0  0.13730000420E+02  0.29709862390E+01  0.11274784524E+04  0.11276103051E+04  0.10000000000E+02 0. -1.
</event>
<event>
 5    1  0.1279376E-008  0.3796573E+03  0.7957747E-01  0.3452652E+00
         13   -1    0    0    0    0  0.00000000000E+00  0.00000000000E+00  0.14999999963E+04  0.15000000000E+04  0.10566000000E+00 0.  1.
        994   -1    0    0    0    0 -0.00000000000E+00 -0.00000000000E+00  0.11368683772E-12  0.17120000000E+03  0.17120000000E+03 0.  0.
         13    1    1    2    0    0 -0.24948198316E+01 -0.35038297644E+02  0.14256262486E+03  0.14682649488E+03  0.10566000000E+00 0.  1.
        994    1    1    2    0    0  0.17964893929E+01  0.19768321409E+02  0.56259734451E+01  0.17243870065E+03  0.17120000000E+03 0.  0.
        998    1    1    2    0    0  0.69833043877E+00  0.15269976235E+02  0.13518113980E+04  0.13519348045E+04  0.10000000000E+02 0.  1.
</event>
<event>
 5    1  0.1279376E-008  0.3819116E+03  0.7957747E-01  0.3442877E+00
         13   -1    0    0    0    0  0.00000000000E+00  0.00000000000E+00  0.14999999963E+04  0.15000000000E+04  0.10566000000E+00 0.  1.
        994   -1    0    0    0    0 -0.00000000000E+00 -0.00000000000E+00  0.11368683772E-12  0.17120000000E+03  0.17120000000E+03 0.  0.
         13    1    1    2    0    0  0.20143182090E+02 -0.26440421277E+02  0.19630151347E+03  0.19909580361E+03  0.10566000000E+00 0.  1.
        994    1    1    2    0    0  0.33561626958E+01  0.84206638249E+01  0.34443155363E+01  0.17147441418E+03  0.17120000000E+03 0.  0.
        998    1    1    2    0    0 -0.23499344786E+02  0.18019757452E+02  0.13002541673E+04  0.13006297822E+04  0.10000000000E+02 0.  1.
</event>
<event>
 5    1  0.1279376E-008  0.3738824E+03  0.7957747E-01  0.3478236E+00
         13   -1    0    0    0    0  0.00000000000E+00  0.00000000000E+00  0.14999999963E+04  0.15000000000E+04  0.10566000000E+00 0. -1.
        994   -1    0    0    0    0 -0.00000000000E+00 -0.00000000000E+00  0.11368683772E-12  0.17120000000E+03  0.17120000000E+03 0.  0.
         13    1    1    2    0    0  0.26876492112E+02 -0.56279867443E+02  0.15189282648E+03  0.16419869429E+03  0.10566000000E+00 0. -1.
        994    1    1    2    0    0 -0.16922810659E+02  0.22671119265E+02  0.15848411705E+02  0.17424400513E+03  0.17120000000E+03 0.  0.
        998    1    1    2    0    0 -0.99536814522E+01  0.33608748178E+02  0.13322587581E+04  0.13327573006E+04  0.10000000000E+02 0. -1.
</event>
<event>
 5    1  0.1279376E-008  0.3860788E+03  0.7957747E-01  0.3425110E+00
         13   -1    0    0    0    0  0.00000000000E+00  0.00000000000E+00  0.14999999963E+04  0.15000000000E+04  0.10566000000E+00 0.  1.
        994   -1    0    0    0    0 -0.00000000000E+00 -0.00000000000E+00  0.11368683772E-12  0.17120000000E+03  0.17120000000E+03 0.  0.
         13    1    1    2    0    0  0.58086479197E+01  0.90867867109E+01  0.52988236097E+02  0.54074711392E+02  0.10566000000E+00 0.  1.
        994    1    1    2    0    0 -0.33240641387E+01 -0.90549033632E+01  0.14004283202E+01  0.17147723428E+03  0.17120000000E+03 0.  0.
        998    1    1    2    0    0 -0.24845837810E+01 -0.31883347738E-01  0.14456113319E+04  0.14456480543E+04  0.10000000000E+02 0.  1.
</event>
<event>
 5    1  0.1279376E-008  0.3768832E+03  0.7957747E-01  0.3464843E+00
         13   -1    0    0    0    0  0.00000000000E+00  0.00000000000E+00  0.14999999963E+04  0.15000000000E+04  0.10566000000E+00 0.  1.
        994   -1    0    0    0    0 -0.00000000000E+00 -0.00000000000E+00  0.11368683772E-12  0.17120000000E+03  0.17120000000E+03 0.  0.
         13    1    1    2    0    0 -0.20288267966E+02 -0.63853443610E+02  0.34346983475E+03  0.34994344490E+03  0.10566000000E+00 0.  1.
        994    1    1    2    0    0  0.11823418327E+02  0.52013914892E+02  0.15386397991E+02  0.17997617011E+03  0.17120000000E+03 0.  0.
        998    1    1    2    0    0  0.84648496384E+01  0.11839528719E+02  0.11411437635E+04  0.11412803850E+04  0.10000000000E+02 0.  1.
</event>
<event>
 5    1  0.1279376E-008  0.3846979E+03  0.7957747E-01  0.3430954E+00
         13   -1    0    0    0    0  0.00000000000E+00  0.00000000000E+00  0.14999999963E+04  0.15000000000E+04  0.10566000000E+00 0.  1.
        994   -1    0    0    0    0 -0.00000000000E+00 -0.00000000000E+00  0.11368683772E-12  0.17120000000E+03  0.17120000000E+03 0.  0.
         13    1    1    2    0    0 -0.12097854026E+02  0.16073777984E+02  0.11121631713E+03  0.11302125805E+03  0.10566000000E+00 0.  1.
        994    1    1    2    0    0  0.19982631285E+01 -0.17769891793E+02  0.28335194573E+01  0.17215467157E+03  0.17120000000E+03 0.  0.
        998    1    1    2    0    0  0.10099590898E+02  0.16961138088E+01  0.13859501597E+04  0.13860240704E+04  0.10000000000E+02 0.  1.
</event>
<event>
 5    1  0.1279376E-008  0.3838666E+03  0.7957747E-01  0.3434493E+00
         13   -1    0    0    0    0  0.00000000000E+00  0.00000000000E+00  0.14999999963E+04  0.15000000000E+04  0.10566000000E+00 0.  1.
        994   -1    0    0    0    0 -0.00000000000E+00 -0.00000000000E+00  0.11368683772E-12  0.17120000000E+03  0.17120000000E+03 0.  0.
         13    1    1    2    0    0  0.22452426314E+02 -0.24066983093E+02  0.20904207916E+02  0.38991386167E+02  0.10566000000E+00 0.  1.
        994    1    1    2    0    0 -0.32439098972E+02  0.27563924931E+02  0.25157758503E+02  0.17819769334E+03  0.17120000000E+03 0.  0.
        998    1    1    2    0    0  0.99866726582E+01 -0.34969418380E+01  0.14539380299E+04  0.14540109205E+04  0.10000000000E+02 0.  1.
</event>
<event>
 5    1  0.1279376E-008  0.3725315E+03  0.7957747E-01  0.3484337E+00
         13   -1    0    0    0    0  0.00000000000E+00  0.00000000000E+00  0.14999999963E+04  0.15000000000E+04  0.10566000000E+00 0.  1.
        994   -1    0    0    0    0 -0.00000000000E+00 -0.00000000000E+00  0.11368683772E-12  0.17120000000E+03  0.17120000000E+03 0.  0.
         13    1    1    2    0    0  0.12383795492E+02 -0.49785362937E+02  0.14823102043E+03  0.15685785711E+03  0.10566000000E+00 0.  1.
        994    1    1    2    0    0 -0.24912231239E+02  0.45837096825E+02  0.17339264953E+02  0.17981031344E+03  0.17120000000E+03 0.  0.
        998    1    1    2    0    0  0.12528435746E+02  0.39482661120E+01  0.13344297109E+04  0.13345318295E+04  0.10000000000E+02 0.  1.
</event>
<event>
 5    1  0.1453021E-008  0.3860306E+03  0.7957747E-01  0.3425313E+00
         13   -1    0    0    0    0  0.00000000000E+00  0.00000000000E+00  0.14999999963E+04  0.15000000000E+04  0.10566000000E+00 0.  1.
        994   -1    0    0    0    0 -0.00000000000E+00 -0.00000000000E+00  0.11368683772E-12  0.17120000000E+03  0.17120000000E+03 0.  0.
         13    1    1    2    0    0 -0.63510011713E+01 -0.12180949925E+02  0.79628340873E+02  0.80804669365E+02  0.10566000000E+00 0.  1.
        994    1    1    2    0    0  0.13957228517E+02  0.12304245494E+02  0.22548734552E+01  0.17222288797E+03  0.17120000000E+03 0.  0.
        998    1    1    2    0    0 -0.76062273460E+01 -0.12329556823E+00  0.14181167820E+04  0.14181724427E+04  0.10000000000E+02 0.  1.
</event>
<event>
 5    1  0.1279376E-008  0.3848317E+03  0.7957747E-01  0.3430386E+00
         13   -1    0    0    0    0  0.00000000000E+00  0.00000000000E+00  0.14999999963E+04  0.15000000000E+04  0.10566000000E+00 0.  1.
        994   -1    0    0    0    0 -0.00000000000E+00 -0.00000000000E+00  0.11368683772E-12  0.17120000000E+03  0.17120000000E+03 0.  0.
         13    1    1    2    0    0 -0.17465038884E+02  0.82862992929E+01  0.10798471399E+03  0.10970141275E+03  0.10566000000E+00 0.  1.
        994    1    1    2    0    0  0.17018117465E+02  0.41880895185E+01  0.27250618234E+01  0.17211630480E+03  0.17120000000E+03 0.  0.
        998    1    1    2    0    0  0.44692141912E+00 -0.12474388811E+02  0.13892902205E+04  0.13893822825E+04  0.10000000000E+02 0.  1.
</event>
<event>
 5    1  0.1279376E-008  0.3790029E+03  0.7957747E-01  0.3455512E+00
         13   -1    0    0    0    0  0.00000000000E+00  0.00000000000E+00  0.14999999963E+04  0.15000000000E+04  0.10566000000E+00 0.  1.
        994   -1    0    0    0    0 -0.00000000000E+00 -0.00000000000E+00  0.11368683772E-12  0.17120000000E+03  0.17120000000E+03 0.  0.
         13    1    1    2    0    0 -0.55659684185E+02  0.17757937511E+02  0.31134501539E+03  0.31677922053E+03  0.10566000000E+00 0.  1.
        994    1    1    2    0    0  0.49325605100E+02 -0.15308040536E+02  0.13636096891E+02  0.17933971831E+03  0.17120000000E+03 0.  0.
        998    1    1    2    0    0  0.63340790852E+01 -0.24498969746E+01  0.11750188840E+04  0.11750810612E+04  0.10000000000E+02 0.  1.
</event>
<event>
 5    1  0.1279376E-008  0.3787789E+03  0.7957747E-01  0.3456493E+00
         13   -1    0    0    0    0  0.00000000000E+00  0.00000000000E+00  0.14999999963E+04  0.15000000000E+04  0.10566000000E+00 0.  1.
        994   -1    0    0    0    0 -0.00000000000E+00 -0.00000000000E+00  0.11368683772E-12  0.17120000000E+03  0.17120000000E+03 0.  0.
         13    1    1    2    0    0  0.18976512985E+02  0.16323376364E+02  0.70350928903E+02  0.74671447171E+02  0.10566000000E+00 0.  1.
        994    1    1    2    0    0  0.27881232967E+01  0.62827418154E+01  0.49093936856E+01  0.17140825133E+03  0.17120000000E+03 0.  0.
        998    1    1    2    0    0 -0.21764636282E+02 -0.22606118179E+02  0.14247396737E+04  0.14251203015E+04  0.10000000000E+02 0.  1.
</event>
<event>
 5    1  0.1279376E-008  0.3832563E+03  0.7957747E-01  0.3437101E+00
         13   -1    0    0    0    0  0.00000000000E+00  0.00000000000E+00  0.14999999963E+04  0.15000000000E+04  0.10566000000E+00 0.  1.
        994   -1    0    0    0    0 -0.00000000000E+00 -0.00000000000E+00  0.11368683772E-12  0.17120000000E+03  0.17120000000E+03 0.  0.
         13    1    1    2    0    0 -0.32699346873E+02  0.47624950535E+01  0.19285516339E+03  0.19566566856E+03  0.10566000000E+00 0.  1.
        994    1    1    2    0    0  0.32274882021E+02 -0.71382633955E+01  0.61204298811E+01  0.17446925940E+03  0.17120000000E+03 0.  0.
        998    1    1    2    0    0  0.42446485189E+00  0.23757683420E+01  0.13010244030E+04  0.13010650720E+04  0.10000000000E+02 0.  1.
</event>
<event>
 5    1  0.1279376E-008  0.3771646E+03  0.7957747E-01  0.3463598E+00
         13   -1    0    0    0    0  0.00000000000E+00  0.00000000000E+00  0.14999999963E+04  0.15000000000E+04  0.10566000000E+00 0. -1.
        994   -1    0    0    0    0 -0.00000000000E+00 -0.00000000000E+00  0.11368683772E-12  0.17120000000E+03  0.17120000000E+03 0.  0.
         13    1    1    2    0    0  0.33483699503E+02  0.24873746203E+01  0.89361904821E+02  0.95461543892E+02  0.10566000000E+00 0. -1.
        994    1    1    2    0    0 -0.44628064156E+02 -0.56447522587E+01  0.12430502975E+02  0.17744713225E+03  0.17120000000E+03 0.  0.
        998    1    1    2    0    0  0.11144364652E+02  0.31573776384E+01  0.13982075885E+04  0.13982913239E+04  0.10000000000E+02 0. -1.
</event>
<event>
 5    1  0.1279376E-008  0.3831920E+03  0.7957747E-01  0.3437376E+00
         13   -1    0    0    0    0  0.00000000000E+00  0.00000000000E+00  0.14999999963E+04  0.15000000000E+04  0.10566000000E+00 0. -1.
        994   -1    0    0    0    0 -0.00000000000E+00 -0.00000000000E+00  0.11368683772E-12  0.17120000000E+03  0.17120000000E+03 0.  0.
         13    1    1    2    0    0 -0.71740475498E+01  0.84014888438E+01  0.24307453213E+02  0.26700476002E+02  0.10566000000E+00 0. -1.
        994    1    1    2    0    0 -0.60649293304E+01  0.24184379305E+01  0.26714805725E+01  0.17134529179E+03  0.17120000000E+03 0.  0.
        998    1    1    2    0    0  0.13238976880E+02 -0.10819926774E+02  0.14730210625E+04  0.14731542322E+04  0.10000000000E+02 0. -1.
</event>
<event>
 5    1  0.1279376E-008  0.3712562E+03  0.7957747E-01  0.3490137E+00
         13   -1    0    0    0    0  0.00000000000E+00  0.00000000000E+00  0.14999999963E+04  0.15000000000E+04  0.10566000000E+00 0. -1.
        994   -1    0    0    0    0 -0.00000000000E+00 -0.00000000000E+00  0.11368683772E-12  0.17120000000E+03  0.17120000000E+03 0.  0.
         13    1    1    2    0    0  0.61926016087E+01  0.29108909481E+02  0.33774151798E+02  0.45015346489E+02  0.10566000000E+00 0. -1.
        994    1    1    2    0    0 -0.46408625960E+01 -0.17159921589E+02  0.12714959417E+02  0.17258942815E+03  0.17120000000E+03 0.  0.
        998    1    1    2    0    0 -0.15517390127E+01 -0.11948987892E+02  0.14535108851E+04  0.14535952254E+04  0.10000000000E+02 0. -1.
</event>
<event>
 5    1  0.1279376E-008  0.3753087E+03  0.7957747E-01  0.3471843E+00
         13   -1    0    0    0    0  0.00000000000E+00  0.00000000000E+00  0.14999999963E+04  0.15000000000E+04  0.10566000000E+00 0.  1.
        994   -1    0    0    0    0 -0.00000000000E+00 -0.00000000000E+00  0.11368683772E-12  0.17120000000E+03  0.17120000000E+03 0.  0.
         13    1    1    2    0    0  0.30514640323E+02  0.77061986319E+02  0.36796204371E+03  0.37718134867E+03  0.10566000000E+00 0.  1.
        994    1    1    2    0    0 -0.36937879290E+02 -0.82588809391E+02  0.34843114086E+02  0.19674552336E+03  0.17120000000E+03 0.  0.
        998    1    1    2    0    0  0.64232389668E+01  0.55268230719E+01  0.10971948385E+04  0.10972731280E+04  0.10000000000E+02 0.  1.
</event>
<event>
 5    1  0.1279376E-008  0.3839504E+03  0.7957747E-01  0.3434136E+00
         13   -1    0    0    0    0  0.00000000000E+00  0.00000000000E+00  0.14999999963E+04  0.15000000000E+04  0.10566000000E+00 0.  1.
        994   -1    0    0    0    0 -0.00000000000E+00 -0.00000000000E+00  0.11368683772E-12  0.17120000000E+03  0.17120000000E+03 0.  0.
         13    1    1    2    0    0 -0.85343757600E+01  0.14302197898E+02  0.61727583971E+02  0.63935078175E+02  0.10566000000E+00 0.  1.
        994    1    1    2    0    0  0.11196905018E+02 -0.13740902094E+02  0.31896077700E+01  0.17214469690E+03  0.17120000000E+03 0.  0.
        998    1    1    2    0    0 -0.26625292584E+01 -0.56129580345E+00  0.14350828045E+04  0.14351202249E+04  0.10000000000E+02 0.  1.
</event>
<event>
 5    1  0.1279376E-008  0.3824486E+03  0.7957747E-01  0.3440565E+00
         13   -1    0    0    0    0  0.00000000000E+00  0.00000000000E+00  0.14999999963E+04  0.15000000000E+04  0.10566000000E+00 0. -1.
        994   -1    0    0    0    0 -0.00000000000E+00 -0.00000000000E+00  0.11368683772E-12  0.17120000000E+03  0.17120000000E+03 0.  0.
         13    1    1    2    0    0  0.96297493704E+01 -0.66354518179E+01  0.23691653569E+02  0.26420955824E+02  0.10566000000E+00 0. -1.
        994    1    1    2    0    0  0.23880977795E+02  0.19560494985E+02  0.60685433999E+01  0.17406660014E+03  0.17120000000E+03 0.  0.
        998    1    1    2    0    0 -0.33510727165E+02 -0.12925043167E+02  0.14702397993E+04  0.14707124440E+04  0.10000000000E+02 0. -1.
</event>
<event>
 5    1  0.1279376E-008  0.3789599E+03  0.7957747E-01  0.3455700E+00
         13   -1    0    0    0    0  0.00000000000E+00  0.00000000000E+00  0.14999999963E+04  0.15000000000E+04  0.10566000000E+00 0.  1.
        994   -1    0    0    0    0 -0.00000000000E+00 -0.00000000000E+00  0.11368683772E-12  0.17120000000E+03  0.17120000000E+03 0.  0.
         13    1    1    2    0    0  0.15642572976E+01 -0.13496690420E+02  0.17746752051E+02  0.22350971468E+02  0.10566000000E+00 0.  1.
        994    1    1    2    0    0  0.42802396673E+01  0.11875905868E+02  0.51938549055E+01  0.17174333676E+03  0.17120000000E+03 0.  0.
        998    1    1    2    0    0 -0.58444969649E+01  0.16207845518E+01  0.14770593893E+04  0.14771056918E+04  0.10000000000E+02 0.  1.
</event>
<event>
 5    1  0.1279376E-008  0.3837561E+03  0.7957747E-01  0.3434965E+00
         13   -1    0    0    0    0  0.00000000000E+00  0.00000000000E+00  0.14999999963E+04  0.15000000000E+04  0.10566000000E+00 0.  1.
        994   -1    0    0    0    0 -0.00000000000E+00 -0.00000000000E+00  0.11368683772E-12  0.17120000000E+03  0.17120000000E+03 0.  0.
         13    1    1    2    0    0 -0.66854073792E+01  0.12479434635E+02  0.39607455263E+02  0.42061771683E+02  0.10566000000E+00 0.  1.
        994    1    1    2    0    0 -0.76264577588E+01 -0.42769612276E+02  0.85061815281E+01  0.17683098630E+03  0.17120000000E+03 0.  0.
        998    1    1    2    0    0  0.14311865138E+02  0.30290177641E+02  0.14518863595E+04  0.14523072420E+04  0.10000000000E+02 0.  1.
</event>
<event>
 5    1  0.1279376E-008  0.3775935E+03  0.7957747E-01  0.3461705E+00
         13   -1    0    0    0    0  0.00000000000E+00  0.00000000000E+00  0.14999999963E+04  0.15000000000E+04  0.10566000000E+00 0. -1.
        994   -1    0    0    0    0 -0.00000000000E+00 -0.00000000000E+00  0.11368683772E-12  0.17120000000E+03  0.17120000000E+03 0.  0.
         13    1    1    2    0    0  0.17054826778E+02  0.17519869704E+02  0.51939736081E+02  0.57406970823E+02  0.10566000000E+00 0. -1.
        994    1    1    2    0    0 -0.15992112626E+02 -0.20703330682E+02  0.76625073845E+01  0.17335665429E+03  0.17120000000E+03 0.  0.
        998    1    1    2    0    0 -0.10627141521E+01  0.31834609783E+01  0.14403977528E+04  0.14404363749E+04  0.10000000000E+02 0. -1.
</event>
<event>
 5    1  0.1279376E-008  0.3765588E+03  0.7957747E-01  0.3466280E+00
         13   -1    0    0    0    0  0.00000000000E+00  0.00000000000E+00  0.14999999963E+04  0.15000000000E+04  0.10566000000E+00 0. -1.
        994   -1    0    0    0    0 -0.00000000000E+00 -0.00000000000E+00  0.11368683772E-12  0.17120000000E+03  0.17120000000E+03 0.  0.
         13    1    1    2    0    0 -0.24307870318E+02 -0.40079748079E+02  0.16798408399E+03  0.17440161239E+03  0.10566000000E+00 0. -1.
        994    1    1    2    0    0  0.20096814537E+02  0.39480647765E+02  0.12545775387E+02  0.17728350172E+03  0.17120000000E+03 0.  0.
        998    1    1    2    0    0  0.42110557807E+01  0.59910031315E+00  0.13194701369E+04  0.13195148859E+04  0.10000000000E+02 0. -1.
</event>
<event>
 5    1  0.1279376E-008  0.3701499E+03  0.7957747E-01  0.3495202E+00
         13   -1    0    0    0    0  0.00000000000E+00  0.00000000000E+00  0.14999999963E+04  0.15000000000E+04  0.10566000000E+00 0. -1.
        994   -1    0    0    0    0 -0.00000000000E+00 -0.00000000000E+00  0.11368683772E-12  0.17120000000E+03  0.17120000000E+03 0.  0.
         13    1    1    2    0    0  0.70506478055E+01  0.26207381728E+02  0.28555866890E+02  0.39395268617E+02  0.10566000000E+00 0. -1.
        994    1    1    2    0    0 -0.33433460721E+01 -0.24289922224E+02  0.13123742126E+02  0.17344408578E+03  0.17120000000E+03 0.  0.
        998    1    1    2    0    0 -0.37073017334E+01 -0.19174595044E+01  0.14583203873E+04  0.14583606456E+04  0.10000000000E+02 0. -1.
</event>
<event>
 5    1  0.1279376E-008  0.3842438E+03  0.7957747E-01  0.3432886E+00
         13   -1    0    0    0    0  0.00000000000E+00  0.00000000000E+00  0.14999999963E+04  0.15000000000E+04  0.10566000000E+00 0.  1.
        994   -1    0    0    0    0 -0.00000000000E+00 -0.00000000000E+00  0.11368683772E-12  0.17120000000E+03  0.17120000000E+03 0.  0.
         13    1    1    2    0    0 -0.23593746184E+02  0.46295039536E+01  0.13973119997E+03  0.14178475438E+03  0.10566000000E+00 0.  1.
        994    1    1    2    0    0  0.18538726000E+02  0.79308736965E+00  0.31419529673E+01  0.17223131312E+03  0.17120000000E+03 0.  0.
        998    1    1    2    0    0  0.50550201841E+01 -0.54225913232E+01  0.13571268433E+04  0.13571839325E+04  0.10000000000E+02 0.  1.
</event>
<event>
 5    1  0.1279376E-008  0.3833992E+03  0.7957747E-01  0.3436490E+00
         13   -1    0    0    0    0  0.00000000000E+00  0.00000000000E+00  0.14999999963E+04  0.15000000000E+04  0.10566000000E+00 0.  1.
        994   -1    0    0    0    0 -0.00000000000E+00 -0.00000000000E+00  0.11368683772E-12  0.17120000000E+03  0.17120000000E+03 0.  0.
         13    1    1    2    0    0 -0.34975653364E+01  0.16802662452E+02  0.59292811189E+02  0.61726907030E+02  0.10566000000E+00 0.  1.
        994    1    1    2    0    0  0.64591965989E+01 -0.12631109154E+02  0.30926139093E+01  0.17181463966E+03  0.17120000000E+03 0.  0.
        998    1    1    2    0    0 -0.29616312625E+01 -0.41715532971E+01  0.14376145712E+04  0.14376584533E+04  0.10000000000E+02 0.  1.
</event>
<event>
 5    1  0.1279376E-008  0.4197929E+03  0.7957747E-01  0.3294307E+00
         13   -1    0    0    0    0  0.00000000000E+00  0.00000000000E+00  0.14999999963E+04  0.15000000000E+04  0.10566000000E+00 0. -1.
        994   -1    0    0    0    0 -0.00000000000E+00 -0.00000000000E+00  0.11368683772E-12  0.17120000000E+03  0.17120000000E+03 0.  0.
         13    1    1    2    0    0  0.22803728625E+02 -0.28680097629E+01 -0.10492453331E+02  0.25265356917E+02  0.10566000000E+00 0. -1.
        994    1    1    2    0    0 -0.24063207059E+02  0.11188552144E+01  0.42667053146E+02  0.17807360050E+03  0.17120000000E+03 0.  0.
        998    1    1    2    0    0  0.12594784339E+01  0.17491545485E+01  0.14678253965E+04  0.14678610426E+04  0.10000000000E+02 0. -1.
</event>
<event>
 5    1  0.1279376E-008  0.3836505E+03  0.7957747E-01  0.3435416E+00
         13   -1    0    0    0    0  0.00000000000E+00  0.00000000000E+00  0.14999999963E+04  0.15000000000E+04  0.10566000000E+00 0. -1.
        994   -1    0    0    0    0 -0.00000000000E+00 -0.00000000000E+00  0.11368683772E-12  0.17120000000E+03  0.17120000000E+03 0.  0.
         13    1    1    2    0    0 -0.14814033717E+02 -0.18248981859E+02  0.12239289511E+03  0.12462950242E+03  0.10566000000E+00 0. -1.
        994    1    1    2    0    0  0.20736752293E+02 -0.18640123206E+01  0.37347875385E+01  0.17250181470E+03  0.17120000000E+03 0.  0.
        998    1    1    2    0    0 -0.59227185755E+01  0.20112994179E+02  0.13738723136E+04  0.13740686829E+04  0.10000000000E+02 0. -1.
</event>
<event>
 5    1  0.1279376E-008  0.3805491E+03  0.7957747E-01  0.3448771E+00
         13   -1    0    0    0    0  0.00000000000E+00  0.00000000000E+00  0.14999999963E+04  0.15000000000E+04  0.10566000000E+00 0.  1.
        994   -1    0    0    0    0 -0.00000000000E+00 -0.00000000000E+00  0.11368683772E-12  0.17120000000E+03  0.17120000000E+03 0.  0.
         13    1    1    2    0    0  0.28263779937E+02 -0.17798445940E+02  0.15650584221E+03  0.16003035882E+03  0.10566000000E+00 0.  1.
        994    1    1    2    0    0 -0.56520557930E+01  0.35812532164E+01  0.40056342041E+01  0.17137752541E+03  0.17120000000E+03 0.  0.
        998    1    1    2    0    0 -0.22611724144E+02  0.14217192724E+02  0.13394885199E+04  0.13397921158E+04  0.10000000000E+02 0.  1.
</event>
<event>
 5    1  0.1696364E-008  0.3865141E+03  0.7957747E-01  0.3423276E+00
         13   -1    0    0    0    0  0.00000000000E+00  0.00000000000E+00  0.14999999963E+04  0.15000000000E+04  0.10566000000E+00 0.  1.
        994   -1    0    0    0    0 -0.00000000000E+00 -0.00000000000E+00  0.11368683772E-12  0.17120000000E+03  0.17120000000E+03 0.  0.
         13    1    1    2    0    0 -0.10428054395E+02 -0.15278462262E+01  0.61724699256E+02  0.62618114750E+02  0.10566000000E+00 0.  1.
        994    1    1    2    0    0  0.11634836123E+02  0.62454843553E+01  0.14511123280E+01  0.17171465055E+03  0.17120000000E+03 0.  0.
        998    1    1    2    0    0 -0.12067817279E+01 -0.47176381291E+01  0.14368241847E+04  0.14368672347E+04  0.10000000000E+02 0.  1.
</event>
<event>
 5    1  0.1279376E-008  0.3831014E+03  0.7957747E-01  0.3437764E+00
         13   -1    0    0    0    0  0.00000000000E+00  0.00000000000E+00  0.14999999963E+04  0.15000000000E+04  0.10566000000E+00 0. -1.
        994   -1    0    0    0    0 -0.00000000000E+00 -0.00000000000E+00  0.11368683772E-12  0.17120000000E+03  0.17120000000E+03 0.  0.
         13    1    1    2    0    0 -0.15537174324E+01 -0.20418560700E+02  0.89527329943E+02  0.91839455734E+02  0.10566000000E+00 0. -1.
        994    1    1    2    0    0  0.77903372811E+01 -0.46199744800E+01  0.28471796791E+01  0.17146305710E+03  0.17120000000E+03 0.  0.
        998    1    1    2    0    0 -0.62366198487E+01  0.25038535180E+02  0.14076254867E+04  0.14078974872E+04  0.10000000000E+02 0. -1.
</event>
<event>
 5    1  0.1279376E-008  0.3823503E+03  0.7957747E-01  0.3440988E+00
         13   -1    0    0    0    0  0.00000000000E+00  0.00000000000E+00  0.14999999963E+04  0.15000000000E+04  0.10566000000E+00 0.  1.
        994   -1    0    0    0    0 -0.00000000000E+00 -0.00000000000E+00  0.11368683772E-12  0.17120000000E+03  0.17120000000E+03 0.  0.
         13    1    1    2    0    0 -0.29482111094E+03 -0.87013612204E+02  0.91109302894E+03  0.96155154553E+03  0.10566000000E+00 0.  1.
        994    1    1    2    0    0  0.30834341461E+03  0.74073168075E+02  0.48862606438E+03  0.60714690673E+03  0.17120000000E+03 0.  0.
        998    1    1    2    0    0 -0.13522303673E+02  0.12940444129E+02  0.10028090295E+03  0.10250154774E+03  0.10000000000E+02 0. -1.
</event>
<event>
 5    1  0.1279376E-008  0.3808109E+03  0.7957747E-01  0.3447635E+00
         13   -1    0    0    0    0  0.00000000000E+00  0.00000000000E+00  0.14999999963E+04  0.15000000000E+04  0.10566000000E+00 0. -1.
        994   -1    0    0    0    0 -0.00000000000E+00 -0.00000000000E+00  0.11368683772E-12  0.17120000000E+03  0.17120000000E+03 0.  0.
         13    1    1    2    0    0  0.41547899447E+02  0.45923232979E+02  0.37260087045E+03  0.37771231261E+03  0.10566000000E+00 0. -1.
        994    1    1    2    0    0 -0.42757951456E+02 -0.49631145048E+02  0.18166987533E+02  0.18420361671E+03  0.17120000000E+03 0.  0.
        998    1    1    2    0    0  0.12100520089E+01  0.37079120697E+01  0.11092321383E+04  0.11092840707E+04  0.10000000000E+02 0.  0.
</event>
<event>
 5    1  0.1279376E-008  0.3856617E+03  0.7957747E-01  0.3426870E+00
         13   -1    0    0    0    0  0.00000000000E+00  0.00000000000E+00  0.14999999963E+04  0.15000000000E+04  0.10566000000E+00 0.  1.
        994   -1    0    0    0    0 -0.00000000000E+00 -0.00000000000E+00  0.11368683772E-12  0.17120000000E+03  0.17120000000E+03 0.  0.
         13    1    1    2    0    0  0.15881020678E+02 -0.27558019752E+01  0.94250346451E+02  0.95618723232E+02  0.10566000000E+00 0.  1.
        994    1    1    2    0    0 -0.19739243327E+02 -0.76027982364E+01  0.27716466248E+01  0.17252409192E+03  0.17120000000E+03 0.  0.
        998    1    1    2    0    0  0.38582226495E+01  0.10358600212E+02  0.14029780032E+04  0.14030571848E+04  0.10000000000E+02 0.  1.
</event>
<event>
 5    1  0.1279376E-008  0.4137625E+03  0.7957747E-01  0.3316153E+00
         13   -1    0    0    0    0  0.00000000000E+00  0.00000000000E+00  0.14999999963E+04  0.15000000000E+04  0.10566000000E+00 0. -1.
        994   -1    0    0    0    0 -0.00000000000E+00 -0.00000000000E+00  0.11368683772E-12  0.17120000000E+03  0.17120000000E+03 0.  0.
         13    1    1    2    0    0  0.77763632085E+02 -0.13749250479E+03  0.26081138524E+03  0.30491631833E+03  0.10566000000E+00 0. -1.
        994    1    1    2    0    0 -0.74254353377E+02  0.13964126105E+03  0.15027906168E+03  0.27732044130E+03  0.17120000000E+03 0.  0.
        998    1    1    2    0    0 -0.35092787077E+01 -0.21487562606E+01  0.10889095494E+04  0.10889632404E+04  0.10000000000E+02 0. -1.
</event>
<event>
 5    1  0.1279376E-008  0.3795177E+03  0.7957747E-01  0.3453261E+00
         13   -1    0    0    0    0  0.00000000000E+00  0.00000000000E+00  0.14999999963E+04  0.15000000000E+04  0.10566000000E+00 0. -1.
        994   -1    0    0    0    0 -0.00000000000E+00 -0.00000000000E+00  0.11368683772E-12  0.17120000000E+03  0.17120000000E+03 0.  0.
         13    1    1    2    0    0 -0.91561540622E+01 -0.19108870576E+02  0.48807938401E+02  0.53209116765E+02  0.10566000000E+00 0. -1.
        994    1    1    2    0    0  0.11374617341E+02  0.15058547997E+02  0.55701773782E+01  0.17232703985E+03  0.17120000000E+03 0.  0.
        998    1    1    2    0    0 -0.22184632790E+01  0.40503225789E+01  0.14456218805E+04  0.14456638434E+04  0.10000000000E+02 0. -1.
</event>
<event>
 5    1  0.1279376E-008  0.3784244E+03  0.7957747E-01  0.3458048E+00
         13   -1    0    0    0    0  0.00000000000E+00  0.00000000000E+00  0.14999999963E+04  0.15000000000E+04  0.10566000000E+00 0. -1.
        994   -1    0    0    0    0 -0.00000000000E+00 -0.00000000000E+00  0.11368683772E-12  0.17120000000E+03  0.17120000000E+03 0.  0.
         13    1    1    2    0    0  0.22860683407E+02 -0.31736889235E+02  0.20641758699E+03  0.21009062893E+03  0.10566000000E+00 0. -1.
        994    1    1    2    0    0  0.59915958094E+01 -0.17557986826E+02  0.60880395298E+01  0.17230985563E+03  0.17120000000E+03 0.  0.
        998    1    1    2    0    0 -0.28852279216E+02  0.49294876061E+02  0.12874943698E+04  0.12887995154E+04  0.10000000000E+02 0. -1.
</event>
<event>
 5    1  0.1279376E-008  0.3826080E+03  0.7957747E-01  0.3439881E+00
         13   -1    0    0    0    0  0.00000000000E+00  0.00000000000E+00  0.14999999963E+04  0.15000000000E+04  0.10566000000E+00 0. -1.
        994   -1    0    0    0    0 -0.00000000000E+00 -0.00000000000E+00  0.11368683772E-12  0.17120000000E+03  0.17120000000E+03 0.  0.
         13    1    1    2    0    0  0.28666911496E+02 -0.15182963192E+02  0.17295061052E+03  0.17596658497E+03  0.10566000000E+00 0. -1.
        994    1    1    2    0    0 -0.27988793425E+02  0.67318941190E+01  0.55738307923E+01  0.17369282813E+03  0.17120000000E+03 0.  0.
        998    1    1    2    0    0 -0.67811807128E+00  0.84510690725E+01  0.13214755550E+04  0.13215405869E+04  0.10000000000E+02 0. -1.
</event>
<event>
 5    1  0.1279376E-008  0.3751911E+03  0.7957747E-01  0.3472369E+00
         13   -1    0    0    0    0  0.00000000000E+00  0.00000000000E+00  0.14999999963E+04  0.15000000000E+04  0.10566000000E+00 0. -1.
        994   -1    0    0    0    0 -0.00000000000E+00 -0.00000000000E+00  0.11368683772E-12  0.17120000000E+03  0.17120000000E+03 0.  0.
         13    1    1    2    0    0 -0.24185731224E+02 -0.20122664353E+02  0.83068216411E+02  0.88826859436E+02  0.10566000000E+00 0. -1.
        994    1    1    2    0    0 -0.19357851486E+01 -0.19147629611E+02  0.78398248853E+01  0.17245660857E+03  0.17120000000E+03 0.  0.
        998    1    1    2    0    0  0.26121516373E+02  0.39270293964E+02  0.14090919550E+04  0.14099165320E+04  0.10000000000E+02 0. -1.
</event>
<event>
 5    1  0.1279376E-008  0.3700745E+03  0.7957747E-01  0.3495548E+00
         13   -1    0    0    0    0  0.00000000000E+00  0.00000000000E+00  0.14999999963E+04  0.15000000000E+04  0.10566000000E+00 0.  1.
        994   -1    0    0    0    0 -0.00000000000E+00 -0.00000000000E+00  0.11368683772E-12  0.17120000000E+03  0.17120000000E+03 0.  0.
         13    1    1    2    0    0  0.20037059526E+02  0.10175630227E+03  0.43791393027E+03  0.45002716618E+03  0.10566000000E+00 0.  1.
        994    1    1    2    0    0  0.20126448340E+01 -0.75913920156E+02  0.31426802011E+02  0.18990539196E+03  0.17120000000E+03 0.  0.
        998    1    1    2    0    0 -0.22049704360E+02 -0.25842382118E+02  0.10306592640E+04  0.10312674419E+04  0.10000000000E+02 0.  1.
</event>
<event>
 5    1  0.1279376E-008  0.3819490E+03  0.7957747E-01  0.3442716E+00
         13   -1    0    0    0    0  0.00000000000E+00  0.00000000000E+00  0.14999999963E+04  0.15000000000E+04  0.10566000000E+00 0. -1.
        994   -1    0    0    0    0 -0.00000000000E+00 -0.00000000000E+00  0.11368683772E-12  0.17120000000E+03  0.17120000000E+03 0.  0.
         13    1    1    2    0    0 -0.20145837903E+02  0.81109348010E+01  0.71456427796E+02  0.74683828809E+02  0.10566000000E+00 0. -1.
        994    1    1    2    0    0  0.16951573293E+02 -0.12186143854E+02  0.46015516923E+01  0.17252962707E+03  0.17120000000E+03 0.  0.
        998    1    1    2    0    0  0.31942646103E+01  0.40752090528E+01  0.14239420168E+04  0.14239865441E+04  0.10000000000E+02 0. -1.
</event>
<event>
 5    1  0.1279376E-008  0.3833348E+03  0.7957747E-01  0.3436765E+00
         13   -1    0    0    0    0  0.00000000000E+00  0.00000000000E+00  0.14999999963E+04  0.15000000000E+04  0.10566000000E+00 0. -1.
        994   -1    0    0    0    0 -0.00000000000E+00 -0.00000000000E+00  0.11368683772E-12  0.17120000000E+03  0.17120000000E+03 0.  0.
         13    1    1    2    0    0 -0.17808022168E+01 -0.17700752898E+02  0.61490437894E+02  0.64012288087E+02  0.10566000000E+00 0. -1.
        994    1    1    2    0    0  0.12143028772E+02  0.17404354923E+02  0.39496653654E+01  0.17255551157E+03  0.17120000000E+03 0.  0.
        998    1    1    2    0    0 -0.10362226555E+02  0.29639797473E+00  0.14345598930E+04  0.14346322003E+04  0.10000000000E+02 0. -1.
</event>
<event>
 5    1  0.1279376E-008  0.3805654E+03  0.7957747E-01  0.3448700E+00
         13   -1    0    0    0    0  0.00000000000E+00  0.00000000000E+00  0.14999999963E+04  0.15000000000E+04  0.10566000000E+00 0.  1.
        994   -1    0    0    0    0 -0.00000000000E+00 -0.00000000000E+00  0.11368683772E-12  0.17120000000E+03  0.17120000000E+03 0.  0.
         13    1    1    2    0    0  0.13129106979E+02  0.26332058914E-01  0.20562841511E+02  0.24397044052E+02  0.10566000000E+00 0.  1.
        994    1    1    2    0    0 -0.13616907596E+02  0.95301820120E+00  0.44699851798E+01  0.17180148190E+03  0.17120000000E+03 0.  0.
        998    1    1    2    0    0  0.48780061692E+00 -0.97935026011E+00  0.14749671696E+04  0.14750014740E+04  0.10000000000E+02 0.  1.
</event>
<event>
 5    1  0.1279376E-008  0.3805834E+03  0.7957747E-01  0.3448622E+00
         13   -1    0    0    0    0  0.00000000000E+00  0.00000000000E+00  0.14999999963E+04  0.15000000000E+04  0.10566000000E+00 0. -1.
        994   -1    0    0    0    0 -0.00000000000E+00 -0.00000000000E+00  0.11368683772E-12  0.17120000000E+03  0.17120000000E+03 0.  0.
         13    1    1    2    0    0  0.36310893596E+00 -0.11437945321E+02  0.15342695931E+02  0.19140739895E+02  0.10566000000E+00 0. -1.
        994    1    1    2    0    0  0.26776852245E+01  0.10396617452E+02  0.42235841768E+01  0.17158828141E+03  0.17120000000E+03 0.  0.
        998    1    1    2    0    0 -0.30407941604E+01  0.10413278692E+01  0.14804337162E+04  0.14804709787E+04  0.10000000000E+02 0. -1.
</event>
<event>
 5    1  0.1279376E-008  0.3820065E+03  0.7957747E-01  0.3442468E+00
         13   -1    0    0    0    0  0.00000000000E+00  0.00000000000E+00  0.14999999963E+04  0.15000000000E+04  0.10566000000E+00 0.  1.
        994   -1    0    0    0    0 -0.00000000000E+00 -0.00000000000E+00  0.11368683772E-12  0.17120000000E+03  0.17120000000E+03 0.  0.
         13    1    1    2    0    0  0.20166200710E+01  0.16451768250E+02  0.45433711435E+02  0.48362803205E+02  0.10566000000E+00 0.  1.
        994    1    1    2    0    0 -0.68918995047E+01  0.40864156234E+01  0.33369201916E+01  0.17141987081E+03  0.17120000000E+03 0.  0.
        998    1    1    2    0    0  0.48752794337E+01 -0.20538183874E+02  0.14512293647E+04  0.14514173260E+04  0.10000000000E+02 0.  1.
</event>
<event>
 5    1  0.1279376E-008  0.3766044E+03  0.7957747E-01  0.3466078E+00
         13   -1    0    0    0    0  0.00000000000E+00  0.00000000000E+00  0.14999999963E+04  0.15000000000E+04  0.10566000000E+00 0.  1.
        994   -1    0    0    0    0 -0.00000000000E+00 -0.00000000000E+00  0.11368683772E-12  0.17120000000E+03  0.17120000000E+03 0.  0.
         13    1    1    2    0    0 -0.18666147573E+02 -0.21776495077E+02  0.71249844955E+02  0.76806200096E+02  0.10566000000E+00 0.  1.
        994    1    1    2    0    0  0.78265946261E+00  0.74245386559E+01  0.60455800694E+01  0.17146931320E+03  0.17120000000E+03 0.  0.
        998    1    1    2    0    0  0.17883488111E+02  0.14351956421E+02  0.14227045713E+04  0.14229244867E+04  0.10000000000E+02 0.  1.
</event>
<event>
 5    1  0.1279376E-008  0.3796715E+03  0.7957747E-01  0.3452590E+00
         13   -1    0    0    0    0  0.00000000000E+00  0.00000000000E+00  0.14999999963E+04  0.15000000000E+04  0.10566000000E+00 0. -1.
        994   -1    0    0    0    0 -0.00000000000E+00 -0.00000000000E+00  0.11368683772E-12  0.17120000000E+03  0.17120000000E+03 0.  0.
         13    1    1    2    0    0 -0.10567296208E+02 -0.22342334624E+01  0.11632922654E+02  0.15874369336E+02  0.10566000000E+00 0. -1.
        994    1    1    2    0    0  0.98965810839E+01 -0.11510628042E+01  0.46313529107E+01  0.17155219816E+03  0.17120000000E+03 0.  0.
        998    1    1    2    0    0  0.67071512444E+00  0.33852962666E+01  0.14837357207E+04  0.14837734325E+04  0.10000000000E+02 0. -1.
</event>
<event>
 5    1  0.1279376E-008  0.3833569E+03  0.7957747E-01  0.3436671E+00
         13   -1    0    0    0    0  0.00000000000E+00  0.00000000000E+00  0.14999999963E+04  0.15000000000E+04  0.10566000000E+00 0.  1.
        994   -1    0    0    0    0 -0.00000000000E+00 -0.00000000000E+00  0.11368683772E-12  0.17120000000E+03  0.17120000000E+03 0.  0.
         13    1    1    2    0    0  0.92440761724E+01 -0.22878461412E+02  0.11748491935E+03  0.12004830019E+03  0.10566000000E+00 0.  1.
        994    1    1    2    0    0 -0.28475438651E+01  0.23115025170E+02  0.42435082571E+01  0.17282899137E+03  0.17120000000E+03 0.  0.
        998    1    1    2    0    0 -0.63965323074E+01 -0.23656375799E+00  0.13782715687E+04  0.13783227084E+04  0.10000000000E+02 0.  1.
</event>
<event>
 5    1  0.1279376E-008  0.3835018E+03  0.7957747E-01  0.3436051E+00
         13   -1    0    0    0    0  0.00000000000E+00  0.00000000000E+00  0.14999999963E+04  0.15000000000E+04  0.10566000000E+00 0. -1.
        994   -1    0    0    0    0 -0.00000000000E+00 -0.00000000000E+00  0.11368683772E-12  0.17120000000E+03  0.17120000000E+03 0.  0.
         13    1    1    2    0    0 -0.22372146603E+01 -0.18302805476E+02  0.67654630607E+02  0.70122450217E+02  0.10566000000E+00 0. -1.
        994    1    1    2    0    0  0.11720515614E+02  0.19503933151E+02  0.40887742655E+01  0.17275396369E+03  0.17120000000E+03 0.  0.
        998    1    1    2    0    0 -0.94833009533E+01 -0.12011276744E+01  0.14282565914E+04  0.14283235861E+04  0.10000000000E+02 0. -1.
</event>
<event>
 5    1  0.1279376E-008  0.3820955E+03  0.7957747E-01  0.3442085E+00
         13   -1    0    0    0    0  0.00000000000E+00  0.00000000000E+00  0.14999999963E+04  0.15000000000E+04  0.10566000000E+00 0.  1.
        994   -1    0    0    0    0 -0.00000000000E+00 -0.00000000000E+00  0.11368683772E-12  0.17120000000E+03  0.17120000000E+03 0.  0.
         13    1    1    2    0    0  0.90301405822E+01 -0.26219085477E+02  0.12076320875E+03  0.12390620499E+03  0.10566000000E+00 0.  1.
        994    1    1    2    0    0  0.43224648052E+01  0.23561981318E+02  0.49865576221E+01  0.17293974795E+03  0.17120000000E+03 0.  0.
        998    1    1    2    0    0 -0.13352605387E+02  0.26571041597E+01  0.13742502299E+04  0.13743540471E+04  0.10000000000E+02 0.  1.
</event>
<event>
 5    1  0.1279376E-008  0.3739413E+03  0.7957747E-01  0.3477971E+00
         13   -1    0    0    0    0  0.00000000000E+00  0.00000000000E+00  0.14999999963E+04  0.15000000000E+04  0.10566000000E+00 0. -1.
        994   -1    0    0    0    0 -0.00000000000E+00 -0.00000000000E+00  0.11368683772E-12  0.17120000000E+03  0.17120000000E+03 0.  0.
         13    1    1    2    0    0  0.49879932678E+01  0.12174751065E+02  0.76504981763E+01  0.15219918749E+02  0.10566000000E+00 0. -1.
        994    1    1    2    0    0 -0.68614517755E+02 -0.33885590108E+02  0.27471998966E+02  0.18952661024E+03  0.17120000000E+03 0.  0.
        998    1    1    2    0    0  0.63626524487E+02  0.21710839043E+02  0.14648774991E+04  0.14664534710E+04  0.10000000000E+02 0. -1.
</event>
<event>
 5    1  0.1279376E-008  0.3821769E+03  0.7957747E-01  0.3441734E+00
         13   -1    0    0    0    0  0.00000000000E+00  0.00000000000E+00  0.14999999963E+04  0.15000000000E+04  0.10566000000E+00 0.  1.
        994   -1    0    0    0    0 -0.00000000000E+00 -0.00000000000E+00  0.11368683772E-12  0.17120000000E+03  0.17120000000E+03 0.  0.
         13    1    1    2    0    0  0.12001876751E+02 -0.27320647114E+01  0.24631548237E+02  0.27536041032E+02  0.10566000000E+00 0.  1.
        994    1    1    2    0    0  0.46433389676E+01  0.88321357833E+01  0.33688322339E+01  0.17152363175E+03  0.17120000000E+03 0.  0.
        998    1    1    2    0    0 -0.16645215718E+02 -0.61000710719E+01  0.14719996158E+04  0.14721403272E+04  0.10000000000E+02 0.  1.
</event>
<event>
 5    1  0.1279376E-008  0.3767856E+03  0.7957747E-01  0.3465275E+00
         13   -1    0    0    0    0  0.00000000000E+00  0.00000000000E+00  0.14999999963E+04  0.15000000000E+04  0.10566000000E+00 0. -1.
        994   -1    0    0    0    0 -0.00000000000E+00 -0.00000000000E+00  0.11368683772E-12  0.17120000000E+03  0.17120000000E+03 0.  0.
         13    1    1    2    0    0  0.13047124845E+02  0.54150394318E+02  0.28964137996E+03  0.29494852572E+03  0.10566000000E+00 0. -1.
        994    1    1    2    0    0 -0.96670748946E+01 -0.19987764930E+02  0.74320717810E+01  0.17279363060E+03  0.17120000000E+03 0.  0.
        998    1    1    2    0    0 -0.33800499500E+01 -0.34162629388E+02  0.12029265445E+04  0.12034578437E+04  0.10000000000E+02 0. -1.
</event>
<event>
 5    1  0.1279376E-008  0.3783346E+03  0.7957747E-01  0.3458442E+00
         13   -1    0    0    0    0  0.00000000000E+00  0.00000000000E+00  0.14999999963E+04  0.15000000000E+04  0.10566000000E+00 0. -1.
        994   -1    0    0    0    0 -0.00000000000E+00 -0.00000000000E+00  0.11368683772E-12  0.17120000000E+03  0.17120000000E+03 0.  0.
         13    1    1    2    0    0  0.15265879008E+02 -0.10128488912E+03  0.60402863861E+03  0.61265184506E+03  0.10566000000E+00 0. -1.
        994    1    1    2    0    0 -0.14109617753E+02  0.10253024750E+03  0.41870617796E+02  0.20438718551E+03  0.17120000000E+03 0.  0.
        998    1    1    2    0    0 -0.11562612555E+01 -0.12453583826E+01  0.85410073987E+03  0.85416096943E+03  0.10000000000E+02 0. -1.
</event>
<event>
 5    1  0.1279376E-008  0.2616821E+03  0.7957747E-01  0.4214300E+00
         13   -1    0    0    0    0  0.00000000000E+00  0.00000000000E+00  0.14999999963E+04  0.15000000000E+04  0.10566000000E+00 0.  1.
        994   -1    0    0    0    0 -0.00000000000E+00 -0.00000000000E+00  0.11368683772E-12  0.17120000000E+03  0.17120000000E+03 0.  0.
         13    1    1    2    0    0 -0.15733741532E+03 -0.58861162695E+02  0.22988428659E+03  0.28472178547E+03  0.10566000000E+00 0.  1.
        994    1    1    2    0    0  0.21759384945E+03  0.10662940169E+03  0.33235813058E+03  0.44552023477E+03  0.17120000000E+03 0.  0.
        998    1    1    2    0    0 -0.60256434127E+02 -0.47768238994E+02  0.93775757911E+03  0.94095797977E+03  0.10000000000E+02 0.  1.
</event>
<event>
 5    1  0.1279376E-008  0.3830625E+03  0.7957747E-01  0.3437931E+00
         13   -1    0    0    0    0  0.00000000000E+00  0.00000000000E+00  0.14999999963E+04  0.15000000000E+04  0.10566000000E+00 0. -1.
        994   -1    0    0    0    0 -0.00000000000E+00 -0.00000000000E+00  0.11368683772E-12  0.17120000000E+03  0.17120000000E+03 0.  0.
         13    1    1    2    0    0  0.10912920408E+01  0.19853110441E+02  0.74087373334E+02  0.76709106135E+02  0.10566000000E+00 0. -1.
        994    1    1    2    0    0 -0.24903401244E+01 -0.15881337905E+02  0.34508053589E+01  0.17198769359E+03  0.17120000000E+03 0.  0.
        998    1    1    2    0    0  0.13990480836E+01 -0.39717725354E+01  0.14224618176E+04  0.14225032003E+04  0.10000000000E+02 0. -1.
</event>
<event>
 5    1  0.1279376E-008  0.3819389E+03  0.7957747E-01  0.3442759E+00
         13   -1    0    0    0    0  0.00000000000E+00  0.00000000000E+00  0.14999999963E+04  0.15000000000E+04  0.10566000000E+00 0. -1.
        994   -1    0    0    0    0 -0.00000000000E+00 -0.00000000000E+00  0.11368683772E-12  0.17120000000E+03  0.17120000000E+03 0.  0.
         13    1    1    2    0    0  0.10515621048E+03 -0.11449586655E+03  0.81400368646E+03  0.82871535813E+03  0.10566000000E+00 0. -1.
        994    1    1    2    0    0 -0.11983608861E+03  0.13844720681E+03  0.12394492165E+03  0.27964280933E+03  0.17120000000E+03 0.  0.
        998    1    1    2    0    0  0.14679878133E+02 -0.23951340263E+02  0.56205138816E+03  0.56284183254E+03  0.10000000000E+02 0.  1.
</event>
<event>
 5    1  0.1279376E-008  0.3761207E+03  0.7957747E-01  0.3468226E+00
         13   -1    0    0    0    0  0.00000000000E+00  0.00000000000E+00  0.14999999963E+04  0.15000000000E+04  0.10566000000E+00 0. -1.
        994   -1    0    0    0    0 -0.00000000000E+00 -0.00000000000E+00  0.11368683772E-12  0.17120000000E+03  0.17120000000E+03 0.  0.
         13    1    1    2    0    0  0.77728797062E+02  0.11337654326E+02  0.37127109137E+03  0.37948984538E+03  0.10566000000E+00 0. -1.
        994    1    1    2    0    0 -0.81095369204E+02 -0.16204697980E+01  0.28719513972E+02  0.19160724233E+03  0.17120000000E+03 0.  0.
        998    1    1    2    0    0  0.33665721414E+01 -0.97171845278E+01  0.11000093909E+04  0.11001029123E+04  0.10000000000E+02 0. -1.
</event>
<event>
 5    1  0.1279376E-008  0.4414023E+03  0.7957747E-01  0.3220826E+00
         13   -1    0    0    0    0  0.00000000000E+00  0.00000000000E+00  0.14999999963E+04  0.15000000000E+04  0.10566000000E+00 0.  1.
        994   -1    0    0    0    0 -0.00000000000E+00 -0.00000000000E+00  0.11368683772E-12  0.17120000000E+03  0.17120000000E+03 0.  0.
         13    1    1    2    0    0 -0.82894972517E+01 -0.61200694875E+02  0.16585999923E+02  0.63948005249E+02  0.10566000000E+00 0.  1.
        994    1    1    2    0    0  0.14726569131E+02  0.41235151344E+02  0.64448799783E+02  0.18809651070E+03  0.17120000000E+03 0.  0.
        998    1    1    2    0    0 -0.64370718790E+01  0.19965543530E+02  0.14189651966E+04  0.14191554840E+04  0.10000000000E+02 0.  1.
</event>
<event>
 5    1  0.1279376E-008  0.3837192E+03  0.7957747E-01  0.3435123E+00
         13   -1    0    0    0    0  0.00000000000E+00  0.00000000000E+00  0.14999999963E+04  0.15000000000E+04  0.10566000000E+00 0.  1.
        994   -1    0    0    0    0 -0.00000000000E+00 -0.00000000000E+00  0.11368683772E-12  0.17120000000E+03  0.17120000000E+03 0.  0.
         13    1    1    2    0    0  0.21663610480E+02  0.21905019619E+01  0.11661370754E+03  0.11862916281E+03  0.10566000000E+00 0.  1.
        994    1    1    2    0    0  0.99181908760E+00  0.76288427164E+01  0.24628454597E+01  0.17139045643E+03  0.17120000000E+03 0.  0.
        998    1    1    2    0    0 -0.22655429568E+02 -0.98193446783E+01  0.13809234433E+04  0.13811803808E+04  0.10000000000E+02 0.  1.
</event>
<event>
 5    1  0.1279376E-008  0.3810466E+03  0.7957747E-01  0.3446614E+00
         13   -1    0    0    0    0  0.00000000000E+00  0.00000000000E+00  0.14999999963E+04  0.15000000000E+04  0.10566000000E+00 0. -1.
        994   -1    0    0    0    0 -0.00000000000E+00 -0.00000000000E+00  0.11368683772E-12  0.17120000000E+03  0.17120000000E+03 0.  0.
         13    1    1    2    0    0 -0.12067392805E+02 -0.80564391066E+01  0.27966392098E+02  0.31506482368E+02  0.10566000000E+00 0. -1.
        994    1    1    2    0    0  0.15627623268E+01  0.11864030165E+02  0.40829379442E+01  0.17166626873E+03  0.17120000000E+03 0.  0.
        998    1    1    2    0    0  0.10504630478E+02 -0.38075910582E+01  0.14679506662E+04  0.14680272489E+04  0.10000000000E+02 0. -1.
</event>
<event>
 5    1  0.1279376E-008  0.3831186E+03  0.7957747E-01  0.3437691E+00
         13   -1    0    0    0    0  0.00000000000E+00  0.00000000000E+00  0.14999999963E+04  0.15000000000E+04  0.10566000000E+00 0. -1.
        994   -1    0    0    0    0 -0.00000000000E+00 -0.00000000000E+00  0.11368683772E-12  0.17120000000E+03  0.17120000000E+03 0.  0.
         13    1    1    2    0    0  0.10453111026E+02  0.82113183902E+01  0.37325773223E+02  0.39622188109E+02  0.10566000000E+00 0. -1.
        994    1    1    2    0    0  0.12815284254E+02  0.11346394857E+02  0.35371045231E+01  0.17208986982E+03  0.17120000000E+03 0.  0.
        998    1    1    2    0    0 -0.23268395280E+02 -0.19557713248E+02  0.14591371185E+04  0.14594879421E+04  0.10000000000E+02 0. -1.
</event>
<event>
 5    1  0.1279376E-008  0.3773932E+03  0.7957747E-01  0.3462588E+00
         13   -1    0    0    0    0  0.00000000000E+00  0.00000000000E+00  0.14999999963E+04  0.15000000000E+04  0.10566000000E+00 0. -1.
        994   -1    0    0    0    0 -0.00000000000E+00 -0.00000000000E+00  0.11368683772E-12  0.17120000000E+03  0.17120000000E+03 0.  0.
         13    1    1    2    0    0 -0.30993381487E+02  0.46897155334E+00  0.93826016244E+02  0.98813673743E+02  0.10566000000E+00 0. -1.
        994    1    1    2    0    0 -0.97262897787E-01 -0.25659524083E+02  0.76782172900E+01  0.17328247360E+03  0.17120000000E+03 0.  0.
        998    1    1    2    0    0  0.31090644385E+02  0.25190552530E+02  0.13984957627E+04  0.13991038527E+04  0.10000000000E+02 0. -1.
</event>
<event>
 5    1  0.1279376E-008  0.3852337E+03  0.7957747E-01  0.3428682E+00
         13   -1    0    0    0    0  0.00000000000E+00  0.00000000000E+00  0.14999999963E+04  0.15000000000E+04  0.10566000000E+00 0. -1.
        994   -1    0    0    0    0 -0.00000000000E+00 -0.00000000000E+00  0.11368683772E-12  0.17120000000E+03  0.17120000000E+03 0.  0.
         13    1    1    2    0    0 -0.67924321072E+01  0.15001167790E+02  0.93194716375E+02  0.94638462018E+02  0.10566000000E+00 0. -1.
        994    1    1    2    0    0 -0.25584876886E+01 -0.76788022921E+01  0.17294643045E+01  0.17139994431E+03  0.17120000000E+03 0.  0.
        998    1    1    2    0    0  0.93509197958E+01 -0.73223654982E+01  0.14050758156E+04  0.14051615937E+04  0.10000000000E+02 0. -1.
</event>
<event>
 5    1  0.1279376E-008  0.3829587E+03  0.7957747E-01  0.3438376E+00
         13   -1    0    0    0    0  0.00000000000E+00  0.00000000000E+00  0.14999999963E+04  0.15000000000E+04  0.10566000000E+00 0.  1.
        994   -1    0    0    0    0 -0.00000000000E+00 -0.00000000000E+00  0.11368683772E-12  0.17120000000E+03  0.17120000000E+03 0.  0.
         13    1    1    2    0    0  0.15893311453E+02 -0.16890196725E+02  0.99555804144E+02  0.10222155055E+03  0.10566000000E+00 0.  1.
        994    1    1    2    0    0 -0.38093309492E+02 -0.11296472361E+02  0.78910917160E+01  0.17592731409E+03  0.17120000000E+03 0.  0.
        998    1    1    2    0    0  0.22199998039E+02  0.28186669086E+02  0.13925531004E+04  0.13930511354E+04  0.10000000000E+02 0.  1.
</event>
<event>
 5    1  0.1279376E-008  0.3793466E+03  0.7957747E-01  0.3454009E+00
         13   -1    0    0    0    0  0.00000000000E+00  0.00000000000E+00  0.14999999963E+04  0.15000000000E+04  0.10566000000E+00 0.  1.
        994   -1    0    0    0    0 -0.00000000000E+00 -0.00000000000E+00  0.11368683772E-12  0.17120000000E+03  0.17120000000E+03 0.  0.
         13    1    1    2    0    0  0.20096538272E+02  0.19660977261E+02  0.89032294368E+02  0.93365868934E+02  0.10566000000E+00 0.  1.
        994    1    1    2    0    0 -0.13894154089E+01 -0.16340480087E+02  0.53648641831E+01  0.17206732267E+03  0.17120000000E+03 0.  0.
        998    1    1    2    0    0 -0.18707122863E+02 -0.33204971743E+01  0.14056028377E+04  0.14057668084E+04  0.10000000000E+02 0.  1.
</event>
<event>
 5    1  0.1279376E-008  0.3854103E+03  0.7957747E-01  0.3427934E+00
         13   -1    0    0    0    0  0.00000000000E+00  0.00000000000E+00  0.14999999963E+04  0.15000000000E+04  0.10566000000E+00 0. -1.
        994   -1    0    0    0    0 -0.00000000000E+00 -0.00000000000E+00  0.11368683772E-12  0.17120000000E+03  0.17120000000E+03 0.  0.
         13    1    1    2    0    0 -0.12139335867E+02 -0.61482182853E+01  0.66433538651E+02  0.67812906479E+02  0.10566000000E+00 0. -1.
        994    1    1    2    0    0  0.15729564665E+02 -0.15976408012E+02  0.30791786596E+01  0.17268927633E+03  0.17120000000E+03 0.  0.
        998    1    1    2    0    0 -0.35902287980E+01  0.22124626298E+02  0.14304872790E+04  0.14306978172E+04  0.10000000000E+02 0. -1.
</event>
<event>
 5    1  0.1279376E-008  0.3823424E+03  0.7957747E-01  0.3441022E+00
         13   -1    0    0    0    0  0.00000000000E+00  0.00000000000E+00  0.14999999963E+04  0.15000000000E+04  0.10566000000E+00 0. -1.
        994   -1    0    0    0    0 -0.00000000000E+00 -0.00000000000E+00  0.11368683772E-12  0.17120000000E+03  0.17120000000E+03 0.  0.
         13    1    1    2    0    0 -0.10360835937E+02  0.36478421992E+01  0.19071270421E+02  0.22008593629E+02  0.10566000000E+00 0. -1.
        994    1    1    2    0    0  0.11329005918E+02 -0.10110945057E+01  0.33846221062E+01  0.17161079323E+03  0.17120000000E+03 0.  0.
        998    1    1    2    0    0 -0.96816998091E+00 -0.26367476934E+01  0.14775441038E+04  0.14775806131E+04  0.10000000000E+02 0. -1.
</event>
<event>
 5    1  0.1279376E-008  0.3800321E+03  0.7957747E-01  0.3451019E+00
         13   -1    0    0    0    0  0.00000000000E+00  0.00000000000E+00  0.14999999963E+04  0.15000000000E+04  0.10566000000E+00 0.  1.
        994   -1    0    0    0    0 -0.00000000000E+00 -0.00000000000E+00  0.11368683772E-12  0.17120000000E+03  0.17120000000E+03 0.  0.
         13    1    1    2    0    0 -0.65195909503E+02 -0.11589580661E+03  0.32901676862E+03  0.35487235706E+03  0.10566000000E+00 0.  1.
        994    1    1    2    0    0  0.68248827793E+02  0.15000795832E+03  0.12270775530E+03  0.26744517805E+03  0.17120000000E+03 0.  0.
        998    1    1    2    0    0 -0.30529182898E+01 -0.34112151707E+02  0.10482754724E+04  0.10488824649E+04  0.10000000000E+02 0.  1.
</event>
<event>
 5    1  0.1279376E-008  0.3788280E+03  0.7957747E-01  0.3456278E+00
         13   -1    0    0    0    0  0.00000000000E+00  0.00000000000E+00  0.14999999963E+04  0.15000000000E+04  0.10566000000E+00 0.  1.
        994   -1    0    0    0    0 -0.00000000000E+00 -0.00000000000E+00  0.11368683772E-12  0.17120000000E+03  0.17120000000E+03 0.  0.
         13    1    1    2    0    0  0.24177682210E+02 -0.93298536164E+01  0.66453913590E+02  0.71328397437E+02  0.10566000000E+00 0.  1.
        994    1    1    2    0    0 -0.24323081524E+00  0.78990297862E+02  0.25958796815E+02  0.19032295040E+03  0.17120000000E+03 0.  0.
        998    1    1    2    0    0 -0.23934451394E+02 -0.69660444246E+02  0.14075872859E+04  0.14095486522E+04  0.10000000000E+02 0.  1.
</event>
<event>
 5    1  0.1279376E-008  0.3834580E+03  0.7957747E-01  0.3436239E+00
         13   -1    0    0    0    0  0.00000000000E+00  0.00000000000E+00  0.14999999963E+04  0.15000000000E+04  0.10566000000E+00 0. -1.
        994   -1    0    0    0    0 -0.00000000000E+00 -0.00000000000E+00  0.11368683772E-12  0.17120000000E+03  0.17120000000E+03 0.  0.
         13    1    1    2    0    0  0.11360015148E+02 -0.59603399637E+01  0.33076711191E+02  0.35477536328E+02  0.10566000000E+00 0. -1.
        994    1    1    2    0    0 -0.10603673158E+02  0.69932811614E+01  0.29311231646E+01  0.17169558919E+03  0.17120000000E+03 0.  0.
        998    1    1    2    0    0 -0.75634198990E+00 -0.10329411978E+01  0.14639921619E+04  0.14640268745E+04  0.10000000000E+02 0. -1.
</event>
<event>
 5    1  0.1279376E-008  0.3823121E+03  0.7957747E-01  0.3441152E+00
         13   -1    0    0    0    0  0.00000000000E+00  0.00000000000E+00  0.14999999963E+04  0.15000000000E+04  0.10566000000E+00 0. -1.
        994   -1    0    0    0    0 -0.00000000000E+00 -0.00000000000E+00  0.11368683772E-12  0.17120000000E+03  0.17120000000E+03 0.  0.
         13    1    1    2    0    0  0.17219272920E+02  0.17340070966E+02  0.12819320789E+03  0.13050169016E+03  0.10566000000E+00 0. -1.
        994    1    1    2    0    0  0.44762481676E+01  0.24390102634E+02  0.50132288456E+01  0.17305919903E+03  0.17120000000E+03 0.  0.
        998    1    1    2    0    0 -0.21695521088E+02 -0.41730173600E+02  0.13667935595E+04  0.13676391108E+04  0.10000000000E+02 0. -1.
</event>
<event>
 5    1  0.1279376E-008  0.3863470E+03  0.7957747E-01  0.3423980E+00
         13   -1    0    0    0    0  0.00000000000E+00  0.00000000000E+00  0.14999999963E+04  0.15000000000E+04  0.10566000000E+00 0. -1.
        994   -1    0    0    0    0 -0.00000000000E+00 -0.00000000000E+00  0.11368683772E-12  0.17120000000E+03  0.17120000000E+03 0.  0.
         13    1    1    2    0    0 -0.68987090602E+01  0.81338034066E+01  0.62614573898E+02  0.63516509453E+02  0.10566000000E+00 0. -1.
        994    1    1    2    0    0  0.73965539013E+01  0.32674567526E+01  0.11769804612E+01  0.17139489656E+03  0.17120000000E+03 0.  0.
        998    1    1    2    0    0 -0.49784484102E+00 -0.11401260159E+02  0.14362084419E+04  0.14362885940E+04  0.10000000000E+02 0. -1.
</event>
<event>
 5    1  0.1279376E-008  0.3836839E+03  0.7957747E-01  0.3435273E+00
         13   -1    0    0    0    0  0.00000000000E+00  0.00000000000E+00  0.14999999963E+04  0.15000000000E+04  0.10566000000E+00 0. -1.
        994   -1    0    0    0    0 -0.00000000000E+00 -0.00000000000E+00  0.11368683772E-12  0.17120000000E+03  0.17120000000E+03 0.  0.
         13    1    1    2    0    0 -0.13717967803E+02  0.11741384606E+02  0.73265420223E+02  0.75457774401E+02  0.10566000000E+00 0. -1.
        994    1    1    2    0    0  0.77437983337E+01  0.19958876940E+00  0.24831914858E+01  0.17139315181E+03  0.17120000000E+03 0.  0.
        998    1    1    2    0    0  0.59741694695E+01 -0.11940973375E+02  0.14242513846E+04  0.14243490738E+04  0.10000000000E+02 0. -1.
</event>
<event>
 5    1  0.1279376E-008  0.3859289E+03  0.7957747E-01  0.3425742E+00
         13   -1    0    0    0    0  0.00000000000E+00  0.00000000000E+00  0.14999999963E+04  0.15000000000E+04  0.10566000000E+00 0. -1.
        994   -1    0    0    0    0 -0.00000000000E+00 -0.00000000000E+00  0.11368683772E-12  0.17120000000E+03  0.17120000000E+03 0.  0.
         13    1    1    2    0    0 -0.87772548043E+01  0.66232005385E+01  0.49859368348E+02  0.51057563234E+02  0.10566000000E+00 0. -1.
        994    1    1    2    0    0  0.14373068164E+02 -0.52134170254E+01  0.19364898911E+01  0.17189227673E+03  0.17120000000E+03 0.  0.
        998    1    1    2    0    0 -0.55958133599E+01 -0.14097835131E+01  0.14482041380E+04  0.14482501600E+04  0.10000000000E+02 0. -1.
</event>
<event>
 5    1  0.1279376E-008  0.3858430E+03  0.7957747E-01  0.3426105E+00
         13   -1    0    0    0    0  0.00000000000E+00  0.00000000000E+00  0.14999999963E+04  0.15000000000E+04  0.10566000000E+00 0.  1.
        994   -1    0    0    0    0 -0.00000000000E+00 -0.00000000000E+00  0.11368683772E-12  0.17120000000E+03  0.17120000000E+03 0.  0.
         13    1    1    2    0    0 -0.12347782220E+02  0.51826487549E+01  0.73306541448E+02  0.74519713882E+02  0.10566000000E+00 0.  1.
        994    1    1    2    0    0  0.87034013734E+01 -0.82483461904E+01  0.16838915236E+01  0.17162767813E+03  0.17120000000E+03 0.  0.
        998    1    1    2    0    0  0.36443808465E+01  0.30656974355E+01  0.14250095633E+04  0.14250526080E+04  0.10000000000E+02 0.  1.
</event>
<event>
 5    1  0.1279376E-008  0.3801034E+03  0.7957747E-01  0.3450708E+00
         13   -1    0    0    0    0  0.00000000000E+00  0.00000000000E+00  0.14999999963E+04  0.15000000000E+04  0.10566000000E+00 0.  1.
        994   -1    0    0    0    0 -0.00000000000E+00 -0.00000000000E+00  0.11368683772E-12  0.17120000000E+03  0.17120000000E+03 0.  0.
         13    1    1    2    0    0  0.44929198098E+02 -0.59296306119E+02  0.42805282396E+03  0.43446969517E+03  0.10566000000E+00 0.  1.
        994    1    1    2    0    0 -0.49488156817E+02  0.68479446600E+02  0.28317254689E+02  0.19300212223E+03  0.17120000000E+03 0.  0.
        998    1    1    2    0    0  0.45589587191E+01 -0.91831404800E+01  0.10436299176E+04  0.10437281826E+04  0.10000000000E+02 0.  1.
</event>
<event>
 5    1  0.1279376E-008  0.3822546E+03  0.7957747E-01  0.3441400E+00
         13   -1    0    0    0    0  0.00000000000E+00  0.00000000000E+00  0.14999999963E+04  0.15000000000E+04  0.10566000000E+00 0.  1.
        994   -1    0    0    0    0 -0.00000000000E+00 -0.00000000000E+00  0.11368683772E-12  0.17120000000E+03  0.17120000000E+03 0.  0.
         13    1    1    2    0    0 -0.53160142457E+00 -0.30543713822E+02  0.13523726852E+03  0.13864462130E+03  0.10566000000E+00 0.  1.
        994    1    1    2    0    0  0.64074185280E+01  0.37899767562E+02  0.79173207536E+01  0.17564046049E+03  0.17120000000E+03 0.  0.
        998    1    1    2    0    0 -0.58758171034E+01 -0.73560537409E+01  0.13568454070E+04  0.13569149182E+04  0.10000000000E+02 0.  1.
</event>
<event>
 5    1  0.1279376E-008  0.3823793E+03  0.7957747E-01  0.3440864E+00
         13   -1    0    0    0    0  0.00000000000E+00  0.00000000000E+00  0.14999999963E+04  0.15000000000E+04  0.10566000000E+00 0. -1.
        994   -1    0    0    0    0 -0.00000000000E+00 -0.00000000000E+00  0.11368683772E-12  0.17120000000E+03  0.17120000000E+03 0.  0.
         13    1    1    2    0    0 -0.83146130204E+01 -0.12279546609E+02  0.35718305904E+02  0.38674650552E+02  0.10566000000E+00 0. -1.
        994    1    1    2    0    0  0.66507873908E+01  0.13898492851E+02  0.37247154495E+01  0.17193229651E+03  0.17120000000E+03 0.  0.
        998    1    1    2    0    0  0.16638256297E+01 -0.16189462423E+01  0.14605569749E+04  0.14605930529E+04  0.10000000000E+02 0. -1.
</event>
<event>
 5    1  0.1279376E-008  0.3504282E+03  0.7957747E-01  0.3590977E+00
         13   -1    0    0    0    0  0.00000000000E+00  0.00000000000E+00  0.14999999963E+04  0.15000000000E+04  0.10566000000E+00 0.  1.
        994   -1    0    0    0    0 -0.00000000000E+00 -0.00000000000E+00  0.11368683772E-12  0.17120000000E+03  0.17120000000E+03 0.  0.
         13    1    1    2    0    0 -0.97286234321E+02  0.19737755697E+03  0.10817885667E+04  0.11039424919E+04  0.10566000000E+00 0.  1.
        994    1    1    2    0    0  0.15766797605E+03 -0.15567929715E+03  0.22136753023E+03  0.35694293336E+03  0.17120000000E+03 0.  0.
        998    1    1    2    0    0 -0.60381741733E+02 -0.41698259812E+02  0.19684389939E+03  0.21031457471E+03  0.10000000000E+02 0.  1.
</event>
<event>
 5    1  0.1279376E-008  0.3843192E+03  0.7957747E-01  0.3432565E+00
         13   -1    0    0    0    0  0.00000000000E+00  0.00000000000E+00  0.14999999963E+04  0.15000000000E+04  0.10566000000E+00 0. -1.
        994   -1    0    0    0    0 -0.00000000000E+00 -0.00000000000E+00  0.11368683772E-12  0.17120000000E+03  0.17120000000E+03 0.  0.
         13    1    1    2    0    0 -0.27769051429E+01 -0.13703122452E+02  0.49084595173E+02  0.51037196381E+02  0.10566000000E+00 0. -1.
        994    1    1    2    0    0  0.84332123316E+01  0.87025998716E+01  0.24526768229E+01  0.17164588529E+03  0.17120000000E+03 0.  0.
        998    1    1    2    0    0 -0.56563071887E+01  0.50005225803E+01  0.14484627243E+04  0.14485169183E+04  0.10000000000E+02 0. -1.
</event>
<event>
 5    1  0.1279376E-008  0.1981091E+03  0.7957747E-01  0.5075201E+00
         13   -1    0    0    0    0  0.00000000000E+00  0.00000000000E+00  0.14999999963E+04  0.15000000000E+04  0.10566000000E+00 0.  1.
        994   -1    0    0    0    0 -0.00000000000E+00 -0.00000000000E+00  0.11368683772E-12  0.17120000000E+03  0.17120000000E+03 0.  0.
         13    1    1    2    0    0 -0.79870491313E+02 -0.82329795481E+02  0.78832606316E+02  0.13918362543E+03  0.10566000000E+00 0.  1.
        994    1    1    2    0    0  0.79283330467E+02  0.76610982716E+02  0.13172000543E+03  0.24251739936E+03  0.17120000000E+03 0.  0.
        998    1    1    2    0    0  0.58716084575E+00  0.57188127651E+01  0.12894473845E+04  0.12894989752E+04  0.10000000000E+02 0.  0.
</event>
<event>
 5    1  0.1279376E-008  0.3755560E+03  0.7957747E-01  0.3470740E+00
         13   -1    0    0    0    0  0.00000000000E+00  0.00000000000E+00  0.14999999963E+04  0.15000000000E+04  0.10566000000E+00 0. -1.
        994   -1    0    0    0    0 -0.00000000000E+00 -0.00000000000E+00  0.11368683772E-12  0.17120000000E+03  0.17120000000E+03 0.  0.
         13    1    1    2    0    0 -0.18633247149E+02  0.89359348200E+02  0.52079784008E+03  0.52873688390E+03  0.10566000000E+00 0. -1.
        994    1    1    2    0    0  0.26525583462E+02 -0.69627297436E+02  0.25468205959E+02  0.18844000807E+03  0.17120000000E+03 0.  0.
        998    1    1    2    0    0 -0.78923363129E+01 -0.19732050764E+02  0.95373395024E+03  0.95402310803E+03  0.10000000000E+02 0. -1.
</event>
<event>
 5    1  0.1279376E-008  0.3809442E+03  0.7957747E-01  0.3447058E+00
         13   -1    0    0    0    0  0.00000000000E+00  0.00000000000E+00  0.14999999963E+04  0.15000000000E+04  0.10566000000E+00 0.  1.
        994   -1    0    0    0    0 -0.00000000000E+00 -0.00000000000E+00  0.11368683772E-12  0.17120000000E+03  0.17120000000E+03 0.  0.
         13    1    1    2    0    0 -0.14021233253E+02  0.18932408855E+01  0.26045345109E+02  0.29640352712E+02  0.10566000000E+00 0.  1.
        994    1    1    2    0    0  0.11704452113E+02  0.26261334423E+02  0.64170037997E+01  0.17371606092E+03  0.17120000000E+03 0.  0.
        998    1    1    2    0    0  0.23167811396E+01 -0.28154575308E+02  0.14675376474E+04  0.14678435864E+04  0.10000000000E+02 0.  1.
</event>
<event>
 5    1  0.1279376E-008  0.3855033E+03  0.7957747E-01  0.3427540E+00
         13   -1    0    0    0    0  0.00000000000E+00  0.00000000000E+00  0.14999999963E+04  0.15000000000E+04  0.10566000000E+00 0. -1.
        994   -1    0    0    0    0 -0.00000000000E+00 -0.00000000000E+00  0.11368683772E-12  0.17120000000E+03  0.17120000000E+03 0.  0.
         13    1    1    2    0    0  0.80981238845E+01  0.67121336761E+01  0.40524442981E+02  0.41867338008E+02  0.10566000000E+00 0. -1.
        994    1    1    2    0    0 -0.52752780204E+01 -0.24216320286E+01  0.14910936271E+01  0.17130486339E+03  0.17120000000E+03 0.  0.
        998    1    1    2    0    0 -0.28228458641E+01 -0.42905016475E+01  0.14579844597E+04  0.14580277986E+04  0.10000000000E+02 0. -1.
</event>
<event>
 5    1  0.1279376E-008  0.3775794E+03  0.7957747E-01  0.3461767E+00
         13   -1    0    0    0    0  0.00000000000E+00  0.00000000000E+00  0.14999999963E+04  0.15000000000E+04  0.10566000000E+00 0. -1.
        994   -1    0    0    0    0 -0.00000000000E+00 -0.00000000000E+00  0.11368683772E-12  0.17120000000E+03  0.17120000000E+03 0.  0.
         13    1    1    2    0    0 -0.12343085828E+03  0.43210278277E+02  0.73115518900E+03  0.74275852502E+03  0.10566000000E+00 0. -1.
        994    1    1    2    0    0  0.12865091137E+03 -0.36814060039E+02  0.68295160088E+02  0.22777181762E+03  0.17120000000E+03 0.  0.
        998    1    1    2    0    0 -0.52200530854E+01 -0.63962182385E+01  0.70054964719E+03  0.70066965735E+03  0.10000000000E+02 0. -1.
</event>
<event>
 5    1  0.1279376E-008  0.3844103E+03  0.7957747E-01  0.3432177E+00
         13   -1    0    0    0    0  0.00000000000E+00  0.00000000000E+00  0.14999999963E+04  0.15000000000E+04  0.10566000000E+00 0.  1.
        994   -1    0    0    0    0 -0.00000000000E+00 -0.00000000000E+00  0.11368683772E-12  0.17120000000E+03  0.17120000000E+03 0.  0.
         13    1    1    2    0    0 -0.14485417213E+02  0.71250530078E+01  0.59338544698E+02  0.61495266022E+02  0.10566000000E+00 0.  1.
        994    1    1    2    0    0  0.33109753028E+02 -0.96095576203E+01  0.58493954865E+01  0.17473481270E+03  0.17120000000E+03 0.  0.
        998    1    1    2    0    0 -0.18624335815E+02  0.24845046125E+01  0.14348120561E+04  0.14349699213E+04  0.10000000000E+02 0.  1.
</event>
<event>
 5    1  0.1279376E-008  0.3780648E+03  0.7957747E-01  0.3459628E+00
         13   -1    0    0    0    0  0.00000000000E+00  0.00000000000E+00  0.14999999963E+04  0.15000000000E+04  0.10566000000E+00 0. -1.
        994   -1    0    0    0    0 -0.00000000000E+00 -0.00000000000E+00  0.11368683772E-12  0.17120000000E+03  0.17120000000E+03 0.  0.
         13    1    1    2    0    0 -0.51257316883E+01 -0.21751147361E+02  0.46288332967E+02  0.51400452039E+02  0.10566000000E+00 0. -1.
        994    1    1    2    0    0  0.13082125812E+02  0.15714952514E+02  0.65211689965E+01  0.17254004577E+03  0.17120000000E+03 0.  0.
        998    1    1    2    0    0 -0.79563941236E+01  0.60361948471E+01  0.14471904943E+04  0.14472595022E+04  0.10000000000E+02 0. -1.
</event>
<event>
 5    1  0.1279376E-008  0.3757004E+03  0.7957747E-01  0.3470096E+00
         13   -1    0    0    0    0  0.00000000000E+00  0.00000000000E+00  0.14999999963E+04  0.15000000000E+04  0.10566000000E+00 0. -1.
        994   -1    0    0    0    0 -0.00000000000E+00 -0.00000000000E+00  0.11368683772E-12  0.17120000000E+03  0.17120000000E+03 0.  0.
         13    1    1    2    0    0  0.15319584282E+03  0.71539197073E+00  0.70895835408E+03  0.72532160937E+03  0.10566000000E+00 0. -1.
        994    1    1    2    0    0 -0.16711475949E+03 -0.97693656584E+01  0.10818625712E+03  0.26274795827E+03  0.17120000000E+03 0.  0.
        998    1    1    2    0    0  0.13918916666E+02  0.90539736877E+01  0.68285538508E+03  0.68313043236E+03  0.10000000000E+02 0. -1.
</event>
<event>
 5    1  0.1279376E-008  0.3858245E+03  0.7957747E-01  0.3426183E+00
         13   -1    0    0    0    0  0.00000000000E+00  0.00000000000E+00  0.14999999963E+04  0.15000000000E+04  0.10566000000E+00 0. -1.
        994   -1    0    0    0    0 -0.00000000000E+00 -0.00000000000E+00  0.11368683772E-12  0.17120000000E+03  0.17120000000E+03 0.  0.
         13    1    1    2    0    0 -0.79296806099E+01  0.61759537814E+01  0.42157948038E+02  0.43339658356E+02  0.10566000000E+00 0. -1.
        994    1    1    2    0    0  0.28994473520E+01 -0.42793598268E+01  0.13089755037E+01  0.17128302056E+03  0.17120000000E+03 0.  0.
        998    1    1    2    0    0  0.50302332579E+01 -0.18965939546E+01  0.14565330727E+04  0.14565773211E+04  0.10000000000E+02 0. -1.
</event>
<event>
 5    1  0.1279376E-008  0.3823603E+03  0.7957747E-01  0.3440945E+00
         13   -1    0    0    0    0  0.00000000000E+00  0.00000000000E+00  0.14999999963E+04  0.15000000000E+04  0.10566000000E+00 0.  1.
        994   -1    0    0    0    0 -0.00000000000E+00 -0.00000000000E+00  0.11368683772E-12  0.17120000000E+03  0.17120000000E+03 0.  0.
         13    1    1    2    0    0 -0.16795769457E+02 -0.15695092221E+02  0.86387836990E+02  0.89394090047E+02  0.10566000000E+00 0.  1.
        994    1    1    2    0    0  0.13691402454E+02  0.13507992053E+02  0.41743937151E+01  0.17232755413E+03  0.17120000000E+03 0.  0.
        998    1    1    2    0    0  0.31043670033E+01  0.21871001681E+01  0.14094377656E+04  0.14094783558E+04  0.10000000000E+02 0.  1.
</event>
<event>
 5    1  0.1279376E-008  0.3726353E+03  0.7957747E-01  0.3483866E+00
         13   -1    0    0    0    0  0.00000000000E+00  0.00000000000E+00  0.14999999963E+04  0.15000000000E+04  0.10566000000E+00 0. -1.
        994   -1    0    0    0    0 -0.00000000000E+00 -0.00000000000E+00  0.11368683772E-12  0.17120000000E+03  0.17120000000E+03 0.  0.
         13    1    1    2    0    0  0.28391528811E+02  0.77118590302E+02  0.36530983378E+03  0.37443910279E+03  0.10566000000E+00 0. -1.
        994    1    1    2    0    0 -0.27784464165E+02  0.50292066444E+01  0.15157439458E+02  0.17417364134E+03  0.17120000000E+03 0.  0.
        998    1    1    2    0    0 -0.60706464604E+00 -0.82147796947E+02  0.11195327230E+04  0.11225872559E+04  0.10000000000E+02 0.  1.
</event>
<event>
 5    1  0.1279376E-008  0.3815755E+03  0.7957747E-01  0.3444327E+00
         13   -1    0    0    0    0  0.00000000000E+00  0.00000000000E+00  0.14999999963E+04  0.15000000000E+04  0.10566000000E+00 0.  1.
        994   -1    0    0    0    0 -0.00000000000E+00 -0.00000000000E+00  0.11368683772E-12  0.17120000000E+03  0.17120000000E+03 0.  0.
         13    1    1    2    0    0  0.17628247346E+02  0.15841828789E+02  0.78127283134E+02  0.81643139197E+02  0.10566000000E+00 0.  1.
        994    1    1    2    0    0 -0.22924186343E+02 -0.14802196751E+02  0.58201961211E+01  0.17345875023E+03  0.17120000000E+03 0.  0.
        998    1    1    2    0    0  0.52959389971E+01 -0.10396320374E+01  0.14160525170E+04  0.14160981106E+04  0.10000000000E+02 0.  1.
</event>
<event>
 5    1  0.1279376E-008  0.3806211E+03  0.7957747E-01  0.3448458E+00
         13   -1    0    0    0    0  0.00000000000E+00  0.00000000000E+00  0.14999999963E+04  0.15000000000E+04  0.10566000000E+00 0. -1.
        994   -1    0    0    0    0 -0.00000000000E+00 -0.00000000000E+00  0.11368683772E-12  0.17120000000E+03  0.17120000000E+03 0.  0.
         13    1    1    2    0    0  0.17817579704E+02  0.83199248953E+01  0.50512807209E+02  0.54205554632E+02  0.10566000000E+00 0. -1.
        994    1    1    2    0    0 -0.45305534171E+01 -0.48803350341E+01  0.39678884361E+01  0.17137539999E+03  0.17120000000E+03 0.  0.
        998    1    1    2    0    0 -0.13287026287E+02 -0.34395898612E+01  0.14455193006E+04  0.14456190454E+04  0.10000000000E+02 0. -1.
</event>
<event>
 5    1  0.1279376E-008  0.3861768E+03  0.7957747E-01  0.3424696E+00
         13   -1    0    0    0    0  0.00000000000E+00  0.00000000000E+00  0.14999999963E+04  0.15000000000E+04  0.10566000000E+00 0.  1.
        994   -1    0    0    0    0 -0.00000000000E+00 -0.00000000000E+00  0.11368683772E-12  0.17120000000E+03  0.17120000000E+03 0.  0.
         13    1    1    2    0    0  0.11020306846E+02 -0.44460162778E+01  0.69072780920E+02  0.70087619818E+02  0.10566000000E+00 0.  1.
        994    1    1    2    0    0 -0.90861044877E+01 -0.42463879413E+01  0.13765953875E+01  0.17149904991E+03  0.17120000000E+03 0.  0.
        998    1    1    2    0    0 -0.19342023583E+01  0.86924042191E+01  0.14295506200E+04  0.14296133303E+04  0.10000000000E+02 0.  1.
</event>
<event>
 5    1  0.1279376E-008  0.3853243E+03  0.7957747E-01  0.3428298E+00
         13   -1    0    0    0    0  0.00000000000E+00  0.00000000000E+00  0.14999999963E+04  0.15000000000E+04  0.10566000000E+00 0.  1.
        994   -1    0    0    0    0 -0.00000000000E+00 -0.00000000000E+00  0.11368683772E-12  0.17120000000E+03  0.17120000000E+03 0.  0.
         13    1    1    2    0    0 -0.50416466831E+01  0.10993146827E+02  0.48822778488E+02  0.50298532203E+02  0.10566000000E+00 0.  1.
        994    1    1    2    0    0  0.65083681311E+01 -0.10067670009E+02  0.19414901570E+01  0.17163020194E+03  0.17120000000E+03 0.  0.
        998    1    1    2    0    0 -0.14667214480E+01 -0.92547681834E+00  0.14492357276E+04  0.14492712659E+04  0.10000000000E+02 0.  1.
</event>
<event>
 5    1  0.1279376E-008  0.3833895E+03  0.7957747E-01  0.3436531E+00
         13   -1    0    0    0    0  0.00000000000E+00  0.00000000000E+00  0.14999999963E+04  0.15000000000E+04  0.10566000000E+00 0. -1.
        994   -1    0    0    0    0 -0.00000000000E+00 -0.00000000000E+00  0.11368683772E-12  0.17120000000E+03  0.17120000000E+03 0.  0.
         13    1    1    2    0    0 -0.10618095429E+02 -0.37255473969E+01  0.26036855331E+02  0.28364637377E+02  0.10566000000E+00 0. -1.
        994    1    1    2    0    0 -0.29334885076E+01  0.45053666664E+01  0.25274055462E+01  0.17130303985E+03  0.17120000000E+03 0.  0.
        998    1    1    2    0    0  0.13551583937E+02 -0.77981926943E+00  0.14714357354E+04  0.14715323228E+04  0.10000000000E+02 0. -1.
</event>
<event>
 5    1  0.1554805E-008  0.3858567E+03  0.7957747E-01  0.3426047E+00
         13   -1    0    0    0    0  0.00000000000E+00  0.00000000000E+00  0.14999999963E+04  0.15000000000E+04  0.10566000000E+00 0. -1.
        994   -1    0    0    0    0 -0.00000000000E+00 -0.00000000000E+00  0.11368683772E-12  0.17120000000E+03  0.17120000000E+03 0.  0.
         13    1    1    2    0    0 -0.11506980385E+02  0.24764790311E+01  0.58663629869E+02  0.59832902148E+02  0.10566000000E+00 0. -1.
        994    1    1    2    0    0  0.59197184634E+01 -0.23730044478E+01  0.13388147762E+01  0.17132398151E+03  0.17120000000E+03 0.  0.
        998    1    1    2    0    0  0.55872619221E+01 -0.10347458332E+00  0.14399975516E+04  0.14400431163E+04  0.10000000000E+02 0. -1.
</event>
<event>
 5    1  0.1279376E-008  0.3768206E+03  0.7957747E-01  0.3465120E+00
         13   -1    0    0    0    0  0.00000000000E+00  0.00000000000E+00  0.14999999963E+04  0.15000000000E+04  0.10566000000E+00 0. -1.
        994   -1    0    0    0    0 -0.00000000000E+00 -0.00000000000E+00  0.11368683772E-12  0.17120000000E+03  0.17120000000E+03 0.  0.
         13    1    1    2    0    0  0.42630589695E+02 -0.10798957460E+03  0.64204513092E+03  0.65245772024E+03  0.10566000000E+00 0. -1.
        994    1    1    2    0    0 -0.47325724006E+02  0.10635171197E+03  0.52990387567E+02  0.21370033216E+03  0.17120000000E+03 0.  0.
        998    1    1    2    0    0  0.46951343107E+01  0.16378626256E+01  0.80496447779E+03  0.80504194759E+03  0.10000000000E+02 0.  0.
</event>
<event>
 5    1  0.1279376E-008  0.3726577E+03  0.7957747E-01  0.3483765E+00
         13   -1    0    0    0    0  0.00000000000E+00  0.00000000000E+00  0.14999999963E+04  0.15000000000E+04  0.10566000000E+00 0. -1.
        994   -1    0    0    0    0 -0.00000000000E+00 -0.00000000000E+00  0.11368683772E-12  0.17120000000E+03  0.17120000000E+03 0.  0.
         13    1    1    2    0    0 -0.45303492024E+02  0.28284268848E+02  0.18995176406E+03  0.19731723211E+03  0.10566000000E+00 0. -1.
        994    1    1    2    0    0  0.19609647958E+02 -0.58020068568E+01  0.93206868524E+01  0.17266880662E+03  0.17120000000E+03 0.  0.
        998    1    1    2    0    0  0.25693844066E+02 -0.22482261991E+02  0.13007275454E+04  0.13012139613E+04  0.10000000000E+02 0. -1.
</event>
<event>
 5    1  0.2122894E-008  0.3862398E+03  0.7957747E-01  0.3424431E+00
         13   -1    0    0    0    0  0.00000000000E+00  0.00000000000E+00  0.14999999963E+04  0.15000000000E+04  0.10566000000E+00 0. -1.
        994   -1    0    0    0    0 -0.00000000000E+00 -0.00000000000E+00  0.11368683772E-12  0.17120000000E+03  0.17120000000E+03 0.  0.
         13    1    1    2    0    0 -0.73794248160E+01  0.69458455413E+01  0.57283834873E+02  0.58173443964E+02  0.10566000000E+00 0. -1.
        994    1    1    2    0    0 -0.58749260198E+01  0.46062699213E+01  0.11983906438E+01  0.17136688309E+03  0.17120000000E+03 0.  0.
        998    1    1    2    0    0  0.13254350836E+02 -0.11552115463E+02  0.14415177708E+04  0.14416596730E+04  0.10000000000E+02 0. -1.
</event>
<event>
 5    1  0.1279376E-008  0.3809004E+03  0.7957747E-01  0.3447247E+00
         13   -1    0    0    0    0  0.00000000000E+00  0.00000000000E+00  0.14999999963E+04  0.15000000000E+04  0.10566000000E+00 0.  1.
        994   -1    0    0    0    0 -0.00000000000E+00 -0.00000000000E+00  0.11368683772E-12  0.17120000000E+03  0.17120000000E+03 0.  0.
         13    1    1    2    0    0  0.13808293720E+02  0.29973539636E+02  0.16016295116E+03  0.16352756386E+03  0.10566000000E+00 0.  1.
        994    1    1    2    0    0  0.53485892265E+01 -0.10229725388E+02  0.41235779000E+01  0.17163827831E+03  0.17120000000E+03 0.  0.
        998    1    1    2    0    0 -0.19156882946E+02 -0.19743814248E+02  0.13357134672E+04  0.13360341578E+04  0.10000000000E+02 0.  1.
</event>
<event>
 5    1  0.1279376E-008  0.3021718E+03  0.7957747E-01  0.3880635E+00
         13   -1    0    0    0    0  0.00000000000E+00  0.00000000000E+00  0.14999999963E+04  0.15000000000E+04  0.10566000000E+00 0.  1.
        994   -1    0    0    0    0 -0.00000000000E+00 -0.00000000000E+00  0.11368683772E-12  0.17120000000E+03  0.17120000000E+03 0.  0.
         13    1    1    2    0    0  0.18598295887E+02 -0.21104758044E+03  0.63347771622E+03  0.66796781803E+03  0.10566000000E+00 0.  1.
        994    1    1    2    0    0 -0.42159830142E+02  0.18779295527E+03  0.17630305709E+03  0.31214716604E+03  0.17120000000E+03 0.  0.
        998    1    1    2    0    0  0.23561534255E+02  0.23254625171E+02  0.69021922297E+03  0.69108501593E+03  0.10000000000E+02 0.  1.
</event>
<event>
 5    1  0.1279376E-008  0.3858188E+03  0.7957747E-01  0.3426207E+00
         13   -1    0    0    0    0  0.00000000000E+00  0.00000000000E+00  0.14999999963E+04  0.15000000000E+04  0.10566000000E+00 0. -1.
        994   -1    0    0    0    0 -0.00000000000E+00 -0.00000000000E+00  0.11368683772E-12  0.17120000000E+03  0.17120000000E+03 0.  0.
         13    1    1    2    0    0  0.36268933539E+00 -0.10427650837E+02  0.45372850995E+02  0.46557214446E+02  0.10566000000E+00 0. -1.
        994    1    1    2    0    0 -0.85812037607E+00  0.50761064524E+01  0.13111054613E+01  0.17128240489E+03  0.17120000000E+03 0.  0.
        998    1    1    2    0    0  0.49543104068E+00  0.53515443843E+01  0.14533160398E+04  0.14533603807E+04  0.10000000000E+02 0. -1.
</event>
<event>
 5    1  0.1279376E-008  0.3837757E+03  0.7957747E-01  0.3434881E+00
         13   -1    0    0    0    0  0.00000000000E+00  0.00000000000E+00  0.14999999963E+04  0.15000000000E+04  0.10566000000E+00 0. -1.
        994   -1    0    0    0    0 -0.00000000000E+00 -0.00000000000E+00  0.11368683772E-12  0.17120000000E+03  0.17120000000E+03 0.  0.
         13    1    1    2    0    0 -0.16671889282E+02 -0.76766269315E+01  0.84161460412E+02  0.86139683515E+02  0.10566000000E+00 0. -1.
        994    1    1    2    0    0 -0.10791068822E+02  0.70165575504E+01  0.27864041930E+01  0.17170580449E+03  0.17120000000E+03 0.  0.
        998    1    1    2    0    0  0.27462958103E+02  0.66006938119E+00  0.14130521317E+04  0.14133545120E+04  0.10000000000E+02 0. -1.
</event>
<event>
 5    1  0.1279376E-008  0.3808083E+03  0.7957747E-01  0.3447646E+00
         13   -1    0    0    0    0  0.00000000000E+00  0.00000000000E+00  0.14999999963E+04  0.15000000000E+04  0.10566000000E+00 0.  1.
        994   -1    0    0    0    0 -0.00000000000E+00 -0.00000000000E+00  0.11368683772E-12  0.17120000000E+03  0.17120000000E+03 0.  0.
         13    1    1    2    0    0 -0.99154060465E+01 -0.93216833872E+01  0.23041260317E+02  0.26760416649E+02  0.10566000000E+00 0.  1.
        994    1    1    2    0    0  0.11260532470E+02  0.86264342553E+01  0.43967982504E+01  0.17184291313E+03  0.17120000000E+03 0.  0.
        998    1    1    2    0    0 -0.13451264236E+01  0.69524913191E+00  0.14725619377E+04  0.14725966702E+04  0.10000000000E+02 0.  1.
</event>
<event>
 5    1  0.1279376E-008  0.3775635E+03  0.7957747E-01  0.3461837E+00
         13   -1    0    0    0    0  0.00000000000E+00  0.00000000000E+00  0.14999999963E+04  0.15000000000E+04  0.10566000000E+00 0. -1.
        994   -1    0    0    0    0 -0.00000000000E+00 -0.00000000000E+00  0.11368683772E-12  0.17120000000E+03  0.17120000000E+03 0.  0.
         13    1    1    2    0    0  0.35352710299E+02 -0.13308130431E+02  0.13855517491E+03  0.14361221438E+03  0.10566000000E+00 0. -1.
        994    1    1    2    0    0 -0.12791598246E+02  0.65724644285E+00  0.59212298864E+01  0.17178055164E+03  0.17120000000E+03 0.  0.
        998    1    1    2    0    0 -0.22561112053E+02  0.12650883988E+02  0.13555235915E+04  0.13558072340E+04  0.10000000000E+02 0. -1.
</event>
<event>
 5    1  0.1279376E-008  0.3802552E+03  0.7957747E-01  0.3450048E+00
         13   -1    0    0    0    0  0.00000000000E+00  0.00000000000E+00  0.14999999963E+04  0.15000000000E+04  0.10566000000E+00 0.  1.
        994   -1    0    0    0    0 -0.00000000000E+00 -0.00000000000E+00  0.11368683772E-12  0.17120000000E+03  0.17120000000E+03 0.  0.
         13    1    1    2    0    0 -0.53495697412E+02  0.23386301472E+02  0.33249138742E+03  0.33757849844E+03  0.10566000000E+00 0.  1.
        994    1    1    2    0    0  0.52265583742E+02 -0.26119299399E+02  0.15492576772E+02  0.18155816969E+03  0.17120000000E+03 0.  0.
        998    1    1    2    0    0  0.12301136698E+01  0.27329979268E+01  0.11520160321E+04  0.11520633319E+04  0.10000000000E+02 0.  1.
</event>
<event>
 5    1  0.1279376E-008  0.3718574E+03  0.7957747E-01  0.3487398E+00
         13   -1    0    0    0    0  0.00000000000E+00  0.00000000000E+00  0.14999999963E+04  0.15000000000E+04  0.10566000000E+00 0.  1.
        994   -1    0    0    0    0 -0.00000000000E+00 -0.00000000000E+00  0.11368683772E-12  0.17120000000E+03  0.17120000000E+03 0.  0.
         13    1    1    2    0    0 -0.13883531543E+02  0.47467273181E+02  0.99349674305E+02  0.11097866200E+03  0.10566000000E+00 0.  1.
        994    1    1    2    0    0 -0.20795169772E+01 -0.30899007109E+02  0.15306627617E+02  0.17465052499E+03  0.17120000000E+03 0.  0.
        998    1    1    2    0    0  0.15963048521E+02 -0.16568266072E+02  0.13853436944E+04  0.13855708130E+04  0.10000000000E+02 0.  1.
</event>
<event>
 5    1  0.1279376E-008  0.3767760E+03  0.7957747E-01  0.3465318E+00
         13   -1    0    0    0    0  0.00000000000E+00  0.00000000000E+00  0.14999999963E+04  0.15000000000E+04  0.10566000000E+00 0. -1.
        994   -1    0    0    0    0 -0.00000000000E+00 -0.00000000000E+00  0.11368683772E-12  0.17120000000E+03  0.17120000000E+03 0.  0.
         13    1    1    2    0    0  0.43286975394E+02 -0.11626716736E+02  0.19906665008E+03  0.20405020245E+03  0.10566000000E+00 0. -1.
        994    1    1    2    0    0 -0.10710436749E+01  0.10472063008E+02  0.61440206269E+01  0.17163333076E+03  0.17120000000E+03 0.  0.
        998    1    1    2    0    0 -0.42215931720E+02  0.11546537281E+01  0.12947893256E+04  0.12955164668E+04  0.10000000000E+02 0. -1.
</event>
<event>
 5    1  0.1279376E-008  0.3745717E+03  0.7957747E-01  0.3475141E+00
         13   -1    0    0    0    0  0.00000000000E+00  0.00000000000E+00  0.14999999963E+04  0.15000000000E+04  0.10566000000E+00 0.  1.
        994   -1    0    0    0    0 -0.00000000000E+00 -0.00000000000E+00  0.11368683772E-12  0.17120000000E+03  0.17120000000E+03 0.  0.
         13    1    1    2    0    0  0.11209141128E+02  0.62744727590E+01  0.89951559076E+01  0.15682405653E+02  0.10566000000E+00 0.  1.
        994    1    1    2    0    0 -0.34201870707E+01  0.22271535720E+01  0.69555686806E+01  0.17138984167E+03  0.17120000000E+03 0.  0.
        998    1    1    2    0    0 -0.77889540572E+01 -0.85016263309E+01  0.14840492717E+04  0.14841277527E+04  0.10000000000E+02 0.  1.
</event>
<event>
 5    1  0.1279376E-008  0.3845577E+03  0.7957747E-01  0.3431550E+00
         13   -1    0    0    0    0  0.00000000000E+00  0.00000000000E+00  0.14999999963E+04  0.15000000000E+04  0.10566000000E+00 0.  1.
        994   -1    0    0    0    0 -0.00000000000E+00 -0.00000000000E+00  0.11368683772E-12  0.17120000000E+03  0.17120000000E+03 0.  0.
         13    1    1    2    0    0 -0.27645119039E+01  0.10783756384E+02  0.35589805067E+02  0.37290445379E+02  0.10566000000E+00 0.  1.
        994    1    1    2    0    0 -0.11488826449E+02  0.54581892067E+01  0.23829082200E+01  0.17168838986E+03  0.17120000000E+03 0.  0.
        998    1    1    2    0    0  0.14253338353E+02 -0.16241945591E+02  0.14620272830E+04  0.14622211648E+04  0.10000000000E+02 0.  1.
</event>
<event>
 5    1  0.1279376E-008  0.3843332E+03  0.7957747E-01  0.3432505E+00
         13   -1    0    0    0    0  0.00000000000E+00  0.00000000000E+00  0.14999999963E+04  0.15000000000E+04  0.10566000000E+00 0.  1.
        994   -1    0    0    0    0 -0.00000000000E+00 -0.00000000000E+00  0.11368683772E-12  0.17120000000E+03  0.17120000000E+03 0.  0.
         13    1    1    2    0    0 -0.76540950312E+00 -0.19196463594E+02  0.95609312212E+02  0.97520468682E+02  0.10566000000E+00 0.  1.
        994    1    1    2    0    0 -0.30682619848E+01  0.96209937633E+01  0.22977155601E+01  0.17151296525E+03  0.17120000000E+03 0.  0.
        998    1    1    2    0    0  0.38336714879E+01  0.95754698308E+01  0.14020929685E+04  0.14021665661E+04  0.10000000000E+02 0.  1.
</event>
<event>
 5    1  0.1279376E-008  0.3820990E+03  0.7957747E-01  0.3442070E+00
         13   -1    0    0    0    0  0.00000000000E+00  0.00000000000E+00  0.14999999963E+04  0.15000000000E+04  0.10566000000E+00 0.  1.
        994   -1    0    0    0    0 -0.00000000000E+00 -0.00000000000E+00  0.11368683772E-12  0.17120000000E+03  0.17120000000E+03 0.  0.
         13    1    1    2    0    0 -0.19975319154E+02  0.63404442806E+01  0.44488267156E+01  0.21424701448E+02  0.10566000000E+00 0.  1.
        994    1    1    2    0    0  0.29174932004E+02 -0.26270058418E+02  0.23134154563E+02  0.17716072289E+03  0.17120000000E+03 0.  0.
        998    1    1    2    0    0 -0.91996128497E+01  0.19929614137E+02  0.14724170150E+04  0.14726145757E+04  0.10000000000E+02 0.  1.
</event>
<event>
 5    1  0.1279376E-008  0.3858076E+03  0.7957747E-01  0.3426254E+00
         13   -1    0    0    0    0  0.00000000000E+00  0.00000000000E+00  0.14999999963E+04  0.15000000000E+04  0.10566000000E+00 0. -1.
        994   -1    0    0    0    0 -0.00000000000E+00 -0.00000000000E+00  0.11368683772E-12  0.17120000000E+03  0.17120000000E+03 0.  0.
         13    1    1    2    0    0 -0.55089419215E+00  0.12536895055E+02  0.63436537569E+02  0.64665931407E+02  0.10566000000E+00 0. -1.
        994    1    1    2    0    0 -0.51968145973E+01 -0.11182179411E+02  0.17285831909E+01  0.17165219491E+03  0.17120000000E+03 0.  0.
        998    1    1    2    0    0  0.57477087895E+01 -0.13547156440E+01  0.14348348755E+04  0.14348818737E+04  0.10000000000E+02 0. -1.
</event>
<event>
 5    1  0.1279376E-008  0.3792839E+03  0.7957747E-01  0.3454282E+00
         13   -1    0    0    0    0  0.00000000000E+00  0.00000000000E+00  0.14999999963E+04  0.15000000000E+04  0.10566000000E+00 0. -1.
        994   -1    0    0    0    0 -0.00000000000E+00 -0.00000000000E+00  0.11368683772E-12  0.17120000000E+03  0.17120000000E+03 0.  0.
         13    1    1    2    0    0 -0.12780091496E+02 -0.35327741246E+02  0.14455019235E+03  0.14935243323E+03  0.10566000000E+00 0. -1.
        994    1    1    2    0    0  0.90860296755E+01  0.33294404603E+02  0.84964748417E+01  0.17485051729E+03  0.17120000000E+03 0.  0.
        998    1    1    2    0    0  0.36940618210E+01  0.20333366428E+01  0.13469533291E+04  0.13469970495E+04  0.10000000000E+02 0.  0.
</event>
<event>
 5    1  0.1279376E-008  0.3703517E+03  0.7957747E-01  0.3494276E+00
         13   -1    0    0    0    0  0.00000000000E+00  0.00000000000E+00  0.14999999963E+04  0.15000000000E+04  0.10566000000E+00 0. -1.
        994   -1    0    0    0    0 -0.00000000000E+00 -0.00000000000E+00  0.11368683772E-12  0.17120000000E+03  0.17120000000E+03 0.  0.
         13    1    1    2    0    0  0.10832385610E+01  0.38492720023E+02  0.75873911076E+02  0.85086570306E+02  0.10566000000E+00 0. -1.
        994    1    1    2    0    0  0.68678262242E+01 -0.34232218568E+02  0.13306850578E+02  0.17522991781E+03  0.17120000000E+03 0.  0.
        998    1    1    2    0    0 -0.79510647853E+01 -0.42605014552E+01  0.14108192346E+04  0.14108835119E+04  0.10000000000E+02 0. -1.
</event>
<event>
 5    1  0.1279376E-008  0.3712003E+03  0.7957747E-01  0.3490393E+00
         13   -1    0    0    0    0  0.00000000000E+00  0.00000000000E+00  0.14999999963E+04  0.15000000000E+04  0.10566000000E+00 0. -1.
        994   -1    0    0    0    0 -0.00000000000E+00 -0.00000000000E+00  0.11368683772E-12  0.17120000000E+03  0.17120000000E+03 0.  0.
         13    1    1    2    0    0  0.34051610729E+02  0.26462850563E+01  0.64819157703E+02  0.73266973373E+02  0.10566000000E+00 0. -1.
        994    1    1    2    0    0 -0.20048431035E+02  0.69340097657E+01  0.10194146629E+02  0.17281024479E+03  0.17120000000E+03 0.  0.
        998    1    1    2    0    0 -0.14003179694E+02 -0.95802948220E+01  0.14249866919E+04  0.14251227818E+04  0.10000000000E+02 0. -1.
</event>
<event>
 5    1  0.1279376E-008  0.3831046E+03  0.7957747E-01  0.3437751E+00
         13   -1    0    0    0    0  0.00000000000E+00  0.00000000000E+00  0.14999999963E+04  0.15000000000E+04  0.10566000000E+00 0.  1.
        994   -1    0    0    0    0 -0.00000000000E+00 -0.00000000000E+00  0.11368683772E-12  0.17120000000E+03  0.17120000000E+03 0.  0.
         13    1    1    2    0    0 -0.13275495389E+02 -0.23736703852E+01  0.35341457142E+02  0.37827276480E+02  0.10566000000E+00 0.  1.
        994    1    1    2    0    0  0.20279892744E+01  0.56321847489E+01  0.26926968745E+01  0.17132578575E+03  0.17120000000E+03 0.  0.
        998    1    1    2    0    0  0.11247506114E+02 -0.32585143637E+01  0.14619658423E+04  0.14620469378E+04  0.10000000000E+02 0.  1.
</event>
<event>
 5    1  0.1279376E-008  0.3857843E+03  0.7957747E-01  0.3426353E+00
         13   -1    0    0    0    0  0.00000000000E+00  0.00000000000E+00  0.14999999963E+04  0.15000000000E+04  0.10566000000E+00 0.  1.
        994   -1    0    0    0    0 -0.00000000000E+00 -0.00000000000E+00  0.11368683772E-12  0.17120000000E+03  0.17120000000E+03 0.  0.
         13    1    1    2    0    0  0.67444282962E+01 -0.99264320647E+01  0.58391154316E+02  0.59611739053E+02  0.10566000000E+00 0.  1.
        994    1    1    2    0    0 -0.18931696439E+01  0.87897232010E+01  0.15064841289E+01  0.17144256420E+03  0.17120000000E+03 0.  0.
        998    1    1    2    0    0 -0.48512586523E+01  0.11367088637E+01  0.14401023578E+04  0.14401456967E+04  0.10000000000E+02 0.  1.
</event>
<event>
 5    1  0.1279376E-008  0.3761630E+03  0.7957747E-01  0.3468038E+00
         13   -1    0    0    0    0  0.00000000000E+00  0.00000000000E+00  0.14999999963E+04  0.15000000000E+04  0.10566000000E+00 0.  1.
        994   -1    0    0    0    0 -0.00000000000E+00 -0.00000000000E+00  0.11368683772E-12  0.17120000000E+03  0.17120000000E+03 0.  0.
         13    1    1    2    0    0  0.29526236542E+02 -0.28962238974E+02  0.15584112015E+03  0.16123608723E+03  0.10566000000E+00 0.  1.
        994    1    1    2    0    0 -0.21783106660E+02 -0.16754558144E+02  0.86440273581E+01  0.17360696462E+03  0.17120000000E+03 0.  0.
        998    1    1    2    0    0 -0.77431298825E+01  0.45716797118E+02  0.13355148488E+04  0.13363569482E+04  0.10000000000E+02 0.  1.
</event>
<event>
 5    1  0.1279376E-008  0.3725384E+03  0.7957747E-01  0.3484306E+00
         13   -1    0    0    0    0  0.00000000000E+00  0.00000000000E+00  0.14999999963E+04  0.15000000000E+04  0.10566000000E+00 0. -1.
        994   -1    0    0    0    0 -0.00000000000E+00 -0.00000000000E+00  0.11368683772E-12  0.17120000000E+03  0.17120000000E+03 0.  0.
         13    1    1    2    0    0  0.40946804087E+02  0.19519624213E+02  0.83479080895E+02  0.95007497628E+02  0.10566000000E+00 0. -1.
        994    1    1    2    0    0 -0.11323600539E+02 -0.85239216841E+01  0.12996264950E+02  0.17227659177E+03  0.17120000000E+03 0.  0.
        998    1    1    2    0    0 -0.29623203548E+02 -0.10995702529E+02  0.14035246504E+04  0.14039159106E+04  0.10000000000E+02 0. -1.
</event>
<event>
 5    1  0.1279376E-008  0.3731902E+03  0.7957747E-01  0.3481357E+00
         13   -1    0    0    0    0  0.00000000000E+00  0.00000000000E+00  0.14999999963E+04  0.15000000000E+04  0.10566000000E+00 0.  1.
        994   -1    0    0    0    0 -0.00000000000E+00 -0.00000000000E+00  0.11368683772E-12  0.17120000000E+03  0.17120000000E+03 0.  0.
         13    1    1    2    0    0 -0.59915767057E+01  0.34624899217E+02  0.76181643791E+02  0.83895391125E+02  0.10566000000E+00 0.  1.
        994    1    1    2    0    0  0.22043544231E+02 -0.26680643683E+02  0.11718541799E+02  0.17505581627E+03  0.17120000000E+03 0.  0.
        998    1    1    2    0    0 -0.16051967525E+02 -0.79442555333E+01  0.14120998107E+04  0.14122487926E+04  0.10000000000E+02 0.  1.
</event>
<event>
 5    1  0.1279376E-008  0.3820571E+03  0.7957747E-01  0.3442250E+00
         13   -1    0    0    0    0  0.00000000000E+00  0.00000000000E+00  0.14999999963E+04  0.15000000000E+04  0.10566000000E+00 0.  1.
        994   -1    0    0    0    0 -0.00000000000E+00 -0.00000000000E+00  0.11368683772E-12  0.17120000000E+03  0.17120000000E+03 0.  0.
         13    1    1    2    0    0 -0.19241082072E+02  0.30247771336E+02  0.18972434790E+03  0.19308155339E+03  0.10566000000E+00 0.  1.
        994    1    1    2    0    0  0.15966334976E+02 -0.26904982608E+02  0.63551121082E+01  0.17415116822E+03  0.17120000000E+03 0.  0.
        998    1    1    2    0    0  0.32747470957E+01 -0.33427887280E+01  0.13039205363E+04  0.13039672784E+04  0.10000000000E+02 0.  1.
</event>
<event>
 5    1  0.1279376E-008  0.3734604E+03  0.7957747E-01  0.3480137E+00
         13   -1    0    0    0    0  0.00000000000E+00  0.00000000000E+00  0.14999999963E+04  0.15000000000E+04  0.10566000000E+00 0. -1.
        994   -1    0    0    0    0 -0.00000000000E+00 -0.00000000000E+00  0.11368683772E-12  0.17120000000E+03  0.17120000000E+03 0.  0.
         13    1    1    2    0    0  0.10995780443E+03 -0.81553171227E+01  0.59078119653E+03  0.60098224706E+03  0.10566000000E+00 0. -1.
        994    1    1    2    0    0 -0.97146303787E+02 -0.21226864935E+02  0.42050691759E+02  0.20239981426E+03  0.17120000000E+03 0.  0.
        998    1    1    2    0    0 -0.12811500642E+02  0.29382182058E+02  0.86716810799E+03  0.86781793868E+03  0.10000000000E+02 0. -1.
</event>
<event>
 5    1  0.1279376E-008  0.3796078E+03  0.7957747E-01  0.3452868E+00
         13   -1    0    0    0    0  0.00000000000E+00  0.00000000000E+00  0.14999999963E+04  0.15000000000E+04  0.10566000000E+00 0. -1.
        994   -1    0    0    0    0 -0.00000000000E+00 -0.00000000000E+00  0.11368683772E-12  0.17120000000E+03  0.17120000000E+03 0.  0.
         13    1    1    2    0    0 -0.17222442376E+02 -0.15119946456E+02  0.57683478377E+02  0.62069478360E+02  0.10566000000E+00 0. -1.
        994    1    1    2    0    0  0.18527234677E+02  0.10181414426E+02  0.58286467338E+01  0.17259876230E+03  0.17120000000E+03 0.  0.
        998    1    1    2    0    0 -0.13047923013E+01  0.49385320302E+01  0.14364878712E+04  0.14365317593E+04  0.10000000000E+02 0. -1.
</event>
<event>
 5    1  0.1279376E-008  0.3840258E+03  0.7957747E-01  0.3433814E+00
         13   -1    0    0    0    0  0.00000000000E+00  0.00000000000E+00  0.14999999963E+04  0.15000000000E+04  0.10566000000E+00 0. -1.
        994   -1    0    0    0    0 -0.00000000000E+00 -0.00000000000E+00  0.11368683772E-12  0.17120000000E+03  0.17120000000E+03 0.  0.
         13    1    1    2    0    0 -0.81953920486E+01  0.68800013603E+01  0.25782399155E+02  0.27914908916E+02  0.10566000000E+00 0. -1.
        994    1    1    2    0    0  0.10427794991E+02 -0.98671958525E+01  0.27948176060E+01  0.17182360568E+03  0.17120000000E+03 0.  0.
        998    1    1    2    0    0 -0.22324029420E+01  0.29871944922E+01  0.14714227795E+04  0.14714614854E+04  0.10000000000E+02 0. -1.
</event>
<event>
 5    1  0.1279376E-008  0.3792592E+03  0.7957747E-01  0.3454390E+00
         13   -1    0    0    0    0  0.00000000000E+00  0.00000000000E+00  0.14999999963E+04  0.15000000000E+04  0.10566000000E+00 0.  1.
        994   -1    0    0    0    0 -0.00000000000E+00 -0.00000000000E+00  0.11368683772E-12  0.17120000000E+03  0.17120000000E+03 0.  0.
         13    1    1    2    0    0  0.33228455502E+02 -0.33091542930E+02  0.21004717335E+03  0.21521850912E+03  0.10566000000E+00 0.  1.
        994    1    1    2    0    0 -0.34863427955E+02  0.31617510426E+02  0.11966752058E+02  0.17795440070E+03  0.17120000000E+03 0.  0.
        998    1    1    2    0    0  0.16349724532E+01  0.14740325037E+01  0.12779860709E+04  0.12780270902E+04  0.10000000000E+02 0.  1.
</event>
<event>
 5    1  0.1279376E-008  0.3828128E+03  0.7957747E-01  0.3439002E+00
         13   -1    0    0    0    0  0.00000000000E+00  0.00000000000E+00  0.14999999963E+04  0.15000000000E+04  0.10566000000E+00 0. -1.
        994   -1    0    0    0    0 -0.00000000000E+00 -0.00000000000E+00  0.11368683772E-12  0.17120000000E+03  0.17120000000E+03 0.  0.
         13    1    1    2    0    0 -0.32004496842E+01  0.18332729674E+02  0.69027258284E+02  0.71491995396E+02  0.10566000000E+00 0. -1.
        994    1    1    2    0    0 -0.59570163633E+01  0.49349009242E+01  0.29181557721E+01  0.17139951845E+03  0.17120000000E+03 0.  0.
        998    1    1    2    0    0  0.91574660474E+01 -0.23267630598E+02  0.14280545822E+04  0.14283084862E+04  0.10000000000E+02 0. -1.
</event>
<event>
 5    1  0.1279376E-008  0.3851018E+03  0.7957747E-01  0.3429241E+00
         13   -1    0    0    0    0  0.00000000000E+00  0.00000000000E+00  0.14999999963E+04  0.15000000000E+04  0.10566000000E+00 0.  1.
        994   -1    0    0    0    0 -0.00000000000E+00 -0.00000000000E+00  0.11368683772E-12  0.17120000000E+03  0.17120000000E+03 0.  0.
         13    1    1    2    0    0  0.11506492871E+02  0.11084778360E+02  0.81512225917E+02  0.83063384397E+02  0.10566000000E+00 0.  1.
        994    1    1    2    0    0 -0.14181325046E+02  0.98584261823E+00  0.22442588693E+01  0.17180383745E+03  0.17120000000E+03 0.  0.
        998    1    1    2    0    0  0.26748321753E+01 -0.12070620979E+02  0.14162435115E+04  0.14163327781E+04  0.10000000000E+02 0.  1.
</event>
<event>
 5    1  0.1279376E-008  0.3961758E+03  0.7957747E-01  0.3383614E+00
         13   -1    0    0    0    0  0.00000000000E+00  0.00000000000E+00  0.14999999963E+04  0.15000000000E+04  0.10566000000E+00 0.  1.
        994   -1    0    0    0    0 -0.00000000000E+00 -0.00000000000E+00  0.11368683772E-12  0.17120000000E+03  0.17120000000E+03 0.  0.
         13    1    1    2    0    0  0.88410993216E+01 -0.38087426333E+02  0.19953375807E+02  0.43897214627E+02  0.10566000000E+00 0.  1.
        994    1    1    2    0    0  0.55721479082E+01  0.32728155334E+02  0.29772262389E+02  0.17691243199E+03  0.17120000000E+03 0.  0.
        998    1    1    2    0    0 -0.14413247230E+02  0.53592709987E+01  0.14502743581E+04  0.14503903534E+04  0.10000000000E+02 0.  1.
</event>
<event>
 5    1  0.1279376E-008  0.3690291E+03  0.7957747E-01  0.3500365E+00
         13   -1    0    0    0    0  0.00000000000E+00  0.00000000000E+00  0.14999999963E+04  0.15000000000E+04  0.10566000000E+00 0.  1.
        994   -1    0    0    0    0 -0.00000000000E+00 -0.00000000000E+00  0.11368683772E-12  0.17120000000E+03  0.17120000000E+03 0.  0.
         13    1    1    2    0    0  0.50874967105E+02 -0.23409438705E+02  0.11576331082E+03  0.12859789809E+03  0.10566000000E+00 0.  1.
        994    1    1    2    0    0 -0.11289750266E+03  0.20085925333E+02  0.56888626863E+02  0.21376399690E+03  0.17120000000E+03 0.  0.
        998    1    1    2    0    0  0.62022535557E+02  0.33235133727E+01  0.13273480586E+04  0.13288381050E+04  0.10000000000E+02 0.  1.
</event>
<event>
 5    1  0.1279376E-008  0.3802432E+03  0.7957747E-01  0.3450100E+00
         13   -1    0    0    0    0  0.00000000000E+00  0.00000000000E+00  0.14999999963E+04  0.15000000000E+04  0.10566000000E+00 0.  1.
        994   -1    0    0    0    0 -0.00000000000E+00 -0.00000000000E+00  0.11368683772E-12  0.17120000000E+03  0.17120000000E+03 0.  0.
         13    1    1    2    0    0 -0.20170636131E+02 -0.34370662699E+02  0.17590516077E+03  0.18036306098E+03  0.10566000000E+00 0.  1.
        994    1    1    2    0    0  0.31704291427E+02  0.27334894348E+02  0.98860084290E+01  0.17652062686E+03  0.17120000000E+03 0.  0.
        998    1    1    2    0    0 -0.11533655296E+02  0.70357683518E+01  0.13142088271E+04  0.13143163122E+04  0.10000000000E+02 0.  1.
</event>
<event>
 5    1  0.1279376E-008  0.3781330E+03  0.7957747E-01  0.3459328E+00
         13   -1    0    0    0    0  0.00000000000E+00  0.00000000000E+00  0.14999999963E+04  0.15000000000E+04  0.10566000000E+00 0.  1.
        994   -1    0    0    0    0 -0.00000000000E+00 -0.00000000000E+00  0.11368683772E-12  0.17120000000E+03  0.17120000000E+03 0.  0.
         13    1    1    2    0    0 -0.26979966410E+02 -0.15959994956E+02  0.10252159383E+03  0.10720694191E+03  0.10566000000E+00 0.  1.
        994    1    1    2    0    0  0.48831507908E+01 -0.20390002376E+01  0.51727594563E+01  0.17135985564E+03  0.17120000000E+03 0.  0.
        998    1    1    2    0    0  0.22096815620E+02  0.17998995193E+02  0.13923056430E+04  0.13926332025E+04  0.10000000000E+02 0.  1.
</event>
<event>
 5    1  0.1279376E-008  0.3740326E+03  0.7957747E-01  0.3477561E+00
         13   -1    0    0    0    0  0.00000000000E+00  0.00000000000E+00  0.14999999963E+04  0.15000000000E+04  0.10566000000E+00 0.  1.
        994   -1    0    0    0    0 -0.00000000000E+00 -0.00000000000E+00  0.11368683772E-12  0.17120000000E+03  0.17120000000E+03 0.  0.
         13    1    1    2    0    0 -0.25980106155E+02  0.11538468593E+02  0.50644470130E+02  0.58077325111E+02  0.10566000000E+00 0.  1.
        994    1    1    2    0    0  0.33573128701E+02 -0.14016870041E+02  0.11703742119E+02  0.17541392532E+03  0.17120000000E+03 0.  0.
        998    1    1    2    0    0 -0.75930225460E+01  0.24784014478E+01  0.14376517840E+04  0.14377087496E+04  0.10000000000E+02 0.  1.
</event>
<event>
 5    1  0.1279376E-008  0.3846579E+03  0.7957747E-01  0.3431124E+00
         13   -1    0    0    0    0  0.00000000000E+00  0.00000000000E+00  0.14999999963E+04  0.15000000000E+04  0.10566000000E+00 0.  1.
        994   -1    0    0    0    0 -0.00000000000E+00 -0.00000000000E+00  0.11368683772E-12  0.17120000000E+03  0.17120000000E+03 0.  0.
         13    1    1    2    0    0  0.17462258367E+02  0.58263014761E+01  0.98595937928E+02  0.10029978263E+03  0.10566000000E+00 0.  1.
        994    1    1    2    0    0 -0.35596669390E+01 -0.64108813334E+01  0.19771196970E+01  0.17136837407E+03  0.17120000000E+03 0.  0.
        998    1    1    2    0    0 -0.13902591428E+02  0.58457985723E+00  0.13994269387E+04  0.13995318433E+04  0.10000000000E+02 0.  1.
</event>
<event>
 5    1  0.1279376E-008  0.3849432E+03  0.7957747E-01  0.3429913E+00
         13   -1    0    0    0    0  0.00000000000E+00  0.00000000000E+00  0.14999999963E+04  0.15000000000E+04  0.10566000000E+00 0.  1.
        994   -1    0    0    0    0 -0.00000000000E+00 -0.00000000000E+00  0.11368683772E-12  0.17120000000E+03  0.17120000000E+03 0.  0.
         13    1    1    2    0    0  0.27041883476E+01  0.19587070097E+02  0.10817138980E+03  0.10996375169E+03  0.10566000000E+00 0.  1.
        994    1    1    2    0    0 -0.96672108966E+00 -0.23352012312E+02  0.34571391224E+01  0.17282257619E+03  0.17120000000E+03 0.  0.
        998    1    1    2    0    0 -0.17374672580E+01  0.37649422153E+01  0.13883714674E+04  0.13884136721E+04  0.10000000000E+02 0.  1.
</event>
<event>
 5    1  0.1279376E-008  0.3772033E+03  0.7957747E-01  0.3463427E+00
         13   -1    0    0    0    0  0.00000000000E+00  0.00000000000E+00  0.14999999963E+04  0.15000000000E+04  0.10566000000E+00 0.  1.
        994   -1    0    0    0    0 -0.00000000000E+00 -0.00000000000E+00  0.11368683772E-12  0.17120000000E+03  0.17120000000E+03 0.  0.
         13    1    1    2    0    0 -0.23610671561E+02 -0.42419395226E+00  0.51150913894E+02  0.56338893389E+02  0.10566000000E+00 0.  1.
        994    1    1    2    0    0 -0.31825224172E+01  0.23710628950E+02  0.74851212401E+01  0.17302540107E+03  0.17120000000E+03 0.  0.
        998    1    1    2    0    0  0.26793193978E+02 -0.23286434997E+02  0.14413639611E+04  0.14418357055E+04  0.10000000000E+02 0.  1.
</event>
<event>
 5    1  0.1279376E-008  0.3803480E+03  0.7957747E-01  0.3449645E+00
         13   -1    0    0    0    0  0.00000000000E+00  0.00000000000E+00  0.14999999963E+04  0.15000000000E+04  0.10566000000E+00 0.  1.
        994   -1    0    0    0    0 -0.00000000000E+00 -0.00000000000E+00  0.11368683772E-12  0.17120000000E+03  0.17120000000E+03 0.  0.
         13    1    1    2    0    0 -0.82913213783E+02  0.45607758016E+02  0.50873515814E+03  0.51746124580E+03  0.10566000000E+00 0.  1.
        994    1    1    2    0    0  0.11926273106E+03 -0.39456557591E+02  0.58585293111E+02  0.22027731505E+03  0.17120000000E+03 0.  0.
        998    1    1    2    0    0 -0.36349517274E+02 -0.61512004257E+01  0.93267954503E+03  0.93346143916E+03  0.10000000000E+02 0.  1.
</event>
<event>
 5    1  0.1279376E-008  0.3757508E+03  0.7957747E-01  0.3469872E+00
         13   -1    0    0    0    0  0.00000000000E+00  0.00000000000E+00  0.14999999963E+04  0.15000000000E+04  0.10566000000E+00 0.  1.
        994   -1    0    0    0    0 -0.00000000000E+00 -0.00000000000E+00  0.11368683772E-12  0.17120000000E+03  0.17120000000E+03 0.  0.
         13    1    1    2    0    0 -0.45713448731E+01 -0.45198070563E+02  0.64934771777E+02  0.79248334533E+02  0.10566000000E+00 0.  1.
        994    1    1    2    0    0  0.61126316471E+01  0.49545072365E+02  0.22958026363E+02  0.17980152790E+03  0.17120000000E+03 0.  0.
        998    1    1    2    0    0 -0.15412867740E+01 -0.43470018022E+01  0.14121071981E+04  0.14121501376E+04  0.10000000000E+02 0.  1.
</event>
<event>
 5    1  0.1279376E-008  0.3728908E+03  0.7957747E-01  0.3482710E+00
         13   -1    0    0    0    0  0.00000000000E+00  0.00000000000E+00  0.14999999963E+04  0.15000000000E+04  0.10566000000E+00 0. -1.
        994   -1    0    0    0    0 -0.00000000000E+00 -0.00000000000E+00  0.11368683772E-12  0.17120000000E+03  0.17120000000E+03 0.  0.
         13    1    1    2    0    0 -0.31532795129E+02  0.93153005629E+02  0.56691014800E+03  0.57537720384E+03  0.10566000000E+00 0. -1.
        994    1    1    2    0    0 -0.45638681140E+02 -0.99466548849E+02  0.49950239374E+02  0.20923897813E+03  0.17120000000E+03 0.  0.
        998    1    1    2    0    0  0.77171476269E+02  0.63135432202E+01  0.88313960890E+03  0.88658381803E+03  0.10000000000E+02 0. -1.
</event>
<event>
 5    1  0.1953695E-008  0.3864923E+03  0.7957747E-01  0.3423368E+00
         13   -1    0    0    0    0  0.00000000000E+00  0.00000000000E+00  0.14999999963E+04  0.15000000000E+04  0.10566000000E+00 0.  1.
        994   -1    0    0    0    0 -0.00000000000E+00 -0.00000000000E+00  0.11368683772E-12  0.17120000000E+03  0.17120000000E+03 0.  0.
         13    1    1    2    0    0  0.63313385868E+01  0.77919269936E+01  0.57793451647E+02  0.58659135622E+02  0.10566000000E+00 0.  1.
        994    1    1    2    0    0 -0.43786844463E+01 -0.51627599687E+01  0.10410458629E+01  0.17133695090E+03  0.17120000000E+03 0.  0.
        998    1    1    2    0    0 -0.19526541405E+01 -0.26291670249E+01  0.14411654988E+04  0.14412039135E+04  0.10000000000E+02 0.  0.
</event>
<event>
 5    1  0.1279376E-008  0.3774448E+03  0.7957747E-01  0.3462360E+00
         13   -1    0    0    0    0  0.00000000000E+00  0.00000000000E+00  0.14999999963E+04  0.15000000000E+04  0.10566000000E+00 0.  1.
        994   -1    0    0    0    0 -0.00000000000E+00 -0.00000000000E+00  0.11368683772E-12  0.17120000000E+03  0.17120000000E+03 0.  0.
         13    1    1    2    0    0  0.27714681783E+02 -0.12389992163E+02  0.78878328416E+02  0.84518739638E+02  0.10566000000E+00 0.  1.
        994    1    1    2    0    0 -0.27319334388E+02  0.14947857080E+02  0.87050490952E+01  0.17422687032E+03  0.17120000000E+03 0.  0.
        998    1    1    2    0    0 -0.39534739552E+00 -0.25578649171E+01  0.14124166188E+04  0.14124543900E+04  0.10000000000E+02 0.  1.
</event>
<event>
 5    1  0.1279376E-008  0.3849188E+03  0.7957747E-01  0.3430017E+00
         13   -1    0    0    0    0  0.00000000000E+00  0.00000000000E+00  0.14999999963E+04  0.15000000000E+04  0.10566000000E+00 0. -1.
        994   -1    0    0    0    0 -0.00000000000E+00 -0.00000000000E+00  0.11368683772E-12  0.17120000000E+03  0.17120000000E+03 0.  0.
         13    1    1    2    0    0  0.18333054255E+02  0.82698867247E+01  0.11951239510E+03  0.12119288614E+03  0.10566000000E+00 0. -1.
        994    1    1    2    0    0 -0.12901042170E+02 -0.57844427690E+01  0.23283093420E+01  0.17179859630E+03  0.17120000000E+03 0.  0.
        998    1    1    2    0    0 -0.54320120854E+01 -0.24854439557E+01  0.13781592918E+04  0.13782085176E+04  0.10000000000E+02 0. -1.
</event>
<event>
 5    1  0.1279376E-008  0.3850604E+03  0.7957747E-01  0.3429416E+00
         13   -1    0    0    0    0  0.00000000000E+00  0.00000000000E+00  0.14999999963E+04  0.15000000000E+04  0.10566000000E+00 0.  1.
        994   -1    0    0    0    0 -0.00000000000E+00 -0.00000000000E+00  0.11368683772E-12  0.17120000000E+03  0.17120000000E+03 0.  0.
         13    1    1    2    0    0 -0.71541693720E+01 -0.87064055173E+01  0.39259573044E+02  0.40844936970E+02  0.10566000000E+00 0.  1.
        994    1    1    2    0    0  0.39396507302E+01  0.86628900050E+01  0.18979809347E+01  0.17147480527E+03  0.17120000000E+03 0.  0.
        998    1    1    2    0    0  0.32145186417E+01  0.43515512314E-01  0.14588424423E+04  0.14588802578E+04  0.10000000000E+02 0.  1.
</event>
<event>
 5    1  0.1279376E-008  0.3740365E+03  0.7957747E-01  0.3477543E+00
         13   -1    0    0    0    0  0.00000000000E+00  0.00000000000E+00  0.14999999963E+04  0.15000000000E+04  0.10566000000E+00 0. -1.
        994   -1    0    0    0    0 -0.00000000000E+00 -0.00000000000E+00  0.11368683772E-12  0.17120000000E+03  0.17120000000E+03 0.  0.
         13    1    1    2    0    0  0.19953950056E+02 -0.14781923387E+02  0.38341953038E+02  0.45681308088E+02  0.10566000000E+00 0. -1.
        994    1    1    2    0    0 -0.24840783969E+02  0.21073025093E+02  0.10801676182E+02  0.17460599401E+03  0.17120000000E+03 0.  0.
        998    1    1    2    0    0  0.48868339123E+01 -0.62911017066E+01  0.14508563671E+04  0.14509126979E+04  0.10000000000E+02 0. -1.
</event>
<event>
 5    1  0.1279376E-008  0.3847596E+03  0.7957747E-01  0.3430692E+00
         13   -1    0    0    0    0  0.00000000000E+00  0.00000000000E+00  0.14999999963E+04  0.15000000000E+04  0.10566000000E+00 0.  1.
        994   -1    0    0    0    0 -0.00000000000E+00 -0.00000000000E+00  0.11368683772E-12  0.17120000000E+03  0.17120000000E+03 0.  0.
         13    1    1    2    0    0  0.98001592700E+01 -0.42386950066E+01  0.32419401411E+02  0.34132658979E+02  0.10566000000E+00 0.  1.
        994    1    1    2    0    0 -0.40112825587E+01  0.65955170396E+01  0.19456914905E+01  0.17138499627E+03  0.17120000000E+03 0.  0.
        998    1    1    2    0    0 -0.57888767113E+01 -0.23568220330E+01  0.14656349034E+04  0.14656823447E+04  0.10000000000E+02 0.  1.
</event>
<event>
 5    1  0.1279376E-008  0.3786760E+03  0.7957747E-01  0.3456944E+00
         13   -1    0    0    0    0  0.00000000000E+00  0.00000000000E+00  0.14999999963E+04  0.15000000000E+04  0.10566000000E+00 0.  1.
        994   -1    0    0    0    0 -0.00000000000E+00 -0.00000000000E+00  0.11368683772E-12  0.17120000000E+03  0.17120000000E+03 0.  0.
         13    1    1    2    0    0 -0.13396439598E+02 -0.28310154173E+02  0.95055944441E+02  0.10008283150E+03  0.10566000000E+00 0.  1.
        994    1    1    2    0    0  0.16338232419E+02  0.26360878349E+02  0.80391814790E+01  0.17417204766E+03  0.17120000000E+03 0.  0.
        998    1    1    2    0    0 -0.29417928213E+01  0.19492758239E+01  0.13969048704E+04  0.13969451208E+04  0.10000000000E+02 0.  1.
</event>
<event>
 5    1  0.1279376E-008  0.3756636E+03  0.7957747E-01  0.3470260E+00
         13   -1    0    0    0    0  0.00000000000E+00  0.00000000000E+00  0.14999999963E+04  0.15000000000E+04  0.10566000000E+00 0. -1.
        994   -1    0    0    0    0 -0.00000000000E+00 -0.00000000000E+00  0.11368683772E-12  0.17120000000E+03  0.17120000000E+03 0.  0.
         13    1    1    2    0    0 -0.23111935265E+02 -0.52014925620E+01  0.41251348522E+02  0.47569969471E+02  0.10566000000E+00 0. -1.
        994    1    1    2    0    0  0.18364885755E+02  0.88056712263E+01  0.77464767858E+01  0.17258115997E+03  0.17120000000E+03 0.  0.
        998    1    1    2    0    0  0.47470495103E+01 -0.36041786643E+01  0.14510021710E+04  0.14510488706E+04  0.10000000000E+02 0. -1.
</event>
<event>
 5    1  0.1279376E-008  0.3847673E+03  0.7957747E-01  0.3430660E+00
         13   -1    0    0    0    0  0.00000000000E+00  0.00000000000E+00  0.14999999963E+04  0.15000000000E+04  0.10566000000E+00 0. -1.
        994   -1    0    0    0    0 -0.00000000000E+00 -0.00000000000E+00  0.11368683772E-12  0.17120000000E+03  0.17120000000E+03 0.  0.
         13    1    1    2    0    0 -0.11597267551E+02 -0.12721245268E+02  0.77719944539E+02  0.79603565492E+02  0.10566000000E+00 0. -1.
        994    1    1    2    0    0  0.17454673538E+02  0.17022173863E+02  0.37044758267E+01  0.17296700024E+03  0.17120000000E+03 0.  0.
        998    1    1    2    0    0 -0.58574059872E+01 -0.43009285949E+01  0.14185755759E+04  0.14186294343E+04  0.10000000000E+02 0. -1.
</event>
<event>
 5    1  0.1279376E-008  0.3801126E+03  0.7957747E-01  0.3450668E+00
         13   -1    0    0    0    0  0.00000000000E+00  0.00000000000E+00  0.14999999963E+04  0.15000000000E+04  0.10566000000E+00 0. -1.
        994   -1    0    0    0    0 -0.00000000000E+00 -0.00000000000E+00  0.11368683772E-12  0.17120000000E+03  0.17120000000E+03 0.  0.
         13    1    1    2    0    0 -0.15624442359E+02 -0.28405133258E+02  0.12424944899E+03  0.12840915674E+03  0.10566000000E+00 0. -1.
        994    1    1    2    0    0  0.52800735580E+01  0.24385117923E+02  0.61593132281E+01  0.17311813970E+03  0.17120000000E+03 0.  0.
        998    1    1    2    0    0  0.10344368801E+02  0.40200153353E+01  0.13695912341E+04  0.13696727036E+04  0.10000000000E+02 0. -1.
</event>
<event>
 5    1  0.1279376E-008  0.3743573E+03  0.7957747E-01  0.3476102E+00
         13   -1    0    0    0    0  0.00000000000E+00  0.00000000000E+00  0.14999999963E+04  0.15000000000E+04  0.10566000000E+00 0. -1.
        994   -1    0    0    0    0 -0.00000000000E+00 -0.00000000000E+00  0.11368683772E-12  0.17120000000E+03  0.17120000000E+03 0.  0.
         13    1    1    2    0    0  0.48578088220E+02  0.28581251682E+02  0.30307325478E+03  0.30826956958E+03  0.10566000000E+00 0. -1.
        994    1    1    2    0    0 -0.23497646523E+01  0.15453499853E+02  0.78419080377E+01  0.17209087010E+03  0.17120000000E+03 0.  0.
        998    1    1    2    0    0 -0.46228323568E+02 -0.44034751535E+02  0.11890848335E+04  0.11908395603E+04  0.10000000000E+02 0. -1.
</event>
<event>
 5    1  0.1279376E-008  0.3761232E+03  0.7957747E-01  0.3468214E+00
         13   -1    0    0    0    0  0.00000000000E+00  0.00000000000E+00  0.14999999963E+04  0.15000000000E+04  0.10566000000E+00 0.  1.
        994   -1    0    0    0    0 -0.00000000000E+00 -0.00000000000E+00  0.11368683772E-12  0.17120000000E+03  0.17120000000E+03 0.  0.
         13    1    1    2    0    0 -0.19956480727E+02  0.48644588511E+02  0.23542124351E+03  0.24122133026E+03  0.10566000000E+00 0.  1.
        994    1    1    2    0    0  0.13638034154E+02 -0.19573436099E+02  0.80326779028E+01  0.17304068681E+03  0.17120000000E+03 0.  0.
        998    1    1    2    0    0  0.63184465726E+01 -0.29071152412E+02  0.12565460749E+04  0.12569379829E+04  0.10000000000E+02 0.  1.
</event>
<event>
 5    1  0.1279376E-008  0.3735599E+03  0.7957747E-01  0.3479689E+00
         13   -1    0    0    0    0  0.00000000000E+00  0.00000000000E+00  0.14999999963E+04  0.15000000000E+04  0.10566000000E+00 0. -1.
        994   -1    0    0    0    0 -0.00000000000E+00 -0.00000000000E+00  0.11368683772E-12  0.17120000000E+03  0.17120000000E+03 0.  0.
         13    1    1    2    0    0  0.47903469606E+02 -0.49177579075E+02  0.26138526467E+03  0.27025070663E+03  0.10566000000E+00 0. -1.
        994    1    1    2    0    0 -0.36398999126E+02  0.60206724750E+02  0.24520730282E+02  0.18670951517E+03  0.17120000000E+03 0.  0.
        998    1    1    2    0    0 -0.11504470480E+02 -0.11029145675E+02  0.12140940013E+04  0.12142397782E+04  0.10000000000E+02 0. -1.
</event>
<event>
 5    1  0.1279376E-008  0.3924619E+03  0.7957747E-01  0.3398629E+00
         13   -1    0    0    0    0  0.00000000000E+00  0.00000000000E+00  0.14999999963E+04  0.15000000000E+04  0.10566000000E+00 0.  1.
        994   -1    0    0    0    0 -0.00000000000E+00 -0.00000000000E+00  0.11368683772E-12  0.17120000000E+03  0.17120000000E+03 0.  0.
         13    1    1    2    0    0  0.40756970186E+02  0.66524382338E+02  0.11645539419E+03  0.14017308609E+03  0.10566000000E+00 0.  1.
        994    1    1    2    0    0 -0.32891725819E+02 -0.63486305484E+02  0.43039386409E+02  0.19045788352E+03  0.17120000000E+03 0.  0.
        998    1    1    2    0    0 -0.78652443661E+01 -0.30380768534E+01  0.13405052157E+04  0.13405690304E+04  0.10000000000E+02 0.  1.
</event>
<event>
 5    1  0.1279376E-008  0.3836346E+03  0.7957747E-01  0.3435484E+00
         13   -1    0    0    0    0  0.00000000000E+00  0.00000000000E+00  0.14999999963E+04  0.15000000000E+04  0.10566000000E+00 0.  1.
        994   -1    0    0    0    0 -0.00000000000E+00 -0.00000000000E+00  0.11368683772E-12  0.17120000000E+03  0.17120000000E+03 0.  0.
         13    1    1    2    0    0 -0.12497310667E+03  0.95214684069E+02  0.52874015770E+03  0.55158886771E+03  0.10566000000E+00 0.  1.
        994    1    1    2    0    0  0.94709080246E+02 -0.81869223314E+02  0.78450512101E+02  0.22613337316E+03  0.17120000000E+03 0.  0.
        998    1    1    2    0    0  0.30264026421E+02 -0.13345460754E+02  0.89280932648E+03  0.89347775913E+03  0.10000000000E+02 0.  1.
</event>
<event>
 5    1  0.1279376E-008  0.3861509E+03  0.7957747E-01  0.3424806E+00
         13   -1    0    0    0    0  0.00000000000E+00  0.00000000000E+00  0.14999999963E+04  0.15000000000E+04  0.10566000000E+00 0.  1.
        994   -1    0    0    0    0 -0.00000000000E+00 -0.00000000000E+00  0.11368683772E-12  0.17120000000E+03  0.17120000000E+03 0.  0.
         13    1    1    2    0    0  0.28502308028E+00  0.10886345860E+02  0.57150210885E+02  0.58178617486E+02  0.10566000000E+00 0.  1.
        994    1    1    2    0    0  0.15738709396E+01 -0.64208869240E+01  0.12030178033E+01  0.17133181873E+03  0.17120000000E+03 0.  0.
        998    1    1    2    0    0 -0.18588940199E+01 -0.44654589361E+01  0.14416467676E+04  0.14416895638E+04  0.10000000000E+02 0.  1.
</event>
<event>
 5    1  0.1279376E-008  0.4052642E+03  0.7957747E-01  0.3348027E+00
         13   -1    0    0    0    0  0.00000000000E+00  0.00000000000E+00  0.14999999963E+04  0.15000000000E+04  0.10566000000E+00 0. -1.
        994   -1    0    0    0    0 -0.00000000000E+00 -0.00000000000E+00  0.11368683772E-12  0.17120000000E+03  0.17120000000E+03 0.  0.
         13    1    1    2    0    0 -0.10895994031E+03  0.52700023425E+02  0.20252866419E+03  0.23593946690E+03  0.10566000000E+00 0. -1.
        994    1    1    2    0    0  0.99004104598E+02 -0.51389224376E+02  0.82744855778E+02  0.22045139207E+03  0.17120000000E+03 0.  0.
        998    1    1    2    0    0  0.99558357111E+01 -0.13107990489E+01  0.12147264763E+04  0.12148091410E+04  0.10000000000E+02 0. -1.
</event>
<event>
 5    1  0.1279376E-008  0.3727870E+03  0.7957747E-01  0.3483180E+00
         13   -1    0    0    0    0  0.00000000000E+00  0.00000000000E+00  0.14999999963E+04  0.15000000000E+04  0.10566000000E+00 0. -1.
        994   -1    0    0    0    0 -0.00000000000E+00 -0.00000000000E+00  0.11368683772E-12  0.17120000000E+03  0.17120000000E+03 0.  0.
         13    1    1    2    0    0  0.84116530679E+01 -0.44060085794E+02  0.11982705478E+03  0.12794757242E+03  0.10566000000E+00 0. -1.
        994    1    1    2    0    0 -0.21211899551E+01  0.39089479624E+02  0.13086174021E+02  0.17610557860E+03  0.17120000000E+03 0.  0.
        998    1    1    2    0    0 -0.62904631127E+01  0.49706061698E+01  0.13670867675E+04  0.13671468490E+04  0.10000000000E+02 0. -1.
</event>
<event>
 5    1  0.1279376E-008  0.3696284E+03  0.7957747E-01  0.3497600E+00
         13   -1    0    0    0    0  0.00000000000E+00  0.00000000000E+00  0.14999999963E+04  0.15000000000E+04  0.10566000000E+00 0. -1.
        994   -1    0    0    0    0 -0.00000000000E+00 -0.00000000000E+00  0.11368683772E-12  0.17120000000E+03  0.17120000000E+03 0.  0.
         13    1    1    2    0    0 -0.11916060140E+03  0.17376940168E+02  0.50734092038E+03  0.52143650393E+03  0.10566000000E+00 0. -1.
        994    1    1    2    0    0  0.11595638480E+03 -0.11031486029E+02  0.58018282857E+02  0.21504217727E+03  0.17120000000E+03 0.  0.
        998    1    1    2    0    0  0.32042165977E+01 -0.63454541392E+01  0.93464079304E+03  0.93472131880E+03  0.10000000000E+02 0.  0.
</event>
<event>
 5    1  0.1279376E-008  0.3849225E+03  0.7957747E-01  0.3430001E+00
         13   -1    0    0    0    0  0.00000000000E+00  0.00000000000E+00  0.14999999963E+04  0.15000000000E+04  0.10566000000E+00 0.  1.
        994   -1    0    0    0    0 -0.00000000000E+00 -0.00000000000E+00  0.11368683772E-12  0.17120000000E+03  0.17120000000E+03 0.  0.
         13    1    1    2    0    0 -0.78990241484E+01  0.14171183309E+02  0.85612408023E+02  0.87136172686E+02  0.10566000000E+00 0.  1.
        994    1    1    2    0    0 -0.63211011244E+01 -0.27889557889E+01  0.18256651296E+01  0.17134908126E+03  0.17120000000E+03 0.  0.
        998    1    1    2    0    0  0.14220125273E+02 -0.11382227520E+02  0.14125619231E+04  0.14127147461E+04  0.10000000000E+02 0.  1.
</event>
<event>
 5    1  0.1279376E-008  0.3857262E+03  0.7957747E-01  0.3426598E+00
         13   -1    0    0    0    0  0.00000000000E+00  0.00000000000E+00  0.14999999963E+04  0.15000000000E+04  0.10566000000E+00 0. -1.
        994   -1    0    0    0    0 -0.00000000000E+00 -0.00000000000E+00  0.11368683772E-12  0.17120000000E+03  0.17120000000E+03 0.  0.
         13    1    1    2    0    0 -0.11032275961E+02 -0.28577521080E+01  0.51495171929E+02  0.52741271846E+02  0.10566000000E+00 0. -1.
        994    1    1    2    0    0  0.91027610007E+01 -0.41719148101E+01  0.15990500464E+01  0.17150003525E+03  0.17120000000E+03 0.  0.
        998    1    1    2    0    0  0.19295149600E+01  0.70296669181E+01  0.14469057743E+04  0.14469586929E+04  0.10000000000E+02 0. -1.
</event>
<event>
 5    1  0.1279376E-008  0.3796685E+03  0.7957747E-01  0.3452603E+00
         13   -1    0    0    0    0  0.00000000000E+00  0.00000000000E+00  0.14999999963E+04  0.15000000000E+04  0.10566000000E+00 0.  1.
        994   -1    0    0    0    0 -0.00000000000E+00 -0.00000000000E+00  0.11368683772E-12  0.17120000000E+03  0.17120000000E+03 0.  0.
         13    1    1    2    0    0  0.35455921606E+02  0.96094650458E+01  0.16414952105E+03  0.16820981131E+03  0.10566000000E+00 0.  1.
        994    1    1    2    0    0 -0.26310428662E+02  0.37725259265E+02  0.11412781393E+02  0.17763762389E+03  0.17120000000E+03 0.  0.
        998    1    1    2    0    0 -0.91454929436E+01 -0.47334724311E+02  0.13244376938E+04  0.13253525648E+04  0.10000000000E+02 0.  1.
</event>
<event>
 5    1  0.1279376E-008  0.3847749E+03  0.7957747E-01  0.3430628E+00
         13   -1    0    0    0    0  0.00000000000E+00  0.00000000000E+00  0.14999999963E+04  0.15000000000E+04  0.10566000000E+00 0. -1.
        994   -1    0    0    0    0 -0.00000000000E+00 -0.00000000000E+00  0.11368683772E-12  0.17120000000E+03  0.17120000000E+03 0.  0.
         13    1    1    2    0    0  0.56558531939E+01 -0.82881974149E+01  0.29162490574E+02  0.30840637351E+02  0.10566000000E+00 0. -1.
        994    1    1    2    0    0  0.30750691775E+01  0.44814184325E+01  0.18391797666E+01  0.17129612297E+03  0.17120000000E+03 0.  0.
        998    1    1    2    0    0 -0.87309223714E+01  0.38067789824E+01  0.14689983259E+04  0.14690632397E+04  0.10000000000E+02 0. -1.
</event>
<event>
 5    1  0.1279376E-008  0.3992503E+03  0.7957747E-01  0.3371396E+00
         13   -1    0    0    0    0  0.00000000000E+00  0.00000000000E+00  0.14999999963E+04  0.15000000000E+04  0.10566000000E+00 0. -1.
        994   -1    0    0    0    0 -0.00000000000E+00 -0.00000000000E+00  0.11368683772E-12  0.17120000000E+03  0.17120000000E+03 0.  0.
         13    1    1    2    0    0 -0.83294564446E+02  0.97034313120E+02  0.56436988954E+03  0.57867696150E+03  0.10566000000E+00 0. -1.
        994    1    1    2    0    0 -0.64309593966E+02 -0.49962642877E+02  0.53711913001E+02  0.19704415535E+03  0.17120000000E+03 0.  0.
        998    1    1    2    0    0  0.14760415841E+03 -0.47071670243E+02  0.88191819374E+03  0.89547888315E+03  0.10000000000E+02 0. -1.
</event>
<event>
 5    1  0.1279376E-008  0.3736376E+03  0.7957747E-01  0.3479339E+00
         13   -1    0    0    0    0  0.00000000000E+00  0.00000000000E+00  0.14999999963E+04  0.15000000000E+04  0.10566000000E+00 0.  1.
        994   -1    0    0    0    0 -0.00000000000E+00 -0.00000000000E+00  0.11368683772E-12  0.17120000000E+03  0.17120000000E+03 0.  0.
         13    1    1    2    0    0 -0.14583144242E+02 -0.66400364769E+02  0.39700616665E+03  0.40278478629E+03  0.10566000000E+00 0.  1.
        994    1    1    2    0    0  0.17107200554E+02  0.86527573319E+01  0.86360868662E+01  0.17248637197E+03  0.17120000000E+03 0.  0.
        998    1    1    2    0    0 -0.25240563128E+01  0.57747607437E+02  0.10943577428E+04  0.10959288417E+04  0.10000000000E+02 0.  1.
</event>
<event>
 5    1  0.1279376E-008  0.3816596E+03  0.7957747E-01  0.3443964E+00
         13   -1    0    0    0    0  0.00000000000E+00  0.00000000000E+00  0.14999999963E+04  0.15000000000E+04  0.10566000000E+00 0. -1.
        994   -1    0    0    0    0 -0.00000000000E+00 -0.00000000000E+00  0.11368683772E-12  0.17120000000E+03  0.17120000000E+03 0.  0.
         13    1    1    2    0    0 -0.27334312905E+02 -0.15422906640E+01  0.11785294442E+03  0.12099120214E+03  0.10566000000E+00 0. -1.
        994    1    1    2    0    0  0.10307983417E+02 -0.14908379878E+02  0.43906955305E+01  0.17221275365E+03  0.17120000000E+03 0.  0.
        998    1    1    2    0    0  0.17026329488E+02  0.16450670542E+02  0.13777563563E+04  0.13779960442E+04  0.10000000000E+02 0. -1.
</event>
<event>
 5    1  0.1279376E-008  0.3333546E+03  0.7957747E-01  0.3683357E+00
         13   -1    0    0    0    0  0.00000000000E+00  0.00000000000E+00  0.14999999963E+04  0.15000000000E+04  0.10566000000E+00 0.  1.
        994   -1    0    0    0    0 -0.00000000000E+00 -0.00000000000E+00  0.11368683772E-12  0.17120000000E+03  0.17120000000E+03 0.  0.
         13    1    1    2    0    0 -0.25890651770E+03  0.18348888505E+02  0.76811723397E+03  0.81078564548E+03  0.10566000000E+00 0.  1.
        994    1    1    2    0    0  0.24071979694E+03  0.10376486413E+02  0.27998738664E+03  0.40713151289E+03  0.17120000000E+03 0.  0.
        998    1    1    2    0    0  0.18186720767E+02 -0.28725374919E+02  0.45189537566E+03  0.45328284164E+03  0.10000000000E+02 0.  1.
</event>
<event>
 5    1  0.1279376E-008  0.3764581E+03  0.7957747E-01  0.3466727E+00
         13   -1    0    0    0    0  0.00000000000E+00  0.00000000000E+00  0.14999999963E+04  0.15000000000E+04  0.10566000000E+00 0. -1.
        994   -1    0    0    0    0 -0.00000000000E+00 -0.00000000000E+00  0.11368683772E-12  0.17120000000E+03  0.17120000000E+03 0.  0.
         13    1    1    2    0    0 -0.70138664608E+02 -0.51295387772E+02  0.27221735823E+03  0.28574980379E+03  0.10566000000E+00 0. -1.
        994    1    1    2    0    0  0.35870973312E+02  0.21325482181E+02  0.20650645898E+02  0.17741869150E+03  0.17120000000E+03 0.  0.
        998    1    1    2    0    0  0.34267691297E+02  0.29969905590E+02  0.12071319921E+04  0.12080315047E+04  0.10000000000E+02 0. -1.
</event>
<event>
 5    1  0.1279376E-008  0.3860081E+03  0.7957747E-01  0.3425408E+00
         13   -1    0    0    0    0  0.00000000000E+00  0.00000000000E+00  0.14999999963E+04  0.15000000000E+04  0.10566000000E+00 0. -1.
        994   -1    0    0    0    0 -0.00000000000E+00 -0.00000000000E+00  0.11368683772E-12  0.17120000000E+03  0.17120000000E+03 0.  0.
         13    1    1    2    0    0  0.11856653839E+02  0.66011559928E+01  0.78346352767E+02  0.79513003067E+02  0.10566000000E+00 0. -1.
        994    1    1    2    0    0 -0.11225375976E+02 -0.10797640874E+02  0.19260583445E+01  0.17191785194E+03  0.17120000000E+03 0.  0.
        998    1    1    2    0    0 -0.63127786240E+00  0.41964848815E+01  0.14197275852E+04  0.14197691450E+04  0.10000000000E+02 0. -1.
</event>
<event>
 5    1  0.1279376E-008  0.3737861E+03  0.7957747E-01  0.3478670E+00
         13   -1    0    0    0    0  0.00000000000E+00  0.00000000000E+00  0.14999999963E+04  0.15000000000E+04  0.10566000000E+00 0.  1.
        994   -1    0    0    0    0 -0.00000000000E+00 -0.00000000000E+00  0.11368683772E-12  0.17120000000E+03  0.17120000000E+03 0.  0.
         13    1    1    2    0    0  0.32267300038E+02 -0.10064971431E+03  0.52167760520E+03  0.53227725724E+03  0.10566000000E+00 0.  1.
        994    1    1    2    0    0 -0.35826793549E+02  0.92852554654E+02  0.41904096731E+02  0.20241183109E+03  0.17120000000E+03 0.  0.
        998    1    1    2    0    0  0.35594935119E+01  0.77971596571E+01  0.93641829434E+03  0.93651091167E+03  0.10000000000E+02 0.  1.
</event>
<event>
 5    1  0.1279376E-008  0.3696582E+03  0.7957747E-01  0.3497463E+00
         13   -1    0    0    0    0  0.00000000000E+00  0.00000000000E+00  0.14999999963E+04  0.15000000000E+04  0.10566000000E+00 0. -1.
        994   -1    0    0    0    0 -0.00000000000E+00 -0.00000000000E+00  0.11368683772E-12  0.17120000000E+03  0.17120000000E+03 0.  0.
         13    1    1    2    0    0  0.37293250202E+02 -0.11467142359E+03  0.48697787069E+03  0.50168494058E+03  0.10566000000E+00 0. -1.
        994    1    1    2    0    0 -0.36690756913E+02  0.11749415466E+03  0.63886715197E+02  0.22032258259E+03  0.17120000000E+03 0.  0.
        998    1    1    2    0    0 -0.60249328936E+00 -0.28227310649E+01  0.94913541040E+03  0.94919247683E+03  0.10000000000E+02 0.  0.
</event>
<event>
 5    1  0.1279376E-008  0.3844093E+03  0.7957747E-01  0.3432181E+00
         13   -1    0    0    0    0  0.00000000000E+00  0.00000000000E+00  0.14999999963E+04  0.15000000000E+04  0.10566000000E+00 0. -1.
        994   -1    0    0    0    0 -0.00000000000E+00 -0.00000000000E+00  0.11368683772E-12  0.17120000000E+03  0.17120000000E+03 0.  0.
         13    1    1    2    0    0  0.10605712989E+02  0.29873409565E+01  0.30793668472E+02  0.32705756925E+02  0.10566000000E+00 0. -1.
        994    1    1    2    0    0 -0.10550081067E+02  0.61183144374E+00  0.22917490026E+01  0.17154116317E+03  0.17120000000E+03 0.  0.
        998    1    1    2    0    0 -0.55631922250E-01 -0.35991724002E+01  0.14669145788E+04  0.14669530799E+04  0.10000000000E+02 0. -1.
</event>
<event>
 5    1  0.1279376E-008  0.3825768E+03  0.7957747E-01  0.3440015E+00
         13   -1    0    0    0    0  0.00000000000E+00  0.00000000000E+00  0.14999999963E+04  0.15000000000E+04  0.10566000000E+00 0. -1.
        994   -1    0    0    0    0 -0.00000000000E+00 -0.00000000000E+00  0.11368683772E-12  0.17120000000E+03  0.17120000000E+03 0.  0.
         13    1    1    2    0    0 -0.14028767420E+02 -0.18642027408E+02  0.96701799426E+02  0.99476533300E+02  0.10566000000E+00 0. -1.
        994    1    1    2    0    0  0.89436555505E+01  0.77475091601E+01  0.33022653285E+01  0.17164019876E+03  0.17120000000E+03 0.  0.
        998    1    1    2    0    0  0.50851118700E+01  0.10894518248E+02  0.13999959315E+04  0.14000832679E+04  0.10000000000E+02 0. -1.
</event>
<event>
 5    1  0.1279376E-008  0.3689130E+03  0.7957747E-01  0.3500902E+00
         13   -1    0    0    0    0  0.00000000000E+00  0.00000000000E+00  0.14999999963E+04  0.15000000000E+04  0.10566000000E+00 0. -1.
        994   -1    0    0    0    0 -0.00000000000E+00 -0.00000000000E+00  0.11368683772E-12  0.17120000000E+03  0.17120000000E+03 0.  0.
         13    1    1    2    0    0  0.35412537682E+02 -0.41503649985E+02  0.12582904089E+03  0.13714794742E+03  0.10566000000E+00 0. -1.
        994    1    1    2    0    0 -0.56508072172E+02  0.48037627072E+02  0.29180465059E+02  0.18884309724E+03  0.17120000000E+03 0.  0.
        998    1    1    2    0    0  0.21095534490E+02 -0.65339770866E+01  0.13449904903E+04  0.13452089553E+04  0.10000000000E+02 0. -1.
</event>
<event>
 5    1  0.1279376E-008  0.3803471E+03  0.7957747E-01  0.3449649E+00
         13   -1    0    0    0    0  0.00000000000E+00  0.00000000000E+00  0.14999999963E+04  0.15000000000E+04  0.10566000000E+00 0. -1.
        994   -1    0    0    0    0 -0.00000000000E+00 -0.00000000000E+00  0.11368683772E-12  0.17120000000E+03  0.17120000000E+03 0.  0.
         13    1    1    2    0    0 -0.48542664518E+02 -0.11542747227E+02  0.26877339979E+03  0.27336564687E+03  0.10566000000E+00 0. -1.
        994    1    1    2    0    0  0.43255396255E+02  0.17311432674E+02  0.11240502457E+02  0.17778218106E+03  0.17120000000E+03 0.  0.
        998    1    1    2    0    0  0.52872682624E+01 -0.57686854462E+01  0.12199860940E+04  0.12200521721E+04  0.10000000000E+02 0. -1.
</event>
<event>
 5    1  0.1279376E-008  0.3849240E+03  0.7957747E-01  0.3429995E+00
         13   -1    0    0    0    0  0.00000000000E+00  0.00000000000E+00  0.14999999963E+04  0.15000000000E+04  0.10566000000E+00 0.  1.
        994   -1    0    0    0    0 -0.00000000000E+00 -0.00000000000E+00  0.11368683772E-12  0.17120000000E+03  0.17120000000E+03 0.  0.
         13    1    1    2    0    0  0.13977844767E+02  0.24570982278E+01  0.58385215712E+02  0.60085456258E+02  0.10566000000E+00 0.  1.
        994    1    1    2    0    0 -0.14200906613E+02 -0.56619945433E+01  0.24370904353E+01  0.17189852629E+03  0.17120000000E+03 0.  0.
        998    1    1    2    0    0  0.22306184576E+00  0.32048963155E+01  0.14391776901E+04  0.14392160175E+04  0.10000000000E+02 0.  1.
</event>
<event>
 5    1  0.1279376E-008  0.3684530E+03  0.7957747E-01  0.3503031E+00
         13   -1    0    0    0    0  0.00000000000E+00  0.00000000000E+00  0.14999999963E+04  0.15000000000E+04  0.10566000000E+00 0. -1.
        994   -1    0    0    0    0 -0.00000000000E+00 -0.00000000000E+00  0.11368683772E-12  0.17120000000E+03  0.17120000000E+03 0.  0.
         13    1    1    2    0    0  0.32581994941E+01  0.16523771077E+02  0.94214623712E+01  0.19298341685E+02  0.10566000000E+00 0. -1.
        994    1    1    2    0    0 -0.32846320762E+01 -0.15284190978E+02  0.10973340931E+02  0.17226215345E+03  0.17120000000E+03 0.  0.
        998    1    1    2    0    0  0.26432582058E-01 -0.12395800994E+01  0.14796051930E+04  0.14796395049E+04  0.10000000000E+02 0. -1.
</event>
<event>
 5    1  0.1279376E-008  0.3846037E+03  0.7957747E-01  0.3431355E+00
         13   -1    0    0    0    0  0.00000000000E+00  0.00000000000E+00  0.14999999963E+04  0.15000000000E+04  0.10566000000E+00 0.  1.
        994   -1    0    0    0    0 -0.00000000000E+00 -0.00000000000E+00  0.11368683772E-12  0.17120000000E+03  0.17120000000E+03 0.  0.
         13    1    1    2    0    0 -0.79603397103E+01 -0.99448064563E+01  0.42898715478E+02  0.44750163546E+02  0.10566000000E+00 0.  1.
        994    1    1    2    0    0  0.99174570268E+01  0.10431747227E+02  0.25095519643E+01  0.17182233602E+03  0.17120000000E+03 0.  0.
        998    1    1    2    0    0 -0.19571173166E+01 -0.48694077068E+00  0.14545917288E+04  0.14546275004E+04  0.10000000000E+02 0.  1.
</event>
<event>
 5    1  0.1279376E-008  0.3851343E+03  0.7957747E-01  0.3429103E+00
         13   -1    0    0    0    0  0.00000000000E+00  0.00000000000E+00  0.14999999963E+04  0.15000000000E+04  0.10566000000E+00 0.  1.
        994   -1    0    0    0    0 -0.00000000000E+00 -0.00000000000E+00  0.11368683772E-12  0.17120000000E+03  0.17120000000E+03 0.  0.
         13    1    1    2    0    0 -0.16156442212E+02 -0.70628918668E+01  0.10209875213E+03  0.10361023799E+03  0.10566000000E+00 0.  1.
        994    1    1    2    0    0  0.46288941219E+01  0.10164943605E+02  0.19736548486E+01  0.17157531306E+03  0.17120000000E+03 0.  0.
        998    1    1    2    0    0  0.11527548090E+02 -0.31020517386E+01  0.13959275893E+04  0.13960144489E+04  0.10000000000E+02 0.  1.
</event>
<event>
 5    1  0.1279376E-008  0.3762795E+03  0.7957747E-01  0.3467520E+00
         13   -1    0    0    0    0  0.00000000000E+00  0.00000000000E+00  0.14999999963E+04  0.15000000000E+04  0.10566000000E+00 0. -1.
        994   -1    0    0    0    0 -0.00000000000E+00 -0.00000000000E+00  0.11368683772E-12  0.17120000000E+03  0.17120000000E+03 0.  0.
         13    1    1    2    0    0 -0.98667477570E+02 -0.31809385315E+02  0.28939458800E+03  0.30740258108E+03  0.10566000000E+00 0. -1.
        994    1    1    2    0    0  0.10000713999E+03  0.40045964127E+02  0.57044962512E+02  0.21016344839E+03  0.17120000000E+03 0.  0.
        998    1    1    2    0    0 -0.13396624238E+01 -0.82365788125E+01  0.11535604458E+04  0.11536339705E+04  0.10000000000E+02 0. -1.
</event>
<event>
 5    1  0.1279376E-008  0.3822737E+03  0.7957747E-01  0.3441318E+00
         13   -1    0    0    0    0  0.00000000000E+00  0.00000000000E+00  0.14999999963E+04  0.15000000000E+04  0.10566000000E+00 0.  1.
        994   -1    0    0    0    0 -0.00000000000E+00 -0.00000000000E+00  0.11368683772E-12  0.17120000000E+03  0.17120000000E+03 0.  0.
         13    1    1    2    0    0 -0.64217686538E+01  0.23640093270E+02  0.93304613319E+02  0.96466860388E+02  0.10566000000E+00 0.  1.
        994    1    1    2    0    0  0.89428985339E+01 -0.24825750802E+02  0.53034905809E+01  0.17330279960E+03  0.17120000000E+03 0.  0.
        998    1    1    2    0    0 -0.25211298801E+01  0.11856575317E+01  0.14013918924E+04  0.14014303400E+04  0.10000000000E+02 0.  1.
</event>
<event>
 5    1  0.1279376E-008  0.3840016E+03  0.7957747E-01  0.3433918E+00
         13   -1    0    0    0    0  0.00000000000E+00  0.00000000000E+00  0.14999999963E+04  0.15000000000E+04  0.10566000000E+00 0.  1.
        994   -1    0    0    0    0 -0.00000000000E+00 -0.00000000000E+00  0.11368683772E-12  0.17120000000E+03  0.17120000000E+03 0.  0.
         13    1    1    2    0    0 -0.48892831450E+01  0.12364303372E+02  0.40781350351E+02  0.42894181284E+02  0.10566000000E+00 0.  1.
        994    1    1    2    0    0 -0.27828392805E+01 -0.12317928661E+02  0.26529849874E+01  0.17168562517E+03  0.17120000000E+03 0.  0.
        998    1    1    2    0    0  0.76721224255E+01 -0.46374710496E-01  0.14565656609E+04  0.14566201935E+04  0.10000000000E+02 0.  1.
</event>
<event>
 5    1  0.1279376E-008  0.3798961E+03  0.7957747E-01  0.3451611E+00
         13   -1    0    0    0    0  0.00000000000E+00  0.00000000000E+00  0.14999999963E+04  0.15000000000E+04  0.10566000000E+00 0. -1.
        994   -1    0    0    0    0 -0.00000000000E+00 -0.00000000000E+00  0.11368683772E-12  0.17120000000E+03  0.17120000000E+03 0.  0.
         13    1    1    2    0    0 -0.22676512883E+02 -0.10547967759E+02  0.69724098855E+02  0.74073915689E+02  0.10566000000E+00 0. -1.
        994    1    1    2    0    0  0.25554049980E+02  0.93288629127E+01  0.66642697769E+01  0.17347590509E+03  0.17120000000E+03 0.  0.
        998    1    1    2    0    0 -0.28775370975E+01  0.12191048459E+01  0.14236116276E+04  0.14236501792E+04  0.10000000000E+02 0. -1.
</event>
<event>
 5    1  0.1279376E-008  0.3738039E+03  0.7957747E-01  0.3478589E+00
         13   -1    0    0    0    0  0.00000000000E+00  0.00000000000E+00  0.14999999963E+04  0.15000000000E+04  0.10566000000E+00 0. -1.
        994   -1    0    0    0    0 -0.00000000000E+00 -0.00000000000E+00  0.11368683772E-12  0.17120000000E+03  0.17120000000E+03 0.  0.
         13    1    1    2    0    0  0.12011679457E+02 -0.41236679551E+02  0.12199140576E+03  0.12933158325E+03  0.10566000000E+00 0. -1.
        994    1    1    2    0    0  0.84996748238E+01  0.33325919319E+02  0.11341961829E+02  0.17498840381E+03  0.17120000000E+03 0.  0.
        998    1    1    2    0    0 -0.20511354281E+02  0.79107602314E+01  0.13666666287E+04  0.13668800129E+04  0.10000000000E+02 0. -1.
</event>
<event>
 5    1  0.1279376E-008  0.3753223E+03  0.7957747E-01  0.3471782E+00
         13   -1    0    0    0    0  0.00000000000E+00  0.00000000000E+00  0.14999999963E+04  0.15000000000E+04  0.10566000000E+00 0.  1.
        994   -1    0    0    0    0 -0.00000000000E+00 -0.00000000000E+00  0.11368683772E-12  0.17120000000E+03  0.17120000000E+03 0.  0.
         13    1    1    2    0    0 -0.17084665795E+03  0.11336563828E+03  0.96563373248E+03  0.98716202568E+03  0.10566000000E+00 0.  1.
        994    1    1    2    0    0  0.16907684209E+03 -0.10575481392E+03  0.15637289338E+03  0.30583162195E+03  0.17120000000E+03 0.  0.
        998    1    1    2    0    0  0.17698158588E+01 -0.76108243576E+01  0.37799337042E+03  0.37820635237E+03  0.10000000000E+02 0.  0.
</event>
<event>
 5    1  0.1279376E-008  0.3864307E+03  0.7957747E-01  0.3423627E+00
         13   -1    0    0    0    0  0.00000000000E+00  0.00000000000E+00  0.14999999963E+04  0.15000000000E+04  0.10566000000E+00 0. -1.
        994   -1    0    0    0    0 -0.00000000000E+00 -0.00000000000E+00  0.11368683772E-12  0.17120000000E+03  0.17120000000E+03 0.  0.
         13    1    1    2    0    0 -0.60229722091E+01 -0.35519631822E+02  0.24367387987E+02  0.43493691501E+02  0.10566000000E+00 0. -1.
        994    1    1    2    0    0  0.86575111983E+01  0.31852269050E+02  0.23959258232E+02  0.17599149297E+03  0.17120000000E+03 0.  0.
        998    1    1    2    0    0 -0.26345389892E+01  0.36673627727E+01  0.14516733501E+04  0.14517148155E+04  0.10000000000E+02 0. -1.
</event>
<event>
 5    1  0.1279376E-008  0.3757344E+03  0.7957747E-01  0.3469945E+00
         13   -1    0    0    0    0  0.00000000000E+00  0.00000000000E+00  0.14999999963E+04  0.15000000000E+04  0.10566000000E+00 0.  1.
        994   -1    0    0    0    0 -0.00000000000E+00 -0.00000000000E+00  0.11368683772E-12  0.17120000000E+03  0.17120000000E+03 0.  0.
         13    1    1    2    0    0  0.91182523162E+01  0.87790531268E+01  0.97610375609E+01  0.15984471133E+02  0.10566000000E+00 0.  1.
        994    1    1    2    0    0 -0.17835957763E+02 -0.20287124505E+01  0.73954678786E+01  0.17229733024E+03  0.17120000000E+03 0.  0.
        998    1    1    2    0    0  0.87177054470E+01 -0.67503406763E+01  0.14828434908E+04  0.14829181986E+04  0.10000000000E+02 0.  1.
</event>
<event>
 5    1  0.1279376E-008  0.3776032E+03  0.7957747E-01  0.3461662E+00
         13   -1    0    0    0    0  0.00000000000E+00  0.00000000000E+00  0.14999999963E+04  0.15000000000E+04  0.10566000000E+00 0. -1.
        994   -1    0    0    0    0 -0.00000000000E+00 -0.00000000000E+00  0.11368683772E-12  0.17120000000E+03  0.17120000000E+03 0.  0.
         13    1    1    2    0    0  0.27809205623E+02 -0.83217041239E+01  0.76680903536E+02  0.81991309345E+02  0.10566000000E+00 0. -1.
        994    1    1    2    0    0 -0.21039982578E+02 -0.52592829016E+01  0.69344469626E+01  0.17270746214E+03  0.17120000000E+03 0.  0.
        998    1    1    2    0    0 -0.67692230448E+01  0.13580987026E+02  0.14163846458E+04  0.14165012285E+04  0.10000000000E+02 0. -1.
</event>
<event>
 5    1  0.1279376E-008  0.3857792E+03  0.7957747E-01  0.3426374E+00
         13   -1    0    0    0    0  0.00000000000E+00  0.00000000000E+00  0.14999999963E+04  0.15000000000E+04  0.10566000000E+00 0. -1.
        994   -1    0    0    0    0 -0.00000000000E+00 -0.00000000000E+00  0.11368683772E-12  0.17120000000E+03  0.17120000000E+03 0.  0.
         13    1    1    2    0    0  0.11206947409E+01 -0.14444341053E+02  0.83045450048E+02  0.84299779851E+02  0.10566000000E+00 0. -1.
        994    1    1    2    0    0 -0.18316787718E+00  0.12449236090E+02  0.17524582021E+01  0.17166108511E+03  0.17120000000E+03 0.  0.
        998    1    1    2    0    0 -0.93752686371E+00  0.19951049629E+01  0.14152020880E+04  0.14152391350E+04  0.10000000000E+02 0. -1.
</event>
<event>
 5    1  0.1279376E-008  0.3831263E+03  0.7957747E-01  0.3437658E+00
         13   -1    0    0    0    0  0.00000000000E+00  0.00000000000E+00  0.14999999963E+04  0.15000000000E+04  0.10566000000E+00 0.  1.
        994   -1    0    0    0    0 -0.00000000000E+00 -0.00000000000E+00  0.11368683772E-12  0.17120000000E+03  0.17120000000E+03 0.  0.
         13    1    1    2    0    0 -0.13560977594E+02  0.10625856087E+01  0.36668585647E+02  0.39110427495E+02  0.10566000000E+00 0.  1.
        994    1    1    2    0    0 -0.24581648551E-01  0.59325148911E+01  0.26797121917E+01  0.17132371755E+03  0.17120000000E+03 0.  0.
        998    1    1    2    0    0  0.13585559242E+02 -0.69951004998E+01  0.14606516984E+04  0.14607658550E+04  0.10000000000E+02 0.  1.
</event>
<event>
 5    1  0.1279376E-008  0.3769909E+03  0.7957747E-01  0.3464366E+00
         13   -1    0    0    0    0  0.00000000000E+00  0.00000000000E+00  0.14999999963E+04  0.15000000000E+04  0.10566000000E+00 0. -1.
        994   -1    0    0    0    0 -0.00000000000E+00 -0.00000000000E+00  0.11368683772E-12  0.17120000000E+03  0.17120000000E+03 0.  0.
         13    1    1    2    0    0 -0.55030825494E+02 -0.21094304355E+02  0.10337543956E+03  0.11899518520E+03  0.10566000000E+00 0. -1.
        994    1    1    2    0    0  0.64197634469E+02  0.17030066637E+02  0.30668806090E+02  0.18617565659E+03  0.17120000000E+03 0.  0.
        998    1    1    2    0    0 -0.91668089740E+01  0.40642377178E+01  0.13659557506E+04  0.13660291582E+04  0.10000000000E+02 0. -1.
</event>
<event>
 5    1  0.1279376E-008  0.3745854E+03  0.7957747E-01  0.3475079E+00
         13   -1    0    0    0    0  0.00000000000E+00  0.00000000000E+00  0.14999999963E+04  0.15000000000E+04  0.10566000000E+00 0. -1.
        994   -1    0    0    0    0 -0.00000000000E+00 -0.00000000000E+00  0.11368683772E-12  0.17120000000E+03  0.17120000000E+03 0.  0.
         13    1    1    2    0    0 -0.67733639615E+02  0.21499705158E+02  0.16225330414E+03  0.17713336537E+03  0.10566000000E+00 0. -1.
        994    1    1    2    0    0  0.72282462726E+02 -0.19332677981E+02  0.33553859089E+02  0.18982573144E+03  0.17120000000E+03 0.  0.
        998    1    1    2    0    0 -0.45488231110E+01 -0.21670271769E+01  0.13041928330E+04  0.13042409032E+04  0.10000000000E+02 0. -1.
</event>
<event>
 5    1  0.1279376E-008  0.3827319E+03  0.7957747E-01  0.3439349E+00
         13   -1    0    0    0    0  0.00000000000E+00  0.00000000000E+00  0.14999999963E+04  0.15000000000E+04  0.10566000000E+00 0. -1.
        994   -1    0    0    0    0 -0.00000000000E+00 -0.00000000000E+00  0.11368683772E-12  0.17120000000E+03  0.17120000000E+03 0.  0.
         13    1    1    2    0    0 -0.20063062164E+02 -0.21587579142E+02  0.17619952738E+03  0.17864723521E+03  0.10566000000E+00 0. -1.
        994    1    1    2    0    0 -0.35476360151E+01  0.81446603836E+01  0.30219425026E+01  0.17145697230E+03  0.17120000000E+03 0.  0.
        998    1    1    2    0    0  0.23610698179E+02  0.13442918759E+02  0.13207785264E+04  0.13210957925E+04  0.10000000000E+02 0. -1.
</event>
<event>
 5    1  0.1279376E-008  0.3702959E+03  0.7957747E-01  0.3494532E+00
         13   -1    0    0    0    0  0.00000000000E+00  0.00000000000E+00  0.14999999963E+04  0.15000000000E+04  0.10566000000E+00 0. -1.
        994   -1    0    0    0    0 -0.00000000000E+00 -0.00000000000E+00  0.11368683772E-12  0.17120000000E+03  0.17120000000E+03 0.  0.
         13    1    1    2    0    0  0.27692617866E+02 -0.58060158042E+01  0.31387319530E+02  0.42258323382E+02  0.10566000000E+00 0. -1.
        994    1    1    2    0    0 -0.20144000319E+02  0.13031512911E+02  0.13112333634E+02  0.17336947358E+03  0.17120000000E+03 0.  0.
        998    1    1    2    0    0 -0.75486175476E+01 -0.72254971064E+01  0.14555003431E+04  0.14555722030E+04  0.10000000000E+02 0. -1.
</event>
<event>
 5    1  0.1279376E-008  0.3752307E+03  0.7957747E-01  0.3472192E+00
         13   -1    0    0    0    0  0.00000000000E+00  0.00000000000E+00  0.14999999963E+04  0.15000000000E+04  0.10566000000E+00 0. -1.
        994   -1    0    0    0    0 -0.00000000000E+00 -0.00000000000E+00  0.11368683772E-12  0.17120000000E+03  0.17120000000E+03 0.  0.
         13    1    1    2    0    0  0.15653793501E+02 -0.18641508212E+02  0.43881536780E+02  0.50181146993E+02  0.10566000000E+00 0. -1.
        994    1    1    2    0    0 -0.41820120821E+01  0.45525460273E+01  0.66901233619E+01  0.17144215541E+03  0.17120000000E+03 0.  0.
        998    1    1    2    0    0 -0.11471781419E+02  0.14088962184E+02  0.14494283361E+04  0.14495766976E+04  0.10000000000E+02 0. -1.
</event>
<event>
 5    1  0.1279376E-008  0.3795640E+03  0.7957747E-01  0.3453059E+00
         13   -1    0    0    0    0  0.00000000000E+00  0.00000000000E+00  0.14999999963E+04  0.15000000000E+04  0.10566000000E+00 0.  1.
        994   -1    0    0    0    0 -0.00000000000E+00 -0.00000000000E+00  0.11368683772E-12  0.17120000000E+03  0.17120000000E+03 0.  0.
         13    1    1    2    0    0  0.45800868646E+02  0.18539179628E+02  0.28626798897E+03  0.29050093533E+03  0.10566000000E+00 0.  1.
        994    1    1    2    0    0 -0.32957983036E+02  0.11497243021E+02  0.84431170378E+01  0.17492610288E+03  0.17120000000E+03 0.  0.
        998    1    1    2    0    0 -0.12842885610E+02 -0.30036422649E+02  0.12052888903E+04  0.12057729618E+04  0.10000000000E+02 0.  1.
</event>
<event>
 5    1  0.1279376E-008  0.3986407E+03  0.7957747E-01  0.3373803E+00
         13   -1    0    0    0    0  0.00000000000E+00  0.00000000000E+00  0.14999999963E+04  0.15000000000E+04  0.10566000000E+00 0. -1.
        994   -1    0    0    0    0 -0.00000000000E+00 -0.00000000000E+00  0.11368683772E-12  0.17120000000E+03  0.17120000000E+03 0.  0.
         13    1    1    2    0    0  0.92094452247E+02 -0.98222043075E+02  0.27301045044E+03  0.30440708779E+03  0.10566000000E+00 0. -1.
        994    1    1    2    0    0 -0.10094550131E+03  0.77650086412E+02  0.93372706631E+02  0.23291078227E+03  0.17120000000E+03 0.  0.
        998    1    1    2    0    0  0.88510490621E+01  0.20571956663E+02  0.11336168392E+04  0.11338821299E+04  0.10000000000E+02 0. -1.
</event>
<event>
 5    1  0.1279376E-008  0.3852862E+03  0.7957747E-01  0.3428459E+00
         13   -1    0    0    0    0  0.00000000000E+00  0.00000000000E+00  0.14999999963E+04  0.15000000000E+04  0.10566000000E+00 0. -1.
        994   -1    0    0    0    0 -0.00000000000E+00 -0.00000000000E+00  0.11368683772E-12  0.17120000000E+03  0.17120000000E+03 0.  0.
         13    1    1    2    0    0  0.18866304685E+02  0.95278518037E+00  0.11108469862E+03  0.11267948652E+03  0.10566000000E+00 0. -1.
        994    1    1    2    0    0 -0.24049129606E+02  0.26908391876E+02  0.57790927872E+01  0.17505787643E+03  0.17120000000E+03 0.  0.
        998    1    1    2    0    0  0.51828249214E+01 -0.27861177056E+02  0.13831362049E+04  0.13834626370E+04  0.10000000000E+02 0. -1.
</event>
<event>
 5    1  0.1279376E-008  0.3888237E+03  0.7957747E-01  0.3413616E+00
         13   -1    0    0    0    0  0.00000000000E+00  0.00000000000E+00  0.14999999963E+04  0.15000000000E+04  0.10566000000E+00 0.  1.
        994   -1    0    0    0    0 -0.00000000000E+00 -0.00000000000E+00  0.11368683772E-12  0.17120000000E+03  0.17120000000E+03 0.  0.
         13    1    1    2    0    0 -0.12591169764E+02 -0.47433276880E+02  0.46802237211E+02  0.67815292402E+02  0.10566000000E+00 0.  1.
        994    1    1    2    0    0  0.16321038731E+02  0.51078163001E+02  0.32109947604E+02  0.18225214341E+03  0.17120000000E+03 0.  0.
        998    1    1    2    0    0 -0.37298689671E+01 -0.36448861204E+01  0.14210878115E+04  0.14211325642E+04  0.10000000000E+02 0.  1.
</event>
<event>
 5    1  0.1279376E-008  0.3780789E+03  0.7957747E-01  0.3459566E+00
         13   -1    0    0    0    0  0.00000000000E+00  0.00000000000E+00  0.14999999963E+04  0.15000000000E+04  0.10566000000E+00 0.  1.
        994   -1    0    0    0    0 -0.00000000000E+00 -0.00000000000E+00  0.11368683772E-12  0.17120000000E+03  0.17120000000E+03 0.  0.
         13    1    1    2    0    0  0.11981672045E+02  0.49056220430E+02  0.23630460366E+03  0.24164012519E+03  0.10566000000E+00 0.  1.
        994    1    1    2    0    0  0.12644060123E+02 -0.40325344556E+02  0.11138331850E+02  0.17669043015E+03  0.17120000000E+03 0.  0.
        998    1    1    2    0    0 -0.24625732168E+02 -0.87308758741E+01  0.12525570608E+04  0.12528694447E+04  0.10000000000E+02 0.  1.
</event>
<event>
 5    1  0.1279376E-008  0.3781519E+03  0.7957747E-01  0.3459245E+00
         13   -1    0    0    0    0  0.00000000000E+00  0.00000000000E+00  0.14999999963E+04  0.15000000000E+04  0.10566000000E+00 0. -1.
        994   -1    0    0    0    0 -0.00000000000E+00 -0.00000000000E+00  0.11368683772E-12  0.17120000000E+03  0.17120000000E+03 0.  0.
         13    1    1    2    0    0  0.23929028003E+02 -0.13072466322E+02  0.74628006887E+02  0.79453372068E+02  0.10566000000E+00 0. -1.
        994    1    1    2    0    0 -0.11548061453E+02 -0.70388757351E+01  0.56843986252E+01  0.17182740143E+03  0.17120000000E+03 0.  0.
        998    1    1    2    0    0 -0.12380966550E+02  0.20111342057E+02  0.14196875908E+04  0.14199192265E+04  0.10000000000E+02 0. -1.
</event>
<event>
 5    1  0.1279376E-008  0.3799881E+03  0.7957747E-01  0.3451210E+00
         13   -1    0    0    0    0  0.00000000000E+00  0.00000000000E+00  0.14999999963E+04  0.15000000000E+04  0.10566000000E+00 0.  1.
        994   -1    0    0    0    0 -0.00000000000E+00 -0.00000000000E+00  0.11368683772E-12  0.17120000000E+03  0.17120000000E+03 0.  0.
         13    1    1    2    0    0  0.60802661373E+02  0.21045292976E+01  0.32143145056E+03  0.32713847411E+03  0.10566000000E+00 0.  1.
        994    1    1    2    0    0 -0.70111621758E+02  0.73445226088E+00  0.20753165260E+02  0.18616206057E+03  0.17120000000E+03 0.  0.
        998    1    1    2    0    0  0.93089603848E+01 -0.28389815585E+01  0.11578153805E+04  0.11578994653E+04  0.10000000000E+02 0.  1.
</event>
<event>
 5    1  0.1279376E-008  0.3859981E+03  0.7957747E-01  0.3425450E+00
         13   -1    0    0    0    0  0.00000000000E+00  0.00000000000E+00  0.14999999963E+04  0.15000000000E+04  0.10566000000E+00 0.  1.
        994   -1    0    0    0    0 -0.00000000000E+00 -0.00000000000E+00  0.11368683772E-12  0.17120000000E+03  0.17120000000E+03 0.  0.
         13    1    1    2    0    0  0.79720091059E+01 -0.67121713039E+01  0.45967790586E+02  0.47134436543E+02  0.10566000000E+00 0.  1.
        994    1    1    2    0    0 -0.10563305878E+02  0.10986270129E+02  0.18971997957E+01  0.17188752407E+03  0.17120000000E+03 0.  0.
        998    1    1    2    0    0  0.25912967716E+01 -0.42740988253E+01  0.14521350059E+04  0.14521780394E+04  0.10000000000E+02 0.  1.
</event>
<event>
 5    1  0.1279376E-008  0.3710828E+03  0.7957747E-01  0.3490929E+00
         13   -1    0    0    0    0  0.00000000000E+00  0.00000000000E+00  0.14999999963E+04  0.15000000000E+04  0.10566000000E+00 0. -1.
        994   -1    0    0    0    0 -0.00000000000E+00 -0.00000000000E+00  0.11368683772E-12  0.17120000000E+03  0.17120000000E+03 0.  0.
         13    1    1    2    0    0  0.91762016593E+02  0.34120290562E+02  0.45712322367E+03  0.46748915998E+03  0.10566000000E+00 0. -1.
        994    1    1    2    0    0 -0.87846218569E+02  0.73331485623E+01  0.35968720338E+02  0.19589262882E+03  0.17120000000E+03 0.  0.
        998    1    1    2    0    0 -0.39157980241E+01 -0.41453439125E+02  0.10069080523E+04  0.10078182112E+04  0.10000000000E+02 0. -1.
</event>
<event>
 5    1  0.1279376E-008  0.3767809E+03  0.7957747E-01  0.3465296E+00
         13   -1    0    0    0    0  0.00000000000E+00  0.00000000000E+00  0.14999999963E+04  0.15000000000E+04  0.10566000000E+00 0. -1.
        994   -1    0    0    0    0 -0.00000000000E+00 -0.00000000000E+00  0.11368683772E-12  0.17120000000E+03  0.17120000000E+03 0.  0.
         13    1    1    2    0    0 -0.57109813761E+02  0.45993563544E+02  0.20945110236E+03  0.22191600700E+03  0.10566000000E+00 0. -1.
        994    1    1    2    0    0 -0.31514481857E+02 -0.61246591321E+02  0.31762780369E+02  0.18725015816E+03  0.17120000000E+03 0.  0.
        998    1    1    2    0    0  0.88624295619E+02  0.15253027777E+02  0.12587861135E+04  0.12620338348E+04  0.10000000000E+02 0. -1.
</event>
<event>
 5    1  0.1279376E-008  0.3851975E+03  0.7957747E-01  0.3428835E+00
         13   -1    0    0    0    0  0.00000000000E+00  0.00000000000E+00  0.14999999963E+04  0.15000000000E+04  0.10566000000E+00 0. -1.
        994   -1    0    0    0    0 -0.00000000000E+00 -0.00000000000E+00  0.11368683772E-12  0.17120000000E+03  0.17120000000E+03 0.  0.
         13    1    1    2    0    0 -0.11729272686E+02  0.94660062032E+01  0.77674988264E+02  0.79123928599E+02  0.10566000000E+00 0. -1.
        994    1    1    2    0    0  0.89061884054E+01  0.49659022437E+01  0.18739017130E+01  0.17151364927E+03  0.17120000000E+03 0.  0.
        998    1    1    2    0    0  0.28230842801E+01 -0.14431908447E+02  0.14204511063E+04  0.14205624221E+04  0.10000000000E+02 0. -1.
</event>
<event>
 5    1  0.1279376E-008  0.3837457E+03  0.7957747E-01  0.3435009E+00
         13   -1    0    0    0    0  0.00000000000E+00  0.00000000000E+00  0.14999999963E+04  0.15000000000E+04  0.10566000000E+00 0. -1.
        994   -1    0    0    0    0 -0.00000000000E+00 -0.00000000000E+00  0.11368683772E-12  0.17120000000E+03  0.17120000000E+03 0.  0.
         13    1    1    2    0    0 -0.10787339658E+02  0.36680187743E+01  0.28434563944E+02  0.30632607616E+02  0.10566000000E+00 0. -1.
        994    1    1    2    0    0  0.27697953041E+01 -0.66981004254E+01  0.24276368408E+01  0.17137056263E+03  0.17120000000E+03 0.  0.
        998    1    1    2    0    0  0.80175443540E+01  0.30300816511E+01  0.14691377955E+04  0.14691968298E+04  0.10000000000E+02 0. -1.
</event>
<event>
 5    1  0.1283097E-008  0.3859167E+03  0.7957747E-01  0.3425794E+00
         13   -1    0    0    0    0  0.00000000000E+00  0.00000000000E+00  0.14999999963E+04  0.15000000000E+04  0.10566000000E+00 0. -1.
        994   -1    0    0    0    0 -0.00000000000E+00 -0.00000000000E+00  0.11368683772E-12  0.17120000000E+03  0.17120000000E+03 0.  0.
         13    1    1    2    0    0 -0.52122585642E+01 -0.12277874696E+02  0.77681646984E+02  0.78818546603E+02  0.10566000000E+00 0. -1.
        994    1    1    2    0    0  0.33322358608E+01  0.59644293483E+01  0.13287755274E+01  0.17134142482E+03  0.17120000000E+03 0.  0.
        998    1    1    2    0    0  0.18800227034E+01  0.63134453475E+01  0.14209895738E+04  0.14210400286E+04  0.10000000000E+02 0. -1.
</event>
<event>
 5    1  0.1279376E-008  0.3842660E+03  0.7957747E-01  0.3432791E+00
         13   -1    0    0    0    0  0.00000000000E+00  0.00000000000E+00  0.14999999963E+04  0.15000000000E+04  0.10566000000E+00 0.  1.
        994   -1    0    0    0    0 -0.00000000000E+00 -0.00000000000E+00  0.11368683772E-12  0.17120000000E+03  0.17120000000E+03 0.  0.
         13    1    1    2    0    0  0.44537888578E+01 -0.17584251479E+02  0.89395879935E+02  0.91217743058E+02  0.10566000000E+00 0.  1.
        994    1    1    2    0    0  0.61056386552E+01  0.85911044388E+00  0.21203479574E+01  0.17132411614E+03  0.17120000000E+03 0.  0.
        998    1    1    2    0    0 -0.10559427513E+02  0.16725141035E+02  0.14084837684E+04  0.14086581408E+04  0.10000000000E+02 0.  1.
</event>
<event>
 5    1  0.1279376E-008  0.3773884E+03  0.7957747E-01  0.3462609E+00
         13   -1    0    0    0    0  0.00000000000E+00  0.00000000000E+00  0.14999999963E+04  0.15000000000E+04  0.10566000000E+00 0. -1.
        994   -1    0    0    0    0 -0.00000000000E+00 -0.00000000000E+00  0.11368683772E-12  0.17120000000E+03  0.17120000000E+03 0.  0.
         13    1    1    2    0    0  0.17087370592E+02 -0.94146808682E+01  0.32092758759E+02  0.37557566193E+02  0.10566000000E+00 0. -1.
        994    1    1    2    0    0 -0.19565384346E+02  0.44509790195E+01  0.68161219570E+01  0.17250656508E+03  0.17120000000E+03 0.  0.
        998    1    1    2    0    0  0.24780137538E+01  0.49637018487E+01  0.14610911156E+04  0.14611358687E+04  0.10000000000E+02 0. -1.
</event>
<event>
 5    1  0.1279376E-008  0.3836053E+03  0.7957747E-01  0.3435609E+00
         13   -1    0    0    0    0  0.00000000000E+00  0.00000000000E+00  0.14999999963E+04  0.15000000000E+04  0.10566000000E+00 0. -1.
        994   -1    0    0    0    0 -0.00000000000E+00 -0.00000000000E+00  0.11368683772E-12  0.17120000000E+03  0.17120000000E+03 0.  0.
         13    1    1    2    0    0 -0.12169476615E+02 -0.11099585022E+02  0.57697825400E+02  0.60002893003E+02  0.10566000000E+00 0. -1.
        994    1    1    2    0    0  0.10524002374E+02  0.49118476242E+01  0.27698655589E+01  0.17161582977E+03  0.17120000000E+03 0.  0.
        998    1    1    2    0    0  0.16454742407E+01  0.61877373977E+01  0.14395323053E+04  0.14395812772E+04  0.10000000000E+02 0. -1.
</event>
<event>
 5    1  0.1279376E-008  0.3802299E+03  0.7957747E-01  0.3450158E+00
         13   -1    0    0    0    0  0.00000000000E+00  0.00000000000E+00  0.14999999963E+04  0.15000000000E+04  0.10566000000E+00 0.  1.
        994   -1    0    0    0    0 -0.00000000000E+00 -0.00000000000E+00  0.11368683772E-12  0.17120000000E+03  0.17120000000E+03 0.  0.
         13    1    1    2    0    0  0.21220393624E+02  0.27757008811E+02  0.15282759357E+03  0.15677066424E+03  0.10566000000E+00 0.  1.
        994    1    1    2    0    0 -0.23741395310E+02 -0.51994908895E+01  0.59927467352E+01  0.17302035016E+03  0.17120000000E+03 0.  0.
        998    1    1    2    0    0  0.25210016852E+01 -0.22557517921E+02  0.13411796560E+04  0.13414089856E+04  0.10000000000E+02 0.  1.
</event>
<event>
 5    1  0.1279376E-008  0.3831646E+03  0.7957747E-01  0.3437494E+00
         13   -1    0    0    0    0  0.00000000000E+00  0.00000000000E+00  0.14999999963E+04  0.15000000000E+04  0.10566000000E+00 0. -1.
        994   -1    0    0    0    0 -0.00000000000E+00 -0.00000000000E+00  0.11368683772E-12  0.17120000000E+03  0.17120000000E+03 0.  0.
         13    1    1    2    0    0 -0.10751148421E+02  0.14615680259E+01  0.22287985581E+02  0.24788885388E+02  0.10566000000E+00 0. -1.
        994    1    1    2    0    0  0.56349456304E+01 -0.84782337675E+01  0.28870608216E+01  0.17152669816E+03  0.17120000000E+03 0.  0.
        998    1    1    2    0    0  0.51162027909E+01  0.70166657417E+01  0.14748249499E+04  0.14748844165E+04  0.10000000000E+02 0. -1.
</event>
<event>
 5    1  0.1279376E-008  0.3727904E+03  0.7957747E-01  0.3483164E+00
         13   -1    0    0    0    0  0.00000000000E+00  0.00000000000E+00  0.14999999963E+04  0.15000000000E+04  0.10566000000E+00 0.  1.
        994   -1    0    0    0    0 -0.00000000000E+00 -0.00000000000E+00  0.11368683772E-12  0.17120000000E+03  0.17120000000E+03 0.  0.
         13    1    1    2    0    0 -0.12847623288E+03  0.85221536058E+02  0.51856378230E+03  0.54099654352E+03  0.10566000000E+00 0.  1.
        994    1    1    2    0    0  0.13066169825E+03 -0.20078915802E+03  0.24034086254E+03  0.38008148544E+03  0.17120000000E+03 0.  0.
        998    1    1    2    0    0 -0.21854653673E+01  0.11556762197E+03  0.74109535144E+03  0.75012197104E+03  0.10000000000E+02 0.  1.
</event>
<event>
 5    1  0.1279376E-008  0.3846925E+03  0.7957747E-01  0.3430977E+00
         13   -1    0    0    0    0  0.00000000000E+00  0.00000000000E+00  0.14999999963E+04  0.15000000000E+04  0.10566000000E+00 0. -1.
        994   -1    0    0    0    0 -0.00000000000E+00 -0.00000000000E+00  0.11368683772E-12  0.17120000000E+03  0.17120000000E+03 0.  0.
         13    1    1    2    0    0 -0.12140236768E+02 -0.62448252660E+01  0.52411139100E+02  0.54160150085E+02  0.10566000000E+00 0. -1.
        994    1    1    2    0    0  0.80794102010E+01  0.16625008092E+01  0.20069121655E+01  0.17141035113E+03  0.17120000000E+03 0.  0.
        998    1    1    2    0    0  0.40608265672E+01  0.45823244569E+01  0.14455819450E+04  0.14456294988E+04  0.10000000000E+02 0. -1.
</event>
<event>
 5    1  0.1279376E-008  0.3794562E+03  0.7957747E-01  0.3453530E+00
         13   -1    0    0    0    0  0.00000000000E+00  0.00000000000E+00  0.14999999963E+04  0.15000000000E+04  0.10566000000E+00 0. -1.
        994   -1    0    0    0    0 -0.00000000000E+00 -0.00000000000E+00  0.11368683772E-12  0.17120000000E+03  0.17120000000E+03 0.  0.
         13    1    1    2    0    0  0.13726574883E+02  0.17450867878E+02  0.56475229417E+02  0.60682899976E+02  0.10566000000E+00 0. -1.
        994    1    1    2    0    0 -0.49845883401E+01 -0.12419399205E+01  0.44963044273E+01  0.17133605951E+03  0.17120000000E+03 0.  0.
        998    1    1    2    0    0 -0.87419865424E+01 -0.16208927957E+02  0.14390284624E+04  0.14391810405E+04  0.10000000000E+02 0. -1.
</event>
<event>
 5    1  0.1279376E-008  0.3849055E+03  0.7957747E-01  0.3430073E+00
         13   -1    0    0    0    0  0.00000000000E+00  0.00000000000E+00  0.14999999963E+04  0.15000000000E+04  0.10566000000E+00 0.  1.
        994   -1    0    0    0    0 -0.00000000000E+00 -0.00000000000E+00  0.11368683772E-12  0.17120000000E+03  0.17120000000E+03 0.  0.
         13    1    1    2    0    0 -0.71886140076E+01 -0.15239536494E+02  0.85723025152E+02  0.87363423978E+02  0.10566000000E+00 0.  1.
        994    1    1    2    0    0  0.90007744715E+01  0.58931284530E+01  0.20579350227E+01  0.17155004518E+03  0.17120000000E+03 0.  0.
        998    1    1    2    0    0 -0.18121604639E+01  0.93464080413E+01  0.14122190361E+04  0.14122865308E+04  0.10000000000E+02 0. -1.
</event>
<event>
 5    1  0.1279376E-008  0.3807359E+03  0.7957747E-01  0.3447961E+00
         13   -1    0    0    0    0  0.00000000000E+00  0.00000000000E+00  0.14999999963E+04  0.15000000000E+04  0.10566000000E+00 0.  1.
        994   -1    0    0    0    0 -0.00000000000E+00 -0.00000000000E+00  0.11368683772E-12  0.17120000000E+03  0.17120000000E+03 0.  0.
         13    1    1    2    0    0  0.33633594647E+02 -0.51481122821E+02  0.32714782730E+03  0.33287720975E+03  0.10566000000E+00 0.  1.
        994    1    1    2    0    0 -0.44787571225E+02  0.65824862648E+02  0.25198360056E+02  0.19048159079E+03  0.17120000000E+03 0.  0.
        998    1    1    2    0    0  0.11153976577E+02 -0.14343739826E+02  0.11476538089E+04  0.11478411995E+04  0.10000000000E+02 0.  1.
</event>
<event>
 5    1  0.1279376E-008  0.3821764E+03  0.7957747E-01  0.3441736E+00
         13   -1    0    0    0    0  0.00000000000E+00  0.00000000000E+00  0.14999999963E+04  0.15000000000E+04  0.10566000000E+00 0.  1.
        994   -1    0    0    0    0 -0.00000000000E+00 -0.00000000000E+00  0.11368683772E-12  0.17120000000E+03  0.17120000000E+03 0.  0.
         13    1    1    2    0    0  0.55783820487E+00 -0.19453946333E+02  0.63102669069E+02  0.66035787411E+02  0.10566000000E+00 0.  1.
        994    1    1    2    0    0 -0.58246315344E+01  0.64060446990E+01  0.32873544837E+01  0.17145031479E+03  0.17120000000E+03 0.  0.
        998    1    1    2    0    0  0.52667933295E+01  0.13047901634E+02  0.14336099727E+04  0.14337138978E+04  0.10000000000E+02 0.  1.
</event>
<event>
 5    1  0.1279376E-008  0.3854776E+03  0.7957747E-01  0.3427649E+00
         13   -1    0    0    0    0  0.00000000000E+00  0.00000000000E+00  0.14999999963E+04  0.15000000000E+04  0.10566000000E+00 0.  1.
        994   -1    0    0    0    0 -0.00000000000E+00 -0.00000000000E+00  0.11368683772E-12  0.17120000000E+03  0.17120000000E+03 0.  0.
         13    1    1    2    0    0  0.38357331445E+01  0.14986863517E+02  0.84264294483E+02  0.85672640998E+02  0.10566000000E+00 0.  1.
        994    1    1    2    0    0 -0.51286365537E+01 -0.12255027060E+02  0.19729453893E+01  0.17172600594E+03  0.17120000000E+03 0.  0.
        998    1    1    2    0    0  0.12929034092E+01 -0.27318364573E+01  0.14137627564E+04  0.14138013531E+04  0.10000000000E+02 0.  1.
</event>
<event>
 5    1  0.1279376E-008  0.3838260E+03  0.7957747E-01  0.3434667E+00
         13   -1    0    0    0    0  0.00000000000E+00  0.00000000000E+00  0.14999999963E+04  0.15000000000E+04  0.10566000000E+00 0. -1.
        994   -1    0    0    0    0 -0.00000000000E+00 -0.00000000000E+00  0.11368683772E-12  0.17120000000E+03  0.17120000000E+03 0.  0.
         13    1    1    2    0    0 -0.13149661160E+02 -0.14868390473E+02  0.85397946883E+02  0.87674415423E+02  0.10566000000E+00 0. -1.
        994    1    1    2    0    0  0.10511369029E+02  0.15098792301E+02  0.33322824384E+01  0.17221790416E+03  0.17120000000E+03 0.  0.
        998    1    1    2    0    0  0.26382921310E+01 -0.23040182837E+00  0.14112697670E+04  0.14113076804E+04  0.10000000000E+02 0. -1.
</event>
<event>
 5    1  0.1279376E-008  0.3834411E+03  0.7957747E-01  0.3436311E+00
         13   -1    0    0    0    0  0.00000000000E+00  0.00000000000E+00  0.14999999963E+04  0.15000000000E+04  0.10566000000E+00 0. -1.
        994   -1    0    0    0    0 -0.00000000000E+00 -0.00000000000E+00  0.11368683772E-12  0.17120000000E+03  0.17120000000E+03 0.  0.
         13    1    1    2    0    0 -0.20138856193E+02  0.64274793870E+01  0.89845624317E+02  0.92299151637E+02  0.10566000000E+00 0. -1.
        994    1    1    2    0    0  0.17367987750E+02 -0.33425489835E+01  0.34407517007E+01  0.17214557329E+03  0.17120000000E+03 0.  0.
        998    1    1    2    0    0  0.27708684432E+01 -0.30849304035E+01  0.14067136203E+04  0.14067552751E+04  0.10000000000E+02 0. -1.
</event>
<event>
 5    1  0.1279376E-008  0.3856688E+03  0.7957747E-01  0.3426841E+00
         13   -1    0    0    0    0  0.00000000000E+00  0.00000000000E+00  0.14999999963E+04  0.15000000000E+04  0.10566000000E+00 0. -1.
        994   -1    0    0    0    0 -0.00000000000E+00 -0.00000000000E+00  0.11368683772E-12  0.17120000000E+03  0.17120000000E+03 0.  0.
         13    1    1    2    0    0 -0.14653216844E+02 -0.64702968218E+01  0.93533560586E+02  0.94895308761E+02  0.10566000000E+00 0. -1.
        994    1    1    2    0    0  0.15732930356E+02  0.80637958231E+01  0.23247727159E+01  0.17212610049E+03  0.17120000000E+03 0.  0.
        998    1    1    2    0    0 -0.10797135122E+01 -0.15934990014E+01  0.14041416630E+04  0.14041785908E+04  0.10000000000E+02 0. -1.
</event>
<event>
 5    1  0.1279376E-008  0.3747024E+03  0.7957747E-01  0.3474555E+00
         13   -1    0    0    0    0  0.00000000000E+00  0.00000000000E+00  0.14999999963E+04  0.15000000000E+04  0.10566000000E+00 0.  1.
        994   -1    0    0    0    0 -0.00000000000E+00 -0.00000000000E+00  0.11368683772E-12  0.17120000000E+03  0.17120000000E+03 0.  0.
         13    1    1    2    0    0 -0.42739719323E+02  0.54601955664E+02  0.40293783526E+03  0.40886057210E+03  0.10566000000E+00 0.  1.
        994    1    1    2    0    0  0.28957781400E+02 -0.89055243507E+01  0.99610923275E+01  0.17414512577E+03  0.17120000000E+03 0.  0.
        998    1    1    2    0    0  0.13781937922E+02 -0.45696431314E+02  0.10871010687E+04  0.10881943021E+04  0.10000000000E+02 0.  1.
</event>
<event>
 5    1  0.1279376E-008  0.3844222E+03  0.7957747E-01  0.3432127E+00
         13   -1    0    0    0    0  0.00000000000E+00  0.00000000000E+00  0.14999999963E+04  0.15000000000E+04  0.10566000000E+00 0. -1.
        994   -1    0    0    0    0 -0.00000000000E+00 -0.00000000000E+00  0.11368683772E-12  0.17120000000E+03  0.17120000000E+03 0.  0.
         13    1    1    2    0    0  0.55879066890E+01  0.10590924091E+02  0.36936962021E+02  0.38829662651E+02  0.10566000000E+00 0. -1.
        994    1    1    2    0    0  0.15045148978E+01 -0.10443316068E+02  0.22841853616E+01  0.17154003591E+03  0.17120000000E+03 0.  0.
        998    1    1    2    0    0 -0.70924215868E+01 -0.14760802357E+00  0.14607788489E+04  0.14608303014E+04  0.10000000000E+02 0. -1.
</event>
<event>
 5    1  0.1279376E-008  0.3834318E+03  0.7957747E-01  0.3436351E+00
         13   -1    0    0    0    0  0.00000000000E+00  0.00000000000E+00  0.14999999963E+04  0.15000000000E+04  0.10566000000E+00 0. -1.
        994   -1    0    0    0    0 -0.00000000000E+00 -0.00000000000E+00  0.11368683772E-12  0.17120000000E+03  0.17120000000E+03 0.  0.
         13    1    1    2    0    0 -0.26404978179E+01 -0.10658294005E+02  0.24090431949E+02  0.26475111621E+02  0.10566000000E+00 0. -1.
        994    1    1    2    0    0 -0.55695878809E-02  0.91009294919E+01  0.26845617090E+01  0.17146274762E+03  0.17120000000E+03 0.  0.
        998    1    1    2    0    0  0.26460674058E+01  0.15573645133E+01  0.14732250026E+04  0.14732621408E+04  0.10000000000E+02 0. -1.
</event>
<event>
 5    1  0.1279376E-008  0.3815530E+03  0.7957747E-01  0.3444424E+00
         13   -1    0    0    0    0  0.00000000000E+00  0.00000000000E+00  0.14999999963E+04  0.15000000000E+04  0.10566000000E+00 0. -1.
        994   -1    0    0    0    0 -0.00000000000E+00 -0.00000000000E+00  0.11368683772E-12  0.17120000000E+03  0.17120000000E+03 0.  0.
         13    1    1    2    0    0  0.15272365446E+02 -0.13104231489E+02  0.65746339764E+02  0.68757242423E+02  0.10566000000E+00 0. -1.
        994    1    1    2    0    0  0.93651615638E+01 -0.33031083413E+01  0.36792926060E+01  0.17152723973E+03  0.17120000000E+03 0.  0.
        998    1    1    2    0    0 -0.24637527010E+02  0.16407339831E+02  0.14305743639E+04  0.14309155178E+04  0.10000000000E+02 0. -1.
</event>
<event>
 5    1  0.1279376E-008  0.3817354E+03  0.7957747E-01  0.3443637E+00
         13   -1    0    0    0    0  0.00000000000E+00  0.00000000000E+00  0.14999999963E+04  0.15000000000E+04  0.10566000000E+00 0. -1.
        994   -1    0    0    0    0 -0.00000000000E+00 -0.00000000000E+00  0.11368683772E-12  0.17120000000E+03  0.17120000000E+03 0.  0.
         13    1    1    2    0    0 -0.14322220908E+02  0.83284037765E+01  0.42480303189E+02  0.45596881958E+02  0.10566000000E+00 0. -1.
        994    1    1    2    0    0  0.46213877484E+01  0.50061749161E+01  0.34139801143E+01  0.17136952551E+03  0.17120000000E+03 0.  0.
        998    1    1    2    0    0  0.97008331596E+01 -0.13334578693E+02  0.14541057130E+04  0.14542335925E+04  0.10000000000E+02 0. -1.
</event>
<event>
 5    1  0.1279376E-008  0.3855417E+03  0.7957747E-01  0.3427378E+00
         13   -1    0    0    0    0  0.00000000000E+00  0.00000000000E+00  0.14999999963E+04  0.15000000000E+04  0.10566000000E+00 0.  1.
        994   -1    0    0    0    0 -0.00000000000E+00 -0.00000000000E+00  0.11368683772E-12  0.17120000000E+03  0.17120000000E+03 0.  0.
         13    1    1    2    0    0  0.14318754053E+02 -0.47272170860E+01  0.77770329827E+02  0.79218739351E+02  0.10566000000E+00 0.  1.
        994    1    1    2    0    0 -0.19164470817E+02  0.62312861459E+01  0.26957491429E+01  0.17240305372E+03  0.17120000000E+03 0.  0.
        998    1    1    2    0    0  0.48457167636E+01 -0.15040690599E+01  0.14195339173E+04  0.14195782069E+04  0.10000000000E+02 0.  1.
</event>
<event>
 5    1  0.1279376E-008  0.3841101E+03  0.7957747E-01  0.3433455E+00
         13   -1    0    0    0    0  0.00000000000E+00  0.00000000000E+00  0.14999999963E+04  0.15000000000E+04  0.10566000000E+00 0.  1.
        994   -1    0    0    0    0 -0.00000000000E+00 -0.00000000000E+00  0.11368683772E-12  0.17120000000E+03  0.17120000000E+03 0.  0.
         13    1    1    2    0    0 -0.82139560629E+01  0.70325313529E+01  0.27896074768E+02  0.29918685181E+02  0.10566000000E+00 0.  1.
        994    1    1    2    0    0  0.40738702799E+01 -0.28458513094E+01  0.21540672690E+01  0.17128565408E+03  0.17120000000E+03 0.  0.
        998    1    1    2    0    0  0.41400857830E+01 -0.41866800435E+01  0.14699498542E+04  0.14699956607E+04  0.10000000000E+02 0.  1.
</event>
<event>
 5    1  0.1279376E-008  0.3717412E+03  0.7957747E-01  0.3487927E+00
         13   -1    0    0    0    0  0.00000000000E+00  0.00000000000E+00  0.14999999963E+04  0.15000000000E+04  0.10566000000E+00 0. -1.
        994   -1    0    0    0    0 -0.00000000000E+00 -0.00000000000E+00  0.11368683772E-12  0.17120000000E+03  0.17120000000E+03 0.  0.
         13    1    1    2    0    0 -0.10962683238E+02 -0.60708212972E+01  0.64217044537E+01  0.14081361693E+02  0.10566000000E+00 0. -1.
        994    1    1    2    0    0 -0.64357119188E+02  0.78738169315E+00  0.22736755808E+02  0.18430642643E+03  0.17120000000E+03 0.  0.
        998    1    1    2    0    0  0.75319802426E+02  0.52834396040E+01  0.14708415360E+04  0.14728122119E+04  0.10000000000E+02 0. -1.
</event>
<event>
 5    1  0.1279376E-008  0.3940096E+03  0.7957747E-01  0.3392338E+00
         13   -1    0    0    0    0  0.00000000000E+00  0.00000000000E+00  0.14999999963E+04  0.15000000000E+04  0.10566000000E+00 0. -1.
        994   -1    0    0    0    0 -0.00000000000E+00 -0.00000000000E+00  0.11368683772E-12  0.17120000000E+03  0.17120000000E+03 0.  0.
         13    1    1    2    0    0 -0.21244364642E+02 -0.32254626004E+02  0.20779406492E+02  0.43857483123E+02  0.10566000000E+00 0. -1.
        994    1    1    2    0    0  0.16110142502E+02  0.35091662333E+02  0.29964537612E+02  0.17804009372E+03  0.17120000000E+03 0.  0.
        998    1    1    2    0    0  0.51342221401E+01 -0.28370363290E+01  0.14492560522E+04  0.14493024232E+04  0.10000000000E+02 0. -1.
</event>
<event>
 5    1  0.1279376E-008  0.3813153E+03  0.7957747E-01  0.3445451E+00
         13   -1    0    0    0    0  0.00000000000E+00  0.00000000000E+00  0.14999999963E+04  0.15000000000E+04  0.10566000000E+00 0. -1.
        994   -1    0    0    0    0 -0.00000000000E+00 -0.00000000000E+00  0.11368683772E-12  0.17120000000E+03  0.17120000000E+03 0.  0.
         13    1    1    2    0    0 -0.16483313778E+02  0.10750030322E+02  0.55114317984E+02  0.58522320493E+02  0.10566000000E+00 0. -1.
        994    1    1    2    0    0  0.18802397144E+02  0.94949714538E+01  0.49488152520E+01  0.17256191756E+03  0.17120000000E+03 0.  0.
        998    1    1    2    0    0 -0.23190833663E+01 -0.20245001776E+02  0.14399368630E+04  0.14401157619E+04  0.10000000000E+02 0. -1.
</event>
<event>
 5    1  0.1279376E-008  0.3744276E+03  0.7957747E-01  0.3475787E+00
         13   -1    0    0    0    0  0.00000000000E+00  0.00000000000E+00  0.14999999963E+04  0.15000000000E+04  0.10566000000E+00 0.  1.
        994   -1    0    0    0    0 -0.00000000000E+00 -0.00000000000E+00  0.11368683772E-12  0.17120000000E+03  0.17120000000E+03 0.  0.
         13    1    1    2    0    0 -0.37308685035E+01 -0.74135462940E+02  0.30305068880E+03  0.31200916235E+03  0.10566000000E+00 0.  1.
        994    1    1    2    0    0  0.75710100744E+01  0.78186783743E+02  0.28288068005E+02  0.19047348408E+03  0.17120000000E+03 0.  0.
        998    1    1    2    0    0 -0.38401415709E+01 -0.40513208023E+01  0.11686612395E+04  0.11687173536E+04  0.10000000000E+02 0.  1.
</event>
<event>
 5    1  0.1279376E-008  0.3840257E+03  0.7957747E-01  0.3433815E+00
         13   -1    0    0    0    0  0.00000000000E+00  0.00000000000E+00  0.14999999963E+04  0.15000000000E+04  0.10566000000E+00 0. -1.
        994   -1    0    0    0    0 -0.00000000000E+00 -0.00000000000E+00  0.11368683772E-12  0.17120000000E+03  0.17120000000E+03 0.  0.
         13    1    1    2    0    0  0.11933283084E+02 -0.48572098221E+01  0.39479348443E+02  0.41528614833E+02  0.10566000000E+00 0. -1.
        994    1    1    2    0    0 -0.85969757929E+01 -0.92155957883E+01  0.26388366179E+01  0.17168354219E+03  0.17120000000E+03 0.  0.
        998    1    1    2    0    0 -0.33363072908E+01  0.14072805610E+02  0.14578818112E+04  0.14579878430E+04  0.10000000000E+02 0. -1.
</event>
<event>
 5    1  0.1279376E-008  0.3724849E+03  0.7957747E-01  0.3484548E+00
         13   -1    0    0    0    0  0.00000000000E+00  0.00000000000E+00  0.14999999963E+04  0.15000000000E+04  0.10566000000E+00 0.  1.
        994   -1    0    0    0    0 -0.00000000000E+00 -0.00000000000E+00  0.11368683772E-12  0.17120000000E+03  0.17120000000E+03 0.  0.
         13    1    1    2    0    0 -0.49325493261E+02 -0.16422313102E+02  0.12381928424E+03  0.13429044258E+03  0.10566000000E+00 0.  1.
        994    1    1    2    0    0 -0.24097088110E+02  0.47606683666E+02  0.22368182745E+02  0.18071204051E+03  0.17120000000E+03 0.  0.
        998    1    1    2    0    0  0.73422581371E+02 -0.31184370565E+02  0.13538125293E+04  0.13561975169E+04  0.10000000000E+02 0.  1.
</event>
<event>
 5    1  0.1279376E-008  0.3852754E+03  0.7957747E-01  0.3428505E+00
         13   -1    0    0    0    0  0.00000000000E+00  0.00000000000E+00  0.14999999963E+04  0.15000000000E+04  0.10566000000E+00 0.  1.
        994   -1    0    0    0    0 -0.00000000000E+00 -0.00000000000E+00  0.11368683772E-12  0.17120000000E+03  0.17120000000E+03 0.  0.
         13    1    1    2    0    0  0.13772889860E+02  0.59647516700E+00  0.62151518860E+02  0.63662160962E+02  0.10566000000E+00 0.  1.
        994    1    1    2    0    0 -0.13049321589E+02 -0.39284958890E+01  0.21039423801E+01  0.17175443065E+03  0.17120000000E+03 0.  0.
        998    1    1    2    0    0 -0.72356827109E+00  0.33320207220E+01  0.14357445350E+04  0.14357834084E+04  0.10000000000E+02 0.  1.
</event>
<event>
 5    1  0.1279376E-008  0.3812948E+03  0.7957747E-01  0.3445540E+00
         13   -1    0    0    0    0  0.00000000000E+00  0.00000000000E+00  0.14999999963E+04  0.15000000000E+04  0.10566000000E+00 0.  1.
        994   -1    0    0    0    0 -0.00000000000E+00 -0.00000000000E+00  0.11368683772E-12  0.17120000000E+03  0.17120000000E+03 0.  0.
         13    1    1    2    0    0  0.43723905193E+02  0.10641752794E+02  0.25769008682E+03  0.26158979108E+03  0.10566000000E+00 0.  1.
        994    1    1    2    0    0 -0.37159924272E+02 -0.10777415021E+02  0.84800992269E+01  0.17572240816E+03  0.17120000000E+03 0.  0.
        998    1    1    2    0    0 -0.65639809212E+01  0.13566222753E+00  0.12338298102E+04  0.12338878008E+04  0.10000000000E+02 0. -1.
</event>
<event>
 5    1  0.1279376E-008  0.3910351E+03  0.7957747E-01  0.3404473E+00
         13   -1    0    0    0    0  0.00000000000E+00  0.00000000000E+00  0.14999999963E+04  0.15000000000E+04  0.10566000000E+00 0. -1.
        994   -1    0    0    0    0 -0.00000000000E+00 -0.00000000000E+00  0.11368683772E-12  0.17120000000E+03  0.17120000000E+03 0.  0.
         13    1    1    2    0    0  0.48336618802E+02  0.39957080283E+02  0.83126744072E+02  0.10413003278E+03  0.10566000000E+00 0. -1.
        994    1    1    2    0    0 -0.21849667879E+02 -0.21449173159E+02  0.26074724673E+02  0.17586018959E+03  0.17120000000E+03 0.  0.
        998    1    1    2    0    0 -0.26486950923E+02 -0.18507907124E+02  0.13907985275E+04  0.13912097776E+04  0.10000000000E+02 0. -1.
</event>
<event>
 5    1  0.1279376E-008  0.3782528E+03  0.7957747E-01  0.3458802E+00
         13   -1    0    0    0    0  0.00000000000E+00  0.00000000000E+00  0.14999999963E+04  0.15000000000E+04  0.10566000000E+00 0. -1.
        994   -1    0    0    0    0 -0.00000000000E+00 -0.00000000000E+00  0.11368683772E-12  0.17120000000E+03  0.17120000000E+03 0.  0.
         13    1    1    2    0    0  0.10071611083E+02  0.91208917806E+01  0.16560182365E+02  0.21421457016E+02  0.10566000000E+00 0. -1.
        994    1    1    2    0    0  0.31816024728E+01 -0.56321656938E+01  0.51584220170E+01  0.17139980514E+03  0.17120000000E+03 0.  0.
        998    1    1    2    0    0 -0.13253213555E+02 -0.34887260868E+01  0.14782813919E+04  0.14783787378E+04  0.10000000000E+02 0. -1.
</event>
<event>
 5    1  0.1279376E-008  0.3862008E+03  0.7957747E-01  0.3424596E+00
         13   -1    0    0    0    0  0.00000000000E+00  0.00000000000E+00  0.14999999963E+04  0.15000000000E+04  0.10566000000E+00 0.  1.
        994   -1    0    0    0    0 -0.00000000000E+00 -0.00000000000E+00  0.11368683772E-12  0.17120000000E+03  0.17120000000E+03 0.  0.
         13    1    1    2    0    0  0.11672545363E+02  0.30281541198E+01  0.70726588221E+02  0.71747330807E+02  0.10566000000E+00 0.  1.
        994    1    1    2    0    0 -0.72881089177E+01 -0.79029329857E+01  0.14138402950E+01  0.17154303199E+03  0.17120000000E+03 0.  0.
        998    1    1    2    0    0 -0.43844364448E+01  0.48747788659E+01  0.14278595678E+04  0.14279096372E+04  0.10000000000E+02 0.  1.
</event>
<event>
 5    1  0.1279376E-008  0.3848883E+03  0.7957747E-01  0.3430146E+00
         13   -1    0    0    0    0  0.00000000000E+00  0.00000000000E+00  0.14999999963E+04  0.15000000000E+04  0.10566000000E+00 0.  1.
        994   -1    0    0    0    0 -0.00000000000E+00 -0.00000000000E+00  0.11368683772E-12  0.17120000000E+03  0.17120000000E+03 0.  0.
         13    1    1    2    0    0 -0.65240399859E-01  0.10053081186E+02  0.30966295255E+02  0.32557507637E+02  0.10566000000E+00 0.  1.
        994    1    1    2    0    0  0.13712105088E+02  0.25458991660E+01  0.23257558786E+01  0.17178286460E+03  0.17120000000E+03 0.  0.
        998    1    1    2    0    0 -0.13646864688E+02 -0.12598980352E+02  0.14667079451E+04  0.14668596278E+04  0.10000000000E+02 0.  1.
</event>
<event>
 5    1  0.1279376E-008  0.3837895E+03  0.7957747E-01  0.3434822E+00
         13   -1    0    0    0    0  0.00000000000E+00  0.00000000000E+00  0.14999999963E+04  0.15000000000E+04  0.10566000000E+00 0.  1.
        994   -1    0    0    0    0 -0.00000000000E+00 -0.00000000000E+00  0.11368683772E-12  0.17120000000E+03  0.17120000000E+03 0.  0.
         13    1    1    2    0    0 -0.69946448720E+01 -0.85164688660E+01  0.26129102619E+02  0.28358357966E+02  0.10566000000E+00 0.  1.
        994    1    1    2    0    0  0.60697863694E+01  0.10038045811E+02  0.26867591665E+01  0.17162244418E+03  0.17120000000E+03 0.  0.
        998    1    1    2    0    0  0.92485850258E+00 -0.15215769454E+01  0.14711841345E+04  0.14712191979E+04  0.10000000000E+02 0.  1.
</event>
<event>
 5    1  0.1279376E-008  0.3813218E+03  0.7957747E-01  0.3445423E+00
         13   -1    0    0    0    0  0.00000000000E+00  0.00000000000E+00  0.14999999963E+04  0.15000000000E+04  0.10566000000E+00 0.  1.
        994   -1    0    0    0    0 -0.00000000000E+00 -0.00000000000E+00  0.11368683772E-12  0.17120000000E+03  0.17120000000E+03 0.  0.
         13    1    1    2    0    0  0.16163501469E+02 -0.23276179969E+02  0.10539734958E+03  0.10914051400E+03  0.10566000000E+00 0.  1.
        994    1    1    2    0    0 -0.30591242081E+02  0.18080099105E+02  0.76815853374E+01  0.17501760148E+03  0.17120000000E+03 0.  0.
        998    1    1    2    0    0  0.14427740612E+02  0.51960808639E+01  0.13869210614E+04  0.13870418845E+04  0.10000000000E+02 0.  1.
</event>
<event>
 5    1  0.1279376E-008  0.3805240E+03  0.7957747E-01  0.3448880E+00
         13   -1    0    0    0    0  0.00000000000E+00  0.00000000000E+00  0.14999999963E+04  0.15000000000E+04  0.10566000000E+00 0. -1.
        994   -1    0    0    0    0 -0.00000000000E+00 -0.00000000000E+00  0.11368683772E-12  0.17120000000E+03  0.17120000000E+03 0.  0.
         13    1    1    2    0    0 -0.32279190582E-01  0.19820483257E+02  0.40563801005E+02  0.45147377714E+02  0.10566000000E+00 0. -1.
        994    1    1    2    0    0  0.39408815085E+02 -0.68092239777E+02  0.24808426602E+02  0.19003816947E+03  0.17120000000E+03 0.  0.
        998    1    1    2    0    0 -0.39376535895E+02  0.48271756520E+02  0.14346277687E+04  0.14360144528E+04  0.10000000000E+02 0. -1.
</event>
<event>
 5    1  0.1279376E-008  0.3829034E+03  0.7957747E-01  0.3438613E+00
         13   -1    0    0    0    0  0.00000000000E+00  0.00000000000E+00  0.14999999963E+04  0.15000000000E+04  0.10566000000E+00 0. -1.
        994   -1    0    0    0    0 -0.00000000000E+00 -0.00000000000E+00  0.11368683772E-12  0.17120000000E+03  0.17120000000E+03 0.  0.
         13    1    1    2    0    0 -0.14408378424E+02 -0.18702767000E+02  0.10321572375E+03  0.10588149818E+03  0.10566000000E+00 0. -1.
        994    1    1    2    0    0  0.51956214974E+01  0.14823009429E+02  0.34920158246E+01  0.17195450057E+03  0.17120000000E+03 0.  0.
        998    1    1    2    0    0  0.92127569265E+01  0.38797575708E+01  0.13932922567E+04  0.13933640013E+04  0.10000000000E+02 0. -1.
</event>
<event>
 5    1  0.1279376E-008  0.3774152E+03  0.7957747E-01  0.3462491E+00
         13   -1    0    0    0    0  0.00000000000E+00  0.00000000000E+00  0.14999999963E+04  0.15000000000E+04  0.10566000000E+00 0. -1.
        994   -1    0    0    0    0 -0.00000000000E+00 -0.00000000000E+00  0.11368683772E-12  0.17120000000E+03  0.17120000000E+03 0.  0.
         13    1    1    2    0    0  0.96791649893E+00  0.10940820446E+02  0.85030458449E+01  0.13890693542E+02  0.10566000000E+00 0. -1.
        994    1    1    2    0    0 -0.22216506526E+01 -0.13788280318E+02  0.61016182765E+01  0.17187705534E+03  0.17120000000E+03 0.  0.
        998    1    1    2    0    0  0.12537341537E+01  0.28474598714E+01  0.14853953322E+04  0.14854322511E+04  0.10000000000E+02 0. -1.
</event>
<event>
 5    1  0.1279376E-008  0.3689069E+03  0.7957747E-01  0.3500930E+00
         13   -1    0    0    0    0  0.00000000000E+00  0.00000000000E+00  0.14999999963E+04  0.15000000000E+04  0.10566000000E+00 0. -1.
        994   -1    0    0    0    0 -0.00000000000E+00 -0.00000000000E+00  0.11368683772E-12  0.17120000000E+03  0.17120000000E+03 0.  0.
         13    1    1    2    0    0 -0.38562981722E+02  0.63497214434E+02  0.42470148665E+03  0.43115004781E+03  0.10566000000E+00 0. -1.
        994    1    1    2    0    0 -0.28207147477E+02 -0.11003542987E+02  0.13029861819E+02  0.17434430999E+03  0.17120000000E+03 0.  0.
        998    1    1    2    0    0  0.66770129199E+02 -0.52493671447E+02  0.10622686478E+04  0.10657056422E+04  0.10000000000E+02 0. -1.
</event>
<event>
 5    1  0.2039285E-008  0.3863069E+03  0.7957747E-01  0.3424148E+00
         13   -1    0    0    0    0  0.00000000000E+00  0.00000000000E+00  0.14999999963E+04  0.15000000000E+04  0.10566000000E+00 0.  1.
        994   -1    0    0    0    0 -0.00000000000E+00 -0.00000000000E+00  0.11368683772E-12  0.17120000000E+03  0.17120000000E+03 0.  0.
         13    1    1    2    0    0  0.12004555460E+02 -0.72772260221E+01  0.79703470679E+02  0.80930351369E+02  0.10566000000E+00 0.  1.
        994    1    1    2    0    0 -0.30962428670E+02  0.22131077611E+02  0.57404432863E+01  0.17547321526E+03  0.17120000000E+03 0.  0.
        998    1    1    2    0    0  0.18957873210E+02 -0.14853851589E+02  0.14145560823E+04  0.14147964334E+04  0.10000000000E+02 0.  1.
</event>
<event>
 5    1  0.2144094E-008  0.3867647E+03  0.7957747E-01  0.3422222E+00
         13   -1    0    0    0    0  0.00000000000E+00  0.00000000000E+00  0.14999999963E+04  0.15000000000E+04  0.10566000000E+00 0.  1.
        994   -1    0    0    0    0 -0.00000000000E+00 -0.00000000000E+00  0.11368683772E-12  0.17120000000E+03  0.17120000000E+03 0.  0.
         13    1    1    2    0    0 -0.34573617557E+01  0.11518164863E+02  0.72214762630E+02  0.73209320294E+02  0.10566000000E+00 0.  1.
        994    1    1    2    0    0  0.36489731221E+02 -0.33976702725E+02  0.89278102728E+01  0.17853588605E+03  0.17120000000E+03 0.  0.
        998    1    1    2    0    0 -0.33032369465E+02  0.22458537862E+02  0.14188574234E+04  0.14194547937E+04  0.10000000000E+02 0.  1.
</event>
<event>
 5    1  0.1279376E-008  0.3806539E+03  0.7957747E-01  0.3448316E+00
         13   -1    0    0    0    0  0.00000000000E+00  0.00000000000E+00  0.14999999963E+04  0.15000000000E+04  0.10566000000E+00 0. -1.
        994   -1    0    0    0    0 -0.00000000000E+00 -0.00000000000E+00  0.11368683772E-12  0.17120000000E+03  0.17120000000E+03 0.  0.
         13    1    1    2    0    0 -0.24427431929E+01 -0.24056508731E+02  0.70205676660E+02  0.74253153509E+02  0.10566000000E+00 0. -1.
        994    1    1    2    0    0 -0.14228139141E+02  0.33292683489E+02  0.81883891575E+01  0.17517800214E+03  0.17120000000E+03 0.  0.
        998    1    1    2    0    0  0.16670882334E+02 -0.92361747579E+01  0.14216059305E+04  0.14217688443E+04  0.10000000000E+02 0. -1.
</event>
<event>
 5    1  0.1279376E-008  0.3780784E+03  0.7957747E-01  0.3459568E+00
         13   -1    0    0    0    0  0.00000000000E+00  0.00000000000E+00  0.14999999963E+04  0.15000000000E+04  0.10566000000E+00 0. -1.
        994   -1    0    0    0    0 -0.00000000000E+00 -0.00000000000E+00  0.11368683772E-12  0.17120000000E+03  0.17120000000E+03 0.  0.
         13    1    1    2    0    0  0.24376188285E+02 -0.38163712902E+01  0.55643636091E+02  0.60868617913E+02  0.10566000000E+00 0. -1.
        994    1    1    2    0    0 -0.26010376055E+02  0.78864997270E+00  0.73878124806E+01  0.17332392046E+03  0.17120000000E+03 0.  0.
        998    1    1    2    0    0  0.16341877709E+01  0.30277213175E+01  0.14369685477E+04  0.14370074616E+04  0.10000000000E+02 0. -1.
</event>
<event>
 5    1  0.1279376E-008  0.3831452E+03  0.7957747E-01  0.3437577E+00
         13   -1    0    0    0    0  0.00000000000E+00  0.00000000000E+00  0.14999999963E+04  0.15000000000E+04  0.10566000000E+00 0. -1.
        994   -1    0    0    0    0 -0.00000000000E+00 -0.00000000000E+00  0.11368683772E-12  0.17120000000E+03  0.17120000000E+03 0.  0.
         13    1    1    2    0    0  0.17960727147E+02 -0.42936719806E+00  0.72345029097E+02  0.74542514546E+02  0.10566000000E+00 0. -1.
        994    1    1    2    0    0  0.14727933564E+02 -0.19966930069E+01  0.32850197828E+01  0.17187533321E+03  0.17120000000E+03 0.  0.
        998    1    1    2    0    0 -0.32688660711E+02  0.24260602050E+01  0.14243699474E+04  0.14247821522E+04  0.10000000000E+02 0. -1.
</event>
<event>
 5    1  0.1279376E-008  0.3847217E+03  0.7957747E-01  0.3430853E+00
         13   -1    0    0    0    0  0.00000000000E+00  0.00000000000E+00  0.14999999963E+04  0.15000000000E+04  0.10566000000E+00 0. -1.
        994   -1    0    0    0    0 -0.00000000000E+00 -0.00000000000E+00  0.11368683772E-12  0.17120000000E+03  0.17120000000E+03 0.  0.
         13    1    1    2    0    0  0.34006491862E+00  0.25651640504E+02  0.15397990174E+03  0.15610234978E+03  0.10566000000E+00 0. -1.
        994    1    1    2    0    0  0.34658224996E+02 -0.39163605950E+02  0.10823286214E+02  0.17933645507E+03  0.17120000000E+03 0.  0.
        998    1    1    2    0    0 -0.34998289914E+02  0.13511965446E+02  0.13351968083E+04  0.13357611952E+04  0.10000000000E+02 0. -1.
</event>
<event>
 5    1  0.1279376E-008  0.3781324E+03  0.7957747E-01  0.3459331E+00
         13   -1    0    0    0    0  0.00000000000E+00  0.00000000000E+00  0.14999999963E+04  0.15000000000E+04  0.10566000000E+00 0.  1.
        994   -1    0    0    0    0 -0.00000000000E+00 -0.00000000000E+00  0.11368683772E-12  0.17120000000E+03  0.17120000000E+03 0.  0.
         13    1    1    2    0    0  0.30624593524E+02  0.37864561432E+01  0.93787527947E+02  0.98733553269E+02  0.10566000000E+00 0.  1.
        994    1    1    2    0    0 -0.14985350483E+02  0.24874278834E+01  0.58554095159E+01  0.17197230547E+03  0.17120000000E+03 0.  0.
        998    1    1    2    0    0 -0.15639243041E+02 -0.62738840266E+01  0.14003570588E+04  0.14004941413E+04  0.10000000000E+02 0.  1.
</event>
<event>
 5    1  0.1279376E-008  0.3828281E+03  0.7957747E-01  0.3438936E+00
         13   -1    0    0    0    0  0.00000000000E+00  0.00000000000E+00  0.14999999963E+04  0.15000000000E+04  0.10566000000E+00 0. -1.
        994   -1    0    0    0    0 -0.00000000000E+00 -0.00000000000E+00  0.11368683772E-12  0.17120000000E+03  0.17120000000E+03 0.  0.
         13    1    1    2    0    0  0.24377095135E+02  0.14871009030E+03  0.86277894538E+03  0.87584042695E+03  0.10566000000E+00 0. -1.
        994    1    1    2    0    0 -0.26501098894E+02 -0.17136434657E+03  0.10965938493E+03  0.26721277706E+03  0.17120000000E+03 0.  0.
        998    1    1    2    0    0  0.21240037587E+01  0.22654256274E+02  0.52756166597E+03  0.52814679599E+03  0.10000000000E+02 0.  1.
</event>
<event>
 5    1  0.1279376E-008  0.3742059E+03  0.7957747E-01  0.3476782E+00
         13   -1    0    0    0    0  0.00000000000E+00  0.00000000000E+00  0.14999999963E+04  0.15000000000E+04  0.10566000000E+00 0. -1.
        994   -1    0    0    0    0 -0.00000000000E+00 -0.00000000000E+00  0.11368683772E-12  0.17120000000E+03  0.17120000000E+03 0.  0.
         13    1    1    2    0    0  0.31517376497E+02  0.23120976370E+02  0.10325313599E+03  0.11040446470E+03  0.10566000000E+00 0. -1.
        994    1    1    2    0    0 -0.27150634665E+02 -0.11399135432E+02  0.10048112430E+02  0.17400431551E+03  0.17120000000E+03 0.  0.
        998    1    1    2    0    0 -0.43667418321E+01 -0.11721840938E+02  0.13866987479E+04  0.13867912198E+04  0.10000000000E+02 0. -1.
</event>
<event>
 5    1  0.1279376E-008  0.2482119E+03  0.7957747E-01  0.4352926E+00
         13   -1    0    0    0    0  0.00000000000E+00  0.00000000000E+00  0.14999999963E+04  0.15000000000E+04  0.10566000000E+00 0.  1.
        994   -1    0    0    0    0 -0.00000000000E+00 -0.00000000000E+00  0.11368683772E-12  0.17120000000E+03  0.17120000000E+03 0.  0.
         13    1    1    2    0    0 -0.11849208211E+03  0.16639981686E+03  0.37544696379E+03  0.42742216409E+03  0.10566000000E+00 0.  1.
        994    1    1    2    0    0  0.91847194816E+02 -0.64916520604E+02  0.12773610585E+03  0.24140425551E+03  0.17120000000E+03 0.  0.
        998    1    1    2    0    0  0.26644887291E+02 -0.10148329626E+03  0.99681692664E+03  0.10023735804E+04  0.10000000000E+02 0.  1.
</event>
<event>
 5    1  0.1279376E-008  0.3801652E+03  0.7957747E-01  0.3450440E+00
         13   -1    0    0    0    0  0.00000000000E+00  0.00000000000E+00  0.14999999963E+04  0.15000000000E+04  0.10566000000E+00 0.  1.
        994   -1    0    0    0    0 -0.00000000000E+00 -0.00000000000E+00  0.11368683772E-12  0.17120000000E+03  0.17120000000E+03 0.  0.
         13    1    1    2    0    0  0.39594616227E+01 -0.17274102893E+02  0.37785415077E+02  0.41735125778E+02  0.10566000000E+00 0.  1.
        994    1    1    2    0    0 -0.11953003530E+01  0.73077173190E+01  0.42330222955E+01  0.17141233898E+03  0.17120000000E+03 0.  0.
        998    1    1    2    0    0 -0.27641612697E+01  0.99663855739E+01  0.14579815589E+04  0.14580525352E+04  0.10000000000E+02 0.  1.
</event>
<event>
 5    1  0.1279376E-008  0.3748843E+03  0.7957747E-01  0.3473740E+00
         13   -1    0    0    0    0  0.00000000000E+00  0.00000000000E+00  0.14999999963E+04  0.15000000000E+04  0.10566000000E+00 0.  1.
        994   -1    0    0    0    0 -0.00000000000E+00 -0.00000000000E+00  0.11368683772E-12  0.17120000000E+03  0.17120000000E+03 0.  0.
         13    1    1    2    0    0  0.85224752967E+01  0.21640096359E+02  0.36571169640E+02  0.43340373423E+02  0.10566000000E+00 0.  1.
        994    1    1    2    0    0 -0.14710422567E+02 -0.19802966457E+02  0.88103183738E+01  0.17319242398E+03  0.17120000000E+03 0.  0.
        998    1    1    2    0    0  0.61879472699E+01 -0.18371299022E+01  0.14546185083E+04  0.14546672026E+04  0.10000000000E+02 0.  1.
</event>
<event>
 5    1  0.1279376E-008  0.3787712E+03  0.7957747E-01  0.3456527E+00
         13   -1    0    0    0    0  0.00000000000E+00  0.00000000000E+00  0.14999999963E+04  0.15000000000E+04  0.10566000000E+00 0.  1.
        994   -1    0    0    0    0 -0.00000000000E+00 -0.00000000000E+00  0.11368683772E-12  0.17120000000E+03  0.17120000000E+03 0.  0.
         13    1    1    2    0    0 -0.54331637858E+01  0.54618811899E+02  0.24100008272E+03  0.24717156979E+03  0.10566000000E+00 0.  1.
        994    1    1    2    0    0  0.45202063697E+01 -0.67518756719E+02  0.20281976941E+02  0.18520262785E+03  0.17120000000E+03 0.  0.
        998    1    1    2    0    0  0.91295741611E+00  0.12899944820E+02  0.12387179366E+04  0.12388258024E+04  0.10000000000E+02 0.  1.
</event>
<event>
 5    1  0.1279376E-008  0.3849123E+03  0.7957747E-01  0.3430044E+00
         13   -1    0    0    0    0  0.00000000000E+00  0.00000000000E+00  0.14999999963E+04  0.15000000000E+04  0.10566000000E+00 0. -1.
        994   -1    0    0    0    0 -0.00000000000E+00 -0.00000000000E+00  0.11368683772E-12  0.17120000000E+03  0.17120000000E+03 0.  0.
         13    1    1    2    0    0  0.75181871339E+01 -0.10900954489E+02  0.51231989085E+02  0.52915799306E+02  0.10566000000E+00 0. -1.
        994    1    1    2    0    0 -0.14136044100E+02  0.55697521858E+01  0.24334560776E+01  0.17189011487E+03  0.17120000000E+03 0.  0.
        998    1    1    2    0    0  0.66178569664E+01  0.53312023033E+01  0.14463345511E+04  0.14463940858E+04  0.10000000000E+02 0. -1.
</event>
<event>
 5    1  0.1279376E-008  0.3685352E+03  0.7957747E-01  0.3502650E+00
         13   -1    0    0    0    0  0.00000000000E+00  0.00000000000E+00  0.14999999963E+04  0.15000000000E+04  0.10566000000E+00 0. -1.
        994   -1    0    0    0    0 -0.00000000000E+00 -0.00000000000E+00  0.11368683772E-12  0.17120000000E+03  0.17120000000E+03 0.  0.
         13    1    1    2    0    0  0.86715878806E+02 -0.30120728621E+02  0.38006447983E+03  0.39099350624E+03  0.10566000000E+00 0. -1.
        994    1    1    2    0    0 -0.41131464404E+02  0.11155784052E+03  0.61085644988E+02  0.21720461590E+03  0.17120000000E+03 0.  0.
        998    1    1    2    0    0 -0.45584414402E+02 -0.81437111903E+02  0.10588498715E+04  0.10630018779E+04  0.10000000000E+02 0. -1.
</event>
<event>
 5    1  0.1279376E-008  0.3817714E+03  0.7957747E-01  0.3443482E+00
         13   -1    0    0    0    0  0.00000000000E+00  0.00000000000E+00  0.14999999963E+04  0.15000000000E+04  0.10566000000E+00 0. -1.
        994   -1    0    0    0    0 -0.00000000000E+00 -0.00000000000E+00  0.11368683772E-12  0.17120000000E+03  0.17120000000E+03 0.  0.
         13    1    1    2    0    0  0.14191949876E+02  0.54609740602E+01  0.34728668618E+02  0.37912072840E+02  0.10566000000E+00 0. -1.
        994    1    1    2    0    0 -0.85289129214E+01 -0.82166090458E+00  0.34856580685E+01  0.17144972235E+03  0.17120000000E+03 0.  0.
        998    1    1    2    0    0 -0.56630369547E+01 -0.46393131557E+01  0.14617856696E+04  0.14618382048E+04  0.10000000000E+02 0. -1.
</event>
<event>
 5    1  0.1279376E-008  0.3822294E+03  0.7957747E-01  0.3441508E+00
         13   -1    0    0    0    0  0.00000000000E+00  0.00000000000E+00  0.14999999963E+04  0.15000000000E+04  0.10566000000E+00 0.  1.
        994   -1    0    0    0    0 -0.00000000000E+00 -0.00000000000E+00  0.11368683772E-12  0.17120000000E+03  0.17120000000E+03 0.  0.
         13    1    1    2    0    0  0.11195013201E+02 -0.13333803274E+01  0.20172544822E+02  0.23109499179E+02  0.10566000000E+00 0.  1.
        994    1    1    2    0    0 -0.39025129905E+01 -0.13844440774E+01  0.30688794759E+01  0.17127756512E+03  0.17120000000E+03 0.  0.
        998    1    1    2    0    0 -0.72925002101E+01  0.27178244048E+01  0.14767585720E+04  0.14768129357E+04  0.10000000000E+02 0.  1.
</event>
<event>
 5    1  0.1279376E-008  0.3793962E+03  0.7957747E-01  0.3453792E+00
         13   -1    0    0    0    0  0.00000000000E+00  0.00000000000E+00  0.14999999963E+04  0.15000000000E+04  0.10566000000E+00 0. -1.
        994   -1    0    0    0    0 -0.00000000000E+00 -0.00000000000E+00  0.11368683772E-12  0.17120000000E+03  0.17120000000E+03 0.  0.
         13    1    1    2    0    0 -0.13611885727E+02  0.31555754958E+01  0.19933905970E+02  0.24343641080E+02  0.10566000000E+00 0. -1.
        994    1    1    2    0    0  0.13420537972E+02 -0.20770655532E+01  0.50562312549E+01  0.17181219548E+03  0.17120000000E+03 0.  0.
        998    1    1    2    0    0  0.19134775510E+00 -0.10785099426E+01  0.14750098591E+04  0.14750441634E+04  0.10000000000E+02 0. -1.
</event>
<event>
 5    1  0.1279376E-008  0.3796489E+03  0.7957747E-01  0.3452689E+00
         13   -1    0    0    0    0  0.00000000000E+00  0.00000000000E+00  0.14999999963E+04  0.15000000000E+04  0.10566000000E+00 0.  1.
        994   -1    0    0    0    0 -0.00000000000E+00 -0.00000000000E+00  0.11368683772E-12  0.17120000000E+03  0.17120000000E+03 0.  0.
         13    1    1    2    0    0 -0.16872987168E+02  0.15926969386E+02  0.60000195001E+02  0.64330401941E+02  0.10566000000E+00 0.  1.
        994    1    1    2    0    0  0.13037611716E+02 -0.13059507680E+02  0.54509738823E+01  0.17227792423E+03  0.17120000000E+03 0.  0.
        998    1    1    2    0    0  0.38353754517E+01 -0.28674617060E+01  0.14345488274E+04  0.14345916738E+04  0.10000000000E+02 0.  1.
</event>
<event>
 5    1  0.1279376E-008  0.3860502E+03  0.7957747E-01  0.3425230E+00
         13   -1    0    0    0    0  0.00000000000E+00  0.00000000000E+00  0.14999999963E+04  0.15000000000E+04  0.10566000000E+00 0.  1.
        994   -1    0    0    0    0 -0.00000000000E+00 -0.00000000000E+00  0.11368683772E-12  0.17120000000E+03  0.17120000000E+03 0.  0.
         13    1    1    2    0    0 -0.11090233702E+02 -0.32586159105E+01  0.59045370737E+02  0.60166259904E+02  0.10566000000E+00 0.  1.
        994    1    1    2    0    0  0.11336198004E+02  0.45932311369E+01  0.16001016146E+01  0.17164383905E+03  0.17120000000E+03 0.  0.
        998    1    1    2    0    0 -0.24596430198E+00 -0.13346152264E+01  0.14393545239E+04  0.14393899010E+04  0.10000000000E+02 0.  1.
</event>
<event>
 5    1  0.1279376E-008  0.3822911E+03  0.7957747E-01  0.3441243E+00
         13   -1    0    0    0    0  0.00000000000E+00  0.00000000000E+00  0.14999999963E+04  0.15000000000E+04  0.10566000000E+00 0.  1.
        994   -1    0    0    0    0 -0.00000000000E+00 -0.00000000000E+00  0.11368683772E-12  0.17120000000E+03  0.17120000000E+03 0.  0.
         13    1    1    2    0    0  0.11522217287E+02 -0.32372916451E+01  0.22578085790E+02  0.25554308255E+02  0.10566000000E+00 0.  1.
        994    1    1    2    0    0 -0.32801450917E+01  0.35056949819E+02  0.71052038845E+01  0.17492762219E+03  0.17120000000E+03 0.  0.
        998    1    1    2    0    0 -0.82420721951E+01 -0.31819658174E+02  0.14703167066E+04  0.14707180696E+04  0.10000000000E+02 0.  1.
</event>
<event>
 5    1  0.1279376E-008  0.3747642E+03  0.7957747E-01  0.3474278E+00
         13   -1    0    0    0    0  0.00000000000E+00  0.00000000000E+00  0.14999999963E+04  0.15000000000E+04  0.10566000000E+00 0.  1.
        994   -1    0    0    0    0 -0.00000000000E+00 -0.00000000000E+00  0.11368683772E-12  0.17120000000E+03  0.17120000000E+03 0.  0.
         13    1    1    2    0    0  0.12482297016E+03  0.52857138878E+02  0.79039082699E+03  0.80193037201E+03  0.10566000000E+00 0.  1.
        994    1    1    2    0    0 -0.12872407997E+03 -0.14781026468E+02  0.66246456520E+02  0.22469179003E+03  0.17120000000E+03 0.  0.
        998    1    1    2    0    0  0.39011098131E+01 -0.38076112410E+02  0.64336271277E+03  0.64457783795E+03  0.10000000000E+02 0. -1.
</event>
<event>
 5    1  0.1279376E-008  0.3828003E+03  0.7957747E-01  0.3439055E+00
         13   -1    0    0    0    0  0.00000000000E+00  0.00000000000E+00  0.14999999963E+04  0.15000000000E+04  0.10566000000E+00 0.  1.
        994   -1    0    0    0    0 -0.00000000000E+00 -0.00000000000E+00  0.11368683772E-12  0.17120000000E+03  0.17120000000E+03 0.  0.
         13    1    1    2    0    0 -0.79574692822E+01  0.19622548790E+02  0.80280942196E+02  0.83026541433E+02  0.10566000000E+00 0.  1.
        994    1    1    2    0    0  0.70507046044E+01 -0.14330270995E+02  0.35715005945E+01  0.17198041958E+03  0.17120000000E+03 0.  0.
        998    1    1    2    0    0  0.90676467773E+00 -0.52922777947E+01  0.14161475535E+04  0.14161930390E+04  0.10000000000E+02 0.  1.
</event>
<event>
 5    1  0.1279376E-008  0.3772658E+03  0.7957747E-01  0.3463151E+00
         13   -1    0    0    0    0  0.00000000000E+00  0.00000000000E+00  0.14999999963E+04  0.15000000000E+04  0.10566000000E+00 0. -1.
        994   -1    0    0    0    0 -0.00000000000E+00 -0.00000000000E+00  0.11368683772E-12  0.17120000000E+03  0.17120000000E+03 0.  0.
         13    1    1    2    0    0 -0.15608184045E+02  0.29416815731E+01  0.20353345121E+02  0.25817411204E+02  0.10566000000E+00 0. -1.
        994    1    1    2    0    0  0.14214750533E+02 -0.45247018916E+00  0.62023967833E+01  0.17190163928E+03  0.17120000000E+03 0.  0.
        998    1    1    2    0    0  0.13934335115E+01 -0.24892113840E+01  0.14734442544E+04  0.14734809495E+04  0.10000000000E+02 0. -1.
</event>
<event>
 5    1  0.1279376E-008  0.4255995E+03  0.7957747E-01  0.3273846E+00
         13   -1    0    0    0    0  0.00000000000E+00  0.00000000000E+00  0.14999999963E+04  0.15000000000E+04  0.10566000000E+00 0.  1.
        994   -1    0    0    0    0 -0.00000000000E+00 -0.00000000000E+00  0.11368683772E-12  0.17120000000E+03  0.17120000000E+03 0.  0.
         13    1    1    2    0    0  0.65543276692E+01  0.89515594641E+02  0.81707629570E+02  0.12137606349E+03  0.10566000000E+00 0.  1.
        994    1    1    2    0    0 -0.15754777530E+02 -0.57561265957E+02  0.59833635186E+02  0.19092149238E+03  0.17120000000E+03 0.  0.
        998    1    1    2    0    0  0.92004498612E+01 -0.31954328684E+02  0.13584587315E+04  0.13589024441E+04  0.10000000000E+02 0.  1.
</event>
<event>
 5    1  0.1279376E-008  0.3944996E+03  0.7957747E-01  0.3390356E+00
         13   -1    0    0    0    0  0.00000000000E+00  0.00000000000E+00  0.14999999963E+04  0.15000000000E+04  0.10566000000E+00 0. -1.
        994   -1    0    0    0    0 -0.00000000000E+00 -0.00000000000E+00  0.11368683772E-12  0.17120000000E+03  0.17120000000E+03 0.  0.
         13    1    1    2    0    0 -0.54865753549E+02 -0.11978470242E+03  0.38451720106E+03  0.40646293180E+03  0.10566000000E+00 0. -1.
        994    1    1    2    0    0  0.12072776724E+03  0.19791106649E+02  0.84460819116E+02  0.22673762734E+03  0.17120000000E+03 0.  0.
        998    1    1    2    0    0 -0.65862013687E+02  0.99993595772E+02  0.10310219761E+04  0.10379994409E+04  0.10000000000E+02 0. -1.
</event>
<event>
 5    1  0.1279376E-008  0.3691755E+03  0.7957747E-01  0.3499689E+00
         13   -1    0    0    0    0  0.00000000000E+00  0.00000000000E+00  0.14999999963E+04  0.15000000000E+04  0.10566000000E+00 0. -1.
        994   -1    0    0    0    0 -0.00000000000E+00 -0.00000000000E+00  0.11368683772E-12  0.17120000000E+03  0.17120000000E+03 0.  0.
         13    1    1    2    0    0 -0.39582357990E+02 -0.49476034012E+02  0.17643927829E+03  0.18747125404E+03  0.10566000000E+00 0. -1.
        994    1    1    2    0    0  0.41880016489E+02  0.53359794092E+02  0.25829420774E+02  0.18595107524E+03  0.17120000000E+03 0.  0.
        998    1    1    2    0    0 -0.22976584987E+01 -0.38837600802E+01  0.12977312972E+04  0.12977776707E+04  0.10000000000E+02 0.  0.
</event>
<event>
 5    1  0.1279376E-008  0.3804038E+03  0.7957747E-01  0.3449402E+00
         13   -1    0    0    0    0  0.00000000000E+00  0.00000000000E+00  0.14999999963E+04  0.15000000000E+04  0.10566000000E+00 0.  1.
        994   -1    0    0    0    0 -0.00000000000E+00 -0.00000000000E+00  0.11368683772E-12  0.17120000000E+03  0.17120000000E+03 0.  0.
         13    1    1    2    0    0 -0.14797571308E+02  0.20191543145E+01  0.25678918132E+02  0.29706280501E+02  0.10566000000E+00 0.  1.
        994    1    1    2    0    0  0.24442554918E+02 -0.39838890441E+01  0.59796576890E+01  0.17308525694E+03  0.17120000000E+03 0.  0.
        998    1    1    2    0    0 -0.96449836101E+01  0.19647347296E+01  0.14683414205E+04  0.14684084626E+04  0.10000000000E+02 0.  1.
</event>
<event>
 5    1  0.1279376E-008  0.4008874E+03  0.7957747E-01  0.3364965E+00
         13   -1    0    0    0    0  0.00000000000E+00  0.00000000000E+00  0.14999999963E+04  0.15000000000E+04  0.10566000000E+00 0.  1.
        994   -1    0    0    0    0 -0.00000000000E+00 -0.00000000000E+00  0.11368683772E-12  0.17120000000E+03  0.17120000000E+03 0.  0.
         13    1    1    2    0    0 -0.82851896147E+02 -0.65987553351E+02  0.43073597015E+03  0.44356767357E+03  0.10566000000E+00 0.  1.
        994    1    1    2    0    0 -0.51212484431E+02 -0.48908151390E+02  0.48293026516E+02  0.19145856535E+03  0.17120000000E+03 0.  0.
        998    1    1    2    0    0  0.13406438058E+03  0.11489570474E+03  0.10209709996E+04  0.10361737611E+04  0.10000000000E+02 0.  1.
</event>
<event>
 5    1  0.1279376E-008  0.3848321E+03  0.7957747E-01  0.3430385E+00
         13   -1    0    0    0    0  0.00000000000E+00  0.00000000000E+00  0.14999999963E+04  0.15000000000E+04  0.10566000000E+00 0.  1.
        994   -1    0    0    0    0 -0.00000000000E+00 -0.00000000000E+00  0.11368683772E-12  0.17120000000E+03  0.17120000000E+03 0.  0.
         13    1    1    2    0    0  0.17569274287E+02 -0.78546091362E+01  0.10547084874E+03  0.10721233783E+03  0.10566000000E+00 0.  1.
        994    1    1    2    0    0 -0.12258942192E+02  0.99659506911E+01  0.25352581339E+01  0.17194612345E+03  0.17120000000E+03 0.  0.
        998    1    1    2    0    0 -0.53103320953E+01 -0.21113415549E+01  0.13919938894E+04  0.13920415387E+04  0.10000000000E+02 0.  1.
</event>
<event>
 5    1  0.1279376E-008  0.3820617E+03  0.7957747E-01  0.3442230E+00
         13   -1    0    0    0    0  0.00000000000E+00  0.00000000000E+00  0.14999999963E+04  0.15000000000E+04  0.10566000000E+00 0. -1.
        994   -1    0    0    0    0 -0.00000000000E+00 -0.00000000000E+00  0.11368683772E-12  0.17120000000E+03  0.17120000000E+03 0.  0.
         13    1    1    2    0    0 -0.20409879249E+02 -0.20964523727E-01  0.72074340215E+02  0.74908512813E+02  0.10566000000E+00 0. -1.
        994    1    1    2    0    0 -0.36104679103E+01  0.88030596718E+01  0.33966618516E+01  0.17149783278E+03  0.17120000000E+03 0.  0.
        998    1    1    2    0    0  0.24020347159E+02 -0.87820951480E+01  0.14245289942E+04  0.14247936544E+04  0.10000000000E+02 0. -1.
</event>
<event>
 5    1  0.1279376E-008  0.3820406E+03  0.7957747E-01  0.3442321E+00
         13   -1    0    0    0    0  0.00000000000E+00  0.00000000000E+00  0.14999999963E+04  0.15000000000E+04  0.10566000000E+00 0.  1.
        994   -1    0    0    0    0 -0.00000000000E+00 -0.00000000000E+00  0.11368683772E-12  0.17120000000E+03  0.17120000000E+03 0.  0.
         13    1    1    2    0    0  0.43955074969E+01 -0.18354189914E+02  0.61030627225E+02  0.63882277644E+02  0.10566000000E+00 0.  1.
        994    1    1    2    0    0  0.69275302119E-01 -0.52806846709E+01  0.31992378847E+01  0.17131131181E+03  0.17120000000E+03 0.  0.
        998    1    1    2    0    0 -0.44647827990E+01  0.23634874585E+02  0.14357701312E+04  0.14360064105E+04  0.10000000000E+02 0.  1.
</event>
<event>
 5    1  0.1279376E-008  0.3855259E+03  0.7957747E-01  0.3427445E+00
         13   -1    0    0    0    0  0.00000000000E+00  0.00000000000E+00  0.14999999963E+04  0.15000000000E+04  0.10566000000E+00 0. -1.
        994   -1    0    0    0    0 -0.00000000000E+00 -0.00000000000E+00  0.11368683772E-12  0.17120000000E+03  0.17120000000E+03 0.  0.
         13    1    1    2    0    0  0.12260963288E+01  0.13892834290E+02  0.68278432798E+02  0.69688375689E+02  0.10566000000E+00 0. -1.
        994    1    1    2    0    0  0.67616666093E+01 -0.16373685543E+02  0.24002110083E+01  0.17213081864E+03  0.17120000000E+03 0.  0.
        998    1    1    2    0    0 -0.79877629380E+01  0.24808512521E+01  0.14293213525E+04  0.14293808057E+04  0.10000000000E+02 0. -1.
</event>
<event>
 5    1  0.1279376E-008  0.3747479E+03  0.7957747E-01  0.3474351E+00
         13   -1    0    0    0    0  0.00000000000E+00  0.00000000000E+00  0.14999999963E+04  0.15000000000E+04  0.10566000000E+00 0.  1.
        994   -1    0    0    0    0 -0.00000000000E+00 -0.00000000000E+00  0.11368683772E-12  0.17120000000E+03  0.17120000000E+03 0.  0.
         13    1    1    2    0    0  0.10097227418E+02  0.44889425859E+01  0.57644953037E+01  0.12463754539E+02  0.10566000000E+00 0.  1.
        994    1    1    2    0    0 -0.24885065332E+02  0.28395644586E+02  0.11673647286E+02  0.17570228555E+03  0.17120000000E+03 0.  0.
        998    1    1    2    0    0  0.14787837914E+02 -0.32884587172E+02  0.14825618537E+04  0.14830339599E+04  0.10000000000E+02 0.  1.
</event>
<event>
 5    1  0.1279376E-008  0.3762988E+03  0.7957747E-01  0.3467434E+00
         13   -1    0    0    0    0  0.00000000000E+00  0.00000000000E+00  0.14999999963E+04  0.15000000000E+04  0.10566000000E+00 0.  1.
        994   -1    0    0    0    0 -0.00000000000E+00 -0.00000000000E+00  0.11368683772E-12  0.17120000000E+03  0.17120000000E+03 0.  0.
         13    1    1    2    0    0  0.72583787459E+00  0.11721252945E+02  0.86555478157E+01  0.14589183776E+02  0.10566000000E+00 0.  1.
        994    1    1    2    0    0 -0.16283055491E+01 -0.13111066763E+02  0.66042217441E+01  0.17183598923E+03  0.17120000000E+03 0.  0.
        998    1    1    2    0    0  0.90246767453E+00  0.13898138180E+01  0.14847402267E+04  0.14847748270E+04  0.10000000000E+02 0.  1.
</event>
<event>
 5    1  0.1279376E-008  0.3801894E+03  0.7957747E-01  0.3450334E+00
         13   -1    0    0    0    0  0.00000000000E+00  0.00000000000E+00  0.14999999963E+04  0.15000000000E+04  0.10566000000E+00 0. -1.
        994   -1    0    0    0    0 -0.00000000000E+00 -0.00000000000E+00  0.11368683772E-12  0.17120000000E+03  0.17120000000E+03 0.  0.
         13    1    1    2    0    0 -0.12712745146E+02  0.53613358964E+01  0.21693218503E+02  0.25709233843E+02  0.10566000000E+00 0. -1.
        994    1    1    2    0    0  0.22452394964E+02  0.19767014854E+02  0.70328331017E+01  0.17393603898E+03  0.17120000000E+03 0.  0.
        998    1    1    2    0    0 -0.97396498176E+01 -0.25128350750E+02  0.14712739447E+04  0.14715547272E+04  0.10000000000E+02 0. -1.
</event>
<event>
 5    1  0.1279376E-008  0.3838840E+03  0.7957747E-01  0.3434419E+00
         13   -1    0    0    0    0  0.00000000000E+00  0.00000000000E+00  0.14999999963E+04  0.15000000000E+04  0.10566000000E+00 0. -1.
        994   -1    0    0    0    0 -0.00000000000E+00 -0.00000000000E+00  0.11368683772E-12  0.17120000000E+03  0.17120000000E+03 0.  0.
         13    1    1    2    0    0 -0.35612507980E+01 -0.18020132922E+02  0.74516217159E+02  0.76746892324E+02  0.10566000000E+00 0. -1.
        994    1    1    2    0    0  0.46426305209E+01  0.16202925613E+02  0.31234468579E+01  0.17205605115E+03  0.17120000000E+03 0.  0.
        998    1    1    2    0    0 -0.10813797229E+01  0.18172073085E+01  0.14223603323E+04  0.14223970565E+04  0.10000000000E+02 0.  0.
</event>
<event>
 5    1  0.1279376E-008  0.3796189E+03  0.7957747E-01  0.3452819E+00
         13   -1    0    0    0    0  0.00000000000E+00  0.00000000000E+00  0.14999999963E+04  0.15000000000E+04  0.10566000000E+00 0.  1.
        994   -1    0    0    0    0 -0.00000000000E+00 -0.00000000000E+00  0.11368683772E-12  0.17120000000E+03  0.17120000000E+03 0.  0.
         13    1    1    2    0    0 -0.17631097358E+02 -0.44611813198E+01  0.37866721619E+02  0.42007826687E+02  0.10566000000E+00 0.  1.
        994    1    1    2    0    0  0.29024497161E+00  0.46844110289E+01  0.43993702840E+01  0.17132081720E+03  0.17120000000E+03 0.  0.
        998    1    1    2    0    0  0.17340852386E+02 -0.22322970910E+00  0.14577339044E+04  0.14578713561E+04  0.10000000000E+02 0.  1.
</event>
<event>
 5    1  0.1279376E-008  0.3841289E+03  0.7957747E-01  0.3433375E+00
         13   -1    0    0    0    0  0.00000000000E+00  0.00000000000E+00  0.14999999963E+04  0.15000000000E+04  0.10566000000E+00 0. -1.
        994   -1    0    0    0    0 -0.00000000000E+00 -0.00000000000E+00  0.11368683772E-12  0.17120000000E+03  0.17120000000E+03 0.  0.
         13    1    1    2    0    0 -0.46745989000E+01 -0.88543249512E+01  0.24129626986E+02  0.26124720242E+02  0.10566000000E+00 0. -1.
        994    1    1    2    0    0 -0.29896243920E+01  0.36161910740E+01  0.21358545748E+01  0.17127760089E+03  0.17120000000E+03 0.  0.
        998    1    1    2    0    0  0.76642232920E+01  0.52381338771E+01  0.14737345147E+04  0.14737976789E+04  0.10000000000E+02 0. -1.
</event>
<event>
 5    1  0.1279376E-008  0.3844699E+03  0.7957747E-01  0.3431923E+00
         13   -1    0    0    0    0  0.00000000000E+00  0.00000000000E+00  0.14999999963E+04  0.15000000000E+04  0.10566000000E+00 0.  1.
        994   -1    0    0    0    0 -0.00000000000E+00 -0.00000000000E+00  0.11368683772E-12  0.17120000000E+03  0.17120000000E+03 0.  0.
         13    1    1    2    0    0  0.27656303715E+01 -0.15836919297E+02  0.65823247743E+02  0.67758156939E+02  0.10566000000E+00 0.  1.
        994    1    1    2    0    0 -0.78872872544E+01  0.14925248186E+02  0.28328796799E+01  0.17205358915E+03  0.17120000000E+03 0.  0.
        998    1    1    2    0    0  0.51216568828E+01  0.91167111168E+00  0.14313438689E+04  0.14313882539E+04  0.10000000000E+02 0.  1.
</event>
<event>
 5    1  0.1279376E-008  0.3737075E+03  0.7957747E-01  0.3479023E+00
         13   -1    0    0    0    0  0.00000000000E+00  0.00000000000E+00  0.14999999963E+04  0.15000000000E+04  0.10566000000E+00 0. -1.
        994   -1    0    0    0    0 -0.00000000000E+00 -0.00000000000E+00  0.11368683772E-12  0.17120000000E+03  0.17120000000E+03 0.  0.
         13    1    1    2    0    0 -0.96726958663E+01  0.29753362367E+02  0.64613173993E+02  0.71789254314E+02  0.10566000000E+00 0. -1.
        994    1    1    2    0    0  0.23304725106E+02 -0.10065376240E+02  0.95471825705E+01  0.17333496677E+03  0.17120000000E+03 0.  0.
        998    1    1    2    0    0 -0.13632029240E+02 -0.19687986127E+02  0.14258396397E+04  0.14260757789E+04  0.10000000000E+02 0. -1.
</event>
<event>
 5    1  0.1279376E-008  0.3857316E+03  0.7957747E-01  0.3426575E+00
         13   -1    0    0    0    0  0.00000000000E+00  0.00000000000E+00  0.14999999963E+04  0.15000000000E+04  0.10566000000E+00 0. -1.
        994   -1    0    0    0    0 -0.00000000000E+00 -0.00000000000E+00  0.11368683772E-12  0.17120000000E+03  0.17120000000E+03 0.  0.
         13    1    1    2    0    0  0.17268674749E+02  0.24267151202E+01  0.10460790134E+03  0.10605149815E+03  0.10566000000E+00 0. -1.
        994    1    1    2    0    0 -0.25294103010E+02 -0.20984016596E+02  0.48191368492E+01  0.17439261647E+03  0.17120000000E+03 0.  0.
        998    1    1    2    0    0  0.80254282605E+01  0.18557301476E+02  0.13905729581E+04  0.13907558854E+04  0.10000000000E+02 0. -1.
</event>
<event>
 5    1  0.1279376E-008  0.3825270E+03  0.7957747E-01  0.3440229E+00
         13   -1    0    0    0    0  0.00000000000E+00  0.00000000000E+00  0.14999999963E+04  0.15000000000E+04  0.10566000000E+00 0. -1.
        994   -1    0    0    0    0 -0.00000000000E+00 -0.00000000000E+00  0.11368683772E-12  0.17120000000E+03  0.17120000000E+03 0.  0.
         13    1    1    2    0    0  0.13602510788E+02  0.39609665848E+00  0.30242942166E+02  0.33163713713E+02  0.10566000000E+00 0. -1.
        994    1    1    2    0    0 -0.19594896706E+02  0.82771443830E+01  0.43644120378E+01  0.17257160597E+03  0.17120000000E+03 0.  0.
        998    1    1    2    0    0  0.59923859181E+01 -0.86732410415E+01  0.14653926421E+04  0.14654646803E+04  0.10000000000E+02 0. -1.
</event>
<event>
 5    1  0.1279376E-008  0.3843621E+03  0.7957747E-01  0.3432382E+00
         13   -1    0    0    0    0  0.00000000000E+00  0.00000000000E+00  0.14999999963E+04  0.15000000000E+04  0.10566000000E+00 0.  1.
        994   -1    0    0    0    0 -0.00000000000E+00 -0.00000000000E+00  0.11368683772E-12  0.17120000000E+03  0.17120000000E+03 0.  0.
         13    1    1    2    0    0  0.70719365134E+01  0.23805628617E+02  0.14976596774E+03  0.15181098939E+03  0.10566000000E+00 0.  1.
        994    1    1    2    0    0 -0.11032462251E+02 -0.18837415669E+02  0.35192293762E+01  0.17262209716E+03  0.17120000000E+03 0.  0.
        998    1    1    2    0    0  0.39605257381E+01 -0.49682129475E+01  0.13467147992E+04  0.13467669135E+04  0.10000000000E+02 0.  1.
</event>
<event>
 5    1  0.1279376E-008  0.3713305E+03  0.7957747E-01  0.3489799E+00
         13   -1    0    0    0    0  0.00000000000E+00  0.00000000000E+00  0.14999999963E+04  0.15000000000E+04  0.10566000000E+00 0. -1.
        994   -1    0    0    0    0 -0.00000000000E+00 -0.00000000000E+00  0.11368683772E-12  0.17120000000E+03  0.17120000000E+03 0.  0.
         13    1    1    2    0    0  0.31534292662E+02  0.66725369270E+02  0.38263234039E+03  0.38968475156E+03  0.10566000000E+00 0. -1.
        994    1    1    2    0    0 -0.41118610062E+02 -0.32741154325E+01  0.14454252810E+02  0.17669132788E+03  0.17120000000E+03 0.  0.
        998    1    1    2    0    0  0.95843173992E+01 -0.63451253837E+02  0.11029134031E+04  0.11048239206E+04  0.10000000000E+02 0. -1.
</event>
<event>
 5    1  0.1279376E-008  0.3817434E+03  0.7957747E-01  0.3443602E+00
         13   -1    0    0    0    0  0.00000000000E+00  0.00000000000E+00  0.14999999963E+04  0.15000000000E+04  0.10566000000E+00 0.  1.
        994   -1    0    0    0    0 -0.00000000000E+00 -0.00000000000E+00  0.11368683772E-12  0.17120000000E+03  0.17120000000E+03 0.  0.
         13    1    1    2    0    0 -0.30822442260E+02 -0.33832562487E+02  0.27495106086E+03  0.27873421438E+03  0.10566000000E+00 0.  1.
        994    1    1    2    0    0  0.39493451111E+02  0.21565529147E+02  0.10015060095E+02  0.17729790229E+03  0.17120000000E+03 0.  0.
        998    1    1    2    0    0 -0.86710088512E+01  0.12267033340E+02  0.12150338753E+04  0.12151678833E+04  0.10000000000E+02 0.  1.
</event>
<event>
 5    1  0.1279376E-008  0.3801594E+03  0.7957747E-01  0.3450465E+00
         13   -1    0    0    0    0  0.00000000000E+00  0.00000000000E+00  0.14999999963E+04  0.15000000000E+04  0.10566000000E+00 0. -1.
        994   -1    0    0    0    0 -0.00000000000E+00 -0.00000000000E+00  0.11368683772E-12  0.17120000000E+03  0.17120000000E+03 0.  0.
         13    1    1    2    0    0 -0.53945536090E+01 -0.11207607367E+02  0.17184048060E+02  0.21213541508E+02  0.10566000000E+00 0. -1.
        994    1    1    2    0    0  0.77105359426E+00  0.14143436695E+02  0.47233433825E+01  0.17184988012E+03  0.17120000000E+03 0.  0.
        998    1    1    2    0    0  0.46235000148E+01 -0.29358293288E+01  0.14780926048E+04  0.14781365784E+04  0.10000000000E+02 0. -1.
</event>
<event>
 5    1  0.1279376E-008  0.3856955E+03  0.7957747E-01  0.3426728E+00
         13   -1    0    0    0    0  0.00000000000E+00  0.00000000000E+00  0.14999999963E+04  0.15000000000E+04  0.10566000000E+00 0. -1.
        994   -1    0    0    0    0 -0.00000000000E+00 -0.00000000000E+00  0.11368683772E-12  0.17120000000E+03  0.17120000000E+03 0.  0.
         13    1    1    2    0    0 -0.32588531597E+01 -0.96421867489E+01  0.40157466340E+02  0.41427347925E+02  0.10566000000E+00 0. -1.
        994    1    1    2    0    0  0.42030355554E+01  0.76207176725E+01  0.15337951396E+01  0.17142792472E+03  0.17120000000E+03 0.  0.
        998    1    1    2    0    0 -0.94418239570E+00  0.20214690764E+01  0.14583087348E+04  0.14583447274E+04  0.10000000000E+02 0. -1.
</event>
<event>
 5    1  0.1279376E-008  0.3824315E+03  0.7957747E-01  0.3440639E+00
         13   -1    0    0    0    0  0.00000000000E+00  0.00000000000E+00  0.14999999963E+04  0.15000000000E+04  0.10566000000E+00 0. -1.
        994   -1    0    0    0    0 -0.00000000000E+00 -0.00000000000E+00  0.11368683772E-12  0.17120000000E+03  0.17120000000E+03 0.  0.
         13    1    1    2    0    0 -0.18135062149E+02  0.14772985668E+01  0.52134793834E+02  0.55218753901E+02  0.10566000000E+00 0. -1.
        994    1    1    2    0    0  0.26692007121E+02 -0.17803665432E+02  0.63321226202E+01  0.17429563828E+03  0.17120000000E+03 0.  0.
        998    1    1    2    0    0 -0.85569449722E+01  0.16326366865E+02  0.14415330798E+04  0.14416856078E+04  0.10000000000E+02 0. -1.
</event>
<event>
 5    1  0.1279376E-008  0.3729374E+03  0.7957747E-01  0.3482499E+00
         13   -1    0    0    0    0  0.00000000000E+00  0.00000000000E+00  0.14999999963E+04  0.15000000000E+04  0.10566000000E+00 0.  1.
        994   -1    0    0    0    0 -0.00000000000E+00 -0.00000000000E+00  0.11368683772E-12  0.17120000000E+03  0.17120000000E+03 0.  0.
         13    1    1    2    0    0 -0.23253735184E+02  0.18561260859E+02  0.27862913866E+02  0.40762847519E+02  0.10566000000E+00 0.  1.
        994    1    1    2    0    0  0.19293930651E+02 -0.62432591732E+02  0.27741155290E+02  0.18533509103E+03  0.17120000000E+03 0.  0.
        998    1    1    2    0    0  0.39598045330E+01  0.43871330873E+02  0.14443959271E+04  0.14451020615E+04  0.10000000000E+02 0.  1.
</event>
<event>
 5    1  0.1279376E-008  0.3842977E+03  0.7957747E-01  0.3432656E+00
         13   -1    0    0    0    0  0.00000000000E+00  0.00000000000E+00  0.14999999963E+04  0.15000000000E+04  0.10566000000E+00 0. -1.
        994   -1    0    0    0    0 -0.00000000000E+00 -0.00000000000E+00  0.11368683772E-12  0.17120000000E+03  0.17120000000E+03 0.  0.
         13    1    1    2    0    0  0.30575458376E+01  0.99010743484E+01  0.25711965004E+02  0.27721763439E+02  0.10566000000E+00 0. -1.
        994    1    1    2    0    0 -0.76222320810E+00 -0.16562631102E+02  0.28858461175E+01  0.17202520118E+03  0.17120000000E+03 0.  0.
        998    1    1    2    0    0 -0.22953226295E+01  0.66615567538E+01  0.14714021852E+04  0.14714530354E+04  0.10000000000E+02 0. -1.
</event>
<event>
 5    1  0.1279376E-008  0.3814275E+03  0.7957747E-01  0.3444966E+00
         13   -1    0    0    0    0  0.00000000000E+00  0.00000000000E+00  0.14999999963E+04  0.15000000000E+04  0.10566000000E+00 0. -1.
        994   -1    0    0    0    0 -0.00000000000E+00 -0.00000000000E+00  0.11368683772E-12  0.17120000000E+03  0.17120000000E+03 0.  0.
         13    1    1    2    0    0 -0.10156640798E+02 -0.36515793085E+01  0.15576437225E+02  0.18950671345E+02  0.10566000000E+00 0. -1.
        994    1    1    2    0    0  0.89521295654E+01  0.21962907881E+01  0.36970218956E+01  0.17148781965E+03  0.17120000000E+03 0.  0.
        998    1    1    2    0    0  0.12045112328E+01  0.14552885205E+01  0.14807265372E+04  0.14807615090E+04  0.10000000000E+02 0. -1.
</event>
<event>
 5    1  0.1279376E-008  0.3836133E+03  0.7957747E-01  0.3435575E+00
         13   -1    0    0    0    0  0.00000000000E+00  0.00000000000E+00  0.14999999963E+04  0.15000000000E+04  0.10566000000E+00 0. -1.
        994   -1    0    0    0    0 -0.00000000000E+00 -0.00000000000E+00  0.11368683772E-12  0.17120000000E+03  0.17120000000E+03 0.  0.
         13    1    1    2    0    0  0.18178047681E+02  0.11573327925E+02  0.10071011034E+03  0.10298990643E+03  0.10566000000E+00 0. -1.
        994    1    1    2    0    0 -0.15596528801E+02  0.25017535345E+01  0.31448622881E+01  0.17195592645E+03  0.17120000000E+03 0.  0.
        998    1    1    2    0    0 -0.25815188798E+01 -0.14075081460E+02  0.13961450237E+04  0.13962541671E+04  0.10000000000E+02 0. -1.
</event>
<event>
 5    1  0.1279376E-008  0.3837305E+03  0.7957747E-01  0.3435074E+00
         13   -1    0    0    0    0  0.00000000000E+00  0.00000000000E+00  0.14999999963E+04  0.15000000000E+04  0.10566000000E+00 0.  1.
        994   -1    0    0    0    0 -0.00000000000E+00 -0.00000000000E+00  0.11368683772E-12  0.17120000000E+03  0.17120000000E+03 0.  0.
         13    1    1    2    0    0  0.13054410896E+02 -0.65473624954E+01  0.46563339344E+02  0.48800013672E+02  0.10566000000E+00 0.  1.
        994    1    1    2    0    0 -0.77728632649E+01  0.63244937815E+01  0.25933932443E+01  0.17151263019E+03  0.17120000000E+03 0.  0.
        998    1    1    2    0    0 -0.52815476313E+01  0.22286871391E+00  0.14508432637E+04  0.14508873561E+04  0.10000000000E+02 0.  1.
</event>
<event>
 5    1  0.1279376E-008  0.3848442E+03  0.7957747E-01  0.3430333E+00
         13   -1    0    0    0    0  0.00000000000E+00  0.00000000000E+00  0.14999999963E+04  0.15000000000E+04  0.10566000000E+00 0. -1.
        994   -1    0    0    0    0 -0.00000000000E+00 -0.00000000000E+00  0.11368683772E-12  0.17120000000E+03  0.17120000000E+03 0.  0.
         13    1    1    2    0    0  0.10290375546E+02 -0.55240341509E+01  0.44386472201E+02  0.45897460285E+02  0.10566000000E+00 0. -1.
        994    1    1    2    0    0  0.63665894707E+01 -0.15681083335E+02  0.26505043043E+01  0.17205491858E+03  0.17120000000E+03 0.  0.
        998    1    1    2    0    0 -0.16656965016E+02  0.21205117486E+02  0.14529630198E+04  0.14532476211E+04  0.10000000000E+02 0. -1.
</event>
<event>
 5    1  0.1279376E-008  0.3803007E+03  0.7957747E-01  0.3449850E+00
         13   -1    0    0    0    0  0.00000000000E+00  0.00000000000E+00  0.14999999963E+04  0.15000000000E+04  0.10566000000E+00 0.  1.
        994   -1    0    0    0    0 -0.00000000000E+00 -0.00000000000E+00  0.11368683772E-12  0.17120000000E+03  0.17120000000E+03 0.  0.
         13    1    1    2    0    0  0.21093992854E+02 -0.26474177143E+02  0.27369008617E+02  0.43530591388E+02  0.10566000000E+00 0.  1.
        994    1    1    2    0    0 -0.22470483035E+02  0.28847668775E+02  0.21358275887E+02  0.17635965114E+03  0.17120000000E+03 0.  0.
        998    1    1    2    0    0  0.13764901810E+01 -0.23734916323E+01  0.14512727118E+04  0.14513097575E+04  0.10000000000E+02 0.  1.
</event>
<event>
 5    1  0.1279376E-008  0.3775950E+03  0.7957747E-01  0.3461698E+00
         13   -1    0    0    0    0  0.00000000000E+00  0.00000000000E+00  0.14999999963E+04  0.15000000000E+04  0.10566000000E+00 0. -1.
        994   -1    0    0    0    0 -0.00000000000E+00 -0.00000000000E+00  0.11368683772E-12  0.17120000000E+03  0.17120000000E+03 0.  0.
         13    1    1    2    0    0  0.21255557411E+02 -0.34323817928E+02  0.13489729116E+03  0.14080913864E+03  0.10566000000E+00 0. -1.
        994    1    1    2    0    0 -0.21987757797E+02  0.38729065269E+02  0.12064950783E+02  0.17730878440E+03  0.17120000000E+03 0.  0.
        998    1    1    2    0    0  0.73220038601E+00 -0.44052473409E+01  0.13530377543E+04  0.13530820770E+04  0.10000000000E+02 0. -1.
</event>
<event>
 5    1  0.1279376E-008  0.3734645E+03  0.7957747E-01  0.3480119E+00
         13   -1    0    0    0    0  0.00000000000E+00  0.00000000000E+00  0.14999999963E+04  0.15000000000E+04  0.10566000000E+00 0. -1.
        994   -1    0    0    0    0 -0.00000000000E+00 -0.00000000000E+00  0.11368683772E-12  0.17120000000E+03  0.17120000000E+03 0.  0.
         13    1    1    2    0    0  0.11747060274E+02 -0.87210218834E+01  0.11173682779E+02  0.18409562696E+02  0.10566000000E+00 0. -1.
        994    1    1    2    0    0  0.43298672165E+01  0.11525269144E+02  0.79874368170E+01  0.17182787529E+03  0.17120000000E+03 0.  0.
        998    1    1    2    0    0 -0.16076927490E+02 -0.28042472610E+01  0.14808388767E+04  0.14809625620E+04  0.10000000000E+02 0. -1.
</event>
<event>
 5    1  0.1279376E-008  0.3834713E+03  0.7957747E-01  0.3436181E+00
         13   -1    0    0    0    0  0.00000000000E+00  0.00000000000E+00  0.14999999963E+04  0.15000000000E+04  0.10566000000E+00 0. -1.
        994   -1    0    0    0    0 -0.00000000000E+00 -0.00000000000E+00  0.11368683772E-12  0.17120000000E+03  0.17120000000E+03 0.  0.
         13    1    1    2    0    0 -0.30880545752E+01 -0.10059931344E+02  0.23329942942E+02  0.25593665260E+02  0.10566000000E+00 0. -1.
        994    1    1    2    0    0  0.26039720138E+01 -0.65257695645E+01  0.25541692059E+01  0.17136315275E+03  0.17120000000E+03 0.  0.
        998    1    1    2    0    0  0.48408256138E+00  0.16585700909E+02  0.14741158841E+04  0.14742431820E+04  0.10000000000E+02 0. -1.
</event>
<event>
 5    1  0.1279376E-008  0.3792780E+03  0.7957747E-01  0.3454308E+00
         13   -1    0    0    0    0  0.00000000000E+00  0.00000000000E+00  0.14999999963E+04  0.15000000000E+04  0.10566000000E+00 0. -1.
        994   -1    0    0    0    0 -0.00000000000E+00 -0.00000000000E+00  0.11368683772E-12  0.17120000000E+03  0.17120000000E+03 0.  0.
         13    1    1    2    0    0  0.11002189169E+03 -0.16275983175E+03  0.10101992862E+04  0.10291249626E+04  0.10566000000E+00 0. -1.
        994    1    1    2    0    0 -0.98240265762E+02  0.17276125016E+03  0.15078706583E+03  0.30256202438E+03  0.17120000000E+03 0.  0.
        998    1    1    2    0    0 -0.11781625931E+02 -0.10001418412E+02  0.33901364420E+03  0.33951301305E+03  0.10000000000E+02 0.  1.
</event>
<event>
 5    1  0.1279376E-008  0.3784733E+03  0.7957747E-01  0.3457833E+00
         13   -1    0    0    0    0  0.00000000000E+00  0.00000000000E+00  0.14999999963E+04  0.15000000000E+04  0.10566000000E+00 0.  1.
        994   -1    0    0    0    0 -0.00000000000E+00 -0.00000000000E+00  0.11368683772E-12  0.17120000000E+03  0.17120000000E+03 0.  0.
         13    1    1    2    0    0 -0.27487518588E+02 -0.27637672728E+02  0.14004198917E+03  0.14536565801E+03  0.10566000000E+00 0.  1.
        994    1    1    2    0    0  0.29937886925E+02  0.25239917835E+02  0.10074905169E+02  0.17590984691E+03  0.17120000000E+03 0.  0.
        998    1    1    2    0    0 -0.24503683370E+01  0.23977548932E+01  0.13498831019E+04  0.13499244951E+04  0.10000000000E+02 0.  1.
</event>
<event>
 5    1  0.1279376E-008  0.3956575E+03  0.7957747E-01  0.3385693E+00
         13   -1    0    0    0    0  0.00000000000E+00  0.00000000000E+00  0.14999999963E+04  0.15000000000E+04  0.10566000000E+00 0.  1.
        994   -1    0    0    0    0 -0.00000000000E+00 -0.00000000000E+00  0.11368683772E-12  0.17120000000E+03  0.17120000000E+03 0.  0.
         13    1    1    2    0    0  0.44473525585E+02  0.49817972197E-01  0.29333962945E+02  0.53276538044E+02  0.10566000000E+00 0.  1.
        994    1    1    2    0    0 -0.39639130821E+02 -0.89915010265E+00  0.31279063142E+02  0.17849338630E+03  0.17120000000E+03 0.  0.
        998    1    1    2    0    0 -0.48343947639E+01  0.84933213045E+00  0.14393869702E+04  0.14394300757E+04  0.10000000000E+02 0.  1.
</event>
<event>
 5    1  0.1279376E-008  0.3828164E+03  0.7957747E-01  0.3438986E+00
         13   -1    0    0    0    0  0.00000000000E+00  0.00000000000E+00  0.14999999963E+04  0.15000000000E+04  0.10566000000E+00 0. -1.
        994   -1    0    0    0    0 -0.00000000000E+00 -0.00000000000E+00  0.11368683772E-12  0.17120000000E+03  0.17120000000E+03 0.  0.
         13    1    1    2    0    0 -0.11316075246E+02  0.88619349821E+01  0.33892108129E+02  0.36814040909E+02  0.10566000000E+00 0. -1.
        994    1    1    2    0    0  0.17176715715E+02 -0.33016876331E+02  0.73194946607E+01  0.17535155741E+03  0.17120000000E+03 0.  0.
        998    1    1    2    0    0 -0.58606404688E+01  0.24154941349E+02  0.14587883935E+04  0.14590344017E+04  0.10000000000E+02 0. -1.
</event>
<event>
 5    1  0.1279376E-008  0.3860716E+03  0.7957747E-01  0.3425140E+00
         13   -1    0    0    0    0  0.00000000000E+00  0.00000000000E+00  0.14999999963E+04  0.15000000000E+04  0.10566000000E+00 0.  1.
        994   -1    0    0    0    0 -0.00000000000E+00 -0.00000000000E+00  0.11368683772E-12  0.17120000000E+03  0.17120000000E+03 0.  0.
         13    1    1    2    0    0 -0.11565859097E+01 -0.12780338256E+02  0.74252789503E+02  0.75353584188E+02  0.10566000000E+00 0.  1.
        994    1    1    2    0    0  0.13202859910E+01  0.11033410837E+02  0.15038181884E+01  0.17156684056E+03  0.17120000000E+03 0.  0.
        998    1    1    2    0    0 -0.16370008130E+00  0.17469274193E+01  0.14242433886E+04  0.14242795753E+04  0.10000000000E+02 0.  0.
</event>
<event>
 5    1  0.1279376E-008  0.3764522E+03  0.7957747E-01  0.3466753E+00
         13   -1    0    0    0    0  0.00000000000E+00  0.00000000000E+00  0.14999999963E+04  0.15000000000E+04  0.10566000000E+00 0.  1.
        994   -1    0    0    0    0 -0.00000000000E+00 -0.00000000000E+00  0.11368683772E-12  0.17120000000E+03  0.17120000000E+03 0.  0.
         13    1    1    2    0    0  0.53799570286E+02 -0.38057605159E+01  0.27717058950E+03  0.28236930503E+03  0.10566000000E+00 0.  1.
        994    1    1    2    0    0 -0.17661167460E+02 -0.30566138524E+02  0.10161929730E+02  0.17509686027E+03  0.17120000000E+03 0.  0.
        998    1    1    2    0    0 -0.36138402827E+02  0.34371899040E+02  0.12126674770E+04  0.12137338347E+04  0.10000000000E+02 0.  1.
</event>
<event>
 5    1  0.1279376E-008  0.3721513E+03  0.7957747E-01  0.3486062E+00
         13   -1    0    0    0    0  0.00000000000E+00  0.00000000000E+00  0.14999999963E+04  0.15000000000E+04  0.10566000000E+00 0. -1.
        994   -1    0    0    0    0 -0.00000000000E+00 -0.00000000000E+00  0.11368683772E-12  0.17120000000E+03  0.17120000000E+03 0.  0.
         13    1    1    2    0    0  0.77288488206E+01  0.45115942676E+02  0.13355505963E+03  0.14118126117E+03  0.10566000000E+00 0. -1.
        994    1    1    2    0    0  0.22985677345E+02 -0.18821706195E+02  0.11184192506E+02  0.17411813274E+03  0.17120000000E+03 0.  0.
        998    1    1    2    0    0 -0.30714526166E+02 -0.26294236481E+02  0.13552607441E+04  0.13559006061E+04  0.10000000000E+02 0. -1.
</event>
<event>
 5    1  0.1279376E-008  0.3716175E+03  0.7957747E-01  0.3488490E+00
         13   -1    0    0    0    0  0.00000000000E+00  0.00000000000E+00  0.14999999963E+04  0.15000000000E+04  0.10566000000E+00 0. -1.
        994   -1    0    0    0    0 -0.00000000000E+00 -0.00000000000E+00  0.11368683772E-12  0.17120000000E+03  0.17120000000E+03 0.  0.
         13    1    1    2    0    0  0.81834372876E+02 -0.16582033338E+03  0.79162269828E+03  0.81293281096E+03  0.10566000000E+00 0. -1.
        994    1    1    2    0    0 -0.77580931212E+02  0.16801031256E+03  0.13726909172E+03  0.28705140577E+03  0.17120000000E+03 0.  0.
        998    1    1    2    0    0 -0.42534416644E+01 -0.21899791798E+01  0.57110820628E+03  0.57121578327E+03  0.10000000000E+02 0.  1.
</event>
<event>
 5    1  0.1279376E-008  0.3850290E+03  0.7957747E-01  0.3429549E+00
         13   -1    0    0    0    0  0.00000000000E+00  0.00000000000E+00  0.14999999963E+04  0.15000000000E+04  0.10566000000E+00 0. -1.
        994   -1    0    0    0    0 -0.00000000000E+00 -0.00000000000E+00  0.11368683772E-12  0.17120000000E+03  0.17120000000E+03 0.  0.
         13    1    1    2    0    0 -0.14134600824E+02  0.16861139270E-01  0.59577388258E+02  0.61231230433E+02  0.10566000000E+00 0. -1.
        994    1    1    2    0    0  0.15584502628E+02 -0.82959743980E+01  0.26413794589E+01  0.17212819873E+03  0.17120000000E+03 0.  0.
        998    1    1    2    0    0 -0.14499018036E+01  0.82791132587E+01  0.14377812286E+04  0.14378405708E+04  0.10000000000E+02 0. -1.
</event>
<event>
 5    1  0.1279376E-008  0.3851480E+03  0.7957747E-01  0.3429045E+00
         13   -1    0    0    0    0  0.00000000000E+00  0.00000000000E+00  0.14999999963E+04  0.15000000000E+04  0.10566000000E+00 0.  1.
        994   -1    0    0    0    0 -0.00000000000E+00 -0.00000000000E+00  0.11368683772E-12  0.17120000000E+03  0.17120000000E+03 0.  0.
         13    1    1    2    0    0 -0.29378784168E+01 -0.12017907402E+02  0.49251332503E+02  0.50781553199E+02  0.10566000000E+00 0.  1.
        994    1    1    2    0    0  0.63841350177E+01  0.67188042215E+01  0.18390678851E+01  0.17146055430E+03  0.17120000000E+03 0.  0.
        998    1    1    2    0    0 -0.34462566008E+01  0.52991031802E+01  0.14489095959E+04  0.14489578925E+04  0.10000000000E+02 0.  1.
</event>
<event>
 5    1  0.1279376E-008  0.3847253E+03  0.7957747E-01  0.3430838E+00
         13   -1    0    0    0    0  0.00000000000E+00  0.00000000000E+00  0.14999999963E+04  0.15000000000E+04  0.10566000000E+00 0.  1.
        994   -1    0    0    0    0 -0.00000000000E+00 -0.00000000000E+00  0.11368683772E-12  0.17120000000E+03  0.17120000000E+03 0.  0.
         13    1    1    2    0    0  0.97029692660E+01 -0.82936125140E+01  0.45567565431E+02  0.47321726559E+02  0.10566000000E+00 0.  1.
        994    1    1    2    0    0 -0.10882615147E+02  0.26972295406E+01  0.21804434898E+01  0.17158059533E+03  0.17120000000E+03 0.  0.
        998    1    1    2    0    0  0.11796458814E+01  0.55963829734E+01  0.14522519874E+04  0.14522976781E+04  0.10000000000E+02 0.  1.
</event>
<event>
 5    1  0.1279376E-008  0.3847190E+03  0.7957747E-01  0.3430865E+00
         13   -1    0    0    0    0  0.00000000000E+00  0.00000000000E+00  0.14999999963E+04  0.15000000000E+04  0.10566000000E+00 0. -1.
        994   -1    0    0    0    0 -0.00000000000E+00 -0.00000000000E+00  0.11368683772E-12  0.17120000000E+03  0.17120000000E+03 0.  0.
         13    1    1    2    0    0  0.44949297753E+01 -0.14840865808E+02  0.69628777661E+02  0.71334658717E+02  0.10566000000E+00 0. -1.
        994    1    1    2    0    0 -0.65076966374E+01  0.43099814814E+01  0.19702885545E+01  0.17138917146E+03  0.17120000000E+03 0.  0.
        998    1    1    2    0    0  0.20127668621E+01  0.10530884327E+02  0.14284009301E+04  0.14284761698E+04  0.10000000000E+02 0. -1.
</event>
<event>
 5    1  0.1279376E-008  0.3807081E+03  0.7957747E-01  0.3448081E+00
         13   -1    0    0    0    0  0.00000000000E+00  0.00000000000E+00  0.14999999963E+04  0.15000000000E+04  0.10566000000E+00 0.  1.
        994   -1    0    0    0    0 -0.00000000000E+00 -0.00000000000E+00  0.11368683772E-12  0.17120000000E+03  0.17120000000E+03 0.  0.
         13    1    1    2    0    0  0.16409017182E+02  0.87757691341E+01  0.43826881438E+02  0.47613828553E+02  0.10566000000E+00 0.  1.
        994    1    1    2    0    0 -0.13974775371E+02 -0.80846537648E+01  0.46459208175E+01  0.17202232574E+03  0.17120000000E+03 0.  0.
        998    1    1    2    0    0 -0.24342418115E+01 -0.69111536935E+00  0.14515271940E+04  0.14515638457E+04  0.10000000000E+02 0.  1.
</event>
<event>
 5    1  0.1279376E-008  0.3810989E+03  0.7957747E-01  0.3446388E+00
         13   -1    0    0    0    0  0.00000000000E+00  0.00000000000E+00  0.14999999963E+04  0.15000000000E+04  0.10566000000E+00 0. -1.
        994   -1    0    0    0    0 -0.00000000000E+00 -0.00000000000E+00  0.11368683772E-12  0.17120000000E+03  0.17120000000E+03 0.  0.
         13    1    1    2    0    0  0.64908544151E+01 -0.14207613683E+02  0.30401365647E+02  0.34179550536E+02  0.10566000000E+00 0. -1.
        994    1    1    2    0    0 -0.10028003425E+02  0.31814948989E+02  0.72947093789E+01  0.17457206139E+03  0.17120000000E+03 0.  0.
        998    1    1    2    0    0  0.35371490097E+01 -0.17607335306E+02  0.14623039213E+04  0.14624483881E+04  0.10000000000E+02 0. -1.
</event>
<event>
 5    1  0.1279376E-008  0.3698236E+03  0.7957747E-01  0.3496702E+00
         13   -1    0    0    0    0  0.00000000000E+00  0.00000000000E+00  0.14999999963E+04  0.15000000000E+04  0.10566000000E+00 0. -1.
        994   -1    0    0    0    0 -0.00000000000E+00 -0.00000000000E+00  0.11368683772E-12  0.17120000000E+03  0.17120000000E+03 0.  0.
         13    1    1    2    0    0  0.30495867955E+01 -0.12174057552E+02  0.23174023596E+01  0.12762804341E+02  0.10566000000E+00 0. -1.
        994    1    1    2    0    0 -0.17475222225E+02 -0.15741412333E+01  0.11921907279E+02  0.17250922638E+03  0.17120000000E+03 0.  0.
        998    1    1    2    0    0  0.14425635429E+02  0.13748198785E+02  0.14857606866E+04  0.14859279693E+04  0.10000000000E+02 0. -1.
</event>
<event>
 5    1  0.1279376E-008  0.3840913E+03  0.7957747E-01  0.3433535E+00
         13   -1    0    0    0    0  0.00000000000E+00  0.00000000000E+00  0.14999999963E+04  0.15000000000E+04  0.10566000000E+00 0.  1.
        994   -1    0    0    0    0 -0.00000000000E+00 -0.00000000000E+00  0.11368683772E-12  0.17120000000E+03  0.17120000000E+03 0.  0.
         13    1    1    2    0    0 -0.11277061720E+02 -0.76195791451E+01  0.46943484801E+02  0.48876702392E+02  0.10566000000E+00 0.  1.
        994    1    1    2    0    0 -0.66183760245E+01  0.26653345077E+01  0.22498792957E+01  0.17136338251E+03  0.17120000000E+03 0.  0.
        998    1    1    2    0    0  0.17895437745E+02  0.49542446375E+01  0.14508066322E+04  0.14509599151E+04  0.10000000000E+02 0.  1.
</event>
<event>
 5    1  0.1279376E-008  0.3711651E+03  0.7957747E-01  0.3490553E+00
         13   -1    0    0    0    0  0.00000000000E+00  0.00000000000E+00  0.14999999963E+04  0.15000000000E+04  0.10566000000E+00 0.  1.
        994   -1    0    0    0    0 -0.00000000000E+00 -0.00000000000E+00  0.11368683772E-12  0.17120000000E+03  0.17120000000E+03 0.  0.
         13    1    1    2    0    0  0.16588097030E+01 -0.28775892984E+02  0.43472125033E+02  0.52159759255E+02  0.10566000000E+00 0.  1.
        994    1    1    2    0    0  0.57732042541E+01  0.28505151056E+02  0.11579894237E+02  0.17403852296E+03  0.17120000000E+03 0.  0.
        998    1    1    2    0    0 -0.74320139572E+01  0.27074192796E+00  0.14449479770E+04  0.14450017178E+04  0.10000000000E+02 0.  1.
</event>
<event>
 5    1  0.1279376E-008  0.3772737E+03  0.7957747E-01  0.3463116E+00
         13   -1    0    0    0    0  0.00000000000E+00  0.00000000000E+00  0.14999999963E+04  0.15000000000E+04  0.10566000000E+00 0. -1.
        994   -1    0    0    0    0 -0.00000000000E+00 -0.00000000000E+00  0.11368683772E-12  0.17120000000E+03  0.17120000000E+03 0.  0.
         13    1    1    2    0    0 -0.17096663063E+02 -0.58002277366E+02  0.31748180524E+03  0.32318921376E+03  0.10566000000E+00 0. -1.
        994    1    1    2    0    0  0.21816123605E+02  0.34284567907E+02  0.11106710896E+02  0.17630704431E+03  0.17120000000E+03 0.  0.
        998    1    1    2    0    0 -0.47194605415E+01  0.23717709459E+02  0.11714114801E+04  0.11717037419E+04  0.10000000000E+02 0. -1.
</event>
<event>
 5    1  0.1279376E-008  0.3780691E+03  0.7957747E-01  0.3459610E+00
         13   -1    0    0    0    0  0.00000000000E+00  0.00000000000E+00  0.14999999963E+04  0.15000000000E+04  0.10566000000E+00 0. -1.
        994   -1    0    0    0    0 -0.00000000000E+00 -0.00000000000E+00  0.11368683772E-12  0.17120000000E+03  0.17120000000E+03 0.  0.
         13    1    1    2    0    0 -0.18271928474E+02 -0.11425508571E+02  0.44930604477E+02  0.49831475986E+02  0.10566000000E+00 0. -1.
        994    1    1    2    0    0 -0.22179849020E+01  0.11258087570E+02  0.55541521104E+01  0.17167397181E+03  0.17120000000E+03 0.  0.
        998    1    1    2    0    0  0.20489913376E+02  0.16742100067E+00  0.14495152397E+04  0.14496945522E+04  0.10000000000E+02 0. -1.
</event>
<event>
 5    1  0.1279376E-008  0.3756589E+03  0.7957747E-01  0.3470281E+00
         13   -1    0    0    0    0  0.00000000000E+00  0.00000000000E+00  0.14999999963E+04  0.15000000000E+04  0.10566000000E+00 0. -1.
        994   -1    0    0    0    0 -0.00000000000E+00 -0.00000000000E+00  0.11368683772E-12  0.17120000000E+03  0.17120000000E+03 0.  0.
         13    1    1    2    0    0 -0.62792796134E+02 -0.18371159999E+00  0.34676020220E+03  0.35239979852E+03  0.10566000000E+00 0. -1.
        994    1    1    2    0    0  0.22801942668E+02 -0.15066181189E+02  0.88782217282E+01  0.17359487673E+03  0.17120000000E+03 0.  0.
        998    1    1    2    0    0  0.39990853466E+02  0.15249892789E+02  0.11443615723E+04  0.11452053248E+04  0.10000000000E+02 0. -1.
</event>
<event>
 5    1  0.1279376E-008  0.3818793E+03  0.7957747E-01  0.3443016E+00
         13   -1    0    0    0    0  0.00000000000E+00  0.00000000000E+00  0.14999999963E+04  0.15000000000E+04  0.10566000000E+00 0.  1.
        994   -1    0    0    0    0 -0.00000000000E+00 -0.00000000000E+00  0.11368683772E-12  0.17120000000E+03  0.17120000000E+03 0.  0.
         13    1    1    2    0    0  0.13666391384E+02 -0.20455722018E+02  0.99438210776E+02  0.10243620328E+03  0.10566000000E+00 0.  1.
        994    1    1    2    0    0 -0.95905124166E+01  0.23086504590E-01  0.34931230720E+01  0.17150399520E+03  0.17120000000E+03 0.  0.
        998    1    1    2    0    0 -0.40758789678E+01  0.20432635513E+02  0.13970686624E+04  0.13972598015E+04  0.10000000000E+02 0.  1.
</event>
<event>
 5    1  0.1279376E-008  0.3820627E+03  0.7957747E-01  0.3442226E+00
         13   -1    0    0    0    0  0.00000000000E+00  0.00000000000E+00  0.14999999963E+04  0.15000000000E+04  0.10566000000E+00 0. -1.
        994   -1    0    0    0    0 -0.00000000000E+00 -0.00000000000E+00  0.11368683772E-12  0.17120000000E+03  0.17120000000E+03 0.  0.
         13    1    1    2    0    0 -0.16311107938E+02 -0.29273108074E+01  0.40241324675E+02  0.43520073143E+02  0.10566000000E+00 0. -1.
        994    1    1    2    0    0  0.35022109528E+02 -0.23659714409E+02  0.90494255655E+01  0.17657197497E+03  0.17120000000E+03 0.  0.
        998    1    1    2    0    0 -0.18711001590E+02  0.26587025216E+02  0.14507092460E+04  0.14511079519E+04  0.10000000000E+02 0. -1.
</event>
<event>
 5    1  0.1279376E-008  0.3802248E+03  0.7957747E-01  0.3450180E+00
         13   -1    0    0    0    0  0.00000000000E+00  0.00000000000E+00  0.14999999963E+04  0.15000000000E+04  0.10566000000E+00 0.  1.
        994   -1    0    0    0    0 -0.00000000000E+00 -0.00000000000E+00  0.11368683772E-12  0.17120000000E+03  0.17120000000E+03 0.  0.
         13    1    1    2    0    0  0.16516684890E+02  0.10315835183E+02  0.44114257330E+02  0.48221325148E+02  0.10566000000E+00 0.  1.
        994    1    1    2    0    0 -0.19967695259E+02 -0.10325265981E+02  0.57095297560E+01  0.17276388136E+03  0.17120000000E+03 0.  0.
        998    1    1    2    0    0  0.34510103686E+01  0.94307980752E-02  0.14501762092E+04  0.14502147935E+04  0.10000000000E+02 0.  1.
</event>
<event>
 5    1  0.1279376E-008  0.3836924E+03  0.7957747E-01  0.3435237E+00
         13   -1    0    0    0    0  0.00000000000E+00  0.00000000000E+00  0.14999999963E+04  0.15000000000E+04  0.10566000000E+00 0. -1.
        994   -1    0    0    0    0 -0.00000000000E+00 -0.00000000000E+00  0.11368683772E-12  0.17120000000E+03  0.17120000000E+03 0.  0.
         13    1    1    2    0    0 -0.14057260871E+02  0.36170467729E+01  0.43917117767E+02  0.46253799925E+02  0.10566000000E+00 0. -1.
        994    1    1    2    0    0  0.18723546478E+02  0.45599887619E+00  0.34400812255E+01  0.17225577867E+03  0.17120000000E+03 0.  0.
        998    1    1    2    0    0 -0.46662856067E+01 -0.40730456491E+01  0.14526427973E+04  0.14526904214E+04  0.10000000000E+02 0. -1.
</event>
<event>
 5    1  0.1279376E-008  0.3824792E+03  0.7957747E-01  0.3440434E+00
         13   -1    0    0    0    0  0.00000000000E+00  0.00000000000E+00  0.14999999963E+04  0.15000000000E+04  0.10566000000E+00 0.  1.
        994   -1    0    0    0    0 -0.00000000000E+00 -0.00000000000E+00  0.11368683772E-12  0.17120000000E+03  0.17120000000E+03 0.  0.
         13    1    1    2    0    0 -0.15799040077E+02 -0.16917270082E+02  0.10939340792E+03  0.11181561856E+03  0.10566000000E+00 0.  1.
        994    1    1    2    0    0 -0.16157298320E+02 -0.17778421028E+01  0.37634558135E+01  0.17201111188E+03  0.17120000000E+03 0.  0.
        998    1    1    2    0    0  0.31956338398E+02  0.18695112185E+02  0.13868431325E+04  0.13873732696E+04  0.10000000000E+02 0.  1.
</event>
<event>
 5    1  0.1279376E-008  0.3777458E+03  0.7957747E-01  0.3461033E+00
         13   -1    0    0    0    0  0.00000000000E+00  0.00000000000E+00  0.14999999963E+04  0.15000000000E+04  0.10566000000E+00 0. -1.
        994   -1    0    0    0    0 -0.00000000000E+00 -0.00000000000E+00  0.11368683772E-12  0.17120000000E+03  0.17120000000E+03 0.  0.
         13    1    1    2    0    0 -0.47093745077E+02  0.10997508749E+01  0.18956044177E+03  0.19532588801E+03  0.10566000000E+00 0. -1.
        994    1    1    2    0    0  0.42431550246E+02  0.49012041662E+01  0.11444952132E+02  0.17681879195E+03  0.17120000000E+03 0.  0.
        998    1    1    2    0    0  0.46621948307E+01 -0.60009550411E+01  0.12989946024E+04  0.12990553200E+04  0.10000000000E+02 0. -1.
</event>
<event>
 5    1  0.1279376E-008  0.3783322E+03  0.7957747E-01  0.3458453E+00
         13   -1    0    0    0    0  0.00000000000E+00  0.00000000000E+00  0.14999999963E+04  0.15000000000E+04  0.10566000000E+00 0.  1.
        994   -1    0    0    0    0 -0.00000000000E+00 -0.00000000000E+00  0.11368683772E-12  0.17120000000E+03  0.17120000000E+03 0.  0.
         13    1    1    2    0    0  0.15341661025E+02 -0.13877863967E+02  0.43265024527E+02  0.47956596863E+02  0.10566000000E+00 0.  1.
        994    1    1    2    0    0  0.12527807802E+02  0.10546917160E+02  0.58794259261E+01  0.17208193130E+03  0.17120000000E+03 0.  0.
        998    1    1    2    0    0 -0.27869468827E+02  0.33309468077E+01  0.14508555458E+04  0.14511614718E+04  0.10000000000E+02 0.  1.
</event>
<event>
 5    1  0.1279376E-008  0.3816405E+03  0.7957747E-01  0.3444046E+00
         13   -1    0    0    0    0  0.00000000000E+00  0.00000000000E+00  0.14999999963E+04  0.15000000000E+04  0.10566000000E+00 0. -1.
        994   -1    0    0    0    0 -0.00000000000E+00 -0.00000000000E+00  0.11368683772E-12  0.17120000000E+03  0.17120000000E+03 0.  0.
         13    1    1    2    0    0  0.18417488251E+02 -0.66987959218E+01  0.56267711861E+02  0.59583087386E+02  0.10566000000E+00 0. -1.
        994    1    1    2    0    0 -0.12491786519E+02  0.10766217337E+02  0.42120460966E+01  0.17204399873E+03  0.17120000000E+03 0.  0.
        998    1    1    2    0    0 -0.59257017318E+01 -0.40674214155E+01  0.14395202383E+04  0.14395729139E+04  0.10000000000E+02 0. -1.
</event>
<event>
 5    1  0.1279376E-008  0.3817221E+03  0.7957747E-01  0.3443694E+00
         13   -1    0    0    0    0  0.00000000000E+00  0.00000000000E+00  0.14999999963E+04  0.15000000000E+04  0.10566000000E+00 0.  1.
        994   -1    0    0    0    0 -0.00000000000E+00 -0.00000000000E+00  0.11368683772E-12  0.17120000000E+03  0.17120000000E+03 0.  0.
         13    1    1    2    0    0 -0.42261230164E+01 -0.11083341273E+02  0.19503706937E+02  0.22827753236E+02  0.10566000000E+00 0.  1.
        994    1    1    2    0    0  0.39727164001E+01  0.21047618595E+02  0.47928488340E+01  0.17260126339E+03  0.17120000000E+03 0.  0.
        998    1    1    2    0    0  0.25340661636E+00 -0.99642773223E+01  0.14757034405E+04  0.14757709834E+04  0.10000000000E+02 0.  1.
</event>
<event>
 5    1  0.1279376E-008  0.3729196E+03  0.7957747E-01  0.3482580E+00
         13   -1    0    0    0    0  0.00000000000E+00  0.00000000000E+00  0.14999999963E+04  0.15000000000E+04  0.10566000000E+00 0.  1.
        994   -1    0    0    0    0 -0.00000000000E+00 -0.00000000000E+00  0.11368683772E-12  0.17120000000E+03  0.17120000000E+03 0.  0.
         13    1    1    2    0    0  0.10876015295E+03 -0.22131790204E+02  0.34347415169E+03  0.36096134287E+03  0.10566000000E+00 0.  1.
        994    1    1    2    0    0 -0.13068148364E+03 -0.23176943802E+02  0.77610450708E+02  0.23010354832E+03  0.17120000000E+03 0.  0.
        998    1    1    2    0    0  0.21921330698E+02  0.45308734006E+02  0.10789153939E+04  0.10801351088E+04  0.10000000000E+02 0.  1.
</event>
<event>
 5    1  0.1279376E-008  0.3848141E+03  0.7957747E-01  0.3430461E+00
         13   -1    0    0    0    0  0.00000000000E+00  0.00000000000E+00  0.14999999963E+04  0.15000000000E+04  0.10566000000E+00 0. -1.
        994   -1    0    0    0    0 -0.00000000000E+00 -0.00000000000E+00  0.11368683772E-12  0.17120000000E+03  0.17120000000E+03 0.  0.
         13    1    1    2    0    0 -0.47246944615E+01 -0.18507994760E+02  0.96055621596E+02  0.97936521339E+02  0.10566000000E+00 0. -1.
        994    1    1    2    0    0  0.14266061037E+02  0.22612323400E+02  0.40782828390E+01  0.17332313769E+03  0.17120000000E+03 0.  0.
        998    1    1    2    0    0 -0.95413665753E+01 -0.41043286398E+01  0.13998660918E+04  0.13999403410E+04  0.10000000000E+02 0. -1.
</event>
<event>
 5    1  0.1279376E-008  0.3813993E+03  0.7957747E-01  0.3445088E+00
         13   -1    0    0    0    0  0.00000000000E+00  0.00000000000E+00  0.14999999963E+04  0.15000000000E+04  0.10566000000E+00 0.  1.
        994   -1    0    0    0    0 -0.00000000000E+00 -0.00000000000E+00  0.11368683772E-12  0.17120000000E+03  0.17120000000E+03 0.  0.
         13    1    1    2    0    0 -0.14826785247E+02  0.29258599078E+00  0.30458308498E+02  0.33876819330E+02  0.10566000000E+00 0.  1.
        994    1    1    2    0    0  0.13231598473E+02  0.16333165068E+01  0.40201338388E+01  0.17176537601E+03  0.17120000000E+03 0.  0.
        998    1    1    2    0    0  0.15951867743E+01 -0.19259024976E+01  0.14655215539E+04  0.14655578047E+04  0.10000000000E+02 0.  0.
</event>
<event>
 5    1  0.1279376E-008  0.3769584E+03  0.7957747E-01  0.3464510E+00
         13   -1    0    0    0    0  0.00000000000E+00  0.00000000000E+00  0.14999999963E+04  0.15000000000E+04  0.10566000000E+00 0. -1.
        994   -1    0    0    0    0 -0.00000000000E+00 -0.00000000000E+00  0.11368683772E-12  0.17120000000E+03  0.17120000000E+03 0.  0.
         13    1    1    2    0    0 -0.79167869888E+01  0.44113540935E+02  0.18738959246E+03  0.19267472729E+03  0.10566000000E+00 0. -1.
        994    1    1    2    0    0  0.80621673492E+01 -0.13932981309E+02  0.65519817528E+01  0.17207990869E+03  0.17120000000E+03 0.  0.
        998    1    1    2    0    0 -0.14538036045E+00 -0.30180559626E+02  0.13060584221E+04  0.13064453640E+04  0.10000000000E+02 0. -1.
</event>
<event>
 5    1  0.1279376E-008  0.3812038E+03  0.7957747E-01  0.3445934E+00
         13   -1    0    0    0    0  0.00000000000E+00  0.00000000000E+00  0.14999999963E+04  0.15000000000E+04  0.10566000000E+00 0.  1.
        994   -1    0    0    0    0 -0.00000000000E+00 -0.00000000000E+00  0.11368683772E-12  0.17120000000E+03  0.17120000000E+03 0.  0.
         13    1    1    2    0    0  0.26191251670E+02  0.35576590584E+01  0.10540280917E+03  0.10866647113E+03  0.10566000000E+00 0.  1.
        994    1    1    2    0    0 -0.21804450011E+01 -0.80371243415E+01  0.37576594424E+01  0.17144360505E+03  0.17120000000E+03 0.  0.
        998    1    1    2    0    0 -0.24010806669E+02  0.44794652831E+01  0.13908395277E+04  0.13910899238E+04  0.10000000000E+02 0.  1.
</event>
<event>
 5    1  0.1279376E-008  0.3760714E+03  0.7957747E-01  0.3468445E+00
         13   -1    0    0    0    0  0.00000000000E+00  0.00000000000E+00  0.14999999963E+04  0.15000000000E+04  0.10566000000E+00 0. -1.
        994   -1    0    0    0    0 -0.00000000000E+00 -0.00000000000E+00  0.11368683772E-12  0.17120000000E+03  0.17120000000E+03 0.  0.
         13    1    1    2    0    0  0.36698788750E+02 -0.35585569389E+02  0.82051577295E+02  0.96672676311E+02  0.10566000000E+00 0. -1.
        994    1    1    2    0    0 -0.47321086080E+02  0.28169428580E+02  0.25099847465E+02  0.18158260995E+03  0.17120000000E+03 0.  0.
        998    1    1    2    0    0  0.10622297330E+02  0.74161408089E+01  0.13928485715E+04  0.13929447137E+04  0.10000000000E+02 0. -1.
</event>
<event>
 5    1  0.1279376E-008  0.3733281E+03  0.7957747E-01  0.3480734E+00
         13   -1    0    0    0    0  0.00000000000E+00  0.00000000000E+00  0.14999999963E+04  0.15000000000E+04  0.10566000000E+00 0. -1.
        994   -1    0    0    0    0 -0.00000000000E+00 -0.00000000000E+00  0.11368683772E-12  0.17120000000E+03  0.17120000000E+03 0.  0.
         13    1    1    2    0    0  0.16755042671E+02 -0.98540190659E+01  0.21891983869E+02  0.29276326075E+02  0.10566000000E+00 0. -1.
        994    1    1    2    0    0  0.60436299264E+01  0.34242491665E+02  0.11684200012E+02  0.17508579105E+03  0.17120000000E+03 0.  0.
        998    1    1    2    0    0 -0.22798672597E+02 -0.24388472599E+02  0.14664238124E+04  0.14668378829E+04  0.10000000000E+02 0. -1.
</event>
<event>
 5    1  0.1279376E-008  0.3854989E+03  0.7957747E-01  0.3427559E+00
         13   -1    0    0    0    0  0.00000000000E+00  0.00000000000E+00  0.14999999963E+04  0.15000000000E+04  0.10566000000E+00 0. -1.
        994   -1    0    0    0    0 -0.00000000000E+00 -0.00000000000E+00  0.11368683772E-12  0.17120000000E+03  0.17120000000E+03 0.  0.
         13    1    1    2    0    0  0.28543490882E+02 -0.38592628018E+02  0.50723457282E+02  0.69835536024E+02  0.10566000000E+00 0. -1.
        994    1    1    2    0    0 -0.30269885695E+02  0.36677061376E+02  0.27792049146E+02  0.17984246108E+03  0.17120000000E+03 0.  0.
        998    1    1    2    0    0  0.17263948124E+01  0.19155666418E+01  0.14214844899E+04  0.14215220029E+04  0.10000000000E+02 0. -1.
</event>
<event>
 5    1  0.1279376E-008  0.3869702E+03  0.7957747E-01  0.3421359E+00
         13   -1    0    0    0    0  0.00000000000E+00  0.00000000000E+00  0.14999999963E+04  0.15000000000E+04  0.10566000000E+00 0.  1.
        994   -1    0    0    0    0 -0.00000000000E+00 -0.00000000000E+00  0.11368683772E-12  0.17120000000E+03  0.17120000000E+03 0.  0.
         13    1    1    2    0    0 -0.26088403950E+02  0.36531785785E+02  0.46086849376E+02  0.64336498527E+02  0.10566000000E+00 0.  1.
        994    1    1    2    0    0  0.13141911709E+02  0.11089578710E+02  0.21310328796E+02  0.17337606153E+03  0.17120000000E+03 0.  0.
        998    1    1    2    0    0  0.12946492241E+02 -0.47621364495E+02  0.14326028181E+04  0.14334874399E+04  0.10000000000E+02 0.  1.
</event>
<event>
 5    1  0.1279376E-008  0.3832475E+03  0.7957747E-01  0.3437139E+00
         13   -1    0    0    0    0  0.00000000000E+00  0.00000000000E+00  0.14999999963E+04  0.15000000000E+04  0.10566000000E+00 0.  1.
        994   -1    0    0    0    0 -0.00000000000E+00 -0.00000000000E+00  0.11368683772E-12  0.17120000000E+03  0.17120000000E+03 0.  0.
         13    1    1    2    0    0  0.24502955760E+02 -0.14140196983E+02  0.16123055091E+03  0.16369374369E+03  0.10566000000E+00 0.  1.
        994    1    1    2    0    0 -0.25131457574E+02 -0.11183458787E+02  0.50093355815E+01  0.17346813354E+03  0.17120000000E+03 0.  0.
        998    1    1    2    0    0  0.62850181409E+00  0.25323655770E+02  0.13337601098E+04  0.13340381228E+04  0.10000000000E+02 0.  1.
</event>
<event>
 5    1  0.1279376E-008  0.3718645E+03  0.7957747E-01  0.3487366E+00
         13   -1    0    0    0    0  0.00000000000E+00  0.00000000000E+00  0.14999999963E+04  0.15000000000E+04  0.10566000000E+00 0.  1.
        994   -1    0    0    0    0 -0.00000000000E+00 -0.00000000000E+00  0.11368683772E-12  0.17120000000E+03  0.17120000000E+03 0.  0.
         13    1    1    2    0    0 -0.21938256034E+02 -0.47149741030E+01  0.30103853411E+02  0.37546920151E+02  0.10566000000E+00 0.  1.
        994    1    1    2    0    0 -0.31037022261E+02  0.31552968797E+01  0.11648764459E+02  0.17440867628E+03  0.17120000000E+03 0.  0.
        998    1    1    2    0    0  0.52975278295E+02  0.15596772233E+01  0.14582473784E+04  0.14592444036E+04  0.10000000000E+02 0.  1.
</event>
<event>
 5    1  0.1279376E-008  0.3843295E+03  0.7957747E-01  0.3432521E+00
         13   -1    0    0    0    0  0.00000000000E+00  0.00000000000E+00  0.14999999963E+04  0.15000000000E+04  0.10566000000E+00 0. -1.
        994   -1    0    0    0    0 -0.00000000000E+00 -0.00000000000E+00  0.11368683772E-12  0.17120000000E+03  0.17120000000E+03 0.  0.
         13    1    1    2    0    0  0.13321160196E+02  0.17398569981E+01  0.43959258913E+02  0.45966379231E+02  0.10566000000E+00 0. -1.
        994    1    1    2    0    0 -0.17416454744E+02  0.51054420222E+01  0.30497745990E+01  0.17218635126E+03  0.17120000000E+03 0.  0.
        998    1    1    2    0    0  0.40952945476E+01 -0.68452990203E+01  0.14529909628E+04  0.14530472695E+04  0.10000000000E+02 0. -1.
</event>
<event>
 5    1  0.1279376E-008  0.3724170E+03  0.7957747E-01  0.3484856E+00
         13   -1    0    0    0    0  0.00000000000E+00  0.00000000000E+00  0.14999999963E+04  0.15000000000E+04  0.10566000000E+00 0. -1.
        994   -1    0    0    0    0 -0.00000000000E+00 -0.00000000000E+00  0.11368683772E-12  0.17120000000E+03  0.17120000000E+03 0.  0.
         13    1    1    2    0    0 -0.39468910458E+02  0.40694965480E+02  0.17783148041E+03  0.18664919420E+03  0.10566000000E+00 0. -1.
        994    1    1    2    0    0  0.36888094178E+02 -0.39579757171E+02  0.18116674246E+02  0.18045759212E+03  0.17120000000E+03 0.  0.
        998    1    1    2    0    0  0.25808162795E+01 -0.11152083095E+01  0.13040518416E+04  0.13040932137E+04  0.10000000000E+02 0. -1.
</event>
<event>
 5    1  0.1279376E-008  0.3748709E+03  0.7957747E-01  0.3473800E+00
         13   -1    0    0    0    0  0.00000000000E+00  0.00000000000E+00  0.14999999963E+04  0.15000000000E+04  0.10566000000E+00 0.  1.
        994   -1    0    0    0    0 -0.00000000000E+00 -0.00000000000E+00  0.11368683772E-12  0.17120000000E+03  0.17120000000E+03 0.  0.
         13    1    1    2    0    0 -0.35531307911E+02  0.32952854641E+02  0.24684112323E+03  0.25155300784E+03  0.10566000000E+00 0.  1.
        994    1    1    2    0    0 -0.12099861990E+02  0.20504557726E+02  0.86750821216E+01  0.17306513397E+03  0.17120000000E+03 0.  0.
        998    1    1    2    0    0  0.47631169900E+02 -0.53457412366E+02  0.12444837909E+04  0.12465818582E+04  0.10000000000E+02 0.  1.
</event>
<event>
 5    1  0.1279376E-008  0.3855603E+03  0.7957747E-01  0.3427299E+00
         13   -1    0    0    0    0  0.00000000000E+00  0.00000000000E+00  0.14999999963E+04  0.15000000000E+04  0.10566000000E+00 0.  1.
        994   -1    0    0    0    0 -0.00000000000E+00 -0.00000000000E+00  0.11368683772E-12  0.17120000000E+03  0.17120000000E+03 0.  0.
         13    1    1    2    0    0 -0.10657371103E+02  0.64398823449E+01  0.56464434620E+02  0.57821234719E+02  0.10566000000E+00 0.  1.
        994    1    1    2    0    0  0.73889946160E+01 -0.10166444341E+02  0.18708878787E+01  0.17167088878E+03  0.17120000000E+03 0.  0.
        998    1    1    2    0    0  0.32683764867E+01  0.37265619957E+01  0.14416646738E+04  0.14417078765E+04  0.10000000000E+02 0.  1.
</event>
<event>
 5    1  0.1279376E-008  0.3781336E+03  0.7957747E-01  0.3459325E+00
         13   -1    0    0    0    0  0.00000000000E+00  0.00000000000E+00  0.14999999963E+04  0.15000000000E+04  0.10566000000E+00 0. -1.
        994   -1    0    0    0    0 -0.00000000000E+00 -0.00000000000E+00  0.11368683772E-12  0.17120000000E+03  0.17120000000E+03 0.  0.
         13    1    1    2    0    0 -0.87697712418E+02 -0.44834357877E+02  0.41677927446E+03  0.42825924765E+03  0.10566000000E+00 0. -1.
        994    1    1    2    0    0  0.12866907178E+03  0.66474038612E+02  0.79221993718E+02  0.23782365764E+03  0.17120000000E+03 0.  0.
        998    1    1    2    0    0 -0.40971359363E+02 -0.21639680736E+02  0.10039987281E+04  0.10051170947E+04  0.10000000000E+02 0. -1.
</event>
<event>
 5    1  0.1279376E-008  0.3800929E+03  0.7957747E-01  0.3450754E+00
         13   -1    0    0    0    0  0.00000000000E+00  0.00000000000E+00  0.14999999963E+04  0.15000000000E+04  0.10566000000E+00 0.  1.
        994   -1    0    0    0    0 -0.00000000000E+00 -0.00000000000E+00  0.11368683772E-12  0.17120000000E+03  0.17120000000E+03 0.  0.
         13    1    1    2    0    0 -0.25033212725E+02  0.43697730067E+02  0.17563433079E+03  0.18271174748E+03  0.10566000000E+00 0.  1.
        994    1    1    2    0    0  0.96907865738E+02 -0.81139583384E+02  0.59463000074E+02  0.22095260761E+03  0.17120000000E+03 0.  0.
        998    1    1    2    0    0 -0.71874653013E+02  0.37441853317E+02  0.12649026654E+04  0.12675356449E+04  0.10000000000E+02 0.  1.
</event>
<event>
 5    1  0.1279376E-008  0.3728998E+03  0.7957747E-01  0.3482669E+00
         13   -1    0    0    0    0  0.00000000000E+00  0.00000000000E+00  0.14999999963E+04  0.15000000000E+04  0.10566000000E+00 0. -1.
        994   -1    0    0    0    0 -0.00000000000E+00 -0.00000000000E+00  0.11368683772E-12  0.17120000000E+03  0.17120000000E+03 0.  0.
         13    1    1    2    0    0 -0.82760488069E+02 -0.53308341295E+01  0.21873529624E+03  0.23392917125E+03  0.10566000000E+00 0. -1.
        994    1    1    2    0    0  0.94160027472E+02 -0.16757736019E+01  0.44503609508E+02  0.20039693174E+03  0.17120000000E+03 0.  0.
        998    1    1    2    0    0 -0.11399539403E+02  0.70066077314E+01  0.12367610905E+04  0.12368738970E+04  0.10000000000E+02 0. -1.
</event>
<event>
 5    1  0.1279376E-008  0.3849562E+03  0.7957747E-01  0.3429858E+00
         13   -1    0    0    0    0  0.00000000000E+00  0.00000000000E+00  0.14999999963E+04  0.15000000000E+04  0.10566000000E+00 0.  1.
        994   -1    0    0    0    0 -0.00000000000E+00 -0.00000000000E+00  0.11368683772E-12  0.17120000000E+03  0.17120000000E+03 0.  0.
         13    1    1    2    0    0  0.10973303593E+02  0.15002850761E+02  0.10324144520E+03  0.10490141130E+03  0.10566000000E+00 0.  1.
        994    1    1    2    0    0 -0.37242278878E+02  0.79996366124E+01  0.64389433482E+01  0.17550464812E+03  0.17120000000E+03 0.  0.
        998    1    1    2    0    0  0.26268975284E+02 -0.23002487374E+02  0.13903196077E+04  0.13907939406E+04  0.10000000000E+02 0.  1.
</event>
<event>
 5    1  0.1279376E-008  0.3808303E+03  0.7957747E-01  0.3447551E+00
         13   -1    0    0    0    0  0.00000000000E+00  0.00000000000E+00  0.14999999963E+04  0.15000000000E+04  0.10566000000E+00 0.  1.
        994   -1    0    0    0    0 -0.00000000000E+00 -0.00000000000E+00  0.11368683772E-12  0.17120000000E+03  0.17120000000E+03 0.  0.
         13    1    1    2    0    0 -0.14339540423E+02  0.74352706672E+01  0.33811881759E+02  0.37472125395E+02  0.10566000000E+00 0.  1.
        994    1    1    2    0    0  0.10276221579E+02 -0.16950595474E+01  0.40762945852E+01  0.17156494436E+03  0.17120000000E+03 0.  0.
        998    1    1    2    0    0  0.40633188436E+01 -0.57402111198E+01  0.14621118199E+04  0.14621629302E+04  0.10000000000E+02 0.  1.
</event>
<event>
 5    1  0.1279376E-008  0.3736803E+03  0.7957747E-01  0.3479146E+00
         13   -1    0    0    0    0  0.00000000000E+00  0.00000000000E+00  0.14999999963E+04  0.15000000000E+04  0.10566000000E+00 0. -1.
        994   -1    0    0    0    0 -0.00000000000E+00 -0.00000000000E+00  0.11368683772E-12  0.17120000000E+03  0.17120000000E+03 0.  0.
         13    1    1    2    0    0 -0.10051176212E+02  0.46519334143E+02  0.14040641328E+03  0.14825331918E+03  0.10566000000E+00 0. -1.
        994    1    1    2    0    0  0.11583714341E+01 -0.45072109129E+02  0.14330818351E+02  0.17761657918E+03  0.17120000000E+03 0.  0.
        998    1    1    2    0    0  0.88928047783E+01 -0.14472250139E+01  0.13452627646E+04  0.13453301016E+04  0.10000000000E+02 0. -1.
</event>
<event>
 5    1  0.1279376E-008  0.3796315E+03  0.7957747E-01  0.3452765E+00
         13   -1    0    0    0    0  0.00000000000E+00  0.00000000000E+00  0.14999999963E+04  0.15000000000E+04  0.10566000000E+00 0.  1.
        994   -1    0    0    0    0 -0.00000000000E+00 -0.00000000000E+00  0.11368683772E-12  0.17120000000E+03  0.17120000000E+03 0.  0.
         13    1    1    2    0    0 -0.43995109421E+02 -0.19773672023E+02  0.23544420977E+03  0.24033425647E+03  0.10566000000E+00 0.  1.
        994    1    1    2    0    0  0.37135999425E+02  0.25354070564E+02  0.11116492033E+02  0.17735537134E+03  0.17120000000E+03 0.  0.
        998    1    1    2    0    0  0.68591099955E+01 -0.55803985411E+01  0.12534392945E+04  0.12535103722E+04  0.10000000000E+02 0.  1.
</event>
<event>
 5    1  0.1279376E-008  0.3738130E+03  0.7957747E-01  0.3478549E+00
         13   -1    0    0    0    0  0.00000000000E+00  0.00000000000E+00  0.14999999963E+04  0.15000000000E+04  0.10566000000E+00 0.  1.
        994   -1    0    0    0    0 -0.00000000000E+00 -0.00000000000E+00  0.11368683772E-12  0.17120000000E+03  0.17120000000E+03 0.  0.
         13    1    1    2    0    0  0.25390022014E+02 -0.12897926143E+02  0.32516195882E+02  0.43224112199E+02  0.10566000000E+00 0.  1.
        994    1    1    2    0    0  0.66074038625E+02 -0.45776421963E+02  0.36232812809E+02  0.19257080805E+03  0.17120000000E+03 0.  0.
        998    1    1    2    0    0 -0.91464060639E+02  0.58674348106E+02  0.14312509876E+04  0.14354050798E+04  0.10000000000E+02 0.  1.
</event>
<event>
 5    1  0.1279376E-008  0.3818988E+03  0.7957747E-01  0.3442932E+00
         13   -1    0    0    0    0  0.00000000000E+00  0.00000000000E+00  0.14999999963E+04  0.15000000000E+04  0.10566000000E+00 0. -1.
        994   -1    0    0    0    0 -0.00000000000E+00 -0.00000000000E+00  0.11368683772E-12  0.17120000000E+03  0.17120000000E+03 0.  0.
         13    1    1    2    0    0 -0.16608104196E+02  0.90492979170E+02  0.52363608184E+03  0.53165737630E+03  0.10566000000E+00 0. -1.
        994    1    1    2    0    0 -0.77617742109E+00 -0.12939197047E+03  0.60953515670E+02  0.22308665479E+03  0.17120000000E+03 0.  0.
        998    1    1    2    0    0  0.17384281618E+02  0.38898991305E+02  0.91541039876E+03  0.91645596890E+03  0.10000000000E+02 0. -1.
</event>
<event>
 5    1  0.1279376E-008  0.3844297E+03  0.7957747E-01  0.3432094E+00
         13   -1    0    0    0    0  0.00000000000E+00  0.00000000000E+00  0.14999999963E+04  0.15000000000E+04  0.10566000000E+00 0.  1.
        994   -1    0    0    0    0 -0.00000000000E+00 -0.00000000000E+00  0.11368683772E-12  0.17120000000E+03  0.17120000000E+03 0.  0.
         13    1    1    2    0    0 -0.23193174167E+02 -0.78255600832E+01  0.14651170969E+03  0.14854243487E+03  0.10566000000E+00 0.  1.
        994    1    1    2    0    0  0.21369568580E+02  0.61732000079E+01  0.35453521550E+01  0.17267534966E+03  0.17120000000E+03 0.  0.
        998    1    1    2    0    0  0.18236055874E+01  0.16523600753E+01  0.13499429344E+04  0.13499822155E+04  0.10000000000E+02 0.  1.
</event>
<event>
 5    1  0.1279376E-008  0.3830073E+03  0.7957747E-01  0.3438168E+00
         13   -1    0    0    0    0  0.00000000000E+00  0.00000000000E+00  0.14999999963E+04  0.15000000000E+04  0.10566000000E+00 0. -1.
        994   -1    0    0    0    0 -0.00000000000E+00 -0.00000000000E+00  0.11368683772E-12  0.17120000000E+03  0.17120000000E+03 0.  0.
         13    1    1    2    0    0  0.95197858434E+01 -0.94835445740E+01  0.34181111736E+02  0.36727693961E+02  0.10566000000E+00 0. -1.
        994    1    1    2    0    0 -0.16582249215E+01  0.44899716892E+01  0.26985467769E+01  0.17128815403E+03  0.17120000000E+03 0.  0.
        998    1    1    2    0    0 -0.78615609219E+01  0.49935728848E+01  0.14631203378E+04  0.14631841520E+04  0.10000000000E+02 0. -1.
</event>
<event>
 5    1  0.1279376E-008  0.3781700E+03  0.7957747E-01  0.3459166E+00
         13   -1    0    0    0    0  0.00000000000E+00  0.00000000000E+00  0.14999999963E+04  0.15000000000E+04  0.10566000000E+00 0. -1.
        994   -1    0    0    0    0 -0.00000000000E+00 -0.00000000000E+00  0.11368683772E-12  0.17120000000E+03  0.17120000000E+03 0.  0.
         13    1    1    2    0    0  0.14361392083E+02  0.96607145429E+00  0.18261428138E+02  0.23252393389E+02  0.10566000000E+00 0. -1.
        994    1    1    2    0    0 -0.10999395674E+02 -0.33517047112E+01  0.55045834014E+01  0.17167399648E+03  0.17120000000E+03 0.  0.
        998    1    1    2    0    0 -0.33619964094E+01  0.23856332569E+01  0.14762339847E+04  0.14762736101E+04  0.10000000000E+02 0. -1.
</event>
<event>
 5    1  0.1279376E-008  0.3451292E+03  0.7957747E-01  0.3618631E+00
         13   -1    0    0    0    0  0.00000000000E+00  0.00000000000E+00  0.14999999963E+04  0.15000000000E+04  0.10566000000E+00 0.  1.
        994   -1    0    0    0    0 -0.00000000000E+00 -0.00000000000E+00  0.11368683772E-12  0.17120000000E+03  0.17120000000E+03 0.  0.
         13    1    1    2    0    0 -0.73355413283E+02 -0.20428044977E+03  0.98704142240E+03  0.10106247076E+04  0.10566000000E+00 0.  1.
        994    1    1    2    0    0  0.64894192383E+02  0.18000910025E+03  0.15161285221E+03  0.29817851924E+03  0.17120000000E+03 0.  0.
        998    1    1    2    0    0  0.84612208998E+01  0.24271349515E+02  0.36134572167E+03  0.36239677321E+03  0.10000000000E+02 0.  1.
</event>
<event>
 5    1  0.1279376E-008  0.3837879E+03  0.7957747E-01  0.3434829E+00
         13   -1    0    0    0    0  0.00000000000E+00  0.00000000000E+00  0.14999999963E+04  0.15000000000E+04  0.10566000000E+00 0.  1.
        994   -1    0    0    0    0 -0.00000000000E+00 -0.00000000000E+00  0.11368683772E-12  0.17120000000E+03  0.17120000000E+03 0.  0.
         13    1    1    2    0    0  0.17823977196E+02  0.19022948003E+02  0.13376356377E+03  0.13628011179E+03  0.10566000000E+00 0.  1.
        994    1    1    2    0    0 -0.24431425549E+02 -0.21033182551E+02  0.56720007008E+01  0.17430117875E+03  0.17120000000E+03 0.  0.
        998    1    1    2    0    0  0.66074483533E+01  0.20102345478E+01  0.13605644318E+04  0.13606187095E+04  0.10000000000E+02 0.  1.
</event>
<event>
 5    1  0.1279376E-008  0.3736747E+03  0.7957747E-01  0.3479171E+00
         13   -1    0    0    0    0  0.00000000000E+00  0.00000000000E+00  0.14999999963E+04  0.15000000000E+04  0.10566000000E+00 0. -1.
        994   -1    0    0    0    0 -0.00000000000E+00 -0.00000000000E+00  0.11368683772E-12  0.17120000000E+03  0.17120000000E+03 0.  0.
         13    1    1    2    0    0 -0.25807017173E+02 -0.65163007659E+02  0.26992237736E+03  0.27887330576E+03  0.10566000000E+00 0. -1.
        994    1    1    2    0    0  0.28804843513E+02 -0.35424925393E+02  0.20314953932E+02  0.17834455894E+03  0.17120000000E+03 0.  0.
        998    1    1    2    0    0 -0.29978263400E+01  0.10058793305E+03  0.12097626650E+04  0.12139821353E+04  0.10000000000E+02 0. -1.
</event>
<event>
 5    1  0.1279376E-008  0.3830062E+03  0.7957747E-01  0.3438173E+00
         13   -1    0    0    0    0  0.00000000000E+00  0.00000000000E+00  0.14999999963E+04  0.15000000000E+04  0.10566000000E+00 0. -1.
        994   -1    0    0    0    0 -0.00000000000E+00 -0.00000000000E+00  0.11368683772E-12  0.17120000000E+03  0.17120000000E+03 0.  0.
         13    1    1    2    0    0 -0.20209207358E+02 -0.33646873187E+01  0.71038050137E+02  0.73933408646E+02  0.10566000000E+00 0. -1.
        994    1    1    2    0    0  0.35494392807E+02 -0.61307253054E+01  0.69297648818E+01  0.17508540589E+03  0.17120000000E+03 0.  0.
        998    1    1    2    0    0 -0.15285185449E+02  0.94954126241E+01  0.14220321813E+04  0.14221811855E+04  0.10000000000E+02 0. -1.
</event>
<event>
 5    1  0.1279376E-008  0.3839435E+03  0.7957747E-01  0.3434165E+00
         13   -1    0    0    0    0  0.00000000000E+00  0.00000000000E+00  0.14999999963E+04  0.15000000000E+04  0.10566000000E+00 0.  1.
        994   -1    0    0    0    0 -0.00000000000E+00 -0.00000000000E+00  0.11368683772E-12  0.17120000000E+03  0.17120000000E+03 0.  0.
         13    1    1    2    0    0 -0.82908669577E+01 -0.62277647790E+01  0.25639247459E+02  0.27656928668E+02  0.10566000000E+00 0.  1.
        994    1    1    2    0    0 -0.11236319690E+02  0.22881054904E+01  0.25895909062E+01  0.17160313601E+03  0.17120000000E+03 0.  0.
        998    1    1    2    0    0  0.19527186648E+02  0.39396592886E+01  0.14717711579E+04  0.14719399353E+04  0.10000000000E+02 0.  1.
</event>
<event>
 5    1  0.1279376E-008  0.3761585E+03  0.7957747E-01  0.3468058E+00
         13   -1    0    0    0    0  0.00000000000E+00  0.00000000000E+00  0.14999999963E+04  0.15000000000E+04  0.10566000000E+00 0.  1.
        994   -1    0    0    0    0 -0.00000000000E+00 -0.00000000000E+00  0.11368683772E-12  0.17120000000E+03  0.17120000000E+03 0.  0.
         13    1    1    2    0    0  0.19501966287E+02  0.35781053621E+02  0.15939436410E+03  0.16452107755E+03  0.10566000000E+00 0.  1.
        994    1    1    2    0    0 -0.32345907648E+02  0.22993184554E+02  0.11436367199E+02  0.17611125680E+03  0.17120000000E+03 0.  0.
        998    1    1    2    0    0  0.12843941361E+02 -0.58774238175E+02  0.13291692650E+04  0.13305676657E+04  0.10000000000E+02 0.  1.
</event>
<event>
 5    1  0.1279376E-008  0.3824057E+03  0.7957747E-01  0.3440750E+00
         13   -1    0    0    0    0  0.00000000000E+00  0.00000000000E+00  0.14999999963E+04  0.15000000000E+04  0.10566000000E+00 0.  1.
        994   -1    0    0    0    0 -0.00000000000E+00 -0.00000000000E+00  0.11368683772E-12  0.17120000000E+03  0.17120000000E+03 0.  0.
         13    1    1    2    0    0 -0.29343359607E+02  0.35145711484E+02  0.27024843972E+03  0.27409940555E+03  0.10566000000E+00 0.  1.
        994    1    1    2    0    0  0.50211980453E+02 -0.30499422031E+02  0.14456240266E+02  0.18157610142E+03  0.17120000000E+03 0.  0.
        998    1    1    2    0    0 -0.20868620847E+02 -0.46462894538E+01  0.12152953163E+04  0.12155244930E+04  0.10000000000E+02 0.  1.
</event>
<event>
 5    1  0.1279376E-008  0.3835587E+03  0.7957747E-01  0.3435808E+00
         13   -1    0    0    0    0  0.00000000000E+00  0.00000000000E+00  0.14999999963E+04  0.15000000000E+04  0.10566000000E+00 0. -1.
        994   -1    0    0    0    0 -0.00000000000E+00 -0.00000000000E+00  0.11368683772E-12  0.17120000000E+03  0.17120000000E+03 0.  0.
         13    1    1    2    0    0  0.17283308833E+02  0.28929431913E+01  0.63280012902E+02  0.65661656097E+02  0.10566000000E+00 0. -1.
        994    1    1    2    0    0 -0.18099944114E+02  0.10649362300E+02  0.38059488360E+01  0.17252519277E+03  0.17120000000E+03 0.  0.
        998    1    1    2    0    0  0.81663528158E+00 -0.13542305491E+02  0.14329140345E+04  0.14330131511E+04  0.10000000000E+02 0. -1.
</event>
<event>
 5    1  0.1279376E-008  0.3839543E+03  0.7957747E-01  0.3434119E+00
         13   -1    0    0    0    0  0.00000000000E+00  0.00000000000E+00  0.14999999963E+04  0.15000000000E+04  0.10566000000E+00 0. -1.
        994   -1    0    0    0    0 -0.00000000000E+00 -0.00000000000E+00  0.11368683772E-12  0.17120000000E+03  0.17120000000E+03 0.  0.
         13    1    1    2    0    0 -0.18671089307E+01 -0.15413235440E+02  0.54668779821E+02  0.56830806555E+02  0.10566000000E+00 0. -1.
        994    1    1    2    0    0  0.44623764501E+01  0.13043496186E+02  0.27775646684E+01  0.17177660045E+03  0.17120000000E+03 0.  0.
        998    1    1    2    0    0 -0.25952675193E+01  0.23697392537E+01  0.14425536518E+04  0.14425925930E+04  0.10000000000E+02 0. -1.
</event>
<event>
 5    1  0.1279376E-008  0.3858320E+03  0.7957747E-01  0.3426151E+00
         13   -1    0    0    0    0  0.00000000000E+00  0.00000000000E+00  0.14999999963E+04  0.15000000000E+04  0.10566000000E+00 0. -1.
        994   -1    0    0    0    0 -0.00000000000E+00 -0.00000000000E+00  0.11368683772E-12  0.17120000000E+03  0.17120000000E+03 0.  0.
         13    1    1    2    0    0  0.14665215270E+01  0.13715406448E+02  0.79974787747E+02  0.81155658451E+02  0.10566000000E+00 0. -1.
        994    1    1    2    0    0  0.46203055955E+00 -0.73678498790E+01  0.13964054684E+01  0.17136478236E+03  0.17120000000E+03 0.  0.
        998    1    1    2    0    0 -0.19285520865E+01 -0.63475565694E+01  0.14186288031E+04  0.14186795592E+04  0.10000000000E+02 0. -1.
</event>
<event>
 5    1  0.1279376E-008  0.2774643E+03  0.7957747E-01  0.4071315E+00
         13   -1    0    0    0    0  0.00000000000E+00  0.00000000000E+00  0.14999999963E+04  0.15000000000E+04  0.10566000000E+00 0. -1.
        994   -1    0    0    0    0 -0.00000000000E+00 -0.00000000000E+00  0.11368683772E-12  0.17120000000E+03  0.17120000000E+03 0.  0.
         13    1    1    2    0    0  0.67769990052E+01 -0.12207265669E+03  0.69070816875E+03  0.70144525572E+03  0.10566000000E+00 0. -1.
        994    1    1    2    0    0 -0.50909310182E+02  0.11595366056E+02  0.30134466156E+02  0.18150409480E+03  0.17120000000E+03 0.  0.
        998    1    1    2    0    0  0.44132311177E+02  0.11047729063E+03  0.77915736137E+03  0.78825064948E+03  0.10000000000E+02 0. -1.
</event>
<event>
 5    1  0.1279376E-008  0.3827282E+03  0.7957747E-01  0.3439365E+00
         13   -1    0    0    0    0  0.00000000000E+00  0.00000000000E+00  0.14999999963E+04  0.15000000000E+04  0.10566000000E+00 0.  1.
        994   -1    0    0    0    0 -0.00000000000E+00 -0.00000000000E+00  0.11368683772E-12  0.17120000000E+03  0.17120000000E+03 0.  0.
         13    1    1    2    0    0 -0.16739927658E+02  0.65435116168E+01  0.60365956556E+02  0.62984939448E+02  0.10566000000E+00 0.  1.
        994    1    1    2    0    0 -0.16832035625E+01 -0.10272685608E+02  0.31213379866E+01  0.17154458311E+03  0.17120000000E+03 0.  0.
        998    1    1    2    0    0  0.18423131221E+02  0.37291739914E+01  0.14365127017E+04  0.14366704774E+04  0.10000000000E+02 0.  1.
</event>
<event>
 5    1  0.1279376E-008  0.3742777E+03  0.7957747E-01  0.3476459E+00
         13   -1    0    0    0    0  0.00000000000E+00  0.00000000000E+00  0.14999999963E+04  0.15000000000E+04  0.10566000000E+00 0. -1.
        994   -1    0    0    0    0 -0.00000000000E+00 -0.00000000000E+00  0.11368683772E-12  0.17120000000E+03  0.17120000000E+03 0.  0.
         13    1    1    2    0    0  0.91927861300E+00  0.14875042553E+02  0.12488887430E+02  0.19444676325E+02  0.10566000000E+00 0. -1.
        994    1    1    2    0    0 -0.21123689305E+01 -0.15473352932E+02  0.78815670907E+01  0.17209138809E+03  0.17120000000E+03 0.  0.
        998    1    1    2    0    0  0.11930903175E+01  0.59831037894E+00  0.14796295418E+04  0.14796639356E+04  0.10000000000E+02 0. -1.
</event>
<event>
 5    1  0.1279376E-008  0.3819987E+03  0.7957747E-01  0.3442502E+00
         13   -1    0    0    0    0  0.00000000000E+00  0.00000000000E+00  0.14999999963E+04  0.15000000000E+04  0.10566000000E+00 0. -1.
        994   -1    0    0    0    0 -0.00000000000E+00 -0.00000000000E+00  0.11368683772E-12  0.17120000000E+03  0.17120000000E+03 0.  0.
         13    1    1    2    0    0  0.20526177059E+02 -0.15661618197E+02  0.10471758076E+03  0.10785357256E+03  0.10566000000E+00 0. -1.
        994    1    1    2    0    0 -0.12546677771E+02  0.11813508443E+02  0.41144771512E+01  0.17211434289E+03  0.17120000000E+03 0.  0.
        998    1    1    2    0    0 -0.79794992881E+01  0.38481097543E+01  0.13911679384E+04  0.13912320846E+04  0.10000000000E+02 0. -1.
</event>
<event>
 5    1  0.1279376E-008  0.3751036E+03  0.7957747E-01  0.3472760E+00
         13   -1    0    0    0    0  0.00000000000E+00  0.00000000000E+00  0.14999999963E+04  0.15000000000E+04  0.10566000000E+00 0. -1.
        994   -1    0    0    0    0 -0.00000000000E+00 -0.00000000000E+00  0.11368683772E-12  0.17120000000E+03  0.17120000000E+03 0.  0.
         13    1    1    2    0    0 -0.22095535584E+02  0.28215468232E+02  0.10801910378E+03  0.11380888930E+03  0.10566000000E+00 0. -1.
        994    1    1    2    0    0  0.51264274534E+01  0.14076822705E+02  0.73885496908E+01  0.17201298748E+03  0.17120000000E+03 0.  0.
        998    1    1    2    0    0  0.16969108131E+02 -0.42292290937E+02  0.13845923428E+04  0.13853781232E+04  0.10000000000E+02 0. -1.
</event>
<event>
 5    1  0.1279376E-008  0.3722469E+03  0.7957747E-01  0.3485628E+00
         13   -1    0    0    0    0  0.00000000000E+00  0.00000000000E+00  0.14999999963E+04  0.15000000000E+04  0.10566000000E+00 0.  1.
        994   -1    0    0    0    0 -0.00000000000E+00 -0.00000000000E+00  0.11368683772E-12  0.17120000000E+03  0.17120000000E+03 0.  0.
         13    1    1    2    0    0  0.65009573949E+02  0.28521222288E+02  0.32011308367E+03  0.32789038157E+03  0.10566000000E+00 0.  1.
        994    1    1    2    0    0  0.31989297161E+02 -0.53967908098E+01  0.15849364829E+02  0.17496594769E+03  0.17120000000E+03 0.  0.
        998    1    1    2    0    0 -0.96998871110E+02 -0.23124431478E+02  0.11640375478E+04  0.11683436707E+04  0.10000000000E+02 0.  1.
</event>
<event>
 5    1  0.1279376E-008  0.3829801E+03  0.7957747E-01  0.3438284E+00
         13   -1    0    0    0    0  0.00000000000E+00  0.00000000000E+00  0.14999999963E+04  0.15000000000E+04  0.10566000000E+00 0.  1.
        994   -1    0    0    0    0 -0.00000000000E+00 -0.00000000000E+00  0.11368683772E-12  0.17120000000E+03  0.17120000000E+03 0.  0.
         13    1    1    2    0    0 -0.25861390800E+02  0.10455699782E+02  0.12671572664E+03  0.12974983520E+03  0.10566000000E+00 0.  1.
        994    1    1    2    0    0  0.35658357400E+02 -0.13310274350E+02  0.74467928864E+01  0.17553796336E+03  0.17120000000E+03 0.  0.
        998    1    1    2    0    0 -0.97969666000E+01  0.28545745685E+01  0.13658374767E+04  0.13659122014E+04  0.10000000000E+02 0.  1.
</event>
<event>
 5    1  0.1279376E-008  0.3763212E+03  0.7957747E-01  0.3467335E+00
         13   -1    0    0    0    0  0.00000000000E+00  0.00000000000E+00  0.14999999963E+04  0.15000000000E+04  0.10566000000E+00 0. -1.
        994   -1    0    0    0    0 -0.00000000000E+00 -0.00000000000E+00  0.11368683772E-12  0.17120000000E+03  0.17120000000E+03 0.  0.
         13    1    1    2    0    0  0.45601894618E+02 -0.59616678490E+02  0.36622169047E+03  0.37383421309E+03  0.10566000000E+00 0. -1.
        994    1    1    2    0    0 -0.41170534217E+02  0.57928406469E+02  0.23289979870E+02  0.18682231217E+03  0.17120000000E+03 0.  0.
        998    1    1    2    0    0 -0.44313604007E+01  0.16882720208E+01  0.11104883259E+04  0.11105434747E+04  0.10000000000E+02 0. -1.
</event>
<event>
 5    1  0.1279376E-008  0.3832886E+03  0.7957747E-01  0.3436963E+00
         13   -1    0    0    0    0  0.00000000000E+00  0.00000000000E+00  0.14999999963E+04  0.15000000000E+04  0.10566000000E+00 0.  1.
        994   -1    0    0    0    0 -0.00000000000E+00 -0.00000000000E+00  0.11368683772E-12  0.17120000000E+03  0.17120000000E+03 0.  0.
         13    1    1    2    0    0  0.12688973263E+02  0.81627244292E+01  0.46925178470E+02  0.49291212717E+02  0.10566000000E+00 0.  1.
        994    1    1    2    0    0 -0.45584964429E+01  0.44241396424E+01  0.26156784683E+01  0.17133777947E+03  0.17120000000E+03 0.  0.
        998    1    1    2    0    0 -0.81304768202E+01 -0.12586864072E+02  0.14504591393E+04  0.14505710078E+04  0.10000000000E+02 0.  1.
</event>
<event>
 5    1  0.1279376E-008  0.3714016E+03  0.7957747E-01  0.3489474E+00
         13   -1    0    0    0    0  0.00000000000E+00  0.00000000000E+00  0.14999999963E+04  0.15000000000E+04  0.10566000000E+00 0.  1.
        994   -1    0    0    0    0 -0.00000000000E+00 -0.00000000000E+00  0.11368683772E-12  0.17120000000E+03  0.17120000000E+03 0.  0.
         13    1    1    2    0    0  0.27193416932E+02 -0.77050768209E+02  0.26741795347E+03  0.27962238073E+03  0.10566000000E+00 0.  1.
        994    1    1    2    0    0 -0.26520738615E+02  0.51750454588E+02  0.23658165195E+02  0.18234749219E+03  0.17120000000E+03 0.  0.
        998    1    1    2    0    0 -0.67267831724E+00  0.25300313621E+02  0.12089238776E+04  0.12092301271E+04  0.10000000000E+02 0.  1.
</event>
<event>
 5    1  0.1279376E-008  0.3765460E+03  0.7957747E-01  0.3466337E+00
         13   -1    0    0    0    0  0.00000000000E+00  0.00000000000E+00  0.14999999963E+04  0.15000000000E+04  0.10566000000E+00 0. -1.
        994   -1    0    0    0    0 -0.00000000000E+00 -0.00000000000E+00  0.11368683772E-12  0.17120000000E+03  0.17120000000E+03 0.  0.
         13    1    1    2    0    0  0.36687741751E+01 -0.21876178943E+02  0.38616463995E+02  0.44533914768E+02  0.10566000000E+00 0. -1.
        994    1    1    2    0    0 -0.12762946327E+01  0.21974634726E+02  0.75271027696E+01  0.17277329300E+03  0.17120000000E+03 0.  0.
        998    1    1    2    0    0 -0.23924795424E+01 -0.98455782679E-01  0.14538564295E+04  0.14538927922E+04  0.10000000000E+02 0. -1.
</event>
<event>
 5    1  0.1279376E-008  0.3841011E+03  0.7957747E-01  0.3433493E+00
         13   -1    0    0    0    0  0.00000000000E+00  0.00000000000E+00  0.14999999963E+04  0.15000000000E+04  0.10566000000E+00 0.  1.
        994   -1    0    0    0    0 -0.00000000000E+00 -0.00000000000E+00  0.11368683772E-12  0.17120000000E+03  0.17120000000E+03 0.  0.
         13    1    1    2    0    0 -0.98478136359E+01 -0.38753720637E+01  0.28751982851E+02  0.30637976825E+02  0.10566000000E+00 0.  1.
        994    1    1    2    0    0 -0.79333662355E+01 -0.19677849344E+02  0.35632142791E+01  0.17254649388E+03  0.17120000000E+03 0.  0.
        998    1    1    2    0    0  0.17781179871E+02  0.23553221407E+02  0.14676847991E+04  0.14680155293E+04  0.10000000000E+02 0.  1.
</event>
<event>
 5    1  0.1279376E-008  0.3831594E+03  0.7957747E-01  0.3437516E+00
         13   -1    0    0    0    0  0.00000000000E+00  0.00000000000E+00  0.14999999963E+04  0.15000000000E+04  0.10566000000E+00 0. -1.
        994   -1    0    0    0    0 -0.00000000000E+00 -0.00000000000E+00  0.11368683772E-12  0.17120000000E+03  0.17120000000E+03 0.  0.
         13    1    1    2    0    0 -0.22800576047E+02 -0.13592670585E+02  0.14594439489E+03  0.14833881666E+03  0.10566000000E+00 0. -1.
        994    1    1    2    0    0  0.27225710223E+02 -0.25055950827E+02  0.70892922151E+01  0.17529614381E+03  0.17120000000E+03 0.  0.
        998    1    1    2    0    0 -0.44251341758E+01  0.38648621412E+02  0.13469663092E+04  0.13475650395E+04  0.10000000000E+02 0. -1.
</event>
<event>
 5    1  0.1279376E-008  0.3832230E+03  0.7957747E-01  0.3437244E+00
         13   -1    0    0    0    0  0.00000000000E+00  0.00000000000E+00  0.14999999963E+04  0.15000000000E+04  0.10566000000E+00 0.  1.
        994   -1    0    0    0    0 -0.00000000000E+00 -0.00000000000E+00  0.11368683772E-12  0.17120000000E+03  0.17120000000E+03 0.  0.
         13    1    1    2    0    0  0.16149917092E+02 -0.84129538449E+01  0.62691845071E+02  0.65283046934E+02  0.10566000000E+00 0.  1.
        994    1    1    2    0    0 -0.16562265574E+02  0.10632409821E+02  0.37972719293E+01  0.17236941740E+03  0.17120000000E+03 0.  0.
        998    1    1    2    0    0  0.41234848161E+00 -0.22194559757E+01  0.14335108793E+04  0.14335475357E+04  0.10000000000E+02 0.  1.
</event>
<event>
 5    1  0.1279376E-008  0.3855838E+03  0.7957747E-01  0.3427200E+00
         13   -1    0    0    0    0  0.00000000000E+00  0.00000000000E+00  0.14999999963E+04  0.15000000000E+04  0.10566000000E+00 0. -1.
        994   -1    0    0    0    0 -0.00000000000E+00 -0.00000000000E+00  0.11368683772E-12  0.17120000000E+03  0.17120000000E+03 0.  0.
         13    1    1    2    0    0  0.73744521967E+01 -0.98636540831E+01  0.58272089149E+02  0.59559396865E+02  0.10566000000E+00 0. -1.
        994    1    1    2    0    0 -0.37479891195E+00  0.55175341344E+01  0.14409431044E+01  0.17129535888E+03  0.17120000000E+03 0.  0.
        998    1    1    2    0    0 -0.69996532848E+01  0.43461199487E+01  0.14402869640E+04  0.14403452443E+04  0.10000000000E+02 0. -1.
</event>
<event>
 5    1  0.1279376E-008  0.3750752E+03  0.7957747E-01  0.3472887E+00
         13   -1    0    0    0    0  0.00000000000E+00  0.00000000000E+00  0.14999999963E+04  0.15000000000E+04  0.10566000000E+00 0.  1.
        994   -1    0    0    0    0 -0.00000000000E+00 -0.00000000000E+00  0.11368683772E-12  0.17120000000E+03  0.17120000000E+03 0.  0.
         13    1    1    2    0    0 -0.17856013243E+02  0.45163098566E+02  0.17244692094E+03  0.17915494519E+03  0.10566000000E+00 0.  1.
        994    1    1    2    0    0  0.17800567014E+02 -0.26841787135E+02  0.10173454814E+02  0.17450008855E+03  0.17120000000E+03 0.  0.
        998    1    1    2    0    0  0.55446228842E-01 -0.18321311431E+02  0.13173796205E+04  0.13175449663E+04  0.10000000000E+02 0.  1.
</event>
<event>
 5    1  0.1279376E-008  0.3813579E+03  0.7957747E-01  0.3445267E+00
         13   -1    0    0    0    0  0.00000000000E+00  0.00000000000E+00  0.14999999963E+04  0.15000000000E+04  0.10566000000E+00 0.  1.
        994   -1    0    0    0    0 -0.00000000000E+00 -0.00000000000E+00  0.11368683772E-12  0.17120000000E+03  0.17120000000E+03 0.  0.
         13    1    1    2    0    0  0.16755105209E+02 -0.11200764616E+01  0.38245623051E+02  0.41769928998E+02  0.10566000000E+00 0.  1.
        994    1    1    2    0    0 -0.20319895706E+02  0.10654918282E+02  0.52031637842E+01  0.17280896493E+03  0.17120000000E+03 0.  0.
        998    1    1    2    0    0  0.35647904976E+01 -0.95348418201E+01  0.14565512094E+04  0.14566211061E+04  0.10000000000E+02 0.  1.
</event>
<event>
 5    1  0.1279376E-008  0.3851185E+03  0.7957747E-01  0.3429170E+00
         13   -1    0    0    0    0  0.00000000000E+00  0.00000000000E+00  0.14999999963E+04  0.15000000000E+04  0.10566000000E+00 0. -1.
        994   -1    0    0    0    0 -0.00000000000E+00 -0.00000000000E+00  0.11368683772E-12  0.17120000000E+03  0.17120000000E+03 0.  0.
         13    1    1    2    0    0 -0.81012407258E+01 -0.12971024860E+02  0.83776326787E+02  0.85160798970E+02  0.10566000000E+00 0. -1.
        994    1    1    2    0    0 -0.99125275750E+01 -0.34941278160E+00  0.18948021218E+01  0.17149755266E+03  0.17120000000E+03 0.  0.
        998    1    1    2    0    0  0.18013768301E+02  0.13320437641E+02  0.14143288674E+04  0.14145416484E+04  0.10000000000E+02 0. -1.
</event>
<event>
 5    1  0.1279376E-008  0.3839681E+03  0.7957747E-01  0.3434060E+00
         13   -1    0    0    0    0  0.00000000000E+00  0.00000000000E+00  0.14999999963E+04  0.15000000000E+04  0.10566000000E+00 0.  1.
        994   -1    0    0    0    0 -0.00000000000E+00 -0.00000000000E+00  0.11368683772E-12  0.17120000000E+03  0.17120000000E+03 0.  0.
         13    1    1    2    0    0  0.15042535640E+02  0.22452661180E+01  0.55005823429E+02  0.57069877112E+02  0.10566000000E+00 0.  1.
        994    1    1    2    0    0 -0.43139713604E+01 -0.26989112386E+01  0.22287747821E+01  0.17129011036E+03  0.17120000000E+03 0.  0.
        998    1    1    2    0    0 -0.10728564280E+02  0.45364512056E+00  0.14427653981E+04  0.14428400125E+04  0.10000000000E+02 0.  1.
</event>
<event>
 5    1  0.1279376E-008  0.3826295E+03  0.7957747E-01  0.3439788E+00
         13   -1    0    0    0    0  0.00000000000E+00  0.00000000000E+00  0.14999999963E+04  0.15000000000E+04  0.10566000000E+00 0.  1.
        994   -1    0    0    0    0 -0.00000000000E+00 -0.00000000000E+00  0.11368683772E-12  0.17120000000E+03  0.17120000000E+03 0.  0.
         13    1    1    2    0    0  0.20154718728E+01 -0.31269873124E+02  0.16190656704E+03  0.16491092961E+03  0.10566000000E+00 0.  1.
        994    1    1    2    0    0 -0.71800781914E+01  0.27219435519E+02  0.54423430665E+01  0.17358430312E+03  0.17120000000E+03 0.  0.
        998    1    1    2    0    0  0.51646063186E+01  0.40504376047E+01  0.13326510862E+04  0.13327047673E+04  0.10000000000E+02 0.  1.
</event>
<event>
 5    1  0.1279376E-008  0.3717375E+03  0.7957747E-01  0.3487944E+00
         13   -1    0    0    0    0  0.00000000000E+00  0.00000000000E+00  0.14999999963E+04  0.15000000000E+04  0.10566000000E+00 0.  1.
        994   -1    0    0    0    0 -0.00000000000E+00 -0.00000000000E+00  0.11368683772E-12  0.17120000000E+03  0.17120000000E+03 0.  0.
         13    1    1    2    0    0  0.29681240919E+02 -0.48275053945E+02  0.12092286604E+03  0.13354327984E+03  0.10566000000E+00 0.  1.
        994    1    1    2    0    0 -0.45112983818E+01  0.64982570718E+02  0.26938592980E+02  0.18514376604E+03  0.17120000000E+03 0.  0.
        998    1    1    2    0    0 -0.25169942538E+02 -0.16707516774E+02  0.13521385373E+04  0.13525129541E+04  0.10000000000E+02 0.  1.
</event>
<event>
 5    1  0.1279376E-008  0.3748279E+03  0.7957747E-01  0.3473993E+00
         13   -1    0    0    0    0  0.00000000000E+00  0.00000000000E+00  0.14999999963E+04  0.15000000000E+04  0.10566000000E+00 0. -1.
        994   -1    0    0    0    0 -0.00000000000E+00 -0.00000000000E+00  0.11368683772E-12  0.17120000000E+03  0.17120000000E+03 0.  0.
         13    1    1    2    0    0 -0.65194918441E+02 -0.23265310019E+02  0.32111493617E+03  0.32849119537E+03  0.10566000000E+00 0. -1.
        994    1    1    2    0    0  0.45712304782E+02  0.24916002361E+02  0.16042221839E+02  0.17965860643E+03  0.17120000000E+03 0.  0.
        998    1    1    2    0    0  0.19482613660E+02 -0.16506923421E+01  0.11628428383E+04  0.11630501982E+04  0.10000000000E+02 0. -1.
</event>
<event>
 5    1  0.1279376E-008  0.3834104E+03  0.7957747E-01  0.3436442E+00
         13   -1    0    0    0    0  0.00000000000E+00  0.00000000000E+00  0.14999999963E+04  0.15000000000E+04  0.10566000000E+00 0. -1.
        994   -1    0    0    0    0 -0.00000000000E+00 -0.00000000000E+00  0.11368683772E-12  0.17120000000E+03  0.17120000000E+03 0.  0.
         13    1    1    2    0    0 -0.37812734572E+01 -0.98168909321E+01  0.22051817791E+02  0.24432830545E+02  0.10566000000E+00 0. -1.
        994    1    1    2    0    0  0.11819433942E+01  0.67760136341E+01  0.25778328333E+01  0.17135751099E+03  0.17120000000E+03 0.  0.
        998    1    1    2    0    0  0.25993300630E+01  0.30408772980E+01  0.14753703457E+04  0.14754096585E+04  0.10000000000E+02 0. -1.
</event>
<event>
 5    1  0.1279376E-008  0.3787813E+03  0.7957747E-01  0.3456482E+00
         13   -1    0    0    0    0  0.00000000000E+00  0.00000000000E+00  0.14999999963E+04  0.15000000000E+04  0.10566000000E+00 0. -1.
        994   -1    0    0    0    0 -0.00000000000E+00 -0.00000000000E+00  0.11368683772E-12  0.17120000000E+03  0.17120000000E+03 0.  0.
         13    1    1    2    0    0 -0.19456892245E+02  0.98286518599E+01  0.47640075410E+02  0.52390466712E+02  0.10566000000E+00 0. -1.
        994    1    1    2    0    0  0.19030418733E+02 -0.14768697085E+01  0.59734546304E+01  0.17236432387E+03  0.17120000000E+03 0.  0.
        998    1    1    2    0    0  0.42647351191E+00 -0.83517821515E+01  0.14463864662E+04  0.14464452094E+04  0.10000000000E+02 0. -1.
</event>
<event>
 5    1  0.1279376E-008  0.3798589E+03  0.7957747E-01  0.3451773E+00
         13   -1    0    0    0    0  0.00000000000E+00  0.00000000000E+00  0.14999999963E+04  0.15000000000E+04  0.10566000000E+00 0.  1.
        994   -1    0    0    0    0 -0.00000000000E+00 -0.00000000000E+00  0.11368683772E-12  0.17120000000E+03  0.17120000000E+03 0.  0.
         13    1    1    2    0    0  0.44847293866E+02  0.37659395997E+02  0.27852376318E+03  0.28461378690E+03  0.10566000000E+00 0.  1.
        994    1    1    2    0    0 -0.70777249820E+02 -0.38658910927E+02  0.26272726241E+02  0.19105922283E+03  0.17120000000E+03 0.  0.
        998    1    1    2    0    0  0.25929955954E+02  0.99951493012E+00  0.11952035069E+04  0.11955269903E+04  0.10000000000E+02 0.  1.
</event>
<event>
 5    1  0.1279376E-008  0.3692945E+03  0.7957747E-01  0.3499139E+00
         13   -1    0    0    0    0  0.00000000000E+00  0.00000000000E+00  0.14999999963E+04  0.15000000000E+04  0.10566000000E+00 0. -1.
        994   -1    0    0    0    0 -0.00000000000E+00 -0.00000000000E+00  0.11368683772E-12  0.17120000000E+03  0.17120000000E+03 0.  0.
         13    1    1    2    0    0  0.52720673145E+02 -0.13928717468E+03  0.79374951399E+03  0.80760057487E+03  0.10566000000E+00 0. -1.
        994    1    1    2    0    0 -0.37304790950E+02  0.10651474760E+03  0.56405110875E+02  0.21266879277E+03  0.17120000000E+03 0.  0.
        998    1    1    2    0    0 -0.15415882195E+02  0.32772427076E+02  0.64984537141E+03  0.65093063236E+03  0.10000000000E+02 0. -1.
</event>
<event>
 5    1  0.1279376E-008  0.3759063E+03  0.7957747E-01  0.3469180E+00
         13   -1    0    0    0    0  0.00000000000E+00  0.00000000000E+00  0.14999999963E+04  0.15000000000E+04  0.10566000000E+00 0. -1.
        994   -1    0    0    0    0 -0.00000000000E+00 -0.00000000000E+00  0.11368683772E-12  0.17120000000E+03  0.17120000000E+03 0.  0.
         13    1    1    2    0    0 -0.14585314830E+02 -0.21473478781E+01  0.14830243882E+02  0.20911475539E+02  0.10566000000E+00 0. -1.
        994    1    1    2    0    0  0.91714269662E+01 -0.28376283550E+01  0.65264858303E+01  0.17159312989E+03  0.17120000000E+03 0.  0.
        998    1    1    2    0    0  0.54138878638E+01  0.49849762331E+01  0.14786432666E+04  0.14786953946E+04  0.10000000000E+02 0. -1.
</event>
<event>
 5    1  0.1279376E-008  0.3752270E+03  0.7957747E-01  0.3472208E+00
         13   -1    0    0    0    0  0.00000000000E+00  0.00000000000E+00  0.14999999963E+04  0.15000000000E+04  0.10566000000E+00 0. -1.
        994   -1    0    0    0    0 -0.00000000000E+00 -0.00000000000E+00  0.11368683772E-12  0.17120000000E+03  0.17120000000E+03 0.  0.
         13    1    1    2    0    0  0.21287372163E+02  0.79898104486E+01  0.37343238493E+02  0.43720909297E+02  0.10566000000E+00 0. -1.
        994    1    1    2    0    0 -0.69614922441E+01 -0.92383083019E+01  0.70168026305E+01  0.17173375974E+03  0.17120000000E+03 0.  0.
        998    1    1    2    0    0 -0.14325879918E+02  0.12484978532E+01  0.14556399552E+04  0.14557453310E+04  0.10000000000E+02 0. -1.
</event>
<event>
 5    1  0.1279376E-008  0.3416536E+03  0.7957747E-01  0.3637253E+00
         13   -1    0    0    0    0  0.00000000000E+00  0.00000000000E+00  0.14999999963E+04  0.15000000000E+04  0.10566000000E+00 0. -1.
        994   -1    0    0    0    0 -0.00000000000E+00 -0.00000000000E+00  0.11368683772E-12  0.17120000000E+03  0.17120000000E+03 0.  0.
         13    1    1    2    0    0 -0.46706310253E+01 -0.21607803080E+03  0.10173249464E+04  0.10400296091E+04  0.10566000000E+00 0. -1.
        994    1    1    2    0    0 -0.40560853705E+02  0.17195743623E+03  0.14099937064E+03  0.28355741085E+03  0.17120000000E+03 0.  0.
        998    1    1    2    0    0  0.45231484731E+02  0.44120594565E+02  0.34167567925E+03  0.34761298000E+03  0.10000000000E+02 0. -1.
</event>
<event>
 5    1  0.1279376E-008  0.3854887E+03  0.7957747E-01  0.3427602E+00
         13   -1    0    0    0    0  0.00000000000E+00  0.00000000000E+00  0.14999999963E+04  0.15000000000E+04  0.10566000000E+00 0. -1.
        994   -1    0    0    0    0 -0.00000000000E+00 -0.00000000000E+00  0.11368683772E-12  0.17120000000E+03  0.17120000000E+03 0.  0.
         13    1    1    2    0    0  0.14990556682E+02 -0.43278154442E+01  0.83268954668E+02  0.84718219715E+02  0.10566000000E+00 0. -1.
        994    1    1    2    0    0 -0.17286181591E+02  0.34826233348E+01  0.24093177835E+01  0.17212258873E+03  0.17120000000E+03 0.  0.
        998    1    1    2    0    0  0.22956249091E+01  0.84519210936E+00  0.14143217238E+04  0.14143591916E+04  0.10000000000E+02 0. -1.
</event>
<event>
 5    1  0.1279376E-008  0.3828772E+03  0.7957747E-01  0.3438725E+00
         13   -1    0    0    0    0  0.00000000000E+00  0.00000000000E+00  0.14999999963E+04  0.15000000000E+04  0.10566000000E+00 0. -1.
        994   -1    0    0    0    0 -0.00000000000E+00 -0.00000000000E+00  0.11368683772E-12  0.17120000000E+03  0.17120000000E+03 0.  0.
         13    1    1    2    0    0 -0.16412954519E+01 -0.11589287466E+02  0.23644063764E+02  0.26382917770E+02  0.10566000000E+00 0. -1.
        994    1    1    2    0    0  0.25847728535E+02  0.15736389410E+02  0.57260680026E+01  0.17394817296E+03  0.17120000000E+03 0.  0.
        998    1    1    2    0    0 -0.24206433083E+02 -0.41471019443E+01  0.14706298645E+04  0.14708689093E+04  0.10000000000E+02 0. -1.
</event>
<event>
 5    1  0.1279376E-008  0.3857575E+03  0.7957747E-01  0.3426466E+00
         13   -1    0    0    0    0  0.00000000000E+00  0.00000000000E+00  0.14999999963E+04  0.15000000000E+04  0.10566000000E+00 0.  1.
        994   -1    0    0    0    0 -0.00000000000E+00 -0.00000000000E+00  0.11368683772E-12  0.17120000000E+03  0.17120000000E+03 0.  0.
         13    1    1    2    0    0 -0.93482200345E+01 -0.55209164353E+01  0.42310204964E+02  0.43681052463E+02  0.10566000000E+00 0.  1.
        994    1    1    2    0    0  0.14454372330E+02  0.29108554283E+02  0.47272832555E+01  0.17432161088E+03  0.17120000000E+03 0.  0.
        998    1    1    2    0    0 -0.51061522956E+01 -0.23587637848E+02  0.14529625081E+04  0.14531973367E+04  0.10000000000E+02 0.  1.
</event>
<event>
 5    1  0.1279376E-008  0.3694768E+03  0.7957747E-01  0.3498299E+00
         13   -1    0    0    0    0  0.00000000000E+00  0.00000000000E+00  0.14999999963E+04  0.15000000000E+04  0.10566000000E+00 0. -1.
        994   -1    0    0    0    0 -0.00000000000E+00 -0.00000000000E+00  0.11368683772E-12  0.17120000000E+03  0.17120000000E+03 0.  0.
         13    1    1    2    0    0  0.65765298770E+01 -0.19748131554E+02  0.18538620301E+02  0.27873482951E+02  0.10566000000E+00 0. -1.
        994    1    1    2    0    0  0.37773563822E+01  0.18653749977E+02  0.10798522241E+02  0.17259281240E+03  0.17120000000E+03 0.  0.
        998    1    1    2    0    0 -0.10353886259E+02  0.10943815766E+01  0.14706628537E+04  0.14707337046E+04  0.10000000000E+02 0. -1.
</event>
<event>
 5    1  0.1279376E-008  0.3758169E+03  0.7957747E-01  0.3469577E+00
         13   -1    0    0    0    0  0.00000000000E+00  0.00000000000E+00  0.14999999963E+04  0.15000000000E+04  0.10566000000E+00 0.  1.
        994   -1    0    0    0    0 -0.00000000000E+00 -0.00000000000E+00  0.11368683772E-12  0.17120000000E+03  0.17120000000E+03 0.  0.
         13    1    1    2    0    0  0.65444377170E+01 -0.10904835388E+02  0.10277943999E+02  0.16352137376E+02  0.10566000000E+00 0.  1.
        994    1    1    2    0    0  0.62925727532E+01  0.59803152565E+01  0.65153514032E+01  0.17154372751E+03  0.17120000000E+03 0.  0.
        998    1    1    2    0    0 -0.12837010470E+02  0.49245201317E+01  0.14832067009E+04  0.14833041351E+04  0.10000000000E+02 0.  1.
</event>
<event>
 5    1  0.1279376E-008  0.3835424E+03  0.7957747E-01  0.3435878E+00
         13   -1    0    0    0    0  0.00000000000E+00  0.00000000000E+00  0.14999999963E+04  0.15000000000E+04  0.10566000000E+00 0.  1.
        994   -1    0    0    0    0 -0.00000000000E+00 -0.00000000000E+00  0.11368683772E-12  0.17120000000E+03  0.17120000000E+03 0.  0.
         13    1    1    2    0    0  0.78167034695E+01 -0.88111182336E+01  0.29029929748E+02  0.31328655299E+02  0.10566000000E+00 0.  1.
        994    1    1    2    0    0 -0.76855673191E+01 -0.22606211723E-01  0.25507558557E+01  0.17139140822E+03  0.17120000000E+03 0.  0.
        998    1    1    2    0    0 -0.13113615031E+00  0.88337244453E+01  0.14684193107E+04  0.14684799365E+04  0.10000000000E+02 0.  1.
</event>
<event>
 5    1  0.1279376E-008  0.3820533E+03  0.7957747E-01  0.3442266E+00
         13   -1    0    0    0    0  0.00000000000E+00  0.00000000000E+00  0.14999999963E+04  0.15000000000E+04  0.10566000000E+00 0.  1.
        994   -1    0    0    0    0 -0.00000000000E+00 -0.00000000000E+00  0.11368683772E-12  0.17120000000E+03  0.17120000000E+03 0.  0.
         13    1    1    2    0    0  0.11820298522E+02  0.26779622061E+02  0.12967254962E+03  0.13293550656E+03  0.10566000000E+00 0.  1.
        994    1    1    2    0    0 -0.56564941879E+01 -0.26020696470E+02  0.54581820488E+01  0.17334446724E+03  0.17120000000E+03 0.  0.
        998    1    1    2    0    0 -0.61638043340E+01 -0.75892559029E+00  0.13648692646E+04  0.13649200262E+04  0.10000000000E+02 0.  1.
</event>
<event>
 5    1  0.1279376E-008  0.3850034E+03  0.7957747E-01  0.3429658E+00
         13   -1    0    0    0    0  0.00000000000E+00  0.00000000000E+00  0.14999999963E+04  0.15000000000E+04  0.10566000000E+00 0. -1.
        994   -1    0    0    0    0 -0.00000000000E+00 -0.00000000000E+00  0.11368683772E-12  0.17120000000E+03  0.17120000000E+03 0.  0.
         13    1    1    2    0    0  0.55811570822E+01 -0.94266588942E+01  0.38163536114E+02  0.39704884650E+02  0.10566000000E+00 0. -1.
        994    1    1    2    0    0  0.11042247393E+02  0.60559712340E+01  0.21502003966E+01  0.17167605942E+03  0.17120000000E+03 0.  0.
        998    1    1    2    0    0 -0.16623404475E+02  0.33706876602E+01  0.14596862598E+04  0.14598190559E+04  0.10000000000E+02 0. -1.
</event>
<event>
 5    1  0.1279376E-008  0.3858117E+03  0.7957747E-01  0.3426237E+00
         13   -1    0    0    0    0  0.00000000000E+00  0.00000000000E+00  0.14999999963E+04  0.15000000000E+04  0.10566000000E+00 0. -1.
        994   -1    0    0    0    0 -0.00000000000E+00 -0.00000000000E+00  0.11368683772E-12  0.17120000000E+03  0.17120000000E+03 0.  0.
         13    1    1    2    0    0 -0.43195201794E+01  0.10621784435E+02  0.52225742170E+02  0.53469803332E+02  0.10566000000E+00 0. -1.
        994    1    1    2    0    0  0.27841498678E+02 -0.34335552281E+01  0.38131197646E+01  0.17352497870E+03  0.17120000000E+03 0.  0.
        998    1    1    2    0    0 -0.23521978498E+02 -0.71882292072E+01  0.14439611343E+04  0.14442052180E+04  0.10000000000E+02 0. -1.
</event>
<event>
 5    1  0.1279376E-008  0.3785402E+03  0.7957747E-01  0.3457540E+00
         13   -1    0    0    0    0  0.00000000000E+00  0.00000000000E+00  0.14999999963E+04  0.15000000000E+04  0.10566000000E+00 0. -1.
        994   -1    0    0    0    0 -0.00000000000E+00 -0.00000000000E+00  0.11368683772E-12  0.17120000000E+03  0.17120000000E+03 0.  0.
         13    1    1    2    0    0  0.10855181035E+02  0.17505156367E+02  0.44030790928E+02  0.48610566429E+02  0.10566000000E+00 0. -1.
        994    1    1    2    0    0  0.15905342613E+02 -0.63906363726E+01  0.58594553284E+01  0.17215572420E+03  0.17120000000E+03 0.  0.
        998    1    1    2    0    0 -0.26760523648E+02 -0.11114519995E+02  0.14501097500E+04  0.14504337094E+04  0.10000000000E+02 0. -1.
</event>
<event>
 5    1  0.1279376E-008  0.3815692E+03  0.7957747E-01  0.3444354E+00
         13   -1    0    0    0    0  0.00000000000E+00  0.00000000000E+00  0.14999999963E+04  0.15000000000E+04  0.10566000000E+00 0. -1.
        994   -1    0    0    0    0 -0.00000000000E+00 -0.00000000000E+00  0.11368683772E-12  0.17120000000E+03  0.17120000000E+03 0.  0.
         13    1    1    2    0    0  0.12718037297E+02 -0.12405249589E+02  0.45597185671E+02  0.48936215579E+02  0.10566000000E+00 0. -1.
        994    1    1    2    0    0 -0.13313307516E+02  0.65423989439E+01  0.40752477663E+01  0.17188977510E+03  0.17120000000E+03 0.  0.
        998    1    1    2    0    0  0.59527021856E+00  0.58628506455E+01  0.14503275628E+04  0.14503740093E+04  0.10000000000E+02 0. -1.
</event>
<event>
 5    1  0.1279376E-008  0.3792717E+03  0.7957747E-01  0.3454336E+00
         13   -1    0    0    0    0  0.00000000000E+00  0.00000000000E+00  0.14999999963E+04  0.15000000000E+04  0.10566000000E+00 0.  1.
        994   -1    0    0    0    0 -0.00000000000E+00 -0.00000000000E+00  0.11368683772E-12  0.17120000000E+03  0.17120000000E+03 0.  0.
         13    1    1    2    0    0  0.23763828995E+02 -0.50485625304E+01  0.70692286831E+02  0.74750372130E+02  0.10566000000E+00 0.  1.
        994    1    1    2    0    0  0.81448688706E+01 -0.15278118014E+01  0.47313957468E+01  0.17146573770E+03  0.17120000000E+03 0.  0.
        998    1    1    2    0    0 -0.31908697866E+02  0.65763743318E+01  0.14245763137E+04  0.14249838902E+04  0.10000000000E+02 0.  1.
</event>
<event>
 5    1  0.1279376E-008  0.3738952E+03  0.7957747E-01  0.3478179E+00
         13   -1    0    0    0    0  0.00000000000E+00  0.00000000000E+00  0.14999999963E+04  0.15000000000E+04  0.10566000000E+00 0.  1.
        994   -1    0    0    0    0 -0.00000000000E+00 -0.00000000000E+00  0.11368683772E-12  0.17120000000E+03  0.17120000000E+03 0.  0.
         13    1    1    2    0    0 -0.61414126151E+00 -0.18379622341E+02  0.20093433594E+02  0.27238665982E+02  0.10566000000E+00 0.  1.
        994    1    1    2    0    0 -0.26962756989E+00  0.15842676508E+02  0.81042293155E+01  0.17212257734E+03  0.17120000000E+03 0.  0.
        998    1    1    2    0    0  0.88376883140E+00  0.25369458324E+01  0.14718023334E+04  0.14718387567E+04  0.10000000000E+02 0.  1.
</event>
<event>
 5    1  0.1279376E-008  0.3832232E+03  0.7957747E-01  0.3437243E+00
         13   -1    0    0    0    0  0.00000000000E+00  0.00000000000E+00  0.14999999963E+04  0.15000000000E+04  0.10566000000E+00 0.  1.
        994   -1    0    0    0    0 -0.00000000000E+00 -0.00000000000E+00  0.11368683772E-12  0.17120000000E+03  0.17120000000E+03 0.  0.
         13    1    1    2    0    0  0.15622090264E+02  0.15802567052E+02  0.10381836555E+03  0.10616984044E+03  0.10566000000E+00 0.  1.
        994    1    1    2    0    0 -0.17836444589E+02  0.10848493241E+02  0.39577751369E+01  0.17251357206E+03  0.17120000000E+03 0.  0.
        998    1    1    2    0    0  0.22143543251E+01 -0.26651060293E+02  0.13922238556E+04  0.13925165875E+04  0.10000000000E+02 0.  1.
</event>
<event>
 5    1  0.1279376E-008  0.3841149E+03  0.7957747E-01  0.3433435E+00
         13   -1    0    0    0    0  0.00000000000E+00  0.00000000000E+00  0.14999999963E+04  0.15000000000E+04  0.10566000000E+00 0. -1.
        994   -1    0    0    0    0 -0.00000000000E+00 -0.00000000000E+00  0.11368683772E-12  0.17120000000E+03  0.17120000000E+03 0.  0.
         13    1    1    2    0    0 -0.14031332638E+02 -0.14019180919E+02  0.99301455392E+02  0.10126305317E+03  0.10566000000E+00 0. -1.
        994    1    1    2    0    0  0.55175594265E+00  0.75707830005E+01  0.22602847292E+01  0.17138310908E+03  0.17120000000E+03 0.  0.
        998    1    1    2    0    0  0.13479576696E+02  0.64483979181E+01  0.13984382562E+04  0.13985538378E+04  0.10000000000E+02 0. -1.
</event>
<event>
 5    1  0.1279376E-008  0.3813616E+03  0.7957747E-01  0.3445251E+00
         13   -1    0    0    0    0  0.00000000000E+00  0.00000000000E+00  0.14999999963E+04  0.15000000000E+04  0.10566000000E+00 0.  1.
        994   -1    0    0    0    0 -0.00000000000E+00 -0.00000000000E+00  0.11368683772E-12  0.17120000000E+03  0.17120000000E+03 0.  0.
         13    1    1    2    0    0 -0.44657204775E+02 -0.59029314635E+01  0.23879284273E+03  0.24300441034E+03  0.10566000000E+00 0.  1.
        994    1    1    2    0    0  0.50001552441E+02  0.15666499112E+01  0.11821173357E+02  0.17875063574E+03  0.17120000000E+03 0.  0.
        998    1    1    2    0    0 -0.53443476664E+01  0.43362815523E+01  0.12493859802E+04  0.12494449539E+04  0.10000000000E+02 0.  1.
</event>
<event>
 5    1  0.1279376E-008  0.3740281E+03  0.7957747E-01  0.3477581E+00
         13   -1    0    0    0    0  0.00000000000E+00  0.00000000000E+00  0.14999999963E+04  0.15000000000E+04  0.10566000000E+00 0. -1.
        994   -1    0    0    0    0 -0.00000000000E+00 -0.00000000000E+00  0.11368683772E-12  0.17120000000E+03  0.17120000000E+03 0.  0.
         13    1    1    2    0    0 -0.26501216349E+02 -0.12032465091E+03  0.42435575918E+03  0.44188025256E+03  0.10566000000E+00 0. -1.
        994    1    1    2    0    0  0.23890183495E+02  0.11304154302E+03  0.62067235540E+02  0.21566388906E+03  0.17120000000E+03 0.  0.
        998    1    1    2    0    0  0.26110328543E+01  0.72831078926E+01  0.10135770016E+04  0.10136558584E+04  0.10000000000E+02 0. -1.
</event>
<event>
 5    1  0.1279376E-008  0.3808485E+03  0.7957747E-01  0.3447472E+00
         13   -1    0    0    0    0  0.00000000000E+00  0.00000000000E+00  0.14999999963E+04  0.15000000000E+04  0.10566000000E+00 0. -1.
        994   -1    0    0    0    0 -0.00000000000E+00 -0.00000000000E+00  0.11368683772E-12  0.17120000000E+03  0.17120000000E+03 0.  0.
         13    1    1    2    0    0  0.12549051094E+02  0.24732161041E+02  0.11178493705E+03  0.11517396315E+03  0.10566000000E+00 0. -1.
        994    1    1    2    0    0 -0.71601783013E+01  0.14728656945E+01  0.38836255531E+01  0.17140000010E+03  0.17120000000E+03 0.  0.
        998    1    1    2    0    0 -0.53888727922E+01 -0.26205026736E+02  0.13843314337E+04  0.13846260367E+04  0.10000000000E+02 0. -1.
</event>
<event>
 5    1  0.1279376E-008  0.3822354E+03  0.7957747E-01  0.3441482E+00
         13   -1    0    0    0    0  0.00000000000E+00  0.00000000000E+00  0.14999999963E+04  0.15000000000E+04  0.10566000000E+00 0. -1.
        994   -1    0    0    0    0 -0.00000000000E+00 -0.00000000000E+00  0.11368683772E-12  0.17120000000E+03  0.17120000000E+03 0.  0.
         13    1    1    2    0    0  0.31102863690E+02 -0.89739676531E+00  0.14887251179E+03  0.15208954396E+03  0.10566000000E+00 0. -1.
        994    1    1    2    0    0 -0.28486316638E+02 -0.24266303826E+01  0.57259962263E+01  0.17366515426E+03  0.17120000000E+03 0.  0.
        998    1    1    2    0    0 -0.26165470520E+01  0.33240271480E+01  0.13454014883E+04  0.13454453018E+04  0.10000000000E+02 0. -1.
</event>
<event>
 5    1  0.1279376E-008  0.3845992E+03  0.7957747E-01  0.3431374E+00
         13   -1    0    0    0    0  0.00000000000E+00  0.00000000000E+00  0.14999999963E+04  0.15000000000E+04  0.10566000000E+00 0.  1.
        994   -1    0    0    0    0 -0.00000000000E+00 -0.00000000000E+00  0.11368683772E-12  0.17120000000E+03  0.17120000000E+03 0.  0.
         13    1    1    2    0    0  0.77277959709E+01 -0.14684505983E+02  0.94615396247E+02  0.96059554015E+02  0.10566000000E+00 0.  1.
        994    1    1    2    0    0  0.21646514129E+02 -0.10610176728E+02  0.37452575299E+01  0.17292950696E+03  0.17120000000E+03 0.  0.
        998    1    1    2    0    0 -0.29374310100E+02  0.25294682712E+02  0.14016393425E+04  0.14022109390E+04  0.10000000000E+02 0.  1.
</event>
<event>
 5    1  0.1279376E-008  0.3733112E+03  0.7957747E-01  0.3480810E+00
         13   -1    0    0    0    0  0.00000000000E+00  0.00000000000E+00  0.14999999963E+04  0.15000000000E+04  0.10566000000E+00 0. -1.
        994   -1    0    0    0    0 -0.00000000000E+00 -0.00000000000E+00  0.11368683772E-12  0.17120000000E+03  0.17120000000E+03 0.  0.
         13    1    1    2    0    0 -0.89696578953E+02 -0.28852237678E+02  0.55968164045E+03  0.56755746644E+03  0.10566000000E+00 0. -1.
        994    1    1    2    0    0  0.61449258780E+02  0.32532078410E+01  0.20606309326E+02  0.18308646796E+03  0.17120000000E+03 0.  0.
        998    1    1    2    0    0  0.28247320173E+02  0.25599029837E+02  0.91971204650E+03  0.92055606560E+03  0.10000000000E+02 0. -1.
</event>
<event>
 5    1  0.1279376E-008  0.4026793E+03  0.7957747E-01  0.3357987E+00
         13   -1    0    0    0    0  0.00000000000E+00  0.00000000000E+00  0.14999999963E+04  0.15000000000E+04  0.10566000000E+00 0.  1.
        994   -1    0    0    0    0 -0.00000000000E+00 -0.00000000000E+00  0.11368683772E-12  0.17120000000E+03  0.17120000000E+03 0.  0.
         13    1    1    2    0    0 -0.27712044079E+02 -0.81058993835E+01  0.50932322097E+00  0.28877907923E+02  0.10566000000E+00 0.  1.
        994    1    1    2    0    0  0.64431574608E+02  0.36512692092E+02  0.51442165926E+02  0.19349506693E+03  0.17120000000E+03 0.  0.
        998    1    1    2    0    0 -0.36719530529E+02 -0.28406792709E+02  0.14480485071E+04  0.14488270251E+04  0.10000000000E+02 0.  1.
</event>
<event>
 5    1  0.1279376E-008  0.3814201E+03  0.7957747E-01  0.3444998E+00
         13   -1    0    0    0    0  0.00000000000E+00  0.00000000000E+00  0.14999999963E+04  0.15000000000E+04  0.10566000000E+00 0. -1.
        994   -1    0    0    0    0 -0.00000000000E+00 -0.00000000000E+00  0.11368683772E-12  0.17120000000E+03  0.17120000000E+03 0.  0.
         13    1    1    2    0    0 -0.21389714299E+01  0.10813054912E+02  0.16541304327E+02  0.19877707820E+02  0.10566000000E+00 0. -1.
        994    1    1    2    0    0 -0.19832655890E+01 -0.41252889751E+01  0.34877233680E+01  0.17129668872E+03  0.17120000000E+03 0.  0.
        998    1    1    2    0    0  0.41222370189E+01 -0.66877659371E+01  0.14799709686E+04  0.14800256035E+04  0.10000000000E+02 0. -1.
</event>
<event>
 5    1  0.1279376E-008  0.3741138E+03  0.7957747E-01  0.3477196E+00
         13   -1    0    0    0    0  0.00000000000E+00  0.00000000000E+00  0.14999999963E+04  0.15000000000E+04  0.10566000000E+00 0.  1.
        994   -1    0    0    0    0 -0.00000000000E+00 -0.00000000000E+00  0.11368683772E-12  0.17120000000E+03  0.17120000000E+03 0.  0.
         13    1    1    2    0    0  0.20664630355E+02 -0.11338399552E+03  0.53826943555E+03  0.55046975738E+03  0.10566000000E+00 0.  1.
        994    1    1    2    0    0 -0.23168281761E+02  0.11869595545E+03  0.58762589961E+02  0.21768780650E+03  0.17120000000E+03 0.  0.
        998    1    1    2    0    0  0.25036514058E+01 -0.53119599226E+01  0.90296797077E+03  0.90304243612E+03  0.10000000000E+02 0.  1.
</event>
<event>
 5    1  0.1279376E-008  0.3737473E+03  0.7957747E-01  0.3478844E+00
         13   -1    0    0    0    0  0.00000000000E+00  0.00000000000E+00  0.14999999963E+04  0.15000000000E+04  0.10566000000E+00 0.  1.
        994   -1    0    0    0    0 -0.00000000000E+00 -0.00000000000E+00  0.11368683772E-12  0.17120000000E+03  0.17120000000E+03 0.  0.
         13    1    1    2    0    0 -0.15631934463E+02 -0.17942926878E+02  0.32195163707E+02  0.40035555825E+02  0.10566000000E+00 0.  1.
        994    1    1    2    0    0  0.52508403691E+02  0.25200448138E+02  0.18992882784E+02  0.18183059325E+03  0.17120000000E+03 0.  0.
        998    1    1    2    0    0 -0.36876469227E+02 -0.72575212594E+01  0.14488119498E+04  0.14493338509E+04  0.10000000000E+02 0.  1.
</event>
<event>
 5    1  0.1279376E-008  0.3808574E+03  0.7957747E-01  0.3447434E+00
         13   -1    0    0    0    0  0.00000000000E+00  0.00000000000E+00  0.14999999963E+04  0.15000000000E+04  0.10566000000E+00 0. -1.
        994   -1    0    0    0    0 -0.00000000000E+00 -0.00000000000E+00  0.11368683772E-12  0.17120000000E+03  0.17120000000E+03 0.  0.
         13    1    1    2    0    0 -0.33817639299E+02 -0.25028042467E+02  0.21108862446E+03  0.21524045665E+03  0.10566000000E+00 0. -1.
        994    1    1    2    0    0  0.30598288309E+02  0.24944251047E+02  0.89135664460E+01  0.17591862487E+03  0.17120000000E+03 0.  0.
        998    1    1    2    0    0  0.32193509902E+01  0.83791419810E-01  0.12799978054E+04  0.12800409185E+04  0.10000000000E+02 0.  0.
</event>
<event>
 5    1  0.1279376E-008  0.3857574E+03  0.7957747E-01  0.3426466E+00
         13   -1    0    0    0    0  0.00000000000E+00  0.00000000000E+00  0.14999999963E+04  0.15000000000E+04  0.10566000000E+00 0.  1.
        994   -1    0    0    0    0 -0.00000000000E+00 -0.00000000000E+00  0.11368683772E-12  0.17120000000E+03  0.17120000000E+03 0.  0.
         13    1    1    2    0    0  0.65756539582E+01 -0.89994998497E+01  0.55920619128E+02  0.57020671955E+02  0.10566000000E+00 0.  1.
        994    1    1    2    0    0  0.87583135255E+01 -0.50063947686E+01  0.15885271964E+01  0.17150433074E+03  0.17120000000E+03 0.  0.
        998    1    1    2    0    0 -0.15333967484E+02  0.14005894618E+02  0.14424908500E+04  0.14426749973E+04  0.10000000000E+02 0.  1.
</event>
<event>
 5    1  0.1279376E-008  0.3764677E+03  0.7957747E-01  0.3466685E+00
         13   -1    0    0    0    0  0.00000000000E+00  0.00000000000E+00  0.14999999963E+04  0.15000000000E+04  0.10566000000E+00 0. -1.
        994   -1    0    0    0    0 -0.00000000000E+00 -0.00000000000E+00  0.11368683772E-12  0.17120000000E+03  0.17120000000E+03 0.  0.
         13    1    1    2    0    0 -0.10026375802E+02  0.45334696037E+02  0.20416043575E+03  0.20937348821E+03  0.10566000000E+00 0. -1.
        994    1    1    2    0    0  0.26097678489E+01 -0.69701613580E+01  0.61143417098E+01  0.17147075323E+03  0.17120000000E+03 0.  0.
        998    1    1    2    0    0  0.74166079526E+01 -0.38364534679E+02  0.12897252188E+04  0.12903557586E+04  0.10000000000E+02 0. -1.
</event>
<event>
 5    1  0.1279376E-008  0.3819980E+03  0.7957747E-01  0.3442505E+00
         13   -1    0    0    0    0  0.00000000000E+00  0.00000000000E+00  0.14999999963E+04  0.15000000000E+04  0.10566000000E+00 0. -1.
        994   -1    0    0    0    0 -0.00000000000E+00 -0.00000000000E+00  0.11368683772E-12  0.17120000000E+03  0.17120000000E+03 0.  0.
         13    1    1    2    0    0 -0.58427806023E+01  0.33000405296E+02  0.15793444587E+03  0.16145112322E+03  0.10566000000E+00 0. -1.
        994    1    1    2    0    0  0.42969243225E+01 -0.36473010499E+02  0.76200746265E+01  0.17526051920E+03  0.17120000000E+03 0.  0.
        998    1    1    2    0    0  0.15458562798E+01  0.34726052036E+01  0.13344454758E+04  0.13344883576E+04  0.10000000000E+02 0. -1.
</event>
<event>
 5    1  0.1279376E-008  0.3840843E+03  0.7957747E-01  0.3433565E+00
         13   -1    0    0    0    0  0.00000000000E+00  0.00000000000E+00  0.14999999963E+04  0.15000000000E+04  0.10566000000E+00 0. -1.
        994   -1    0    0    0    0 -0.00000000000E+00 -0.00000000000E+00  0.11368683772E-12  0.17120000000E+03  0.17120000000E+03 0.  0.
         13    1    1    2    0    0 -0.99546657096E+01  0.22185626988E+02  0.12862870162E+03  0.13090703364E+03  0.10566000000E+00 0. -1.
        994    1    1    2    0    0  0.33659384733E+02 -0.15439496283E+02  0.66218828733E+01  0.17528440193E+03  0.17120000000E+03 0.  0.
        998    1    1    2    0    0 -0.23704719023E+02 -0.67461307043E+01  0.13647494118E+04  0.13650085644E+04  0.10000000000E+02 0. -1.
</event>
<event>
 5    1  0.1279376E-008  0.3836910E+03  0.7957747E-01  0.3435243E+00
         13   -1    0    0    0    0  0.00000000000E+00  0.00000000000E+00  0.14999999963E+04  0.15000000000E+04  0.10566000000E+00 0. -1.
        994   -1    0    0    0    0 -0.00000000000E+00 -0.00000000000E+00  0.11368683772E-12  0.17120000000E+03  0.17120000000E+03 0.  0.
         13    1    1    2    0    0 -0.21443640176E+02 -0.22277121351E+01  0.10745535184E+03  0.10959678922E+03  0.10566000000E+00 0. -1.
        994    1    1    2    0    0  0.59263028845E+01 -0.70238826788E+01  0.25603999605E+01  0.17146559900E+03  0.17120000000E+03 0.  0.
        998    1    1    2    0    0  0.15517337291E+02  0.92515948139E+01  0.13899842445E+04  0.13901376118E+04  0.10000000000E+02 0. -1.
</event>
<event>
 5    1  0.1279376E-008  0.3789128E+03  0.7957747E-01  0.3455906E+00
         13   -1    0    0    0    0  0.00000000000E+00  0.00000000000E+00  0.14999999963E+04  0.15000000000E+04  0.10566000000E+00 0.  1.
        994   -1    0    0    0    0 -0.00000000000E+00 -0.00000000000E+00  0.11368683772E-12  0.17120000000E+03  0.17120000000E+03 0.  0.
         13    1    1    2    0    0 -0.86168653919E+01 -0.86175873135E+01  0.13811591042E+02  0.18419674031E+02  0.10566000000E+00 0.  1.
        994    1    1    2    0    0  0.11805739436E+02  0.59880363509E+00  0.51519124432E+01  0.17168493309E+03  0.17120000000E+03 0.  0.
        998    1    1    2    0    0 -0.31888740439E+01  0.80187836784E+01  0.14810364928E+04  0.14810953929E+04  0.10000000000E+02 0.  1.
</event>
<event>
 5    1  0.1279376E-008  0.3835844E+03  0.7957747E-01  0.3435698E+00
         13   -1    0    0    0    0  0.00000000000E+00  0.00000000000E+00  0.14999999963E+04  0.15000000000E+04  0.10566000000E+00 0. -1.
        994   -1    0    0    0    0 -0.00000000000E+00 -0.00000000000E+00  0.11368683772E-12  0.17120000000E+03  0.17120000000E+03 0.  0.
         13    1    1    2    0    0 -0.98821526853E+01  0.16095052950E+02  0.70120515221E+02  0.72619594395E+02  0.10566000000E+00 0. -1.
        994    1    1    2    0    0  0.19041213211E+02 -0.19239440976E+02  0.47591391952E+01  0.17339207968E+03  0.17120000000E+03 0.  0.
        998    1    1    2    0    0 -0.91590605253E+01  0.31443880265E+01  0.14251203419E+04  0.14251883259E+04  0.10000000000E+02 0. -1.
</event>
<event>
 5    1  0.1279376E-008  0.3818137E+03  0.7957747E-01  0.3443299E+00
         13   -1    0    0    0    0  0.00000000000E+00  0.00000000000E+00  0.14999999963E+04  0.15000000000E+04  0.10566000000E+00 0.  1.
        994   -1    0    0    0    0 -0.00000000000E+00 -0.00000000000E+00  0.11368683772E-12  0.17120000000E+03  0.17120000000E+03 0.  0.
         13    1    1    2    0    0 -0.14526878281E+02 -0.21702440314E+02  0.99066756605E+02  0.10245125444E+03  0.10566000000E+00 0.  1.
        994    1    1    2    0    0 -0.35911167565E+01  0.34232107030E+02  0.71672650341E+01  0.17477283244E+03  0.17120000000E+03 0.  0.
        998    1    1    2    0    0  0.18117995038E+02 -0.12529666715E+02  0.13937659746E+04  0.13939759131E+04  0.10000000000E+02 0.  1.
</event>
<event>
 5    1  0.1279376E-008  0.3853644E+03  0.7957747E-01  0.3428128E+00
         13   -1    0    0    0    0  0.00000000000E+00  0.00000000000E+00  0.14999999963E+04  0.15000000000E+04  0.10566000000E+00 0. -1.
        994   -1    0    0    0    0 -0.00000000000E+00 -0.00000000000E+00  0.11368683772E-12  0.17120000000E+03  0.17120000000E+03 0.  0.
         13    1    1    2    0    0  0.45619510326E+01  0.96795166435E+01  0.39573871487E+02  0.40995205917E+02  0.10566000000E+00 0. -1.
        994    1    1    2    0    0 -0.13998127178E+02 -0.13707879198E+01  0.20994338190E+01  0.17178962206E+03  0.17120000000E+03 0.  0.
        998    1    1    2    0    0  0.94361761449E+01 -0.83087287237E+01  0.14583266910E+04  0.14584151720E+04  0.10000000000E+02 0. -1.
</event>
<event>
 5    1  0.1279376E-008  0.3824418E+03  0.7957747E-01  0.3440595E+00
         13   -1    0    0    0    0  0.00000000000E+00  0.00000000000E+00  0.14999999963E+04  0.15000000000E+04  0.10566000000E+00 0.  1.
        994   -1    0    0    0    0 -0.00000000000E+00 -0.00000000000E+00  0.11368683772E-12  0.17120000000E+03  0.17120000000E+03 0.  0.
         13    1    1    2    0    0 -0.22565056752E+02  0.16000505797E+02  0.14278830336E+03  0.14544314598E+03  0.10566000000E+00 0.  1.
        994    1    1    2    0    0  0.87737663295E+01  0.42342598708E+01  0.32203757061E+01  0.17150719738E+03  0.17120000000E+03 0.  0.
        998    1    1    2    0    0  0.13791290423E+02 -0.20234765668E+02  0.13539913172E+04  0.13542496566E+04  0.10000000000E+02 0.  1.
</event>
<event>
 5    1  0.1279376E-008  0.4194201E+03  0.7957747E-01  0.3295640E+00
         13   -1    0    0    0    0  0.00000000000E+00  0.00000000000E+00  0.14999999963E+04  0.15000000000E+04  0.10566000000E+00 0.  1.
        994   -1    0    0    0    0 -0.00000000000E+00 -0.00000000000E+00  0.11368683772E-12  0.17120000000E+03  0.17120000000E+03 0.  0.
         13    1    1    2    0    0 -0.11988833093E+03  0.11629345686E+01  0.16522564569E+03  0.20414232650E+03  0.10566000000E+00 0.  1.
        994    1    1    2    0    0  0.92807207688E+02 -0.16797120446E+02  0.78947812397E+02  0.21080208286E+03  0.17120000000E+03 0.  0.
        998    1    1    2    0    0  0.27081123243E+02  0.15634185878E+02  0.12558265382E+04  0.12562555906E+04  0.10000000000E+02 0.  1.
</event>
<event>
 5    1  0.1279376E-008  0.3855886E+03  0.7957747E-01  0.3427180E+00
         13   -1    0    0    0    0  0.00000000000E+00  0.00000000000E+00  0.14999999963E+04  0.15000000000E+04  0.10566000000E+00 0. -1.
        994   -1    0    0    0    0 -0.00000000000E+00 -0.00000000000E+00  0.11368683772E-12  0.17120000000E+03  0.17120000000E+03 0.  0.
         13    1    1    2    0    0  0.17095962941E+02  0.11205906393E+03  0.31955889862E+03  0.33906843941E+03  0.10566000000E+00 0. -1.
        994    1    1    2    0    0  0.10378212380E+02 -0.74430878577E+02  0.40639028561E+02  0.19133382769E+03  0.17120000000E+03 0.  0.
        998    1    1    2    0    0 -0.27474175321E+02 -0.37628185354E+02  0.11398020691E+04  0.11407977329E+04  0.10000000000E+02 0. -1.
</event>
<event>
 5    1  0.1279376E-008  0.3711630E+03  0.7957747E-01  0.3490563E+00
         13   -1    0    0    0    0  0.00000000000E+00  0.00000000000E+00  0.14999999963E+04  0.15000000000E+04  0.10566000000E+00 0.  1.
        994   -1    0    0    0    0 -0.00000000000E+00 -0.00000000000E+00  0.11368683772E-12  0.17120000000E+03  0.17120000000E+03 0.  0.
         13    1    1    2    0    0  0.68391113250E+01 -0.11411788156E+02  0.63141379529E+01  0.14726909206E+02  0.10566000000E+00 0.  1.
        994    1    1    2    0    0 -0.14714901438E+01  0.71490476825E+01  0.88459582322E+01  0.17158369719E+03  0.17120000000E+03 0.  0.
        998    1    1    2    0    0 -0.53676211813E+01  0.42627404736E+01  0.14848399001E+04  0.14848893936E+04  0.10000000000E+02 0.  1.
</event>
<event>
 5    1  0.1279376E-008  0.3719968E+03  0.7957747E-01  0.3486764E+00
         13   -1    0    0    0    0  0.00000000000E+00  0.00000000000E+00  0.14999999963E+04  0.15000000000E+04  0.10566000000E+00 0.  1.
        994   -1    0    0    0    0 -0.00000000000E+00 -0.00000000000E+00  0.11368683772E-12  0.17120000000E+03  0.17120000000E+03 0.  0.
         13    1    1    2    0    0  0.27981800008E+02 -0.85559058148E+01  0.30487409132E+02  0.42257282634E+02  0.10566000000E+00 0.  1.
        994    1    1    2    0    0 -0.25163723079E+02  0.41512281681E+01  0.14291900366E+02  0.17367827749E+03  0.17120000000E+03 0.  0.
        998    1    1    2    0    0 -0.28180769289E+01  0.44046776467E+01  0.14552206868E+04  0.14552644399E+04  0.10000000000E+02 0.  1.
</event>
<event>
 5    1  0.1279376E-008  0.3820424E+03  0.7957747E-01  0.3442314E+00
         13   -1    0    0    0    0  0.00000000000E+00  0.00000000000E+00  0.14999999963E+04  0.15000000000E+04  0.10566000000E+00 0. -1.
        994   -1    0    0    0    0 -0.00000000000E+00 -0.00000000000E+00  0.11368683772E-12  0.17120000000E+03  0.17120000000E+03 0.  0.
         13    1    1    2    0    0 -0.23322451571E+02 -0.99368495909E+01  0.10991142730E+03  0.11279721070E+03  0.10566000000E+00 0. -1.
        994    1    1    2    0    0  0.40298368668E+01  0.11942338503E+01  0.31643744174E+01  0.17128081926E+03  0.17120000000E+03 0.  0.
        998    1    1    2    0    0  0.19292614704E+02  0.87426157407E+01  0.13869241946E+04  0.13871219700E+04  0.10000000000E+02 0. -1.
</event>
<event>
 5    1  0.1339091E-008  0.3855323E+03  0.7957747E-01  0.3427418E+00
         13   -1    0    0    0    0  0.00000000000E+00  0.00000000000E+00  0.14999999963E+04  0.15000000000E+04  0.10566000000E+00 0. -1.
        994   -1    0    0    0    0 -0.00000000000E+00 -0.00000000000E+00  0.11368683772E-12  0.17120000000E+03  0.17120000000E+03 0.  0.
         13    1    1    2    0    0 -0.14021673082E+02  0.39852505972E+01  0.76883107398E+02  0.78252877938E+02  0.10566000000E+00 0. -1.
        994    1    1    2    0    0  0.95869428992E+01 -0.97635627003E+01  0.19810055660E+01  0.17175738998E+03  0.17120000000E+03 0.  0.
        998    1    1    2    0    0  0.44347301826E+01  0.57783121032E+01  0.14211358833E+04  0.14211897321E+04  0.10000000000E+02 0. -1.
</event>
<event>
 5    1  0.1736216E-008  0.3856865E+03  0.7957747E-01  0.3426766E+00
         13   -1    0    0    0    0  0.00000000000E+00  0.00000000000E+00  0.14999999963E+04  0.15000000000E+04  0.10566000000E+00 0.  1.
        994   -1    0    0    0    0 -0.00000000000E+00 -0.00000000000E+00  0.11368683772E-12  0.17120000000E+03  0.17120000000E+03 0.  0.
         13    1    1    2    0    0 -0.41957973195E+01  0.13076737881E+02  0.75027666975E+02  0.76274292946E+02  0.10566000000E+00 0.  1.
        994    1    1    2    0    0  0.88407358867E+00 -0.66665297040E+01  0.14380943904E+01  0.17133806442E+03  0.17120000000E+03 0.  0.
        998    1    1    2    0    0  0.33117237308E+01 -0.64102081765E+01  0.14235342349E+04  0.14235876426E+04  0.10000000000E+02 0.  1.
</event>
<event>
 5    1  0.1279376E-008  0.3796728E+03  0.7957747E-01  0.3452584E+00
         13   -1    0    0    0    0  0.00000000000E+00  0.00000000000E+00  0.14999999963E+04  0.15000000000E+04  0.10566000000E+00 0.  1.
        994   -1    0    0    0    0 -0.00000000000E+00 -0.00000000000E+00  0.11368683772E-12  0.17120000000E+03  0.17120000000E+03 0.  0.
         13    1    1    2    0    0  0.19939679926E+02 -0.29302752954E+01  0.43263595337E+02  0.47727635542E+02  0.10566000000E+00 0.  1.
        994    1    1    2    0    0 -0.29308369836E+02 -0.38059726577E+01  0.72269910545E+01  0.17388253325E+03  0.17120000000E+03 0.  0.
        998    1    1    2    0    0  0.93686899094E+01  0.67362479531E+01  0.14495094099E+04  0.14495898312E+04  0.10000000000E+02 0.  1.
</event>
<event>
 5    1  0.1279376E-008  0.3860267E+03  0.7957747E-01  0.3425330E+00
         13   -1    0    0    0    0  0.00000000000E+00  0.00000000000E+00  0.14999999963E+04  0.15000000000E+04  0.10566000000E+00 0.  1.
        994   -1    0    0    0    0 -0.00000000000E+00 -0.00000000000E+00  0.11368683772E-12  0.17120000000E+03  0.17120000000E+03 0.  0.
         13    1    1    2    0    0  0.46129979722E+01  0.10884666079E+02  0.67399552177E+02  0.68428550355E+02  0.10566000000E+00 0.  1.
        994    1    1    2    0    0 -0.65747490046E+01  0.33279869670E+01  0.12992800526E+01  0.17136344695E+03  0.17120000000E+03 0.  0.
        998    1    1    2    0    0  0.19617510324E+01 -0.14212653046E+02  0.14313011640E+04  0.14314080027E+04  0.10000000000E+02 0.  1.
</event>
<event>
 5    1  0.1279376E-008  0.3716364E+03  0.7957747E-01  0.3488404E+00
         13   -1    0    0    0    0  0.00000000000E+00  0.00000000000E+00  0.14999999963E+04  0.15000000000E+04  0.10566000000E+00 0. -1.
        994   -1    0    0    0    0 -0.00000000000E+00 -0.00000000000E+00  0.11368683772E-12  0.17120000000E+03  0.17120000000E+03 0.  0.
         13    1    1    2    0    0 -0.11424903790E+03 -0.72743455900E+02  0.50206979941E+03  0.52001783400E+03  0.10566000000E+00 0. -1.
        994    1    1    2    0    0  0.10711891702E+03  0.78520580906E+02  0.76701096338E+02  0.22985308827E+03  0.17120000000E+03 0.  0.
        998    1    1    2    0    0  0.71301208865E+01 -0.57771250057E+01  0.92122910053E+03  0.92132907773E+03  0.10000000000E+02 0. -1.
</event>
<event>
 5    1  0.1279376E-008  0.3808415E+03  0.7957747E-01  0.3447503E+00
         13   -1    0    0    0    0  0.00000000000E+00  0.00000000000E+00  0.14999999963E+04  0.15000000000E+04  0.10566000000E+00 0.  1.
        994   -1    0    0    0    0 -0.00000000000E+00 -0.00000000000E+00  0.11368683772E-12  0.17120000000E+03  0.17120000000E+03 0.  0.
         13    1    1    2    0    0 -0.30473719263E+02  0.20734921756E+02  0.20452566649E+03  0.20782046089E+03  0.10566000000E+00 0.  1.
        994    1    1    2    0    0  0.12638221903E+02  0.61351782008E+01  0.43671943338E+01  0.17183095603E+03  0.17120000000E+03 0.  0.
        998    1    1    2    0    0  0.17835497360E+02 -0.26870099956E+02  0.12911071355E+04  0.12915485831E+04  0.10000000000E+02 0.  1.
</event>
<event>
 5    1  0.1279376E-008  0.3754523E+03  0.7957747E-01  0.3471202E+00
         13   -1    0    0    0    0  0.00000000000E+00  0.00000000000E+00  0.14999999963E+04  0.15000000000E+04  0.10566000000E+00 0. -1.
        994   -1    0    0    0    0 -0.00000000000E+00 -0.00000000000E+00  0.11368683772E-12  0.17120000000E+03  0.17120000000E+03 0.  0.
         13    1    1    2    0    0  0.30941171002E+01  0.52295296574E+02  0.25591840230E+03  0.26122521204E+03  0.10566000000E+00 0. -1.
        994    1    1    2    0    0 -0.16589159886E+01 -0.29994769954E+01  0.64865142387E+01  0.17135712338E+03  0.17120000000E+03 0.  0.
        998    1    1    2    0    0 -0.14352011116E+01 -0.49295819578E+02  0.12375950797E+04  0.12386176646E+04  0.10000000000E+02 0. -1.
</event>
<event>
 5    1  0.1279376E-008  0.3822122E+03  0.7957747E-01  0.3441582E+00
         13   -1    0    0    0    0  0.00000000000E+00  0.00000000000E+00  0.14999999963E+04  0.15000000000E+04  0.10566000000E+00 0.  1.
        994   -1    0    0    0    0 -0.00000000000E+00 -0.00000000000E+00  0.11368683772E-12  0.17120000000E+03  0.17120000000E+03 0.  0.
         13    1    1    2    0    0  0.12997525391E+02  0.14753014720E+02  0.61956531307E+02  0.65001615712E+02  0.10566000000E+00 0.  1.
        994    1    1    2    0    0 -0.95405086073E+01 -0.13277279650E+02  0.39081866183E+01  0.17202331639E+03  0.17120000000E+03 0.  0.
        998    1    1    2    0    0 -0.34570167836E+01 -0.14757350700E+01  0.14341352784E+04  0.14341750679E+04  0.10000000000E+02 0.  1.
</event>
<event>
 5    1  0.1279376E-008  0.3757783E+03  0.7957747E-01  0.3469749E+00
         13   -1    0    0    0    0  0.00000000000E+00  0.00000000000E+00  0.14999999963E+04  0.15000000000E+04  0.10566000000E+00 0.  1.
        994   -1    0    0    0    0 -0.00000000000E+00 -0.00000000000E+00  0.11368683772E-12  0.17120000000E+03  0.17120000000E+03 0.  0.
         13    1    1    2    0    0 -0.40325243061E+02 -0.34536333235E+02  0.20942013381E+03  0.21604556730E+03  0.10566000000E+00 0.  1.
        994    1    1    2    0    0  0.24491174578E+02  0.33424191867E+02  0.12122977743E+02  0.17655990718E+03  0.17120000000E+03 0.  0.
        998    1    1    2    0    0  0.15834068483E+02  0.11121413676E+01  0.12784568847E+04  0.12785945255E+04  0.10000000000E+02 0.  1.
</event>
<event>
 5    1  0.1279376E-008  0.3800681E+03  0.7957747E-01  0.3450862E+00
         13   -1    0    0    0    0  0.00000000000E+00  0.00000000000E+00  0.14999999963E+04  0.15000000000E+04  0.10566000000E+00 0.  1.
        994   -1    0    0    0    0 -0.00000000000E+00 -0.00000000000E+00  0.11368683772E-12  0.17120000000E+03  0.17120000000E+03 0.  0.
         13    1    1    2    0    0 -0.55401566966E+01  0.27267230922E+02  0.95911445523E+02  0.99865969002E+02  0.10566000000E+00 0.  1.
        994    1    1    2    0    0 -0.24858840566E+01 -0.11758019383E+02  0.45816345702E+01  0.17168244527E+03  0.17120000000E+03 0.  0.
        998    1    1    2    0    0  0.80260407532E+01 -0.15509211539E+02  0.13995069162E+04  0.13996515857E+04  0.10000000000E+02 0.  1.
</event>
<event>
 5    1  0.1279376E-008  0.3751857E+03  0.7957747E-01  0.3472393E+00
         13   -1    0    0    0    0  0.00000000000E+00  0.00000000000E+00  0.14999999963E+04  0.15000000000E+04  0.10566000000E+00 0. -1.
        994   -1    0    0    0    0 -0.00000000000E+00 -0.00000000000E+00  0.11368683772E-12  0.17120000000E+03  0.17120000000E+03 0.  0.
         13    1    1    2    0    0 -0.93767182406E+02 -0.85573136567E+02  0.66433972144E+03  0.67635961059E+03  0.10566000000E+00 0. -1.
        994    1    1    2    0    0  0.89394528447E+02  0.87363855885E+02  0.61659242680E+02  0.22076033892E+03  0.17120000000E+03 0.  0.
        998    1    1    2    0    0  0.43726539595E+01 -0.17907193181E+01  0.77400103216E+03  0.77408005049E+03  0.10000000000E+02 0.  0.
</event>
<event>
 5    1  0.1319102E-008  0.3855929E+03  0.7957747E-01  0.3427161E+00
         13   -1    0    0    0    0  0.00000000000E+00  0.00000000000E+00  0.14999999963E+04  0.15000000000E+04  0.10566000000E+00 0.  1.
        994   -1    0    0    0    0 -0.00000000000E+00 -0.00000000000E+00  0.11368683772E-12  0.17120000000E+03  0.17120000000E+03 0.  0.
         13    1    1    2    0    0 -0.12879694072E+02  0.32452103527E+01  0.67521509115E+02  0.68815574304E+02  0.10566000000E+00 0.  1.
        994    1    1    2    0    0  0.70520116230E+01  0.13207793741E+01  0.15050334186E+01  0.17135688037E+03  0.17120000000E+03 0.  0.
        998    1    1    2    0    0  0.58276824493E+01 -0.45659897268E+01  0.14309734537E+04  0.14310275453E+04  0.10000000000E+02 0.  1.
</event>
<event>
 5    1  0.1279376E-008  0.3850641E+03  0.7957747E-01  0.3429400E+00
         13   -1    0    0    0    0  0.00000000000E+00  0.00000000000E+00  0.14999999963E+04  0.15000000000E+04  0.10566000000E+00 0.  1.
        994   -1    0    0    0    0 -0.00000000000E+00 -0.00000000000E+00  0.11368683772E-12  0.17120000000E+03  0.17120000000E+03 0.  0.
         13    1    1    2    0    0  0.17898163854E+01  0.13632498524E+02  0.58516725623E+02  0.60110455000E+02  0.10566000000E+00 0.  1.
        994    1    1    2    0    0 -0.54584720285E+01 -0.10340527593E+02  0.20479592925E+01  0.17161105898E+03  0.17120000000E+03 0.  0.
        998    1    1    2    0    0  0.36686556430E+01 -0.32919709310E+01  0.14394353114E+04  0.14394784860E+04  0.10000000000E+02 0.  1.
</event>
<event>
 5    1  0.2097351E-008  0.3862986E+03  0.7957747E-01  0.3424183E+00
         13   -1    0    0    0    0  0.00000000000E+00  0.00000000000E+00  0.14999999963E+04  0.15000000000E+04  0.10566000000E+00 0.  1.
        994   -1    0    0    0    0 -0.00000000000E+00 -0.00000000000E+00  0.11368683772E-12  0.17120000000E+03  0.17120000000E+03 0.  0.
         13    1    1    2    0    0 -0.36296352520E+01  0.10616578708E+02  0.63650254662E+02  0.64631664670E+02  0.10566000000E+00 0.  1.
        994    1    1    2    0    0  0.12064714017E+00 -0.10444049757E+02  0.13441321205E+01  0.17152358270E+03  0.17120000000E+03 0.  0.
        998    1    1    2    0    0  0.35089881119E+01 -0.17252895139E+00  0.14350056095E+04  0.14350447526E+04  0.10000000000E+02 0.  1.
</event>
<event>
 5    1  0.1279376E-008  0.3858666E+03  0.7957747E-01  0.3426005E+00
         13   -1    0    0    0    0  0.00000000000E+00  0.00000000000E+00  0.14999999963E+04  0.15000000000E+04  0.10566000000E+00 0. -1.
        994   -1    0    0    0    0 -0.00000000000E+00 -0.00000000000E+00  0.11368683772E-12  0.17120000000E+03  0.17120000000E+03 0.  0.
         13    1    1    2    0    0  0.42350439259E+01  0.28112930651E+02  0.11484479707E+02  0.30662304300E+02  0.10566000000E+00 0. -1.
        994    1    1    2    0    0 -0.64718740942E+02 -0.32130265496E+02  0.39190386076E+02  0.18991102061E+03  0.17120000000E+03 0.  0.
        998    1    1    2    0    0  0.60483697016E+02  0.40173348448E+01  0.14493251305E+04  0.14506266751E+04  0.10000000000E+02 0. -1.
</event>
<event>
 5    1  0.1279376E-008  0.3842034E+03  0.7957747E-01  0.3433058E+00
         13   -1    0    0    0    0  0.00000000000E+00  0.00000000000E+00  0.14999999963E+04  0.15000000000E+04  0.10566000000E+00 0. -1.
        994   -1    0    0    0    0 -0.00000000000E+00 -0.00000000000E+00  0.11368683772E-12  0.17120000000E+03  0.17120000000E+03 0.  0.
         13    1    1    2    0    0  0.81113762874E+01 -0.90398280732E+01  0.35824571027E+02  0.37827555700E+02  0.10566000000E+00 0. -1.
        994    1    1    2    0    0 -0.28968376132E+01  0.93505038668E+01  0.23421418823E+01  0.17149562449E+03  0.17120000000E+03 0.  0.
        998    1    1    2    0    0 -0.52145386742E+01 -0.31067579368E+00  0.14618332834E+04  0.14618768198E+04  0.10000000000E+02 0. -1.
</event>
<event>
 5    1  0.1279376E-008  0.3984845E+03  0.7957747E-01  0.3374422E+00
         13   -1    0    0    0    0  0.00000000000E+00  0.00000000000E+00  0.14999999963E+04  0.15000000000E+04  0.10566000000E+00 0.  1.
        994   -1    0    0    0    0 -0.00000000000E+00 -0.00000000000E+00  0.11368683772E-12  0.17120000000E+03  0.17120000000E+03 0.  0.
         13    1    1    2    0    0  0.12884631533E+03 -0.32073757686E+02  0.34303515862E+03  0.36783587389E+03  0.10566000000E+00 0.  1.
        994    1    1    2    0    0 -0.64687299201E+02  0.24820594423E+02  0.45803858087E+02  0.19028384588E+03  0.17120000000E+03 0.  0.
        998    1    1    2    0    0 -0.64159016127E+02  0.72531632632E+01  0.11111609796E+04  0.11130802802E+04  0.10000000000E+02 0.  1.
</event>
<event>
 5    1  0.1279376E-008  0.3858889E+03  0.7957747E-01  0.3425911E+00
         13   -1    0    0    0    0  0.00000000000E+00  0.00000000000E+00  0.14999999963E+04  0.15000000000E+04  0.10566000000E+00 0. -1.
        994   -1    0    0    0    0 -0.00000000000E+00 -0.00000000000E+00  0.11368683772E-12  0.17120000000E+03  0.17120000000E+03 0.  0.
         13    1    1    2    0    0 -0.82718360201E+01 -0.93271598102E+01  0.62593260027E+02  0.63822774509E+02  0.10566000000E+00 0. -1.
        994    1    1    2    0    0  0.79429908447E+01  0.13931471947E+02  0.20332481559E+01  0.17196148148E+03  0.17120000000E+03 0.  0.
        998    1    1    2    0    0  0.32884517549E+00 -0.46043121366E+01  0.14353734881E+04  0.14354157440E+04  0.10000000000E+02 0. -1.
</event>
<event>
 5    1  0.1279376E-008  0.3792899E+03  0.7957747E-01  0.3454256E+00
         13   -1    0    0    0    0  0.00000000000E+00  0.00000000000E+00  0.14999999963E+04  0.15000000000E+04  0.10566000000E+00 0. -1.
        994   -1    0    0    0    0 -0.00000000000E+00 -0.00000000000E+00  0.11368683772E-12  0.17120000000E+03  0.17120000000E+03 0.  0.
         13    1    1    2    0    0 -0.41298094165E+01  0.10594834249E+02  0.12446833446E+02  0.16859438467E+02  0.10566000000E+00 0. -1.
        994    1    1    2    0    0  0.26619449477E+01 -0.68646008284E+01  0.46737085389E+01  0.17142197131E+03  0.17120000000E+03 0.  0.
        998    1    1    2    0    0  0.14678644688E+01 -0.37302334204E+01  0.14828794543E+04  0.14829185902E+04  0.10000000000E+02 0. -1.
</event>
<event>
 5    1  0.1279376E-008  0.3857133E+03  0.7957747E-01  0.3426652E+00
         13   -1    0    0    0    0  0.00000000000E+00  0.00000000000E+00  0.14999999963E+04  0.15000000000E+04  0.10566000000E+00 0. -1.
        994   -1    0    0    0    0 -0.00000000000E+00 -0.00000000000E+00  0.11368683772E-12  0.17120000000E+03  0.17120000000E+03 0.  0.
         13    1    1    2    0    0  0.26062642307E+01 -0.12702977479E+02  0.70700190334E+02  0.71879665604E+02  0.10566000000E+00 0. -1.
        994    1    1    2    0    0 -0.52624372665E+01 -0.83964481691E+00  0.13695679682E+01  0.17128839414E+03  0.17120000000E+03 0.  0.
        998    1    1    2    0    0  0.26561730358E+01  0.13542622296E+02  0.14279302380E+04  0.14280319403E+04  0.10000000000E+02 0. -1.
</event>
<event>
 5    1  0.1279376E-008  0.3845549E+03  0.7957747E-01  0.3431562E+00
         13   -1    0    0    0    0  0.00000000000E+00  0.00000000000E+00  0.14999999963E+04  0.15000000000E+04  0.10566000000E+00 0. -1.
        994   -1    0    0    0    0 -0.00000000000E+00 -0.00000000000E+00  0.11368683772E-12  0.17120000000E+03  0.17120000000E+03 0.  0.
         13    1    1    2    0    0  0.15647170356E+02  0.16984769292E+02  0.13711420744E+03  0.13904543636E+03  0.10566000000E+00 0. -1.
        994    1    1    2    0    0 -0.40357864921E+01 -0.23492044045E+02  0.37247029435E+01  0.17289151835E+03  0.17120000000E+03 0.  0.
        998    1    1    2    0    0 -0.11611383864E+02  0.65072747522E+01  0.13591610859E+04  0.13592630453E+04  0.10000000000E+02 0. -1.
</event>
<event>
 5    1  0.1279376E-008  0.3842422E+03  0.7957747E-01  0.3432892E+00
         13   -1    0    0    0    0  0.00000000000E+00  0.00000000000E+00  0.14999999963E+04  0.15000000000E+04  0.10566000000E+00 0.  1.
        994   -1    0    0    0    0 -0.00000000000E+00 -0.00000000000E+00  0.11368683772E-12  0.17120000000E+03  0.17120000000E+03 0.  0.
         13    1    1    2    0    0 -0.15436443348E+02 -0.29979160998E+01  0.59477034353E+02  0.61520728732E+02  0.10566000000E+00 0.  1.
        994    1    1    2    0    0  0.17882314610E+02 -0.89582954317E+01  0.33267402752E+01  0.17239644844E+03  0.17120000000E+03 0.  0.
        998    1    1    2    0    0 -0.24458712626E+01  0.11956211532E+02  0.14371962216E+04  0.14372828228E+04  0.10000000000E+02 0.  1.
</event>
<event>
 5    1  0.1279376E-008  0.3739844E+03  0.7957747E-01  0.3477777E+00
         13   -1    0    0    0    0  0.00000000000E+00  0.00000000000E+00  0.14999999963E+04  0.15000000000E+04  0.10566000000E+00 0.  1.
        994   -1    0    0    0    0 -0.00000000000E+00 -0.00000000000E+00  0.11368683772E-12  0.17120000000E+03  0.17120000000E+03 0.  0.
         13    1    1    2    0    0  0.61271586625E+01  0.12238049998E+02  0.11781619439E+01  0.13737218446E+02  0.10566000000E+00 0.  1.
        994    1    1    2    0    0 -0.65888118327E+01 -0.75288339204E+01  0.13416335664E+02  0.17201608600E+03  0.17120000000E+03 0.  0.
        998    1    1    2    0    0  0.46165317017E+00 -0.47092160772E+01  0.14854054987E+04  0.14854466956E+04  0.10000000000E+02 0.  1.
</event>
<event>
 5    1  0.1279376E-008  0.3688403E+03  0.7957747E-01  0.3501238E+00
         13   -1    0    0    0    0  0.00000000000E+00  0.00000000000E+00  0.14999999963E+04  0.15000000000E+04  0.10566000000E+00 0. -1.
        994   -1    0    0    0    0 -0.00000000000E+00 -0.00000000000E+00  0.11368683772E-12  0.17120000000E+03  0.17120000000E+03 0.  0.
         13    1    1    2    0    0  0.37149493656E+02  0.18174795377E+02  0.86969800353E+02  0.96302468314E+02  0.10566000000E+00 0. -1.
        994    1    1    2    0    0 -0.55217689545E+01 -0.18541069612E+02  0.11176845826E+02  0.17265173928E+03  0.17120000000E+03 0.  0.
        998    1    1    2    0    0 -0.31627724701E+02  0.36627423530E+00  0.14018533501E+04  0.14022457924E+04  0.10000000000E+02 0. -1.
</event>
<event>
 5    1  0.1279376E-008  0.3824775E+03  0.7957747E-01  0.3440441E+00
         13   -1    0    0    0    0  0.00000000000E+00  0.00000000000E+00  0.14999999963E+04  0.15000000000E+04  0.10566000000E+00 0.  1.
        994   -1    0    0    0    0 -0.00000000000E+00 -0.00000000000E+00  0.11368683772E-12  0.17120000000E+03  0.17120000000E+03 0.  0.
         13    1    1    2    0    0  0.28012704520E+01 -0.23280242586E+02  0.93501886098E+02  0.96397254520E+02  0.10566000000E+00 0.  1.
        994    1    1    2    0    0  0.45393668592E+01  0.16731419041E+02  0.38848806595E+01  0.17211937291E+03  0.17120000000E+03 0.  0.
        998    1    1    2    0    0 -0.73406373112E+01  0.65488235450E+01  0.14026132295E+04  0.14026833726E+04  0.10000000000E+02 0.  1.
</event>
<event>
 5    1  0.1279376E-008  0.3841894E+03  0.7957747E-01  0.3433117E+00
         13   -1    0    0    0    0  0.00000000000E+00  0.00000000000E+00  0.14999999963E+04  0.15000000000E+04  0.10566000000E+00 0.  1.
        994   -1    0    0    0    0 -0.00000000000E+00 -0.00000000000E+00  0.11368683772E-12  0.17120000000E+03  0.17120000000E+03 0.  0.
         13    1    1    2    0    0 -0.11123856871E+02 -0.51698243486E+01  0.39872879771E+02  0.41717202456E+02  0.10566000000E+00 0.  1.
        994    1    1    2    0    0 -0.18279951963E+02  0.14556643548E+02  0.38356935405E+01  0.17282998889E+03  0.17120000000E+03 0.  0.
        998    1    1    2    0    0  0.29403808834E+02 -0.93868191993E+01  0.14562914230E+04  0.14566528087E+04  0.10000000000E+02 0.  1.
</event>
<event>
 5    1  0.1279376E-008  0.3822590E+03  0.7957747E-01  0.3441381E+00
         13   -1    0    0    0    0  0.00000000000E+00  0.00000000000E+00  0.14999999963E+04  0.15000000000E+04  0.10566000000E+00 0.  1.
        994   -1    0    0    0    0 -0.00000000000E+00 -0.00000000000E+00  0.11368683772E-12  0.17120000000E+03  0.17120000000E+03 0.  0.
         13    1    1    2    0    0  0.16534858402E+02 -0.20772540469E+02  0.11324729624E+03  0.11631793177E+03  0.10566000000E+00 0.  1.
        994    1    1    2    0    0 -0.16940432141E+02  0.13184768919E+02  0.45276795007E+01  0.17259998915E+03  0.17120000000E+03 0.  0.
        998    1    1    2    0    0  0.40557373906E+00  0.75877715502E+01  0.13822250205E+04  0.13822820791E+04  0.10000000000E+02 0.  1.
</event>
<event>
 5    1  0.1279376E-008  0.3687843E+03  0.7957747E-01  0.3501497E+00
         13   -1    0    0    0    0  0.00000000000E+00  0.00000000000E+00  0.14999999963E+04  0.15000000000E+04  0.10566000000E+00 0.  1.
        994   -1    0    0    0    0 -0.00000000000E+00 -0.00000000000E+00  0.11368683772E-12  0.17120000000E+03  0.17120000000E+03 0.  0.
         13    1    1    2    0    0  0.13329147241E+02  0.36547578540E+02  0.68002358230E+02  0.78343624835E+02  0.10566000000E+00 0.  1.
        994    1    1    2    0    0 -0.36653066735E+02 -0.22038364165E+02  0.16692103112E+02  0.17724898618E+03  0.17120000000E+03 0.  0.
        998    1    1    2    0    0  0.23323919494E+02 -0.14509214375E+02  0.14153055349E+04  0.14156073890E+04  0.10000000000E+02 0.  1.
</event>
<event>
 5    1  0.1279376E-008  0.3798135E+03  0.7957747E-01  0.3451971E+00
         13   -1    0    0    0    0  0.00000000000E+00  0.00000000000E+00  0.14999999963E+04  0.15000000000E+04  0.10566000000E+00 0.  1.
        994   -1    0    0    0    0 -0.00000000000E+00 -0.00000000000E+00  0.11368683772E-12  0.17120000000E+03  0.17120000000E+03 0.  0.
         13    1    1    2    0    0 -0.14774255121E+02 -0.37000290078E+02  0.16500613628E+03  0.16974786082E+03  0.10566000000E+00 0.  1.
        994    1    1    2    0    0  0.13658415393E+02  0.39748849676E+02  0.10159023448E+02  0.17657624166E+03  0.17120000000E+03 0.  0.
        998    1    1    2    0    0  0.11158397277E+01 -0.27485595983E+01  0.13248348366E+04  0.13248758975E+04  0.10000000000E+02 0.  1.
</event>
<event>
 5    1  0.1279376E-008  0.3856034E+03  0.7957747E-01  0.3427117E+00
         13   -1    0    0    0    0  0.00000000000E+00  0.00000000000E+00  0.14999999963E+04  0.15000000000E+04  0.10566000000E+00 0.  1.
        994   -1    0    0    0    0 -0.00000000000E+00 -0.00000000000E+00  0.11368683772E-12  0.17120000000E+03  0.17120000000E+03 0.  0.
         13    1    1    2    0    0  0.13094761984E+02 -0.82807540807E+00  0.65371455684E+02  0.66675309392E+02  0.10566000000E+00 0.  1.
        994    1    1    2    0    0 -0.81115153663E+01 -0.33100903201E+00  0.15472307387E+01  0.17139935873E+03  0.17120000000E+03 0.  0.
        998    1    1    2    0    0 -0.49832466179E+01  0.11590844401E+01  0.14330813099E+04  0.14331253319E+04  0.10000000000E+02 0.  1.
</event>
<event>
 5    1  0.1279376E-008  0.3831443E+03  0.7957747E-01  0.3437581E+00
         13   -1    0    0    0    0  0.00000000000E+00  0.00000000000E+00  0.14999999963E+04  0.15000000000E+04  0.10566000000E+00 0.  1.
        994   -1    0    0    0    0 -0.00000000000E+00 -0.00000000000E+00  0.11368683772E-12  0.17120000000E+03  0.17120000000E+03 0.  0.
         13    1    1    2    0    0  0.17539112593E+02  0.16540875423E+02  0.10769285779E+03  0.11035843336E+03  0.10566000000E+00 0.  1.
        994    1    1    2    0    0 -0.18216827849E+02 -0.13098839713E+02  0.42216727858E+01  0.17271564764E+03  0.17120000000E+03 0.  0.
        998    1    1    2    0    0  0.67771525637E+00 -0.34420357096E+01  0.13880854657E+04  0.13881259190E+04  0.10000000000E+02 0.  1.
</event>
<event>
 5    1  0.1279376E-008  0.3841928E+03  0.7957747E-01  0.3433103E+00
         13   -1    0    0    0    0  0.00000000000E+00  0.00000000000E+00  0.14999999963E+04  0.15000000000E+04  0.10566000000E+00 0.  1.
        994   -1    0    0    0    0 -0.00000000000E+00 -0.00000000000E+00  0.11368683772E-12  0.17120000000E+03  0.17120000000E+03 0.  0.
         13    1    1    2    0    0 -0.83390431859E+01 -0.15912494543E+02  0.94972227908E+02  0.96656517430E+02  0.10566000000E+00 0.  1.
        994    1    1    2    0    0 -0.37538136329E+01 -0.13944391312E+02  0.27193547139E+01  0.17182948541E+03  0.17120000000E+03 0.  0.
        998    1    1    2    0    0  0.12092856819E+02  0.29856885855E+02  0.14023084137E+04  0.14027139972E+04  0.10000000000E+02 0.  1.
</event>
<event>
 5    1  0.1279376E-008  0.3865435E+03  0.7957747E-01  0.3423152E+00
         13   -1    0    0    0    0  0.00000000000E+00  0.00000000000E+00  0.14999999963E+04  0.15000000000E+04  0.10566000000E+00 0. -1.
        994   -1    0    0    0    0 -0.00000000000E+00 -0.00000000000E+00  0.11368683772E-12  0.17120000000E+03  0.17120000000E+03 0.  0.
         13    1    1    2    0    0  0.53136628882E+01  0.94552044192E+01  0.62124452878E+02  0.63064211034E+02  0.10566000000E+00 0. -1.
        994    1    1    2    0    0 -0.13759767428E+02 -0.16223997144E+02  0.23480003213E+01  0.17253261254E+03  0.17120000000E+03 0.  0.
        998    1    1    2    0    0  0.84461045395E+01  0.67687927248E+01  0.14355275431E+04  0.14356031764E+04  0.10000000000E+02 0. -1.
</event>
<event>
 5    1  0.1279376E-008  0.3854504E+03  0.7957747E-01  0.3427764E+00
         13   -1    0    0    0    0  0.00000000000E+00  0.00000000000E+00  0.14999999963E+04  0.15000000000E+04  0.10566000000E+00 0. -1.
        994   -1    0    0    0    0 -0.00000000000E+00 -0.00000000000E+00  0.11368683772E-12  0.17120000000E+03  0.17120000000E+03 0.  0.
         13    1    1    2    0    0  0.16871517069E+02  0.16110590452E+01  0.97783347650E+02  0.99241311162E+02  0.10566000000E+00 0. -1.
        994    1    1    2    0    0 -0.16447394578E+02 -0.24569254390E+01  0.23153731579E+01  0.17202137723E+03  0.17120000000E+03 0.  0.
        998    1    1    2    0    0 -0.42412249030E+00  0.84586639374E+00  0.13999012755E+04  0.13999373116E+04  0.10000000000E+02 0.  0.
</event>
<event>
 5    1  0.1279376E-008  0.3816780E+03  0.7957747E-01  0.3443884E+00
         13   -1    0    0    0    0  0.00000000000E+00  0.00000000000E+00  0.14999999963E+04  0.15000000000E+04  0.10566000000E+00 0. -1.
        994   -1    0    0    0    0 -0.00000000000E+00 -0.00000000000E+00  0.11368683772E-12  0.17120000000E+03  0.17120000000E+03 0.  0.
         13    1    1    2    0    0  0.64053537432E+01  0.10237039276E+02  0.23956346147E+02  0.26828030387E+02  0.10566000000E+00 0. -1.
        994    1    1    2    0    0  0.37639139427E+02  0.19942732742E+02  0.93440769919E+01  0.17666683101E+03  0.17120000000E+03 0.  0.
        998    1    1    2    0    0 -0.44044493170E+02 -0.30179772018E+02  0.14666995731E+04  0.14677051386E+04  0.10000000000E+02 0. -1.
</event>
<event>
 5    1  0.1279376E-008  0.3854055E+03  0.7957747E-01  0.3427954E+00
         13   -1    0    0    0    0  0.00000000000E+00  0.00000000000E+00  0.14999999963E+04  0.15000000000E+04  0.10566000000E+00 0.  1.
        994   -1    0    0    0    0 -0.00000000000E+00 -0.00000000000E+00  0.11368683772E-12  0.17120000000E+03  0.17120000000E+03 0.  0.
         13    1    1    2    0    0  0.36958559859E+01  0.12595506594E+02  0.54611172754E+02  0.56166693791E+02  0.10566000000E+00 0.  1.
        994    1    1    2    0    0 -0.15005144696E+02 -0.22397473354E+02  0.38196376090E+01  0.17335175457E+03  0.17120000000E+03 0.  0.
        998    1    1    2    0    0  0.11309288710E+02  0.98019667601E+01  0.14415691859E+04  0.14416815516E+04  0.10000000000E+02 0.  1.
</event>
<event>
 5    1  0.1279376E-008  0.3740859E+03  0.7957747E-01  0.3477321E+00
         13   -1    0    0    0    0  0.00000000000E+00  0.00000000000E+00  0.14999999963E+04  0.15000000000E+04  0.10566000000E+00 0. -1.
        994   -1    0    0    0    0 -0.00000000000E+00 -0.00000000000E+00  0.11368683772E-12  0.17120000000E+03  0.17120000000E+03 0.  0.
         13    1    1    2    0    0  0.15983925606E+02 -0.34035096378E+02  0.11170880755E+03  0.11786747860E+03  0.10566000000E+00 0. -1.
        994    1    1    2    0    0 -0.61710599353E+01 -0.14648704710E+02  0.80108880312E+01  0.17212286559E+03  0.17120000000E+03 0.  0.
        998    1    1    2    0    0 -0.98128656704E+01  0.48683801088E+02  0.13802803007E+04  0.13812096558E+04  0.10000000000E+02 0. -1.
</event>
<event>
 5    1  0.1279376E-008  0.3687376E+03  0.7957747E-01  0.3501713E+00
         13   -1    0    0    0    0  0.00000000000E+00  0.00000000000E+00  0.14999999963E+04  0.15000000000E+04  0.10566000000E+00 0.  1.
        994   -1    0    0    0    0 -0.00000000000E+00 -0.00000000000E+00  0.11368683772E-12  0.17120000000E+03  0.17120000000E+03 0.  0.
         13    1    1    2    0    0  0.76541424410E+01 -0.23976019884E+02  0.26098337324E+02  0.36256996581E+02  0.10566000000E+00 0.  1.
        994    1    1    2    0    0  0.25794242898E+02  0.33666645405E+02  0.16559904123E+02  0.17715094243E+03  0.17120000000E+03 0.  0.
        998    1    1    2    0    0 -0.33448385339E+02 -0.96906255218E+01  0.14573417548E+04  0.14577920610E+04  0.10000000000E+02 0.  1.
</event>
<event>
 5    1  0.1279376E-008  0.3768514E+03  0.7957747E-01  0.3464984E+00
         13   -1    0    0    0    0  0.00000000000E+00  0.00000000000E+00  0.14999999963E+04  0.15000000000E+04  0.10566000000E+00 0. -1.
        994   -1    0    0    0    0 -0.00000000000E+00 -0.00000000000E+00  0.11368683772E-12  0.17120000000E+03  0.17120000000E+03 0.  0.
         13    1    1    2    0    0  0.41028019039E+02 -0.85809585419E+02  0.41600148089E+03  0.42673624941E+03  0.10566000000E+00 0. -1.
        994    1    1    2    0    0 -0.11820061474E+02  0.73257256907E+01  0.15301463171E+02  0.17244406306E+03  0.17120000000E+03 0.  0.
        998    1    1    2    0    0 -0.29207957565E+02  0.78483859728E+02  0.10686970522E+04  0.10720196875E+04  0.10000000000E+02 0. -1.
</event>
<event>
 5    1  0.1279376E-008  0.3813239E+03  0.7957747E-01  0.3445414E+00
         13   -1    0    0    0    0  0.00000000000E+00  0.00000000000E+00  0.14999999963E+04  0.15000000000E+04  0.10566000000E+00 0.  1.
        994   -1    0    0    0    0 -0.00000000000E+00 -0.00000000000E+00  0.11368683772E-12  0.17120000000E+03  0.17120000000E+03 0.  0.
         13    1    1    2    0    0 -0.39105820735E+01  0.23869609696E+02  0.82530416285E+02  0.86001928440E+02  0.10566000000E+00 0.  1.
        994    1    1    2    0    0 -0.62424403347E+01 -0.18028088703E+02  0.46787292013E+01  0.17232327339E+03  0.17120000000E+03 0.  0.
        998    1    1    2    0    0  0.10153022408E+02 -0.58415209927E+01  0.14127908508E+04  0.14128747982E+04  0.10000000000E+02 0.  1.
</event>
<event>
 5    1  0.1279376E-008  0.3818842E+03  0.7957747E-01  0.3442995E+00
         13   -1    0    0    0    0  0.00000000000E+00  0.00000000000E+00  0.14999999963E+04  0.15000000000E+04  0.10566000000E+00 0.  1.
        994   -1    0    0    0    0 -0.00000000000E+00 -0.00000000000E+00  0.11368683772E-12  0.17120000000E+03  0.17120000000E+03 0.  0.
         13    1    1    2    0    0 -0.13126402203E+02  0.13859673316E+02  0.56850845303E+02  0.59970182215E+02  0.10566000000E+00 0.  1.
        994    1    1    2    0    0  0.33311628478E+01 -0.99306778586E+01  0.35496044520E+01  0.17155685559E+03  0.17120000000E+03 0.  0.
        998    1    1    2    0    0  0.97952393551E+01 -0.39289954579E+01  0.14395995465E+04  0.14396729622E+04  0.10000000000E+02 0.  1.
</event>
<event>
 5    1  0.1279376E-008  0.3844907E+03  0.7957747E-01  0.3431835E+00
         13   -1    0    0    0    0  0.00000000000E+00  0.00000000000E+00  0.14999999963E+04  0.15000000000E+04  0.10566000000E+00 0.  1.
        994   -1    0    0    0    0 -0.00000000000E+00 -0.00000000000E+00  0.11368683772E-12  0.17120000000E+03  0.17120000000E+03 0.  0.
         13    1    1    2    0    0 -0.83084264310E+01  0.14198460125E+02  0.69195453555E+02  0.71124174346E+02  0.10566000000E+00 0.  1.
        994    1    1    2    0    0  0.68897837935E+01 -0.14980217893E+02  0.27793008198E+01  0.17201465217E+03  0.17120000000E+03 0.  0.
        998    1    1    2    0    0  0.14186426375E+01  0.78175776838E+00  0.14280252419E+04  0.14280611735E+04  0.10000000000E+02 0.  1.
</event>
<event>
 5    1  0.1279376E-008  0.3753865E+03  0.7957747E-01  0.3471496E+00
         13   -1    0    0    0    0  0.00000000000E+00  0.00000000000E+00  0.14999999963E+04  0.15000000000E+04  0.10566000000E+00 0. -1.
        994   -1    0    0    0    0 -0.00000000000E+00 -0.00000000000E+00  0.11368683772E-12  0.17120000000E+03  0.17120000000E+03 0.  0.
         13    1    1    2    0    0  0.22689024502E+02  0.59096447419E+02  0.37075039468E+03  0.37611573784E+03  0.10566000000E+00 0. -1.
        994    1    1    2    0    0  0.60959965119E+01 -0.18984900069E+02  0.78312412355E+01  0.17253508612E+03  0.17120000000E+03 0.  0.
        998    1    1    2    0    0 -0.28785021014E+02 -0.40111547349E+02  0.11214183604E+04  0.11225491760E+04  0.10000000000E+02 0. -1.
</event>
<event>
 5    1  0.1279376E-008  0.3797939E+03  0.7957747E-01  0.3452056E+00
         13   -1    0    0    0    0  0.00000000000E+00  0.00000000000E+00  0.14999999963E+04  0.15000000000E+04  0.10566000000E+00 0. -1.
        994   -1    0    0    0    0 -0.00000000000E+00 -0.00000000000E+00  0.11368683772E-12  0.17120000000E+03  0.17120000000E+03 0.  0.
         13    1    1    2    0    0  0.23255019680E+02  0.34548376249E+02  0.20567783392E+03  0.20985177810E+03  0.10566000000E+00 0. -1.
        994    1    1    2    0    0 -0.34386784073E+02 -0.50282169067E+01  0.82878795196E+01  0.17488814377E+03  0.17120000000E+03 0.  0.
        998    1    1    2    0    0  0.11131764393E+02 -0.29520159342E+02  0.12860342828E+04  0.12864600781E+04  0.10000000000E+02 0. -1.
</event>
<event>
 5    1  0.1279376E-008  0.3859370E+03  0.7957747E-01  0.3425708E+00
         13   -1    0    0    0    0  0.00000000000E+00  0.00000000000E+00  0.14999999963E+04  0.15000000000E+04  0.10566000000E+00 0. -1.
        994   -1    0    0    0    0 -0.00000000000E+00 -0.00000000000E+00  0.11368683772E-12  0.17120000000E+03  0.17120000000E+03 0.  0.
         13    1    1    2    0    0  0.68231556534E+01  0.78324150181E+01  0.44572236376E+02  0.45766773949E+02  0.10566000000E+00 0. -1.
        994    1    1    2    0    0 -0.12821601335E+02 -0.85457895138E+01  0.19444964834E+01  0.17190301058E+03  0.17120000000E+03 0.  0.
        998    1    1    2    0    0  0.59984456817E+01  0.71337449568E+00  0.14534832634E+04  0.14535302155E+04  0.10000000000E+02 0. -1.
</event>
<event>
 5    1  0.1279376E-008  0.3851619E+03  0.7957747E-01  0.3428986E+00
         13   -1    0    0    0    0  0.00000000000E+00  0.00000000000E+00  0.14999999963E+04  0.15000000000E+04  0.10566000000E+00 0. -1.
        994   -1    0    0    0    0 -0.00000000000E+00 -0.00000000000E+00  0.11368683772E-12  0.17120000000E+03  0.17120000000E+03 0.  0.
         13    1    1    2    0    0  0.12170969888E+02 -0.21939900188E+01  0.39539017846E+02  0.41428144980E+02  0.10566000000E+00 0. -1.
        994    1    1    2    0    0 -0.47993576659E+02  0.33971581070E+02  0.12997861956E+02  0.18148233009E+03  0.17120000000E+03 0.  0.
        998    1    1    2    0    0  0.35822606772E+02 -0.31777591052E+02  0.14474631165E+04  0.14482895249E+04  0.10000000000E+02 0. -1.
</event>
<event>
 5    1  0.1279376E-008  0.3804429E+03  0.7957747E-01  0.3449232E+00
         13   -1    0    0    0    0  0.00000000000E+00  0.00000000000E+00  0.14999999963E+04  0.15000000000E+04  0.10566000000E+00 0.  1.
        994   -1    0    0    0    0 -0.00000000000E+00 -0.00000000000E+00  0.11368683772E-12  0.17120000000E+03  0.17120000000E+03 0.  0.
         13    1    1    2    0    0 -0.27067357301E+02 -0.99559395751E+01  0.11363912415E+03  0.11724173432E+03  0.10566000000E+00 0.  1.
        994    1    1    2    0    0  0.58602159747E+01 -0.54122991523E+01  0.41221875949E+01  0.17143531592E+03  0.17120000000E+03 0.  0.
        998    1    1    2    0    0  0.21207141326E+02  0.15368238727E+02  0.13822386845E+04  0.13825229498E+04  0.10000000000E+02 0.  1.
</event>
<event>
 5    1  0.1279376E-008  0.3803974E+03  0.7957747E-01  0.3449430E+00
         13   -1    0    0    0    0  0.00000000000E+00  0.00000000000E+00  0.14999999963E+04  0.15000000000E+04  0.10566000000E+00 0.  1.
        994   -1    0    0    0    0 -0.00000000000E+00 -0.00000000000E+00  0.11368683772E-12  0.17120000000E+03  0.17120000000E+03 0.  0.
         13    1    1    2    0    0 -0.47108987442E+01 -0.15028303128E+02  0.29860762288E+02  0.33759720827E+02  0.10566000000E+00 0.  1.
        994    1    1    2    0    0 -0.12718569961E+02  0.16641229516E+02  0.53986103705E+01  0.17256093861E+03  0.17120000000E+03 0.  0.
        998    1    1    2    0    0  0.17429468705E+02 -0.16129263882E+01  0.14647406236E+04  0.14648793406E+04  0.10000000000E+02 0.  1.
</event>
<event>
 5    1  0.1279376E-008  0.3956198E+03  0.7957747E-01  0.3385844E+00
         13   -1    0    0    0    0  0.00000000000E+00  0.00000000000E+00  0.14999999963E+04  0.15000000000E+04  0.10566000000E+00 0. -1.
        994   -1    0    0    0    0 -0.00000000000E+00 -0.00000000000E+00  0.11368683772E-12  0.17120000000E+03  0.17120000000E+03 0.  0.
         13    1    1    2    0    0  0.51289694604E+02 -0.35420152530E+02  0.65404486211E+02  0.90349200099E+02  0.10566000000E+00 0. -1.
        994    1    1    2    0    0 -0.54237219098E+02  0.34245872980E+02  0.41188563500E+02  0.18740435831E+03  0.17120000000E+03 0.  0.
        998    1    1    2    0    0  0.29475244943E+01  0.11742795501E+01  0.13934069466E+04  0.13934464416E+04  0.10000000000E+02 0. -1.
</event>
<event>
 5    1  0.1279376E-008  0.3717593E+03  0.7957747E-01  0.3487844E+00
         13   -1    0    0    0    0  0.00000000000E+00  0.00000000000E+00  0.14999999963E+04  0.15000000000E+04  0.10566000000E+00 0.  1.
        994   -1    0    0    0    0 -0.00000000000E+00 -0.00000000000E+00  0.11368683772E-12  0.17120000000E+03  0.17120000000E+03 0.  0.
         13    1    1    2    0    0  0.48789278805E+02  0.70773878867E+02  0.38906749523E+03  0.39845057744E+03  0.10566000000E+00 0.  1.
        994    1    1    2    0    0 -0.19642896567E+02 -0.77676692337E+01  0.13443161566E+02  0.17302120871E+03  0.17120000000E+03 0.  0.
        998    1    1    2    0    0 -0.29146382238E+02 -0.63006209633E+02  0.10974893395E+04  0.10997282139E+04  0.10000000000E+02 0.  1.
</event>
<event>
 5    1  0.1279376E-008  0.3746428E+03  0.7957747E-01  0.3474822E+00
         13   -1    0    0    0    0  0.00000000000E+00  0.00000000000E+00  0.14999999963E+04  0.15000000000E+04  0.10566000000E+00 0. -1.
        994   -1    0    0    0    0 -0.00000000000E+00 -0.00000000000E+00  0.11368683772E-12  0.17120000000E+03  0.17120000000E+03 0.  0.
         13    1    1    2    0    0  0.16177966707E+02  0.27554221528E+02  0.69517892795E+02  0.76509543937E+02  0.10566000000E+00 0. -1.
        994    1    1    2    0    0 -0.15773606064E+02 -0.24955740314E+02  0.98343022427E+01  0.17400502614E+03  0.17120000000E+03 0.  0.
        998    1    1    2    0    0 -0.40436064341E+00 -0.25984812139E+01  0.14206478012E+04  0.14206854299E+04  0.10000000000E+02 0. -1.
</event>
<event>
 5    1  0.1279376E-008  0.3846052E+03  0.7957747E-01  0.3431348E+00
         13   -1    0    0    0    0  0.00000000000E+00  0.00000000000E+00  0.14999999963E+04  0.15000000000E+04  0.10566000000E+00 0.  1.
        994   -1    0    0    0    0 -0.00000000000E+00 -0.00000000000E+00  0.11368683772E-12  0.17120000000E+03  0.17120000000E+03 0.  0.
         13    1    1    2    0    0 -0.35176622560E+01 -0.13816236362E+02  0.56856051959E+02  0.58616415306E+02  0.10566000000E+00 0.  1.
        994    1    1    2    0    0 -0.13711150471E+01  0.54974598643E+01  0.19319760740E+01  0.17130462502E+03  0.17120000000E+03 0.  0.
        998    1    1    2    0    0  0.48887773031E+01  0.83187764976E+01  0.14412119682E+04  0.14412789597E+04  0.10000000000E+02 0.  1.
</event>
<event>
 5    1  0.1330171E-008  0.3851923E+03  0.7957747E-01  0.3428857E+00
         13   -1    0    0    0    0  0.00000000000E+00  0.00000000000E+00  0.14999999963E+04  0.15000000000E+04  0.10566000000E+00 0.  1.
        994   -1    0    0    0    0 -0.00000000000E+00 -0.00000000000E+00  0.11368683772E-12  0.17120000000E+03  0.17120000000E+03 0.  0.
         13    1    1    2    0    0 -0.10518804299E+02  0.59805513262E+01  0.48453265281E+02  0.49941388832E+02  0.10566000000E+00 0.  1.
        994    1    1    2    0    0  0.24412264632E+01 -0.67878943196E+01  0.17057254421E+01  0.17136039389E+03  0.17120000000E+03 0.  0.
        998    1    1    2    0    0  0.80775778356E+01  0.80734299338E+00  0.14498410056E+04  0.14498982173E+04  0.10000000000E+02 0.  1.
</event>
<event>
 5    1  0.1279376E-008  0.3752439E+03  0.7957747E-01  0.3472133E+00
         13   -1    0    0    0    0  0.00000000000E+00  0.00000000000E+00  0.14999999963E+04  0.15000000000E+04  0.10566000000E+00 0.  1.
        994   -1    0    0    0    0 -0.00000000000E+00 -0.00000000000E+00  0.11368683772E-12  0.17120000000E+03  0.17120000000E+03 0.  0.
         13    1    1    2    0    0 -0.85169952824E+02  0.66553193944E+01  0.39125410390E+03  0.40047222017E+03  0.10566000000E+00 0.  1.
        994    1    1    2    0    0 -0.53764090109E+01  0.21481278585E+02  0.15487158997E+02  0.17331948303E+03  0.17120000000E+03 0.  0.
        998    1    1    2    0    0  0.90546361834E+02 -0.28136597979E+02  0.10932587334E+04  0.10974082968E+04  0.10000000000E+02 0.  1.
</event>
<event>
 5    1  0.1279376E-008  0.3742703E+03  0.7957747E-01  0.3476493E+00
         13   -1    0    0    0    0  0.00000000000E+00  0.00000000000E+00  0.14999999963E+04  0.15000000000E+04  0.10566000000E+00 0.  1.
        994   -1    0    0    0    0 -0.00000000000E+00 -0.00000000000E+00  0.11368683772E-12  0.17120000000E+03  0.17120000000E+03 0.  0.
         13    1    1    2    0    0  0.52312050393E+02 -0.17184126631E+02  0.12504130022E+03  0.13662789887E+03  0.10566000000E+00 0.  1.
        994    1    1    2    0    0  0.29405203254E+01  0.11431133798E+02  0.13709470192E+02  0.17215314999E+03  0.17120000000E+03 0.  0.
        998    1    1    2    0    0 -0.55252570719E+02  0.57529928325E+01  0.13612492259E+04  0.13624189511E+04  0.10000000000E+02 0.  1.
</event>
<event>
 5    1  0.1279376E-008  0.3841637E+03  0.7957747E-01  0.3433227E+00
         13   -1    0    0    0    0  0.00000000000E+00  0.00000000000E+00  0.14999999963E+04  0.15000000000E+04  0.10566000000E+00 0. -1.
        994   -1    0    0    0    0 -0.00000000000E+00 -0.00000000000E+00  0.11368683772E-12  0.17120000000E+03  0.17120000000E+03 0.  0.
         13    1    1    2    0    0  0.15421366831E+01 -0.17954705278E+02  0.77232975807E+02  0.79307586921E+02  0.10566000000E+00 0. -1.
        994    1    1    2    0    0 -0.40954960275E+01  0.14981035307E+02  0.28417251524E+01  0.17192649566E+03  0.17120000000E+03 0.  0.
        998    1    1    2    0    0  0.25533593444E+01  0.29736699704E+01  0.14199252953E+04  0.14199659174E+04  0.10000000000E+02 0. -1.
</event>
<event>
 5    1  0.1279376E-008  0.3849024E+03  0.7957747E-01  0.3430086E+00
         13   -1    0    0    0    0  0.00000000000E+00  0.00000000000E+00  0.14999999963E+04  0.15000000000E+04  0.10566000000E+00 0. -1.
        994   -1    0    0    0    0 -0.00000000000E+00 -0.00000000000E+00  0.11368683772E-12  0.17120000000E+03  0.17120000000E+03 0.  0.
         13    1    1    2    0    0  0.45795050389E+01  0.18843517890E+02  0.11547488038E+03  0.11709188356E+03  0.10566000000E+00 0. -1.
        994    1    1    2    0    0  0.73529890825E+01 -0.10811636600E+02  0.22411990615E+01  0.17171319375E+03  0.17120000000E+03 0.  0.
        998    1    1    2    0    0 -0.11932494121E+02 -0.80318812901E+01  0.13822839168E+04  0.13823949227E+04  0.10000000000E+02 0. -1.
</event>
<event>
 5    1  0.1279376E-008  0.3855765E+03  0.7957747E-01  0.3427231E+00
         13   -1    0    0    0    0  0.00000000000E+00  0.00000000000E+00  0.14999999963E+04  0.15000000000E+04  0.10566000000E+00 0.  1.
        994   -1    0    0    0    0 -0.00000000000E+00 -0.00000000000E+00  0.11368683772E-12  0.17120000000E+03  0.17120000000E+03 0.  0.
         13    1    1    2    0    0 -0.13255391259E+02 -0.21485181526E+01  0.66720221784E+02  0.68058215424E+02  0.10566000000E+00 0.  1.
        994    1    1    2    0    0  0.10278015765E+02  0.21695193807E+01  0.17064657491E+01  0.17153045341E+03  0.17120000000E+03 0.  0.
        998    1    1    2    0    0  0.29773754938E+01 -0.21001228086E-01  0.14315733087E+04  0.14316113312E+04  0.10000000000E+02 0.  1.
</event>
<event>
 5    1  0.1279376E-008  0.3858795E+03  0.7957747E-01  0.3425951E+00
         13   -1    0    0    0    0  0.00000000000E+00  0.00000000000E+00  0.14999999963E+04  0.15000000000E+04  0.10566000000E+00 0.  1.
        994   -1    0    0    0    0 -0.00000000000E+00 -0.00000000000E+00  0.11368683772E-12  0.17120000000E+03  0.17120000000E+03 0.  0.
         13    1    1    2    0    0  0.33684927682E+01 -0.12911236026E+02  0.76226308751E+02  0.77385451276E+02  0.10566000000E+00 0.  1.
        994    1    1    2    0    0 -0.10832922883E+02  0.47863655418E+01  0.16542207542E+01  0.17161712607E+03  0.17120000000E+03 0.  0.
        998    1    1    2    0    0  0.74644301144E+01  0.81248704846E+01  0.14221194668E+04  0.14221974227E+04  0.10000000000E+02 0.  1.
</event>
<event>
 5    1  0.1279376E-008  0.3840913E+03  0.7957747E-01  0.3433535E+00
         13   -1    0    0    0    0  0.00000000000E+00  0.00000000000E+00  0.14999999963E+04  0.15000000000E+04  0.10566000000E+00 0.  1.
        994   -1    0    0    0    0 -0.00000000000E+00 -0.00000000000E+00  0.11368683772E-12  0.17120000000E+03  0.17120000000E+03 0.  0.
         13    1    1    2    0    0  0.90149932363E+01 -0.12749972662E+02  0.56463870739E+02  0.58583374509E+02  0.10566000000E+00 0.  1.
        994    1    1    2    0    0 -0.11684473263E+02  0.11161391220E+02  0.29436273950E+01  0.17198607069E+03  0.17120000000E+03 0.  0.
        998    1    1    2    0    0  0.26694800271E+01  0.15885814418E+01  0.14405924981E+04  0.14406305548E+04  0.10000000000E+02 0.  1.
</event>
<event>
 5    1  0.1279376E-008  0.3780578E+03  0.7957747E-01  0.3459659E+00
         13   -1    0    0    0    0  0.00000000000E+00  0.00000000000E+00  0.14999999963E+04  0.15000000000E+04  0.10566000000E+00 0.  1.
        994   -1    0    0    0    0 -0.00000000000E+00 -0.00000000000E+00  0.11368683772E-12  0.17120000000E+03  0.17120000000E+03 0.  0.
         13    1    1    2    0    0  0.89159476924E+02  0.93890743587E+02  0.39380351348E+03  0.41454324557E+03  0.10566000000E+00 0.  1.
        994    1    1    2    0    0 -0.83664464931E+02 -0.95715848543E+02  0.75972731466E+02  0.22636820068E+03  0.17120000000E+03 0.  0.
        998    1    1    2    0    0 -0.54950119927E+01  0.18251049555E+01  0.10302237513E+04  0.10302885537E+04  0.10000000000E+02 0.  1.
</event>
<event>
 5    1  0.1279376E-008  0.3814587E+03  0.7957747E-01  0.3444831E+00
         13   -1    0    0    0    0  0.00000000000E+00  0.00000000000E+00  0.14999999963E+04  0.15000000000E+04  0.10566000000E+00 0. -1.
        994   -1    0    0    0    0 -0.00000000000E+00 -0.00000000000E+00  0.11368683772E-12  0.17120000000E+03  0.17120000000E+03 0.  0.
         13    1    1    2    0    0 -0.28280899505E+02 -0.44608760905E+02  0.31154340814E+03  0.31598901428E+03  0.10566000000E+00 0. -1.
        994    1    1    2    0    0  0.15988348034E+02  0.58728384367E+02  0.15823140003E+02  0.18238547684E+03  0.17120000000E+03 0.  0.
        998    1    1    2    0    0  0.12292551471E+02 -0.14119623463E+02  0.11726334481E+04  0.11728255089E+04  0.10000000000E+02 0. -1.
</event>
<event>
 5    1  0.1279376E-008  0.3837369E+03  0.7957747E-01  0.3435047E+00
         13   -1    0    0    0    0  0.00000000000E+00  0.00000000000E+00  0.14999999963E+04  0.15000000000E+04  0.10566000000E+00 0.  1.
        994   -1    0    0    0    0 -0.00000000000E+00 -0.00000000000E+00  0.11368683772E-12  0.17120000000E+03  0.17120000000E+03 0.  0.
         13    1    1    2    0    0 -0.10269197160E+02 -0.43785117028E+01  0.26405554448E+02  0.28668663115E+02  0.10566000000E+00 0.  1.
        994    1    1    2    0    0  0.12242459774E+02  0.35560018631E+01  0.27954130566E+01  0.17169675974E+03  0.17120000000E+03 0.  0.
        998    1    1    2    0    0 -0.19732626137E+01  0.82250983972E+00  0.14707990288E+04  0.14708345771E+04  0.10000000000E+02 0.  1.
</event>
<event>
 5    1  0.1279376E-008  0.3848660E+03  0.7957747E-01  0.3430241E+00
         13   -1    0    0    0    0  0.00000000000E+00  0.00000000000E+00  0.14999999963E+04  0.15000000000E+04  0.10566000000E+00 0. -1.
        994   -1    0    0    0    0 -0.00000000000E+00 -0.00000000000E+00  0.11368683772E-12  0.17120000000E+03  0.17120000000E+03 0.  0.
         13    1    1    2    0    0 -0.17641681066E+02  0.46743116895E+00  0.86909816097E+02  0.88683564998E+02  0.10566000000E+00 0. -1.
        994    1    1    2    0    0  0.18873650617E+02 -0.62703888305E+01  0.29990785408E+01  0.17237739682E+03  0.17120000000E+03 0.  0.
        998    1    1    2    0    0 -0.12319695505E+01  0.58029576616E+01  0.14100911016E+04  0.14101390382E+04  0.10000000000E+02 0. -1.
</event>
<event>
 5    1  0.1279376E-008  0.3826833E+03  0.7957747E-01  0.3439557E+00
         13   -1    0    0    0    0  0.00000000000E+00  0.00000000000E+00  0.14999999963E+04  0.15000000000E+04  0.10566000000E+00 0. -1.
        994   -1    0    0    0    0 -0.00000000000E+00 -0.00000000000E+00  0.11368683772E-12  0.17120000000E+03  0.17120000000E+03 0.  0.
         13    1    1    2    0    0 -0.79323265240E+02  0.27208841949E+02  0.22584648154E+03  0.24091315007E+03  0.10566000000E+00 0. -1.
        994    1    1    2    0    0  0.16004267005E+02 -0.69669858517E+00  0.18748780167E+02  0.17296698734E+03  0.17120000000E+03 0.  0.
        998    1    1    2    0    0  0.63318998235E+02 -0.26512143364E+02  0.12554047346E+04  0.12573198626E+04  0.10000000000E+02 0.  0.
</event>
<event>
 5    1  0.1279376E-008  0.3758507E+03  0.7957747E-01  0.3469427E+00
         13   -1    0    0    0    0  0.00000000000E+00  0.00000000000E+00  0.14999999963E+04  0.15000000000E+04  0.10566000000E+00 0.  1.
        994   -1    0    0    0    0 -0.00000000000E+00 -0.00000000000E+00  0.11368683772E-12  0.17120000000E+03  0.17120000000E+03 0.  0.
         13    1    1    2    0    0  0.78280337878E+02  0.47773026706E+02  0.45746897924E+03  0.46657041431E+03  0.10566000000E+00 0.  1.
        994    1    1    2    0    0 -0.76167070433E+02 -0.52659740198E+02  0.35883112521E+02  0.19791793405E+03  0.17120000000E+03 0.  0.
        998    1    1    2    0    0 -0.21132674454E+01  0.48867134923E+01  0.10066479045E+04  0.10067116516E+04  0.10000000000E+02 0.  1.
</event>
<event>
 5    1  0.1279376E-008  0.3779786E+03  0.7957747E-01  0.3460008E+00
         13   -1    0    0    0    0  0.00000000000E+00  0.00000000000E+00  0.14999999963E+04  0.15000000000E+04  0.10566000000E+00 0. -1.
        994   -1    0    0    0    0 -0.00000000000E+00 -0.00000000000E+00  0.11368683772E-12  0.17120000000E+03  0.17120000000E+03 0.  0.
         13    1    1    2    0    0  0.50264092538E+02  0.13981453463E+02  0.21436891284E+03  0.22062638553E+03  0.10566000000E+00 0. -1.
        994    1    1    2    0    0 -0.56447489269E+02 -0.20062818804E+02  0.17331530968E+02  0.18220498816E+03  0.17120000000E+03 0.  0.
        998    1    1    2    0    0  0.61833967302E+01  0.60813653404E+01  0.12682995525E+04  0.12683686263E+04  0.10000000000E+02 0. -1.
</event>
<event>
 5    1  0.1279376E-008  0.3735284E+03  0.7957747E-01  0.3479830E+00
         13   -1    0    0    0    0  0.00000000000E+00  0.00000000000E+00  0.14999999963E+04  0.15000000000E+04  0.10566000000E+00 0. -1.
        994   -1    0    0    0    0 -0.00000000000E+00 -0.00000000000E+00  0.11368683772E-12  0.17120000000E+03  0.17120000000E+03 0.  0.
         13    1    1    2    0    0  0.66862813461E+02 -0.11391750204E+01  0.14612115340E+03  0.16069640998E+03  0.10566000000E+00 0. -1.
        994    1    1    2    0    0 -0.79977461565E+02 -0.16052601273E+02  0.36761389207E+02  0.19317070198E+03  0.17120000000E+03 0.  0.
        998    1    1    2    0    0  0.13114648103E+02  0.17191776293E+02  0.13171174537E+04  0.13173328880E+04  0.10000000000E+02 0. -1.
</event>
<event>
 5    1  0.1279376E-008  0.3802246E+03  0.7957747E-01  0.3450181E+00
         13   -1    0    0    0    0  0.00000000000E+00  0.00000000000E+00  0.14999999963E+04  0.15000000000E+04  0.10566000000E+00 0.  1.
        994   -1    0    0    0    0 -0.00000000000E+00 -0.00000000000E+00  0.11368683772E-12  0.17120000000E+03  0.17120000000E+03 0.  0.
         13    1    1    2    0    0  0.32751017350E+02  0.12958458847E+02  0.15525648326E+03  0.15920156266E+03  0.10566000000E+00 0.  1.
        994    1    1    2    0    0 -0.22104739588E+02  0.53415169348E+01  0.57492130648E+01  0.17279943509E+03  0.17120000000E+03 0.  0.
        998    1    1    2    0    0 -0.10646277762E+02 -0.18299975782E+02  0.13389943000E+04  0.13391990023E+04  0.10000000000E+02 0.  1.
</event>
<event>
 5    1  0.1279376E-008  0.3822540E+03  0.7957747E-01  0.3441402E+00
         13   -1    0    0    0    0  0.00000000000E+00  0.00000000000E+00  0.14999999963E+04  0.15000000000E+04  0.10566000000E+00 0.  1.
        994   -1    0    0    0    0 -0.00000000000E+00 -0.00000000000E+00  0.11368683772E-12  0.17120000000E+03  0.17120000000E+03 0.  0.
         13    1    1    2    0    0  0.25343866005E+02  0.29483088089E+02  0.23137867556E+03  0.23462239172E+03  0.10566000000E+00 0.  1.
        994    1    1    2    0    0 -0.21078009246E+02 -0.23110343695E+02  0.62528394727E+01  0.17414622724E+03  0.17120000000E+03 0.  0.
        998    1    1    2    0    0 -0.42658567588E+01 -0.63727443942E+01  0.12623684812E+04  0.12624313810E+04  0.10000000000E+02 0.  1.
</event>
<event>
 5    1  0.1279376E-008  0.3788385E+03  0.7957747E-01  0.3456232E+00
         13   -1    0    0    0    0  0.00000000000E+00  0.00000000000E+00  0.14999999963E+04  0.15000000000E+04  0.10566000000E+00 0.  1.
        994   -1    0    0    0    0 -0.00000000000E+00 -0.00000000000E+00  0.11368683772E-12  0.17120000000E+03  0.17120000000E+03 0.  0.
         13    1    1    2    0    0  0.23328398280E+02  0.39469437595E+02  0.23264811927E+03  0.23712277250E+03  0.10566000000E+00 0.  1.
        994    1    1    2    0    0 -0.24141374008E+02 -0.89577066416E+01  0.69488652127E+01  0.17326503737E+03  0.17120000000E+03 0.  0.
        998    1    1    2    0    0  0.81297572781E+00 -0.30511730953E+02  0.12604030118E+04  0.12608121901E+04  0.10000000000E+02 0.  1.
</event>
<event>
 5    1  0.1279376E-008  0.3756277E+03  0.7957747E-01  0.3470420E+00
         13   -1    0    0    0    0  0.00000000000E+00  0.00000000000E+00  0.14999999963E+04  0.15000000000E+04  0.10566000000E+00 0. -1.
        994   -1    0    0    0    0 -0.00000000000E+00 -0.00000000000E+00  0.11368683772E-12  0.17120000000E+03  0.17120000000E+03 0.  0.
         13    1    1    2    0    0 -0.34811985567E+02 -0.30289822221E+02  0.20809024787E+03  0.21314527931E+03  0.10566000000E+00 0. -1.
        994    1    1    2    0    0 -0.10667871668E+01 -0.11965227790E+02  0.68463548193E+01  0.17175743735E+03  0.17120000000E+03 0.  0.
        998    1    1    2    0    0  0.35878772734E+02  0.42255050011E+02  0.12850633936E+04  0.12862972833E+04  0.10000000000E+02 0. -1.
</event>
<event>
 5    1  0.1279376E-008  0.3751254E+03  0.7957747E-01  0.3472662E+00
         13   -1    0    0    0    0  0.00000000000E+00  0.00000000000E+00  0.14999999963E+04  0.15000000000E+04  0.10566000000E+00 0.  1.
        994   -1    0    0    0    0 -0.00000000000E+00 -0.00000000000E+00  0.11368683772E-12  0.17120000000E+03  0.17120000000E+03 0.  0.
         13    1    1    2    0    0 -0.15569717889E+02 -0.25112132247E+02  0.61074372583E+02  0.67846337053E+02  0.10566000000E+00 0.  1.
        994    1    1    2    0    0  0.17170839902E+02  0.25022543846E+02  0.97499326618E+01  0.17414208748E+03  0.17120000000E+03 0.  0.
        998    1    1    2    0    0 -0.16011220129E+01  0.89588400514E-01  0.14291756910E+04  0.14292115755E+04  0.10000000000E+02 0.  1.
</event>
<event>
 5    1  0.1279376E-008  0.3723688E+03  0.7957747E-01  0.3485075E+00
         13   -1    0    0    0    0  0.00000000000E+00  0.00000000000E+00  0.14999999963E+04  0.15000000000E+04  0.10566000000E+00 0. -1.
        994   -1    0    0    0    0 -0.00000000000E+00 -0.00000000000E+00  0.11368683772E-12  0.17120000000E+03  0.17120000000E+03 0.  0.
         13    1    1    2    0    0  0.71751457893E+02  0.43703705225E+02  0.34665131750E+03  0.35668674303E+03  0.10566000000E+00 0. -1.
        994    1    1    2    0    0 -0.51293998231E+02 -0.71298876976E+02  0.34977061075E+02  0.19556952450E+03  0.17120000000E+03 0.  0.
        998    1    1    2    0    0 -0.20457459662E+02  0.27595171751E+02  0.11183716177E+04  0.11189437325E+04  0.10000000000E+02 0.  0.
</event>
<event>
 5    1  0.1279376E-008  0.3835475E+03  0.7957747E-01  0.3435856E+00
         13   -1    0    0    0    0  0.00000000000E+00  0.00000000000E+00  0.14999999963E+04  0.15000000000E+04  0.10566000000E+00 0. -1.
        994   -1    0    0    0    0 -0.00000000000E+00 -0.00000000000E+00  0.11368683772E-12  0.17120000000E+03  0.17120000000E+03 0.  0.
         13    1    1    2    0    0  0.21169183347E+03  0.17036579188E+02  0.11704185386E+04  0.11895306823E+04  0.10566000000E+00 0. -1.
        994    1    1    2    0    0 -0.21249747258E+03 -0.11653686425E+02  0.17006947585E+03  0.32175153594E+03  0.17120000000E+03 0.  0.
        998    1    1    2    0    0  0.80563911745E+00 -0.53828927623E+01  0.15951198183E+03  0.15991778180E+03  0.10000000000E+02 0.  0.
</event>
<event>
 5    1  0.1279376E-008  0.3809752E+03  0.7957747E-01  0.3446923E+00
         13   -1    0    0    0    0  0.00000000000E+00  0.00000000000E+00  0.14999999963E+04  0.15000000000E+04  0.10566000000E+00 0. -1.
        994   -1    0    0    0    0 -0.00000000000E+00 -0.00000000000E+00  0.11368683772E-12  0.17120000000E+03  0.17120000000E+03 0.  0.
         13    1    1    2    0    0 -0.28284070334E+01  0.99035175194E+01  0.13243179332E+02  0.16777142440E+02  0.10566000000E+00 0. -1.
        994    1    1    2    0    0 -0.78658041219E+01 -0.22773620613E+01  0.38651550746E+01  0.17143930902E+03  0.17120000000E+03 0.  0.
        998    1    1    2    0    0  0.10694211155E+02 -0.76261554582E+01  0.14828916619E+04  0.14829835485E+04  0.10000000000E+02 0. -1.
</event>
<event>
 5    1  0.1279376E-008  0.3805634E+03  0.7957747E-01  0.3448709E+00
         13   -1    0    0    0    0  0.00000000000E+00  0.00000000000E+00  0.14999999963E+04  0.15000000000E+04  0.10566000000E+00 0.  1.
        994   -1    0    0    0    0 -0.00000000000E+00 -0.00000000000E+00  0.11368683772E-12  0.17120000000E+03  0.17120000000E+03 0.  0.
         13    1    1    2    0    0 -0.20413215179E+02 -0.50457573855E+01  0.59694434467E+02  0.63289775572E+02  0.10566000000E+00 0.  1.
        994    1    1    2    0    0  0.25107012909E+00 -0.70988592039E+01  0.40173786541E+01  0.17139438780E+03  0.17120000000E+03 0.  0.
        998    1    1    2    0    0  0.20162145050E+02  0.12144616589E+02  0.14362881832E+04  0.14365158366E+04  0.10000000000E+02 0.  1.
</event>
<event>
 5    1  0.1279376E-008  0.3853061E+03  0.7957747E-01  0.3428375E+00
         13   -1    0    0    0    0  0.00000000000E+00  0.00000000000E+00  0.14999999963E+04  0.15000000000E+04  0.10566000000E+00 0.  1.
        994   -1    0    0    0    0 -0.00000000000E+00 -0.00000000000E+00  0.11368683772E-12  0.17120000000E+03  0.17120000000E+03 0.  0.
         13    1    1    2    0    0 -0.18685385257E+02  0.12804826336E+01  0.10919082764E+03  0.11078551919E+03  0.10566000000E+00 0.  1.
        994    1    1    2    0    0  0.21806536562E+02 -0.32569224551E+01  0.30769983879E+01  0.17264136381E+03  0.17120000000E+03 0.  0.
        998    1    1    2    0    0 -0.31211513049E+01  0.19764398215E+01  0.13877321702E+04  0.13877731170E+04  0.10000000000E+02 0.  1.
</event>
<event>
 5    1  0.1279376E-008  0.3844528E+03  0.7957747E-01  0.3431996E+00
         13   -1    0    0    0    0  0.00000000000E+00  0.00000000000E+00  0.14999999963E+04  0.15000000000E+04  0.10566000000E+00 0. -1.
        994   -1    0    0    0    0 -0.00000000000E+00 -0.00000000000E+00  0.11368683772E-12  0.17120000000E+03  0.17120000000E+03 0.  0.
         13    1    1    2    0    0 -0.52158946230E+01  0.24208885130E+02  0.14246297423E+03  0.14459939787E+03  0.10566000000E+00 0. -1.
        994    1    1    2    0    0  0.14097123273E+01 -0.29667037764E+02  0.48135986823E+01  0.17382385093E+03  0.17120000000E+03 0.  0.
        998    1    1    2    0    0  0.38061822957E+01  0.54581526342E+01  0.13527234234E+04  0.13527767512E+04  0.10000000000E+02 0. -1.
</event>
<event>
 5    1  0.1279376E-008  0.3822961E+03  0.7957747E-01  0.3441221E+00
         13   -1    0    0    0    0  0.00000000000E+00  0.00000000000E+00  0.14999999963E+04  0.15000000000E+04  0.10566000000E+00 0.  1.
        994   -1    0    0    0    0 -0.00000000000E+00 -0.00000000000E+00  0.11368683772E-12  0.17120000000E+03  0.17120000000E+03 0.  0.
         13    1    1    2    0    0 -0.20785996768E+02 -0.50325188414E+01  0.80223379958E+02  0.83025211613E+02  0.10566000000E+00 0.  1.
        994    1    1    2    0    0  0.38128557207E+01 -0.27551121715E+01  0.30519967096E+01  0.17129180715E+03  0.17120000000E+03 0.  0.
        998    1    1    2    0    0  0.16973141047E+02  0.77876310129E+01  0.14167246196E+04  0.14168829812E+04  0.10000000000E+02 0.  1.
</event>
<event>
 5    1  0.1279376E-008  0.3838538E+03  0.7957747E-01  0.3434548E+00
         13   -1    0    0    0    0  0.00000000000E+00  0.00000000000E+00  0.14999999963E+04  0.15000000000E+04  0.10566000000E+00 0.  1.
        994   -1    0    0    0    0 -0.00000000000E+00 -0.00000000000E+00  0.11368683772E-12  0.17120000000E+03  0.17120000000E+03 0.  0.
         13    1    1    2    0    0  0.22608871560E+02 -0.11043941783E+01  0.12403673403E+03  0.12608530173E+03  0.10566000000E+00 0.  1.
        994    1    1    2    0    0 -0.49943498284E+01  0.57160678438E+01  0.23905049054E+01  0.17138486361E+03  0.17120000000E+03 0.  0.
        998    1    1    2    0    0 -0.17614521732E+02 -0.46116736655E+01  0.13735727573E+04  0.13737298347E+04  0.10000000000E+02 0.  1.
</event>
<event>
 5    1  0.1279376E-008  0.3842041E+03  0.7957747E-01  0.3433055E+00
         13   -1    0    0    0    0  0.00000000000E+00  0.00000000000E+00  0.14999999963E+04  0.15000000000E+04  0.10566000000E+00 0. -1.
        994   -1    0    0    0    0 -0.00000000000E+00 -0.00000000000E+00  0.11368683772E-12  0.17120000000E+03  0.17120000000E+03 0.  0.
         13    1    1    2    0    0 -0.16113246053E+02  0.10006057185E+02  0.86392254548E+02  0.88449933232E+02  0.10566000000E+00 0. -1.
        994    1    1    2    0    0  0.17132183858E+02 -0.22580965956E+01  0.30110094941E+01  0.17209624314E+03  0.17120000000E+03 0.  0.
        998    1    1    2    0    0 -0.10189378052E+01 -0.77479605890E+01  0.14105967322E+04  0.14106538236E+04  0.10000000000E+02 0. -1.
</event>
<event>
 5    1  0.1279376E-008  0.3826369E+03  0.7957747E-01  0.3439756E+00
         13   -1    0    0    0    0  0.00000000000E+00  0.00000000000E+00  0.14999999963E+04  0.15000000000E+04  0.10566000000E+00 0. -1.
        994   -1    0    0    0    0 -0.00000000000E+00 -0.00000000000E+00  0.11368683772E-12  0.17120000000E+03  0.17120000000E+03 0.  0.
         13    1    1    2    0    0  0.29341224478E+02  0.12145783533E+01  0.16697993168E+03  0.16954259466E+03  0.10566000000E+00 0. -1.
        994    1    1    2    0    0 -0.64473705099E+01  0.12431625248E+01  0.29508119860E+01  0.17135128051E+03  0.17120000000E+03 0.  0.
        998    1    1    2    0    0 -0.22893853968E+02 -0.24577408781E+01  0.13300692526E+04  0.13303061248E+04  0.10000000000E+02 0. -1.
</event>
<event>
 5    1  0.1279376E-008  0.3721963E+03  0.7957747E-01  0.3485858E+00
         13   -1    0    0    0    0  0.00000000000E+00  0.00000000000E+00  0.14999999963E+04  0.15000000000E+04  0.10566000000E+00 0.  1.
        994   -1    0    0    0    0 -0.00000000000E+00 -0.00000000000E+00  0.11368683772E-12  0.17120000000E+03  0.17120000000E+03 0.  0.
         13    1    1    2    0    0 -0.40963256984E+01  0.19499820593E+02  0.20751460553E+02  0.28769031379E+02  0.10566000000E+00 0.  1.
        994    1    1    2    0    0  0.46486409530E+00 -0.18721802006E+02  0.93300754996E+01  0.17247380171E+03  0.17120000000E+03 0.  0.
        998    1    1    2    0    0  0.36314616031E+01 -0.77801858684E+00  0.14699184602E+04  0.14699571669E+04  0.10000000000E+02 0.  1.
</event>
<event>
 5    1  0.1279376E-008  0.3790390E+03  0.7957747E-01  0.3455353E+00
         13   -1    0    0    0    0  0.00000000000E+00  0.00000000000E+00  0.14999999963E+04  0.15000000000E+04  0.10566000000E+00 0. -1.
        994   -1    0    0    0    0 -0.00000000000E+00 -0.00000000000E+00  0.11368683772E-12  0.17120000000E+03  0.17120000000E+03 0.  0.
         13    1    1    2    0    0  0.34652974849E+02 -0.37326623474E+01  0.11891782411E+03  0.12392022228E+03  0.10566000000E+00 0. -1.
        994    1    1    2    0    0 -0.35080543550E+02  0.29237026010E+02  0.11644702393E+02  0.17756826101E+03  0.17120000000E+03 0.  0.
        998    1    1    2    0    0  0.42756870113E+00 -0.25504363663E+02  0.13694374698E+04  0.13697115167E+04  0.10000000000E+02 0. -1.
</event>
<event>
 5    1  0.1279376E-008  0.3870305E+03  0.7957747E-01  0.3421106E+00
         13   -1    0    0    0    0  0.00000000000E+00  0.00000000000E+00  0.14999999963E+04  0.15000000000E+04  0.10566000000E+00 0. -1.
        994   -1    0    0    0    0 -0.00000000000E+00 -0.00000000000E+00  0.11368683772E-12  0.17120000000E+03  0.17120000000E+03 0.  0.
         13    1    1    2    0    0  0.32702709191E+02  0.53153200169E+02  0.85357193620E+02  0.10573831634E+03  0.10566000000E+00 0. -1.
        994    1    1    2    0    0 -0.42032353351E+02 -0.44073372182E+02  0.34174727708E+02  0.18489600557E+03  0.17120000000E+03 0.  0.
        998    1    1    2    0    0  0.93296441597E+01 -0.90798279872E+01  0.13804680750E+04  0.13805656781E+04  0.10000000000E+02 0. -1.
</event>
<event>
 5    1  0.1279376E-008  0.3801695E+03  0.7957747E-01  0.3450421E+00
         13   -1    0    0    0    0  0.00000000000E+00  0.00000000000E+00  0.14999999963E+04  0.15000000000E+04  0.10566000000E+00 0.  1.
        994   -1    0    0    0    0 -0.00000000000E+00 -0.00000000000E+00  0.11368683772E-12  0.17120000000E+03  0.17120000000E+03 0.  0.
         13    1    1    2    0    0 -0.14629612646E+02  0.14636418779E+02  0.55443763982E+02  0.59180000417E+02  0.10566000000E+00 0.  1.
        994    1    1    2    0    0  0.12511484394E+02  0.20101703179E+02  0.59228953426E+01  0.17293101631E+03  0.17120000000E+03 0.  0.
        998    1    1    2    0    0  0.21181282524E+01 -0.34738121958E+02  0.14386333370E+04  0.14390889833E+04  0.10000000000E+02 0.  1.
</event>
<event>
 5    1  0.1279376E-008  0.3699526E+03  0.7957747E-01  0.3496109E+00
         13   -1    0    0    0    0  0.00000000000E+00  0.00000000000E+00  0.14999999963E+04  0.15000000000E+04  0.10566000000E+00 0. -1.
        994   -1    0    0    0    0 -0.00000000000E+00 -0.00000000000E+00  0.11368683772E-12  0.17120000000E+03  0.17120000000E+03 0.  0.
         13    1    1    2    0    0  0.72523610038E+02 -0.87889367023E+01  0.20326978089E+03  0.21599892224E+03  0.10566000000E+00 0. -1.
        994    1    1    2    0    0 -0.10722435701E+03  0.78396303301E+01  0.50398340128E+02  0.20834575884E+03  0.17120000000E+03 0.  0.
        998    1    1    2    0    0  0.34700746974E+02  0.94930637224E+00  0.12463318753E+04  0.12468553189E+04  0.10000000000E+02 0. -1.
</event>
<event>
 5    1  0.1279376E-008  0.3804346E+03  0.7957747E-01  0.3449268E+00
         13   -1    0    0    0    0  0.00000000000E+00  0.00000000000E+00  0.14999999963E+04  0.15000000000E+04  0.10566000000E+00 0. -1.
        994   -1    0    0    0    0 -0.00000000000E+00 -0.00000000000E+00  0.11368683772E-12  0.17120000000E+03  0.17120000000E+03 0.  0.
         13    1    1    2    0    0  0.12982700585E+02  0.30733668924E+02  0.26419678804E+02  0.42557249819E+02  0.10566000000E+00 0. -1.
        994    1    1    2    0    0 -0.15129295156E+02 -0.29395207345E+02  0.20543057826E+02  0.17556887825E+03  0.17120000000E+03 0.  0.
        998    1    1    2    0    0  0.21465945712E+01 -0.13384615785E+01  0.14530372596E+04  0.14530738719E+04  0.10000000000E+02 0. -1.
</event>
<event>
 5    1  0.1279376E-008  0.3817113E+03  0.7957747E-01  0.3443741E+00
         13   -1    0    0    0    0  0.00000000000E+00  0.00000000000E+00  0.14999999963E+04  0.15000000000E+04  0.10566000000E+00 0.  1.
        994   -1    0    0    0    0 -0.00000000000E+00 -0.00000000000E+00  0.11368683772E-12  0.17120000000E+03  0.17120000000E+03 0.  0.
         13    1    1    2    0    0  0.10074336860E+02  0.24783527442E+02  0.10615855610E+03  0.10947769496E+03  0.10566000000E+00 0.  1.
        994    1    1    2    0    0 -0.10178966313E+02 -0.17151616041E+02  0.45951889527E+01  0.17241909711E+03  0.17120000000E+03 0.  0.
        998    1    1    2    0    0  0.10462945275E+00 -0.76319114012E+01  0.13892462512E+04  0.13893032079E+04  0.10000000000E+02 0.  1.
</event>
<event>
 5    1  0.1279376E-008  0.3849901E+03  0.7957747E-01  0.3429714E+00
         13   -1    0    0    0    0  0.00000000000E+00  0.00000000000E+00  0.14999999963E+04  0.15000000000E+04  0.10566000000E+00 0.  1.
        994   -1    0    0    0    0 -0.00000000000E+00 -0.00000000000E+00  0.11368683772E-12  0.17120000000E+03  0.17120000000E+03 0.  0.
         13    1    1    2    0    0  0.49979683558E+01 -0.13560128624E+02  0.70403700254E+02  0.71871753489E+02  0.10566000000E+00 0.  1.
        994    1    1    2    0    0 -0.38888925748E+01 -0.67228597267E+01  0.18334460249E+01  0.17138588580E+03  0.17120000000E+03 0.  0.
        998    1    1    2    0    0 -0.11090757810E+01  0.20282988351E+02  0.14277628500E+04  0.14279423607E+04  0.10000000000E+02 0.  1.
</event>
<event>
 5    1  0.1279376E-008  0.3843007E+03  0.7957747E-01  0.3432644E+00
         13   -1    0    0    0    0  0.00000000000E+00  0.00000000000E+00  0.14999999963E+04  0.15000000000E+04  0.10566000000E+00 0.  1.
        994   -1    0    0    0    0 -0.00000000000E+00 -0.00000000000E+00  0.11368683772E-12  0.17120000000E+03  0.17120000000E+03 0.  0.
         13    1    1    2    0    0 -0.90348752191E-01  0.13452350796E+02  0.45164726941E+02  0.47125763957E+02  0.10566000000E+00 0.  1.
        994    1    1    2    0    0 -0.70393833613E+01 -0.10025730059E+02  0.24725331061E+01  0.17165553181E+03  0.17120000000E+03 0.  0.
        998    1    1    2    0    0  0.71297321135E+01 -0.34266207368E+01  0.14523627362E+04  0.14524187042E+04  0.10000000000E+02 0.  1.
</event>
<event>
 5    1  0.1279376E-008  0.3843059E+03  0.7957747E-01  0.3432621E+00
         13   -1    0    0    0    0  0.00000000000E+00  0.00000000000E+00  0.14999999963E+04  0.15000000000E+04  0.10566000000E+00 0.  1.
        994   -1    0    0    0    0 -0.00000000000E+00 -0.00000000000E+00  0.11368683772E-12  0.17120000000E+03  0.17120000000E+03 0.  0.
         13    1    1    2    0    0  0.10754197936E+02 -0.36350707303E+01  0.31931766774E+02  0.33889753699E+02  0.10566000000E+00 0.  1.
        994    1    1    2    0    0 -0.80189403749E+01  0.55642768033E+01  0.22891956903E+01  0.17149327975E+03  0.17120000000E+03 0.  0.
        998    1    1    2    0    0 -0.27352575610E+01 -0.19292060730E+01  0.14657790338E+04  0.14658169666E+04  0.10000000000E+02 0.  1.
</event>
<event>
 5    1  0.1279376E-008  0.3840273E+03  0.7957747E-01  0.3433808E+00
         13   -1    0    0    0    0  0.00000000000E+00  0.00000000000E+00  0.14999999963E+04  0.15000000000E+04  0.10566000000E+00 0.  1.
        994   -1    0    0    0    0 -0.00000000000E+00 -0.00000000000E+00  0.11368683772E-12  0.17120000000E+03  0.17120000000E+03 0.  0.
         13    1    1    2    0    0  0.13849093047E+02  0.73651846647E+01  0.57633215186E+02  0.59729741169E+02  0.10566000000E+00 0.  1.
        994    1    1    2    0    0 -0.10314565150E+02 -0.34785982384E+01  0.25048278296E+01  0.17156399699E+03  0.17120000000E+03 0.  0.
        998    1    1    2    0    0 -0.35345278974E+01 -0.38865864263E+01  0.14398619533E+04  0.14399062618E+04  0.10000000000E+02 0.  1.
</event>
<event>
 5    1  0.1279376E-008  0.3785146E+03  0.7957747E-01  0.3457652E+00
         13   -1    0    0    0    0  0.00000000000E+00  0.00000000000E+00  0.14999999963E+04  0.15000000000E+04  0.10566000000E+00 0.  1.
        994   -1    0    0    0    0 -0.00000000000E+00 -0.00000000000E+00  0.11368683772E-12  0.17120000000E+03  0.17120000000E+03 0.  0.
         13    1    1    2    0    0  0.16435068607E+03 -0.26614679099E+02  0.95739079356E+03  0.97175955457E+03  0.10566000000E+00 0.  1.
        994    1    1    2    0    0 -0.15956447371E+03  0.32727493996E+02  0.99910610358E+02  0.25656087035E+03  0.17120000000E+03 0.  0.
        998    1    1    2    0    0 -0.47862123632E+01 -0.61128148969E+01  0.44269859236E+03  0.44287957507E+03  0.10000000000E+02 0.  0.
</event>
<event>
 5    1  0.1279376E-008  0.3844160E+03  0.7957747E-01  0.3432153E+00
         13   -1    0    0    0    0  0.00000000000E+00  0.00000000000E+00  0.14999999963E+04  0.15000000000E+04  0.10566000000E+00 0.  1.
        994   -1    0    0    0    0 -0.00000000000E+00 -0.00000000000E+00  0.11368683772E-12  0.17120000000E+03  0.17120000000E+03 0.  0.
         13    1    1    2    0    0  0.93467344018E+01 -0.56589509603E+01  0.32227704168E+02  0.34029711282E+02  0.10566000000E+00 0.  1.
        994    1    1    2    0    0  0.80575089299E+01  0.49048690476E+01  0.22136164603E+01  0.17147396679E+03  0.17120000000E+03 0.  0.
        998    1    1    2    0    0 -0.17404243332E+02  0.75408191271E+00  0.14655586757E+04  0.14656963219E+04  0.10000000000E+02 0.  1.
</event>
<event>
 5    1  0.1279376E-008  0.3760683E+03  0.7957747E-01  0.3468459E+00
         13   -1    0    0    0    0  0.00000000000E+00  0.00000000000E+00  0.14999999963E+04  0.15000000000E+04  0.10566000000E+00 0. -1.
        994   -1    0    0    0    0 -0.00000000000E+00 -0.00000000000E+00  0.11368683772E-12  0.17120000000E+03  0.17120000000E+03 0.  0.
         13    1    1    2    0    0  0.13338356951E+02  0.69693657666E+01  0.15597438828E+02  0.21674295545E+02  0.10566000000E+00 0. -1.
        994    1    1    2    0    0 -0.14700666121E+02 -0.65567450603E+01  0.70092312279E+01  0.17209784953E+03  0.17120000000E+03 0.  0.
        998    1    1    2    0    0  0.13623091698E+01 -0.41262070627E+00  0.14773933262E+04  0.14774278549E+04  0.10000000000E+02 0. -1.
</event>
<event>
 5    1  0.1279376E-008  0.3711252E+03  0.7957747E-01  0.3490736E+00
         13   -1    0    0    0    0  0.00000000000E+00  0.00000000000E+00  0.14999999963E+04  0.15000000000E+04  0.10566000000E+00 0. -1.
        994   -1    0    0    0    0 -0.00000000000E+00 -0.00000000000E+00  0.11368683772E-12  0.17120000000E+03  0.17120000000E+03 0.  0.
         13    1    1    2    0    0  0.21626218687E+02 -0.58096735795E+00  0.15527405502E+02  0.26629726687E+02  0.10566000000E+00 0. -1.
        994    1    1    2    0    0 -0.97847559067E+01 -0.25036920321E+02  0.14075311985E+02  0.17386817775E+03  0.17120000000E+03 0.  0.
        998    1    1    2    0    0 -0.11841462780E+02  0.25617887679E+02  0.14703972788E+04  0.14707020956E+04  0.10000000000E+02 0. -1.
</event>
<event>
 5    1  0.1279376E-008  0.3859020E+03  0.7957747E-01  0.3425856E+00
         13   -1    0    0    0    0  0.00000000000E+00  0.00000000000E+00  0.14999999963E+04  0.15000000000E+04  0.10566000000E+00 0.  1.
        994   -1    0    0    0    0 -0.00000000000E+00 -0.00000000000E+00  0.11368683772E-12  0.17120000000E+03  0.17120000000E+03 0.  0.
         13    1    1    2    0    0  0.25694157103E+01  0.13203655150E+02  0.77292036457E+02  0.78453862047E+02  0.10566000000E+00 0.  1.
        994    1    1    2    0    0  0.21311958001E+01 -0.93755209186E+01  0.14861423935E+01  0.17147621120E+03  0.17120000000E+03 0.  0.
        998    1    1    2    0    0 -0.47006115104E+01 -0.38281342314E+01  0.14212218174E+04  0.14212699268E+04  0.10000000000E+02 0.  1.
</event>
<event>
 5    1  0.1279376E-008  0.3636647E+03  0.7957747E-01  0.3525523E+00
         13   -1    0    0    0    0  0.00000000000E+00  0.00000000000E+00  0.14999999963E+04  0.15000000000E+04  0.10566000000E+00 0.  1.
        994   -1    0    0    0    0 -0.00000000000E+00 -0.00000000000E+00  0.11368683772E-12  0.17120000000E+03  0.17120000000E+03 0.  0.
         13    1    1    2    0    0  0.19220522991E+03 -0.24513688230E+03  0.83788143977E+03  0.89391289271E+03  0.10566000000E+00 0.  1.
        994    1    1    2    0    0 -0.17551006112E+03  0.23815102155E+03  0.45470766732E+03  0.56884812853E+03  0.17120000000E+03 0.  0.
        998    1    1    2    0    0 -0.16695168797E+02  0.69858607462E+01  0.20741088919E+03  0.20843897876E+03  0.10000000000E+02 0. -1.
</event>
<event>
 5    1  0.1279376E-008  0.3858676E+03  0.7957747E-01  0.3426001E+00
         13   -1    0    0    0    0  0.00000000000E+00  0.00000000000E+00  0.14999999963E+04  0.15000000000E+04  0.10566000000E+00 0.  1.
        994   -1    0    0    0    0 -0.00000000000E+00 -0.00000000000E+00  0.11368683772E-12  0.17120000000E+03  0.17120000000E+03 0.  0.
         13    1    1    2    0    0  0.99442113291E+01  0.67523245831E+01  0.63433424554E+02  0.64562308981E+02  0.10566000000E+00 0.  1.
        994    1    1    2    0    0 -0.10458691658E+02  0.10915895920E+02  0.19498480997E+01  0.17187723212E+03  0.17120000000E+03 0.  0.
        998    1    1    2    0    0  0.51448032870E+00 -0.17668220503E+02  0.14346167236E+04  0.14347604589E+04  0.10000000000E+02 0.  1.
</event>
<event>
 5    1  0.1279376E-008  0.3789709E+03  0.7957747E-01  0.3455652E+00
         13   -1    0    0    0    0  0.00000000000E+00  0.00000000000E+00  0.14999999963E+04  0.15000000000E+04  0.10566000000E+00 0.  1.
        994   -1    0    0    0    0 -0.00000000000E+00 -0.00000000000E+00  0.11368683772E-12  0.17120000000E+03  0.17120000000E+03 0.  0.
         13    1    1    2    0    0  0.20457180477E+02 -0.13119961065E+02  0.12185551734E+02  0.27186916826E+02  0.10566000000E+00 0.  1.
        994    1    1    2    0    0  0.69637936905E+01  0.29782520063E+02  0.19147450077E+02  0.17496158941E+03  0.17120000000E+03 0.  0.
        998    1    1    2    0    0 -0.27420974168E+02 -0.16662558998E+02  0.14686669945E+04  0.14690514938E+04  0.10000000000E+02 0.  1.
</event>
<event>
 5    1  0.1279376E-008  0.3784842E+03  0.7957747E-01  0.3457785E+00
         13   -1    0    0    0    0  0.00000000000E+00  0.00000000000E+00  0.14999999963E+04  0.15000000000E+04  0.10566000000E+00 0.  1.
        994   -1    0    0    0    0 -0.00000000000E+00 -0.00000000000E+00  0.11368683772E-12  0.17120000000E+03  0.17120000000E+03 0.  0.
         13    1    1    2    0    0 -0.40356137123E+02 -0.92146513692E+01  0.17447776366E+03  0.17932102157E+03  0.10566000000E+00 0.  1.
        994    1    1    2    0    0  0.20293942585E+02  0.14469210634E+02  0.69901640462E+01  0.17314590540E+03  0.17120000000E+03 0.  0.
        998    1    1    2    0    0  0.20062194538E+02 -0.52545592649E+01  0.13185320686E+04  0.13187330730E+04  0.10000000000E+02 0.  1.
</event>
<event>
 5    1  0.1279376E-008  0.3819564E+03  0.7957747E-01  0.3442684E+00
         13   -1    0    0    0    0  0.00000000000E+00  0.00000000000E+00  0.14999999963E+04  0.15000000000E+04  0.10566000000E+00 0.  1.
        994   -1    0    0    0    0 -0.00000000000E+00 -0.00000000000E+00  0.11368683772E-12  0.17120000000E+03  0.17120000000E+03 0.  0.
         13    1    1    2    0    0  0.20576542586E+02 -0.14066568779E+02  0.79713288175E+02  0.83519350678E+02  0.10566000000E+00 0.  1.
        994    1    1    2    0    0 -0.37879389228E+02  0.43057001024E+02  0.14150200186E+02  0.18110334517E+03  0.17120000000E+03 0.  0.
        998    1    1    2    0    0  0.17302846642E+02 -0.28990432245E+02  0.14061365079E+04  0.14065773042E+04  0.10000000000E+02 0.  1.
</event>
<event>
 5    1  0.1279376E-008  0.3825620E+03  0.7957747E-01  0.3440078E+00
         13   -1    0    0    0    0  0.00000000000E+00  0.00000000000E+00  0.14999999963E+04  0.15000000000E+04  0.10566000000E+00 0. -1.
        994   -1    0    0    0    0 -0.00000000000E+00 -0.00000000000E+00  0.11368683772E-12  0.17120000000E+03  0.17120000000E+03 0.  0.
         13    1    1    2    0    0  0.48366339206E+01  0.24962924428E+02  0.12089277886E+03  0.12353791227E+03  0.10566000000E+00 0. -1.
        994    1    1    2    0    0 -0.19230094412E+01 -0.48766815456E+01  0.29365302003E+01  0.17130540913E+03  0.17120000000E+03 0.  0.
        998    1    1    2    0    0 -0.29136244794E+01 -0.20086242882E+02  0.13761706872E+04  0.13763566786E+04  0.10000000000E+02 0. -1.
</event>
<event>
 5    1  0.1279376E-008  0.3783583E+03  0.7957747E-01  0.3458338E+00
         13   -1    0    0    0    0  0.00000000000E+00  0.00000000000E+00  0.14999999963E+04  0.15000000000E+04  0.10566000000E+00 0. -1.
        994   -1    0    0    0    0 -0.00000000000E+00 -0.00000000000E+00  0.11368683772E-12  0.17120000000E+03  0.17120000000E+03 0.  0.
         13    1    1    2    0    0 -0.25984077676E+02 -0.35218892759E+02  0.19059623276E+03  0.19555684035E+03  0.10566000000E+00 0. -1.
        994    1    1    2    0    0  0.19380942858E+02  0.17848995538E+02  0.73010005736E+01  0.17336940963E+03  0.17120000000E+03 0.  0.
        998    1    1    2    0    0  0.66031348179E+01  0.17369897221E+02  0.13021027629E+04  0.13022737500E+04  0.10000000000E+02 0. -1.
</event>
<event>
 5    1  0.1279376E-008  0.3845622E+03  0.7957747E-01  0.3431531E+00
         13   -1    0    0    0    0  0.00000000000E+00  0.00000000000E+00  0.14999999963E+04  0.15000000000E+04  0.10566000000E+00 0.  1.
        994   -1    0    0    0    0 -0.00000000000E+00 -0.00000000000E+00  0.11368683772E-12  0.17120000000E+03  0.17120000000E+03 0.  0.
         13    1    1    2    0    0  0.10321430435E+02  0.76385535151E+01  0.42907168310E+02  0.44787450055E+02  0.10566000000E+00 0.  1.
        994    1    1    2    0    0 -0.12818130702E+02 -0.84040720184E+01  0.26217586783E+01  0.17190476003E+03  0.17120000000E+03 0.  0.
        998    1    1    2    0    0  0.24967002673E+01  0.76551850329E+00  0.14544710693E+04  0.14545077899E+04  0.10000000000E+02 0.  1.
</event>
<event>
 5    1  0.1279376E-008  0.3790965E+03  0.7957747E-01  0.3455102E+00
         13   -1    0    0    0    0  0.00000000000E+00  0.00000000000E+00  0.14999999963E+04  0.15000000000E+04  0.10566000000E+00 0.  1.
        994   -1    0    0    0    0 -0.00000000000E+00 -0.00000000000E+00  0.11368683772E-12  0.17120000000E+03  0.17120000000E+03 0.  0.
         13    1    1    2    0    0  0.19236571225E+02 -0.92266705096E+01  0.46656740797E+02  0.51303408728E+02  0.10566000000E+00 0.  1.
        994    1    1    2    0    0 -0.20661594440E+02  0.56771827718E+01  0.61308717802E+01  0.17264460454E+03  0.17120000000E+03 0.  0.
        998    1    1    2    0    0  0.14250232149E+01  0.35494877377E+01  0.14472123837E+04  0.14472519867E+04  0.10000000000E+02 0.  1.
</event>
<event>
 5    1  0.1279376E-008  0.3695245E+03  0.7957747E-01  0.3498079E+00
         13   -1    0    0    0    0  0.00000000000E+00  0.00000000000E+00  0.14999999963E+04  0.15000000000E+04  0.10566000000E+00 0. -1.
        994   -1    0    0    0    0 -0.00000000000E+00 -0.00000000000E+00  0.11368683772E-12  0.17120000000E+03  0.17120000000E+03 0.  0.
         13    1    1    2    0    0  0.85105908078E+01 -0.31050981665E+02  0.49540978659E+02  0.59083951703E+02  0.10566000000E+00 0. -1.
        994    1    1    2    0    0  0.15454281225E+02  0.35387484380E+02  0.14699716459E+02  0.17611538980E+03  0.17120000000E+03 0.  0.
        998    1    1    2    0    0 -0.23964872033E+02 -0.43365027151E+01  0.14357593012E+04  0.14360006585E+04  0.10000000000E+02 0. -1.
</event>
<event>
 5    1  0.1279376E-008  0.3854554E+03  0.7957747E-01  0.3427743E+00
         13   -1    0    0    0    0  0.00000000000E+00  0.00000000000E+00  0.14999999963E+04  0.15000000000E+04  0.10566000000E+00 0. -1.
        994   -1    0    0    0    0 -0.00000000000E+00 -0.00000000000E+00  0.11368683772E-12  0.17120000000E+03  0.17120000000E+03 0.  0.
         13    1    1    2    0    0 -0.11168002207E+02  0.10571724380E+02  0.80819442410E+02  0.82269551264E+02  0.10566000000E+00 0. -1.
        994    1    1    2    0    0  0.14188141538E+02 -0.84410438512E+01  0.22997588772E+01  0.17200954471E+03  0.17120000000E+03 0.  0.
        998    1    1    2    0    0 -0.30201393310E+01 -0.21306805287E+01  0.14168807950E+04  0.14169209040E+04  0.10000000000E+02 0. -1.
</event>
<event>
 5    1  0.1279376E-008  0.3846813E+03  0.7957747E-01  0.3431025E+00
         13   -1    0    0    0    0  0.00000000000E+00  0.00000000000E+00  0.14999999963E+04  0.15000000000E+04  0.10566000000E+00 0. -1.
        994   -1    0    0    0    0 -0.00000000000E+00 -0.00000000000E+00  0.11368683772E-12  0.17120000000E+03  0.17120000000E+03 0.  0.
         13    1    1    2    0    0  0.14910906634E+02  0.11771197335E+02  0.10956959270E+03  0.11120433010E+03  0.10566000000E+00 0. -1.
        994    1    1    2    0    0  0.40094680776E+01 -0.78369051815E+01  0.20435839622E+01  0.17143835380E+03  0.17120000000E+03 0.  0.
        998    1    1    2    0    0 -0.18920374712E+02 -0.39342921538E+01  0.13883868196E+04  0.13885573161E+04  0.10000000000E+02 0. -1.
</event>
<event>
 5    1  0.1279376E-008  0.3798445E+03  0.7957747E-01  0.3451836E+00
         13   -1    0    0    0    0  0.00000000000E+00  0.00000000000E+00  0.14999999963E+04  0.15000000000E+04  0.10566000000E+00 0.  1.
        994   -1    0    0    0    0 -0.00000000000E+00 -0.00000000000E+00  0.11368683772E-12  0.17120000000E+03  0.17120000000E+03 0.  0.
         13    1    1    2    0    0  0.30442550165E+02 -0.27996672922E+02  0.22399927924E+03  0.22778553690E+03  0.10566000000E+00 0.  1.
        994    1    1    2    0    0 -0.76826628929E+01  0.72680238821E+01  0.45858420525E+01  0.17158763775E+03  0.17120000000E+03 0.  0.
        998    1    1    2    0    0 -0.22759887272E+02  0.20728649040E+02  0.12714148750E+04  0.12718268254E+04  0.10000000000E+02 0.  1.
</event>
<event>
 5    1  0.1279376E-008  0.3931505E+03  0.7957747E-01  0.3395824E+00
         13   -1    0    0    0    0  0.00000000000E+00  0.00000000000E+00  0.14999999963E+04  0.15000000000E+04  0.10566000000E+00 0.  1.
        994   -1    0    0    0    0 -0.00000000000E+00 -0.00000000000E+00  0.11368683772E-12  0.17120000000E+03  0.17120000000E+03 0.  0.
         13    1    1    2    0    0 -0.11345342177E+03 -0.62144177689E+02  0.42570090334E+03  0.44492117055E+03  0.10566000000E+00 0.  1.
        994    1    1    2    0    0  0.48934388670E+02  0.10966859776E+01  0.32927881635E+02  0.18107860863E+03  0.17120000000E+03 0.  0.
        998    1    1    2    0    0  0.64519033100E+02  0.61047491711E+02  0.10413712113E+04  0.10452002208E+04  0.10000000000E+02 0.  1.
</event>
<event>
 5    1  0.1279376E-008  0.3823093E+03  0.7957747E-01  0.3441165E+00
         13   -1    0    0    0    0  0.00000000000E+00  0.00000000000E+00  0.14999999963E+04  0.15000000000E+04  0.10566000000E+00 0.  1.
        994   -1    0    0    0    0 -0.00000000000E+00 -0.00000000000E+00  0.11368683772E-12  0.17120000000E+03  0.17120000000E+03 0.  0.
         13    1    1    2    0    0  0.80938826760E+01  0.29595040135E+02  0.15517476450E+03  0.15817900000E+03  0.10566000000E+00 0.  1.
        994    1    1    2    0    0 -0.40489134835E+01 -0.19719210382E+02  0.43175398238E+01  0.17243352954E+03  0.17120000000E+03 0.  0.
        998    1    1    2    0    0 -0.40449691925E+01 -0.98758297534E+01  0.13405076920E+04  0.13405874705E+04  0.10000000000E+02 0. -1.
</event>
<event>
 5    1  0.1279376E-008  0.3905479E+03  0.7957747E-01  0.3406479E+00
         13   -1    0    0    0    0  0.00000000000E+00  0.00000000000E+00  0.14999999963E+04  0.15000000000E+04  0.10566000000E+00 0. -1.
        994   -1    0    0    0    0 -0.00000000000E+00 -0.00000000000E+00  0.11368683772E-12  0.17120000000E+03  0.17120000000E+03 0.  0.
         13    1    1    2    0    0  0.98763349742E+01 -0.32620034014E+02  0.16962445309E+02  0.38070255141E+02  0.10566000000E+00 0. -1.
        994    1    1    2    0    0 -0.46750023054E+01  0.29577865051E+02  0.25633951438E+02  0.17567938187E+03  0.17120000000E+03 0.  0.
        998    1    1    2    0    0 -0.52013326688E+01  0.30421689634E+01  0.14574035995E+04  0.14574503630E+04  0.10000000000E+02 0. -1.
</event>
<event>
 5    1  0.1279376E-008  0.3750891E+03  0.7957747E-01  0.3472824E+00
         13   -1    0    0    0    0  0.00000000000E+00  0.00000000000E+00  0.14999999963E+04  0.15000000000E+04  0.10566000000E+00 0.  1.
        994   -1    0    0    0    0 -0.00000000000E+00 -0.00000000000E+00  0.11368683772E-12  0.17120000000E+03  0.17120000000E+03 0.  0.
         13    1    1    2    0    0 -0.40244082216E+02  0.22149909062E+01  0.10985958911E+03  0.11701979671E+03  0.10566000000E+00 0.  1.
        994    1    1    2    0    0  0.44872930485E+02  0.15701906536E+01  0.13514821754E+02  0.17750531202E+03  0.17120000000E+03 0.  0.
        998    1    1    2    0    0 -0.46288482689E+01 -0.37851815599E+01  0.13766255854E+04  0.13766748913E+04  0.10000000000E+02 0.  1.
</event>
<event>
 5    1  0.1279376E-008  0.3855593E+03  0.7957747E-01  0.3427304E+00
         13   -1    0    0    0    0  0.00000000000E+00  0.00000000000E+00  0.14999999963E+04  0.15000000000E+04  0.10566000000E+00 0. -1.
        994   -1    0    0    0    0 -0.00000000000E+00 -0.00000000000E+00  0.11368683772E-12  0.17120000000E+03  0.17120000000E+03 0.  0.
         13    1    1    2    0    0 -0.22490550317E+00  0.14004839962E+02  0.68603838245E+02  0.70019168167E+02  0.10566000000E+00 0. -1.
        994    1    1    2    0    0 -0.56814904838E+01 -0.18090114789E+02  0.25338349417E+01  0.17226546928E+03  0.17120000000E+03 0.  0.
        998    1    1    2    0    0  0.59063959870E+01  0.40852748269E+01  0.14288623231E+04  0.14289153626E+04  0.10000000000E+02 0. -1.
</event>
<event>
 5    1  0.1279376E-008  0.3840754E+03  0.7957747E-01  0.3433603E+00
         13   -1    0    0    0    0  0.00000000000E+00  0.00000000000E+00  0.14999999963E+04  0.15000000000E+04  0.10566000000E+00 0. -1.
        994   -1    0    0    0    0 -0.00000000000E+00 -0.00000000000E+00  0.11368683772E-12  0.17120000000E+03  0.17120000000E+03 0.  0.
         13    1    1    2    0    0  0.38423475993E+01  0.14908142615E+02  0.54406262363E+02  0.56542629048E+02  0.10566000000E+00 0. -1.
        994    1    1    2    0    0  0.10641867521E+01 -0.17561676139E+02  0.31116071965E+01  0.17212979713E+03  0.17120000000E+03 0.  0.
        998    1    1    2    0    0 -0.49065343514E+01  0.26535335244E+01  0.14424821267E+04  0.14425275738E+04  0.10000000000E+02 0. -1.
</event>
<event>
 5    1  0.1279376E-008  0.3785602E+03  0.7957747E-01  0.3457452E+00
         13   -1    0    0    0    0  0.00000000000E+00  0.00000000000E+00  0.14999999963E+04  0.15000000000E+04  0.10566000000E+00 0.  1.
        994   -1    0    0    0    0 -0.00000000000E+00 -0.00000000000E+00  0.11368683772E-12  0.17120000000E+03  0.17120000000E+03 0.  0.
         13    1    1    2    0    0  0.12855259363E+02  0.70266737998E+02  0.36315921058E+03  0.37011794817E+03  0.10566000000E+00 0.  1.
        994    1    1    2    0    0  0.62457074500E+01 -0.83586301481E+02  0.28834846735E+02  0.19278632483E+03  0.17120000000E+03 0.  0.
        998    1    1    2    0    0 -0.19100966813E+02  0.13319563484E+02  0.11080059390E+04  0.11082957270E+04  0.10000000000E+02 0.  1.
</event>
<event>
 5    1  0.1279376E-008  0.2843783E+03  0.7957747E-01  0.4014268E+00
         13   -1    0    0    0    0  0.00000000000E+00  0.00000000000E+00  0.14999999963E+04  0.15000000000E+04  0.10566000000E+00 0.  1.
        994   -1    0    0    0    0 -0.00000000000E+00 -0.00000000000E+00  0.11368683772E-12  0.17120000000E+03  0.17120000000E+03 0.  0.
         13    1    1    2    0    0 -0.37213592098E+02  0.16428480818E+03  0.78698004993E+03  0.80480554160E+03  0.10566000000E+00 0.  1.
        994    1    1    2    0    0 -0.81297727303E+01 -0.27828219229E+02  0.40096660792E+02  0.17820686069E+03  0.17120000000E+03 0.  0.
        998    1    1    2    0    0  0.45343364828E+02 -0.13645658895E+03  0.67292328556E+03  0.68818759771E+03  0.10000000000E+02 0.  1.
</event>
<event>
 5    1  0.1279376E-008  0.3846372E+03  0.7957747E-01  0.3431212E+00
         13   -1    0    0    0    0  0.00000000000E+00  0.00000000000E+00  0.14999999963E+04  0.15000000000E+04  0.10566000000E+00 0.  1.
        994   -1    0    0    0    0 -0.00000000000E+00 -0.00000000000E+00  0.11368683772E-12  0.17120000000E+03  0.17120000000E+03 0.  0.
         13    1    1    2    0    0 -0.17621413514E+02 -0.21613962648E+01  0.80462781775E+02  0.82398156915E+02  0.10566000000E+00 0.  1.
        994    1    1    2    0    0  0.25203770722E+02 -0.13135780548E+02  0.44745025938E+01  0.17360080634E+03  0.17120000000E+03 0.  0.
        998    1    1    2    0    0 -0.75823572089E+01  0.15297176812E+02  0.14150627119E+04  0.14152010367E+04  0.10000000000E+02 0.  1.
</event>
<event>
 5    1  0.1279376E-008  0.3822945E+03  0.7957747E-01  0.3441228E+00
         13   -1    0    0    0    0  0.00000000000E+00  0.00000000000E+00  0.14999999963E+04  0.15000000000E+04  0.10566000000E+00 0. -1.
        994   -1    0    0    0    0 -0.00000000000E+00 -0.00000000000E+00  0.11368683772E-12  0.17120000000E+03  0.17120000000E+03 0.  0.
         13    1    1    2    0    0 -0.15542041490E+02  0.23122776736E+02  0.11714399662E+03  0.12041156492E+03  0.10566000000E+00 0. -1.
        994    1    1    2    0    0  0.27215582706E+02 -0.20936089974E+02  0.69008863057E+01  0.17474572967E+03  0.17120000000E+03 0.  0.
        998    1    1    2    0    0 -0.11673541216E+02 -0.21866867617E+01  0.13759551133E+04  0.13760427054E+04  0.10000000000E+02 0. -1.
</event>
<event>
 5    1  0.1279376E-008  0.3837876E+03  0.7957747E-01  0.3434831E+00
         13   -1    0    0    0    0  0.00000000000E+00  0.00000000000E+00  0.14999999963E+04  0.15000000000E+04  0.10566000000E+00 0.  1.
        994   -1    0    0    0    0 -0.00000000000E+00 -0.00000000000E+00  0.11368683772E-12  0.17120000000E+03  0.17120000000E+03 0.  0.
         13    1    1    2    0    0 -0.85390356623E+01  0.17037630801E+02  0.82633537956E+02  0.84802763826E+02  0.10566000000E+00 0.  1.
        994    1    1    2    0    0  0.21855585072E+02  0.86686302597E+00  0.38144346735E+01  0.17263373935E+03  0.17120000000E+03 0.  0.
        998    1    1    2    0    0 -0.13316549410E+02 -0.17904493827E+02  0.14135520236E+04  0.14137634968E+04  0.10000000000E+02 0.  1.
</event>
<event>
 5    1  0.1279376E-008  0.2909142E+03  0.7957747E-01  0.3963097E+00
         13   -1    0    0    0    0  0.00000000000E+00  0.00000000000E+00  0.14999999963E+04  0.15000000000E+04  0.10566000000E+00 0. -1.
        994   -1    0    0    0    0 -0.00000000000E+00 -0.00000000000E+00  0.11368683772E-12  0.17120000000E+03  0.17120000000E+03 0.  0.
         13    1    1    2    0    0 -0.15785587418E+03 -0.11778898302E+03  0.49346611417E+03  0.53132056099E+03  0.10566000000E+00 0. -1.
        994    1    1    2    0    0  0.21130520979E+03  0.95425933741E+02  0.25136806871E+03  0.38242822396E+03  0.17120000000E+03 0.  0.
        998    1    1    2    0    0 -0.53449335608E+02  0.22363049279E+02  0.75516581340E+03  0.75745121505E+03  0.10000000000E+02 0. -1.
</event>
<event>
 5    1  0.1279376E-008  0.3771218E+03  0.7957747E-01  0.3463787E+00
         13   -1    0    0    0    0  0.00000000000E+00  0.00000000000E+00  0.14999999963E+04  0.15000000000E+04  0.10566000000E+00 0. -1.
        994   -1    0    0    0    0 -0.00000000000E+00 -0.00000000000E+00  0.11368683772E-12  0.17120000000E+03  0.17120000000E+03 0.  0.
         13    1    1    2    0    0  0.89858505338E+01 -0.66319484278E+02  0.33216077782E+03  0.33883596767E+03  0.10566000000E+00 0. -1.
        994    1    1    2    0    0  0.48279823987E+01  0.61142035113E+02  0.18396034358E+02  0.18278269051E+03  0.17120000000E+03 0.  0.
        998    1    1    2    0    0 -0.13813832932E+02  0.51774491658E+01  0.11494431841E+04  0.11495813418E+04  0.10000000000E+02 0. -1.
</event>
<event>
 5    1  0.1279376E-008  0.3849031E+03  0.7957747E-01  0.3430083E+00
         13   -1    0    0    0    0  0.00000000000E+00  0.00000000000E+00  0.14999999963E+04  0.15000000000E+04  0.10566000000E+00 0. -1.
        994   -1    0    0    0    0 -0.00000000000E+00 -0.00000000000E+00  0.11368683772E-12  0.17120000000E+03  0.17120000000E+03 0.  0.
         13    1    1    2    0    0 -0.11590198133E+02  0.36731321407E+01  0.44706713354E+02  0.46330615962E+02  0.10566000000E+00 0. -1.
        994    1    1    2    0    0  0.36583315322E+01 -0.40080802348E+01  0.17751595841E+01  0.17129518174E+03  0.17120000000E+03 0.  0.
        998    1    1    2    0    0  0.79318666007E+01  0.33494809411E+00  0.14535181233E+04  0.14535742023E+04  0.10000000000E+02 0. -1.
</event>
<event>
 5    1  0.1279376E-008  0.3857064E+03  0.7957747E-01  0.3426682E+00
         13   -1    0    0    0    0  0.00000000000E+00  0.00000000000E+00  0.14999999963E+04  0.15000000000E+04  0.10566000000E+00 0. -1.
        994   -1    0    0    0    0 -0.00000000000E+00 -0.00000000000E+00  0.11368683772E-12  0.17120000000E+03  0.17120000000E+03 0.  0.
         13    1    1    2    0    0 -0.20461039222E+01 -0.10556539411E+02  0.44957082633E+02  0.46225290789E+02  0.10566000000E+00 0. -1.
        994    1    1    2    0    0 -0.80098528667E+00  0.95258275713E+01  0.15797170790E+01  0.17147395859E+03  0.17120000000E+03 0.  0.
        998    1    1    2    0    0  0.28470892088E+01  0.10307118399E+01  0.14534631966E+04  0.14535007506E+04  0.10000000000E+02 0. -1.
</event>
<event>
 5    1  0.1279376E-008  0.3856063E+03  0.7957747E-01  0.3427105E+00
         13   -1    0    0    0    0  0.00000000000E+00  0.00000000000E+00  0.14999999963E+04  0.15000000000E+04  0.10566000000E+00 0.  1.
        994   -1    0    0    0    0 -0.00000000000E+00 -0.00000000000E+00  0.11368683772E-12  0.17120000000E+03  0.17120000000E+03 0.  0.
         13    1    1    2    0    0 -0.10220568778E+02 -0.21793003007E+01  0.41097791551E+02  0.42405766240E+02  0.10566000000E+00 0.  1.
        994    1    1    2    0    0  0.81927564708E+01 -0.99679351684E+00  0.15530047186E+01  0.17140585369E+03  0.17120000000E+03 0.  0.
        998    1    1    2    0    0  0.20278123070E+01  0.31760938176E+01  0.14573492000E+04  0.14573883801E+04  0.10000000000E+02 0.  1.
</event>
<event>
 5    1  0.1279376E-008  0.3708345E+03  0.7957747E-01  0.3492065E+00
         13   -1    0    0    0    0  0.00000000000E+00  0.00000000000E+00  0.14999999963E+04  0.15000000000E+04  0.10566000000E+00 0.  1.
        994   -1    0    0    0    0 -0.00000000000E+00 -0.00000000000E+00  0.11368683772E-12  0.17120000000E+03  0.17120000000E+03 0.  0.
         13    1    1    2    0    0 -0.23154719717E+02  0.89941303229E+01  0.22038809999E+02  0.33207766195E+02  0.10566000000E+00 0.  1.
        994    1    1    2    0    0  0.22005928267E+02 -0.85894029127E+01  0.13339767894E+02  0.17333617086E+03  0.17120000000E+03 0.  0.
        998    1    1    2    0    0  0.11487914500E+01 -0.40472741026E+00  0.14646214184E+04  0.14646560629E+04  0.10000000000E+02 0.  0.
</event>
<event>
 5    1  0.1279376E-008  0.3709455E+03  0.7957747E-01  0.3491557E+00
         13   -1    0    0    0    0  0.00000000000E+00  0.00000000000E+00  0.14999999963E+04  0.15000000000E+04  0.10566000000E+00 0. -1.
        994   -1    0    0    0    0 -0.00000000000E+00 -0.00000000000E+00  0.11368683772E-12  0.17120000000E+03  0.17120000000E+03 0.  0.
         13    1    1    2    0    0 -0.55311523648E+02 -0.22589439193E+02  0.24156572659E+03  0.24884464800E+03  0.10566000000E+00 0. -1.
        994    1    1    2    0    0 -0.58048951573E+01  0.27183551871E+02  0.11443163871E+02  0.17381895265E+03  0.17120000000E+03 0.  0.
        998    1    1    2    0    0  0.61116418805E+02 -0.45941126783E+01  0.12469911058E+04  0.12485363994E+04  0.10000000000E+02 0. -1.
</event>
<event>
 5    1  0.1279376E-008  0.3784340E+03  0.7957747E-01  0.3458006E+00
         13   -1    0    0    0    0  0.00000000000E+00  0.00000000000E+00  0.14999999963E+04  0.15000000000E+04  0.10566000000E+00 0. -1.
        994   -1    0    0    0    0 -0.00000000000E+00 -0.00000000000E+00  0.11368683772E-12  0.17120000000E+03  0.17120000000E+03 0.  0.
         13    1    1    2    0    0  0.39904651073E+00  0.20757136000E+02  0.42976419012E+02  0.47728415941E+02  0.10566000000E+00 0. -1.
        994    1    1    2    0    0  0.63600680533E+01 -0.57151620622E+01  0.51714738435E+01  0.17149139245E+03  0.17120000000E+03 0.  0.
        998    1    1    2    0    0 -0.67591145641E+01 -0.15041973938E+02  0.14518521034E+04  0.14519801916E+04  0.10000000000E+02 0. -1.
</event>
<event>
 5    1  0.1279376E-008  0.3852647E+03  0.7957747E-01  0.3428550E+00
         13   -1    0    0    0    0  0.00000000000E+00  0.00000000000E+00  0.14999999963E+04  0.15000000000E+04  0.10566000000E+00 0.  1.
        994   -1    0    0    0    0 -0.00000000000E+00 -0.00000000000E+00  0.11368683772E-12  0.17120000000E+03  0.17120000000E+03 0.  0.
         13    1    1    2    0    0  0.10956744386E+02  0.37221356114E+01  0.49518011389E+02  0.50852228634E+02  0.10566000000E+00 0.  1.
        994    1    1    2    0    0  0.45523744998E+01  0.15770130733E+02  0.23845511213E+01  0.17200159075E+03  0.17120000000E+03 0.  0.
        998    1    1    2    0    0 -0.15509118886E+02 -0.19492266344E+02  0.14480974338E+04  0.14483461806E+04  0.10000000000E+02 0.  1.
</event>
<event>
 5    1  0.1279376E-008  0.3828632E+03  0.7957747E-01  0.3438786E+00
         13   -1    0    0    0    0  0.00000000000E+00  0.00000000000E+00  0.14999999963E+04  0.15000000000E+04  0.10566000000E+00 0.  1.
        994   -1    0    0    0    0 -0.00000000000E+00 -0.00000000000E+00  0.11368683772E-12  0.17120000000E+03  0.17120000000E+03 0.  0.
         13    1    1    2    0    0  0.12471106698E+02  0.15144613073E+02  0.68210027306E+02  0.70975395713E+02  0.10566000000E+00 0.  1.
        994    1    1    2    0    0 -0.15044946677E+02 -0.12663359532E+02  0.39764431893E+01  0.17237158465E+03  0.17120000000E+03 0.  0.
        998    1    1    2    0    0  0.25738399792E+01 -0.24812535412E+01  0.14278135258E+04  0.14278530196E+04  0.10000000000E+02 0.  1.
</event>
<event>
 5    1  0.1279376E-008  0.3762973E+03  0.7957747E-01  0.3467441E+00
         13   -1    0    0    0    0  0.00000000000E+00  0.00000000000E+00  0.14999999963E+04  0.15000000000E+04  0.10566000000E+00 0. -1.
        994   -1    0    0    0    0 -0.00000000000E+00 -0.00000000000E+00  0.11368683772E-12  0.17120000000E+03  0.17120000000E+03 0.  0.
         13    1    1    2    0    0  0.25590009099E+02 -0.41104667062E+02  0.16811751155E+03  0.17495128201E+03  0.10566000000E+00 0. -1.
        994    1    1    2    0    0 -0.30554233299E+02  0.43114481590E+02  0.15523820484E+02  0.17984117631E+03  0.17120000000E+03 0.  0.
        998    1    1    2    0    0  0.49642241999E+01 -0.20098145285E+01  0.13163586642E+04  0.13164075417E+04  0.10000000000E+02 0. -1.
</event>
<event>
 5    1  0.1279376E-008  0.3720383E+03  0.7957747E-01  0.3486575E+00
         13   -1    0    0    0    0  0.00000000000E+00  0.00000000000E+00  0.14999999963E+04  0.15000000000E+04  0.10566000000E+00 0. -1.
        994   -1    0    0    0    0 -0.00000000000E+00 -0.00000000000E+00  0.11368683772E-12  0.17120000000E+03  0.17120000000E+03 0.  0.
         13    1    1    2    0    0  0.35478218170E+02 -0.72474381413E+02  0.26743527583E+03  0.27934365547E+03  0.10566000000E+00 0. -1.
        994    1    1    2    0    0 -0.54857254723E+02  0.27025622964E+02  0.25307688304E+02  0.18354732845E+03  0.17120000000E+03 0.  0.
        998    1    1    2    0    0  0.19379036553E+02  0.45448758449E+02  0.12072570321E+04  0.12083090161E+04  0.10000000000E+02 0. -1.
</event>
<event>
 5    1  0.1279376E-008  0.3701195E+03  0.7957747E-01  0.3495342E+00
         13   -1    0    0    0    0  0.00000000000E+00  0.00000000000E+00  0.14999999963E+04  0.15000000000E+04  0.10566000000E+00 0.  1.
        994   -1    0    0    0    0 -0.00000000000E+00 -0.00000000000E+00  0.11368683772E-12  0.17120000000E+03  0.17120000000E+03 0.  0.
         13    1    1    2    0    0 -0.54844491044E+02 -0.56593851601E+02  0.43626090854E+03  0.44332197523E+03  0.10566000000E+00 0.  1.
        994    1    1    2    0    0 -0.19175582359E+02  0.85299893856E+01  0.12543977274E+02  0.17293714189E+03  0.17120000000E+03 0.  0.
        998    1    1    2    0    0  0.74020073403E+02  0.48063862215E+02  0.10511951105E+04  0.10549408829E+04  0.10000000000E+02 0.  1.
</event>
<event>
 5    1  0.1279376E-008  0.3755963E+03  0.7957747E-01  0.3470560E+00
         13   -1    0    0    0    0  0.00000000000E+00  0.00000000000E+00  0.14999999963E+04  0.15000000000E+04  0.10566000000E+00 0.  1.
        994   -1    0    0    0    0 -0.00000000000E+00 -0.00000000000E+00  0.11368683772E-12  0.17120000000E+03  0.17120000000E+03 0.  0.
         13    1    1    2    0    0 -0.35113274597E+02 -0.30340422416E+02  0.21195618633E+03  0.21697677150E+03  0.10566000000E+00 0.  1.
        994    1    1    2    0    0  0.10638926251E+02 -0.25813962037E+02  0.90218891901E+01  0.17369623448E+03  0.17120000000E+03 0.  0.
        998    1    1    2    0    0  0.24474348347E+02  0.56154384453E+02  0.12790219208E+04  0.12805269940E+04  0.10000000000E+02 0.  1.
</event>
<event>
 5    1  0.1279376E-008  0.3784302E+03  0.7957747E-01  0.3458022E+00
         13   -1    0    0    0    0  0.00000000000E+00  0.00000000000E+00  0.14999999963E+04  0.15000000000E+04  0.10566000000E+00 0.  1.
        994   -1    0    0    0    0 -0.00000000000E+00 -0.00000000000E+00  0.11368683772E-12  0.17120000000E+03  0.17120000000E+03 0.  0.
         13    1    1    2    0    0 -0.16613853166E+02 -0.34463536863E+02  0.40621704488E+02  0.55802235884E+02  0.10566000000E+00 0.  1.
        994    1    1    2    0    0  0.12519222851E+02  0.32616172690E+02  0.19877624528E+02  0.17585535425E+03  0.17120000000E+03 0.  0.
        998    1    1    2    0    0  0.40946303155E+01  0.18473641723E+01  0.14395006673E+04  0.14395424099E+04  0.10000000000E+02 0.  1.
</event>
<event>
 5    1  0.1279376E-008  0.3689202E+03  0.7957747E-01  0.3500868E+00
         13   -1    0    0    0    0  0.00000000000E+00  0.00000000000E+00  0.14999999963E+04  0.15000000000E+04  0.10566000000E+00 0.  1.
        994   -1    0    0    0    0 -0.00000000000E+00 -0.00000000000E+00  0.11368683772E-12  0.17120000000E+03  0.17120000000E+03 0.  0.
         13    1    1    2    0    0 -0.59495698955E+02 -0.15186705006E+02  0.21316926575E+03  0.22183669946E+03  0.10566000000E+00 0.  1.
        994    1    1    2    0    0  0.16074492090E+02 -0.89001135987E+01  0.11007121384E+02  0.17253462852E+03  0.17120000000E+03 0.  0.
        998    1    1    2    0    0  0.43421206865E+02  0.24086818605E+02  0.12758236091E+04  0.12768286720E+04  0.10000000000E+02 0.  1.
</event>
<event>
 5    1  0.1279376E-008  0.3854998E+03  0.7957747E-01  0.3427555E+00
         13   -1    0    0    0    0  0.00000000000E+00  0.00000000000E+00  0.14999999963E+04  0.15000000000E+04  0.10566000000E+00 0. -1.
        994   -1    0    0    0    0 -0.00000000000E+00 -0.00000000000E+00  0.11368683772E-12  0.17120000000E+03  0.17120000000E+03 0.  0.
         13    1    1    2    0    0  0.10373337191E+02 -0.96679946804E+01  0.76709521322E+02  0.78009217860E+02  0.10566000000E+00 0. -1.
        994    1    1    2    0    0  0.21545804597E+01  0.66814623214E+01  0.15440238438E+01  0.17135083357E+03  0.17120000000E+03 0.  0.
        998    1    1    2    0    0 -0.12527917651E+02  0.29865323589E+01  0.14217464511E+04  0.14218399486E+04  0.10000000000E+02 0. -1.
</event>
<event>
 5    1  0.1279376E-008  0.3753248E+03  0.7957747E-01  0.3471771E+00
         13   -1    0    0    0    0  0.00000000000E+00  0.00000000000E+00  0.14999999963E+04  0.15000000000E+04  0.10566000000E+00 0.  1.
        994   -1    0    0    0    0 -0.00000000000E+00 -0.00000000000E+00  0.11368683772E-12  0.17120000000E+03  0.17120000000E+03 0.  0.
         13    1    1    2    0    0 -0.18753672460E+02 -0.82571703542E+01  0.29503968312E+02  0.35921809576E+02  0.10566000000E+00 0.  1.
        994    1    1    2    0    0  0.13521952939E+02  0.57772180227E+01  0.72465174492E+01  0.17198305578E+03  0.17120000000E+03 0.  0.
        998    1    1    2    0    0  0.52317195203E+01  0.24799523314E+01  0.14632495105E+04  0.14632951346E+04  0.10000000000E+02 0.  1.
</event>
<event>
 5    1  0.1279376E-008  0.3830584E+03  0.7957747E-01  0.3437949E+00
         13   -1    0    0    0    0  0.00000000000E+00  0.00000000000E+00  0.14999999963E+04  0.15000000000E+04  0.10566000000E+00 0.  1.
        994   -1    0    0    0    0 -0.00000000000E+00 -0.00000000000E+00  0.11368683772E-12  0.17120000000E+03  0.17120000000E+03 0.  0.
         13    1    1    2    0    0  0.18621848175E+02  0.32855494019E+01  0.64287777000E+02  0.67011174441E+02  0.10566000000E+00 0.  1.
        994    1    1    2    0    0 -0.23538306749E+02 -0.22061694482E+01  0.44490843624E+01  0.17288190599E+03  0.17120000000E+03 0.  0.
        998    1    1    2    0    0  0.49164585739E+01 -0.10793799537E+01  0.14312631349E+04  0.14313069196E+04  0.10000000000E+02 0.  1.
</event>
<event>
 5    1  0.1279376E-008  0.4009066E+03  0.7957747E-01  0.3364890E+00
         13   -1    0    0    0    0  0.00000000000E+00  0.00000000000E+00  0.14999999963E+04  0.15000000000E+04  0.10566000000E+00 0. -1.
        994   -1    0    0    0    0 -0.00000000000E+00 -0.00000000000E+00  0.11368683772E-12  0.17120000000E+03  0.17120000000E+03 0.  0.
         13    1    1    2    0    0 -0.18148817487E+02  0.38704823107E+02  0.22707087672E+02  0.48405225983E+02  0.10566000000E+00 0. -1.
        994    1    1    2    0    0 -0.36233291214E+01 -0.14901669853E+02  0.29248117113E+02  0.17435618897E+03  0.17120000000E+03 0.  0.
        998    1    1    2    0    0  0.21772146608E+02 -0.23803153254E+02  0.14480447915E+04  0.14484385850E+04  0.10000000000E+02 0. -1.
</event>
<event>
 5    1  0.1279376E-008  0.3829937E+03  0.7957747E-01  0.3438226E+00
         13   -1    0    0    0    0  0.00000000000E+00  0.00000000000E+00  0.14999999963E+04  0.15000000000E+04  0.10566000000E+00 0.  1.
        994   -1    0    0    0    0 -0.00000000000E+00 -0.00000000000E+00  0.11368683772E-12  0.17120000000E+03  0.17120000000E+03 0.  0.
         13    1    1    2    0    0  0.77519615770E+01 -0.12170636950E+02  0.39239876505E+02  0.41809046679E+02  0.10566000000E+00 0.  1.
        994    1    1    2    0    0 -0.24114422235E+01  0.63344112051E+01  0.27816174409E+01  0.17135669586E+03  0.17120000000E+03 0.  0.
        998    1    1    2    0    0 -0.53405193534E+01  0.58362257451E+01  0.14579785023E+04  0.14580342575E+04  0.10000000000E+02 0.  1.
</event>
<event>
 5    1  0.1279376E-008  0.3765785E+03  0.7957747E-01  0.3466193E+00
         13   -1    0    0    0    0  0.00000000000E+00  0.00000000000E+00  0.14999999963E+04  0.15000000000E+04  0.10566000000E+00 0.  1.
        994   -1    0    0    0    0 -0.00000000000E+00 -0.00000000000E+00  0.11368683772E-12  0.17120000000E+03  0.17120000000E+03 0.  0.
         13    1    1    2    0    0 -0.59979859648E+02 -0.47916646196E+02  0.37085745361E+03  0.37872001612E+03  0.10566000000E+00 0.  1.
        994    1    1    2    0    0  0.41959568648E+02  0.75648817761E+02  0.31607466741E+02  0.19440118565E+03  0.17120000000E+03 0.  0.
        998    1    1    2    0    0  0.18020291000E+02 -0.27732171565E+02  0.10975350759E+04  0.10980787982E+04  0.10000000000E+02 0. -1.
</event>
<event>
 5    1  0.1279376E-008  0.3780793E+03  0.7957747E-01  0.3459565E+00
         13   -1    0    0    0    0  0.00000000000E+00  0.00000000000E+00  0.14999999963E+04  0.15000000000E+04  0.10566000000E+00 0. -1.
        994   -1    0    0    0    0 -0.00000000000E+00 -0.00000000000E+00  0.11368683772E-12  0.17120000000E+03  0.17120000000E+03 0.  0.
         13    1    1    2    0    0 -0.12581426792E+02 -0.35068216267E+00  0.13150705639E+02  0.18203502436E+02  0.10566000000E+00 0. -1.
        994    1    1    2    0    0  0.12820510235E+02  0.76971720326E+00  0.56610300140E+01  0.17177440207E+03  0.17120000000E+03 0.  0.
        998    1    1    2    0    0 -0.23908344350E+00 -0.41903504059E+00  0.14811882606E+04  0.14812220955E+04  0.10000000000E+02 0. -1.
</event>
<event>
 5    1  0.1279376E-008  0.3740313E+03  0.7957747E-01  0.3477566E+00
         13   -1    0    0    0    0  0.00000000000E+00  0.00000000000E+00  0.14999999963E+04  0.15000000000E+04  0.10566000000E+00 0. -1.
        994   -1    0    0    0    0 -0.00000000000E+00 -0.00000000000E+00  0.11368683772E-12  0.17120000000E+03  0.17120000000E+03 0.  0.
         13    1    1    2    0    0 -0.22591679022E+02 -0.73625615901E+02  0.37629400143E+03  0.38409413163E+03  0.10566000000E+00 0. -1.
        994    1    1    2    0    0 -0.24412505572E+02  0.67867381505E+02  0.25130237774E+02  0.18746445197E+03  0.17120000000E+03 0.  0.
        998    1    1    2    0    0  0.47004184593E+02  0.57582343962E+01  0.10985757571E+04  0.10996414164E+04  0.10000000000E+02 0.  1.
</event>
<event>
 5    1  0.1279376E-008  0.3755082E+03  0.7957747E-01  0.3470953E+00
         13   -1    0    0    0    0  0.00000000000E+00  0.00000000000E+00  0.14999999963E+04  0.15000000000E+04  0.10566000000E+00 0.  1.
        994   -1    0    0    0    0 -0.00000000000E+00 -0.00000000000E+00  0.11368683772E-12  0.17120000000E+03  0.17120000000E+03 0.  0.
         13    1    1    2    0    0  0.49382618656E+02  0.96048274816E+02  0.51841375272E+03  0.52954390214E+03  0.10566000000E+00 0.  1.
        994    1    1    2    0    0 -0.55782521981E+02 -0.10312834890E+03  0.54596367729E+02  0.21456315964E+03  0.17120000000E+03 0.  0.
        998    1    1    2    0    0  0.63999033255E+01  0.70800740789E+01  0.92698987583E+03  0.92709293822E+03  0.10000000000E+02 0.  1.
</event>
<event>
 5    1  0.1279376E-008  0.3841988E+03  0.7957747E-01  0.3433077E+00
         13   -1    0    0    0    0  0.00000000000E+00  0.00000000000E+00  0.14999999963E+04  0.15000000000E+04  0.10566000000E+00 0.  1.
        994   -1    0    0    0    0 -0.00000000000E+00 -0.00000000000E+00  0.11368683772E-12  0.17120000000E+03  0.17120000000E+03 0.  0.
         13    1    1    2    0    0 -0.11916431727E+02  0.41134800718E+01  0.38755211211E+02  0.40754136275E+02  0.10566000000E+00 0.  1.
        994    1    1    2    0    0  0.71144288365E+01 -0.47769628231E+01  0.22706185326E+01  0.17142937374E+03  0.17120000000E+03 0.  0.
        998    1    1    2    0    0  0.48020028910E+01  0.66348275134E+00  0.14589741665E+04  0.14590164900E+04  0.10000000000E+02 0.  1.
</event>
<event>
 5    1  0.1279376E-008  0.3731300E+03  0.7957747E-01  0.3481628E+00
         13   -1    0    0    0    0  0.00000000000E+00  0.00000000000E+00  0.14999999963E+04  0.15000000000E+04  0.10566000000E+00 0. -1.
        994   -1    0    0    0    0 -0.00000000000E+00 -0.00000000000E+00  0.11368683772E-12  0.17120000000E+03  0.17120000000E+03 0.  0.
         13    1    1    2    0    0 -0.45337750061E+02 -0.31828069641E+00  0.19186579019E+03  0.19714995686E+03  0.10566000000E+00 0. -1.
        994    1    1    2    0    0 -0.34611384043E+02  0.55036853411E+02  0.22242808301E+02  0.18447543376E+03  0.17120000000E+03 0.  0.
        998    1    1    2    0    0  0.79949134104E+02 -0.54718572714E+02  0.12858913978E+04  0.12895746094E+04  0.10000000000E+02 0. -1.
</event>
<event>
 5    1  0.1279376E-008  0.3785808E+03  0.7957747E-01  0.3457361E+00
         13   -1    0    0    0    0  0.00000000000E+00  0.00000000000E+00  0.14999999963E+04  0.15000000000E+04  0.10566000000E+00 0.  1.
        994   -1    0    0    0    0 -0.00000000000E+00 -0.00000000000E+00  0.11368683772E-12  0.17120000000E+03  0.17120000000E+03 0.  0.
         13    1    1    2    0    0 -0.27552980875E+02 -0.12244849940E+02  0.23089579344E+02  0.37976873798E+02  0.10566000000E+00 0.  1.
        994    1    1    2    0    0  0.11365010358E+02  0.19043226812E+02  0.17324669324E+02  0.17349752769E+03  0.17120000000E+03 0.  0.
        998    1    1    2    0    0  0.16187970518E+02 -0.67983768716E+01  0.14595857476E+04  0.14597255985E+04  0.10000000000E+02 0.  1.
</event>
<event>
 5    1  0.1279376E-008  0.3824612E+03  0.7957747E-01  0.3440511E+00
         13   -1    0    0    0    0  0.00000000000E+00  0.00000000000E+00  0.14999999963E+04  0.15000000000E+04  0.10566000000E+00 0.  1.
        994   -1    0    0    0    0 -0.00000000000E+00 -0.00000000000E+00  0.11368683772E-12  0.17120000000E+03  0.17120000000E+03 0.  0.
         13    1    1    2    0    0 -0.88278854665E+01  0.50887426505E+01  0.16551400044E+02  0.19436740236E+02  0.10566000000E+00 0.  1.
        994    1    1    2    0    0  0.85349796446E+01 -0.91929866179E+01  0.34178156888E+01  0.17169297698E+03  0.17120000000E+03 0.  0.
        998    1    1    2    0    0  0.29290582184E+00  0.41042439673E+01  0.14800307805E+04  0.14800702828E+04  0.10000000000E+02 0.  1.
</event>
<event>
 5    1  0.2550988E-008  0.3864842E+03  0.7957747E-01  0.3423402E+00
         13   -1    0    0    0    0  0.00000000000E+00  0.00000000000E+00  0.14999999963E+04  0.15000000000E+04  0.10566000000E+00 0.  1.
        994   -1    0    0    0    0 -0.00000000000E+00 -0.00000000000E+00  0.11368683772E-12  0.17120000000E+03  0.17120000000E+03 0.  0.
         13    1    1    2    0    0 -0.88462494741E+01 -0.59267448302E+01  0.63130200008E+02  0.64021994277E+02  0.10566000000E+00 0.  1.
        994    1    1    2    0    0  0.93095540363E+01  0.42142596417E+01  0.12368907262E+01  0.17150917666E+03  0.17120000000E+03 0.  0.
        998    1    1    2    0    0 -0.46330456213E+00  0.17124851885E+01  0.14356329055E+04  0.14356688291E+04  0.10000000000E+02 0.  1.
</event>
<event>
 5    1  0.1279376E-008  0.3830708E+03  0.7957747E-01  0.3437895E+00
         13   -1    0    0    0    0  0.00000000000E+00  0.00000000000E+00  0.14999999963E+04  0.15000000000E+04  0.10566000000E+00 0. -1.
        994   -1    0    0    0    0 -0.00000000000E+00 -0.00000000000E+00  0.11368683772E-12  0.17120000000E+03  0.17120000000E+03 0.  0.
         13    1    1    2    0    0  0.14196863617E+02  0.44977355516E+01  0.42107427188E+02  0.44663487885E+02  0.10566000000E+00 0. -1.
        994    1    1    2    0    0 -0.11240731449E+02  0.44481718887E+01  0.30747537327E+01  0.17165382136E+03  0.17120000000E+03 0.  0.
        998    1    1    2    0    0 -0.29561321679E+01 -0.89459074402E+01  0.14548178154E+04  0.14548826908E+04  0.10000000000E+02 0. -1.
</event>
<event>
 5    1  0.1279376E-008  0.3837724E+03  0.7957747E-01  0.3434895E+00
         13   -1    0    0    0    0  0.00000000000E+00  0.00000000000E+00  0.14999999963E+04  0.15000000000E+04  0.10566000000E+00 0. -1.
        994   -1    0    0    0    0 -0.00000000000E+00 -0.00000000000E+00  0.11368683772E-12  0.17120000000E+03  0.17120000000E+03 0.  0.
         13    1    1    2    0    0  0.37297411549E+02  0.43947166375E+02  0.79319151680E+02  0.98050952713E+02  0.10566000000E+00 0. -1.
        994    1    1    2    0    0 -0.36648063688E+02 -0.46831784393E+02  0.31526524647E+02  0.18395558800E+03  0.17120000000E+03 0.  0.
        998    1    1    2    0    0 -0.64934786161E+00  0.28846180174E+01  0.13891543200E+04  0.13891934593E+04  0.10000000000E+02 0. -1.
</event>
<event>
 5    1  0.1279376E-008  0.3754279E+03  0.7957747E-01  0.3471311E+00
         13   -1    0    0    0    0  0.00000000000E+00  0.00000000000E+00  0.14999999963E+04  0.15000000000E+04  0.10566000000E+00 0. -1.
        994   -1    0    0    0    0 -0.00000000000E+00 -0.00000000000E+00  0.11368683772E-12  0.17120000000E+03  0.17120000000E+03 0.  0.
         13    1    1    2    0    0  0.29225177486E+02 -0.29702434236E+02  0.12247563206E+03  0.12937015580E+03  0.10566000000E+00 0. -1.
        994    1    1    2    0    0 -0.35185105562E+02  0.23304135518E+02  0.12528733212E+02  0.17676957753E+03  0.17120000000E+03 0.  0.
        998    1    1    2    0    0  0.59599280759E+01  0.63982987182E+01  0.13649956310E+04  0.13650602667E+04  0.10000000000E+02 0. -1.
</event>
<event>
 5    1  0.1279376E-008  0.3820983E+03  0.7957747E-01  0.3442073E+00
         13   -1    0    0    0    0  0.00000000000E+00  0.00000000000E+00  0.14999999963E+04  0.15000000000E+04  0.10566000000E+00 0. -1.
        994   -1    0    0    0    0 -0.00000000000E+00 -0.00000000000E+00  0.11368683772E-12  0.17120000000E+03  0.17120000000E+03 0.  0.
         13    1    1    2    0    0 -0.24254445197E+02  0.18994400104E+02  0.17411735247E+03  0.17682174341E+03  0.10566000000E+00 0. -1.
        994    1    1    2    0    0 -0.43830491891E+01 -0.94310492790E+01  0.34368057711E+01  0.17155001441E+03  0.17120000000E+03 0.  0.
        998    1    1    2    0    0  0.28637494386E+02 -0.95633508250E+01  0.13224458380E+04  0.13228282422E+04  0.10000000000E+02 0. -1.
</event>
<event>
 5    1  0.1279376E-008  0.3806997E+03  0.7957747E-01  0.3448117E+00
         13   -1    0    0    0    0  0.00000000000E+00  0.00000000000E+00  0.14999999963E+04  0.15000000000E+04  0.10566000000E+00 0.  1.
        994   -1    0    0    0    0 -0.00000000000E+00 -0.00000000000E+00  0.11368683772E-12  0.17120000000E+03  0.17120000000E+03 0.  0.
         13    1    1    2    0    0  0.15474271895E+01 -0.10228532268E+02  0.12555497089E+02  0.16268653124E+02  0.10566000000E+00 0.  1.
        994    1    1    2    0    0 -0.12018324000E+01  0.62154175172E+01  0.39140328573E+01  0.17136170946E+03  0.17120000000E+03 0.  0.
        998    1    1    2    0    0 -0.34559478947E+00  0.40131147512E+01  0.14835304663E+04  0.14835696374E+04  0.10000000000E+02 0.  1.
</event>
<event>
 5    1  0.1279376E-008  0.3812899E+03  0.7957747E-01  0.3445561E+00
         13   -1    0    0    0    0  0.00000000000E+00  0.00000000000E+00  0.14999999963E+04  0.15000000000E+04  0.10566000000E+00 0. -1.
        994   -1    0    0    0    0 -0.00000000000E+00 -0.00000000000E+00  0.11368683772E-12  0.17120000000E+03  0.17120000000E+03 0.  0.
         13    1    1    2    0    0 -0.30559307079E+02 -0.60454499951E+01  0.16336736967E+03  0.16631093576E+03  0.10566000000E+00 0. -1.
        994    1    1    2    0    0 -0.78000041054E+01  0.20401212136E+02  0.50730252854E+01  0.17266217045E+03  0.17120000000E+03 0.  0.
        998    1    1    2    0    0  0.38359311185E+02 -0.14355762141E+02  0.13315596013E+04  0.13322268938E+04  0.10000000000E+02 0. -1.
</event>
