<event>
 5    1  0.1129619E-008  0.3757736E+03  0.7957747E-01  0.3469770E+00
         13   -1    0    0    0    0  0.00000000000E+00  0.00000000000E+00  0.14999999963E+04  0.15000000000E+04  0.10566000000E+00 0.  1.
        994   -1    0    0    0    0 -0.00000000000E+00 -0.00000000000E+00  0.11368683772E-12  0.17120000000E+03  0.17120000000E+03 0.  0.
         13    1    1    2    0    0 -0.64171329526E+01  0.55530615547E+02  0.29960430273E+03  0.30477463516E+03  0.10566000000E+00 0.  1.
        994    1    1    2    0    0 -0.57164150360E+02 -0.20093874481E+02  0.18832995898E+02  0.18258046339E+03  0.17120000000E+03 0.  0.
        998    1    1    2    0    0  0.63581283313E+02 -0.35436741066E+02  0.11815626976E+04  0.11838449014E+04  0.10000000000E+02 0.  1.
</event>
<event>
 5    1  0.1129619E-008  0.3760414E+03  0.7957747E-01  0.3468578E+00
         13   -1    0    0    0    0  0.00000000000E+00  0.00000000000E+00  0.14999999963E+04  0.15000000000E+04  0.10566000000E+00 0.  1.
        994   -1    0    0    0    0 -0.00000000000E+00 -0.00000000000E+00  0.11368683772E-12  0.17120000000E+03  0.17120000000E+03 0.  0.
         13    1    1    2    0    0 -0.22836945308E+01  0.22270719084E+02  0.12319844736E+02  0.25553667595E+02  0.10566000000E+00 0.  1.
        994    1    1    2    0    0  0.27222333256E+01  0.10164126995E+02  0.14565212793E+02  0.17214036556E+03  0.17120000000E+03 0.  0.
        998    1    1    2    0    0 -0.43853879477E+00 -0.32434846079E+02  0.14731149387E+04  0.14735059668E+04  0.10000000000E+02 0.  1.
</event>
<event>
 5    1  0.1129619E-008  0.3813622E+03  0.7957747E-01  0.3445248E+00
         13   -1    0    0    0    0  0.00000000000E+00  0.00000000000E+00  0.14999999963E+04  0.15000000000E+04  0.10566000000E+00 0. -1.
        994   -1    0    0    0    0 -0.00000000000E+00 -0.00000000000E+00  0.11368683772E-12  0.17120000000E+03  0.17120000000E+03 0.  0.
         13    1    1    2    0    0 -0.25843732157E+02 -0.12946307222E+02  0.11698504512E+03  0.12050318381E+03  0.10566000000E+00 0. -1.
        994    1    1    2    0    0  0.33949678130E+02 -0.17084350607E+02  0.82690843636E+01  0.17556273362E+03  0.17120000000E+03 0.  0.
        998    1    1    2    0    0 -0.81059459730E+01  0.30030657829E+02  0.13747458668E+04  0.13751340826E+04  0.10000000000E+02 0. -1.
</event>
<event>
 5    1  0.1129619E-008  0.3769302E+03  0.7957747E-01  0.3464635E+00
         13   -1    0    0    0    0  0.00000000000E+00  0.00000000000E+00  0.14999999963E+04  0.15000000000E+04  0.10566000000E+00 0.  1.
        994   -1    0    0    0    0 -0.00000000000E+00 -0.00000000000E+00  0.11368683772E-12  0.17120000000E+03  0.17120000000E+03 0.  0.
         13    1    1    2    0    0 -0.37296167864E+02  0.17816052823E+01  0.11911145776E+03  0.12482679516E+03  0.10566000000E+00 0.  1.
        994    1    1    2    0    0  0.24168240290E+02 -0.17025090853E+02  0.86480223704E+01  0.17394880238E+03  0.17120000000E+03 0.  0.
        998    1    1    2    0    0  0.13127927574E+02  0.15243485571E+02  0.13722405161E+04  0.13724244025E+04  0.10000000000E+02 0.  1.
</event>
<event>
 5    1  0.1129619E-008  0.3783722E+03  0.7957747E-01  0.3458277E+00
         13   -1    0    0    0    0  0.00000000000E+00  0.00000000000E+00  0.14999999963E+04  0.15000000000E+04  0.10566000000E+00 0. -1.
        994   -1    0    0    0    0 -0.00000000000E+00 -0.00000000000E+00  0.11368683772E-12  0.17120000000E+03  0.17120000000E+03 0.  0.
         13    1    1    2    0    0  0.92583079821E+02  0.10316067312E+03  0.78798795461E+03  0.80008673213E+03  0.10566000000E+00 0. -1.
        994    1    1    2    0    0 -0.97008086835E+02 -0.10404937405E+03  0.76296207502E+02  0.23530276758E+03  0.17120000000E+03 0.  0.
        998    1    1    2    0    0  0.44250070137E+01  0.88870093264E+00  0.63571583417E+03  0.63581050029E+03  0.10000000000E+02 0. -1.
</event>
<event>
 5    1  0.1129619E-008  0.3805489E+03  0.7957747E-01  0.3448772E+00
         13   -1    0    0    0    0  0.00000000000E+00  0.00000000000E+00  0.14999999963E+04  0.15000000000E+04  0.10566000000E+00 0.  1.
        994   -1    0    0    0    0 -0.00000000000E+00 -0.00000000000E+00  0.11368683772E-12  0.17120000000E+03  0.17120000000E+03 0.  0.
         13    1    1    2    0    0 -0.12950253929E+02 -0.14539037211E+02  0.49393422046E+02  0.53092504041E+02  0.10566000000E+00 0.  1.
        994    1    1    2    0    0  0.65921989615E+01 -0.70338720696E+00  0.40029842255E+01  0.17137507323E+03  0.17120000000E+03 0.  0.
        998    1    1    2    0    0  0.63580549675E+01  0.15242424418E+02  0.14466035900E+04  0.14467324227E+04  0.10000000000E+02 0.  1.
</event>
<event>
 5    1  0.1129619E-008  0.3778145E+03  0.7957747E-01  0.3460730E+00
         13   -1    0    0    0    0  0.00000000000E+00  0.00000000000E+00  0.14999999963E+04  0.15000000000E+04  0.10566000000E+00 0. -1.
        994   -1    0    0    0    0 -0.00000000000E+00 -0.00000000000E+00  0.11368683772E-12  0.17120000000E+03  0.17120000000E+03 0.  0.
         13    1    1    2    0    0 -0.45181915481E+01  0.35667941604E+02  0.11810671208E+03  0.12345777705E+03  0.10566000000E+00 0. -1.
        994    1    1    2    0    0  0.31494381518E+02 -0.23978936033E+02  0.10534735910E+02  0.17603211668E+03  0.17120000000E+03 0.  0.
        998    1    1    2    0    0 -0.26976189970E+02 -0.11689005571E+02  0.13713585483E+04  0.13717101063E+04  0.10000000000E+02 0. -1.
</event>
<event>
 5    1  0.1129619E-008  0.3833191E+03  0.7957747E-01  0.3436832E+00
         13   -1    0    0    0    0  0.00000000000E+00  0.00000000000E+00  0.14999999963E+04  0.15000000000E+04  0.10566000000E+00 0.  1.
        994   -1    0    0    0    0 -0.00000000000E+00 -0.00000000000E+00  0.11368683772E-12  0.17120000000E+03  0.17120000000E+03 0.  0.
         13    1    1    2    0    0 -0.72037904925E+01 -0.20176830912E+02  0.82658398543E+02  0.85389818578E+02  0.10566000000E+00 0.  1.
        994    1    1    2    0    0  0.16513137712E+02  0.28837295362E+02  0.61269984695E+01  0.17450287514E+03  0.17120000000E+03 0.  0.
        998    1    1    2    0    0 -0.93093472195E+01 -0.86604644508E+01  0.14112145993E+04  0.14113073063E+04  0.10000000000E+02 0.  1.
</event>
<event>
 5    1  0.1129619E-008  0.3852639E+03  0.7957747E-01  0.3428554E+00
         13   -1    0    0    0    0  0.00000000000E+00  0.00000000000E+00  0.14999999963E+04  0.15000000000E+04  0.10566000000E+00 0. -1.
        994   -1    0    0    0    0 -0.00000000000E+00 -0.00000000000E+00  0.11368683772E-12  0.17120000000E+03  0.17120000000E+03 0.  0.
         13    1    1    2    0    0 -0.10639227386E+02 -0.32610601867E+01  0.36133908744E+02  0.37808705321E+02  0.10566000000E+00 0. -1.
        994    1    1    2    0    0  0.32754395694E+02  0.11846046721E+02  0.54956634266E+01  0.17479365428E+03  0.17120000000E+03 0.  0.
        998    1    1    2    0    0 -0.22115168308E+02 -0.85849865340E+01  0.14583704241E+04  0.14585976404E+04  0.10000000000E+02 0. -1.
</event>
<event>
 5    1  0.1129619E-008  0.3730957E+03  0.7957747E-01  0.3481784E+00
         13   -1    0    0    0    0  0.00000000000E+00  0.00000000000E+00  0.14999999963E+04  0.15000000000E+04  0.10566000000E+00 0.  1.
        994   -1    0    0    0    0 -0.00000000000E+00 -0.00000000000E+00  0.11368683772E-12  0.17120000000E+03  0.17120000000E+03 0.  0.
         13    1    1    2    0    0 -0.20970462101E+02  0.97732067940E+02  0.53737135521E+03  0.54658878689E+03  0.10566000000E+00 0.  1.
        994    1    1    2    0    0  0.66158877621E+02 -0.69781071317E+02  0.39986823763E+02  0.20038657908E+03  0.17120000000E+03 0.  0.
        998    1    1    2    0    0 -0.45188415520E+02 -0.27950996623E+02  0.92264181730E+03  0.92422463403E+03  0.10000000000E+02 0.  1.
</event>
<event>
 5    1  0.1129619E-008  0.3803259E+03  0.7957747E-01  0.3449741E+00
         13   -1    0    0    0    0  0.00000000000E+00  0.00000000000E+00  0.14999999963E+04  0.15000000000E+04  0.10566000000E+00 0. -1.
        994   -1    0    0    0    0 -0.00000000000E+00 -0.00000000000E+00  0.11368683772E-12  0.17120000000E+03  0.17120000000E+03 0.  0.
         13    1    1    2    0    0 -0.11989185219E+02  0.17412653097E+02  0.54793957022E+02  0.58730996418E+02  0.10566000000E+00 0. -1.
        994    1    1    2    0    0  0.18031440314E+02 -0.46127870481E+01  0.51263381598E+01  0.17228502543E+03  0.17120000000E+03 0.  0.
        998    1    1    2    0    0 -0.60422550957E+01 -0.12799866049E+02  0.14400797011E+04  0.14401839782E+04  0.10000000000E+02 0. -1.
</event>
<event>
 5    1  0.1129619E-008  0.3857870E+03  0.7957747E-01  0.3426341E+00
         13   -1    0    0    0    0  0.00000000000E+00  0.00000000000E+00  0.14999999963E+04  0.15000000000E+04  0.10566000000E+00 0.  1.
        994   -1    0    0    0    0 -0.00000000000E+00 -0.00000000000E+00  0.11368683772E-12  0.17120000000E+03  0.17120000000E+03 0.  0.
         13    1    1    2    0    0  0.53955767161E+01  0.94894387145E+01  0.47307997959E+02  0.48551205239E+02  0.10566000000E+00 0.  1.
        994    1    1    2    0    0 -0.63815627504E+01 -0.92704478438E+01  0.16555356269E+01  0.17157752284E+03  0.17120000000E+03 0.  0.
        998    1    1    2    0    0  0.98598603434E+00 -0.21899087068E+00  0.14510364627E+04  0.14510712719E+04  0.10000000000E+02 0.  1.
</event>
<event>
 5    1  0.1129619E-008  0.3777753E+03  0.7957747E-01  0.3460903E+00
         13   -1    0    0    0    0  0.00000000000E+00  0.00000000000E+00  0.14999999963E+04  0.15000000000E+04  0.10566000000E+00 0.  1.
        994   -1    0    0    0    0 -0.00000000000E+00 -0.00000000000E+00  0.11368683772E-12  0.17120000000E+03  0.17120000000E+03 0.  0.
         13    1    1    2    0    0 -0.23278502715E+02 -0.19432618655E+02  0.82529106781E+02  0.87923716860E+02  0.10566000000E+00 0.  1.
        994    1    1    2    0    0  0.22977419395E+02  0.14799843006E+02  0.77801276276E+01  0.17354240848E+03  0.17120000000E+03 0.  0.
        998    1    1    2    0    0  0.30108332047E+00  0.46327756492E+01  0.14096907619E+04  0.14097338747E+04  0.10000000000E+02 0.  1.
</event>
<event>
 5    1  0.1129619E-008  0.3725679E+03  0.7957747E-01  0.3484172E+00
         13   -1    0    0    0    0  0.00000000000E+00  0.00000000000E+00  0.14999999963E+04  0.15000000000E+04  0.10566000000E+00 0. -1.
        994   -1    0    0    0    0 -0.00000000000E+00 -0.00000000000E+00  0.11368683772E-12  0.17120000000E+03  0.17120000000E+03 0.  0.
         13    1    1    2    0    0  0.30240081520E+02 -0.81121893078E+02  0.42665393042E+03  0.43534906865E+03  0.10566000000E+00 0. -1.
        994    1    1    2    0    0 -0.10087559981E+03  0.39994996326E+02  0.49436919979E+02  0.20863589199E+03  0.17120000000E+03 0.  0.
        998    1    1    2    0    0  0.70635518289E+02  0.41126896752E+02  0.10239091459E+04  0.10272150394E+04  0.10000000000E+02 0. -1.
</event>
<event>
 5    1  0.1129619E-008  0.3790159E+03  0.7957747E-01  0.3455455E+00
         13   -1    0    0    0    0  0.00000000000E+00  0.00000000000E+00  0.14999999963E+04  0.15000000000E+04  0.10566000000E+00 0.  1.
        994   -1    0    0    0    0 -0.00000000000E+00 -0.00000000000E+00  0.11368683772E-12  0.17120000000E+03  0.17120000000E+03 0.  0.
         13    1    1    2    0    0  0.56452365524E+01  0.11032990316E+02  0.14000010032E+02  0.18697781044E+02  0.10566000000E+00 0.  1.
        994    1    1    2    0    0 -0.12245907461E+02 -0.22092743484E+02  0.67735875776E+01  0.17318594935E+03  0.17120000000E+03 0.  0.
        998    1    1    2    0    0  0.66006709087E+01  0.11059753168E+02  0.14792263987E+04  0.14793162696E+04  0.10000000000E+02 0.  1.
</event>
<event>
 5    1  0.1129619E-008  0.3743106E+03  0.7957747E-01  0.3476312E+00
         13   -1    0    0    0    0  0.00000000000E+00  0.00000000000E+00  0.14999999963E+04  0.15000000000E+04  0.10566000000E+00 0.  1.
        994   -1    0    0    0    0 -0.00000000000E+00 -0.00000000000E+00  0.11368683772E-12  0.17120000000E+03  0.17120000000E+03 0.  0.
         13    1    1    2    0    0  0.26131306150E+02  0.27723794024E+02  0.47912860323E+02  0.61213619927E+02  0.10566000000E+00 0.  1.
        994    1    1    2    0    0 -0.29056904427E+02 -0.28915581572E+02  0.19225161091E+02  0.17708602817E+03  0.17120000000E+03 0.  0.
        998    1    1    2    0    0  0.29255982768E+01  0.11917875479E+01  0.14328619749E+04  0.14329003519E+04  0.10000000000E+02 0.  1.
</event>
<event>
 5    1  0.1129619E-008  0.3847915E+03  0.7957747E-01  0.3430557E+00
         13   -1    0    0    0    0  0.00000000000E+00  0.00000000000E+00  0.14999999963E+04  0.15000000000E+04  0.10566000000E+00 0. -1.
        994   -1    0    0    0    0 -0.00000000000E+00 -0.00000000000E+00  0.11368683772E-12  0.17120000000E+03  0.17120000000E+03 0.  0.
         13    1    1    2    0    0 -0.25885820025E+01 -0.11233381271E+02  0.37527612457E+02  0.39258406390E+02  0.10566000000E+00 0. -1.
        994    1    1    2    0    0  0.22572821369E+01  0.10687180014E+02  0.21264483651E+01  0.17156128037E+03  0.17120000000E+03 0.  0.
        998    1    1    2    0    0  0.33129986558E+00  0.54620125723E+00  0.14603459355E+04  0.14603803132E+04  0.10000000000E+02 0. -1.
</event>
<event>
 5    1  0.1129619E-008  0.3831684E+03  0.7957747E-01  0.3437477E+00
         13   -1    0    0    0    0  0.00000000000E+00  0.00000000000E+00  0.14999999963E+04  0.15000000000E+04  0.10566000000E+00 0.  1.
        994   -1    0    0    0    0 -0.00000000000E+00 -0.00000000000E+00  0.11368683772E-12  0.17120000000E+03  0.17120000000E+03 0.  0.
         13    1    1    2    0    0  0.71859989175E+00 -0.12965196684E+02  0.33149977660E+02  0.35602596727E+02  0.10566000000E+00 0.  1.
        994    1    1    2    0    0 -0.17066735634E+02  0.15144599529E+01  0.35140199874E+01  0.17209112525E+03  0.17120000000E+03 0.  0.
        998    1    1    2    0    0  0.16348135743E+02  0.11450736731E+02  0.14633359986E+04  0.14635062780E+04  0.10000000000E+02 0.  1.
</event>
<event>
 5    1  0.1129619E-008  0.3721649E+03  0.7957747E-01  0.3486000E+00
         13   -1    0    0    0    0  0.00000000000E+00  0.00000000000E+00  0.14999999963E+04  0.15000000000E+04  0.10566000000E+00 0.  1.
        994   -1    0    0    0    0 -0.00000000000E+00 -0.00000000000E+00  0.11368683772E-12  0.17120000000E+03  0.17120000000E+03 0.  0.
         13    1    1    2    0    0 -0.46339549931E+02  0.55531954813E+02  0.25870119064E+03  0.26862142338E+03  0.10566000000E+00 0.  1.
        994    1    1    2    0    0  0.51336647298E+02 -0.55173096124E+02  0.27893447613E+02  0.18912167066E+03  0.17120000000E+03 0.  0.
        998    1    1    2    0    0 -0.49970973674E+01 -0.35885868902E+00  0.12134053580E+04  0.12134569060E+04  0.10000000000E+02 0.  1.
</event>
<event>
 5    1  0.1129619E-008  0.3786620E+03  0.7957747E-01  0.3457005E+00
         13   -1    0    0    0    0  0.00000000000E+00  0.00000000000E+00  0.14999999963E+04  0.15000000000E+04  0.10566000000E+00 0.  1.
        994   -1    0    0    0    0 -0.00000000000E+00 -0.00000000000E+00  0.11368683772E-12  0.17120000000E+03  0.17120000000E+03 0.  0.
         13    1    1    2    0    0  0.71486649113E+02 -0.79423069094E+02  0.57971876883E+03  0.58948471312E+03  0.10566000000E+00 0.  1.
        994    1    1    2    0    0 -0.78126272141E+02  0.92306810735E+02  0.55597106674E+02  0.21685188488E+03  0.17120000000E+03 0.  0.
        998    1    1    2    0    0  0.66396230277E+01 -0.12883741641E+02  0.86468412077E+03  0.86486340199E+03  0.10000000000E+02 0. -1.
</event>
<event>
 5    1  0.1129619E-008  0.3814690E+03  0.7957747E-01  0.3444787E+00
         13   -1    0    0    0    0  0.00000000000E+00  0.00000000000E+00  0.14999999963E+04  0.15000000000E+04  0.10566000000E+00 0.  1.
        994   -1    0    0    0    0 -0.00000000000E+00 -0.00000000000E+00  0.11368683772E-12  0.17120000000E+03  0.17120000000E+03 0.  0.
         13    1    1    2    0    0  0.11410886406E+02 -0.24315561309E+01  0.18537257042E+02  0.21903466769E+02  0.10566000000E+00 0.  1.
        994    1    1    2    0    0 -0.10965199611E+02  0.80232162499E+00  0.37956653573E+01  0.17159465725E+03  0.17120000000E+03 0.  0.
        998    1    1    2    0    0 -0.44568679553E+00  0.16292345059E+01  0.14776670739E+04  0.14777018760E+04  0.10000000000E+02 0.  0.
</event>
<event>
 5    1  0.1129619E-008  0.3828620E+03  0.7957747E-01  0.3438791E+00
         13   -1    0    0    0    0  0.00000000000E+00  0.00000000000E+00  0.14999999963E+04  0.15000000000E+04  0.10566000000E+00 0. -1.
        994   -1    0    0    0    0 -0.00000000000E+00 -0.00000000000E+00  0.11368683772E-12  0.17120000000E+03  0.17120000000E+03 0.  0.
         13    1    1    2    0    0 -0.37462643565E+01  0.24058085936E+02  0.10986735714E+03  0.11253298772E+03  0.10566000000E+00 0. -1.
        994    1    1    2    0    0  0.18847005471E+02 -0.11571484413E+02  0.43167509856E+01  0.17267652766E+03  0.17120000000E+03 0.  0.
        998    1    1    2    0    0 -0.15100741114E+02 -0.12486601523E+02  0.13858158881E+04  0.13859904846E+04  0.10000000000E+02 0. -1.
</event>
<event>
 5    1  0.1129619E-008  0.3755834E+03  0.7957747E-01  0.3470618E+00
         13   -1    0    0    0    0  0.00000000000E+00  0.00000000000E+00  0.14999999963E+04  0.15000000000E+04  0.10566000000E+00 0. -1.
        994   -1    0    0    0    0 -0.00000000000E+00 -0.00000000000E+00  0.11368683772E-12  0.17120000000E+03  0.17120000000E+03 0.  0.
         13    1    1    2    0    0  0.92798530491E+02 -0.99337882422E+02  0.81967292340E+03  0.83086899970E+03  0.10566000000E+00 0. -1.
        994    1    1    2    0    0 -0.75479979101E+02  0.94676973030E+02  0.57862853153E+02  0.21752817344E+03  0.17120000000E+03 0.  0.
        998    1    1    2    0    0 -0.17318551390E+02  0.46609093926E+01  0.62246421973E+03  0.62280282686E+03  0.10000000000E+02 0. -1.
</event>
<event>
 5    1  0.1129619E-008  0.3792868E+03  0.7957747E-01  0.3454270E+00
         13   -1    0    0    0    0  0.00000000000E+00  0.00000000000E+00  0.14999999963E+04  0.15000000000E+04  0.10566000000E+00 0.  1.
        994   -1    0    0    0    0 -0.00000000000E+00 -0.00000000000E+00  0.11368683772E-12  0.17120000000E+03  0.17120000000E+03 0.  0.
         13    1    1    2    0    0 -0.16059800414E+02  0.64500423229E+01  0.31222728331E+02  0.35698601706E+02  0.10566000000E+00 0.  1.
        994    1    1    2    0    0  0.95887851056E+01 -0.16307600814E+02  0.56936868624E+01  0.17233612713E+03  0.17120000000E+03 0.  0.
        998    1    1    2    0    0  0.64710153085E+01  0.98575584912E+01  0.14630835811E+04  0.14631652712E+04  0.10000000000E+02 0.  1.
</event>
<event>
 5    1  0.1129619E-008  0.3804642E+03  0.7957747E-01  0.3449140E+00
         13   -1    0    0    0    0  0.00000000000E+00  0.00000000000E+00  0.14999999963E+04  0.15000000000E+04  0.10566000000E+00 0. -1.
        994   -1    0    0    0    0 -0.00000000000E+00 -0.00000000000E+00  0.11368683772E-12  0.17120000000E+03  0.17120000000E+03 0.  0.
         13    1    1    2    0    0 -0.13061894544E+02  0.67016611518E+00  0.19787765017E+02  0.23719802278E+02  0.10566000000E+00 0. -1.
        994    1    1    2    0    0  0.18878624077E+02 -0.21386973145E+01  0.51047808683E+01  0.17232665279E+03  0.17120000000E+03 0.  0.
        998    1    1    2    0    0 -0.58167295328E+01  0.14685311993E+01  0.14751074504E+04  0.14751535449E+04  0.10000000000E+02 0. -1.
</event>
<event>
 5    1  0.1129619E-008  0.3721644E+03  0.7957747E-01  0.3486003E+00
         13   -1    0    0    0    0  0.00000000000E+00  0.00000000000E+00  0.14999999963E+04  0.15000000000E+04  0.10566000000E+00 0.  1.
        994   -1    0    0    0    0 -0.00000000000E+00 -0.00000000000E+00  0.11368683772E-12  0.17120000000E+03  0.17120000000E+03 0.  0.
         13    1    1    2    0    0 -0.28950302527E+01 -0.15725918995E+02  0.50542405820E+01  0.16770278480E+02  0.10566000000E+00 0.  1.
        994    1    1    2    0    0  0.41227891666E+01  0.15122773199E+02  0.12953817106E+02  0.17240341365E+03  0.17120000000E+03 0.  0.
        998    1    1    2    0    0 -0.12277589139E+01  0.60314579616E+00  0.14819919386E+04  0.14820263079E+04  0.10000000000E+02 0.  1.
</event>
<event>
 5    1  0.1129619E-008  0.3696171E+03  0.7957747E-01  0.3497652E+00
         13   -1    0    0    0    0  0.00000000000E+00  0.00000000000E+00  0.14999999963E+04  0.15000000000E+04  0.10566000000E+00 0.  1.
        994   -1    0    0    0    0 -0.00000000000E+00 -0.00000000000E+00  0.11368683772E-12  0.17120000000E+03  0.17120000000E+03 0.  0.
         13    1    1    2    0    0  0.31709510865E+01  0.31386054927E+02  0.47104065655E+02  0.56691653177E+02  0.10566000000E+00 0.  1.
        994    1    1    2    0    0  0.20552064893E+00 -0.34440042824E+02  0.13587196367E+02  0.17515767381E+03  0.17120000000E+03 0.  0.
        998    1    1    2    0    0 -0.33764717355E+01  0.30539878964E+01  0.14393087343E+04  0.14393506730E+04  0.10000000000E+02 0.  1.
</event>
<event>
 5    1  0.1129619E-008  0.3709876E+03  0.7957747E-01  0.3491365E+00
         13   -1    0    0    0    0  0.00000000000E+00  0.00000000000E+00  0.14999999963E+04  0.15000000000E+04  0.10566000000E+00 0. -1.
        994   -1    0    0    0    0 -0.00000000000E+00 -0.00000000000E+00  0.11368683772E-12  0.17120000000E+03  0.17120000000E+03 0.  0.
         13    1    1    2    0    0  0.23468534811E+02  0.13793491668E+02  0.28034513415E+02  0.39076561325E+02  0.10566000000E+00 0. -1.
        994    1    1    2    0    0 -0.20482777587E+02  0.91500763236E+01  0.13229437951E+02  0.17316964544E+03  0.17120000000E+03 0.  0.
        998    1    1    2    0    0 -0.29857572237E+01 -0.22943567991E+02  0.14587360449E+04  0.14589537932E+04  0.10000000000E+02 0. -1.
</event>
<event>
 5    1  0.1495299E-008  0.3858722E+03  0.7957747E-01  0.3425981E+00
         13   -1    0    0    0    0  0.00000000000E+00  0.00000000000E+00  0.14999999963E+04  0.15000000000E+04  0.10566000000E+00 0. -1.
        994   -1    0    0    0    0 -0.00000000000E+00 -0.00000000000E+00  0.11368683772E-12  0.17120000000E+03  0.17120000000E+03 0.  0.
         13    1    1    2    0    0  0.11777016226E+02  0.31927844123E+01  0.59175408280E+02  0.60420460877E+02  0.10566000000E+00 0. -1.
        994    1    1    2    0    0 -0.15287211792E+02 -0.72840529575E+01  0.21386448985E+01  0.17204874331E+03  0.17120000000E+03 0.  0.
        998    1    1    2    0    0  0.35101955658E+01  0.40912685452E+01  0.14386859431E+04  0.14387307958E+04  0.10000000000E+02 0. -1.
</event>
<event>
 5    1  0.1129619E-008  0.3850026E+03  0.7957747E-01  0.3429661E+00
         13   -1    0    0    0    0  0.00000000000E+00  0.00000000000E+00  0.14999999963E+04  0.15000000000E+04  0.10566000000E+00 0.  1.
        994   -1    0    0    0    0 -0.00000000000E+00 -0.00000000000E+00  0.11368683772E-12  0.17120000000E+03  0.17120000000E+03 0.  0.
         13    1    1    2    0    0  0.19388074086E+02  0.59564609338E+01  0.12123527462E+03  0.12292021729E+03  0.10566000000E+00 0.  1.
        994    1    1    2    0    0 -0.13270554258E+02 -0.17377198568E+02  0.32026081114E+01  0.17262030975E+03  0.17120000000E+03 0.  0.
        998    1    1    2    0    0 -0.61175198275E+01  0.11420737634E+02  0.13755621136E+04  0.13756594730E+04  0.10000000000E+02 0.  1.
</event>
<event>
 5    1  0.1129619E-008  0.3702024E+03  0.7957747E-01  0.3494961E+00
         13   -1    0    0    0    0  0.00000000000E+00  0.00000000000E+00  0.14999999963E+04  0.15000000000E+04  0.10566000000E+00 0. -1.
        994   -1    0    0    0    0 -0.00000000000E+00 -0.00000000000E+00  0.11368683772E-12  0.17120000000E+03  0.17120000000E+03 0.  0.
         13    1    1    2    0    0  0.27481554744E+02  0.13603189352E+02  0.36903941884E+02  0.47981191130E+02  0.10566000000E+00 0. -1.
        994    1    1    2    0    0 -0.30071273918E+02 -0.16928075988E+02  0.15223459564E+02  0.17530554752E+03  0.17120000000E+03 0.  0.
        998    1    1    2    0    0  0.25897191742E+01  0.33248866358E+01  0.14478725948E+04  0.14479132613E+04  0.10000000000E+02 0. -1.
</event>
<event>
 5    1  0.1129619E-008  0.3793388E+03  0.7957747E-01  0.3454042E+00
         13   -1    0    0    0    0  0.00000000000E+00  0.00000000000E+00  0.14999999963E+04  0.15000000000E+04  0.10566000000E+00 0.  1.
        994   -1    0    0    0    0 -0.00000000000E+00 -0.00000000000E+00  0.11368683772E-12  0.17120000000E+03  0.17120000000E+03 0.  0.
         13    1    1    2    0    0 -0.24603492595E+02 -0.12228287072E+02  0.85700012185E+02  0.89996478293E+02  0.10566000000E+00 0.  1.
        994    1    1    2    0    0  0.58520990202E+01  0.10396597624E+02  0.49442700338E+01  0.17168640631E+03  0.17120000000E+03 0.  0.
        998    1    1    2    0    0  0.18751393575E+02  0.18316894474E+01  0.14093557141E+04  0.14095171154E+04  0.10000000000E+02 0.  1.
</event>
<event>
 5    1  0.1129619E-008  0.3704762E+03  0.7957747E-01  0.3493705E+00
         13   -1    0    0    0    0  0.00000000000E+00  0.00000000000E+00  0.14999999963E+04  0.15000000000E+04  0.10566000000E+00 0. -1.
        994   -1    0    0    0    0 -0.00000000000E+00 -0.00000000000E+00  0.11368683772E-12  0.17120000000E+03  0.17120000000E+03 0.  0.
         13    1    1    2    0    0  0.61346611170E+02  0.76674003501E+02  0.38057267359E+03  0.39303674200E+03  0.10566000000E+00 0. -1.
        994    1    1    2    0    0 -0.49390631793E+02 -0.91003997653E+02  0.46994562127E+02  0.20552150974E+03  0.17120000000E+03 0.  0.
        998    1    1    2    0    0 -0.11955979376E+02  0.14329994152E+02  0.10724327606E+04  0.10726417483E+04  0.10000000000E+02 0. -1.
</event>
<event>
 5    1  0.1129619E-008  0.3778414E+03  0.7957747E-01  0.3460612E+00
         13   -1    0    0    0    0  0.00000000000E+00  0.00000000000E+00  0.14999999963E+04  0.15000000000E+04  0.10566000000E+00 0.  1.
        994   -1    0    0    0    0 -0.00000000000E+00 -0.00000000000E+00  0.11368683772E-12  0.17120000000E+03  0.17120000000E+03 0.  0.
         13    1    1    2    0    0 -0.10096619512E+02  0.17030808615E+02  0.34436217120E+02  0.39722215210E+02  0.10566000000E+00 0.  1.
        994    1    1    2    0    0  0.14062110611E+02 -0.17900321939E+02  0.69733473899E+01  0.17284742420E+03  0.17120000000E+03 0.  0.
        998    1    1    2    0    0 -0.39654910990E+01  0.86951332350E+00  0.14585904318E+04  0.14586303606E+04  0.10000000000E+02 0.  1.
</event>
<event>
 5    1  0.1129619E-008  0.3837373E+03  0.7957747E-01  0.3435045E+00
         13   -1    0    0    0    0  0.00000000000E+00  0.00000000000E+00  0.14999999963E+04  0.15000000000E+04  0.10566000000E+00 0. -1.
        994   -1    0    0    0    0 -0.00000000000E+00 -0.00000000000E+00  0.11368683772E-12  0.17120000000E+03  0.17120000000E+03 0.  0.
         13    1    1    2    0    0 -0.10988282279E+02 -0.15936139570E+02  0.92893483888E+02  0.94888953017E+02  0.10566000000E+00 0. -1.
        994    1    1    2    0    0 -0.34198993335E+02  0.19073614311E+02  0.73383300378E+01  0.17577447197E+03  0.17120000000E+03 0.  0.
        998    1    1    2    0    0  0.45187275614E+02 -0.31374747417E+01  0.13997681824E+04  0.14005365750E+04  0.10000000000E+02 0. -1.
</event>
<event>
 5    1  0.1129619E-008  0.3781910E+03  0.7957747E-01  0.3459073E+00
         13   -1    0    0    0    0  0.00000000000E+00  0.00000000000E+00  0.14999999963E+04  0.15000000000E+04  0.10566000000E+00 0. -1.
        994   -1    0    0    0    0 -0.00000000000E+00 -0.00000000000E+00  0.11368683772E-12  0.17120000000E+03  0.17120000000E+03 0.  0.
         13    1    1    2    0    0  0.42920050940E+02 -0.22399463268E+02  0.19056716564E+03  0.19662075809E+03  0.10566000000E+00 0. -1.
        994    1    1    2    0    0 -0.55711515871E+02  0.17902101374E+02  0.16652689599E+02  0.18168932359E+03  0.17120000000E+03 0.  0.
        998    1    1    2    0    0  0.12791464931E+02  0.44973618943E+01  0.12927801410E+04  0.12928899183E+04  0.10000000000E+02 0. -1.
</event>
<event>
 5    1  0.1129619E-008  0.3694056E+03  0.7957747E-01  0.3498627E+00
         13   -1    0    0    0    0  0.00000000000E+00  0.00000000000E+00  0.14999999963E+04  0.15000000000E+04  0.10566000000E+00 0. -1.
        994   -1    0    0    0    0 -0.00000000000E+00 -0.00000000000E+00  0.11368683772E-12  0.17120000000E+03  0.17120000000E+03 0.  0.
         13    1    1    2    0    0 -0.20868730914E+02  0.97419317946E+01  0.20077513360E+02  0.30553671986E+02  0.10566000000E+00 0. -1.
        994    1    1    2    0    0  0.21477034905E+02 -0.11997975321E+02  0.12739139510E+02  0.17342704551E+03  0.17120000000E+03 0.  0.
        998    1    1    2    0    0 -0.60830399106E+00  0.22560435263E+01  0.14671833434E+04  0.14672192825E+04  0.10000000000E+02 0. -1.
</event>
<event>
 5    1  0.1129619E-008  0.3702546E+03  0.7957747E-01  0.3494722E+00
         13   -1    0    0    0    0  0.00000000000E+00  0.00000000000E+00  0.14999999963E+04  0.15000000000E+04  0.10566000000E+00 0.  1.
        994   -1    0    0    0    0 -0.00000000000E+00 -0.00000000000E+00  0.11368683772E-12  0.17120000000E+03  0.17120000000E+03 0.  0.
         13    1    1    2    0    0  0.80891921736E+02  0.69591970726E+02  0.49190283951E+03  0.50334377921E+03  0.10566000000E+00 0.  1.
        994    1    1    2    0    0 -0.46707869675E+02 -0.83356423082E+02  0.41371855695E+02  0.20037711646E+03  0.17120000000E+03 0.  0.
        998    1    1    2    0    0 -0.34184052061E+02  0.13764452356E+02  0.96672530108E+03  0.96747910432E+03  0.10000000000E+02 0.  1.
</event>
<event>
 5    1  0.1129619E-008  0.4051911E+03  0.7957747E-01  0.3348308E+00
         13   -1    0    0    0    0  0.00000000000E+00  0.00000000000E+00  0.14999999963E+04  0.15000000000E+04  0.10566000000E+00 0. -1.
        994   -1    0    0    0    0 -0.00000000000E+00 -0.00000000000E+00  0.11368683772E-12  0.17120000000E+03  0.17120000000E+03 0.  0.
         13    1    1    2    0    0  0.44768648784E+02  0.12468811865E+03  0.29101421542E+03  0.31975090866E+03  0.10566000000E+00 0. -1.
        994    1    1    2    0    0  0.82579376746E+01 -0.80117685102E+02  0.57366875440E+02  0.19770542582E+03  0.17120000000E+03 0.  0.
        998    1    1    2    0    0 -0.53026586459E+02 -0.44570433549E+02  0.11516189054E+04  0.11537436655E+04  0.10000000000E+02 0. -1.
</event>
<event>
 5    1  0.1129619E-008  0.3854997E+03  0.7957747E-01  0.3427556E+00
         13   -1    0    0    0    0  0.00000000000E+00  0.00000000000E+00  0.14999999963E+04  0.15000000000E+04  0.10566000000E+00 0.  1.
        994   -1    0    0    0    0 -0.00000000000E+00 -0.00000000000E+00  0.11368683772E-12  0.17120000000E+03  0.17120000000E+03 0.  0.
         13    1    1    2    0    0  0.11726383453E+02  0.84921009695E+01  0.73428069370E+02  0.74841942674E+02  0.10566000000E+00 0.  1.
        994    1    1    2    0    0 -0.51347332187E+01 -0.18248297577E+02  0.25630771846E+01  0.17226542083E+03  0.17120000000E+03 0.  0.
        998    1    1    2    0    0 -0.65916502341E+01  0.97561966074E+01  0.14240088497E+04  0.14240926365E+04  0.10000000000E+02 0.  1.
</event>
<event>
 5    1  0.1129619E-008  0.3761506E+03  0.7957747E-01  0.3468093E+00
         13   -1    0    0    0    0  0.00000000000E+00  0.00000000000E+00  0.14999999963E+04  0.15000000000E+04  0.10566000000E+00 0. -1.
        994   -1    0    0    0    0 -0.00000000000E+00 -0.00000000000E+00  0.11368683772E-12  0.17120000000E+03  0.17120000000E+03 0.  0.
         13    1    1    2    0    0 -0.72391940279E+01  0.18855878563E+02  0.30375109367E+02  0.36477507037E+02  0.10566000000E+00 0. -1.
        994    1    1    2    0    0  0.78595725245E+01 -0.19696107324E+02  0.76132865457E+01  0.17267632048E+03  0.17120000000E+03 0.  0.
        998    1    1    2    0    0 -0.62037849664E+00  0.84022876130E+00  0.14620116004E+04  0.14620461725E+04  0.10000000000E+02 0. -1.
</event>
<event>
 5    1  0.1129619E-008  0.3699393E+03  0.7957747E-01  0.3496170E+00
         13   -1    0    0    0    0  0.00000000000E+00  0.00000000000E+00  0.14999999963E+04  0.15000000000E+04  0.10566000000E+00 0. -1.
        994   -1    0    0    0    0 -0.00000000000E+00 -0.00000000000E+00  0.11368683772E-12  0.17120000000E+03  0.17120000000E+03 0.  0.
         13    1    1    2    0    0  0.40585563350E+02  0.54612925267E+01  0.89127456346E+02  0.98085311374E+02  0.10566000000E+00 0. -1.
        994    1    1    2    0    0 -0.17686108364E+02 -0.82965139650E+01  0.10621692594E+02  0.17263803441E+03  0.17120000000E+03 0.  0.
        998    1    1    2    0    0 -0.22899454986E+02  0.28352214383E+01  0.14002508473E+04  0.14004766542E+04  0.10000000000E+02 0. -1.
</event>
<event>
 5    1  0.1129619E-008  0.3689784E+03  0.7957747E-01  0.3500599E+00
         13   -1    0    0    0    0  0.00000000000E+00  0.00000000000E+00  0.14999999963E+04  0.15000000000E+04  0.10566000000E+00 0.  1.
        994   -1    0    0    0    0 -0.00000000000E+00 -0.00000000000E+00  0.11368683772E-12  0.17120000000E+03  0.17120000000E+03 0.  0.
         13    1    1    2    0    0  0.40077023384E+02  0.69283127212E+02  0.31638722775E+03  0.32635442171E+03  0.10566000000E+00 0.  1.
        994    1    1    2    0    0 -0.51426694321E+02 -0.18789062019E+02  0.20916283028E+02  0.18095486906E+03  0.17120000000E+03 0.  0.
        998    1    1    2    0    0  0.11349670937E+02 -0.50494065193E+02  0.11626964855E+04  0.11638907092E+04  0.10000000000E+02 0.  1.
</event>
<event>
 5    1  0.1129619E-008  0.3852571E+03  0.7957747E-01  0.3428583E+00
         13   -1    0    0    0    0  0.00000000000E+00  0.00000000000E+00  0.14999999963E+04  0.15000000000E+04  0.10566000000E+00 0.  1.
        994   -1    0    0    0    0 -0.00000000000E+00 -0.00000000000E+00  0.11368683772E-12  0.17120000000E+03  0.17120000000E+03 0.  0.
         13    1    1    2    0    0 -0.70755446387E+01 -0.11755681061E+02  0.57689583700E+02  0.59298892070E+02  0.10566000000E+00 0.  1.
        994    1    1    2    0    0  0.66459762363E+01  0.22858324227E+02  0.33668115222E+01  0.17287986409E+03  0.17120000000E+03 0.  0.
        998    1    1    2    0    0  0.42956840245E+00 -0.11102643166E+02  0.14389436011E+04  0.14390212438E+04  0.10000000000E+02 0.  1.
</event>
<event>
 5    1  0.1129619E-008  0.3754316E+03  0.7957747E-01  0.3471295E+00
         13   -1    0    0    0    0  0.00000000000E+00  0.00000000000E+00  0.14999999963E+04  0.15000000000E+04  0.10566000000E+00 0. -1.
        994   -1    0    0    0    0 -0.00000000000E+00 -0.00000000000E+00  0.11368683772E-12  0.17120000000E+03  0.17120000000E+03 0.  0.
         13    1    1    2    0    0 -0.14515832638E+02 -0.13054924762E+02  0.26515093822E+02  0.32927220079E+02  0.10566000000E+00 0. -1.
        994    1    1    2    0    0  0.12879174272E+02  0.12457486671E+02  0.75477913585E+01  0.17230052600E+03  0.17120000000E+03 0.  0.
        998    1    1    2    0    0  0.16366583654E+01  0.59743809082E+00  0.14659371111E+04  0.14659722539E+04  0.10000000000E+02 0.  0.
</event>
<event>
 5    1  0.1129619E-008  0.3848804E+03  0.7957747E-01  0.3430179E+00
         13   -1    0    0    0    0  0.00000000000E+00  0.00000000000E+00  0.14999999963E+04  0.15000000000E+04  0.10566000000E+00 0. -1.
        994   -1    0    0    0    0 -0.00000000000E+00 -0.00000000000E+00  0.11368683772E-12  0.17120000000E+03  0.17120000000E+03 0.  0.
         13    1    1    2    0    0 -0.93090385872E+01  0.19261151107E+02  0.12453243291E+03  0.12635659125E+03  0.10566000000E+00 0. -1.
        994    1    1    2    0    0  0.17055707746E+02 -0.17570518588E+02  0.36647013898E+01  0.17298118489E+03  0.17120000000E+03 0.  0.
        998    1    1    2    0    0 -0.77466691584E+01 -0.16906325187E+01  0.13718028620E+04  0.13718622239E+04  0.10000000000E+02 0. -1.
</event>
<event>
 5    1  0.1129619E-008  0.3850650E+03  0.7957747E-01  0.3429396E+00
         13   -1    0    0    0    0  0.00000000000E+00  0.00000000000E+00  0.14999999963E+04  0.15000000000E+04  0.10566000000E+00 0.  1.
        994   -1    0    0    0    0 -0.00000000000E+00 -0.00000000000E+00  0.11368683772E-12  0.17120000000E+03  0.17120000000E+03 0.  0.
         13    1    1    2    0    0 -0.14736470671E+02 -0.33561918652E+01  0.72216783913E+02  0.73781451832E+02  0.10566000000E+00 0.  1.
        994    1    1    2    0    0  0.93424175537E+01 -0.24768233323E+01  0.19050534150E+01  0.17148319057E+03  0.17120000000E+03 0.  0.
        998    1    1    2    0    0  0.53940531176E+01  0.58330151975E+01  0.14258781590E+04  0.14259353576E+04  0.10000000000E+02 0.  1.
</event>
<event>
 5    1  0.1129619E-008  0.3824786E+03  0.7957747E-01  0.3440437E+00
         13   -1    0    0    0    0  0.00000000000E+00  0.00000000000E+00  0.14999999963E+04  0.15000000000E+04  0.10566000000E+00 0. -1.
        994   -1    0    0    0    0 -0.00000000000E+00 -0.00000000000E+00  0.11368683772E-12  0.17120000000E+03  0.17120000000E+03 0.  0.
         13    1    1    2    0    0 -0.59620824175E+01 -0.14198535705E+02  0.43761597533E+02  0.46392169874E+02  0.10566000000E+00 0. -1.
        994    1    1    2    0    0  0.88325844657E+01 -0.15457018061E+02  0.39387692759E+01  0.17216819642E+03  0.17120000000E+03 0.  0.
        998    1    1    2    0    0 -0.28705020482E+01  0.29655553766E+02  0.14522996295E+04  0.14526396337E+04  0.10000000000E+02 0. -1.
</event>
<event>
 5    1  0.1129619E-008  0.3856614E+03  0.7957747E-01  0.3426872E+00
         13   -1    0    0    0    0  0.00000000000E+00  0.00000000000E+00  0.14999999963E+04  0.15000000000E+04  0.10566000000E+00 0. -1.
        994   -1    0    0    0    0 -0.00000000000E+00 -0.00000000000E+00  0.11368683772E-12  0.17120000000E+03  0.17120000000E+03 0.  0.
         13    1    1    2    0    0  0.11562045391E+02  0.77234151309E+01  0.71721264338E+02  0.73056710555E+02  0.10566000000E+00 0. -1.
        994    1    1    2    0    0 -0.17492938309E+02 -0.67813833069E+00  0.23084405494E+01  0.17210819754E+03  0.17120000000E+03 0.  0.
        998    1    1    2    0    0  0.59308929174E+01 -0.70452768002E+01  0.14259702914E+04  0.14260350919E+04  0.10000000000E+02 0. -1.
</event>
<event>
 5    1  0.1129619E-008  0.3800650E+03  0.7957747E-01  0.3450876E+00
         13   -1    0    0    0    0  0.00000000000E+00  0.00000000000E+00  0.14999999963E+04  0.15000000000E+04  0.10566000000E+00 0. -1.
        994   -1    0    0    0    0 -0.00000000000E+00 -0.00000000000E+00  0.11368683772E-12  0.17120000000E+03  0.17120000000E+03 0.  0.
         13    1    1    2    0    0  0.20531836790E+02  0.12573636835E+02  0.62278788848E+02  0.66770587609E+02  0.10566000000E+00 0. -1.
        994    1    1    2    0    0 -0.22859499118E+02 -0.41317724209E+02  0.11588752832E+02  0.17797036334E+03  0.17120000000E+03 0.  0.
        998    1    1    2    0    0  0.23276623281E+01  0.28744087374E+02  0.14261324546E+04  0.14264590491E+04  0.10000000000E+02 0. -1.
</event>
<event>
 5    1  0.1129619E-008  0.3836046E+03  0.7957747E-01  0.3435612E+00
         13   -1    0    0    0    0  0.00000000000E+00  0.00000000000E+00  0.14999999963E+04  0.15000000000E+04  0.10566000000E+00 0. -1.
        994   -1    0    0    0    0 -0.00000000000E+00 -0.00000000000E+00  0.11368683772E-12  0.17120000000E+03  0.17120000000E+03 0.  0.
         13    1    1    2    0    0 -0.17474823012E+02  0.10753556941E+02  0.86328072454E+02  0.88733058573E+02  0.10566000000E+00 0. -1.
        994    1    1    2    0    0  0.15147434929E+02 -0.13060688241E+02  0.36471746405E+01  0.17240292412E+03  0.17120000000E+03 0.  0.
        998    1    1    2    0    0  0.23273880831E+01  0.23071313000E+01  0.14100247492E+04  0.14100640173E+04  0.10000000000E+02 0. -1.
</event>
<event>
 5    1  0.1129619E-008  0.3854387E+03  0.7957747E-01  0.3427814E+00
         13   -1    0    0    0    0  0.00000000000E+00  0.00000000000E+00  0.14999999963E+04  0.15000000000E+04  0.10566000000E+00 0.  1.
        994   -1    0    0    0    0 -0.00000000000E+00 -0.00000000000E+00  0.11368683772E-12  0.17120000000E+03  0.17120000000E+03 0.  0.
         13    1    1    2    0    0 -0.30524587870E+01  0.95635895333E+01  0.35290260349E+02  0.36690508159E+02  0.10566000000E+00 0.  1.
        994    1    1    2    0    0  0.33209579928E+01 -0.85250996066E+01  0.16874109530E+01  0.17145259823E+03  0.17120000000E+03 0.  0.
        998    1    1    2    0    0 -0.26849920586E+00 -0.10384899266E+01  0.14630223250E+04  0.14630568936E+04  0.10000000000E+02 0.  1.
</event>
<event>
 5    1  0.1129619E-008  0.3833767E+03  0.7957747E-01  0.3436586E+00
         13   -1    0    0    0    0  0.00000000000E+00  0.00000000000E+00  0.14999999963E+04  0.15000000000E+04  0.10566000000E+00 0.  1.
        994   -1    0    0    0    0 -0.00000000000E+00 -0.00000000000E+00  0.11368683772E-12  0.17120000000E+03  0.17120000000E+03 0.  0.
         13    1    1    2    0    0 -0.11450247884E+02 -0.92536310890E+01  0.41027733861E+02  0.43589264444E+02  0.10566000000E+00 0.  1.
        994    1    1    2    0    0  0.10360544149E+02  0.27000871190E+02  0.52082879056E+01  0.17370363895E+03  0.17120000000E+03 0.  0.
        998    1    1    2    0    0  0.10897037357E+01 -0.17747240101E+02  0.14537639745E+04  0.14539070966E+04  0.10000000000E+02 0.  1.
</event>
<event>
 5    1  0.1129619E-008  0.3807374E+03  0.7957747E-01  0.3447954E+00
         13   -1    0    0    0    0  0.00000000000E+00  0.00000000000E+00  0.14999999963E+04  0.15000000000E+04  0.10566000000E+00 0. -1.
        994   -1    0    0    0    0 -0.00000000000E+00 -0.00000000000E+00  0.11368683772E-12  0.17120000000E+03  0.17120000000E+03 0.  0.
         13    1    1    2    0    0 -0.29404956197E+02 -0.13182829123E+02  0.14624085478E+03  0.14974924776E+03  0.10566000000E+00 0. -1.
        994    1    1    2    0    0  0.86479809626E+01  0.24504364151E+01  0.40308662018E+01  0.17148317730E+03  0.17120000000E+03 0.  0.
        998    1    1    2    0    0  0.20756975235E+02  0.10732392708E+02  0.13497282753E+04  0.13499675749E+04  0.10000000000E+02 0. -1.
</event>
<event>
 5    1  0.1129619E-008  0.3835691E+03  0.7957747E-01  0.3435764E+00
         13   -1    0    0    0    0  0.00000000000E+00  0.00000000000E+00  0.14999999963E+04  0.15000000000E+04  0.10566000000E+00 0.  1.
        994   -1    0    0    0    0 -0.00000000000E+00 -0.00000000000E+00  0.11368683772E-12  0.17120000000E+03  0.17120000000E+03 0.  0.
         13    1    1    2    0    0  0.12487459518E+02  0.57139529699E+01  0.39975700624E+02  0.42268826671E+02  0.10566000000E+00 0.  1.
        994    1    1    2    0    0 -0.58771498840E+01 -0.40231129957E+01  0.25098633800E+01  0.17136646622E+03  0.17120000000E+03 0.  0.
        998    1    1    2    0    0 -0.66103096343E+01 -0.16908399742E+01  0.14575144323E+04  0.14575647071E+04  0.10000000000E+02 0.  1.
</event>
<event>
 5    1  0.1129619E-008  0.3826299E+03  0.7957747E-01  0.3439787E+00
         13   -1    0    0    0    0  0.00000000000E+00  0.00000000000E+00  0.14999999963E+04  0.15000000000E+04  0.10566000000E+00 0.  1.
        994   -1    0    0    0    0 -0.00000000000E+00 -0.00000000000E+00  0.11368683772E-12  0.17120000000E+03  0.17120000000E+03 0.  0.
         13    1    1    2    0    0 -0.22569793702E+02  0.26778628118E+00  0.92981952873E+02  0.95682401837E+02  0.10566000000E+00 0.  1.
        994    1    1    2    0    0  0.80668373006E+01 -0.48071652045E+01  0.31037436217E+01  0.17148543940E+03  0.17120000000E+03 0.  0.
        998    1    1    2    0    0  0.14502956401E+02  0.45393789233E+01  0.14039142998E+04  0.14040321588E+04  0.10000000000E+02 0.  1.
</event>
<event>
 5    1  0.1129619E-008  0.3685139E+03  0.7957747E-01  0.3502749E+00
         13   -1    0    0    0    0  0.00000000000E+00  0.00000000000E+00  0.14999999963E+04  0.15000000000E+04  0.10566000000E+00 0. -1.
        994   -1    0    0    0    0 -0.00000000000E+00 -0.00000000000E+00  0.11368683772E-12  0.17120000000E+03  0.17120000000E+03 0.  0.
         13    1    1    2    0    0 -0.45395586966E+02 -0.28190578921E+02  0.12502542729E+03  0.13596630718E+03  0.10566000000E+00 0. -1.
        994    1    1    2    0    0  0.51956845266E+02  0.27508404059E+02  0.22157952402E+02  0.18236403406E+03  0.17120000000E+03 0.  0.
        998    1    1    2    0    0 -0.65612582997E+01  0.68217486122E+00  0.13528166166E+04  0.13528696588E+04  0.10000000000E+02 0. -1.
</event>
<event>
 5    1  0.1129619E-008  0.3846922E+03  0.7957747E-01  0.3430979E+00
         13   -1    0    0    0    0  0.00000000000E+00  0.00000000000E+00  0.14999999963E+04  0.15000000000E+04  0.10566000000E+00 0.  1.
        994   -1    0    0    0    0 -0.00000000000E+00 -0.00000000000E+00  0.11368683772E-12  0.17120000000E+03  0.17120000000E+03 0.  0.
         13    1    1    2    0    0 -0.33852150905E-01 -0.15495127431E+02  0.57965003043E+02  0.60000440514E+02  0.10566000000E+00 0.  1.
        994    1    1    2    0    0  0.24896319566E+01  0.36458939190E+02  0.61916740464E+01  0.17516629054E+03  0.17120000000E+03 0.  0.
        998    1    1    2    0    0 -0.24557798056E+01 -0.20963811759E+02  0.14358433192E+04  0.14360332689E+04  0.10000000000E+02 0.  1.
</event>
<event>
 5    1  0.1129619E-008  0.3823690E+03  0.7957747E-01  0.3440908E+00
         13   -1    0    0    0    0  0.00000000000E+00  0.00000000000E+00  0.14999999963E+04  0.15000000000E+04  0.10566000000E+00 0. -1.
        994   -1    0    0    0    0 -0.00000000000E+00 -0.00000000000E+00  0.11368683772E-12  0.17120000000E+03  0.17120000000E+03 0.  0.
         13    1    1    2    0    0  0.31106965349E+02 -0.22248528146E+02  0.22397400110E+03  0.22721576669E+03  0.10566000000E+00 0. -1.
        994    1    1    2    0    0 -0.25942734596E+02  0.20744426888E+02  0.66104366031E+01  0.17451789191E+03  0.17120000000E+03 0.  0.
        998    1    1    2    0    0 -0.51642307536E+01  0.15041012587E+01  0.12694155586E+04  0.12694663414E+04  0.10000000000E+02 0. -1.
</event>
<event>
 5    1  0.1129619E-008  0.3733339E+03  0.7957747E-01  0.3480708E+00
         13   -1    0    0    0    0  0.00000000000E+00  0.00000000000E+00  0.14999999963E+04  0.15000000000E+04  0.10566000000E+00 0.  1.
        994   -1    0    0    0    0 -0.00000000000E+00 -0.00000000000E+00  0.11368683772E-12  0.17120000000E+03  0.17120000000E+03 0.  0.
         13    1    1    2    0    0  0.41897392375E+01  0.73736926342E+02  0.18624638537E+03  0.20035572227E+03  0.10566000000E+00 0.  1.
        994    1    1    2    0    0 -0.11567280819E+02 -0.71583605929E+02  0.31553036308E+02  0.18858167653E+03  0.17120000000E+03 0.  0.
        998    1    1    2    0    0  0.73775415811E+01 -0.21533204128E+01  0.12822005746E+04  0.12822626012E+04  0.10000000000E+02 0.  1.
</event>
<event>
 5    1  0.1129619E-008  0.3817448E+03  0.7957747E-01  0.3443596E+00
         13   -1    0    0    0    0  0.00000000000E+00  0.00000000000E+00  0.14999999963E+04  0.15000000000E+04  0.10566000000E+00 0.  1.
        994   -1    0    0    0    0 -0.00000000000E+00 -0.00000000000E+00  0.11368683772E-12  0.17120000000E+03  0.17120000000E+03 0.  0.
         13    1    1    2    0    0  0.92953432228E+01 -0.95540882595E+01  0.25905470437E+02  0.29133976225E+02  0.10566000000E+00 0.  1.
        994    1    1    2    0    0 -0.70852071045E+01  0.83183640124E+01  0.36518982916E+01  0.17158721310E+03  0.17120000000E+03 0.  0.
        998    1    1    2    0    0 -0.22101361183E+01  0.12357242472E+01  0.14704426275E+04  0.14704788107E+04  0.10000000000E+02 0.  1.
</event>
<event>
 5    1  0.1129619E-008  0.3770698E+03  0.7957747E-01  0.3464017E+00
         13   -1    0    0    0    0  0.00000000000E+00  0.00000000000E+00  0.14999999963E+04  0.15000000000E+04  0.10566000000E+00 0. -1.
        994   -1    0    0    0    0 -0.00000000000E+00 -0.00000000000E+00  0.11368683772E-12  0.17120000000E+03  0.17120000000E+03 0.  0.
         13    1    1    2    0    0  0.13490171977E+02  0.10916288399E+02  0.24386298372E+02  0.29930800268E+02  0.10566000000E+00 0. -1.
        994    1    1    2    0    0 -0.15180974834E+02 -0.17292638270E+01  0.64080974671E+01  0.17199987228E+03  0.17120000000E+03 0.  0.
        998    1    1    2    0    0  0.16908028573E+01 -0.91870245723E+01  0.14692056004E+04  0.14692693275E+04  0.10000000000E+02 0. -1.
</event>
<event>
 5    1  0.1129619E-008  0.3817935E+03  0.7957747E-01  0.3443386E+00
         13   -1    0    0    0    0  0.00000000000E+00  0.00000000000E+00  0.14999999963E+04  0.15000000000E+04  0.10566000000E+00 0.  1.
        994   -1    0    0    0    0 -0.00000000000E+00 -0.00000000000E+00  0.11368683772E-12  0.17120000000E+03  0.17120000000E+03 0.  0.
         13    1    1    2    0    0 -0.40165519345E+02  0.66836476710E+01  0.21798757102E+03  0.22175782370E+03  0.10566000000E+00 0.  1.
        994    1    1    2    0    0  0.42867111178E+02 -0.34917490401E+00  0.93618528144E+01  0.17673368505E+03  0.17120000000E+03 0.  0.
        998    1    1    2    0    0 -0.27015918323E+01 -0.63344727670E+01  0.12726505724E+04  0.12727084912E+04  0.10000000000E+02 0.  1.
</event>
<event>
 5    1  0.1129619E-008  0.3792398E+03  0.7957747E-01  0.3454475E+00
         13   -1    0    0    0    0  0.00000000000E+00  0.00000000000E+00  0.14999999963E+04  0.15000000000E+04  0.10566000000E+00 0.  1.
        994   -1    0    0    0    0 -0.00000000000E+00 -0.00000000000E+00  0.11368683772E-12  0.17120000000E+03  0.17120000000E+03 0.  0.
         13    1    1    2    0    0 -0.45549398849E+02  0.22769795446E+02  0.23890572699E+03  0.24427273461E+03  0.10566000000E+00 0.  1.
        994    1    1    2    0    0  0.29874895997E+02 -0.64203640979E+02  0.21510755118E+02  0.18651211626E+03  0.17120000000E+03 0.  0.
        998    1    1    2    0    0  0.15674502852E+02  0.41433845533E+02  0.12395835142E+04  0.12404151491E+04  0.10000000000E+02 0.  1.
</event>
<event>
 5    1  0.1129619E-008  0.3837203E+03  0.7957747E-01  0.3435118E+00
         13   -1    0    0    0    0  0.00000000000E+00  0.00000000000E+00  0.14999999963E+04  0.15000000000E+04  0.10566000000E+00 0. -1.
        994   -1    0    0    0    0 -0.00000000000E+00 -0.00000000000E+00  0.11368683772E-12  0.17120000000E+03  0.17120000000E+03 0.  0.
         13    1    1    2    0    0 -0.20669975024E+02  0.25417795290E+02  0.19769160169E+03  0.20038785574E+03  0.10566000000E+00 0. -1.
        994    1    1    2    0    0  0.23876495154E+02 -0.29778243199E+02  0.70926708559E+01  0.17554650885E+03  0.17120000000E+03 0.  0.
        998    1    1    2    0    0 -0.32065201295E+01  0.43604479096E+01  0.12952157237E+04  0.12952656354E+04  0.10000000000E+02 0. -1.
</event>
<event>
 5    1  0.1129619E-008  0.3829519E+03  0.7957747E-01  0.3438405E+00
         13   -1    0    0    0    0  0.00000000000E+00  0.00000000000E+00  0.14999999963E+04  0.15000000000E+04  0.10566000000E+00 0.  1.
        994   -1    0    0    0    0 -0.00000000000E+00 -0.00000000000E+00  0.11368683772E-12  0.17120000000E+03  0.17120000000E+03 0.  0.
         13    1    1    2    0    0  0.11213718022E+02 -0.13905488104E+01  0.22851866066E+02  0.25493137206E+02  0.10566000000E+00 0.  1.
        994    1    1    2    0    0 -0.11063516979E+02  0.46945781425E+01  0.31287441048E+01  0.17164984565E+03  0.17120000000E+03 0.  0.
        998    1    1    2    0    0 -0.15020104299E+00 -0.33040293320E+01  0.14740193861E+04  0.14740570171E+04  0.10000000000E+02 0.  1.
</event>
<event>
 5    1  0.1129619E-008  0.3811692E+03  0.7957747E-01  0.3446083E+00
         13   -1    0    0    0    0  0.00000000000E+00  0.00000000000E+00  0.14999999963E+04  0.15000000000E+04  0.10566000000E+00 0. -1.
        994   -1    0    0    0    0 -0.00000000000E+00 -0.00000000000E+00  0.11368683772E-12  0.17120000000E+03  0.17120000000E+03 0.  0.
         13    1    1    2    0    0  0.42809662711E+01 -0.49366868318E+02  0.63919834255E+02  0.80877504505E+02  0.10566000000E+00 0. -1.
        994    1    1    2    0    0 -0.14497280917E+02  0.46803846247E+02  0.25759563562E+02  0.17992711383E+03  0.17120000000E+03 0.  0.
        998    1    1    2    0    0  0.10216314646E+02  0.25630220709E+01  0.14103205985E+04  0.14103953817E+04  0.10000000000E+02 0. -1.
</event>
<event>
 5    1  0.1129619E-008  0.3729918E+03  0.7957747E-01  0.3482253E+00
         13   -1    0    0    0    0  0.00000000000E+00  0.00000000000E+00  0.14999999963E+04  0.15000000000E+04  0.10566000000E+00 0.  1.
        994   -1    0    0    0    0 -0.00000000000E+00 -0.00000000000E+00  0.11368683772E-12  0.17120000000E+03  0.17120000000E+03 0.  0.
         13    1    1    2    0    0 -0.23729993127E+02  0.62162654563E+01  0.35105318467E+02  0.42826966723E+02  0.10566000000E+00 0.  1.
        994    1    1    2    0    0  0.24975648831E+02 -0.25334268036E+01  0.98734222624E+01  0.17331222044E+03  0.17120000000E+03 0.  0.
        998    1    1    2    0    0 -0.12456557044E+01 -0.36828386527E+01  0.14550212555E+04  0.14550608128E+04  0.10000000000E+02 0.  1.
</event>
<event>
 5    1  0.1129619E-008  0.3863338E+03  0.7957747E-01  0.3424035E+00
         13   -1    0    0    0    0  0.00000000000E+00  0.00000000000E+00  0.14999999963E+04  0.15000000000E+04  0.10566000000E+00 0. -1.
        994   -1    0    0    0    0 -0.00000000000E+00 -0.00000000000E+00  0.11368683772E-12  0.17120000000E+03  0.17120000000E+03 0.  0.
         13    1    1    2    0    0  0.11467060773E+02 -0.12507462146E+02 -0.16633942156E+01  0.17050165292E+02  0.10566000000E+00 0. -1.
        994    1    1    2    0    0 -0.15533573050E+02  0.11489580306E+01  0.20751528182E+02  0.17315506899E+03  0.17120000000E+03 0.  0.
        998    1    1    2    0    0  0.40665122767E+01  0.11358504116E+02  0.14809118623E+04  0.14809947657E+04  0.10000000000E+02 0. -1.
</event>
<event>
 5    1  0.1129619E-008  0.3836029E+03  0.7957747E-01  0.3435619E+00
         13   -1    0    0    0    0  0.00000000000E+00  0.00000000000E+00  0.14999999963E+04  0.15000000000E+04  0.10566000000E+00 0.  1.
        994   -1    0    0    0    0 -0.00000000000E+00 -0.00000000000E+00  0.11368683772E-12  0.17120000000E+03  0.17120000000E+03 0.  0.
         13    1    1    2    0    0  0.54295047617E+01  0.22914655166E+02  0.11679391231E+03  0.11914440843E+03  0.10566000000E+00 0.  1.
        994    1    1    2    0    0 -0.46085357119E+01 -0.16051978072E+02  0.32473113023E+01  0.17204327837E+03  0.17120000000E+03 0.  0.
        998    1    1    2    0    0 -0.82096904984E+00 -0.68626770940E+01  0.13799587727E+04  0.13800123132E+04  0.10000000000E+02 0.  1.
</event>
<event>
 5    1  0.1129619E-008  0.3695037E+03  0.7957747E-01  0.3498175E+00
         13   -1    0    0    0    0  0.00000000000E+00  0.00000000000E+00  0.14999999963E+04  0.15000000000E+04  0.10566000000E+00 0. -1.
        994   -1    0    0    0    0 -0.00000000000E+00 -0.00000000000E+00  0.11368683772E-12  0.17120000000E+03  0.17120000000E+03 0.  0.
         13    1    1    2    0    0  0.16118628891E+02 -0.15942791083E+02  0.19270618435E+02  0.29754843030E+02  0.10566000000E+00 0. -1.
        994    1    1    2    0    0 -0.18265543675E+02  0.12897001030E+02  0.12423386734E+02  0.17310038492E+03  0.17120000000E+03 0.  0.
        998    1    1    2    0    0  0.21469147842E+01  0.30457900535E+01  0.14683059911E+04  0.14683447721E+04  0.10000000000E+02 0. -1.
</event>
<event>
 5    1  0.1129619E-008  0.3848038E+03  0.7957747E-01  0.3430505E+00
         13   -1    0    0    0    0  0.00000000000E+00  0.00000000000E+00  0.14999999963E+04  0.15000000000E+04  0.10566000000E+00 0.  1.
        994   -1    0    0    0    0 -0.00000000000E+00 -0.00000000000E+00  0.11368683772E-12  0.17120000000E+03  0.17120000000E+03 0.  0.
         13    1    1    2    0    0  0.21851049407E+02  0.18769843860E+01  0.12201476659E+03  0.12397018133E+03  0.10566000000E+00 0.  1.
        994    1    1    2    0    0 -0.28362320005E+02 -0.25557391136E+02  0.65389473491E+01  0.17552720379E+03  0.17120000000E+03 0.  0.
        998    1    1    2    0    0  0.65112705979E+01  0.23680406750E+02  0.13714462823E+04  0.13717026149E+04  0.10000000000E+02 0.  1.
</event>
<event>
 5    1  0.1129619E-008  0.3846376E+03  0.7957747E-01  0.3431211E+00
         13   -1    0    0    0    0  0.00000000000E+00  0.00000000000E+00  0.14999999963E+04  0.15000000000E+04  0.10566000000E+00 0. -1.
        994   -1    0    0    0    0 -0.00000000000E+00 -0.00000000000E+00  0.11368683772E-12  0.17120000000E+03  0.17120000000E+03 0.  0.
         13    1    1    2    0    0 -0.10387368798E+02 -0.23735935208E+01  0.31666501537E+02  0.33411223569E+02  0.10566000000E+00 0. -1.
        994    1    1    2    0    0  0.39876631400E+01 -0.68627441406E+01  0.20176397932E+01  0.17139576886E+03  0.17120000000E+03 0.  0.
        998    1    1    2    0    0  0.63997056576E+01  0.92363376614E+01  0.14663158549E+04  0.14663930076E+04  0.10000000000E+02 0. -1.
</event>
<event>
 5    1  0.1129619E-008  0.3745120E+03  0.7957747E-01  0.3475408E+00
         13   -1    0    0    0    0  0.00000000000E+00  0.00000000000E+00  0.14999999963E+04  0.15000000000E+04  0.10566000000E+00 0. -1.
        994   -1    0    0    0    0 -0.00000000000E+00 -0.00000000000E+00  0.11368683772E-12  0.17120000000E+03  0.17120000000E+03 0.  0.
         13    1    1    2    0    0  0.87773115222E+01 -0.11632483825E+02  0.17970111527E+01  0.14683197561E+02  0.10566000000E+00 0. -1.
        994    1    1    2    0    0 -0.99921525242E+01  0.12716713752E+02  0.14274403756E+02  0.17255363376E+03  0.17120000000E+03 0.  0.
        998    1    1    2    0    0  0.12148410020E+01 -0.10842299270E+01  0.14839285814E+04  0.14839631687E+04  0.10000000000E+02 0. -1.
</event>
<event>
 5    1  0.1129619E-008  0.3807764E+03  0.7957747E-01  0.3447785E+00
         13   -1    0    0    0    0  0.00000000000E+00  0.00000000000E+00  0.14999999963E+04  0.15000000000E+04  0.10566000000E+00 0. -1.
        994   -1    0    0    0    0 -0.00000000000E+00 -0.00000000000E+00  0.11368683772E-12  0.17120000000E+03  0.17120000000E+03 0.  0.
         13    1    1    2    0    0  0.10904900198E+01 -0.35865471411E+02  0.19294834795E+03  0.19625645810E+03  0.10566000000E+00 0. -1.
        994    1    1    2    0    0 -0.14477912577E+02  0.49950983631E+01  0.45242417915E+01  0.17194321657E+03  0.17120000000E+03 0.  0.
        998    1    1    2    0    0  0.13387422557E+02  0.30870373047E+02  0.13025274065E+04  0.13030003253E+04  0.10000000000E+02 0. -1.
</event>
<event>
 5    1  0.1129619E-008  0.3836212E+03  0.7957747E-01  0.3435541E+00
         13   -1    0    0    0    0  0.00000000000E+00  0.00000000000E+00  0.14999999963E+04  0.15000000000E+04  0.10566000000E+00 0.  1.
        994   -1    0    0    0    0 -0.00000000000E+00 -0.00000000000E+00  0.11368683772E-12  0.17120000000E+03  0.17120000000E+03 0.  0.
         13    1    1    2    0    0  0.76960018172E+01  0.18176887626E+02  0.85629360610E+02  0.87875060456E+02  0.10566000000E+00 0.  1.
        994    1    1    2    0    0  0.33796126637E+02 -0.25737949863E+02  0.83006053600E+01  0.17658697655E+03  0.17120000000E+03 0.  0.
        998    1    1    2    0    0 -0.41492128455E+02  0.75610622371E+01  0.14060700303E+04  0.14067379630E+04  0.10000000000E+02 0.  1.
</event>
<event>
 5    1  0.1129619E-008  0.3844259E+03  0.7957747E-01  0.3432111E+00
         13   -1    0    0    0    0  0.00000000000E+00  0.00000000000E+00  0.14999999963E+04  0.15000000000E+04  0.10566000000E+00 0.  1.
        994   -1    0    0    0    0 -0.00000000000E+00 -0.00000000000E+00  0.11368683772E-12  0.17120000000E+03  0.17120000000E+03 0.  0.
         13    1    1    2    0    0 -0.13893640135E+02  0.14523098592E+02  0.10566756896E+03  0.10756207474E+03  0.10566000000E+00 0.  1.
        994    1    1    2    0    0 -0.16889389717E+01 -0.18715789187E+02  0.30798118213E+01  0.17225579387E+03  0.17120000000E+03 0.  0.
        998    1    1    2    0    0  0.15582579107E+02  0.41926905947E+01  0.13912526155E+04  0.13913821314E+04  0.10000000000E+02 0.  1.
</event>
<event>
 5    1  0.1129619E-008  0.3833184E+03  0.7957747E-01  0.3436835E+00
         13   -1    0    0    0    0  0.00000000000E+00  0.00000000000E+00  0.14999999963E+04  0.15000000000E+04  0.10566000000E+00 0.  1.
        994   -1    0    0    0    0 -0.00000000000E+00 -0.00000000000E+00  0.11368683772E-12  0.17120000000E+03  0.17120000000E+03 0.  0.
         13    1    1    2    0    0 -0.12452803495E+02 -0.21753849746E+02  0.84730733850E+02  0.88360685355E+02  0.10566000000E+00 0.  1.
        994    1    1    2    0    0  0.74241349060E+02  0.58365458243E+02  0.32538209319E+02  0.19820817262E+03  0.17120000000E+03 0.  0.
        998    1    1    2    0    0 -0.61788545565E+02 -0.36611608497E+02  0.13827310531E+04  0.13846311420E+04  0.10000000000E+02 0.  1.
</event>
<event>
 5    1  0.1129619E-008  0.3837904E+03  0.7957747E-01  0.3434819E+00
         13   -1    0    0    0    0  0.00000000000E+00  0.00000000000E+00  0.14999999963E+04  0.15000000000E+04  0.10566000000E+00 0. -1.
        994   -1    0    0    0    0 -0.00000000000E+00 -0.00000000000E+00  0.11368683772E-12  0.17120000000E+03  0.17120000000E+03 0.  0.
         13    1    1    2    0    0 -0.18227011416E+02  0.45530098058E+01  0.75049076674E+02  0.77364907530E+02  0.10566000000E+00 0. -1.
        994    1    1    2    0    0  0.16135870558E+02 -0.18348428313E+02  0.42055360132E+01  0.17298600427E+03  0.17120000000E+03 0.  0.
        998    1    1    2    0    0  0.20911408583E+01  0.13795418507E+02  0.14207453836E+04  0.14208490882E+04  0.10000000000E+02 0. -1.
</event>
<event>
 5    1  0.1129619E-008  0.3859532E+03  0.7957747E-01  0.3425640E+00
         13   -1    0    0    0    0  0.00000000000E+00  0.00000000000E+00  0.14999999963E+04  0.15000000000E+04  0.10566000000E+00 0. -1.
        994   -1    0    0    0    0 -0.00000000000E+00 -0.00000000000E+00  0.11368683772E-12  0.17120000000E+03  0.17120000000E+03 0.  0.
         13    1    1    2    0    0  0.12900168499E+02  0.15461641149E+01  0.72900751385E+02  0.74049548866E+02  0.10566000000E+00 0. -1.
        994    1    1    2    0    0 -0.10932838567E+02  0.65971951019E+01  0.16923676387E+01  0.17168387825E+03  0.17120000000E+03 0.  0.
        998    1    1    2    0    0 -0.19673299317E+01 -0.81433592168E+01  0.14254068773E+04  0.14254665729E+04  0.10000000000E+02 0.  1.
</event>
<event>
 5    1  0.1129619E-008  0.3842047E+03  0.7957747E-01  0.3433052E+00
         13   -1    0    0    0    0  0.00000000000E+00  0.00000000000E+00  0.14999999963E+04  0.15000000000E+04  0.10566000000E+00 0.  1.
        994   -1    0    0    0    0 -0.00000000000E+00 -0.00000000000E+00  0.11368683772E-12  0.17120000000E+03  0.17120000000E+03 0.  0.
         13    1    1    2    0    0 -0.97318359791E+01  0.15151646050E+02  0.79164582978E+02  0.81186965528E+02  0.10566000000E+00 0.  1.
        994    1    1    2    0    0  0.32012299130E+00 -0.14929775621E+02  0.27611192738E+01  0.17187223295E+03  0.17120000000E+03 0.  0.
        998    1    1    2    0    0  0.94117129878E+01 -0.22187042855E+00  0.14180742940E+04  0.14181408015E+04  0.10000000000E+02 0.  1.
</event>
<event>
 5    1  0.1129619E-008  0.3814246E+03  0.7957747E-01  0.3444979E+00
         13   -1    0    0    0    0  0.00000000000E+00  0.00000000000E+00  0.14999999963E+04  0.15000000000E+04  0.10566000000E+00 0. -1.
        994   -1    0    0    0    0 -0.00000000000E+00 -0.00000000000E+00  0.11368683772E-12  0.17120000000E+03  0.17120000000E+03 0.  0.
         13    1    1    2    0    0  0.21409382003E+02  0.42700600728E+01  0.73321391303E+02  0.76502500857E+02  0.10566000000E+00 0. -1.
        994    1    1    2    0    0  0.16311670604E+01 -0.91497834121E+01  0.37032042947E+01  0.17149207843E+03  0.17120000000E+03 0.  0.
        998    1    1    2    0    0 -0.23040549063E+02  0.48797233393E+01  0.14229754007E+04  0.14232054207E+04  0.10000000000E+02 0. -1.
</event>
<event>
 5    1  0.1408786E-008  0.3859667E+03  0.7957747E-01  0.3425583E+00
         13   -1    0    0    0    0  0.00000000000E+00  0.00000000000E+00  0.14999999963E+04  0.15000000000E+04  0.10566000000E+00 0. -1.
        994   -1    0    0    0    0 -0.00000000000E+00 -0.00000000000E+00  0.11368683772E-12  0.17120000000E+03  0.17120000000E+03 0.  0.
         13    1    1    2    0    0 -0.25913734382E+01 -0.10449055669E+02  0.50141509680E+02  0.51284306935E+02  0.10566000000E+00 0. -1.
        994    1    1    2    0    0 -0.19523269172E+00  0.99114380988E+01  0.14731995909E+01  0.17149310493E+03  0.17120000000E+03 0.  0.
        998    1    1    2    0    0  0.27866061299E+01  0.53761757066E+00  0.14483852870E+04  0.14484225881E+04  0.10000000000E+02 0. -1.
</event>
<event>
 5    1  0.1129619E-008  0.3811462E+03  0.7957747E-01  0.3446183E+00
         13   -1    0    0    0    0  0.00000000000E+00  0.00000000000E+00  0.14999999963E+04  0.15000000000E+04  0.10566000000E+00 0. -1.
        994   -1    0    0    0    0 -0.00000000000E+00 -0.00000000000E+00  0.11368683772E-12  0.17120000000E+03  0.17120000000E+03 0.  0.
         13    1    1    2    0    0  0.12771559712E+02  0.64380494217E+01  0.27280067080E+02  0.30802182419E+02  0.10566000000E+00 0. -1.
        994    1    1    2    0    0 -0.13522178334E+02  0.24421686914E+01  0.41847282376E+01  0.17180152923E+03  0.17120000000E+03 0.  0.
        998    1    1    2    0    0  0.75061862202E+00 -0.88802181131E+01  0.14685352010E+04  0.14685962884E+04  0.10000000000E+02 0. -1.
</event>
<event>
 5    1  0.1129619E-008  0.3814522E+03  0.7957747E-01  0.3444860E+00
         13   -1    0    0    0    0  0.00000000000E+00  0.00000000000E+00  0.14999999963E+04  0.15000000000E+04  0.10566000000E+00 0. -1.
        994   -1    0    0    0    0 -0.00000000000E+00 -0.00000000000E+00  0.11368683772E-12  0.17120000000E+03  0.17120000000E+03 0.  0.
         13    1    1    2    0    0  0.91573737841E+01  0.21903250477E+02  0.90120716600E+02  0.93195303533E+02  0.10566000000E+00 0. -1.
        994    1    1    2    0    0 -0.12467326268E+02  0.86858005150E+01  0.41703747046E+01  0.17192355679E+03  0.17120000000E+03 0.  0.
        998    1    1    2    0    0  0.33099524842E+01 -0.30589050992E+02  0.14057089050E+04  0.14060811397E+04  0.10000000000E+02 0.  1.
</event>
<event>
 5    1  0.1129619E-008  0.3763099E+03  0.7957747E-01  0.3467385E+00
         13   -1    0    0    0    0  0.00000000000E+00  0.00000000000E+00  0.14999999963E+04  0.15000000000E+04  0.10566000000E+00 0. -1.
        994   -1    0    0    0    0 -0.00000000000E+00 -0.00000000000E+00  0.11368683772E-12  0.17120000000E+03  0.17120000000E+03 0.  0.
         13    1    1    2    0    0  0.11578636468E+02  0.80867605771E+01  0.13717179673E+02  0.19688390013E+02  0.10566000000E+00 0. -1.
        994    1    1    2    0    0 -0.15283695329E+02 -0.87404544748E+01  0.70573859531E+01  0.17224759384E+03  0.17120000000E+03 0.  0.
        998    1    1    2    0    0  0.37050588605E+01  0.65369389770E+00  0.14792254307E+04  0.14792640161E+04  0.10000000000E+02 0. -1.
</event>
<event>
 5    1  0.1129619E-008  0.4128357E+03  0.7957747E-01  0.3319566E+00
         13   -1    0    0    0    0  0.00000000000E+00  0.00000000000E+00  0.14999999963E+04  0.15000000000E+04  0.10566000000E+00 0. -1.
        994   -1    0    0    0    0 -0.00000000000E+00 -0.00000000000E+00  0.11368683772E-12  0.17120000000E+03  0.17120000000E+03 0.  0.
         13    1    1    2    0    0  0.27000975156E+02 -0.67056289135E+02  0.57888068153E+02  0.92610140754E+02  0.10566000000E+00 0. -1.
        994    1    1    2    0    0 -0.15708481112E+02  0.79705143831E+02  0.63523374066E+02  0.19986076500E+03  0.17120000000E+03 0.  0.
        998    1    1    2    0    0 -0.11292494043E+02 -0.12648854696E+02  0.13785885541E+04  0.13787290943E+04  0.10000000000E+02 0. -1.
</event>
<event>
 5    1  0.1129619E-008  0.3844697E+03  0.7957747E-01  0.3431924E+00
         13   -1    0    0    0    0  0.00000000000E+00  0.00000000000E+00  0.14999999963E+04  0.15000000000E+04  0.10566000000E+00 0.  1.
        994   -1    0    0    0    0 -0.00000000000E+00 -0.00000000000E+00  0.11368683772E-12  0.17120000000E+03  0.17120000000E+03 0.  0.
         13    1    1    2    0    0 -0.19760880320E+02  0.32584765856E+01  0.10375362682E+03  0.10566899405E+03  0.10566000000E+00 0.  1.
        994    1    1    2    0    0  0.11862189176E+02 -0.26198230107E+02  0.46229743547E+01  0.17366021618E+03  0.17120000000E+03 0.  0.
        998    1    1    2    0    0  0.78986911437E+01  0.22939753522E+02  0.13916233951E+04  0.13918707898E+04  0.10000000000E+02 0.  1.
</event>
<event>
 5    1  0.1129619E-008  0.3838758E+03  0.7957747E-01  0.3434454E+00
         13   -1    0    0    0    0  0.00000000000E+00  0.00000000000E+00  0.14999999963E+04  0.15000000000E+04  0.10566000000E+00 0. -1.
        994   -1    0    0    0    0 -0.00000000000E+00 -0.00000000000E+00  0.11368683772E-12  0.17120000000E+03  0.17120000000E+03 0.  0.
         13    1    1    2    0    0  0.19897636135E+02  0.18712191532E+02  0.14941230982E+03  0.15188848385E+03  0.10566000000E+00 0. -1.
        994    1    1    2    0    0 -0.20927791612E+02 -0.24424384871E+02  0.56114137321E+01  0.17428554444E+03  0.17120000000E+03 0.  0.
        998    1    1    2    0    0  0.10301554765E+01  0.57121933385E+01  0.13449762727E+04  0.13450259717E+04  0.10000000000E+02 0. -1.
</event>
<event>
 5    1  0.1434241E-008  0.3861054E+03  0.7957747E-01  0.3424998E+00
         13   -1    0    0    0    0  0.00000000000E+00  0.00000000000E+00  0.14999999963E+04  0.15000000000E+04  0.10566000000E+00 0. -1.
        994   -1    0    0    0    0 -0.00000000000E+00 -0.00000000000E+00  0.11368683772E-12  0.17120000000E+03  0.17120000000E+03 0.  0.
         13    1    1    2    0    0  0.67836312527E+01 -0.11374940792E+02  0.78262874635E+02  0.79375661517E+02  0.10566000000E+00 0. -1.
        994    1    1    2    0    0 -0.77916537345E+01  0.12109102635E+02  0.17620605387E+01  0.17181351836E+03  0.17120000000E+03 0.  0.
        998    1    1    2    0    0  0.10080224819E+01 -0.73416184319E+00  0.14199750611E+04  0.14200108201E+04  0.10000000000E+02 0.  0.
</event>
<event>
 5    1  0.1129619E-008  0.3775599E+03  0.7957747E-01  0.3461853E+00
         13   -1    0    0    0    0  0.00000000000E+00  0.00000000000E+00  0.14999999963E+04  0.15000000000E+04  0.10566000000E+00 0. -1.
        994   -1    0    0    0    0 -0.00000000000E+00 -0.00000000000E+00  0.11368683772E-12  0.17120000000E+03  0.17120000000E+03 0.  0.
         13    1    1    2    0    0 -0.34628481400E+02  0.86556668817E+01  0.12072206103E+03  0.12588836117E+03  0.10566000000E+00 0. -1.
        994    1    1    2    0    0  0.14691049611E+02 -0.22940212024E+01  0.61154433723E+01  0.17195327307E+03  0.17120000000E+03 0.  0.
        998    1    1    2    0    0  0.19937431788E+02 -0.63616456793E+01  0.13731624919E+04  0.13733583658E+04  0.10000000000E+02 0. -1.
</event>
<event>
 5    1  0.1129619E-008  0.3684373E+03  0.7957747E-01  0.3503104E+00
         13   -1    0    0    0    0  0.00000000000E+00  0.00000000000E+00  0.14999999963E+04  0.15000000000E+04  0.10566000000E+00 0.  1.
        994   -1    0    0    0    0 -0.00000000000E+00 -0.00000000000E+00  0.11368683772E-12  0.17120000000E+03  0.17120000000E+03 0.  0.
         13    1    1    2    0    0  0.50033192759E+02 -0.10647197748E+02  0.11350933100E+03  0.12450326335E+03  0.10566000000E+00 0.  1.
        994    1    1    2    0    0 -0.57929018599E+02  0.95171482494E+01  0.22195393181E+02  0.18234150045E+03  0.17120000000E+03 0.  0.
        998    1    1    2    0    0  0.78958258405E+01  0.11300494987E+01  0.13642952721E+04  0.13643552362E+04  0.10000000000E+02 0.  1.
</event>
<event>
 5    1  0.1129619E-008  0.3733204E+03  0.7957747E-01  0.3480769E+00
         13   -1    0    0    0    0  0.00000000000E+00  0.00000000000E+00  0.14999999963E+04  0.15000000000E+04  0.10566000000E+00 0. -1.
        994   -1    0    0    0    0 -0.00000000000E+00 -0.00000000000E+00  0.11368683772E-12  0.17120000000E+03  0.17120000000E+03 0.  0.
         13    1    1    2    0    0 -0.45693800184E+02 -0.21966040520E+02  0.17422116829E+03  0.18144822114E+03  0.10566000000E+00 0. -1.
        994    1    1    2    0    0  0.56248616709E+02 -0.54300883382E+02  0.28737179894E+02  0.19038844063E+03  0.17120000000E+03 0.  0.
        998    1    1    2    0    0 -0.10554816526E+02  0.76266923902E+02  0.12970416481E+04  0.12993633382E+04  0.10000000000E+02 0. -1.
</event>
<event>
 5    1  0.1129619E-008  0.3776345E+03  0.7957747E-01  0.3461524E+00
         13   -1    0    0    0    0  0.00000000000E+00  0.00000000000E+00  0.14999999963E+04  0.15000000000E+04  0.10566000000E+00 0.  1.
        994   -1    0    0    0    0 -0.00000000000E+00 -0.00000000000E+00  0.11368683772E-12  0.17120000000E+03  0.17120000000E+03 0.  0.
         13    1    1    2    0    0 -0.70003605738E+02  0.53496022267E+02  0.29696707975E+03  0.30976085426E+03  0.10566000000E+00 0.  1.
        994    1    1    2    0    0 -0.47602838661E+02 -0.12423740919E+03  0.81710071340E+02  0.23170442345E+03  0.17120000000E+03 0.  0.
        998    1    1    2    0    0  0.11760644440E+03  0.70741386920E+02  0.11213228452E+04  0.11297347223E+04  0.10000000000E+02 0.  1.
</event>
<event>
 5    1  0.1129619E-008  0.3782759E+03  0.7957747E-01  0.3458700E+00
         13   -1    0    0    0    0  0.00000000000E+00  0.00000000000E+00  0.14999999963E+04  0.15000000000E+04  0.10566000000E+00 0. -1.
        994   -1    0    0    0    0 -0.00000000000E+00 -0.00000000000E+00  0.11368683772E-12  0.17120000000E+03  0.17120000000E+03 0.  0.
         13    1    1    2    0    0  0.11543822227E+03  0.62433775189E+02  0.68559585470E+03  0.69804415805E+03  0.10566000000E+00 0. -1.
        994    1    1    2    0    0 -0.12080051201E+03 -0.86111323671E+02  0.82968523027E+02  0.24124912348E+03  0.17120000000E+03 0.  0.
        998    1    1    2    0    0  0.53622897372E+01  0.23677548482E+02  0.73143561856E+03  0.73190671847E+03  0.10000000000E+02 0. -1.
</event>
<event>
 5    1  0.1129619E-008  0.3736076E+03  0.7957747E-01  0.3479473E+00
         13   -1    0    0    0    0  0.00000000000E+00  0.00000000000E+00  0.14999999963E+04  0.15000000000E+04  0.10566000000E+00 0. -1.
        994   -1    0    0    0    0 -0.00000000000E+00 -0.00000000000E+00  0.11368683772E-12  0.17120000000E+03  0.17120000000E+03 0.  0.
         13    1    1    2    0    0 -0.11642121643E+02 -0.43081223152E+02  0.15446620451E+03  0.16078355103E+03  0.10566000000E+00 0. -1.
        994    1    1    2    0    0 -0.12794602614E+02 -0.67483844706E+00  0.79563113123E+01  0.17186302730E+03  0.17120000000E+03 0.  0.
        998    1    1    2    0    0  0.24436724256E+02  0.43756061599E+02  0.13375774805E+04  0.13385534217E+04  0.10000000000E+02 0. -1.
</event>
<event>
 5    1  0.1129619E-008  0.3796293E+03  0.7957747E-01  0.3452774E+00
         13   -1    0    0    0    0  0.00000000000E+00  0.00000000000E+00  0.14999999963E+04  0.15000000000E+04  0.10566000000E+00 0. -1.
        994   -1    0    0    0    0 -0.00000000000E+00 -0.00000000000E+00  0.11368683772E-12  0.17120000000E+03  0.17120000000E+03 0.  0.
         13    1    1    2    0    0  0.13698756312E+02 -0.39563757039E+02  0.16928975942E+03  0.17439031109E+03  0.10566000000E+00 0. -1.
        994    1    1    2    0    0  0.36430305885E+01  0.56086357001E+02  0.14966950866E+02  0.18081039995E+03  0.17120000000E+03 0.  0.
        998    1    1    2    0    0 -0.17341786900E+02 -0.16522599961E+02  0.13157432860E+04  0.13159992890E+04  0.10000000000E+02 0. -1.
</event>
<event>
 5    1  0.1129619E-008  0.3837482E+03  0.7957747E-01  0.3434999E+00
         13   -1    0    0    0    0  0.00000000000E+00  0.00000000000E+00  0.14999999963E+04  0.15000000000E+04  0.10566000000E+00 0.  1.
        994   -1    0    0    0    0 -0.00000000000E+00 -0.00000000000E+00  0.11368683772E-12  0.17120000000E+03  0.17120000000E+03 0.  0.
         13    1    1    2    0    0  0.15251668609E+02 -0.69829457893E+01  0.59522307154E+02  0.61840853327E+02  0.10566000000E+00 0.  1.
        994    1    1    2    0    0 -0.15030766767E+02  0.11742281268E+02  0.34551197563E+01  0.17229388547E+03  0.17120000000E+03 0.  0.
        998    1    1    2    0    0 -0.22090184221E+00 -0.47593354788E+01  0.14370225694E+04  0.14370652612E+04  0.10000000000E+02 0.  1.
</event>
<event>
 5    1  0.1129619E-008  0.3848450E+03  0.7957747E-01  0.3430330E+00
         13   -1    0    0    0    0  0.00000000000E+00  0.00000000000E+00  0.14999999963E+04  0.15000000000E+04  0.10566000000E+00 0.  1.
        994   -1    0    0    0    0 -0.00000000000E+00 -0.00000000000E+00  0.11368683772E-12  0.17120000000E+03  0.17120000000E+03 0.  0.
         13    1    1    2    0    0 -0.54173191832E+01  0.17204598909E+02  0.88179299036E+02  0.90005252698E+02  0.10566000000E+00 0.  1.
        994    1    1    2    0    0  0.13572291286E+02 -0.19314812267E+02  0.35428307230E+01  0.17285618506E+03  0.17120000000E+03 0.  0.
        998    1    1    2    0    0 -0.81549721024E+01  0.21102133582E+01  0.14082778665E+04  0.14083385622E+04  0.10000000000E+02 0.  1.
</event>
<event>
 5    1  0.1129619E-008  0.3843899E+03  0.7957747E-01  0.3432264E+00
         13   -1    0    0    0    0  0.00000000000E+00  0.00000000000E+00  0.14999999963E+04  0.15000000000E+04  0.10566000000E+00 0.  1.
        994   -1    0    0    0    0 -0.00000000000E+00 -0.00000000000E+00  0.11368683772E-12  0.17120000000E+03  0.17120000000E+03 0.  0.
         13    1    1    2    0    0 -0.25170089817E+01  0.11237426156E+02  0.33471118236E+02  0.35396920782E+02  0.10566000000E+00 0.  1.
        994    1    1    2    0    0  0.32179363659E+01 -0.10127252975E+02  0.23054900327E+01  0.17154495519E+03  0.17120000000E+03 0.  0.
        998    1    1    2    0    0 -0.70092738423E+00 -0.11101731810E+01  0.14642233880E+04  0.14642581240E+04  0.10000000000E+02 0.  1.
</event>
<event>
 5    1  0.1129619E-008  0.3760649E+03  0.7957747E-01  0.3468474E+00
         13   -1    0    0    0    0  0.00000000000E+00  0.00000000000E+00  0.14999999963E+04  0.15000000000E+04  0.10566000000E+00 0.  1.
        994   -1    0    0    0    0 -0.00000000000E+00 -0.00000000000E+00  0.11368683772E-12  0.17120000000E+03  0.17120000000E+03 0.  0.
         13    1    1    2    0    0 -0.48176876583E+02 -0.75663965767E+02  0.33122976558E+03  0.34316062700E+03  0.10566000000E+00 0.  1.
        994    1    1    2    0    0 -0.13935716140E+02  0.39180179002E+02  0.20384900179E+02  0.17735353046E+03  0.17120000000E+03 0.  0.
        998    1    1    2    0    0  0.62112592722E+02  0.36483786765E+02  0.11483853305E+04  0.11506858425E+04  0.10000000000E+02 0.  1.
</event>
<event>
 5    1  0.1129619E-008  0.3823394E+03  0.7957747E-01  0.3441035E+00
         13   -1    0    0    0    0  0.00000000000E+00  0.00000000000E+00  0.14999999963E+04  0.15000000000E+04  0.10566000000E+00 0. -1.
        994   -1    0    0    0    0 -0.00000000000E+00 -0.00000000000E+00  0.11368683772E-12  0.17120000000E+03  0.17120000000E+03 0.  0.
         13    1    1    2    0    0 -0.69485487601E+01  0.16051616186E+02  0.45959101569E+02  0.49175063733E+02  0.10566000000E+00 0. -1.
        994    1    1    2    0    0 -0.44169940777E+01 -0.40925574278E+02  0.85981380006E+01  0.17628891186E+03  0.17120000000E+03 0.  0.
        998    1    1    2    0    0  0.11365542838E+02  0.24873958092E+02  0.14454427567E+04  0.14457360244E+04  0.10000000000E+02 0. -1.
</event>
<event>
 5    1  0.1129619E-008  0.3795711E+03  0.7957747E-01  0.3453028E+00
         13   -1    0    0    0    0  0.00000000000E+00  0.00000000000E+00  0.14999999963E+04  0.15000000000E+04  0.10566000000E+00 0.  1.
        994   -1    0    0    0    0 -0.00000000000E+00 -0.00000000000E+00  0.11368683772E-12  0.17120000000E+03  0.17120000000E+03 0.  0.
         13    1    1    2    0    0  0.22122872424E+02  0.13494123290E+02  0.77397735535E+02  0.81620668201E+02  0.10566000000E+00 0.  1.
        994    1    1    2    0    0 -0.99268541757E+01 -0.49118576127E+01  0.47605424045E+01  0.17162392474E+03  0.17120000000E+03 0.  0.
        998    1    1    2    0    0 -0.12196018248E+02 -0.85822656769E+01  0.14178417183E+04  0.14179554071E+04  0.10000000000E+02 0.  1.
</event>
<event>
 5    1  0.1129619E-008  0.3838865E+03  0.7957747E-01  0.3434408E+00
         13   -1    0    0    0    0  0.00000000000E+00  0.00000000000E+00  0.14999999963E+04  0.15000000000E+04  0.10566000000E+00 0.  1.
        994   -1    0    0    0    0 -0.00000000000E+00 -0.00000000000E+00  0.11368683772E-12  0.17120000000E+03  0.17120000000E+03 0.  0.
         13    1    1    2    0    0 -0.12164506957E+02  0.11218297977E+01  0.33612972327E+02  0.35764183260E+02  0.10566000000E+00 0.  1.
        994    1    1    2    0    0  0.80218891403E+01  0.19293058759E+00  0.23965114148E+01  0.17140470004E+03  0.17120000000E+03 0.  0.
        998    1    1    2    0    0  0.41426178164E+01 -0.13147603853E+01  0.14639905125E+04  0.14640311167E+04  0.10000000000E+02 0.  1.
</event>
<event>
 5    1  0.1129619E-008  0.3840005E+03  0.7957747E-01  0.3433922E+00
         13   -1    0    0    0    0  0.00000000000E+00  0.00000000000E+00  0.14999999963E+04  0.15000000000E+04  0.10566000000E+00 0.  1.
        994   -1    0    0    0    0 -0.00000000000E+00 -0.00000000000E+00  0.11368683772E-12  0.17120000000E+03  0.17120000000E+03 0.  0.
         13    1    1    2    0    0  0.53899958928E+01 -0.11116879421E+02  0.35144151883E+02  0.37252646072E+02  0.10566000000E+00 0.  1.
        994    1    1    2    0    0 -0.65841623215E+01  0.74980073621E+01  0.24557858400E+01  0.17150814031E+03  0.17120000000E+03 0.  0.
        998    1    1    2    0    0  0.11941664287E+01  0.36188720586E+01  0.14624000586E+04  0.14624392136E+04  0.10000000000E+02 0.  1.
</event>
<event>
 5    1  0.1129619E-008  0.3761441E+03  0.7957747E-01  0.3468122E+00
         13   -1    0    0    0    0  0.00000000000E+00  0.00000000000E+00  0.14999999963E+04  0.15000000000E+04  0.10566000000E+00 0. -1.
        994   -1    0    0    0    0 -0.00000000000E+00 -0.00000000000E+00  0.11368683772E-12  0.17120000000E+03  0.17120000000E+03 0.  0.
         13    1    1    2    0    0 -0.19501891312E+02  0.69976473187E+02  0.39681999805E+03  0.40341436833E+03  0.10566000000E+00 0. -1.
        994    1    1    2    0    0  0.16814425659E+02 -0.47610080254E+02  0.14774396529E+02  0.17910099789E+03  0.17120000000E+03 0.  0.
        998    1    1    2    0    0  0.26874656532E+01 -0.22366392933E+02  0.10884056017E+04  0.10886846338E+04  0.10000000000E+02 0. -1.
</event>
<event>
 5    1  0.1129619E-008  0.3845958E+03  0.7957747E-01  0.3431388E+00
         13   -1    0    0    0    0  0.00000000000E+00  0.00000000000E+00  0.14999999963E+04  0.15000000000E+04  0.10566000000E+00 0.  1.
        994   -1    0    0    0    0 -0.00000000000E+00 -0.00000000000E+00  0.11368683772E-12  0.17120000000E+03  0.17120000000E+03 0.  0.
         13    1    1    2    0    0  0.70015541664E+01  0.18568869387E+02  0.11473539603E+03  0.11643902670E+03  0.10566000000E+00 0.  1.
        994    1    1    2    0    0 -0.12375434040E+02 -0.15248659076E+00  0.23354987305E+01  0.17166266098E+03  0.17120000000E+03 0.  0.
        998    1    1    2    0    0  0.53738798738E+01 -0.18416382796E+02  0.13829291015E+04  0.13830983123E+04  0.10000000000E+02 0.  1.
</event>
<event>
 5    1  0.1129619E-008  0.3727537E+03  0.7957747E-01  0.3483330E+00
         13   -1    0    0    0    0  0.00000000000E+00  0.00000000000E+00  0.14999999963E+04  0.15000000000E+04  0.10566000000E+00 0.  1.
        994   -1    0    0    0    0 -0.00000000000E+00 -0.00000000000E+00  0.11368683772E-12  0.17120000000E+03  0.17120000000E+03 0.  0.
         13    1    1    2    0    0 -0.25170726427E+02 -0.71045829494E+02  0.27046657660E+03  0.28077260475E+03  0.10566000000E+00 0.  1.
        994    1    1    2    0    0  0.30425330556E+02  0.82388588333E+02  0.34737459768E+02  0.19552419630E+03  0.17120000000E+03 0.  0.
        998    1    1    2    0    0 -0.52546041288E+01 -0.11342758839E+02  0.11947959599E+04  0.11949031989E+04  0.10000000000E+02 0. -1.
</event>
<event>
 5    1  0.1129619E-008  0.3812559E+03  0.7957747E-01  0.3445708E+00
         13   -1    0    0    0    0  0.00000000000E+00  0.00000000000E+00  0.14999999963E+04  0.15000000000E+04  0.10566000000E+00 0. -1.
        994   -1    0    0    0    0 -0.00000000000E+00 -0.00000000000E+00  0.11368683772E-12  0.17120000000E+03  0.17120000000E+03 0.  0.
         13    1    1    2    0    0 -0.78958041054E+01  0.77785358793E+01  0.15994347083E+02  0.19459692843E+02  0.10566000000E+00 0. -1.
        994    1    1    2    0    0  0.92867287012E+01 -0.49389420286E+01  0.38689450940E+01  0.17156644548E+03  0.17120000000E+03 0.  0.
        998    1    1    2    0    0 -0.13909245958E+01 -0.28395938507E+01  0.14801367041E+04  0.14801738617E+04  0.10000000000E+02 0. -1.
</event>
<event>
 5    1  0.1129619E-008  0.3506899E+03  0.7957747E-01  0.3589633E+00
         13   -1    0    0    0    0  0.00000000000E+00  0.00000000000E+00  0.14999999963E+04  0.15000000000E+04  0.10566000000E+00 0. -1.
        994   -1    0    0    0    0 -0.00000000000E+00 -0.00000000000E+00  0.11368683772E-12  0.17120000000E+03  0.17120000000E+03 0.  0.
         13    1    1    2    0    0 -0.23088258513E+03  0.87075137492E+02  0.11903883430E+04  0.12156945611E+04  0.10566000000E+00 0. -1.
        994    1    1    2    0    0  0.17175753742E+03 -0.41739011871E+02  0.17717700421E+03  0.30322257104E+03  0.17120000000E+03 0.  0.
        998    1    1    2    0    0  0.59125047713E+02 -0.45336125621E+02  0.13243464907E+03  0.15228286781E+03  0.10000000000E+02 0. -1.
</event>
<event>
 5    1  0.1129619E-008  0.3810472E+03  0.7957747E-01  0.3446611E+00
         13   -1    0    0    0    0  0.00000000000E+00  0.00000000000E+00  0.14999999963E+04  0.15000000000E+04  0.10566000000E+00 0. -1.
        994   -1    0    0    0    0 -0.00000000000E+00 -0.00000000000E+00  0.11368683772E-12  0.17120000000E+03  0.17120000000E+03 0.  0.
         13    1    1    2    0    0  0.25213453185E+02 -0.88254500732E+01  0.87545723157E+02  0.91530713958E+02  0.10566000000E+00 0. -1.
        994    1    1    2    0    0 -0.64545383022E+02 -0.56456980711E+02  0.28503741301E+02  0.19358564102E+03  0.17120000000E+03 0.  0.
        998    1    1    2    0    0  0.39331929838E+02  0.65282430784E+02  0.13839505318E+04  0.13860836450E+04  0.10000000000E+02 0. -1.
</event>
<event>
 5    1  0.1129619E-008  0.3833153E+03  0.7957747E-01  0.3436849E+00
         13   -1    0    0    0    0  0.00000000000E+00  0.00000000000E+00  0.14999999963E+04  0.15000000000E+04  0.10566000000E+00 0.  1.
        994   -1    0    0    0    0 -0.00000000000E+00 -0.00000000000E+00  0.11368683772E-12  0.17120000000E+03  0.17120000000E+03 0.  0.
         13    1    1    2    0    0  0.13815590742E+02  0.17881332993E+02  0.96644178299E+02  0.99250798387E+02  0.10566000000E+00 0.  1.
        994    1    1    2    0    0 -0.19818035315E+02 -0.14804530195E+02  0.44949556911E+01  0.17303633510E+03  0.17120000000E+03 0.  0.
        998    1    1    2    0    0  0.60024445727E+01 -0.30768027986E+01  0.13988608623E+04  0.13989128665E+04  0.10000000000E+02 0.  1.
</event>
<event>
 5    1  0.1129619E-008  0.3860908E+03  0.7957747E-01  0.3425059E+00
         13   -1    0    0    0    0  0.00000000000E+00  0.00000000000E+00  0.14999999963E+04  0.15000000000E+04  0.10566000000E+00 0.  1.
        994   -1    0    0    0    0 -0.00000000000E+00 -0.00000000000E+00  0.11368683772E-12  0.17120000000E+03  0.17120000000E+03 0.  0.
         13    1    1    2    0    0  0.90342115943E+01 -0.60179114659E+01  0.58183029134E+02  0.59187061769E+02  0.10566000000E+00 0.  1.
        994    1    1    2    0    0  0.49178442109E+01  0.60113602438E+01  0.12872167123E+01  0.17138091659E+03  0.17120000000E+03 0.  0.
        998    1    1    2    0    0 -0.13952055805E+02  0.65512221156E-02  0.14405297504E+04  0.14406320216E+04  0.10000000000E+02 0.  1.
</event>
<event>
 5    1  0.1129619E-008  0.3833466E+03  0.7957747E-01  0.3436715E+00
         13   -1    0    0    0    0  0.00000000000E+00  0.00000000000E+00  0.14999999963E+04  0.15000000000E+04  0.10566000000E+00 0. -1.
        994   -1    0    0    0    0 -0.00000000000E+00 -0.00000000000E+00  0.11368683772E-12  0.17120000000E+03  0.17120000000E+03 0.  0.
         13    1    1    2    0    0  0.11656596360E+02  0.39419801693E+02  0.23015830996E+03  0.23380046153E+03  0.10566000000E+00 0. -1.
        994    1    1    2    0    0 -0.12622465543E+02 -0.65361253422E+02  0.17245667493E+02  0.18449464256E+03  0.17120000000E+03 0.  0.
        998    1    1    2    0    0  0.96586918283E+00  0.25941451729E+02  0.12525960188E+04  0.12529048959E+04  0.10000000000E+02 0. -1.
</event>
<event>
 5    1  0.1129619E-008  0.3831690E+03  0.7957747E-01  0.3437475E+00
         13   -1    0    0    0    0  0.00000000000E+00  0.00000000000E+00  0.14999999963E+04  0.15000000000E+04  0.10566000000E+00 0.  1.
        994   -1    0    0    0    0 -0.00000000000E+00 -0.00000000000E+00  0.11368683772E-12  0.17120000000E+03  0.17120000000E+03 0.  0.
         13    1    1    2    0    0 -0.58137891096E+01 -0.24300925546E+02  0.11187350246E+03  0.11462995613E+03  0.10566000000E+00 0.  1.
        994    1    1    2    0    0  0.15485298819E+02  0.25603464276E+02  0.55095610173E+01  0.17388250954E+03  0.17120000000E+03 0.  0.
        998    1    1    2    0    0 -0.96715097093E+01 -0.13025387300E+01  0.13826169328E+04  0.13826875343E+04  0.10000000000E+02 0.  1.
</event>
<event>
 5    1  0.1129619E-008  0.4095329E+03  0.7957747E-01  0.3331854E+00
         13   -1    0    0    0    0  0.00000000000E+00  0.00000000000E+00  0.14999999963E+04  0.15000000000E+04  0.10566000000E+00 0. -1.
        994   -1    0    0    0    0 -0.00000000000E+00 -0.00000000000E+00  0.11368683772E-12  0.17120000000E+03  0.17120000000E+03 0.  0.
         13    1    1    2    0    0 -0.15795795705E+02  0.49224074231E+02  0.29231937540E+02  0.59388837185E+02  0.10566000000E+00 0. -1.
        994    1    1    2    0    0 -0.38655991212E+02 -0.30323214505E+02  0.43500655580E+02  0.18334538454E+03  0.17120000000E+03 0.  0.
        998    1    1    2    0    0  0.54451786917E+02 -0.18900859725E+02  0.14272674032E+04  0.14284657783E+04  0.10000000000E+02 0. -1.
</event>
<event>
 5    1  0.1129619E-008  0.3715077E+03  0.7957747E-01  0.3488990E+00
         13   -1    0    0    0    0  0.00000000000E+00  0.00000000000E+00  0.14999999963E+04  0.15000000000E+04  0.10566000000E+00 0.  1.
        994   -1    0    0    0    0 -0.00000000000E+00 -0.00000000000E+00  0.11368683772E-12  0.17120000000E+03  0.17120000000E+03 0.  0.
         13    1    1    2    0    0 -0.54041016758E+02 -0.18612213701E+02  0.11875810246E+03  0.13179660107E+03  0.10566000000E+00 0.  1.
        994    1    1    2    0    0  0.65506330378E+02  0.25853392671E+02  0.29378912486E+02  0.18743542283E+03  0.17120000000E+03 0.  0.
        998    1    1    2    0    0 -0.11465313620E+02 -0.72411789699E+01  0.13518629813E+04  0.13519679761E+04  0.10000000000E+02 0.  1.
</event>
<event>
 5    1  0.1129619E-008  0.3813395E+03  0.7957747E-01  0.3445347E+00
         13   -1    0    0    0    0  0.00000000000E+00  0.00000000000E+00  0.14999999963E+04  0.15000000000E+04  0.10566000000E+00 0. -1.
        994   -1    0    0    0    0 -0.00000000000E+00 -0.00000000000E+00  0.11368683772E-12  0.17120000000E+03  0.17120000000E+03 0.  0.
         13    1    1    2    0    0  0.31608120325E+02 -0.25762784181E+01  0.13531875824E+03  0.13898520776E+03  0.10566000000E+00 0. -1.
        994    1    1    2    0    0 -0.28182959780E+02  0.91535319563E+01  0.63863520838E+01  0.17386285360E+03  0.17120000000E+03 0.  0.
        998    1    1    2    0    0 -0.34251605458E+01 -0.65772535382E+01  0.13582948860E+04  0.13583519386E+04  0.10000000000E+02 0. -1.
</event>
<event>
 5    1  0.1129619E-008  0.3696458E+03  0.7957747E-01  0.3497520E+00
         13   -1    0    0    0    0  0.00000000000E+00  0.00000000000E+00  0.14999999963E+04  0.15000000000E+04  0.10566000000E+00 0.  1.
        994   -1    0    0    0    0 -0.00000000000E+00 -0.00000000000E+00  0.11368683772E-12  0.17120000000E+03  0.17120000000E+03 0.  0.
         13    1    1    2    0    0  0.47142413219E+02 -0.19851670005E+02  0.12715066421E+03  0.13705399848E+03  0.10566000000E+00 0.  1.
        994    1    1    2    0    0 -0.36999572967E+02  0.30984204193E+02  0.17560580865E+02  0.17873668708E+03  0.17120000000E+03 0.  0.
        998    1    1    2    0    0 -0.10142840252E+02 -0.11132534188E+02  0.13552887512E+04  0.13554093144E+04  0.10000000000E+02 0.  1.
</event>
<event>
 5    1  0.1129619E-008  0.3856780E+03  0.7957747E-01  0.3426802E+00
         13   -1    0    0    0    0  0.00000000000E+00  0.00000000000E+00  0.14999999963E+04  0.15000000000E+04  0.10566000000E+00 0.  1.
        994   -1    0    0    0    0 -0.00000000000E+00 -0.00000000000E+00  0.11368683772E-12  0.17120000000E+03  0.17120000000E+03 0.  0.
         13    1    1    2    0    0  0.49331726281E+01  0.14684617889E+02  0.87340851147E+02  0.88704056491E+02  0.10566000000E+00 0.  1.
        994    1    1    2    0    0 -0.90855602587E+01 -0.16254351338E+02  0.24325536179E+01  0.17222691038E+03  0.17120000000E+03 0.  0.
        998    1    1    2    0    0  0.41523876306E+01  0.15697334493E+01  0.14102265915E+04  0.14102690331E+04  0.10000000000E+02 0.  1.
</event>
<event>
 5    1  0.1129619E-008  0.3799438E+03  0.7957747E-01  0.3451403E+00
         13   -1    0    0    0    0  0.00000000000E+00  0.00000000000E+00  0.14999999963E+04  0.15000000000E+04  0.10566000000E+00 0. -1.
        994   -1    0    0    0    0 -0.00000000000E+00 -0.00000000000E+00  0.11368683772E-12  0.17120000000E+03  0.17120000000E+03 0.  0.
         13    1    1    2    0    0 -0.49156519034E+02 -0.10307348851E+03  0.66364829650E+03  0.67340149985E+03  0.10566000000E+00 0. -1.
        994    1    1    2    0    0  0.72249894958E+02  0.10875136289E+03  0.63440976557E+02  0.22445735399E+03  0.17120000000E+03 0.  0.
        998    1    1    2    0    0 -0.23093375924E+02 -0.56778743873E+01  0.77291072322E+03  0.77334114616E+03  0.10000000000E+02 0. -1.
</event>
<event>
 5    1  0.1129619E-008  0.3840824E+03  0.7957747E-01  0.3433573E+00
         13   -1    0    0    0    0  0.00000000000E+00  0.00000000000E+00  0.14999999963E+04  0.15000000000E+04  0.10566000000E+00 0.  1.
        994   -1    0    0    0    0 -0.00000000000E+00 -0.00000000000E+00  0.11368683772E-12  0.17120000000E+03  0.17120000000E+03 0.  0.
         13    1    1    2    0    0 -0.57707969112E+01 -0.14927138973E+02  0.61776727507E+02  0.63816117090E+02  0.10566000000E+00 0.  1.
        994    1    1    2    0    0  0.30630554224E+01  0.75120429006E+01  0.23034863904E+01  0.17140758194E+03  0.17120000000E+03 0.  0.
        998    1    1    2    0    0  0.27077414887E+01  0.74150960720E+01  0.14359197824E+04  0.14359763010E+04  0.10000000000E+02 0.  1.
</event>
<event>
 5    1  0.1129619E-008  0.3823556E+03  0.7957747E-01  0.3440965E+00
         13   -1    0    0    0    0  0.00000000000E+00  0.00000000000E+00  0.14999999963E+04  0.15000000000E+04  0.10566000000E+00 0.  1.
        994   -1    0    0    0    0 -0.00000000000E+00 -0.00000000000E+00  0.11368683772E-12  0.17120000000E+03  0.17120000000E+03 0.  0.
         13    1    1    2    0    0  0.19724543338E+02  0.25928744637E+01  0.64712199069E+02  0.67701259075E+02  0.10566000000E+00 0.  1.
        994    1    1    2    0    0 -0.17805017630E+02  0.19325623499E+01  0.40134438505E+01  0.17218101284E+03  0.17120000000E+03 0.  0.
        998    1    1    2    0    0 -0.19195257082E+01 -0.45254368136E+01  0.14312743534E+04  0.14313177281E+04  0.10000000000E+02 0.  1.
</event>
<event>
 5    1  0.1129619E-008  0.3838839E+03  0.7957747E-01  0.3434419E+00
         13   -1    0    0    0    0  0.00000000000E+00  0.00000000000E+00  0.14999999963E+04  0.15000000000E+04  0.10566000000E+00 0.  1.
        994   -1    0    0    0    0 -0.00000000000E+00 -0.00000000000E+00  0.11368683772E-12  0.17120000000E+03  0.17120000000E+03 0.  0.
         13    1    1    2    0    0 -0.37830801870E+01 -0.15696555672E+02  0.59919234578E+02  0.62056582182E+02  0.10566000000E+00 0.  1.
        994    1    1    2    0    0  0.10423080883E+02  0.59928170306E+01  0.26625292925E+01  0.17164231277E+03  0.17120000000E+03 0.  0.
        998    1    1    2    0    0 -0.66400006961E+01  0.97037386411E+01  0.14374182324E+04  0.14375011050E+04  0.10000000000E+02 0.  1.
</event>
<event>
 5    1  0.1129619E-008  0.3826913E+03  0.7957747E-01  0.3439523E+00
         13   -1    0    0    0    0  0.00000000000E+00  0.00000000000E+00  0.14999999963E+04  0.15000000000E+04  0.10566000000E+00 0.  1.
        994   -1    0    0    0    0 -0.00000000000E+00 -0.00000000000E+00  0.11368683772E-12  0.17120000000E+03  0.17120000000E+03 0.  0.
         13    1    1    2    0    0  0.96272306948E+01  0.90828819934E+01  0.32737406794E+02  0.35311914190E+02  0.10566000000E+00 0.  1.
        994    1    1    2    0    0  0.40491688371E+01  0.10128201587E+02  0.31750597975E+01  0.17157650550E+03  0.17120000000E+03 0.  0.
        998    1    1    2    0    0 -0.13676399532E+02 -0.19211083581E+02  0.14640875297E+04  0.14643115803E+04  0.10000000000E+02 0.  1.
</event>
<event>
 5    1  0.1129619E-008  0.3751702E+03  0.7957747E-01  0.3472462E+00
         13   -1    0    0    0    0  0.00000000000E+00  0.00000000000E+00  0.14999999963E+04  0.15000000000E+04  0.10566000000E+00 0.  1.
        994   -1    0    0    0    0 -0.00000000000E+00 -0.00000000000E+00  0.11368683772E-12  0.17120000000E+03  0.17120000000E+03 0.  0.
         13    1    1    2    0    0 -0.15008187152E+02 -0.38073868943E+02  0.51285894870E+02  0.65613408344E+02  0.10566000000E+00 0.  1.
        994    1    1    2    0    0  0.49492683284E+02  0.44875866516E+02  0.29766968233E+02  0.18616895953E+03  0.17120000000E+03 0.  0.
        998    1    1    2    0    0 -0.34484496132E+02 -0.68019975730E+01  0.14189471332E+04  0.14194176321E+04  0.10000000000E+02 0.  1.
</event>
<event>
 5    1  0.1129619E-008  0.3847483E+03  0.7957747E-01  0.3430741E+00
         13   -1    0    0    0    0  0.00000000000E+00  0.00000000000E+00  0.14999999963E+04  0.15000000000E+04  0.10566000000E+00 0. -1.
        994   -1    0    0    0    0 -0.00000000000E+00 -0.00000000000E+00  0.11368683772E-12  0.17120000000E+03  0.17120000000E+03 0.  0.
         13    1    1    2    0    0  0.11600464696E+02  0.71507561836E+01  0.50629064665E+02  0.52431073306E+02  0.10566000000E+00 0. -1.
        994    1    1    2    0    0 -0.15078458834E+02 -0.72779877356E+01  0.26783723402E+01  0.17203762003E+03  0.17120000000E+03 0.  0.
        998    1    1    2    0    0  0.34779941378E+01  0.12723155204E+00  0.14466925593E+04  0.14467313067E+04  0.10000000000E+02 0. -1.
</event>
<event>
 5    1  0.1129619E-008  0.3755686E+03  0.7957747E-01  0.3470684E+00
         13   -1    0    0    0    0  0.00000000000E+00  0.00000000000E+00  0.14999999963E+04  0.15000000000E+04  0.10566000000E+00 0. -1.
        994   -1    0    0    0    0 -0.00000000000E+00 -0.00000000000E+00  0.11368683772E-12  0.17120000000E+03  0.17120000000E+03 0.  0.
         13    1    1    2    0    0 -0.17362146394E+02  0.12857412939E+02  0.33478370441E+02  0.39844317616E+02  0.10566000000E+00 0. -1.
        994    1    1    2    0    0  0.17419243360E+02 -0.94088336074E+01  0.77179553054E+01  0.17251366040E+03  0.17120000000E+03 0.  0.
        998    1    1    2    0    0 -0.57096966399E-01 -0.34485793316E+01  0.14588036705E+04  0.14588420220E+04  0.10000000000E+02 0. -1.
</event>
<event>
 5    1  0.1129619E-008  0.3705761E+03  0.7957747E-01  0.3493248E+00
         13   -1    0    0    0    0  0.00000000000E+00  0.00000000000E+00  0.14999999963E+04  0.15000000000E+04  0.10566000000E+00 0. -1.
        994   -1    0    0    0    0 -0.00000000000E+00 -0.00000000000E+00  0.11368683772E-12  0.17120000000E+03  0.17120000000E+03 0.  0.
         13    1    1    2    0    0  0.28322742524E+02 -0.45896424563E+02  0.13831238906E+03  0.14845533895E+03  0.10566000000E+00 0. -1.
        994    1    1    2    0    0 -0.20774683174E+02 -0.14200261994E+01  0.12764119745E+02  0.17293341692E+03  0.17120000000E+03 0.  0.
        998    1    1    2    0    0 -0.75480593502E+01  0.47316450762E+02  0.13489234875E+04  0.13498112441E+04  0.10000000000E+02 0. -1.
</event>
<event>
 5    1  0.1129619E-008  0.3621072E+03  0.7957747E-01  0.3532970E+00
         13   -1    0    0    0    0  0.00000000000E+00  0.00000000000E+00  0.14999999963E+04  0.15000000000E+04  0.10566000000E+00 0.  1.
        994   -1    0    0    0    0 -0.00000000000E+00 -0.00000000000E+00  0.11368683772E-12  0.17120000000E+03  0.17120000000E+03 0.  0.
         13    1    1    2    0    0 -0.35571027473E+02 -0.23704293356E+03  0.10807829477E+04  0.11070440107E+04  0.10566000000E+00 0.  1.
        994    1    1    2    0    0  0.22122831541E+02  0.22040620047E+03  0.20094643443E+03  0.34461169799E+03  0.17120000000E+03 0.  0.
        998    1    1    2    0    0  0.13448195932E+02  0.16636733085E+02  0.21827061413E+03  0.21954429132E+03  0.10000000000E+02 0.  1.
</event>
<event>
 5    1  0.1129619E-008  0.3832639E+03  0.7957747E-01  0.3437069E+00
         13   -1    0    0    0    0  0.00000000000E+00  0.00000000000E+00  0.14999999963E+04  0.15000000000E+04  0.10566000000E+00 0. -1.
        994   -1    0    0    0    0 -0.00000000000E+00 -0.00000000000E+00  0.11368683772E-12  0.17120000000E+03  0.17120000000E+03 0.  0.
         13    1    1    2    0    0 -0.57159237576E+01  0.17555566148E+02  0.64954163648E+02  0.67527211008E+02  0.10566000000E+00 0. -1.
        994    1    1    2    0    0  0.74993750969E+00 -0.20547982327E+02  0.38940277062E+01  0.17247430370E+03  0.17120000000E+03 0.  0.
        998    1    1    2    0    0  0.49659862479E+01  0.29924161789E+01  0.14311518049E+04  0.14311984853E+04  0.10000000000E+02 0. -1.
</event>
<event>
 5    1  0.1129619E-008  0.3747205E+03  0.7957747E-01  0.3474474E+00
         13   -1    0    0    0    0  0.00000000000E+00  0.00000000000E+00  0.14999999963E+04  0.15000000000E+04  0.10566000000E+00 0. -1.
        994   -1    0    0    0    0 -0.00000000000E+00 -0.00000000000E+00  0.11368683772E-12  0.17120000000E+03  0.17120000000E+03 0.  0.
         13    1    1    2    0    0 -0.17639436470E+02  0.16699439349E+01  0.21683815987E+02  0.28002454741E+02  0.10566000000E+00 0. -1.
        994    1    1    2    0    0 -0.16075137239E+02  0.49700976568E+02  0.16163395150E+02  0.17972003909E+03  0.17120000000E+03 0.  0.
        998    1    1    2    0    0  0.33714573710E+02 -0.51370920503E+02  0.14621527851E+04  0.14634775062E+04  0.10000000000E+02 0. -1.
</event>
<event>
 5    1  0.1129619E-008  0.3836751E+03  0.7957747E-01  0.3435311E+00
         13   -1    0    0    0    0  0.00000000000E+00  0.00000000000E+00  0.14999999963E+04  0.15000000000E+04  0.10566000000E+00 0.  1.
        994   -1    0    0    0    0 -0.00000000000E+00 -0.00000000000E+00  0.11368683772E-12  0.17120000000E+03  0.17120000000E+03 0.  0.
         13    1    1    2    0    0  0.16854600673E+02  0.17355427667E+01  0.82457657450E+02  0.84180556595E+02  0.10566000000E+00 0.  1.
        994    1    1    2    0    0  0.30654045266E+02  0.21725223151E+02  0.69658280041E+01  0.17541270927E+03  0.17120000000E+03 0.  0.
        998    1    1    2    0    0 -0.47508645939E+02 -0.23460765918E+02  0.14105765108E+04  0.14116067341E+04  0.10000000000E+02 0.  1.
</event>
<event>
 5    1  0.1129619E-008  0.3756667E+03  0.7957747E-01  0.3470246E+00
         13   -1    0    0    0    0  0.00000000000E+00  0.00000000000E+00  0.14999999963E+04  0.15000000000E+04  0.10566000000E+00 0. -1.
        994   -1    0    0    0    0 -0.00000000000E+00 -0.00000000000E+00  0.11368683772E-12  0.17120000000E+03  0.17120000000E+03 0.  0.
         13    1    1    2    0    0 -0.80777115172E+01 -0.72496557585E+02  0.37086690056E+03  0.37797257755E+03  0.10566000000E+00 0. -1.
        994    1    1    2    0    0  0.43271311320E+02  0.53336909072E+02  0.22507317829E+02  0.18583124497E+03  0.17120000000E+03 0.  0.
        998    1    1    2    0    0 -0.35193599803E+02  0.19159648513E+02  0.11066257779E+04  0.11073961775E+04  0.10000000000E+02 0. -1.
</event>
<event>
 5    1  0.1129619E-008  0.3928386E+03  0.7957747E-01  0.3397093E+00
         13   -1    0    0    0    0  0.00000000000E+00  0.00000000000E+00  0.14999999963E+04  0.15000000000E+04  0.10566000000E+00 0.  1.
        994   -1    0    0    0    0 -0.00000000000E+00 -0.00000000000E+00  0.11368683772E-12  0.17120000000E+03  0.17120000000E+03 0.  0.
         13    1    1    2    0    0 -0.36045034211E+02  0.35607615980E+02  0.49453326795E+02  0.70801055799E+02  0.10566000000E+00 0.  1.
        994    1    1    2    0    0  0.95643185029E+01 -0.33605806713E+01  0.23958099576E+02  0.17316523966E+03  0.17120000000E+03 0.  0.
        998    1    1    2    0    0  0.26480715708E+02 -0.32247035308E+02  0.14265885699E+04  0.14272337045E+04  0.10000000000E+02 0.  1.
</event>
<event>
 5    1  0.1129619E-008  0.3833570E+03  0.7957747E-01  0.3436671E+00
         13   -1    0    0    0    0  0.00000000000E+00  0.00000000000E+00  0.14999999963E+04  0.15000000000E+04  0.10566000000E+00 0.  1.
        994   -1    0    0    0    0 -0.00000000000E+00 -0.00000000000E+00  0.11368683772E-12  0.17120000000E+03  0.17120000000E+03 0.  0.
         13    1    1    2    0    0 -0.24232138682E+02 -0.10626090002E+02  0.14217847214E+03  0.14461963711E+03  0.10566000000E+00 0.  1.
        994    1    1    2    0    0  0.15283417626E+02  0.51472257188E+01  0.33084299225E+01  0.17198971625E+03  0.17120000000E+03 0.  0.
        998    1    1    2    0    0  0.89487210559E+01  0.54788642832E+01  0.13545130942E+04  0.13545906466E+04  0.10000000000E+02 0.  1.
</event>
<event>
 5    1  0.1129619E-008  0.3752730E+03  0.7957747E-01  0.3472003E+00
         13   -1    0    0    0    0  0.00000000000E+00  0.00000000000E+00  0.14999999963E+04  0.15000000000E+04  0.10566000000E+00 0.  1.
        994   -1    0    0    0    0 -0.00000000000E+00 -0.00000000000E+00  0.11368683772E-12  0.17120000000E+03  0.17120000000E+03 0.  0.
         13    1    1    2    0    0  0.25090421553E+02  0.23874990506E+02  0.10874351971E+03  0.11412584575E+03  0.10566000000E+00 0.  1.
        994    1    1    2    0    0 -0.91457320050E+00  0.32633444499E+02  0.10166605747E+02  0.17458115023E+03  0.17120000000E+03 0.  0.
        998    1    1    2    0    0 -0.24175848353E+02 -0.56508435005E+02  0.13810898708E+04  0.13824930040E+04  0.10000000000E+02 0.  1.
</event>
<event>
 5    1  0.1129619E-008  0.3824031E+03  0.7957747E-01  0.3440761E+00
         13   -1    0    0    0    0  0.00000000000E+00  0.00000000000E+00  0.14999999963E+04  0.15000000000E+04  0.10566000000E+00 0. -1.
        994   -1    0    0    0    0 -0.00000000000E+00 -0.00000000000E+00  0.11368683772E-12  0.17120000000E+03  0.17120000000E+03 0.  0.
         13    1    1    2    0    0 -0.88111774011E+01  0.13934100597E+02  0.43182885870E+02  0.46223033249E+02  0.10566000000E+00 0. -1.
        994    1    1    2    0    0  0.86882769107E+01 -0.22709037905E+02  0.48881541100E+01  0.17298705330E+03  0.17120000000E+03 0.  0.
        998    1    1    2    0    0  0.12290049043E+00  0.87749373073E+01  0.14519289563E+04  0.14519899135E+04  0.10000000000E+02 0. -1.
</event>
<event>
 5    1  0.1129619E-008  0.3803470E+03  0.7957747E-01  0.3449649E+00
         13   -1    0    0    0    0  0.00000000000E+00  0.00000000000E+00  0.14999999963E+04  0.15000000000E+04  0.10566000000E+00 0.  1.
        994   -1    0    0    0    0 -0.00000000000E+00 -0.00000000000E+00  0.11368683772E-12  0.17120000000E+03  0.17120000000E+03 0.  0.
         13    1    1    2    0    0  0.85632811002E+00  0.12075063754E+02  0.17094902595E+02  0.20947250923E+02  0.10566000000E+00 0.  1.
        994    1    1    2    0    0  0.15546018960E+02 -0.38403534111E+01  0.48147888085E+01  0.17201467731E+03  0.17120000000E+03 0.  0.
        998    1    1    2    0    0 -0.16402347070E+02 -0.82347103430E+01  0.14780903049E+04  0.14782380718E+04  0.10000000000E+02 0.  1.
</event>
<event>
 5    1  0.1129619E-008  0.3849044E+03  0.7957747E-01  0.3430078E+00
         13   -1    0    0    0    0  0.00000000000E+00  0.00000000000E+00  0.14999999963E+04  0.15000000000E+04  0.10566000000E+00 0. -1.
        994   -1    0    0    0    0 -0.00000000000E+00 -0.00000000000E+00  0.11368683772E-12  0.17120000000E+03  0.17120000000E+03 0.  0.
         13    1    1    2    0    0  0.53770168071E+01  0.10233387254E+02  0.38793168255E+02  0.40479075974E+02  0.10566000000E+00 0. -1.
        994    1    1    2    0    0 -0.99987889914E+01 -0.86516561464E+01  0.22529657459E+01  0.17172461323E+03  0.17120000000E+03 0.  0.
        998    1    1    2    0    0  0.46217721843E+01 -0.15817311080E+01  0.14589538623E+04  0.14589963108E+04  0.10000000000E+02 0. -1.
</event>
<event>
 5    1  0.1129619E-008  0.3769501E+03  0.7957747E-01  0.3464547E+00
         13   -1    0    0    0    0  0.00000000000E+00  0.00000000000E+00  0.14999999963E+04  0.15000000000E+04  0.10566000000E+00 0.  1.
        994   -1    0    0    0    0 -0.00000000000E+00 -0.00000000000E+00  0.11368683772E-12  0.17120000000E+03  0.17120000000E+03 0.  0.
         13    1    1    2    0    0 -0.31693343582E+02 -0.61833377146E+02  0.21073348620E+03  0.22189287489E+03  0.10566000000E+00 0.  1.
        994    1    1    2    0    0 -0.78902341705E+01 -0.15261605162E+02  0.15720371460E+02  0.17277656805E+03  0.17120000000E+03 0.  0.
        998    1    1    2    0    0  0.39583577752E+02  0.77094982309E+02  0.12735461386E+04  0.12765305571E+04  0.10000000000E+02 0.  1.
</event>
<event>
 5    1  0.1129619E-008  0.3684253E+03  0.7957747E-01  0.3503159E+00
         13   -1    0    0    0    0  0.00000000000E+00  0.00000000000E+00  0.14999999963E+04  0.15000000000E+04  0.10566000000E+00 0. -1.
        994   -1    0    0    0    0 -0.00000000000E+00 -0.00000000000E+00  0.11368683772E-12  0.17120000000E+03  0.17120000000E+03 0.  0.
         13    1    1    2    0    0 -0.30574141961E+02  0.35807054677E+02  0.10136197978E+03  0.11176397197E+03  0.10566000000E+00 0. -1.
        994    1    1    2    0    0  0.28242865431E+02 -0.31355125658E+02  0.16325730858E+02  0.17707843697E+03  0.17120000000E+03 0.  0.
        998    1    1    2    0    0  0.23312765294E+01 -0.44519290196E+01  0.13823122856E+04  0.13823575911E+04  0.10000000000E+02 0. -1.
</event>
<event>
 5    1  0.1129619E-008  0.3831621E+03  0.7957747E-01  0.3437504E+00
         13   -1    0    0    0    0  0.00000000000E+00  0.00000000000E+00  0.14999999963E+04  0.15000000000E+04  0.10566000000E+00 0. -1.
        994   -1    0    0    0    0 -0.00000000000E+00 -0.00000000000E+00  0.11368683772E-12  0.17120000000E+03  0.17120000000E+03 0.  0.
         13    1    1    2    0    0  0.78276875965E+01 -0.11831906103E+02  0.38929221249E+02  0.41433828283E+02  0.10566000000E+00 0. -1.
        994    1    1    2    0    0 -0.19251498595E+02 -0.25153776777E+01  0.37934443275E+01  0.17233913526E+03  0.17120000000E+03 0.  0.
        998    1    1    2    0    0  0.11423810998E+02  0.14347283781E+02  0.14572773307E+04  0.14574270365E+04  0.10000000000E+02 0. -1.
</event>
<event>
 5    1  0.1129619E-008  0.3744224E+03  0.7957747E-01  0.3475810E+00
         13   -1    0    0    0    0  0.00000000000E+00  0.00000000000E+00  0.14999999963E+04  0.15000000000E+04  0.10566000000E+00 0. -1.
        994   -1    0    0    0    0 -0.00000000000E+00 -0.00000000000E+00  0.11368683772E-12  0.17120000000E+03  0.17120000000E+03 0.  0.
         13    1    1    2    0    0  0.58015460531E+02 -0.51071244347E+02  0.18920914779E+03  0.20438732454E+03  0.10566000000E+00 0. -1.
        994    1    1    2    0    0 -0.72723507537E+02  0.40521173364E+02  0.38336265750E+02  0.19419007006E+03  0.17120000000E+03 0.  0.
        998    1    1    2    0    0  0.14708047005E+02  0.10550070982E+02  0.12724545827E+04  0.12726226054E+04  0.10000000000E+02 0. -1.
</event>
<event>
 5    1  0.1129619E-008  0.3788748E+03  0.7957747E-01  0.3456072E+00
         13   -1    0    0    0    0  0.00000000000E+00  0.00000000000E+00  0.14999999963E+04  0.15000000000E+04  0.10566000000E+00 0. -1.
        994   -1    0    0    0    0 -0.00000000000E+00 -0.00000000000E+00  0.11368683772E-12  0.17120000000E+03  0.17120000000E+03 0.  0.
         13    1    1    2    0    0  0.33749555427E+02 -0.59415060635E+01  0.12910760744E+03  0.13357813986E+03  0.10566000000E+00 0. -1.
        994    1    1    2    0    0 -0.12675243315E+02 -0.23238086018E+01  0.52595986389E+01  0.17176485455E+03  0.17120000000E+03 0.  0.
        998    1    1    2    0    0 -0.21074312112E+02  0.82653146653E+01  0.13656327902E+04  0.13658570056E+04  0.10000000000E+02 0. -1.
</event>
<event>
 5    1  0.1129619E-008  0.3713650E+03  0.7957747E-01  0.3489641E+00
         13   -1    0    0    0    0  0.00000000000E+00  0.00000000000E+00  0.14999999963E+04  0.15000000000E+04  0.10566000000E+00 0. -1.
        994   -1    0    0    0    0 -0.00000000000E+00 -0.00000000000E+00  0.11368683772E-12  0.17120000000E+03  0.17120000000E+03 0.  0.
         13    1    1    2    0    0 -0.24751883623E+02  0.42339698827E+02  0.13123742128E+03  0.14010202621E+03  0.10566000000E+00 0. -1.
        994    1    1    2    0    0  0.26794718131E+02 -0.31419192881E+02  0.14448291853E+02  0.17670120469E+03  0.17120000000E+03 0.  0.
        998    1    1    2    0    0 -0.20428345080E+01 -0.10920505946E+02  0.13543142831E+04  0.13543967691E+04  0.10000000000E+02 0. -1.
</event>
<event>
 5    1  0.1129619E-008  0.3852083E+03  0.7957747E-01  0.3428789E+00
         13   -1    0    0    0    0  0.00000000000E+00  0.00000000000E+00  0.14999999963E+04  0.15000000000E+04  0.10566000000E+00 0.  1.
        994   -1    0    0    0    0 -0.00000000000E+00 -0.00000000000E+00  0.11368683772E-12  0.17120000000E+03  0.17120000000E+03 0.  0.
         13    1    1    2    0    0 -0.12924422685E+02  0.11511087141E+02  0.99856050105E+02  0.10134489497E+03  0.10566000000E+00 0.  1.
        994    1    1    2    0    0  0.10546306780E+02 -0.20253506990E+01  0.19058720577E+01  0.17154707511E+03  0.17120000000E+03 0.  0.
        998    1    1    2    0    0  0.23781159052E+01 -0.94857364417E+01  0.13982380741E+04  0.13983080299E+04  0.10000000000E+02 0.  1.
</event>
<event>
 5    1  0.1129619E-008  0.3807084E+03  0.7957747E-01  0.3448080E+00
         13   -1    0    0    0    0  0.00000000000E+00  0.00000000000E+00  0.14999999963E+04  0.15000000000E+04  0.10566000000E+00 0.  1.
        994   -1    0    0    0    0 -0.00000000000E+00 -0.00000000000E+00  0.11368683772E-12  0.17120000000E+03  0.17120000000E+03 0.  0.
         13    1    1    2    0    0 -0.61478654250E+01 -0.19902056936E+02  0.54149806463E+02  0.58018107722E+02  0.10566000000E+00 0.  1.
        994    1    1    2    0    0  0.10753853423E+02  0.19974829896E+02  0.54942475734E+01  0.17278387063E+03  0.17120000000E+03 0.  0.
        998    1    1    2    0    0 -0.46059879983E+01 -0.72772959693E-01  0.14403559422E+04  0.14403980217E+04  0.10000000000E+02 0.  1.
</event>
<event>
 5    1  0.1129619E-008  0.3788598E+03  0.7957747E-01  0.3456138E+00
         13   -1    0    0    0    0  0.00000000000E+00  0.00000000000E+00  0.14999999963E+04  0.15000000000E+04  0.10566000000E+00 0.  1.
        994   -1    0    0    0    0 -0.00000000000E+00 -0.00000000000E+00  0.11368683772E-12  0.17120000000E+03  0.17120000000E+03 0.  0.
         13    1    1    2    0    0  0.66287876881E+01 -0.22508764337E+02  0.10473605097E+02  0.25696164421E+02  0.10566000000E+00 0.  1.
        994    1    1    2    0    0 -0.15620194416E+02  0.23829395631E+02  0.18637242685E+02  0.17455262068E+03  0.17120000000E+03 0.  0.
        998    1    1    2    0    0  0.89914067280E+01 -0.13206312941E+01  0.14708891485E+04  0.14709512149E+04  0.10000000000E+02 0.  1.
</event>
<event>
 5    1  0.1129619E-008  0.3737833E+03  0.7957747E-01  0.3478682E+00
         13   -1    0    0    0    0  0.00000000000E+00  0.00000000000E+00  0.14999999963E+04  0.15000000000E+04  0.10566000000E+00 0.  1.
        994   -1    0    0    0    0 -0.00000000000E+00 -0.00000000000E+00  0.11368683772E-12  0.17120000000E+03  0.17120000000E+03 0.  0.
         13    1    1    2    0    0 -0.11495116288E+02  0.13392356806E+02  0.17857740600E+02  0.25107827119E+02  0.10566000000E+00 0.  1.
        994    1    1    2    0    0  0.12416286324E+02 -0.15362319127E+02  0.86376832694E+01  0.17255206341E+03  0.17120000000E+03 0.  0.
        998    1    1    2    0    0 -0.92117003602E+00  0.19699623217E+01  0.14735045724E+04  0.14735401095E+04  0.10000000000E+02 0.  1.
</event>
<event>
 5    1  0.1129619E-008  0.3822857E+03  0.7957747E-01  0.3441266E+00
         13   -1    0    0    0    0  0.00000000000E+00  0.00000000000E+00  0.14999999963E+04  0.15000000000E+04  0.10566000000E+00 0.  1.
        994   -1    0    0    0    0 -0.00000000000E+00 -0.00000000000E+00  0.11368683772E-12  0.17120000000E+03  0.17120000000E+03 0.  0.
         13    1    1    2    0    0 -0.18108314911E+02  0.18438908675E+02  0.11778394625E+03  0.12058595930E+03  0.10566000000E+00 0.  1.
        994    1    1    2    0    0  0.57439839922E+01 -0.36077927664E+01  0.31364579868E+01  0.17136302661E+03  0.17120000000E+03 0.  0.
        998    1    1    2    0    0  0.12364330918E+02 -0.14831115908E+02  0.13790795920E+04  0.13792510141E+04  0.10000000000E+02 0.  1.
</event>
<event>
 5    1  0.1129619E-008  0.3837023E+03  0.7957747E-01  0.3435195E+00
         13   -1    0    0    0    0  0.00000000000E+00  0.00000000000E+00  0.14999999963E+04  0.15000000000E+04  0.10566000000E+00 0.  1.
        994   -1    0    0    0    0 -0.00000000000E+00 -0.00000000000E+00  0.11368683772E-12  0.17120000000E+03  0.17120000000E+03 0.  0.
         13    1    1    2    0    0 -0.17499655910E+02  0.22855777708E+01  0.64867605795E+02  0.67225584924E+02  0.10566000000E+00 0.  1.
        994    1    1    2    0    0  0.19483946041E+02 -0.44339835236E+01  0.35955781281E+01  0.17239968836E+03  0.17120000000E+03 0.  0.
        998    1    1    2    0    0 -0.19842901307E+01  0.21484057527E+01  0.14315368124E+04  0.14315747267E+04  0.10000000000E+02 0.  1.
</event>
<event>
 5    1  0.1129619E-008  0.3805207E+03  0.7957747E-01  0.3448894E+00
         13   -1    0    0    0    0  0.00000000000E+00  0.00000000000E+00  0.14999999963E+04  0.15000000000E+04  0.10566000000E+00 0. -1.
        994   -1    0    0    0    0 -0.00000000000E+00 -0.00000000000E+00  0.11368683772E-12  0.17120000000E+03  0.17120000000E+03 0.  0.
         13    1    1    2    0    0 -0.11572791851E+02 -0.13058224388E+02  0.37648529946E+02  0.41495417899E+02  0.10566000000E+00 0. -1.
        994    1    1    2    0    0  0.63729330875E+01  0.12103741578E+02  0.44951947321E+01  0.17180442838E+03  0.17120000000E+03 0.  0.
        998    1    1    2    0    0  0.51998587640E+01  0.95448281020E+00  0.14578562716E+04  0.14579001537E+04  0.10000000000E+02 0. -1.
</event>
<event>
 5    1  0.1129619E-008  0.3833616E+03  0.7957747E-01  0.3436651E+00
         13   -1    0    0    0    0  0.00000000000E+00  0.00000000000E+00  0.14999999963E+04  0.15000000000E+04  0.10566000000E+00 0. -1.
        994   -1    0    0    0    0 -0.00000000000E+00 -0.00000000000E+00  0.11368683772E-12  0.17120000000E+03  0.17120000000E+03 0.  0.
         13    1    1    2    0    0  0.15205917537E+02 -0.18473311834E+01  0.45893435286E+02  0.48382343133E+02  0.10566000000E+00 0. -1.
        994    1    1    2    0    0 -0.16654373997E+02  0.23464312999E+01  0.33815784374E+01  0.17205740026E+03  0.17120000000E+03 0.  0.
        998    1    1    2    0    0  0.14484564599E+01 -0.49910011650E+00  0.14507249826E+04  0.14507602566E+04  0.10000000000E+02 0. -1.
</event>
<event>
 5    1  0.1129619E-008  0.3842510E+03  0.7957747E-01  0.3432855E+00
         13   -1    0    0    0    0  0.00000000000E+00  0.00000000000E+00  0.14999999963E+04  0.15000000000E+04  0.10566000000E+00 0. -1.
        994   -1    0    0    0    0 -0.00000000000E+00 -0.00000000000E+00  0.11368683772E-12  0.17120000000E+03  0.17120000000E+03 0.  0.
         13    1    1    2    0    0  0.86908051044E+01  0.11235841518E+02  0.49274723172E+02  0.51281417060E+02  0.10566000000E+00 0. -1.
        994    1    1    2    0    0 -0.18188257508E+01 -0.14272627413E+02  0.26852315051E+01  0.17182452237E+03  0.17120000000E+03 0.  0.
        998    1    1    2    0    0 -0.68719793536E+01  0.30367858954E+01  0.14480400416E+04  0.14480940606E+04  0.10000000000E+02 0. -1.
</event>
<event>
 5    1  0.1129619E-008  0.3847010E+03  0.7957747E-01  0.3430941E+00
         13   -1    0    0    0    0  0.00000000000E+00  0.00000000000E+00  0.14999999963E+04  0.15000000000E+04  0.10566000000E+00 0. -1.
        994   -1    0    0    0    0 -0.00000000000E+00 -0.00000000000E+00  0.11368683772E-12  0.17120000000E+03  0.17120000000E+03 0.  0.
         13    1    1    2    0    0  0.13008798636E+02  0.15770964478E+02  0.11282723735E+03  0.11466450547E+03  0.10566000000E+00 0. -1.
        994    1    1    2    0    0 -0.19058901952E+02 -0.75269325582E+01  0.31621320137E+01  0.17245096560E+03  0.17120000000E+03 0.  0.
        998    1    1    2    0    0  0.60501033161E+01 -0.82440319195E+01  0.13840106269E+04  0.13840845289E+04  0.10000000000E+02 0. -1.
</event>
<event>
 5    1  0.1129619E-008  0.3707553E+03  0.7957747E-01  0.3492427E+00
         13   -1    0    0    0    0  0.00000000000E+00  0.00000000000E+00  0.14999999963E+04  0.15000000000E+04  0.10566000000E+00 0. -1.
        994   -1    0    0    0    0 -0.00000000000E+00 -0.00000000000E+00  0.11368683772E-12  0.17120000000E+03  0.17120000000E+03 0.  0.
         13    1    1    2    0    0  0.50313457482E+02  0.34818590363E+01  0.18985893926E+03  0.19644336417E+03  0.10566000000E+00 0. -1.
        994    1    1    2    0    0  0.26494859996E+02 -0.12277525353E+01  0.11304732904E+02  0.17361083482E+03  0.17120000000E+03 0.  0.
        998    1    1    2    0    0 -0.76808317478E+02 -0.22541065010E+01  0.12988363241E+04  0.13011458010E+04  0.10000000000E+02 0. -1.
</event>
<event>
 5    1  0.1129619E-008  0.3702837E+03  0.7957747E-01  0.3494588E+00
         13   -1    0    0    0    0  0.00000000000E+00  0.00000000000E+00  0.14999999963E+04  0.15000000000E+04  0.10566000000E+00 0.  1.
        994   -1    0    0    0    0 -0.00000000000E+00 -0.00000000000E+00  0.11368683772E-12  0.17120000000E+03  0.17120000000E+03 0.  0.
         13    1    1    2    0    0 -0.41487095723E+02 -0.69338162950E+02  0.25558380402E+03  0.26805233070E+03  0.10566000000E+00 0.  1.
        994    1    1    2    0    0  0.25703241615E+02  0.67296620054E+02  0.29477315411E+02  0.18806340373E+03  0.17120000000E+03 0.  0.
        998    1    1    2    0    0  0.15783854108E+02  0.20415428956E+01  0.12149388769E+04  0.12150842656E+04  0.10000000000E+02 0.  1.
</event>
<event>
 5    1  0.1129619E-008  0.3830210E+03  0.7957747E-01  0.3438109E+00
         13   -1    0    0    0    0  0.00000000000E+00  0.00000000000E+00  0.14999999963E+04  0.15000000000E+04  0.10566000000E+00 0.  1.
        994   -1    0    0    0    0 -0.00000000000E+00 -0.00000000000E+00  0.11368683772E-12  0.17120000000E+03  0.17120000000E+03 0.  0.
         13    1    1    2    0    0 -0.10891075909E+02  0.87518296884E+01  0.36986723726E+02  0.39537816751E+02  0.10566000000E+00 0.  1.
        994    1    1    2    0    0  0.19131099687E+01 -0.70418027984E+01  0.27921172628E+01  0.17137818675E+03  0.17120000000E+03 0.  0.
        998    1    1    2    0    0  0.89779659407E+01 -0.17100268900E+01  0.14602211553E+04  0.14602839965E+04  0.10000000000E+02 0.  1.
</event>
<event>
 5    1  0.1129619E-008  0.3803768E+03  0.7957747E-01  0.3449519E+00
         13   -1    0    0    0    0  0.00000000000E+00  0.00000000000E+00  0.14999999963E+04  0.15000000000E+04  0.10566000000E+00 0.  1.
        994   -1    0    0    0    0 -0.00000000000E+00 -0.00000000000E+00  0.11368683772E-12  0.17120000000E+03  0.17120000000E+03 0.  0.
         13    1    1    2    0    0  0.20367029748E+02  0.44799352965E+01  0.86778908185E+02  0.89249514233E+02  0.10566000000E+00 0.  1.
        994    1    1    2    0    0  0.74783220943E+02  0.19384658122E+02  0.24133854695E+02  0.18936783794E+03  0.17120000000E+03 0.  0.
        998    1    1    2    0    0 -0.95150250691E+02 -0.23864593418E+02  0.13890872334E+04  0.13925826478E+04  0.10000000000E+02 0.  1.
</event>
<event>
 5    1  0.1129619E-008  0.3700226E+03  0.7957747E-01  0.3495787E+00
         13   -1    0    0    0    0  0.00000000000E+00  0.00000000000E+00  0.14999999963E+04  0.15000000000E+04  0.10566000000E+00 0. -1.
        994   -1    0    0    0    0 -0.00000000000E+00 -0.00000000000E+00  0.11368683772E-12  0.17120000000E+03  0.17120000000E+03 0.  0.
         13    1    1    2    0    0 -0.23918752967E+02 -0.32681653853E+02  0.10006938588E+03  0.10795411246E+03  0.10566000000E+00 0. -1.
        994    1    1    2    0    0  0.11619831459E+02 -0.29328109341E+02  0.12705652559E+02  0.17454521502E+03  0.17120000000E+03 0.  0.
        998    1    1    2    0    0  0.12298921508E+02  0.62009763194E+02  0.13872249578E+04  0.13887006725E+04  0.10000000000E+02 0. -1.
</event>
<event>
 5    1  0.1129619E-008  0.3841665E+03  0.7957747E-01  0.3433215E+00
         13   -1    0    0    0    0  0.00000000000E+00  0.00000000000E+00  0.14999999963E+04  0.15000000000E+04  0.10566000000E+00 0.  1.
        994   -1    0    0    0    0 -0.00000000000E+00 -0.00000000000E+00  0.11368683772E-12  0.17120000000E+03  0.17120000000E+03 0.  0.
         13    1    1    2    0    0  0.67791788949E+01 -0.11777660854E+02  0.43195706811E+02  0.45283007990E+02  0.10566000000E+00 0.  1.
        994    1    1    2    0    0 -0.12504247616E+02  0.11892492835E+02  0.30271012258E+01  0.17209413394E+03  0.17120000000E+03 0.  0.
        998    1    1    2    0    0  0.57250687215E+01 -0.11483198138E+00  0.14537771882E+04  0.14538228581E+04  0.10000000000E+02 0.  1.
</event>
<event>
 5    1  0.1129619E-008  0.3744706E+03  0.7957747E-01  0.3475594E+00
         13   -1    0    0    0    0  0.00000000000E+00  0.00000000000E+00  0.14999999963E+04  0.15000000000E+04  0.10566000000E+00 0. -1.
        994   -1    0    0    0    0 -0.00000000000E+00 -0.00000000000E+00  0.11368683772E-12  0.17120000000E+03  0.17120000000E+03 0.  0.
         13    1    1    2    0    0 -0.77790463915E+01  0.12718943011E+02  0.12731305573E+02  0.19605672131E+02  0.10566000000E+00 0. -1.
        994    1    1    2    0    0  0.11224091450E+02 -0.12934468773E+02  0.79501814233E+01  0.17223799260E+03  0.17120000000E+03 0.  0.
        998    1    1    2    0    0 -0.34450450582E+01  0.21552576193E+00  0.14793185093E+04  0.14793563353E+04  0.10000000000E+02 0. -1.
</event>
<event>
 5    1  0.1129619E-008  0.3795097E+03  0.7957747E-01  0.3453296E+00
         13   -1    0    0    0    0  0.00000000000E+00  0.00000000000E+00  0.14999999963E+04  0.15000000000E+04  0.10566000000E+00 0. -1.
        994   -1    0    0    0    0 -0.00000000000E+00 -0.00000000000E+00  0.11368683772E-12  0.17120000000E+03  0.17120000000E+03 0.  0.
         13    1    1    2    0    0  0.44452277363E+01 -0.16952891238E+02  0.32229470168E+02  0.36686652645E+02  0.10566000000E+00 0. -1.
        994    1    1    2    0    0 -0.96334338945E+01  0.20834886024E+02  0.61470700237E+01  0.17284132027E+03  0.17120000000E+03 0.  0.
        998    1    1    2    0    0  0.51882061583E+01 -0.38819947853E+01  0.14616234561E+04  0.14616720271E+04  0.10000000000E+02 0. -1.
</event>
<event>
 5    1  0.1129619E-008  0.3730719E+03  0.7957747E-01  0.3481891E+00
         13   -1    0    0    0    0  0.00000000000E+00  0.00000000000E+00  0.14999999963E+04  0.15000000000E+04  0.10566000000E+00 0.  1.
        994   -1    0    0    0    0 -0.00000000000E+00 -0.00000000000E+00  0.11368683772E-12  0.17120000000E+03  0.17120000000E+03 0.  0.
         13    1    1    2    0    0  0.27863881822E+02 -0.14652757496E+02  0.61901343712E+02  0.69447006630E+02  0.10566000000E+00 0.  1.
        994    1    1    2    0    0 -0.18543180330E+02  0.63513231165E+01  0.89877754616E+01  0.17255262661E+03  0.17120000000E+03 0.  0.
        998    1    1    2    0    0 -0.93207014921E+01  0.83014343793E+01  0.14291108771E+04  0.14292003668E+04  0.10000000000E+02 0.  1.
</event>
<event>
 5    1  0.1129619E-008  0.3842851E+03  0.7957747E-01  0.3432710E+00
         13   -1    0    0    0    0  0.00000000000E+00  0.00000000000E+00  0.14999999963E+04  0.15000000000E+04  0.10566000000E+00 0. -1.
        994   -1    0    0    0    0 -0.00000000000E+00 -0.00000000000E+00  0.11368683772E-12  0.17120000000E+03  0.17120000000E+03 0.  0.
         13    1    1    2    0    0  0.49394730497E+01 -0.11721431237E+02  0.40021897343E+02  0.41994687465E+02  0.10566000000E+00 0. -1.
        994    1    1    2    0    0 -0.45212646567E+01  0.91824725370E+01  0.23308813843E+01  0.17152152239E+03  0.17120000000E+03 0.  0.
        998    1    1    2    0    0 -0.41820839292E+00  0.25389587001E+01  0.14576472176E+04  0.14576837901E+04  0.10000000000E+02 0. -1.
</event>
<event>
 5    1  0.1129619E-008  0.3755474E+03  0.7957747E-01  0.3470778E+00
         13   -1    0    0    0    0  0.00000000000E+00  0.00000000000E+00  0.14999999963E+04  0.15000000000E+04  0.10566000000E+00 0.  1.
        994   -1    0    0    0    0 -0.00000000000E+00 -0.00000000000E+00  0.11368683772E-12  0.17120000000E+03  0.17120000000E+03 0.  0.
         13    1    1    2    0    0 -0.34815803972E+02  0.73679341848E+02  0.28284608778E+03  0.29435133117E+03  0.10566000000E+00 0.  1.
        994    1    1    2    0    0  0.13339391999E+03 -0.92578182133E+02  0.10185754320E+03  0.25700011051E+03  0.17120000000E+03 0.  0.
        998    1    1    2    0    0 -0.98578116021E+02  0.18898840285E+02  0.11152963653E+04  0.11198485583E+04  0.10000000000E+02 0.  1.
</event>
<event>
 5    1  0.1129619E-008  0.3823801E+03  0.7957747E-01  0.3440860E+00
         13   -1    0    0    0    0  0.00000000000E+00  0.00000000000E+00  0.14999999963E+04  0.15000000000E+04  0.10566000000E+00 0.  1.
        994   -1    0    0    0    0 -0.00000000000E+00 -0.00000000000E+00  0.11368683772E-12  0.17120000000E+03  0.17120000000E+03 0.  0.
         13    1    1    2    0    0  0.56414865799E+01  0.28068165914E+02  0.11276108215E+03  0.11633882035E+03  0.10566000000E+00 0.  1.
        994    1    1    2    0    0 -0.20677530433E+02 -0.47773670041E+02  0.11977280941E+02  0.17933984240E+03  0.17120000000E+03 0.  0.
        998    1    1    2    0    0  0.15036043853E+02  0.19705504127E+02  0.13752616332E+04  0.13755213372E+04  0.10000000000E+02 0.  1.
</event>
<event>
 5    1  0.1129619E-008  0.3848359E+03  0.7957747E-01  0.3430368E+00
         13   -1    0    0    0    0  0.00000000000E+00  0.00000000000E+00  0.14999999963E+04  0.15000000000E+04  0.10566000000E+00 0. -1.
        994   -1    0    0    0    0 -0.00000000000E+00 -0.00000000000E+00  0.11368683772E-12  0.17120000000E+03  0.17120000000E+03 0.  0.
         13    1    1    2    0    0  0.44680904421E+01  0.92986232016E+01  0.30650684728E+02  0.32340436979E+02  0.10566000000E+00 0. -1.
        994    1    1    2    0    0 -0.14009391793E+02 -0.23807035581E+01  0.23763444383E+01  0.17180517402E+03  0.17120000000E+03 0.  0.
        998    1    1    2    0    0  0.95413013509E+01 -0.69179196435E+01  0.14669729671E+04  0.14670543890E+04  0.10000000000E+02 0. -1.
</event>
<event>
 5    1  0.1129619E-008  0.3810568E+03  0.7957747E-01  0.3446570E+00
         13   -1    0    0    0    0  0.00000000000E+00  0.00000000000E+00  0.14999999963E+04  0.15000000000E+04  0.10566000000E+00 0. -1.
        994   -1    0    0    0    0 -0.00000000000E+00 -0.00000000000E+00  0.11368683772E-12  0.17120000000E+03  0.17120000000E+03 0.  0.
         13    1    1    2    0    0 -0.13516918269E+02  0.40320849523E+02  0.21631284197E+03  0.22045347526E+03  0.10566000000E+00 0. -1.
        994    1    1    2    0    0  0.38563456949E+02 -0.33029252409E+02  0.12237070256E+02  0.17898954611E+03  0.17120000000E+03 0.  0.
        998    1    1    2    0    0 -0.25046538680E+02 -0.72915971140E+01  0.12714500840E+04  0.12717569786E+04  0.10000000000E+02 0. -1.
</event>
<event>
 5    1  0.1129619E-008  0.3778171E+03  0.7957747E-01  0.3460719E+00
         13   -1    0    0    0    0  0.00000000000E+00  0.00000000000E+00  0.14999999963E+04  0.15000000000E+04  0.10566000000E+00 0. -1.
        994   -1    0    0    0    0 -0.00000000000E+00 -0.00000000000E+00  0.11368683772E-12  0.17120000000E+03  0.17120000000E+03 0.  0.
         13    1    1    2    0    0  0.36102492392E+02 -0.57233022021E+01  0.11551913406E+03  0.12116446527E+03  0.10566000000E+00 0. -1.
        994    1    1    2    0    0 -0.38384859021E+02  0.65708932055E+01  0.10362811859E+02  0.17587894106E+03  0.17120000000E+03 0.  0.
        998    1    1    2    0    0  0.22823666287E+01 -0.84759100340E+00  0.13741180504E+04  0.13741565937E+04  0.10000000000E+02 0. -1.
</event>
<event>
 5    1  0.1129619E-008  0.3829560E+03  0.7957747E-01  0.3438387E+00
         13   -1    0    0    0    0  0.00000000000E+00  0.00000000000E+00  0.14999999963E+04  0.15000000000E+04  0.10566000000E+00 0. -1.
        994   -1    0    0    0    0 -0.00000000000E+00 -0.00000000000E+00  0.11368683772E-12  0.17120000000E+03  0.17120000000E+03 0.  0.
         13    1    1    2    0    0  0.66280864813E+02  0.53019854303E+01  0.17774764401E+03  0.18977750184E+03  0.10566000000E+00 0. -1.
        994    1    1    2    0    0  0.64283342904E+02 -0.24185253460E+02  0.35452453416E+02  0.18783926936E+03  0.17120000000E+03 0.  0.
        998    1    1    2    0    0 -0.13056420772E+03  0.18883268030E+02  0.12867998989E+04  0.12935832288E+04  0.10000000000E+02 0. -1.
</event>
<event>
 5    1  0.1129619E-008  0.3849663E+03  0.7957747E-01  0.3429815E+00
         13   -1    0    0    0    0  0.00000000000E+00  0.00000000000E+00  0.14999999963E+04  0.15000000000E+04  0.10566000000E+00 0.  1.
        994   -1    0    0    0    0 -0.00000000000E+00 -0.00000000000E+00  0.11368683772E-12  0.17120000000E+03  0.17120000000E+03 0.  0.
         13    1    1    2    0    0 -0.43256718316E+01 -0.93613865278E+01  0.35578190443E+02  0.37042756293E+02  0.10566000000E+00 0.  1.
        994    1    1    2    0    0  0.10787305437E+02 -0.20762310328E+02  0.34494513773E+01  0.17282586092E+03  0.17120000000E+03 0.  0.
        998    1    1    2    0    0 -0.64616336050E+01  0.30123696855E+02  0.14609723545E+04  0.14613313828E+04  0.10000000000E+02 0.  1.
</event>
<event>
 5    1  0.1129619E-008  0.3821513E+03  0.7957747E-01  0.3441844E+00
         13   -1    0    0    0    0  0.00000000000E+00  0.00000000000E+00  0.14999999963E+04  0.15000000000E+04  0.10566000000E+00 0.  1.
        994   -1    0    0    0    0 -0.00000000000E+00 -0.00000000000E+00  0.11368683772E-12  0.17120000000E+03  0.17120000000E+03 0.  0.
         13    1    1    2    0    0 -0.11636985114E+01 -0.21153119680E+02  0.68514899192E+02  0.71715488157E+02  0.10566000000E+00 0.  1.
        994    1    1    2    0    0 -0.23508908521E+01  0.25457674923E+02  0.52236791439E+01  0.17317721191E+03  0.17120000000E+03 0.  0.
        998    1    1    2    0    0  0.35145893635E+01 -0.43045552439E+01  0.14262614179E+04  0.14263072999E+04  0.10000000000E+02 0.  1.
</event>
<event>
 5    1  0.1129619E-008  0.3795588E+03  0.7957747E-01  0.3453082E+00
         13   -1    0    0    0    0  0.00000000000E+00  0.00000000000E+00  0.14999999963E+04  0.15000000000E+04  0.10566000000E+00 0. -1.
        994   -1    0    0    0    0 -0.00000000000E+00 -0.00000000000E+00  0.11368683772E-12  0.17120000000E+03  0.17120000000E+03 0.  0.
         13    1    1    2    0    0 -0.28191750430E+02  0.12823610663E+02  0.10144978763E+03  0.10607209981E+03  0.10566000000E+00 0. -1.
        994    1    1    2    0    0  0.32149335374E+02 -0.73697133428E+01  0.80066487067E+01  0.17453205684E+03  0.17120000000E+03 0.  0.
        998    1    1    2    0    0 -0.39575849445E+01 -0.54538973198E+01  0.13905435599E+04  0.13905958434E+04  0.10000000000E+02 0. -1.
</event>
<event>
 5    1  0.1129619E-008  0.3821732E+03  0.7957747E-01  0.3441750E+00
         13   -1    0    0    0    0  0.00000000000E+00  0.00000000000E+00  0.14999999963E+04  0.15000000000E+04  0.10566000000E+00 0. -1.
        994   -1    0    0    0    0 -0.00000000000E+00 -0.00000000000E+00  0.11368683772E-12  0.17120000000E+03  0.17120000000E+03 0.  0.
         13    1    1    2    0    0  0.96407647861E+01  0.80442986079E+01  0.24164316488E+02  0.27231974609E+02  0.10566000000E+00 0. -1.
        994    1    1    2    0    0 -0.95644973513E+01 -0.14501298059E+02  0.40423374448E+01  0.17212654574E+03  0.17120000000E+03 0.  0.
        998    1    1    2    0    0 -0.76267434794E-01  0.64569994509E+01  0.14717933423E+04  0.14718414797E+04  0.10000000000E+02 0. -1.
</event>
<event>
 5    1  0.1129619E-008  0.3728386E+03  0.7957747E-01  0.3482946E+00
         13   -1    0    0    0    0  0.00000000000E+00  0.00000000000E+00  0.14999999963E+04  0.15000000000E+04  0.10566000000E+00 0. -1.
        994   -1    0    0    0    0 -0.00000000000E+00 -0.00000000000E+00  0.11368683772E-12  0.17120000000E+03  0.17120000000E+03 0.  0.
         13    1    1    2    0    0 -0.29625235139E+01  0.10146650565E+02  0.35109135420E+01  0.11138614868E+02  0.10566000000E+00 0. -1.
        994    1    1    2    0    0  0.14096911353E+00 -0.11856537355E+02  0.82744502694E+01  0.17180949880E+03  0.17120000000E+03 0.  0.
        998    1    1    2    0    0  0.28215544004E+01  0.17098867901E+01  0.14882146325E+04  0.14882518863E+04  0.10000000000E+02 0. -1.
</event>
<event>
 5    1  0.1129619E-008  0.3798829E+03  0.7957747E-01  0.3451668E+00
         13   -1    0    0    0    0  0.00000000000E+00  0.00000000000E+00  0.14999999963E+04  0.15000000000E+04  0.10566000000E+00 0. -1.
        994   -1    0    0    0    0 -0.00000000000E+00 -0.00000000000E+00  0.11368683772E-12  0.17120000000E+03  0.17120000000E+03 0.  0.
         13    1    1    2    0    0  0.50057053289E+02  0.31148672114E+02  0.33651930165E+03  0.34164484469E+03  0.10566000000E+00 0. -1.
        994    1    1    2    0    0 -0.44318702737E+02 -0.32576663958E+02  0.14376957315E+02  0.18039269206E+03  0.17120000000E+03 0.  0.
        998    1    1    2    0    0 -0.57383505523E+01  0.14279918445E+01  0.11491037373E+04  0.11491624632E+04  0.10000000000E+02 0.  0.
</event>
<event>
 5    1  0.1129619E-008  0.3826995E+03  0.7957747E-01  0.3439488E+00
         13   -1    0    0    0    0  0.00000000000E+00  0.00000000000E+00  0.14999999963E+04  0.15000000000E+04  0.10566000000E+00 0.  1.
        994   -1    0    0    0    0 -0.00000000000E+00 -0.00000000000E+00  0.11368683772E-12  0.17120000000E+03  0.17120000000E+03 0.  0.
         13    1    1    2    0    0 -0.10172244996E+02 -0.24106259524E+01  0.18627239699E+02  0.21360498790E+02  0.10566000000E+00 0.  1.
        994    1    1    2    0    0  0.67638336878E+01  0.20263846594E+01  0.29418506735E+01  0.17137079730E+03  0.17120000000E+03 0.  0.
        998    1    1    2    0    0  0.34084113083E+01  0.38424129298E+00  0.14784309059E+04  0.14784687039E+04  0.10000000000E+02 0.  1.
</event>
<event>
 5    1  0.1129619E-008  0.3728523E+03  0.7957747E-01  0.3482884E+00
         13   -1    0    0    0    0  0.00000000000E+00  0.00000000000E+00  0.14999999963E+04  0.15000000000E+04  0.10566000000E+00 0.  1.
        994   -1    0    0    0    0 -0.00000000000E+00 -0.00000000000E+00  0.11368683772E-12  0.17120000000E+03  0.17120000000E+03 0.  0.
         13    1    1    2    0    0 -0.51202083045E+02 -0.65029831416E+02  0.22971277132E+03  0.24416900039E+03  0.10566000000E+00 0.  1.
        994    1    1    2    0    0  0.71708119927E+02  0.48786045556E+02  0.39516462040E+02  0.19594163283E+03  0.17120000000E+03 0.  0.
        998    1    1    2    0    0 -0.20506036882E+02  0.16243785860E+02  0.12307707629E+04  0.12310893668E+04  0.10000000000E+02 0.  1.
</event>
<event>
 5    1  0.1129619E-008  0.3818020E+03  0.7957747E-01  0.3443350E+00
         13   -1    0    0    0    0  0.00000000000E+00  0.00000000000E+00  0.14999999963E+04  0.15000000000E+04  0.10566000000E+00 0. -1.
        994   -1    0    0    0    0 -0.00000000000E+00 -0.00000000000E+00  0.11368683772E-12  0.17120000000E+03  0.17120000000E+03 0.  0.
         13    1    1    2    0    0 -0.26962421045E+01 -0.33180216519E+02  0.14416989016E+03  0.14796339034E+03  0.10566000000E+00 0. -1.
        994    1    1    2    0    0  0.85338589393E+01  0.44184665333E+02  0.99853879505E+01  0.17729709352E+03  0.17120000000E+03 0.  0.
        998    1    1    2    0    0 -0.58376168347E+01 -0.11004448814E+02  0.13458447182E+04  0.13459395161E+04  0.10000000000E+02 0. -1.
</event>
<event>
 5    1  0.1129619E-008  0.3737070E+03  0.7957747E-01  0.3479026E+00
         13   -1    0    0    0    0  0.00000000000E+00  0.00000000000E+00  0.14999999963E+04  0.15000000000E+04  0.10566000000E+00 0.  1.
        994   -1    0    0    0    0 -0.00000000000E+00 -0.00000000000E+00  0.11368683772E-12  0.17120000000E+03  0.17120000000E+03 0.  0.
         13    1    1    2    0    0 -0.60162769918E+00  0.10036073639E+03  0.32023821539E+03  0.33559672991E+03  0.10566000000E+00 0.  1.
        994    1    1    2    0    0  0.25955819775E+01 -0.90304780580E+02  0.42415864492E+02  0.19816719204E+03  0.17120000000E+03 0.  0.
        998    1    1    2    0    0 -0.19939542784E+01 -0.10055955814E+02  0.11373459164E+04  0.11374360781E+04  0.10000000000E+02 0.  1.
</event>
<event>
 5    1  0.1129619E-008  0.3775821E+03  0.7957747E-01  0.3461755E+00
         13   -1    0    0    0    0  0.00000000000E+00  0.00000000000E+00  0.14999999963E+04  0.15000000000E+04  0.10566000000E+00 0.  1.
        994   -1    0    0    0    0 -0.00000000000E+00 -0.00000000000E+00  0.11368683772E-12  0.17120000000E+03  0.17120000000E+03 0.  0.
         13    1    1    2    0    0 -0.29421164915E+02 -0.39715386931E+01  0.75424342836E+02  0.81056898046E+02  0.10566000000E+00 0.  1.
        994    1    1    2    0    0  0.34604559048E+02 -0.22646116574E+01  0.94220110313E+01  0.17493089568E+03  0.17120000000E+03 0.  0.
        998    1    1    2    0    0 -0.51833941333E+01  0.62361503505E+01  0.14151536424E+04  0.14152122063E+04  0.10000000000E+02 0.  1.
</event>
<event>
 5    1  0.1129619E-008  0.3712229E+03  0.7957747E-01  0.3490290E+00
         13   -1    0    0    0    0  0.00000000000E+00  0.00000000000E+00  0.14999999963E+04  0.15000000000E+04  0.10566000000E+00 0.  1.
        994   -1    0    0    0    0 -0.00000000000E+00 -0.00000000000E+00  0.11368683772E-12  0.17120000000E+03  0.17120000000E+03 0.  0.
         13    1    1    2    0    0 -0.33641889682E+02  0.19734072422E+02  0.87062303189E+02  0.95399508156E+02  0.10566000000E+00 0.  1.
        994    1    1    2    0    0  0.15721904005E+02 -0.89005810640E+01  0.97559138480E+01  0.17242684380E+03  0.17120000000E+03 0.  0.
        998    1    1    2    0    0  0.17919985677E+02 -0.10833491358E+02  0.14031817792E+04  0.14033736480E+04  0.10000000000E+02 0.  1.
</event>
<event>
 5    1  0.1129619E-008  0.3784481E+03  0.7957747E-01  0.3457944E+00
         13   -1    0    0    0    0  0.00000000000E+00  0.00000000000E+00  0.14999999963E+04  0.15000000000E+04  0.10566000000E+00 0. -1.
        994   -1    0    0    0    0 -0.00000000000E+00 -0.00000000000E+00  0.11368683772E-12  0.17120000000E+03  0.17120000000E+03 0.  0.
         13    1    1    2    0    0 -0.54399522089E+02 -0.14510092955E+03  0.86816340335E+03  0.88188507972E+03  0.10566000000E+00 0. -1.
        994    1    1    2    0    0  0.47300762525E+02  0.15000183660E+03  0.93120825175E+02  0.25043729994E+03  0.17120000000E+03 0.  0.
        998    1    1    2    0    0  0.70987595641E+01 -0.49009070429E+01  0.53871576776E+03  0.53887762034E+03  0.10000000000E+02 0.  0.
</event>
<event>
 5    1  0.1129619E-008  0.3826381E+03  0.7957747E-01  0.3439752E+00
         13   -1    0    0    0    0  0.00000000000E+00  0.00000000000E+00  0.14999999963E+04  0.15000000000E+04  0.10566000000E+00 0. -1.
        994   -1    0    0    0    0 -0.00000000000E+00 -0.00000000000E+00  0.11368683772E-12  0.17120000000E+03  0.17120000000E+03 0.  0.
         13    1    1    2    0    0  0.16184030438E+02 -0.17521224554E+02  0.11538004129E+03  0.11781969803E+03  0.10566000000E+00 0. -1.
        994    1    1    2    0    0 -0.17139684235E+01 -0.95119054207E+01  0.31169980302E+01  0.17150093209E+03  0.17120000000E+03 0.  0.
        998    1    1    2    0    0 -0.14470062015E+02  0.27033129975E+02  0.13815029570E+04  0.13818793699E+04  0.10000000000E+02 0. -1.
</event>
<event>
 5    1  0.1129619E-008  0.3732218E+03  0.7957747E-01  0.3481214E+00
         13   -1    0    0    0    0  0.00000000000E+00  0.00000000000E+00  0.14999999963E+04  0.15000000000E+04  0.10566000000E+00 0. -1.
        994   -1    0    0    0    0 -0.00000000000E+00 -0.00000000000E+00  0.11368683772E-12  0.17120000000E+03  0.17120000000E+03 0.  0.
         13    1    1    2    0    0  0.14201191310E+02  0.25690125654E+02  0.52600034099E+02  0.60236460238E+02  0.10566000000E+00 0. -1.
        994    1    1    2    0    0 -0.11287431671E+02 -0.24112370145E+02  0.10022431266E+02  0.17354740458E+03  0.17120000000E+03 0.  0.
        998    1    1    2    0    0 -0.29137596386E+01 -0.15777555088E+01  0.14373775309E+04  0.14374161352E+04  0.10000000000E+02 0. -1.
</event>
<event>
 5    1  0.1129619E-008  0.3861422E+03  0.7957747E-01  0.3424842E+00
         13   -1    0    0    0    0  0.00000000000E+00  0.00000000000E+00  0.14999999963E+04  0.15000000000E+04  0.10566000000E+00 0. -1.
        994   -1    0    0    0    0 -0.00000000000E+00 -0.00000000000E+00  0.11368683772E-12  0.17120000000E+03  0.17120000000E+03 0.  0.
         13    1    1    2    0    0  0.10636744206E+02  0.13793822633E+02  0.98674565017E+02  0.10020025357E+03  0.10566000000E+00 0. -1.
        994    1    1    2    0    0 -0.29857795390E+02 -0.44846944582E+02  0.10633290793E+02  0.17979222246E+03  0.17120000000E+03 0.  0.
        998    1    1    2    0    0  0.19221051184E+02  0.31053121949E+02  0.13906921405E+04  0.13912075240E+04  0.10000000000E+02 0. -1.
</event>
<event>
 5    1  0.1129619E-008  0.3761116E+03  0.7957747E-01  0.3468266E+00
         13   -1    0    0    0    0  0.00000000000E+00  0.00000000000E+00  0.14999999963E+04  0.15000000000E+04  0.10566000000E+00 0.  1.
        994   -1    0    0    0    0 -0.00000000000E+00 -0.00000000000E+00  0.11368683772E-12  0.17120000000E+03  0.17120000000E+03 0.  0.
         13    1    1    2    0    0 -0.43752856304E+02 -0.52477427878E+02  0.12451380812E+03  0.14202778759E+03  0.10566000000E+00 0.  1.
        994    1    1    2    0    0  0.16048613454E+02  0.12935235692E+03  0.77690543779E+02  0.22876811585E+03  0.17120000000E+03 0.  0.
        998    1    1    2    0    0  0.27704242850E+02 -0.76874929043E+02  0.12977956444E+04  0.13004040966E+04  0.10000000000E+02 0.  1.
</event>
<event>
 5    1  0.1129619E-008  0.3830108E+03  0.7957747E-01  0.3438153E+00
         13   -1    0    0    0    0  0.00000000000E+00  0.00000000000E+00  0.14999999963E+04  0.15000000000E+04  0.10566000000E+00 0.  1.
        994   -1    0    0    0    0 -0.00000000000E+00 -0.00000000000E+00  0.11368683772E-12  0.17120000000E+03  0.17120000000E+03 0.  0.
         13    1    1    2    0    0  0.23673101954E+02 -0.21806504843E+02  0.17918256511E+03  0.18205038373E+03  0.10566000000E+00 0.  1.
        994    1    1    2    0    0 -0.31866287783E+02  0.10277429691E+02  0.63406118257E+01  0.17455866984E+03  0.17120000000E+03 0.  0.
        998    1    1    2    0    0  0.81931858288E+01  0.11529075152E+02  0.13144768193E+04  0.13145909464E+04  0.10000000000E+02 0.  1.
</event>
<event>
 5    1  0.1129619E-008  0.3847519E+03  0.7957747E-01  0.3430725E+00
         13   -1    0    0    0    0  0.00000000000E+00  0.00000000000E+00  0.14999999963E+04  0.15000000000E+04  0.10566000000E+00 0.  1.
        994   -1    0    0    0    0 -0.00000000000E+00 -0.00000000000E+00  0.11368683772E-12  0.17120000000E+03  0.17120000000E+03 0.  0.
         13    1    1    2    0    0 -0.90492170346E+01  0.15557446127E+02  0.87429308425E+02  0.89262632690E+02  0.10566000000E+00 0.  1.
        994    1    1    2    0    0  0.22745792605E+01 -0.21059503559E+02  0.32314939342E+01  0.17253567444E+03  0.17120000000E+03 0.  0.
        998    1    1    2    0    0  0.67746377741E+01  0.55020574319E+01  0.14093391939E+04  0.14094016929E+04  0.10000000000E+02 0.  1.
</event>
<event>
 5    1  0.1129619E-008  0.3861288E+03  0.7957747E-01  0.3424899E+00
         13   -1    0    0    0    0  0.00000000000E+00  0.00000000000E+00  0.14999999963E+04  0.15000000000E+04  0.10566000000E+00 0.  1.
        994   -1    0    0    0    0 -0.00000000000E+00 -0.00000000000E+00  0.11368683772E-12  0.17120000000E+03  0.17120000000E+03 0.  0.
         13    1    1    2    0    0 -0.33971014347E+00  0.18035706259E+02 -0.66320831980E+00  0.18051401956E+02  0.10566000000E+00 0.  1.
        994    1    1    2    0    0  0.32581664871E+01 -0.19606967363E+02  0.21201118008E+02  0.17364900294E+03  0.17120000000E+03 0.  0.
        998    1    1    2    0    0 -0.29184563437E+01  0.15712611037E+01  0.14794620866E+04  0.14794995951E+04  0.10000000000E+02 0.  1.
</event>
<event>
 5    1  0.1129619E-008  0.3807926E+03  0.7957747E-01  0.3447715E+00
         13   -1    0    0    0    0  0.00000000000E+00  0.00000000000E+00  0.14999999963E+04  0.15000000000E+04  0.10566000000E+00 0.  1.
        994   -1    0    0    0    0 -0.00000000000E+00 -0.00000000000E+00  0.11368683772E-12  0.17120000000E+03  0.17120000000E+03 0.  0.
         13    1    1    2    0    0  0.22919170520E+02 -0.90951068047E+01  0.75932658061E+02  0.79836013611E+02  0.10566000000E+00 0.  1.
        994    1    1    2    0    0 -0.22909408797E+02  0.15243965508E+02  0.62624029341E+01  0.17351045267E+03  0.17120000000E+03 0.  0.
        998    1    1    2    0    0 -0.97617232158E-02 -0.61488587029E+01  0.14178049353E+04  0.14178535337E+04  0.10000000000E+02 0.  1.
</event>
<event>
 5    1  0.1129619E-008  0.3756008E+03  0.7957747E-01  0.3470540E+00
         13   -1    0    0    0    0  0.00000000000E+00  0.00000000000E+00  0.14999999963E+04  0.15000000000E+04  0.10566000000E+00 0. -1.
        994   -1    0    0    0    0 -0.00000000000E+00 -0.00000000000E+00  0.11368683772E-12  0.17120000000E+03  0.17120000000E+03 0.  0.
         13    1    1    2    0    0 -0.35797633337E+02  0.87209529308E+02  0.49136952949E+03  0.50033088874E+03  0.10566000000E+00 0. -1.
        994    1    1    2    0    0  0.52967285209E+02 -0.75024777546E+02  0.35542204196E+02  0.19750174386E+03  0.17120000000E+03 0.  0.
        998    1    1    2    0    0 -0.17169651872E+02 -0.12184751762E+02  0.97308826259E+03  0.97336736740E+03  0.10000000000E+02 0. -1.
</event>
<event>
 5    1  0.1129619E-008  0.3768510E+03  0.7957747E-01  0.3464986E+00
         13   -1    0    0    0    0  0.00000000000E+00  0.00000000000E+00  0.14999999963E+04  0.15000000000E+04  0.10566000000E+00 0. -1.
        994   -1    0    0    0    0 -0.00000000000E+00 -0.00000000000E+00  0.11368683772E-12  0.17120000000E+03  0.17120000000E+03 0.  0.
         13    1    1    2    0    0 -0.65118962795E+01 -0.33049269432E+02  0.11978236679E+03  0.12442863642E+03  0.10566000000E+00 0. -1.
        994    1    1    2    0    0  0.22826345418E+02 -0.25976320308E+02  0.97814866973E+01  0.17493121146E+03  0.17120000000E+03 0.  0.
        998    1    1    2    0    0 -0.16314449139E+02  0.59025589740E+02  0.13704361428E+04  0.13718401521E+04  0.10000000000E+02 0. -1.
</event>
<event>
 5    1  0.1129619E-008  0.3774132E+03  0.7957747E-01  0.3462500E+00
         13   -1    0    0    0    0  0.00000000000E+00  0.00000000000E+00  0.14999999963E+04  0.15000000000E+04  0.10566000000E+00 0.  1.
        994   -1    0    0    0    0 -0.00000000000E+00 -0.00000000000E+00  0.11368683772E-12  0.17120000000E+03  0.17120000000E+03 0.  0.
         13    1    1    2    0    0 -0.70047047208E+02  0.12316477456E+03  0.79583259795E+03  0.80834750302E+03  0.10566000000E+00 0.  1.
        994    1    1    2    0    0  0.67345505708E+02 -0.12435314938E+03  0.76151582257E+02  0.23475013606E+03  0.17120000000E+03 0.  0.
        998    1    1    2    0    0  0.27015415008E+01  0.11883748213E+01  0.62801581607E+03  0.62810236093E+03  0.10000000000E+02 0.  1.
</event>
<event>
 5    1  0.1129619E-008  0.3847873E+03  0.7957747E-01  0.3430575E+00
         13   -1    0    0    0    0  0.00000000000E+00  0.00000000000E+00  0.14999999963E+04  0.15000000000E+04  0.10566000000E+00 0.  1.
        994   -1    0    0    0    0 -0.00000000000E+00 -0.00000000000E+00  0.11368683772E-12  0.17120000000E+03  0.17120000000E+03 0.  0.
         13    1    1    2    0    0  0.12810042844E+02  0.14983539565E+02  0.11188498984E+03  0.11360838777E+03  0.10566000000E+00 0.  1.
        994    1    1    2    0    0 -0.12982776558E+01 -0.15379736498E+02  0.25201612555E+01  0.17191280648E+03  0.17120000000E+03 0.  0.
        998    1    1    2    0    0 -0.11511765188E+02  0.39619693281E+00  0.13855948452E+04  0.13856788057E+04  0.10000000000E+02 0.  1.
</event>
<event>
 5    1  0.1129619E-008  0.3749950E+03  0.7957747E-01  0.3473245E+00
         13   -1    0    0    0    0  0.00000000000E+00  0.00000000000E+00  0.14999999963E+04  0.15000000000E+04  0.10566000000E+00 0.  1.
        994   -1    0    0    0    0 -0.00000000000E+00 -0.00000000000E+00  0.11368683772E-12  0.17120000000E+03  0.17120000000E+03 0.  0.
         13    1    1    2    0    0  0.41107616798E+02 -0.41878628499E+02  0.19869823980E+03  0.20718266662E+03  0.10566000000E+00 0.  1.
        994    1    1    2    0    0 -0.50671778846E+02  0.58584713508E+02  0.27357701888E+02  0.18988860335E+03  0.17120000000E+03 0.  0.
        998    1    1    2    0    0  0.95641620484E+01 -0.16706085008E+02  0.12739440546E+04  0.12741287300E+04  0.10000000000E+02 0.  1.
</event>
<event>
 5    1  0.1129619E-008  0.3856257E+03  0.7957747E-01  0.3427023E+00
         13   -1    0    0    0    0  0.00000000000E+00  0.00000000000E+00  0.14999999963E+04  0.15000000000E+04  0.10566000000E+00 0. -1.
        994   -1    0    0    0    0 -0.00000000000E+00 -0.00000000000E+00  0.11368683772E-12  0.17120000000E+03  0.17120000000E+03 0.  0.
         13    1    1    2    0    0 -0.80494054885E+01  0.78586956530E+01  0.47662030452E+02  0.48971750397E+02  0.10566000000E+00 0. -1.
        994    1    1    2    0    0  0.60857370518E+01 -0.74016836269E+01  0.16212058949E+01  0.17147562341E+03  0.17120000000E+03 0.  0.
        998    1    1    2    0    0  0.19636684367E+01 -0.45701202610E+00  0.14507167599E+04  0.14507526262E+04  0.10000000000E+02 0. -1.
</event>
<event>
 5    1  0.1129619E-008  0.3849475E+03  0.7957747E-01  0.3429895E+00
         13   -1    0    0    0    0  0.00000000000E+00  0.00000000000E+00  0.14999999963E+04  0.15000000000E+04  0.10566000000E+00 0. -1.
        994   -1    0    0    0    0 -0.00000000000E+00 -0.00000000000E+00  0.11368683772E-12  0.17120000000E+03  0.17120000000E+03 0.  0.
         13    1    1    2    0    0 -0.10809531222E+02  0.90653139280E+01  0.62159347751E+02  0.63740266384E+02  0.10566000000E+00 0. -1.
        994    1    1    2    0    0 -0.76432813633E+01 -0.15486004100E+02  0.26377609535E+01  0.17208902887E+03  0.17120000000E+03 0.  0.
        998    1    1    2    0    0  0.18452812585E+02  0.64206901721E+01  0.14352028876E+04  0.14353707048E+04  0.10000000000E+02 0. -1.
</event>
<event>
 5    1  0.1129619E-008  0.3787651E+03  0.7957747E-01  0.3456553E+00
         13   -1    0    0    0    0  0.00000000000E+00  0.00000000000E+00  0.14999999963E+04  0.15000000000E+04  0.10566000000E+00 0.  1.
        994   -1    0    0    0    0 -0.00000000000E+00 -0.00000000000E+00  0.11368683772E-12  0.17120000000E+03  0.17120000000E+03 0.  0.
         13    1    1    2    0    0 -0.61254363066E+01  0.38133813597E+02  0.13663841193E+03  0.14199216700E+03  0.10566000000E+00 0.  1.
        994    1    1    2    0    0  0.18942169944E+02 -0.43217665719E+02  0.12268190991E+02  0.17800708116E+03  0.17120000000E+03 0.  0.
        998    1    1    2    0    0 -0.12816733637E+02  0.50838521223E+01  0.13510933934E+04  0.13512007518E+04  0.10000000000E+02 0.  1.
</event>
<event>
 5    1  0.1129619E-008  0.3763763E+03  0.7957747E-01  0.3467090E+00
         13   -1    0    0    0    0  0.00000000000E+00  0.00000000000E+00  0.14999999963E+04  0.15000000000E+04  0.10566000000E+00 0. -1.
        994   -1    0    0    0    0 -0.00000000000E+00 -0.00000000000E+00  0.11368683772E-12  0.17120000000E+03  0.17120000000E+03 0.  0.
         13    1    1    2    0    0  0.69871581491E+02 -0.43112017786E+02  0.44324403258E+03  0.45078372593E+03  0.10566000000E+00 0. -1.
        994    1    1    2    0    0 -0.61198027789E+02  0.36374226161E+02  0.23319430885E+02  0.18687300177E+03  0.17120000000E+03 0.  0.
        998    1    1    2    0    0 -0.86735537017E+01  0.67377916247E+01  0.10334365328E+04  0.10335432723E+04  0.10000000000E+02 0.  1.
</event>
<event>
 5    1  0.1129619E-008  0.3712779E+03  0.7957747E-01  0.3490039E+00
         13   -1    0    0    0    0  0.00000000000E+00  0.00000000000E+00  0.14999999963E+04  0.15000000000E+04  0.10566000000E+00 0.  1.
        994   -1    0    0    0    0 -0.00000000000E+00 -0.00000000000E+00  0.11368683772E-12  0.17120000000E+03  0.17120000000E+03 0.  0.
         13    1    1    2    0    0  0.21762777697E+02  0.73016876339E+02  0.28432413693E+03  0.29435575199E+03  0.10566000000E+00 0.  1.
        994    1    1    2    0    0 -0.28780792844E+02 -0.63724190228E+02  0.25626201762E+02  0.18669560432E+03  0.17120000000E+03 0.  0.
        998    1    1    2    0    0  0.70180151473E+01 -0.92926861110E+01  0.11900496576E+04  0.11901486437E+04  0.10000000000E+02 0.  1.
</event>
<event>
 5    1  0.1129619E-008  0.3829135E+03  0.7957747E-01  0.3438570E+00
         13   -1    0    0    0    0  0.00000000000E+00  0.00000000000E+00  0.14999999963E+04  0.15000000000E+04  0.10566000000E+00 0.  1.
        994   -1    0    0    0    0 -0.00000000000E+00 -0.00000000000E+00  0.11368683772E-12  0.17120000000E+03  0.17120000000E+03 0.  0.
         13    1    1    2    0    0 -0.13974655171E+02 -0.23243007618E+02  0.13045680292E+03  0.13324607679E+03  0.10566000000E+00 0.  1.
        994    1    1    2    0    0  0.29692172685E+02  0.99007469734E+01  0.59200485107E+01  0.17413826944E+03  0.17120000000E+03 0.  0.
        998    1    1    2    0    0 -0.15717517514E+02  0.13342260645E+02  0.13636231449E+04  0.13638156538E+04  0.10000000000E+02 0.  1.
</event>
<event>
 5    1  0.1129619E-008  0.3857350E+03  0.7957747E-01  0.3426561E+00
         13   -1    0    0    0    0  0.00000000000E+00  0.00000000000E+00  0.14999999963E+04  0.15000000000E+04  0.10566000000E+00 0.  1.
        994   -1    0    0    0    0 -0.00000000000E+00 -0.00000000000E+00  0.11368683772E-12  0.17120000000E+03  0.17120000000E+03 0.  0.
         13    1    1    2    0    0 -0.10999330597E+02 -0.48196049686E+01  0.57116831922E+02  0.58365722119E+02  0.10566000000E+00 0.  1.
        994    1    1    2    0    0  0.10038169369E+02 -0.87251791212E+00  0.15988472806E+01  0.17150370971E+03  0.17120000000E+03 0.  0.
        998    1    1    2    0    0  0.96116122811E+00  0.56921228807E+01  0.14412843171E+04  0.14413305682E+04  0.10000000000E+02 0.  1.
</event>
<event>
 5    1  0.1129619E-008  0.3722053E+03  0.7957747E-01  0.3485817E+00
         13   -1    0    0    0    0  0.00000000000E+00  0.00000000000E+00  0.14999999963E+04  0.15000000000E+04  0.10566000000E+00 0.  1.
        994   -1    0    0    0    0 -0.00000000000E+00 -0.00000000000E+00  0.11368683772E-12  0.17120000000E+03  0.17120000000E+03 0.  0.
         13    1    1    2    0    0  0.29540405376E+02  0.25025076359E+02  0.14373827012E+03  0.14886098031E+03  0.10566000000E+00 0.  1.
        994    1    1    2    0    0  0.51136706667E+02  0.51579752860E+02  0.26446947009E+02  0.18784119537E+03  0.17120000000E+03 0.  0.
        998    1    1    2    0    0 -0.80677112042E+02 -0.76604829219E+02  0.13298147791E+04  0.13344978243E+04  0.10000000000E+02 0.  1.
</event>
<event>
 5    1  0.1129619E-008  0.3732159E+03  0.7957747E-01  0.3481240E+00
         13   -1    0    0    0    0  0.00000000000E+00  0.00000000000E+00  0.14999999963E+04  0.15000000000E+04  0.10566000000E+00 0. -1.
        994   -1    0    0    0    0 -0.00000000000E+00 -0.00000000000E+00  0.11368683772E-12  0.17120000000E+03  0.17120000000E+03 0.  0.
         13    1    1    2    0    0  0.51940649318E+01 -0.16687739837E+02  0.67321350973E+01  0.18729436147E+02  0.10566000000E+00 0. -1.
        994    1    1    2    0    0  0.60684424821E+01 -0.25208582930E+01  0.12802227650E+02  0.17180371868E+03  0.17120000000E+03 0.  0.
        998    1    1    2    0    0 -0.11262507414E+02  0.19208598130E+02  0.14804656335E+04  0.14806668452E+04  0.10000000000E+02 0. -1.
</event>
<event>
 5    1  0.1129619E-008  0.3833464E+03  0.7957747E-01  0.3436716E+00
         13   -1    0    0    0    0  0.00000000000E+00  0.00000000000E+00  0.14999999963E+04  0.15000000000E+04  0.10566000000E+00 0. -1.
        994   -1    0    0    0    0 -0.00000000000E+00 -0.00000000000E+00  0.11368683772E-12  0.17120000000E+03  0.17120000000E+03 0.  0.
         13    1    1    2    0    0  0.15819169014E+02  0.12861309193E+02  0.79779293423E+02  0.82343221977E+02  0.10566000000E+00 0. -1.
        994    1    1    2    0    0 -0.12337493949E+02 -0.19819401260E+02  0.42574966686E+01  0.17283688467E+03  0.17120000000E+03 0.  0.
        998    1    1    2    0    0 -0.34816750650E+01  0.69580920669E+01  0.14159632062E+04  0.14160198934E+04  0.10000000000E+02 0. -1.
</event>
<event>
 5    1  0.1129619E-008  0.3751159E+03  0.7957747E-01  0.3472705E+00
         13   -1    0    0    0    0  0.00000000000E+00  0.00000000000E+00  0.14999999963E+04  0.15000000000E+04  0.10566000000E+00 0.  1.
        994   -1    0    0    0    0 -0.00000000000E+00 -0.00000000000E+00  0.11368683772E-12  0.17120000000E+03  0.17120000000E+03 0.  0.
         13    1    1    2    0    0  0.12846753073E+02  0.35785127810E+02  0.10944147147E+03  0.11585793576E+03  0.10566000000E+00 0.  1.
        994    1    1    2    0    0  0.45731783318E+01 -0.20571805862E+02  0.81297311201E+01  0.17268365784E+03  0.17120000000E+03 0.  0.
        998    1    1    2    0    0 -0.17419931404E+02 -0.15213321948E+02  0.13824287937E+04  0.13826584064E+04  0.10000000000E+02 0.  1.
</event>
<event>
 5    1  0.1129619E-008  0.3827742E+03  0.7957747E-01  0.3439167E+00
         13   -1    0    0    0    0  0.00000000000E+00  0.00000000000E+00  0.14999999963E+04  0.15000000000E+04  0.10566000000E+00 0.  1.
        994   -1    0    0    0    0 -0.00000000000E+00 -0.00000000000E+00  0.11368683772E-12  0.17120000000E+03  0.17120000000E+03 0.  0.
         13    1    1    2    0    0  0.54048759581E+01  0.10826383715E+02  0.25078207751E+02  0.27845124107E+02  0.10566000000E+00 0.  1.
        994    1    1    2    0    0 -0.39969710141E+01 -0.16133505160E+02  0.36549276753E+01  0.17204378589E+03  0.17120000000E+03 0.  0.
        998    1    1    2    0    0 -0.14079049440E+01  0.53071214452E+01  0.14712668609E+04  0.14713110900E+04  0.10000000000E+02 0.  1.
</event>
<event>
 5    1  0.1129619E-008  0.3853229E+03  0.7957747E-01  0.3428304E+00
         13   -1    0    0    0    0  0.00000000000E+00  0.00000000000E+00  0.14999999963E+04  0.15000000000E+04  0.10566000000E+00 0. -1.
        994   -1    0    0    0    0 -0.00000000000E+00 -0.00000000000E+00  0.11368683772E-12  0.17120000000E+03  0.17120000000E+03 0.  0.
         13    1    1    2    0    0  0.15124161319E+02 -0.42969675747E+01  0.80120145628E+02  0.81648350170E+02  0.10566000000E+00 0. -1.
        994    1    1    2    0    0 -0.15696225392E+02  0.81047612228E+01  0.24957747444E+01  0.17212706800E+03  0.17120000000E+03 0.  0.
        998    1    1    2    0    0  0.57206407388E+00 -0.38077936481E+01  0.14173840759E+04  0.14174245818E+04  0.10000000000E+02 0. -1.
</event>
<event>
 5    1  0.1129619E-008  0.3720281E+03  0.7957747E-01  0.3486622E+00
         13   -1    0    0    0    0  0.00000000000E+00  0.00000000000E+00  0.14999999963E+04  0.15000000000E+04  0.10566000000E+00 0. -1.
        994   -1    0    0    0    0 -0.00000000000E+00 -0.00000000000E+00  0.11368683772E-12  0.17120000000E+03  0.17120000000E+03 0.  0.
         13    1    1    2    0    0 -0.10906375605E+03  0.12660799526E+03  0.83199104416E+03  0.84860685602E+03  0.10566000000E+00 0. -1.
        994    1    1    2    0    0  0.99649452534E+02 -0.11728418291E+03  0.94506311085E+02  0.24885030799E+03  0.17120000000E+03 0.  0.
        998    1    1    2    0    0  0.94143035145E+01 -0.93238123584E+01  0.57350264103E+03  0.57374283600E+03  0.10000000000E+02 0. -1.
</event>
<event>
 5    1  0.1129619E-008  0.3844767E+03  0.7957747E-01  0.3431895E+00
         13   -1    0    0    0    0  0.00000000000E+00  0.00000000000E+00  0.14999999963E+04  0.15000000000E+04  0.10566000000E+00 0.  1.
        994   -1    0    0    0    0 -0.00000000000E+00 -0.00000000000E+00  0.11368683772E-12  0.17120000000E+03  0.17120000000E+03 0.  0.
         13    1    1    2    0    0 -0.10529230193E+02 -0.70645566348E+01  0.42238358883E+02  0.44100598341E+02  0.10566000000E+00 0.  1.
        994    1    1    2    0    0  0.69488390959E+01  0.45798609229E+01  0.21183610800E+01  0.17141525295E+03  0.17120000000E+03 0.  0.
        998    1    1    2    0    0  0.35803910973E+01  0.24846957119E+01  0.14556432763E+04  0.14556841487E+04  0.10000000000E+02 0.  1.
</event>
<event>
 5    1  0.1129619E-008  0.3808041E+03  0.7957747E-01  0.3447665E+00
         13   -1    0    0    0    0  0.00000000000E+00  0.00000000000E+00  0.14999999963E+04  0.15000000000E+04  0.10566000000E+00 0. -1.
        994   -1    0    0    0    0 -0.00000000000E+00 -0.00000000000E+00  0.11368683772E-12  0.17120000000E+03  0.17120000000E+03 0.  0.
         13    1    1    2    0    0  0.14006188619E+02 -0.34152384463E+02  0.16690319044E+03  0.17093637655E+03  0.10566000000E+00 0. -1.
        994    1    1    2    0    0 -0.21565633792E+02  0.27656282607E+02  0.78393534996E+01  0.17493096350E+03  0.17120000000E+03 0.  0.
        998    1    1    2    0    0  0.75594451722E+01  0.64961018563E+01  0.13252574523E+04  0.13253326600E+04  0.10000000000E+02 0. -1.
</event>
<event>
 5    1  0.1129619E-008  0.3824116E+03  0.7957747E-01  0.3440725E+00
         13   -1    0    0    0    0  0.00000000000E+00  0.00000000000E+00  0.14999999963E+04  0.15000000000E+04  0.10566000000E+00 0. -1.
        994   -1    0    0    0    0 -0.00000000000E+00 -0.00000000000E+00  0.11368683772E-12  0.17120000000E+03  0.17120000000E+03 0.  0.
         13    1    1    2    0    0  0.16680439550E+02 -0.72845033025E+01  0.53703689681E+02  0.56704483961E+02  0.10566000000E+00 0. -1.
        994    1    1    2    0    0 -0.12755351045E+02  0.22024804610E+02  0.50720774493E+01  0.17315587477E+03  0.17120000000E+03 0.  0.
        998    1    1    2    0    0 -0.39250885052E+01 -0.14740301307E+02  0.14412242291E+04  0.14413396413E+04  0.10000000000E+02 0. -1.
</event>
<event>
 5    1  0.1129619E-008  0.3813681E+03  0.7957747E-01  0.3445223E+00
         13   -1    0    0    0    0  0.00000000000E+00  0.00000000000E+00  0.14999999963E+04  0.15000000000E+04  0.10566000000E+00 0. -1.
        994   -1    0    0    0    0 -0.00000000000E+00 -0.00000000000E+00  0.11368683772E-12  0.17120000000E+03  0.17120000000E+03 0.  0.
         13    1    1    2    0    0 -0.86170544970E+01 -0.55280317950E+01  0.13730675923E+02  0.17127620649E+02  0.10566000000E+00 0. -1.
        994    1    1    2    0    0  0.54472874273E+01  0.65974603158E+01  0.36877538851E+01  0.17145331420E+03  0.17120000000E+03 0.  0.
        998    1    1    2    0    0  0.31697670698E+01 -0.10694285208E+01  0.14825815665E+04  0.14826190651E+04  0.10000000000E+02 0. -1.
</event>
<event>
 5    1  0.1129619E-008  0.3849795E+03  0.7957747E-01  0.3429759E+00
         13   -1    0    0    0    0  0.00000000000E+00  0.00000000000E+00  0.14999999963E+04  0.15000000000E+04  0.10566000000E+00 0.  1.
        994   -1    0    0    0    0 -0.00000000000E+00 -0.00000000000E+00  0.11368683772E-12  0.17120000000E+03  0.17120000000E+03 0.  0.
         13    1    1    2    0    0 -0.12415142196E+02 -0.12949755690E+02  0.97525801222E+02  0.99162114722E+02  0.10566000000E+00 0.  1.
        994    1    1    2    0    0  0.57597779966E+01  0.11539656154E+02  0.21875932298E+01  0.17169905146E+03  0.17120000000E+03 0.  0.
        998    1    1    2    0    0  0.66553641997E+01  0.14100995355E+01  0.14002866018E+04  0.14003388338E+04  0.10000000000E+02 0.  1.
</event>
<event>
 5    1  0.1129619E-008  0.3903587E+03  0.7957747E-01  0.3407259E+00
         13   -1    0    0    0    0  0.00000000000E+00  0.00000000000E+00  0.14999999963E+04  0.15000000000E+04  0.10566000000E+00 0. -1.
        994   -1    0    0    0    0 -0.00000000000E+00 -0.00000000000E+00  0.11368683772E-12  0.17120000000E+03  0.17120000000E+03 0.  0.
         13    1    1    2    0    0 -0.88417439526E+02  0.84770717070E+02  0.26885058985E+03  0.29543928126E+03  0.10566000000E+00 0. -1.
        994    1    1    2    0    0  0.12416313211E+03 -0.46195996364E+02  0.91763848632E+02  0.23511826252E+03  0.17120000000E+03 0.  0.
        998    1    1    2    0    0 -0.35745692581E+02 -0.38574720705E+02  0.11393855578E+04  0.11406424562E+04  0.10000000000E+02 0. -1.
</event>
<event>
 5    1  0.1129619E-008  0.3857187E+03  0.7957747E-01  0.3426630E+00
         13   -1    0    0    0    0  0.00000000000E+00  0.00000000000E+00  0.14999999963E+04  0.15000000000E+04  0.10566000000E+00 0. -1.
        994   -1    0    0    0    0 -0.00000000000E+00 -0.00000000000E+00  0.11368683772E-12  0.17120000000E+03  0.17120000000E+03 0.  0.
         13    1    1    2    0    0  0.36872830209E+01 -0.11739911854E+02  0.58136693474E+02  0.59424808612E+02  0.10566000000E+00 0. -1.
        994    1    1    2    0    0 -0.62041199979E+01  0.11331268937E+02  0.18214683830E+01  0.17169637884E+03  0.17120000000E+03 0.  0.
        998    1    1    2    0    0  0.25168369771E+01  0.40864291702E+00  0.14400418344E+04  0.14400788125E+04  0.10000000000E+02 0. -1.
</event>
<event>
 5    1  0.1129619E-008  0.3691738E+03  0.7957747E-01  0.3499696E+00
         13   -1    0    0    0    0  0.00000000000E+00  0.00000000000E+00  0.14999999963E+04  0.15000000000E+04  0.10566000000E+00 0. -1.
        994   -1    0    0    0    0 -0.00000000000E+00 -0.00000000000E+00  0.11368683772E-12  0.17120000000E+03  0.17120000000E+03 0.  0.
         13    1    1    2    0    0 -0.17505580160E+02 -0.77290240748E+02  0.28182988078E+03  0.29275983249E+03  0.10566000000E+00 0. -1.
        994    1    1    2    0    0 -0.23261919988E+01  0.69466045455E+02  0.26645083498E+02  0.18668246601E+03  0.17120000000E+03 0.  0.
        998    1    1    2    0    0  0.19831772159E+02  0.78241952939E+01  0.11915250320E+04  0.11917577015E+04  0.10000000000E+02 0. -1.
</event>
<event>
 5    1  0.1129619E-008  0.3823467E+03  0.7957747E-01  0.3441003E+00
         13   -1    0    0    0    0  0.00000000000E+00  0.00000000000E+00  0.14999999963E+04  0.15000000000E+04  0.10566000000E+00 0. -1.
        994   -1    0    0    0    0 -0.00000000000E+00 -0.00000000000E+00  0.11368683772E-12  0.17120000000E+03  0.17120000000E+03 0.  0.
         13    1    1    2    0    0 -0.23001472050E+02  0.22995359245E+02  0.19322586050E+03  0.19594412109E+03  0.10566000000E+00 0. -1.
        994    1    1    2    0    0  0.13358242815E+02 -0.38385259673E+00  0.35458271881E+01  0.17175739543E+03  0.17120000000E+03 0.  0.
        998    1    1    2    0    0  0.96432292351E+01 -0.22611506648E+02  0.13032283086E+04  0.13034984835E+04  0.10000000000E+02 0. -1.
</event>
<event>
 5    1  0.1129619E-008  0.3838279E+03  0.7957747E-01  0.3434659E+00
         13   -1    0    0    0    0  0.00000000000E+00  0.00000000000E+00  0.14999999963E+04  0.15000000000E+04  0.10566000000E+00 0.  1.
        994   -1    0    0    0    0 -0.00000000000E+00 -0.00000000000E+00  0.11368683772E-12  0.17120000000E+03  0.17120000000E+03 0.  0.
         13    1    1    2    0    0 -0.94939269476E+01  0.23852545911E+02  0.13500565367E+03  0.13742494782E+03  0.10566000000E+00 0.  1.
        994    1    1    2    0    0  0.10479979139E+02 -0.25565585060E+02  0.47374909768E+01  0.17348000727E+03  0.17120000000E+03 0.  0.
        998    1    1    2    0    0 -0.98605219111E+00  0.17130391495E+01  0.13602568516E+04  0.13602950449E+04  0.10000000000E+02 0.  1.
</event>
<event>
 5    1  0.1129619E-008  0.3853331E+03  0.7957747E-01  0.3428261E+00
         13   -1    0    0    0    0  0.00000000000E+00  0.00000000000E+00  0.14999999963E+04  0.15000000000E+04  0.10566000000E+00 0. -1.
        994   -1    0    0    0    0 -0.00000000000E+00 -0.00000000000E+00  0.11368683772E-12  0.17120000000E+03  0.17120000000E+03 0.  0.
         13    1    1    2    0    0 -0.10944872269E+02 -0.62839433375E+01  0.52090845226E+02  0.53597998967E+02  0.10566000000E+00 0. -1.
        994    1    1    2    0    0  0.19605240521E+02 -0.15348552155E+01  0.27363105806E+01  0.17234746483E+03  0.17120000000E+03 0.  0.
        998    1    1    2    0    0 -0.86603682523E+01  0.78187985530E+01  0.14451728405E+04  0.14452545362E+04  0.10000000000E+02 0. -1.
</event>
<event>
 5    1  0.1129619E-008  0.3849814E+03  0.7957747E-01  0.3429751E+00
         13   -1    0    0    0    0  0.00000000000E+00  0.00000000000E+00  0.14999999963E+04  0.15000000000E+04  0.10566000000E+00 0.  1.
        994   -1    0    0    0    0 -0.00000000000E+00 -0.00000000000E+00  0.11368683772E-12  0.17120000000E+03  0.17120000000E+03 0.  0.
         13    1    1    2    0    0 -0.11774643062E+00 -0.10454376925E+02  0.33285859155E+02  0.34889360052E+02  0.10566000000E+00 0.  1.
        994    1    1    2    0    0  0.93381446098E+01  0.60544610861E+01  0.20468252185E+01  0.17157356130E+03  0.17120000000E+03 0.  0.
        998    1    1    2    0    0 -0.92203981791E+01  0.43999158390E+01  0.14646673119E+04  0.14647370786E+04  0.10000000000E+02 0.  1.
</event>
<event>
 5    1  0.1129619E-008  0.3716470E+03  0.7957747E-01  0.3488356E+00
         13   -1    0    0    0    0  0.00000000000E+00  0.00000000000E+00  0.14999999963E+04  0.15000000000E+04  0.10566000000E+00 0.  1.
        994   -1    0    0    0    0 -0.00000000000E+00 -0.00000000000E+00  0.11368683772E-12  0.17120000000E+03  0.17120000000E+03 0.  0.
         13    1    1    2    0    0 -0.51426902865E+02  0.45973649439E+02  0.19365356795E+03  0.20557241626E+03  0.10566000000E+00 0.  1.
        994    1    1    2    0    0  0.34785613071E+02 -0.29858144665E+02  0.19238725503E+02  0.17827258970E+03  0.17120000000E+03 0.  0.
        998    1    1    2    0    0  0.16641289794E+02 -0.16115504774E+02  0.12871077028E+04  0.12873549940E+04  0.10000000000E+02 0.  1.
</event>
<event>
 5    1  0.1129619E-008  0.3836584E+03  0.7957747E-01  0.3435382E+00
         13   -1    0    0    0    0  0.00000000000E+00  0.00000000000E+00  0.14999999963E+04  0.15000000000E+04  0.10566000000E+00 0. -1.
        994   -1    0    0    0    0 -0.00000000000E+00 -0.00000000000E+00  0.11368683772E-12  0.17120000000E+03  0.17120000000E+03 0.  0.
         13    1    1    2    0    0  0.84025906828E+01 -0.22773528377E+02  0.13032857252E+03  0.13256992534E+03  0.10566000000E+00 0. -1.
        994    1    1    2    0    0 -0.62747615690E+01  0.10611017761E+02  0.27997795025E+01  0.17166608604E+03  0.17120000000E+03 0.  0.
        998    1    1    2    0    0 -0.21278291138E+01  0.12162510616E+02  0.13668716443E+04  0.13669639886E+04  0.10000000000E+02 0. -1.
</event>
<event>
 5    1  0.1129619E-008  0.3796714E+03  0.7957747E-01  0.3452591E+00
         13   -1    0    0    0    0  0.00000000000E+00  0.00000000000E+00  0.14999999963E+04  0.15000000000E+04  0.10566000000E+00 0. -1.
        994   -1    0    0    0    0 -0.00000000000E+00 -0.00000000000E+00  0.11368683772E-12  0.17120000000E+03  0.17120000000E+03 0.  0.
         13    1    1    2    0    0 -0.15658273199E+02 -0.83211394464E+01  0.34559906317E+02  0.38843547340E+02  0.10566000000E+00 0. -1.
        994    1    1    2    0    0  0.14546387899E+02  0.42572585399E+01  0.50682718713E+01  0.17194431957E+03  0.17120000000E+03 0.  0.
        998    1    1    2    0    0  0.11118853006E+01  0.40638809066E+01  0.14603718181E+04  0.14604121331E+04  0.10000000000E+02 0. -1.
</event>
<event>
 5    1  0.1129619E-008  0.3767902E+03  0.7957747E-01  0.3465255E+00
         13   -1    0    0    0    0  0.00000000000E+00  0.00000000000E+00  0.14999999963E+04  0.15000000000E+04  0.10566000000E+00 0.  1.
        994   -1    0    0    0    0 -0.00000000000E+00 -0.00000000000E+00  0.11368683772E-12  0.17120000000E+03  0.17120000000E+03 0.  0.
         13    1    1    2    0    0  0.24277186671E+02 -0.26080716736E+02  0.11127916095E+03  0.11684454803E+03  0.10566000000E+00 0.  1.
        994    1    1    2    0    0  0.55994525699E+00  0.21874931962E+02  0.73818129209E+01  0.17275056396E+03  0.17120000000E+03 0.  0.
        998    1    1    2    0    0 -0.24837131928E+02  0.42057847747E+01  0.13813390224E+04  0.13816048880E+04  0.10000000000E+02 0.  1.
</event>
<event>
 5    1  0.1129619E-008  0.3788702E+03  0.7957747E-01  0.3456093E+00
         13   -1    0    0    0    0  0.00000000000E+00  0.00000000000E+00  0.14999999963E+04  0.15000000000E+04  0.10566000000E+00 0. -1.
        994   -1    0    0    0    0 -0.00000000000E+00 -0.00000000000E+00  0.11368683772E-12  0.17120000000E+03  0.17120000000E+03 0.  0.
         13    1    1    2    0    0  0.30512900713E+02  0.73503531623E+01  0.98959590110E+02  0.10381751509E+03  0.10566000000E+00 0. -1.
        994    1    1    2    0    0 -0.26152881425E+02 -0.86575819475E+01  0.72552697081E+01  0.17355404308E+03  0.17120000000E+03 0.  0.
        998    1    1    2    0    0 -0.43600192887E+01  0.13072287852E+01  0.13937851365E+04  0.13938284418E+04  0.10000000000E+02 0. -1.
</event>
<event>
 5    1  0.1129619E-008  0.3825500E+03  0.7957747E-01  0.3440130E+00
         13   -1    0    0    0    0  0.00000000000E+00  0.00000000000E+00  0.14999999963E+04  0.15000000000E+04  0.10566000000E+00 0.  1.
        994   -1    0    0    0    0 -0.00000000000E+00 -0.00000000000E+00  0.11368683772E-12  0.17120000000E+03  0.17120000000E+03 0.  0.
         13    1    1    2    0    0  0.18868843355E+02 -0.19712884342E+02  0.14163440243E+03  0.14423919777E+03  0.10566000000E+00 0.  1.
        994    1    1    2    0    0 -0.10889728697E+02 -0.40529936972E+01  0.32991376397E+01  0.17162557286E+03  0.17120000000E+03 0.  0.
        998    1    1    2    0    0 -0.79791146577E+01  0.23765878039E+02  0.13550664562E+04  0.13553352294E+04  0.10000000000E+02 0.  1.
</event>
<event>
 5    1  0.1129619E-008  0.3803884E+03  0.7957747E-01  0.3449469E+00
         13   -1    0    0    0    0  0.00000000000E+00  0.00000000000E+00  0.14999999963E+04  0.15000000000E+04  0.10566000000E+00 0. -1.
        994   -1    0    0    0    0 -0.00000000000E+00 -0.00000000000E+00  0.11368683772E-12  0.17120000000E+03  0.17120000000E+03 0.  0.
         13    1    1    2    0    0 -0.11861592522E+02  0.34553417624E+02  0.16639586377E+03  0.17035912271E+03  0.10566000000E+00 0. -1.
        994    1    1    2    0    0 -0.13145732483E+02 -0.29368275038E+02  0.74014378776E+01  0.17435460173E+03  0.17120000000E+03 0.  0.
        998    1    1    2    0    0  0.25007325004E+02 -0.51851425856E+01  0.13262026946E+04  0.13264862756E+04  0.10000000000E+02 0. -1.
</event>
<event>
 5    1  0.1129619E-008  0.3781194E+03  0.7957747E-01  0.3459388E+00
         13   -1    0    0    0    0  0.00000000000E+00  0.00000000000E+00  0.14999999963E+04  0.15000000000E+04  0.10566000000E+00 0. -1.
        994   -1    0    0    0    0 -0.00000000000E+00 -0.00000000000E+00  0.11368683772E-12  0.17120000000E+03  0.17120000000E+03 0.  0.
         13    1    1    2    0    0 -0.23332153223E+02  0.38908246330E+01  0.53714097032E+02  0.58691935344E+02  0.10566000000E+00 0. -1.
        994    1    1    2    0    0  0.11039895182E+02 -0.68055792212E+01  0.56514383246E+01  0.17178350896E+03  0.17120000000E+03 0.  0.
        998    1    1    2    0    0  0.12292258041E+02  0.29147545881E+01  0.14406344609E+04  0.14407245557E+04  0.10000000000E+02 0. -1.
</event>
<event>
 5    1  0.1129619E-008  0.3688531E+03  0.7957747E-01  0.3501179E+00
         13   -1    0    0    0    0  0.00000000000E+00  0.00000000000E+00  0.14999999963E+04  0.15000000000E+04  0.10566000000E+00 0.  1.
        994   -1    0    0    0    0 -0.00000000000E+00 -0.00000000000E+00  0.11368683772E-12  0.17120000000E+03  0.17120000000E+03 0.  0.
         13    1    1    2    0    0 -0.10418046094E+03 -0.11307409152E+03  0.60431352984E+03  0.62356569190E+03  0.10566000000E+00 0.  1.
        994    1    1    2    0    0  0.90702727883E+02  0.13592844323E+03  0.10921988837E+03  0.26065676768E+03  0.17120000000E+03 0.  0.
        998    1    1    2    0    0  0.13477733052E+02 -0.22854351718E+02  0.78646657808E+03  0.78697754041E+03  0.10000000000E+02 0.  1.
</event>
<event>
 5    1  0.1129619E-008  0.3811902E+03  0.7957747E-01  0.3445992E+00
         13   -1    0    0    0    0  0.00000000000E+00  0.00000000000E+00  0.14999999963E+04  0.15000000000E+04  0.10566000000E+00 0. -1.
        994   -1    0    0    0    0 -0.00000000000E+00 -0.00000000000E+00  0.11368683772E-12  0.17120000000E+03  0.17120000000E+03 0.  0.
         13    1    1    2    0    0  0.10826160932E+02 -0.73550534521E+01  0.22521466654E+02  0.26048612173E+02  0.10566000000E+00 0. -1.
        994    1    1    2    0    0 -0.10339063228E+02  0.91720633433E+01  0.41698779308E+01  0.17180759837E+03  0.17120000000E+03 0.  0.
        998    1    1    2    0    0 -0.48709770471E+00 -0.18170098913E+01  0.14733086517E+04  0.14733437895E+04  0.10000000000E+02 0. -1.
</event>
<event>
 5    1  0.1129619E-008  0.3795638E+03  0.7957747E-01  0.3453060E+00
         13   -1    0    0    0    0  0.00000000000E+00  0.00000000000E+00  0.14999999963E+04  0.15000000000E+04  0.10566000000E+00 0. -1.
        994   -1    0    0    0    0 -0.00000000000E+00 -0.00000000000E+00  0.11368683772E-12  0.17120000000E+03  0.17120000000E+03 0.  0.
         13    1    1    2    0    0  0.28012265935E+02  0.16786394245E+02  0.26798083505E+02  0.42244745450E+02  0.10566000000E+00 0. -1.
        994    1    1    2    0    0 -0.21327046222E+02 -0.77117421525E+01  0.17950639126E+02  0.17362597534E+03  0.17120000000E+03 0.  0.
        998    1    1    2    0    0 -0.66852197134E+01 -0.90746520924E+01  0.14552512736E+04  0.14553292792E+04  0.10000000000E+02 0. -1.
</event>
<event>
 5    1  0.1129619E-008  0.3734802E+03  0.7957747E-01  0.3480048E+00
         13   -1    0    0    0    0  0.00000000000E+00  0.00000000000E+00  0.14999999963E+04  0.15000000000E+04  0.10566000000E+00 0. -1.
        994   -1    0    0    0    0 -0.00000000000E+00 -0.00000000000E+00  0.11368683772E-12  0.17120000000E+03  0.17120000000E+03 0.  0.
         13    1    1    2    0    0  0.68674409614E+01  0.87783551451E+01  0.48624697739E+01  0.12160429300E+02  0.10566000000E+00 0. -1.
        994    1    1    2    0    0 -0.56998354604E+01 -0.79483222101E+01  0.77881969942E+01  0.17165593483E+03  0.17120000000E+03 0.  0.
        998    1    1    2    0    0 -0.11676055011E+01 -0.83003293498E+00  0.14873493295E+04  0.14873836359E+04  0.10000000000E+02 0. -1.
</event>
<event>
 5    1  0.1129619E-008  0.3718218E+03  0.7957747E-01  0.3487560E+00
         13   -1    0    0    0    0  0.00000000000E+00  0.00000000000E+00  0.14999999963E+04  0.15000000000E+04  0.10566000000E+00 0.  1.
        994   -1    0    0    0    0 -0.00000000000E+00 -0.00000000000E+00  0.11368683772E-12  0.17120000000E+03  0.17120000000E+03 0.  0.
         13    1    1    2    0    0 -0.78344445508E+01 -0.19994324071E+02  0.23229268596E+02  0.31634816263E+02  0.10566000000E+00 0.  1.
        994    1    1    2    0    0  0.93098590708E+01  0.30599291222E+02  0.11843085057E+02  0.17456428261E+03  0.17120000000E+03 0.  0.
        998    1    1    2    0    0 -0.14754145200E+01 -0.10604967152E+02  0.14649276426E+04  0.14650009011E+04  0.10000000000E+02 0.  1.
</event>
<event>
 5    1  0.1129619E-008  0.3707164E+03  0.7957747E-01  0.3492605E+00
         13   -1    0    0    0    0  0.00000000000E+00  0.00000000000E+00  0.14999999963E+04  0.15000000000E+04  0.10566000000E+00 0.  1.
        994   -1    0    0    0    0 -0.00000000000E+00 -0.00000000000E+00  0.11368683772E-12  0.17120000000E+03  0.17120000000E+03 0.  0.
         13    1    1    2    0    0  0.14074907079E+02 -0.15466145222E+02  0.14751315655E+02  0.25591348830E+02  0.10566000000E+00 0.  1.
        994    1    1    2    0    0 -0.73191634415E+01  0.65874689172E+00  0.11507426951E+02  0.17174360243E+03  0.17120000000E+03 0.  0.
        998    1    1    2    0    0 -0.67557436379E+01  0.14807398331E+02  0.14737412537E+04  0.14738650487E+04  0.10000000000E+02 0.  1.
</event>
<event>
 5    1  0.1129619E-008  0.2990834E+03  0.7957747E-01  0.3902584E+00
         13   -1    0    0    0    0  0.00000000000E+00  0.00000000000E+00  0.14999999963E+04  0.15000000000E+04  0.10566000000E+00 0. -1.
        994   -1    0    0    0    0 -0.00000000000E+00 -0.00000000000E+00  0.11368683772E-12  0.17120000000E+03  0.17120000000E+03 0.  0.
         13    1    1    2    0    0 -0.61908163681E+02  0.21177889197E+03  0.60282108169E+03  0.64193160656E+03  0.10566000000E+00 0. -1.
        994    1    1    2    0    0  0.21803077320E+02 -0.19274605393E+03  0.19090106483E+03  0.32152616074E+03  0.17120000000E+03 0.  0.
        998    1    1    2    0    0  0.40105086361E+02 -0.19032838039E+02  0.70627784976E+03  0.70774223269E+03  0.10000000000E+02 0. -1.
</event>
<event>
 5    1  0.1129619E-008  0.3378256E+03  0.7957747E-01  0.3658225E+00
         13   -1    0    0    0    0  0.00000000000E+00  0.00000000000E+00  0.14999999963E+04  0.15000000000E+04  0.10566000000E+00 0.  1.
        994   -1    0    0    0    0 -0.00000000000E+00 -0.00000000000E+00  0.11368683772E-12  0.17120000000E+03  0.17120000000E+03 0.  0.
         13    1    1    2    0    0 -0.50040007884E+02 -0.20671412229E+03  0.96789938502E+03  0.99099140331E+03  0.10566000000E+00 0.  1.
        994    1    1    2    0    0  0.10684716278E+02  0.17467018105E+03  0.13463641066E+03  0.27939262407E+03  0.17120000000E+03 0.  0.
        998    1    1    2    0    0  0.39355291606E+02  0.32043941237E+02  0.39746420060E+03  0.40081597262E+03  0.10000000000E+02 0.  1.
</event>
<event>
 5    1  0.1129619E-008  0.3708790E+03  0.7957747E-01  0.3491861E+00
         13   -1    0    0    0    0  0.00000000000E+00  0.00000000000E+00  0.14999999963E+04  0.15000000000E+04  0.10566000000E+00 0.  1.
        994   -1    0    0    0    0 -0.00000000000E+00 -0.00000000000E+00  0.11368683772E-12  0.17120000000E+03  0.17120000000E+03 0.  0.
         13    1    1    2    0    0 -0.33156368350E+02  0.43050578333E+02  0.18536078524E+03  0.19316140641E+03  0.10566000000E+00 0.  1.
        994    1    1    2    0    0  0.55837648592E+01 -0.74751826012E+01  0.91104840665E+01  0.17169594551E+03  0.17120000000E+03 0.  0.
        998    1    1    2    0    0  0.27572603490E+02 -0.35575395732E+02  0.13055287270E+04  0.13063426481E+04  0.10000000000E+02 0.  1.
</event>
<event>
 5    1  0.1129619E-008  0.3827318E+03  0.7957747E-01  0.3439349E+00
         13   -1    0    0    0    0  0.00000000000E+00  0.00000000000E+00  0.14999999963E+04  0.15000000000E+04  0.10566000000E+00 0.  1.
        994   -1    0    0    0    0 -0.00000000000E+00 -0.00000000000E+00  0.11368683772E-12  0.17120000000E+03  0.17120000000E+03 0.  0.
         13    1    1    2    0    0  0.87356741792E+01 -0.11961069445E+02  0.40766571286E+02  0.43373997788E+02  0.10566000000E+00 0.  1.
        994    1    1    2    0    0  0.77674022031E+01  0.31305737704E+01  0.29928673996E+01  0.17143083236E+03  0.17120000000E+03 0.  0.
        998    1    1    2    0    0 -0.16503076382E+02  0.88304956747E+01  0.14562405576E+04  0.14563951698E+04  0.10000000000E+02 0.  1.
</event>
<event>
 5    1  0.1129619E-008  0.3831825E+03  0.7957747E-01  0.3437417E+00
         13   -1    0    0    0    0  0.00000000000E+00  0.00000000000E+00  0.14999999963E+04  0.15000000000E+04  0.10566000000E+00 0. -1.
        994   -1    0    0    0    0 -0.00000000000E+00 -0.00000000000E+00  0.11368683772E-12  0.17120000000E+03  0.17120000000E+03 0.  0.
         13    1    1    2    0    0  0.10375264316E+02  0.18838858969E+02  0.92146031369E+02  0.94622676870E+02  0.10566000000E+00 0. -1.
        994    1    1    2    0    0 -0.94369762625E+01 -0.69384129675E+01  0.29892077048E+01  0.17162626098E+03  0.17120000000E+03 0.  0.
        998    1    1    2    0    0 -0.93828805361E+00 -0.11900446001E+02  0.14048647572E+04  0.14049510621E+04  0.10000000000E+02 0. -1.
</event>
<event>
 5    1  0.1129619E-008  0.3713962E+03  0.7957747E-01  0.3489499E+00
         13   -1    0    0    0    0  0.00000000000E+00  0.00000000000E+00  0.14999999963E+04  0.15000000000E+04  0.10566000000E+00 0. -1.
        994   -1    0    0    0    0 -0.00000000000E+00 -0.00000000000E+00  0.11368683772E-12  0.17120000000E+03  0.17120000000E+03 0.  0.
         13    1    1    2    0    0 -0.33873799864E+01 -0.10254977462E+02  0.29438718821E+01  0.11194483089E+02  0.10566000000E+00 0. -1.
        994    1    1    2    0    0  0.78107353155E+01 -0.34543202330E+01  0.87921450712E+01  0.17163822922E+03  0.17120000000E+03 0.  0.
        998    1    1    2    0    0 -0.44233553291E+01  0.13709297695E+02  0.14882639793E+04  0.14883672877E+04  0.10000000000E+02 0. -1.
</event>
<event>
 5    1  0.1129619E-008  0.3738948E+03  0.7957747E-01  0.3478180E+00
         13   -1    0    0    0    0  0.00000000000E+00  0.00000000000E+00  0.14999999963E+04  0.15000000000E+04  0.10566000000E+00 0.  1.
        994   -1    0    0    0    0 -0.00000000000E+00 -0.00000000000E+00  0.11368683772E-12  0.17120000000E+03  0.17120000000E+03 0.  0.
         13    1    1    2    0    0  0.54516345779E+02  0.63007407387E+02  0.37892943592E+03  0.38798130614E+03  0.10566000000E+00 0.  1.
        994    1    1    2    0    0 -0.45808899961E+02 -0.60531614290E+02  0.27170944650E+02  0.18923591593E+03  0.17120000000E+03 0.  0.
        998    1    1    2    0    0 -0.87074458178E+01 -0.24757930964E+01  0.10938996157E+04  0.10939827779E+04  0.10000000000E+02 0.  1.
</event>
<event>
 5    1  0.1129619E-008  0.3740704E+03  0.7957747E-01  0.3477391E+00
         13   -1    0    0    0    0  0.00000000000E+00  0.00000000000E+00  0.14999999963E+04  0.15000000000E+04  0.10566000000E+00 0. -1.
        994   -1    0    0    0    0 -0.00000000000E+00 -0.00000000000E+00  0.11368683772E-12  0.17120000000E+03  0.17120000000E+03 0.  0.
         13    1    1    2    0    0 -0.39022427152E+02  0.32153424977E+02  0.15473308586E+03  0.16278492431E+03  0.10566000000E+00 0. -1.
        994    1    1    2    0    0  0.48423032822E+02 -0.28923986401E+02  0.18083696678E+02  0.18115696835E+03  0.17120000000E+03 0.  0.
        998    1    1    2    0    0 -0.94006056696E+01 -0.32294385759E+01  0.13271832137E+04  0.13272581073E+04  0.10000000000E+02 0. -1.
</event>
<event>
 5    1  0.1129619E-008  0.3850382E+03  0.7957747E-01  0.3429510E+00
         13   -1    0    0    0    0  0.00000000000E+00  0.00000000000E+00  0.14999999963E+04  0.15000000000E+04  0.10566000000E+00 0. -1.
        994   -1    0    0    0    0 -0.00000000000E+00 -0.00000000000E+00  0.11368683772E-12  0.17120000000E+03  0.17120000000E+03 0.  0.
         13    1    1    2    0    0  0.18868045637E+02 -0.26179691480E+01  0.10639834912E+03  0.10809013261E+03  0.10566000000E+00 0. -1.
        994    1    1    2    0    0 -0.20045119257E+02 -0.42299971701E+01  0.29924609100E+01  0.17244736735E+03  0.17120000000E+03 0.  0.
        998    1    1    2    0    0  0.11770736200E+01  0.68479663181E+01  0.13906091862E+04  0.13906625000E+04  0.10000000000E+02 0. -1.
</event>
<event>
 5    1  0.1129619E-008  0.3783866E+03  0.7957747E-01  0.3458214E+00
         13   -1    0    0    0    0  0.00000000000E+00  0.00000000000E+00  0.14999999963E+04  0.15000000000E+04  0.10566000000E+00 0.  1.
        994   -1    0    0    0    0 -0.00000000000E+00 -0.00000000000E+00  0.11368683772E-12  0.17120000000E+03  0.17120000000E+03 0.  0.
         13    1    1    2    0    0  0.52633050600E+02 -0.18203405442E+02  0.33303673884E+03  0.33766119494E+03  0.10566000000E+00 0.  1.
        994    1    1    2    0    0 -0.20478181728E+02  0.16325672428E+02  0.72583694956E+01  0.17334361089E+03  0.17120000000E+03 0.  0.
        998    1    1    2    0    0 -0.32154868872E+02  0.18777330131E+01  0.11597048879E+04  0.11601951942E+04  0.10000000000E+02 0.  1.
</event>
<event>
 5    1  0.1129619E-008  0.3777096E+03  0.7957747E-01  0.3461193E+00
         13   -1    0    0    0    0  0.00000000000E+00  0.00000000000E+00  0.14999999963E+04  0.15000000000E+04  0.10566000000E+00 0.  1.
        994   -1    0    0    0    0 -0.00000000000E+00 -0.00000000000E+00  0.11368683772E-12  0.17120000000E+03  0.17120000000E+03 0.  0.
         13    1    1    2    0    0 -0.38766352829E+02 -0.20736684336E+02  0.17302702302E+03  0.17852507400E+03  0.10566000000E+00 0.  1.
        994    1    1    2    0    0  0.29400259575E+02  0.14521063744E+02  0.89242183864E+01  0.17454030546E+03  0.17120000000E+03 0.  0.
        998    1    1    2    0    0  0.93660932535E+01  0.62156205919E+01  0.13180487549E+04  0.13181346205E+04  0.10000000000E+02 0.  1.
</event>
<event>
 5    1  0.1129619E-008  0.3851735E+03  0.7957747E-01  0.3428937E+00
         13   -1    0    0    0    0  0.00000000000E+00  0.00000000000E+00  0.14999999963E+04  0.15000000000E+04  0.10566000000E+00 0.  1.
        994   -1    0    0    0    0 -0.00000000000E+00 -0.00000000000E+00  0.11368683772E-12  0.17120000000E+03  0.17120000000E+03 0.  0.
         13    1    1    2    0    0  0.54353472562E+02 -0.22320536530E+02  0.78339678785E+02  0.97926619296E+02  0.10566000000E+00 0.  1.
        994    1    1    2    0    0 -0.54939052338E+02  0.31178107867E+02  0.34090788263E+02  0.18563942395E+03  0.17120000000E+03 0.  0.
        998    1    1    2    0    0  0.58557977531E+00 -0.88575713367E+01  0.13875695292E+04  0.13876339567E+04  0.10000000000E+02 0.  1.
</event>
<event>
 5    1  0.1129619E-008  0.3788885E+03  0.7957747E-01  0.3456012E+00
         13   -1    0    0    0    0  0.00000000000E+00  0.00000000000E+00  0.14999999963E+04  0.15000000000E+04  0.10566000000E+00 0. -1.
        994   -1    0    0    0    0 -0.00000000000E+00 -0.00000000000E+00  0.11368683772E-12  0.17120000000E+03  0.17120000000E+03 0.  0.
         13    1    1    2    0    0 -0.34017579690E+01 -0.14811042627E+02  0.21856656889E+02  0.26620735440E+02  0.10566000000E+00 0. -1.
        994    1    1    2    0    0  0.11601354903E+02  0.21480421617E+02  0.66975555330E+01  0.17306154165E+03  0.17120000000E+03 0.  0.
        998    1    1    2    0    0 -0.81995969342E+01 -0.66693789908E+01  0.14714457839E+04  0.14715177229E+04  0.10000000000E+02 0. -1.
</event>
<event>
 5    1  0.1129619E-008  0.3806717E+03  0.7957747E-01  0.3448239E+00
         13   -1    0    0    0    0  0.00000000000E+00  0.00000000000E+00  0.14999999963E+04  0.15000000000E+04  0.10566000000E+00 0. -1.
        994   -1    0    0    0    0 -0.00000000000E+00 -0.00000000000E+00  0.11368683772E-12  0.17120000000E+03  0.17120000000E+03 0.  0.
         13    1    1    2    0    0  0.96128907749E+01 -0.42830139530E+01  0.12973561235E+02  0.16705577893E+02  0.10566000000E+00 0. -1.
        994    1    1    2    0    0 -0.39497374304E+01  0.85348029261E+01  0.40895103235E+01  0.17150687269E+03  0.17120000000E+03 0.  0.
        998    1    1    2    0    0 -0.56631533445E+01 -0.42517889731E+01  0.14829369247E+04  0.14829875494E+04  0.10000000000E+02 0. -1.
</event>
<event>
 5    1  0.1129619E-008  0.3771740E+03  0.7957747E-01  0.3463557E+00
         13   -1    0    0    0    0  0.00000000000E+00  0.00000000000E+00  0.14999999963E+04  0.15000000000E+04  0.10566000000E+00 0. -1.
        994   -1    0    0    0    0 -0.00000000000E+00 -0.00000000000E+00  0.11368683772E-12  0.17120000000E+03  0.17120000000E+03 0.  0.
         13    1    1    2    0    0  0.15370090986E+02  0.46275229643E+02  0.26041198137E+03  0.26493781870E+03  0.10566000000E+00 0. -1.
        994    1    1    2    0    0 -0.91883893060E+01  0.14887189939E+01  0.58589898827E+01  0.17155293802E+03  0.17120000000E+03 0.  0.
        998    1    1    2    0    0 -0.61817016800E+01 -0.47763948637E+02  0.12337290250E+04  0.12347092433E+04  0.10000000000E+02 0. -1.
</event>
<event>
 5    1  0.1129619E-008  0.3761473E+03  0.7957747E-01  0.3468107E+00
         13   -1    0    0    0    0  0.00000000000E+00  0.00000000000E+00  0.14999999963E+04  0.15000000000E+04  0.10566000000E+00 0.  1.
        994   -1    0    0    0    0 -0.00000000000E+00 -0.00000000000E+00  0.11368683772E-12  0.17120000000E+03  0.17120000000E+03 0.  0.
         13    1    1    2    0    0 -0.13615657334E+02 -0.10535880070E+02  0.21732460283E+02  0.27725473621E+02  0.10566000000E+00 0.  1.
        994    1    1    2    0    0  0.83287565192E+01  0.93682004752E+01  0.66229594538E+01  0.17178601502E+03  0.17120000000E+03 0.  0.
        998    1    1    2    0    0  0.52869008153E+01  0.11676795945E+01  0.14716445765E+04  0.14716885114E+04  0.10000000000E+02 0.  1.
</event>
<event>
 5    1  0.1129619E-008  0.3771834E+03  0.7957747E-01  0.3463515E+00
         13   -1    0    0    0    0  0.00000000000E+00  0.00000000000E+00  0.14999999963E+04  0.15000000000E+04  0.10566000000E+00 0. -1.
        994   -1    0    0    0    0 -0.00000000000E+00 -0.00000000000E+00  0.11368683772E-12  0.17120000000E+03  0.17120000000E+03 0.  0.
         13    1    1    2    0    0 -0.25911226961E+02  0.82823238432E+01  0.62536473840E+02  0.68196849599E+02  0.10566000000E+00 0. -1.
        994    1    1    2    0    0  0.20568390045E+02 -0.19456594953E+02  0.82714302641E+01  0.17372240591E+03  0.17120000000E+03 0.  0.
        998    1    1    2    0    0  0.53428369151E+01  0.11174271110E+02  0.14291920922E+04  0.14292807445E+04  0.10000000000E+02 0. -1.
</event>
<event>
 5    1  0.1129619E-008  0.3742708E+03  0.7957747E-01  0.3476490E+00
         13   -1    0    0    0    0  0.00000000000E+00  0.00000000000E+00  0.14999999963E+04  0.15000000000E+04  0.10566000000E+00 0.  1.
        994   -1    0    0    0    0 -0.00000000000E+00 -0.00000000000E+00  0.11368683772E-12  0.17120000000E+03  0.17120000000E+03 0.  0.
         13    1    1    2    0    0  0.11875799047E+02  0.56265350401E+01  0.89694099455E+01  0.15910813253E+02  0.10566000000E+00 0.  1.
        994    1    1    2    0    0 -0.11943791962E+02 -0.71009405974E+01  0.77118475918E+01  0.17193600588E+03  0.17120000000E+03 0.  0.
        998    1    1    2    0    0  0.67992914355E-01  0.14744055572E+01  0.14833187387E+04  0.14833531809E+04  0.10000000000E+02 0.  1.
</event>
<event>
 5    1  0.1129619E-008  0.3840135E+03  0.7957747E-01  0.3433867E+00
         13   -1    0    0    0    0  0.00000000000E+00  0.00000000000E+00  0.14999999963E+04  0.15000000000E+04  0.10566000000E+00 0. -1.
        994   -1    0    0    0    0 -0.00000000000E+00 -0.00000000000E+00  0.11368683772E-12  0.17120000000E+03  0.17120000000E+03 0.  0.
         13    1    1    2    0    0  0.15975708823E+02 -0.79017176342E+01  0.68725964207E+02  0.70999505169E+02  0.10566000000E+00 0. -1.
        994    1    1    2    0    0 -0.21887278930E+02  0.13575768850E+02  0.43123274745E+01  0.17318022591E+03  0.17120000000E+03 0.  0.
        998    1    1    2    0    0  0.59115701071E+01 -0.56740512162E+01  0.14269617046E+04  0.14270202689E+04  0.10000000000E+02 0. -1.
</event>
<event>
 5    1  0.2518352E-008  0.3865365E+03  0.7957747E-01  0.3423182E+00
         13   -1    0    0    0    0  0.00000000000E+00  0.00000000000E+00  0.14999999963E+04  0.15000000000E+04  0.10566000000E+00 0.  1.
        994   -1    0    0    0    0 -0.00000000000E+00 -0.00000000000E+00  0.11368683772E-12  0.17120000000E+03  0.17120000000E+03 0.  0.
         13    1    1    2    0    0 -0.11800396008E+01 -0.10152286248E+02  0.60039839658E+02  0.60903652762E+02  0.10566000000E+00 0.  1.
        994    1    1    2    0    0 -0.20495857816E+01  0.10040053885E+02  0.12128740292E+01  0.17151068348E+03  0.17120000000E+03 0.  0.
        998    1    1    2    0    0  0.32296253824E+01  0.11223236306E+00  0.14387472826E+04  0.14387856638E+04  0.10000000000E+02 0.  1.
</event>
<event>
 5    1  0.1129619E-008  0.3809742E+03  0.7957747E-01  0.3446928E+00
         13   -1    0    0    0    0  0.00000000000E+00  0.00000000000E+00  0.14999999963E+04  0.15000000000E+04  0.10566000000E+00 0.  1.
        994   -1    0    0    0    0 -0.00000000000E+00 -0.00000000000E+00  0.11368683772E-12  0.17120000000E+03  0.17120000000E+03 0.  0.
         13    1    1    2    0    0 -0.39546666708E+02 -0.16178155585E+02  0.24194707770E+03  0.24569100744E+03  0.10566000000E+00 0.  1.
        994    1    1    2    0    0  0.27704962673E+02  0.62468969842E+01  0.63345519616E+01  0.17365527699E+03  0.17120000000E+03 0.  0.
        998    1    1    2    0    0  0.11841704035E+02  0.99312586010E+01  0.12517183666E+04  0.12518537156E+04  0.10000000000E+02 0.  1.
</event>
<event>
 5    1  0.1129619E-008  0.4114786E+03  0.7957747E-01  0.3324592E+00
         13   -1    0    0    0    0  0.00000000000E+00  0.00000000000E+00  0.14999999963E+04  0.15000000000E+04  0.10566000000E+00 0. -1.
        994   -1    0    0    0    0 -0.00000000000E+00 -0.00000000000E+00  0.11368683772E-12  0.17120000000E+03  0.17120000000E+03 0.  0.
         13    1    1    2    0    0 -0.87451893901E+02 -0.14991237281E+02  0.99299634127E+02  0.13316530871E+03  0.10566000000E+00 0. -1.
        994    1    1    2    0    0  0.77866949406E+02  0.83001234931E+01  0.60493970759E+02  0.19774001709E+03  0.17120000000E+03 0.  0.
        998    1    1    2    0    0  0.95849444953E+01  0.66911137875E+01  0.13402063914E+04  0.13402946742E+04  0.10000000000E+02 0. -1.
</event>
<event>
 5    1  0.1129619E-008  0.3844700E+03  0.7957747E-01  0.3431923E+00
         13   -1    0    0    0    0  0.00000000000E+00  0.00000000000E+00  0.14999999963E+04  0.15000000000E+04  0.10566000000E+00 0.  1.
        994   -1    0    0    0    0 -0.00000000000E+00 -0.00000000000E+00  0.11368683772E-12  0.17120000000E+03  0.17120000000E+03 0.  0.
         13    1    1    2    0    0  0.10015526030E+02  0.11615215646E+02  0.58859639424E+02  0.60825096081E+02  0.10566000000E+00 0.  1.
        994    1    1    2    0    0 -0.22691938324E+01 -0.23354558312E+02  0.37093860196E+01  0.17284034303E+03  0.17120000000E+03 0.  0.
        998    1    1    2    0    0 -0.77463321974E+01  0.11739342666E+02  0.14374309708E+04  0.14375345609E+04  0.10000000000E+02 0.  1.
</event>
<event>
 5    1  0.1129619E-008  0.2574910E+03  0.7957747E-01  0.4255637E+00
         13   -1    0    0    0    0  0.00000000000E+00  0.00000000000E+00  0.14999999963E+04  0.15000000000E+04  0.10566000000E+00 0.  1.
        994   -1    0    0    0    0 -0.00000000000E+00 -0.00000000000E+00  0.11368683772E-12  0.17120000000E+03  0.17120000000E+03 0.  0.
         13    1    1    2    0    0  0.27747968148E+02  0.17410219943E+03  0.41389589942E+03  0.44987926414E+03  0.10566000000E+00 0.  1.
        994    1    1    2    0    0  0.40719766477E+02 -0.13698593850E+03  0.12233646950E+03  0.25435978160E+03  0.17120000000E+03 0.  0.
        998    1    1    2    0    0 -0.68467734625E+02 -0.37116260934E+02  0.96376762736E+03  0.96696095426E+03  0.10000000000E+02 0.  1.
</event>
<event>
 5    1  0.1129619E-008  0.3749249E+03  0.7957747E-01  0.3473559E+00
         13   -1    0    0    0    0  0.00000000000E+00  0.00000000000E+00  0.14999999963E+04  0.15000000000E+04  0.10566000000E+00 0. -1.
        994   -1    0    0    0    0 -0.00000000000E+00 -0.00000000000E+00  0.11368683772E-12  0.17120000000E+03  0.17120000000E+03 0.  0.
         13    1    1    2    0    0 -0.17241318296E+02 -0.91804179058E+01  0.24928716233E+02  0.31670099251E+02  0.10566000000E+00 0. -1.
        994    1    1    2    0    0  0.19684449637E+02  0.13442098633E+02  0.86514808806E+01  0.17306777775E+03  0.17120000000E+03 0.  0.
        998    1    1    2    0    0 -0.24431313411E+01 -0.42616807272E+01  0.14664197992E+04  0.14664621230E+04  0.10000000000E+02 0. -1.
</event>
<event>
 5    1  0.1129619E-008  0.3776128E+03  0.7957747E-01  0.3461619E+00
         13   -1    0    0    0    0  0.00000000000E+00  0.00000000000E+00  0.14999999963E+04  0.15000000000E+04  0.10566000000E+00 0.  1.
        994   -1    0    0    0    0 -0.00000000000E+00 -0.00000000000E+00  0.11368683772E-12  0.17120000000E+03  0.17120000000E+03 0.  0.
         13    1    1    2    0    0 -0.61846214878E+02 -0.28277842599E+01  0.28810214162E+03  0.29467915744E+03  0.10566000000E+00 0.  1.
        994    1    1    2    0    0  0.63510282328E+02 -0.12720208015E+02  0.19612333688E+02  0.18409085606E+03  0.17120000000E+03 0.  0.
        998    1    1    2    0    0 -0.16640674493E+01  0.15547992275E+02  0.11922855210E+04  0.11924299865E+04  0.10000000000E+02 0.  1.
</event>
<event>
 5    1  0.1129619E-008  0.3717655E+03  0.7957747E-01  0.3487816E+00
         13   -1    0    0    0    0  0.00000000000E+00  0.00000000000E+00  0.14999999963E+04  0.15000000000E+04  0.10566000000E+00 0. -1.
        994   -1    0    0    0    0 -0.00000000000E+00 -0.00000000000E+00  0.11368683772E-12  0.17120000000E+03  0.17120000000E+03 0.  0.
         13    1    1    2    0    0 -0.23319705384E+02 -0.78445453893E+01  0.20288264665E+02  0.31889973326E+02  0.10566000000E+00 0. -1.
        994    1    1    2    0    0  0.22242214135E+02  0.27119384605E+01  0.13643503265E+02  0.17319831374E+03  0.17120000000E+03 0.  0.
        998    1    1    2    0    0  0.10774912491E+01  0.51326069288E+01  0.14660682283E+04  0.14661117129E+04  0.10000000000E+02 0. -1.
</event>
<event>
 5    1  0.1129619E-008  0.3844650E+03  0.7957747E-01  0.3431944E+00
         13   -1    0    0    0    0  0.00000000000E+00  0.00000000000E+00  0.14999999963E+04  0.15000000000E+04  0.10566000000E+00 0.  1.
        994   -1    0    0    0    0 -0.00000000000E+00 -0.00000000000E+00  0.11368683772E-12  0.17120000000E+03  0.17120000000E+03 0.  0.
         13    1    1    2    0    0 -0.73176147323E+01  0.46234845956E+02  0.54023369644E+02  0.71482474060E+02  0.10566000000E+00 0.  1.
        994    1    1    2    0    0 -0.70208653021E+01 -0.15958203678E+02  0.19922392431E+02  0.17323480751E+03  0.17120000000E+03 0.  0.
        998    1    1    2    0    0  0.14338480034E+02 -0.30276642278E+02  0.14260542342E+04  0.14264827184E+04  0.10000000000E+02 0.  1.
</event>
<event>
 5    1  0.1129619E-008  0.3803610E+03  0.7957747E-01  0.3449588E+00
         13   -1    0    0    0    0  0.00000000000E+00  0.00000000000E+00  0.14999999963E+04  0.15000000000E+04  0.10566000000E+00 0.  1.
        994   -1    0    0    0    0 -0.00000000000E+00 -0.00000000000E+00  0.11368683772E-12  0.17120000000E+03  0.17120000000E+03 0.  0.
         13    1    1    2    0    0  0.14567139954E+02  0.32954220063E+02  0.14457580913E+03  0.14899784541E+03  0.10566000000E+00 0.  1.
        994    1    1    2    0    0 -0.15500686372E+02 -0.37346284536E+02  0.94295856151E+01  0.17616291702E+03  0.17120000000E+03 0.  0.
        998    1    1    2    0    0  0.93354641757E+00  0.43920644734E+01  0.13459946015E+04  0.13460392376E+04  0.10000000000E+02 0.  1.
</event>
<event>
 5    1  0.1129619E-008  0.4006626E+03  0.7957747E-01  0.3365845E+00
         13   -1    0    0    0    0  0.00000000000E+00  0.00000000000E+00  0.14999999963E+04  0.15000000000E+04  0.10566000000E+00 0. -1.
        994   -1    0    0    0    0 -0.00000000000E+00 -0.00000000000E+00  0.11368683772E-12  0.17120000000E+03  0.17120000000E+03 0.  0.
         13    1    1    2    0    0  0.12331207548E+03  0.32296512573E+02  0.22648998996E+03  0.25989740168E+03  0.10566000000E+00 0. -1.
        994    1    1    2    0    0 -0.13203693465E+03 -0.22873795695E+02  0.10281407016E+03  0.24049352520E+03  0.17120000000E+03 0.  0.
        998    1    1    2    0    0  0.87248591603E+01 -0.94227168778E+01  0.11706959362E+04  0.11708090731E+04  0.10000000000E+02 0. -1.
</event>
<event>
 5    1  0.1129619E-008  0.4326791E+03  0.7957747E-01  0.3249627E+00
         13   -1    0    0    0    0  0.00000000000E+00  0.00000000000E+00  0.14999999963E+04  0.15000000000E+04  0.10566000000E+00 0.  1.
        994   -1    0    0    0    0 -0.00000000000E+00 -0.00000000000E+00  0.11368683772E-12  0.17120000000E+03  0.17120000000E+03 0.  0.
         13    1    1    2    0    0  0.57837326944E+01 -0.13622404161E+03  0.16596814681E+03  0.21479263953E+03  0.10566000000E+00 0.  1.
        994    1    1    2    0    0  0.28926209108E+02  0.11872374521E+03  0.12089124076E+03  0.24260293762E+03  0.17120000000E+03 0.  0.
        998    1    1    2    0    0 -0.34709941802E+02  0.17500296407E+02  0.12131406087E+04  0.12138044228E+04  0.10000000000E+02 0.  1.
</event>
<event>
 5    1  0.1129619E-008  0.3788287E+03  0.7957747E-01  0.3456274E+00
         13   -1    0    0    0    0  0.00000000000E+00  0.00000000000E+00  0.14999999963E+04  0.15000000000E+04  0.10566000000E+00 0. -1.
        994   -1    0    0    0    0 -0.00000000000E+00 -0.00000000000E+00  0.11368683772E-12  0.17120000000E+03  0.17120000000E+03 0.  0.
         13    1    1    2    0    0 -0.65507360033E+02  0.44676743280E+02  0.38563515342E+03  0.39370256327E+03  0.10566000000E+00 0. -1.
        994    1    1    2    0    0  0.97140201029E+02 -0.41219688439E+02  0.43051742560E+02  0.20566519858E+03  0.17120000000E+03 0.  0.
        998    1    1    2    0    0 -0.31632840996E+02 -0.34570548406E+01  0.10713131003E+04  0.10718322381E+04  0.10000000000E+02 0. -1.
</event>
<event>
 5    1  0.1129619E-008  0.3792933E+03  0.7957747E-01  0.3454241E+00
         13   -1    0    0    0    0  0.00000000000E+00  0.00000000000E+00  0.14999999963E+04  0.15000000000E+04  0.10566000000E+00 0.  1.
        994   -1    0    0    0    0 -0.00000000000E+00 -0.00000000000E+00  0.11368683772E-12  0.17120000000E+03  0.17120000000E+03 0.  0.
         13    1    1    2    0    0  0.39984657667E+02 -0.56685272850E+02  0.13800185325E+03  0.15445554594E+03  0.10566000000E+00 0.  1.
        994    1    1    2    0    0 -0.34318231593E+02  0.48745363225E+02  0.28898097657E+02  0.18357121644E+03  0.17120000000E+03 0.  0.
        998    1    1    2    0    0 -0.56664260738E+01  0.79399096255E+01  0.13331000454E+04  0.13331732376E+04  0.10000000000E+02 0.  1.
</event>
<event>
 5    1  0.1129619E-008  0.3844300E+03  0.7957747E-01  0.3432093E+00
         13   -1    0    0    0    0  0.00000000000E+00  0.00000000000E+00  0.14999999963E+04  0.15000000000E+04  0.10566000000E+00 0.  1.
        994   -1    0    0    0    0 -0.00000000000E+00 -0.00000000000E+00  0.11368683772E-12  0.17120000000E+03  0.17120000000E+03 0.  0.
         13    1    1    2    0    0 -0.15523752855E+01  0.15030865742E+02  0.69056419828E+02  0.70690431300E+02  0.10566000000E+00 0.  1.
        994    1    1    2    0    0 -0.77795713052E+01  0.13523191677E+02  0.27157356151E+01  0.17193083977E+03  0.17120000000E+03 0.  0.
        998    1    1    2    0    0  0.93319465907E+01 -0.28554057418E+02  0.14282278408E+04  0.14285787289E+04  0.10000000000E+02 0.  1.
</event>
<event>
 5    1  0.1129619E-008  0.3843968E+03  0.7957747E-01  0.3432234E+00
         13   -1    0    0    0    0  0.00000000000E+00  0.00000000000E+00  0.14999999963E+04  0.15000000000E+04  0.10566000000E+00 0.  1.
        994   -1    0    0    0    0 -0.00000000000E+00 -0.00000000000E+00  0.11368683772E-12  0.17120000000E+03  0.17120000000E+03 0.  0.
         13    1    1    2    0    0  0.14526213946E+02  0.14239576416E+01  0.48662428129E+02  0.50804346492E+02  0.10566000000E+00 0.  1.
        994    1    1    2    0    0 -0.33389983993E+02 -0.41832106226E+01  0.56701814574E+01  0.17456798458E+03  0.17120000000E+03 0.  0.
        998    1    1    2    0    0  0.18863770046E+02  0.27592529810E+01  0.14456673867E+04  0.14458276689E+04  0.10000000000E+02 0.  1.
</event>
<event>
 5    1  0.1129619E-008  0.3836694E+03  0.7957747E-01  0.3435335E+00
         13   -1    0    0    0    0  0.00000000000E+00  0.00000000000E+00  0.14999999963E+04  0.15000000000E+04  0.10566000000E+00 0. -1.
        994   -1    0    0    0    0 -0.00000000000E+00 -0.00000000000E+00  0.11368683772E-12  0.17120000000E+03  0.17120000000E+03 0.  0.
         13    1    1    2    0    0  0.91566222594E+01 -0.53020181144E+01  0.23226647051E+02  0.25523389754E+02  0.10566000000E+00 0. -1.
        994    1    1    2    0    0 -0.10112794916E+02  0.80847091486E+01  0.28460651531E+01  0.17171246673E+03  0.17120000000E+03 0.  0.
        998    1    1    2    0    0  0.95617265706E+00 -0.27826910342E+01  0.14739272841E+04  0.14739641435E+04  0.10000000000E+02 0. -1.
</event>
<event>
 5    1  0.1129619E-008  0.3781640E+03  0.7957747E-01  0.3459192E+00
         13   -1    0    0    0    0  0.00000000000E+00  0.00000000000E+00  0.14999999963E+04  0.15000000000E+04  0.10566000000E+00 0.  1.
        994   -1    0    0    0    0 -0.00000000000E+00 -0.00000000000E+00  0.11368683772E-12  0.17120000000E+03  0.17120000000E+03 0.  0.
         13    1    1    2    0    0  0.41893101395E+00 -0.11631961886E+02  0.11162684288E+02  0.16127452529E+02  0.10566000000E+00 0.  1.
        994    1    1    2    0    0  0.45931831274E+01  0.72519210795E+01  0.53107218854E+01  0.17149732201E+03  0.17120000000E+03 0.  0.
        998    1    1    2    0    0 -0.50121141414E+01  0.43800408065E+01  0.14835265901E+04  0.14835752255E+04  0.10000000000E+02 0.  1.
</event>
<event>
 5    1  0.1129619E-008  0.3835838E+03  0.7957747E-01  0.3435701E+00
         13   -1    0    0    0    0  0.00000000000E+00  0.00000000000E+00  0.14999999963E+04  0.15000000000E+04  0.10566000000E+00 0. -1.
        994   -1    0    0    0    0 -0.00000000000E+00 -0.00000000000E+00  0.11368683772E-12  0.17120000000E+03  0.17120000000E+03 0.  0.
         13    1    1    2    0    0 -0.13273694358E+02 -0.12377550957E+02  0.72281629574E+02  0.74525431012E+02  0.10566000000E+00 0. -1.
        994    1    1    2    0    0  0.88750177497E+01 -0.71480923310E+00  0.25968499020E+01  0.17145104410E+03  0.17120000000E+03 0.  0.
        998    1    1    2    0    0  0.43986766082E+01  0.13092360190E+02  0.14251215168E+04  0.14252235249E+04  0.10000000000E+02 0. -1.
</event>
<event>
 5    1  0.1129619E-008  0.3727944E+03  0.7957747E-01  0.3483146E+00
         13   -1    0    0    0    0  0.00000000000E+00  0.00000000000E+00  0.14999999963E+04  0.15000000000E+04  0.10566000000E+00 0. -1.
        994   -1    0    0    0    0 -0.00000000000E+00 -0.00000000000E+00  0.11368683772E-12  0.17120000000E+03  0.17120000000E+03 0.  0.
         13    1    1    2    0    0 -0.10874419601E+03  0.12642638975E+02  0.53178720316E+03  0.54293901784E+03  0.10566000000E+00 0. -1.
        994    1    1    2    0    0  0.51280686802E+02 -0.84475768109E+01  0.22022200951E+02  0.18026504855E+03  0.17120000000E+03 0.  0.
        998    1    1    2    0    0  0.57463509209E+02 -0.41950621641E+01  0.94619059217E+03  0.94799593362E+03  0.10000000000E+02 0. -1.
</event>
<event>
 5    1  0.1129619E-008  0.3774823E+03  0.7957747E-01  0.3462195E+00
         13   -1    0    0    0    0  0.00000000000E+00  0.00000000000E+00  0.14999999963E+04  0.15000000000E+04  0.10566000000E+00 0. -1.
        994   -1    0    0    0    0 -0.00000000000E+00 -0.00000000000E+00  0.11368683772E-12  0.17120000000E+03  0.17120000000E+03 0.  0.
         13    1    1    2    0    0 -0.13838586485E+03 -0.38119504083E+02  0.85690742292E+03  0.86884641151E+03  0.10566000000E+00 0. -1.
        994    1    1    2    0    0  0.13117211536E+03  0.38627842684E+02  0.71282295316E+02  0.23041015539E+03  0.17120000000E+03 0.  0.
        998    1    1    2    0    0  0.72137494880E+01 -0.50833860047E+00  0.57181027804E+03  0.57194343310E+03  0.10000000000E+02 0.  0.
</event>
<event>
 5    1  0.1129619E-008  0.3857273E+03  0.7957747E-01  0.3426593E+00
         13   -1    0    0    0    0  0.00000000000E+00  0.00000000000E+00  0.14999999963E+04  0.15000000000E+04  0.10566000000E+00 0.  1.
        994   -1    0    0    0    0 -0.00000000000E+00 -0.00000000000E+00  0.11368683772E-12  0.17120000000E+03  0.17120000000E+03 0.  0.
         13    1    1    2    0    0  0.74672410890E+01  0.12107999073E+02  0.79394946361E+02  0.80659357813E+02  0.10566000000E+00 0.  1.
        994    1    1    2    0    0  0.14278505834E+00 -0.12845452372E+02  0.18110930645E+01  0.17169084452E+03  0.17120000000E+03 0.  0.
        998    1    1    2    0    0 -0.76100261474E+01  0.73745329894E+00  0.14187939569E+04  0.14188497977E+04  0.10000000000E+02 0.  1.
</event>
<event>
 5    1  0.1129619E-008  0.3693630E+03  0.7957747E-01  0.3498823E+00
         13   -1    0    0    0    0  0.00000000000E+00  0.00000000000E+00  0.14999999963E+04  0.15000000000E+04  0.10566000000E+00 0.  1.
        994   -1    0    0    0    0 -0.00000000000E+00 -0.00000000000E+00  0.11368683772E-12  0.17120000000E+03  0.17120000000E+03 0.  0.
         13    1    1    2    0    0 -0.60781585240E+02 -0.20696555827E+02  0.18612009180E+03  0.19688435251E+03  0.10566000000E+00 0.  1.
        994    1    1    2    0    0  0.61351771468E+02  0.18492674469E+02  0.23968680340E+02  0.18436365289E+03  0.17120000000E+03 0.  0.
        998    1    1    2    0    0 -0.57018622734E+00  0.22038813578E+01  0.12899112241E+04  0.12899519946E+04  0.10000000000E+02 0.  1.
</event>
<event>
 5    1  0.1129619E-008  0.3792735E+03  0.7957747E-01  0.3454328E+00
         13   -1    0    0    0    0  0.00000000000E+00  0.00000000000E+00  0.14999999963E+04  0.15000000000E+04  0.10566000000E+00 0.  1.
        994   -1    0    0    0    0 -0.00000000000E+00 -0.00000000000E+00  0.11368683772E-12  0.17120000000E+03  0.17120000000E+03 0.  0.
         13    1    1    2    0    0 -0.80184366002E+02  0.51897199394E+02  0.56679123797E+03  0.57478271587E+03  0.10566000000E+00 0.  1.
        994    1    1    2    0    0  0.72659628337E+02 -0.78696170224E+02  0.43957349585E+02  0.20667413331E+03  0.17120000000E+03 0.  0.
        998    1    1    2    0    0  0.75247376654E+01  0.26798970830E+02  0.88925140872E+03  0.88974315082E+03  0.10000000000E+02 0.  1.
</event>
<event>
 5    1  0.1129619E-008  0.3835639E+03  0.7957747E-01  0.3435786E+00
         13   -1    0    0    0    0  0.00000000000E+00  0.00000000000E+00  0.14999999963E+04  0.15000000000E+04  0.10566000000E+00 0. -1.
        994   -1    0    0    0    0 -0.00000000000E+00 -0.00000000000E+00  0.11368683772E-12  0.17120000000E+03  0.17120000000E+03 0.  0.
         13    1    1    2    0    0  0.97124891515E+01  0.12622197367E+02  0.52832650292E+02  0.55181087456E+02  0.10566000000E+00 0. -1.
        994    1    1    2    0    0 -0.81044398907E+01 -0.10172280864E+02  0.29039046062E+01  0.17171787882E+03  0.17120000000E+03 0.  0.
        998    1    1    2    0    0 -0.16080492608E+01 -0.24499165039E+01  0.14442634414E+04  0.14443010337E+04  0.10000000000E+02 0. -1.
</event>
<event>
 5    1  0.1129619E-008  0.3800989E+03  0.7957747E-01  0.3450728E+00
         13   -1    0    0    0    0  0.00000000000E+00  0.00000000000E+00  0.14999999963E+04  0.15000000000E+04  0.10566000000E+00 0.  1.
        994   -1    0    0    0    0 -0.00000000000E+00 -0.00000000000E+00  0.11368683772E-12  0.17120000000E+03  0.17120000000E+03 0.  0.
         13    1    1    2    0    0  0.28587633981E+02 -0.10409861299E+02  0.11226266536E+03  0.11631223163E+03  0.10566000000E+00 0.  1.
        994    1    1    2    0    0 -0.18682514660E+02  0.83218810588E+00  0.52528513687E+01  0.17229846586E+03  0.17120000000E+03 0.  0.
        998    1    1    2    0    0 -0.99051193213E+01  0.95776731935E+01  0.13824844795E+04  0.13825893025E+04  0.10000000000E+02 0.  1.
</event>
<event>
 5    1  0.1152057E-008  0.3862416E+03  0.7957747E-01  0.3424423E+00
         13   -1    0    0    0    0  0.00000000000E+00  0.00000000000E+00  0.14999999963E+04  0.15000000000E+04  0.10566000000E+00 0.  1.
        994   -1    0    0    0    0 -0.00000000000E+00 -0.00000000000E+00  0.11368683772E-12  0.17120000000E+03  0.17120000000E+03 0.  0.
         13    1    1    2    0    0  0.11410671207E+02 -0.52702599742E+01  0.75388506559E+02  0.76429164217E+02  0.10566000000E+00 0.  1.
        994    1    1    2    0    0 -0.13667411351E+02  0.34841035895E+01  0.16668142954E+01  0.17178811187E+03  0.17120000000E+03 0.  0.
        998    1    1    2    0    0  0.22567401434E+01  0.17861563847E+01  0.14229446754E+04  0.14229827239E+04  0.10000000000E+02 0.  1.
</event>
<event>
 5    1  0.1129619E-008  0.3813493E+03  0.7957747E-01  0.3445304E+00
         13   -1    0    0    0    0  0.00000000000E+00  0.00000000000E+00  0.14999999963E+04  0.15000000000E+04  0.10566000000E+00 0.  1.
        994   -1    0    0    0    0 -0.00000000000E+00 -0.00000000000E+00  0.11368683772E-12  0.17120000000E+03  0.17120000000E+03 0.  0.
         13    1    1    2    0    0  0.10293174585E+02 -0.83580586747E+01  0.25641561142E+02  0.28867064445E+02  0.10566000000E+00 0.  1.
        994    1    1    2    0    0  0.81158881637E+01 -0.75325140523E+01  0.38617365502E+01  0.17160116380E+03  0.17120000000E+03 0.  0.
        998    1    1    2    0    0 -0.18409062749E+02  0.15890572727E+02  0.14704966986E+04  0.14707317718E+04  0.10000000000E+02 0.  1.
</event>
<event>
 5    1  0.1129619E-008  0.3831909E+03  0.7957747E-01  0.3437381E+00
         13   -1    0    0    0    0  0.00000000000E+00  0.00000000000E+00  0.14999999963E+04  0.15000000000E+04  0.10566000000E+00 0. -1.
        994   -1    0    0    0    0 -0.00000000000E+00 -0.00000000000E+00  0.11368683772E-12  0.17120000000E+03  0.17120000000E+03 0.  0.
         13    1    1    2    0    0 -0.20525844973E+02  0.10482385564E+02  0.10953269950E+03  0.11193129206E+03  0.10566000000E+00 0. -1.
        994    1    1    2    0    0  0.55858649150E+01 -0.42546052716E+01  0.26941158421E+01  0.17136511259E+03  0.17120000000E+03 0.  0.
        998    1    1    2    0    0  0.14939980058E+02 -0.62277802926E+01  0.13877731809E+04  0.13879035954E+04  0.10000000000E+02 0. -1.
</event>
<event>
 5    1  0.1129619E-008  0.3859540E+03  0.7957747E-01  0.3425636E+00
         13   -1    0    0    0    0  0.00000000000E+00  0.00000000000E+00  0.14999999963E+04  0.15000000000E+04  0.10566000000E+00 0.  1.
        994   -1    0    0    0    0 -0.00000000000E+00 -0.00000000000E+00  0.11368683772E-12  0.17120000000E+03  0.17120000000E+03 0.  0.
         13    1    1    2    0    0  0.81638812000E+01 -0.93338628354E+01  0.65952556301E+02  0.67108276676E+02  0.10566000000E+00 0.  1.
        994    1    1    2    0    0 -0.93692541372E+01  0.60153102389E+01  0.15637690487E+01  0.17156879744E+03  0.17120000000E+03 0.  0.
        998    1    1    2    0    0  0.12053729373E+01  0.33185525965E+01  0.14324836709E+04  0.14325229259E+04  0.10000000000E+02 0.  1.
</event>
<event>
 5    1  0.1129619E-008  0.3713787E+03  0.7957747E-01  0.3489579E+00
         13   -1    0    0    0    0  0.00000000000E+00  0.00000000000E+00  0.14999999963E+04  0.15000000000E+04  0.10566000000E+00 0. -1.
        994   -1    0    0    0    0 -0.00000000000E+00 -0.00000000000E+00  0.11368683772E-12  0.17120000000E+03  0.17120000000E+03 0.  0.
         13    1    1    2    0    0  0.11023034669E+03  0.21551615496E+02  0.48618131848E+03  0.49898645980E+03  0.10566000000E+00 0. -1.
        994    1    1    2    0    0 -0.10900168684E+03 -0.23947552094E+02  0.52712929230E+02  0.21105199808E+03  0.17120000000E+03 0.  0.
        998    1    1    2    0    0 -0.12286598441E+01  0.23959365977E+01  0.96110574857E+03  0.96116154212E+03  0.10000000000E+02 0.  0.
</event>
<event>
 5    1  0.1129619E-008  0.3745656E+03  0.7957747E-01  0.3475168E+00
         13   -1    0    0    0    0  0.00000000000E+00  0.00000000000E+00  0.14999999963E+04  0.15000000000E+04  0.10566000000E+00 0. -1.
        994   -1    0    0    0    0 -0.00000000000E+00 -0.00000000000E+00  0.11368683772E-12  0.17120000000E+03  0.17120000000E+03 0.  0.
         13    1    1    2    0    0  0.26763359787E+02  0.11879612853E+03  0.60712102424E+03  0.61921300602E+03  0.10566000000E+00 0. -1.
        994    1    1    2    0    0 -0.59257238514E+02 -0.11458228042E+03  0.65845766969E+02  0.22424456366E+03  0.17120000000E+03 0.  0.
        998    1    1    2    0    0  0.32493878727E+02 -0.42138481058E+01  0.82703320507E+03  0.82774243032E+03  0.10000000000E+02 0. -1.
</event>
<event>
 5    1  0.1129619E-008  0.3778025E+03  0.7957747E-01  0.3460783E+00
         13   -1    0    0    0    0  0.00000000000E+00  0.00000000000E+00  0.14999999963E+04  0.15000000000E+04  0.10566000000E+00 0. -1.
        994   -1    0    0    0    0 -0.00000000000E+00 -0.00000000000E+00  0.11368683772E-12  0.17120000000E+03  0.17120000000E+03 0.  0.
         13    1    1    2    0    0  0.95693061351E+01 -0.29512768748E+01  0.71126353079E+01  0.12283419726E+02  0.10566000000E+00 0. -1.
        994    1    1    2    0    0 -0.10211667675E+02  0.26392168225E+01  0.56212421445E+01  0.17161667164E+03  0.17120000000E+03 0.  0.
        998    1    1    2    0    0  0.64236153958E+00  0.31206005236E+00  0.14872661188E+04  0.14872999086E+04  0.10000000000E+02 0. -1.
</event>
<event>
 5    1  0.1129619E-008  0.3774466E+03  0.7957747E-01  0.3462353E+00
         13   -1    0    0    0    0  0.00000000000E+00  0.00000000000E+00  0.14999999963E+04  0.15000000000E+04  0.10566000000E+00 0.  1.
        994   -1    0    0    0    0 -0.00000000000E+00 -0.00000000000E+00  0.11368683772E-12  0.17120000000E+03  0.17120000000E+03 0.  0.
         13    1    1    2    0    0 -0.59327429471E+02  0.49545970917E+02  0.39103529096E+03  0.39860150158E+03  0.10566000000E+00 0.  1.
        994    1    1    2    0    0  0.51680906610E+02 -0.64670772123E+02  0.28892667732E+02  0.19234721501E+03  0.17120000000E+03 0.  0.
        998    1    1    2    0    0  0.76465228610E+01  0.15124801206E+02  0.10800720376E+04  0.10802512834E+04  0.10000000000E+02 0. -1.
</event>
<event>
 5    1  0.1129619E-008  0.3728952E+03  0.7957747E-01  0.3482690E+00
         13   -1    0    0    0    0  0.00000000000E+00  0.00000000000E+00  0.14999999963E+04  0.15000000000E+04  0.10566000000E+00 0.  1.
        994   -1    0    0    0    0 -0.00000000000E+00 -0.00000000000E+00  0.11368683772E-12  0.17120000000E+03  0.17120000000E+03 0.  0.
         13    1    1    2    0    0 -0.13304282033E+01 -0.61426067846E+02  0.22265634221E+03  0.23097789881E+03  0.10566000000E+00 0.  1.
        994    1    1    2    0    0  0.15911923789E+01  0.48713539127E+02  0.15940340091E+02  0.17871506716E+03  0.17120000000E+03 0.  0.
        998    1    1    2    0    0 -0.26076417559E+00  0.12712528719E+02  0.12614033140E+04  0.12615070340E+04  0.10000000000E+02 0. -1.
</event>
<event>
 5    1  0.1129619E-008  0.3783192E+03  0.7957747E-01  0.3458510E+00
         13   -1    0    0    0    0  0.00000000000E+00  0.00000000000E+00  0.14999999963E+04  0.15000000000E+04  0.10566000000E+00 0. -1.
        994   -1    0    0    0    0 -0.00000000000E+00 -0.00000000000E+00  0.11368683772E-12  0.17120000000E+03  0.17120000000E+03 0.  0.
         13    1    1    2    0    0  0.21967830890E+02  0.10259109531E+03  0.62890295302E+03  0.63759427061E+03  0.10566000000E+00 0. -1.
        994    1    1    2    0    0 -0.31377049076E+02 -0.10025360178E+03  0.43024793111E+02  0.20541634964E+03  0.17120000000E+03 0.  0.
        998    1    1    2    0    0  0.94092181856E+01 -0.23374935321E+01  0.82807225014E+03  0.82818937975E+03  0.10000000000E+02 0. -1.
</event>
<event>
 5    1  0.1129619E-008  0.3825403E+03  0.7957747E-01  0.3440171E+00
         13   -1    0    0    0    0  0.00000000000E+00  0.00000000000E+00  0.14999999963E+04  0.15000000000E+04  0.10566000000E+00 0.  1.
        994   -1    0    0    0    0 -0.00000000000E+00 -0.00000000000E+00  0.11368683772E-12  0.17120000000E+03  0.17120000000E+03 0.  0.
         13    1    1    2    0    0  0.27315714405E+02 -0.33622593110E+01  0.14087345817E+03  0.14353673893E+03  0.10566000000E+00 0.  1.
        994    1    1    2    0    0 -0.89497889754E+01 -0.11041757904E+02  0.35262615311E+01  0.17182518343E+03  0.17120000000E+03 0.  0.
        998    1    1    2    0    0 -0.18365925430E+02  0.14404017215E+02  0.13556002766E+04  0.13558380776E+04  0.10000000000E+02 0.  1.
</event>
<event>
 5    1  0.1129619E-008  0.3804223E+03  0.7957747E-01  0.3449322E+00
         13   -1    0    0    0    0  0.00000000000E+00  0.00000000000E+00  0.14999999963E+04  0.15000000000E+04  0.10566000000E+00 0.  1.
        994   -1    0    0    0    0 -0.00000000000E+00 -0.00000000000E+00  0.11368683772E-12  0.17120000000E+03  0.17120000000E+03 0.  0.
         13    1    1    2    0    0 -0.73096621133E+01 -0.17635773679E+02  0.42441874693E+02  0.46537893860E+02  0.10566000000E+00 0.  1.
        994    1    1    2    0    0  0.15955291757E+02  0.24858929782E+02  0.68383683603E+01  0.17386414526E+03  0.17120000000E+03 0.  0.
        998    1    1    2    0    0 -0.86456296441E+01 -0.72231561035E+01  0.14507197532E+04  0.14507979609E+04  0.10000000000E+02 0.  1.
</event>
<event>
 5    1  0.1129619E-008  0.3842503E+03  0.7957747E-01  0.3432858E+00
         13   -1    0    0    0    0  0.00000000000E+00  0.00000000000E+00  0.14999999963E+04  0.15000000000E+04  0.10566000000E+00 0.  1.
        994   -1    0    0    0    0 -0.00000000000E+00 -0.00000000000E+00  0.11368683772E-12  0.17120000000E+03  0.17120000000E+03 0.  0.
         13    1    1    2    0    0 -0.17774918844E+01  0.19344434863E+02  0.91527769627E+02  0.93566609506E+02  0.10566000000E+00 0.  1.
        994    1    1    2    0    0  0.19453079365E+01 -0.15964208095E+02  0.28559114823E+01  0.17197742990E+03  0.17120000000E+03 0.  0.
        998    1    1    2    0    0 -0.16781605209E+00 -0.33802267682E+01  0.14056163152E+04  0.14056559606E+04  0.10000000000E+02 0.  1.
</event>
<event>
 5    1  0.1129619E-008  0.3829617E+03  0.7957747E-01  0.3438363E+00
         13   -1    0    0    0    0  0.00000000000E+00  0.00000000000E+00  0.14999999963E+04  0.15000000000E+04  0.10566000000E+00 0.  1.
        994   -1    0    0    0    0 -0.00000000000E+00 -0.00000000000E+00  0.11368683772E-12  0.17120000000E+03  0.17120000000E+03 0.  0.
         13    1    1    2    0    0 -0.10637679124E+02 -0.91427324344E+01  0.35517789852E+02  0.38187358295E+02  0.10566000000E+00 0.  1.
        994    1    1    2    0    0  0.97153804385E+01  0.12148663285E+02  0.34469859174E+01  0.17193981607E+03  0.17120000000E+03 0.  0.
        998    1    1    2    0    0  0.92229868587E+00 -0.30059308504E+01  0.14610352205E+04  0.14610728256E+04  0.10000000000E+02 0.  1.
</event>
<event>
 5    1  0.1129619E-008  0.3834343E+03  0.7957747E-01  0.3436340E+00
         13   -1    0    0    0    0  0.00000000000E+00  0.00000000000E+00  0.14999999963E+04  0.15000000000E+04  0.10566000000E+00 0.  1.
        994   -1    0    0    0    0 -0.00000000000E+00 -0.00000000000E+00  0.11368683772E-12  0.17120000000E+03  0.17120000000E+03 0.  0.
         13    1    1    2    0    0  0.18970428407E+01 -0.26131660923E+02  0.13007677233E+03  0.13268926233E+03  0.10566000000E+00 0.  1.
        994    1    1    2    0    0  0.17644415780E+01  0.27762048996E+02  0.49715748409E+01  0.17351657320E+03  0.17120000000E+03 0.  0.
        998    1    1    2    0    0 -0.36614844186E+01 -0.16303880730E+01  0.13649516491E+04  0.13649941645E+04  0.10000000000E+02 0.  1.
</event>
<event>
 5    1  0.1129619E-008  0.3693918E+03  0.7957747E-01  0.3498691E+00
         13   -1    0    0    0    0  0.00000000000E+00  0.00000000000E+00  0.14999999963E+04  0.15000000000E+04  0.10566000000E+00 0.  1.
        994   -1    0    0    0    0 -0.00000000000E+00 -0.00000000000E+00  0.11368683772E-12  0.17120000000E+03  0.17120000000E+03 0.  0.
         13    1    1    2    0    0  0.34351848461E+02  0.18326157407E+02  0.69743164768E+02  0.79875013201E+02  0.10566000000E+00 0.  1.
        994    1    1    2    0    0 -0.36044962278E+02  0.36612725656E+02  0.19883773965E+02  0.17984586582E+03  0.17120000000E+03 0.  0.
        998    1    1    2    0    0  0.16931138174E+01 -0.54938883064E+02  0.14103730575E+04  0.14114791210E+04  0.10000000000E+02 0.  1.
</event>
<event>
 5    1  0.1129619E-008  0.3708013E+03  0.7957747E-01  0.3492216E+00
         13   -1    0    0    0    0  0.00000000000E+00  0.00000000000E+00  0.14999999963E+04  0.15000000000E+04  0.10566000000E+00 0. -1.
        994   -1    0    0    0    0 -0.00000000000E+00 -0.00000000000E+00  0.11368683772E-12  0.17120000000E+03  0.17120000000E+03 0.  0.
         13    1    1    2    0    0 -0.99545468239E+01  0.25362643079E+02  0.36449738100E+02  0.45507705260E+02  0.10566000000E+00 0. -1.
        994    1    1    2    0    0  0.12288338191E+02 -0.35909673678E+02  0.13834180752E+02  0.17590148514E+03  0.17120000000E+03 0.  0.
        998    1    1    2    0    0 -0.23337913675E+01  0.10547030599E+02  0.14497160774E+04  0.14497908096E+04  0.10000000000E+02 0. -1.
</event>
<event>
 5    1  0.1129619E-008  0.3838589E+03  0.7957747E-01  0.3434526E+00
         13   -1    0    0    0    0  0.00000000000E+00  0.00000000000E+00  0.14999999963E+04  0.15000000000E+04  0.10566000000E+00 0.  1.
        994   -1    0    0    0    0 -0.00000000000E+00 -0.00000000000E+00  0.11368683772E-12  0.17120000000E+03  0.17120000000E+03 0.  0.
         13    1    1    2    0    0  0.53475146626E+01 -0.12324311009E+02  0.40602101490E+02  0.42767117793E+02  0.10566000000E+00 0.  1.
        994    1    1    2    0    0  0.14775293239E+01  0.98792641236E+01  0.25271644788E+01  0.17150979422E+03  0.17120000000E+03 0.  0.
        998    1    1    2    0    0 -0.68250439865E+01  0.24450468854E+01  0.14568707303E+04  0.14569230880E+04  0.10000000000E+02 0.  1.
</event>
<event>
 5    1  0.1129619E-008  0.3781965E+03  0.7957747E-01  0.3459049E+00
         13   -1    0    0    0    0  0.00000000000E+00  0.00000000000E+00  0.14999999963E+04  0.15000000000E+04  0.10566000000E+00 0. -1.
        994   -1    0    0    0    0 -0.00000000000E+00 -0.00000000000E+00  0.11368683772E-12  0.17120000000E+03  0.17120000000E+03 0.  0.
         13    1    1    2    0    0  0.33463692018E+02 -0.15012918279E+02  0.15829940202E+03  0.16249282521E+03  0.10566000000E+00 0. -1.
        994    1    1    2    0    0  0.18196225836E+01 -0.16390829655E+02  0.59614826246E+01  0.17209575706E+03  0.17120000000E+03 0.  0.
        998    1    1    2    0    0 -0.35283314601E+02  0.31403747934E+02  0.13357391116E+04  0.13366114177E+04  0.10000000000E+02 0. -1.
</event>
<event>
 5    1  0.1129619E-008  0.3733698E+03  0.7957747E-01  0.3480546E+00
         13   -1    0    0    0    0  0.00000000000E+00  0.00000000000E+00  0.14999999963E+04  0.15000000000E+04  0.10566000000E+00 0.  1.
        994   -1    0    0    0    0 -0.00000000000E+00 -0.00000000000E+00  0.11368683772E-12  0.17120000000E+03  0.17120000000E+03 0.  0.
         13    1    1    2    0    0  0.16828372267E+02  0.17738882765E+01  0.15674071446E+02  0.23065742401E+02  0.10566000000E+00 0.  1.
        994    1    1    2    0    0 -0.15363571087E+02  0.77441413512E+01  0.85306522013E+01  0.17227368652E+03  0.17120000000E+03 0.  0.
        998    1    1    2    0    0 -0.14648011806E+01 -0.95180296277E+01  0.14757952726E+04  0.14758605711E+04  0.10000000000E+02 0.  1.
</event>
<event>
 5    1  0.1129619E-008  0.3785518E+03  0.7957747E-01  0.3457489E+00
         13   -1    0    0    0    0  0.00000000000E+00  0.00000000000E+00  0.14999999963E+04  0.15000000000E+04  0.10566000000E+00 0. -1.
        994   -1    0    0    0    0 -0.00000000000E+00 -0.00000000000E+00  0.11368683772E-12  0.17120000000E+03  0.17120000000E+03 0.  0.
         13    1    1    2    0    0 -0.18115992892E+02 -0.44684639889E+01  0.32964940408E+02  0.37879477676E+02  0.10566000000E+00 0. -1.
        994    1    1    2    0    0  0.20903040642E+02  0.35529651256E+01  0.63775295731E+01  0.17262581948E+03  0.17120000000E+03 0.  0.
        998    1    1    2    0    0 -0.27870477505E+01  0.91549886329E+00  0.14606575263E+04  0.14606947028E+04  0.10000000000E+02 0. -1.
</event>
<event>
 5    1  0.1129619E-008  0.3750954E+03  0.7957747E-01  0.3472796E+00
         13   -1    0    0    0    0  0.00000000000E+00  0.00000000000E+00  0.14999999963E+04  0.15000000000E+04  0.10566000000E+00 0. -1.
        994   -1    0    0    0    0 -0.00000000000E+00 -0.00000000000E+00  0.11368683772E-12  0.17120000000E+03  0.17120000000E+03 0.  0.
         13    1    1    2    0    0 -0.10591165669E+02  0.55947189568E+02  0.21000412439E+03  0.21758677403E+03  0.10566000000E+00 0. -1.
        994    1    1    2    0    0  0.46485175204E+01 -0.56693034941E+02  0.17705551818E+02  0.18126951065E+03  0.17120000000E+03 0.  0.
        998    1    1    2    0    0  0.59426481487E+01  0.74584537378E+00  0.12722903201E+04  0.12723437153E+04  0.10000000000E+02 0. -1.
</event>
<event>
 5    1  0.1129619E-008  0.3839219E+03  0.7957747E-01  0.3434257E+00
         13   -1    0    0    0    0  0.00000000000E+00  0.00000000000E+00  0.14999999963E+04  0.15000000000E+04  0.10566000000E+00 0.  1.
        994   -1    0    0    0    0 -0.00000000000E+00 -0.00000000000E+00  0.11368683772E-12  0.17120000000E+03  0.17120000000E+03 0.  0.
         13    1    1    2    0    0  0.43290634111E+01 -0.16838131999E+02  0.67074286738E+02  0.69290941577E+02  0.10566000000E+00 0.  1.
        994    1    1    2    0    0 -0.67062010975E+01  0.15946734946E+02  0.31546104517E+01  0.17210073520E+03  0.17120000000E+03 0.  0.
        998    1    1    2    0    0  0.23771376863E+01  0.89139705279E+00  0.14297710991E+04  0.14298083232E+04  0.10000000000E+02 0.  1.
</event>
<event>
 5    1  0.1129619E-008  0.3785378E+03  0.7957747E-01  0.3457550E+00
         13   -1    0    0    0    0  0.00000000000E+00  0.00000000000E+00  0.14999999963E+04  0.15000000000E+04  0.10566000000E+00 0. -1.
        994   -1    0    0    0    0 -0.00000000000E+00 -0.00000000000E+00  0.11368683772E-12  0.17120000000E+03  0.17120000000E+03 0.  0.
         13    1    1    2    0    0 -0.10300613513E+02  0.33028342310E+02  0.13222163386E+03  0.13667313437E+03  0.10566000000E+00 0. -1.
        994    1    1    2    0    0  0.68823768785E+01 -0.30063978514E+01  0.50625516049E+01  0.17143942070E+03  0.17120000000E+03 0.  0.
        998    1    1    2    0    0  0.34182366343E+01 -0.30021944459E+02  0.13627158108E+04  0.13630874449E+04  0.10000000000E+02 0. -1.
</event>
<event>
 5    1  0.1129619E-008  0.3694785E+03  0.7957747E-01  0.3498291E+00
         13   -1    0    0    0    0  0.00000000000E+00  0.00000000000E+00  0.14999999963E+04  0.15000000000E+04  0.10566000000E+00 0. -1.
        994   -1    0    0    0    0 -0.00000000000E+00 -0.00000000000E+00  0.11368683772E-12  0.17120000000E+03  0.17120000000E+03 0.  0.
         13    1    1    2    0    0 -0.85794333659E+01  0.15808418014E+03  0.70131477161E+03  0.71896219284E+03  0.10566000000E+00 0. -1.
        994    1    1    2    0    0 -0.20282948748E+02 -0.14498345458E+03  0.89678714313E+02  0.24245270036E+03  0.17120000000E+03 0.  0.
        998    1    1    2    0    0  0.28862382114E+02 -0.13100725556E+02  0.70900651035E+03  0.70978510680E+03  0.10000000000E+02 0.  1.
</event>
<event>
 5    1  0.1129619E-008  0.3737238E+03  0.7957747E-01  0.3478950E+00
         13   -1    0    0    0    0  0.00000000000E+00  0.00000000000E+00  0.14999999963E+04  0.15000000000E+04  0.10566000000E+00 0. -1.
        994   -1    0    0    0    0 -0.00000000000E+00 -0.00000000000E+00  0.11368683772E-12  0.17120000000E+03  0.17120000000E+03 0.  0.
         13    1    1    2    0    0  0.15638746342E+02  0.11029882991E+03  0.53433803975E+03  0.54582740327E+03  0.10566000000E+00 0. -1.
        994    1    1    2    0    0 -0.20269824795E+02 -0.10842610305E+03  0.50083272458E+02  0.20972567749E+03  0.17120000000E+03 0.  0.
        998    1    1    2    0    0  0.46310784535E+01 -0.18727268546E+01  0.91557868407E+03  0.91564691924E+03  0.10000000000E+02 0. -1.
</event>
<event>
 5    1  0.1129619E-008  0.3781481E+03  0.7957747E-01  0.3459262E+00
         13   -1    0    0    0    0  0.00000000000E+00  0.00000000000E+00  0.14999999963E+04  0.15000000000E+04  0.10566000000E+00 0.  1.
        994   -1    0    0    0    0 -0.00000000000E+00 -0.00000000000E+00  0.11368683772E-12  0.17120000000E+03  0.17120000000E+03 0.  0.
         13    1    1    2    0    0 -0.78449198634E+01 -0.16685463137E+02  0.33089502592E+02  0.37879728003E+02  0.10566000000E+00 0.  1.
        994    1    1    2    0    0  0.17367034146E+02 -0.13081300762E+02  0.66625438485E+01  0.17270368784E+03  0.17120000000E+03 0.  0.
        998    1    1    2    0    0 -0.95221142826E+01  0.29766763899E+02  0.14602479498E+04  0.14606165842E+04  0.10000000000E+02 0.  1.
</event>
<event>
 5    1  0.1129619E-008  0.3854228E+03  0.7957747E-01  0.3427881E+00
         13   -1    0    0    0    0  0.00000000000E+00  0.00000000000E+00  0.14999999963E+04  0.15000000000E+04  0.10566000000E+00 0. -1.
        994   -1    0    0    0    0 -0.00000000000E+00 -0.00000000000E+00  0.11368683772E-12  0.17120000000E+03  0.17120000000E+03 0.  0.
         13    1    1    2    0    0  0.32880020612E+01 -0.11755421609E+02  0.57044042351E+02  0.58335536567E+02  0.10566000000E+00 0. -1.
        994    1    1    2    0    0  0.12521195620E+02 -0.78114304244E+00  0.19374164036E+01  0.17166998604E+03  0.17120000000E+03 0.  0.
        998    1    1    2    0    0 -0.15809197681E+02  0.12536564651E+02  0.14410185375E+04  0.14411944774E+04  0.10000000000E+02 0. -1.
</event>
<event>
 5    1  0.1129619E-008  0.3784409E+03  0.7957747E-01  0.3457975E+00
         13   -1    0    0    0    0  0.00000000000E+00  0.00000000000E+00  0.14999999963E+04  0.15000000000E+04  0.10566000000E+00 0.  1.
        994   -1    0    0    0    0 -0.00000000000E+00 -0.00000000000E+00  0.11368683772E-12  0.17120000000E+03  0.17120000000E+03 0.  0.
         13    1    1    2    0    0 -0.25420555389E+02 -0.29592198445E+02  0.14253765457E+03  0.14777989369E+03  0.10566000000E+00 0.  1.
        994    1    1    2    0    0  0.23277625763E+02  0.26676527105E+02  0.91457925448E+01  0.17506161910E+03  0.17120000000E+03 0.  0.
        998    1    1    2    0    0  0.21429296257E+01  0.29156713399E+01  0.13483165492E+04  0.13483584872E+04  0.10000000000E+02 0.  1.
</event>
<event>
 5    1  0.1129619E-008  0.3830816E+03  0.7957747E-01  0.3437849E+00
         13   -1    0    0    0    0  0.00000000000E+00  0.00000000000E+00  0.14999999963E+04  0.15000000000E+04  0.10566000000E+00 0. -1.
        994   -1    0    0    0    0 -0.00000000000E+00 -0.00000000000E+00  0.11368683772E-12  0.17120000000E+03  0.17120000000E+03 0.  0.
         13    1    1    2    0    0 -0.20416979223E+02 -0.89952478708E+00  0.77988747050E+02  0.80622069037E+02  0.10566000000E+00 0. -1.
        994    1    1    2    0    0  0.18344605640E+02 -0.12358647960E+02  0.42063272858E+01  0.17267424222E+03  0.17120000000E+03 0.  0.
        998    1    1    2    0    0  0.20723735829E+01  0.13258172747E+02  0.14178049219E+04  0.14179036887E+04  0.10000000000E+02 0. -1.
</event>
<event>
 5    1  0.1129619E-008  0.3783206E+03  0.7957747E-01  0.3458504E+00
         13   -1    0    0    0    0  0.00000000000E+00  0.00000000000E+00  0.14999999963E+04  0.15000000000E+04  0.10566000000E+00 0.  1.
        994   -1    0    0    0    0 -0.00000000000E+00 -0.00000000000E+00  0.11368683772E-12  0.17120000000E+03  0.17120000000E+03 0.  0.
         13    1    1    2    0    0 -0.27693634113E+02  0.39559851858E+01  0.73041913840E+02  0.78215852169E+02  0.10566000000E+00 0.  1.
        994    1    1    2    0    0  0.28725787443E+02 -0.71476332633E+01  0.79345432279E+01  0.17392140898E+03  0.17120000000E+03 0.  0.
        998    1    1    2    0    0 -0.10321533305E+01  0.31916480775E+01  0.14190235392E+04  0.14190627389E+04  0.10000000000E+02 0.  1.
</event>
<event>
 5    1  0.1129619E-008  0.3792898E+03  0.7957747E-01  0.3454257E+00
         13   -1    0    0    0    0  0.00000000000E+00  0.00000000000E+00  0.14999999963E+04  0.15000000000E+04  0.10566000000E+00 0. -1.
        994   -1    0    0    0    0 -0.00000000000E+00 -0.00000000000E+00  0.11368683772E-12  0.17120000000E+03  0.17120000000E+03 0.  0.
         13    1    1    2    0    0 -0.68550274501E+02  0.71556925371E+02  0.28935426459E+03  0.30585198267E+03  0.10566000000E+00 0. -1.
        994    1    1    2    0    0  0.60257746128E+02 -0.37078293036E+02  0.34259717996E+02  0.18838514819E+03  0.17120000000E+03 0.  0.
        998    1    1    2    0    0  0.82925283727E+01 -0.34478632335E+02  0.11763860137E+04  0.11769628691E+04  0.10000000000E+02 0. -1.
</event>
<event>
 5    1  0.1129619E-008  0.3843669E+03  0.7957747E-01  0.3432362E+00
         13   -1    0    0    0    0  0.00000000000E+00  0.00000000000E+00  0.14999999963E+04  0.15000000000E+04  0.10566000000E+00 0. -1.
        994   -1    0    0    0    0 -0.00000000000E+00 -0.00000000000E+00  0.11368683772E-12  0.17120000000E+03  0.17120000000E+03 0.  0.
         13    1    1    2    0    0  0.22802570008E+02 -0.44952131744E+01  0.13967586178E+03  0.14159633353E+03  0.10566000000E+00 0. -1.
        994    1    1    2    0    0 -0.15562694308E+02 -0.87984466608E+01  0.29987360891E+01  0.17215702871E+03  0.17120000000E+03 0.  0.
        998    1    1    2    0    0 -0.72398756998E+01  0.13293659835E+02  0.13573253984E+04  0.13574466378E+04  0.10000000000E+02 0. -1.
</event>
<event>
 5    1  0.1129619E-008  0.3841029E+03  0.7957747E-01  0.3433486E+00
         13   -1    0    0    0    0  0.00000000000E+00  0.00000000000E+00  0.14999999963E+04  0.15000000000E+04  0.10566000000E+00 0.  1.
        994   -1    0    0    0    0 -0.00000000000E+00 -0.00000000000E+00  0.11368683772E-12  0.17120000000E+03  0.17120000000E+03 0.  0.
         13    1    1    2    0    0 -0.91628840578E+00  0.12459387837E+02  0.36527275649E+02  0.38604778980E+02  0.10566000000E+00 0.  1.
        994    1    1    2    0    0  0.22078435319E+01 -0.11818505339E+02  0.25530772834E+01  0.17164064159E+03  0.17120000000E+03 0.  0.
        998    1    1    2    0    0 -0.12915551262E+01 -0.64088249853E+00  0.14609196433E+04  0.14609545794E+04  0.10000000000E+02 0.  1.
</event>
<event>
 5    1  0.1129619E-008  0.3798320E+03  0.7957747E-01  0.3451890E+00
         13   -1    0    0    0    0  0.00000000000E+00  0.00000000000E+00  0.14999999963E+04  0.15000000000E+04  0.10566000000E+00 0. -1.
        994   -1    0    0    0    0 -0.00000000000E+00 -0.00000000000E+00  0.11368683772E-12  0.17120000000E+03  0.17120000000E+03 0.  0.
         13    1    1    2    0    0  0.98577625678E+02  0.20021471569E+02  0.44498720876E+03  0.45621489973E+03  0.10566000000E+00 0. -1.
        994    1    1    2    0    0 -0.10299013086E+02  0.13991411248E+02  0.17328809719E+02  0.17294957908E+03  0.17120000000E+03 0.  0.
        998    1    1    2    0    0 -0.88278612592E+02 -0.34012882817E+02  0.10376839778E+04  0.10420355212E+04  0.10000000000E+02 0. -1.
</event>
<event>
 5    1  0.1129619E-008  0.3684953E+03  0.7957747E-01  0.3502835E+00
         13   -1    0    0    0    0  0.00000000000E+00  0.00000000000E+00  0.14999999963E+04  0.15000000000E+04  0.10566000000E+00 0.  1.
        994   -1    0    0    0    0 -0.00000000000E+00 -0.00000000000E+00  0.11368683772E-12  0.17120000000E+03  0.17120000000E+03 0.  0.
         13    1    1    2    0    0 -0.11534510184E+01  0.32575893205E+02  0.46516774944E+02  0.56800887164E+02  0.10566000000E+00 0.  1.
        994    1    1    2    0    0 -0.13420250704E+02 -0.37026550738E+02  0.15558873891E+02  0.17635925591E+03  0.17120000000E+03 0.  0.
        998    1    1    2    0    0  0.14573701722E+02  0.44506575325E+01  0.14379243474E+04  0.14380398569E+04  0.10000000000E+02 0.  1.
</event>
<event>
 5    1  0.1129619E-008  0.3814064E+03  0.7957747E-01  0.3445058E+00
         13   -1    0    0    0    0  0.00000000000E+00  0.00000000000E+00  0.14999999963E+04  0.15000000000E+04  0.10566000000E+00 0.  1.
        994   -1    0    0    0    0 -0.00000000000E+00 -0.00000000000E+00  0.11368683772E-12  0.17120000000E+03  0.17120000000E+03 0.  0.
         13    1    1    2    0    0 -0.32252831981E+01 -0.30799007345E+02  0.12811498246E+03  0.13180455682E+03  0.10566000000E+00 0.  1.
        994    1    1    2    0    0  0.24288078643E+01  0.31262706161E+02  0.67035230409E+01  0.17417701664E+03  0.17120000000E+03 0.  0.
        998    1    1    2    0    0  0.79647533375E+00 -0.46369881620E+00  0.13651814908E+04  0.13652184265E+04  0.10000000000E+02 0.  1.
</event>
<event>
 5    1  0.1129619E-008  0.3831632E+03  0.7957747E-01  0.3437500E+00
         13   -1    0    0    0    0  0.00000000000E+00  0.00000000000E+00  0.14999999963E+04  0.15000000000E+04  0.10566000000E+00 0.  1.
        994   -1    0    0    0    0 -0.00000000000E+00 -0.00000000000E+00  0.11368683772E-12  0.17120000000E+03  0.17120000000E+03 0.  0.
         13    1    1    2    0    0 -0.15397047414E+02  0.68796389186E+01  0.54253775371E+02  0.56814450687E+02  0.10566000000E+00 0.  1.
        994    1    1    2    0    0  0.12423761920E+02 -0.77546831924E+01  0.32547611075E+01  0.17185609806E+03  0.17120000000E+03 0.  0.
        998    1    1    2    0    0  0.29732854944E+01  0.87504427388E+00  0.14424914598E+04  0.14425294513E+04  0.10000000000E+02 0.  1.
</event>
<event>
 5    1  0.1129619E-008  0.3759596E+03  0.7957747E-01  0.3468942E+00
         13   -1    0    0    0    0  0.00000000000E+00  0.00000000000E+00  0.14999999963E+04  0.15000000000E+04  0.10566000000E+00 0.  1.
        994   -1    0    0    0    0 -0.00000000000E+00 -0.00000000000E+00  0.11368683772E-12  0.17120000000E+03  0.17120000000E+03 0.  0.
         13    1    1    2    0    0 -0.67572191716E+02  0.28614913718E+02  0.34095583573E+03  0.34876311081E+03  0.10566000000E+00 0.  1.
        994    1    1    2    0    0  0.66884050285E+02 -0.24620452454E+02  0.23596735518E+02  0.18693819510E+03  0.17120000000E+03 0.  0.
        998    1    1    2    0    0  0.68814143120E+00 -0.39944612640E+01  0.11354474250E+04  0.11354986941E+04  0.10000000000E+02 0.  1.
</event>
<event>
 5    1  0.1129619E-008  0.3797043E+03  0.7957747E-01  0.3452447E+00
         13   -1    0    0    0    0  0.00000000000E+00  0.00000000000E+00  0.14999999963E+04  0.15000000000E+04  0.10566000000E+00 0. -1.
        994   -1    0    0    0    0 -0.00000000000E+00 -0.00000000000E+00  0.11368683772E-12  0.17120000000E+03  0.17120000000E+03 0.  0.
         13    1    1    2    0    0 -0.39848260761E+02  0.72912868547E+01  0.24381720092E+03  0.24715963542E+03  0.10566000000E+00 0. -1.
        994    1    1    2    0    0 -0.70758613474E+01 -0.67637597699E+01  0.46031726818E+01  0.17154138118E+03  0.17120000000E+03 0.  0.
        998    1    1    2    0    0  0.46924122108E+02 -0.52752708476E+00  0.12515796227E+04  0.12524989834E+04  0.10000000000E+02 0. -1.
</event>
<event>
 5    1  0.1129619E-008  0.3861368E+03  0.7957747E-01  0.3424865E+00
         13   -1    0    0    0    0  0.00000000000E+00  0.00000000000E+00  0.14999999963E+04  0.15000000000E+04  0.10566000000E+00 0. -1.
        994   -1    0    0    0    0 -0.00000000000E+00 -0.00000000000E+00  0.11368683772E-12  0.17120000000E+03  0.17120000000E+03 0.  0.
         13    1    1    2    0    0 -0.39879095416E+01  0.98394164395E+01  0.61053649808E+02  0.61969967382E+02  0.10566000000E+00 0. -1.
        994    1    1    2    0    0 -0.15658715589E+01  0.98804958060E+01  0.13947692211E+01  0.17149770124E+03  0.17120000000E+03 0.  0.
        998    1    1    2    0    0  0.55537811005E+01 -0.19719912246E+02  0.14375515772E+04  0.14377323314E+04  0.10000000000E+02 0. -1.
</event>
<event>
 5    1  0.1129619E-008  0.3843527E+03  0.7957747E-01  0.3432422E+00
         13   -1    0    0    0    0  0.00000000000E+00  0.00000000000E+00  0.14999999963E+04  0.15000000000E+04  0.10566000000E+00 0. -1.
        994   -1    0    0    0    0 -0.00000000000E+00 -0.00000000000E+00  0.11368683772E-12  0.17120000000E+03  0.17120000000E+03 0.  0.
         13    1    1    2    0    0 -0.15985126338E+02  0.81553204517E+01  0.70750613259E+02  0.72991053947E+02  0.10566000000E+00 0. -1.
        994    1    1    2    0    0  0.31820565486E+02 -0.18850690802E+02  0.64729321927E+01  0.17526903829E+03  0.17120000000E+03 0.  0.
        998    1    1    2    0    0 -0.15835439148E+02  0.10695370351E+02  0.14227764508E+04  0.14229399078E+04  0.10000000000E+02 0. -1.
</event>
<event>
 5    1  0.1129619E-008  0.3842461E+03  0.7957747E-01  0.3432876E+00
         13   -1    0    0    0    0  0.00000000000E+00  0.00000000000E+00  0.14999999963E+04  0.15000000000E+04  0.10566000000E+00 0.  1.
        994   -1    0    0    0    0 -0.00000000000E+00 -0.00000000000E+00  0.11368683772E-12  0.17120000000E+03  0.17120000000E+03 0.  0.
         13    1    1    2    0    0  0.84806181696E+01  0.76016104321E+01  0.31243983906E+02  0.33255120810E+02  0.10566000000E+00 0.  1.
        994    1    1    2    0    0 -0.79777667415E+01 -0.97718330740E+01  0.25296942647E+01  0.17168276803E+03  0.17120000000E+03 0.  0.
        998    1    1    2    0    0 -0.50285142802E+00  0.21702226419E+01  0.14662263181E+04  0.14662621112E+04  0.10000000000E+02 0.  1.
</event>
<event>
 5    1  0.1129619E-008  0.3851555E+03  0.7957747E-01  0.3429013E+00
         13   -1    0    0    0    0  0.00000000000E+00  0.00000000000E+00  0.14999999963E+04  0.15000000000E+04  0.10566000000E+00 0.  1.
        994   -1    0    0    0    0 -0.00000000000E+00 -0.00000000000E+00  0.11368683772E-12  0.17120000000E+03  0.17120000000E+03 0.  0.
         13    1    1    2    0    0  0.65679000064E+01  0.96125777706E+01  0.54503388620E+02  0.55733019808E+02  0.10566000000E+00 0.  1.
        994    1    1    2    0    0  0.11863550382E+02  0.25909116417E+02  0.42266149237E+01  0.17360682710E+03  0.17120000000E+03 0.  0.
        998    1    1    2    0    0 -0.18431450388E+02 -0.35521694188E+02  0.14412699927E+04  0.14418601531E+04  0.10000000000E+02 0.  1.
</event>
<event>
 5    1  0.1129619E-008  0.3791905E+03  0.7957747E-01  0.3454691E+00
         13   -1    0    0    0    0  0.00000000000E+00  0.00000000000E+00  0.14999999963E+04  0.15000000000E+04  0.10566000000E+00 0. -1.
        994   -1    0    0    0    0 -0.00000000000E+00 -0.00000000000E+00  0.11368683772E-12  0.17120000000E+03  0.17120000000E+03 0.  0.
         13    1    1    2    0    0  0.27907920164E+02 -0.14849931442E+02  0.12346597013E+03  0.12744892865E+03  0.10566000000E+00 0. -1.
        994    1    1    2    0    0 -0.17887031050E+02 -0.38946031591E+02  0.10723601235E+02  0.17680829980E+03  0.17120000000E+03 0.  0.
        998    1    1    2    0    0 -0.10020889113E+02  0.53795963033E+02  0.13658104249E+04  0.13669427715E+04  0.10000000000E+02 0. -1.
</event>
<event>
 5    1  0.1129619E-008  0.3794764E+03  0.7957747E-01  0.3453441E+00
         13   -1    0    0    0    0  0.00000000000E+00  0.00000000000E+00  0.14999999963E+04  0.15000000000E+04  0.10566000000E+00 0. -1.
        994   -1    0    0    0    0 -0.00000000000E+00 -0.00000000000E+00  0.11368683772E-12  0.17120000000E+03  0.17120000000E+03 0.  0.
         13    1    1    2    0    0 -0.26811035686E+02  0.26661087589E+02  0.18497749051E+03  0.18880235270E+03  0.10566000000E+00 0. -1.
        994    1    1    2    0    0  0.14616055107E+02  0.10757039207E+02  0.55013166972E+01  0.17224705352E+03  0.17120000000E+03 0.  0.
        998    1    1    2    0    0  0.12194980579E+02 -0.37418126796E+02  0.13095211891E+04  0.13101505938E+04  0.10000000000E+02 0. -1.
</event>
<event>
 5    1  0.1129619E-008  0.3743719E+03  0.7957747E-01  0.3476037E+00
         13   -1    0    0    0    0  0.00000000000E+00  0.00000000000E+00  0.14999999963E+04  0.15000000000E+04  0.10566000000E+00 0. -1.
        994   -1    0    0    0    0 -0.00000000000E+00 -0.00000000000E+00  0.11368683772E-12  0.17120000000E+03  0.17120000000E+03 0.  0.
         13    1    1    2    0    0  0.85757037177E+02 -0.39025930422E+02  0.26575087033E+03  0.28195891352E+03  0.10566000000E+00 0. -1.
        994    1    1    2    0    0 -0.89494493475E+02  0.37308709512E+02  0.47447870066E+02  0.20239057424E+03  0.17120000000E+03 0.  0.
        998    1    1    2    0    0  0.37374562981E+01  0.17172209102E+01  0.11868012559E+04  0.11868505122E+04  0.10000000000E+02 0. -1.
</event>
<event>
 5    1  0.1129619E-008  0.2390852E+03  0.7957747E-01  0.4457296E+00
         13   -1    0    0    0    0  0.00000000000E+00  0.00000000000E+00  0.14999999963E+04  0.15000000000E+04  0.10566000000E+00 0.  1.
        994   -1    0    0    0    0 -0.00000000000E+00 -0.00000000000E+00  0.11368683772E-12  0.17120000000E+03  0.17120000000E+03 0.  0.
         13    1    1    2    0    0 -0.66355263672E+02 -0.14820413630E+03  0.21457535873E+03  0.26909121645E+03  0.10566000000E+00 0.  1.
        994    1    1    2    0    0  0.59341200319E+02  0.15206150638E+03  0.18161277563E+03  0.29822260151E+03  0.17120000000E+03 0.  0.
        998    1    1    2    0    0  0.70140633526E+01 -0.38573700823E+01  0.11038118619E+04  0.11038861820E+04  0.10000000000E+02 0.  1.
</event>
<event>
 5    1  0.1129619E-008  0.3761423E+03  0.7957747E-01  0.3468130E+00
         13   -1    0    0    0    0  0.00000000000E+00  0.00000000000E+00  0.14999999963E+04  0.15000000000E+04  0.10566000000E+00 0.  1.
        994   -1    0    0    0    0 -0.00000000000E+00 -0.00000000000E+00  0.11368683772E-12  0.17120000000E+03  0.17120000000E+03 0.  0.
         13    1    1    2    0    0  0.47916234353E+01 -0.93981455614E+01  0.64037081651E+01  0.12341127884E+02  0.10566000000E+00 0.  1.
        994    1    1    2    0    0  0.75299074382E+01  0.73757401573E+01  0.64695933424E+01  0.17164613799E+03  0.17120000000E+03 0.  0.
        998    1    1    2    0    0 -0.12321530873E+02  0.20224054041E+01  0.14871266948E+04  0.14872127341E+04  0.10000000000E+02 0.  1.
</event>
<event>
 5    1  0.1129619E-008  0.3852191E+03  0.7957747E-01  0.3428743E+00
         13   -1    0    0    0    0  0.00000000000E+00  0.00000000000E+00  0.14999999963E+04  0.15000000000E+04  0.10566000000E+00 0.  1.
        994   -1    0    0    0    0 -0.00000000000E+00 -0.00000000000E+00  0.11368683772E-12  0.17120000000E+03  0.17120000000E+03 0.  0.
         13    1    1    2    0    0 -0.19636779656E+02 -0.79420485605E+01  0.10729410261E+03  0.10936505323E+03  0.10566000000E+00 0.  1.
        994    1    1    2    0    0  0.57091231460E+02  0.32571103456E+01  0.12342450421E+02  0.18091930124E+03  0.17120000000E+03 0.  0.
        998    1    1    2    0    0 -0.37454451804E+02  0.46849382149E+01  0.13803634433E+04  0.13809156455E+04  0.10000000000E+02 0.  1.
</event>
<event>
 5    1  0.1129619E-008  0.3727769E+03  0.7957747E-01  0.3483225E+00
         13   -1    0    0    0    0  0.00000000000E+00  0.00000000000E+00  0.14999999963E+04  0.15000000000E+04  0.10566000000E+00 0.  1.
        994   -1    0    0    0    0 -0.00000000000E+00 -0.00000000000E+00  0.11368683772E-12  0.17120000000E+03  0.17120000000E+03 0.  0.
         13    1    1    2    0    0 -0.29780379123E+02  0.26238972767E+02  0.93153709098E+02  0.10125699657E+03  0.10566000000E+00 0.  1.
        994    1    1    2    0    0  0.23587720485E+02 -0.29960564067E+02  0.12820982816E+02  0.17586311028E+03  0.17120000000E+03 0.  0.
        998    1    1    2    0    0  0.61926586376E+01  0.37215912996E+01  0.13940253044E+04  0.13940798931E+04  0.10000000000E+02 0.  1.
</event>
<event>
 5    1  0.1129619E-008  0.3810671E+03  0.7957747E-01  0.3446525E+00
         13   -1    0    0    0    0  0.00000000000E+00  0.00000000000E+00  0.14999999963E+04  0.15000000000E+04  0.10566000000E+00 0.  1.
        994   -1    0    0    0    0 -0.00000000000E+00 -0.00000000000E+00  0.11368683772E-12  0.17120000000E+03  0.17120000000E+03 0.  0.
         13    1    1    2    0    0  0.19715750269E+02 -0.44785240725E+01  0.54565370971E+02  0.58190711113E+02  0.10566000000E+00 0.  1.
        994    1    1    2    0    0 -0.20410024638E+02 -0.10362407179E+02  0.53427490548E+01  0.17280605764E+03  0.17120000000E+03 0.  0.
        998    1    1    2    0    0  0.69427436890E+00  0.14840931252E+02  0.14400918763E+04  0.14402032313E+04  0.10000000000E+02 0.  1.
</event>
<event>
 5    1  0.1129619E-008  0.4177195E+03  0.7957747E-01  0.3301749E+00
         13   -1    0    0    0    0  0.00000000000E+00  0.00000000000E+00  0.14999999963E+04  0.15000000000E+04  0.10566000000E+00 0.  1.
        994   -1    0    0    0    0 -0.00000000000E+00 -0.00000000000E+00  0.11368683772E-12  0.17120000000E+03  0.17120000000E+03 0.  0.
         13    1    1    2    0    0 -0.89703765440E+02  0.99180261212E+02  0.18536796457E+03  0.22857117754E+03  0.10566000000E+00 0.  1.
        994    1    1    2    0    0  0.86103728327E+02 -0.10739841676E+03  0.12466269876E+03  0.25258365034E+03  0.17120000000E+03 0.  0.
        998    1    1    2    0    0  0.36000371132E+01  0.82181555476E+01  0.11899693329E+04  0.11900451721E+04  0.10000000000E+02 0.  1.
</event>
<event>
 5    1  0.1129619E-008  0.3793643E+03  0.7957747E-01  0.3453931E+00
         13   -1    0    0    0    0  0.00000000000E+00  0.00000000000E+00  0.14999999963E+04  0.15000000000E+04  0.10566000000E+00 0.  1.
        994   -1    0    0    0    0 -0.00000000000E+00 -0.00000000000E+00  0.11368683772E-12  0.17120000000E+03  0.17120000000E+03 0.  0.
         13    1    1    2    0    0  0.87136156710E+02 -0.66494167428E+02  0.63452564994E+03  0.64392312872E+03  0.10566000000E+00 0.  1.
        994    1    1    2    0    0 -0.90748915553E+02  0.79750145419E+02  0.55011645636E+02  0.21663603699E+03  0.17120000000E+03 0.  0.
        998    1    1    2    0    0  0.36127588437E+01 -0.13255977990E+02  0.81046270070E+03  0.81064083428E+03  0.10000000000E+02 0.  1.
</event>
<event>
 5    1  0.1129619E-008  0.3742355E+03  0.7957747E-01  0.3476649E+00
         13   -1    0    0    0    0  0.00000000000E+00  0.00000000000E+00  0.14999999963E+04  0.15000000000E+04  0.10566000000E+00 0. -1.
        994   -1    0    0    0    0 -0.00000000000E+00 -0.00000000000E+00  0.11368683772E-12  0.17120000000E+03  0.17120000000E+03 0.  0.
         13    1    1    2    0    0 -0.70561343316E+02 -0.20207032377E+01  0.29702557787E+03  0.30529852847E+03  0.10566000000E+00 0. -1.
        994    1    1    2    0    0  0.63258538923E+02  0.24827701442E+01  0.20855618004E+02  0.18371772831E+03  0.17120000000E+03 0.  0.
        998    1    1    2    0    0  0.73028043932E+01 -0.46206690659E+00  0.11821188004E+04  0.11821837432E+04  0.10000000000E+02 0. -1.
</event>
<event>
 5    1  0.1129619E-008  0.3824394E+03  0.7957747E-01  0.3440605E+00
         13   -1    0    0    0    0  0.00000000000E+00  0.00000000000E+00  0.14999999963E+04  0.15000000000E+04  0.10566000000E+00 0.  1.
        994   -1    0    0    0    0 -0.00000000000E+00 -0.00000000000E+00  0.11368683772E-12  0.17120000000E+03  0.17120000000E+03 0.  0.
         13    1    1    2    0    0 -0.16196059024E+02 -0.17959911772E+02  0.95362345818E+02  0.98381191915E+02  0.10566000000E+00 0.  1.
        994    1    1    2    0    0  0.14396897917E+02  0.17419475721E+02  0.46022467767E+01  0.17274643116E+03  0.17120000000E+03 0.  0.
        998    1    1    2    0    0  0.17991611069E+01  0.54043605091E+00  0.14000354037E+04  0.14000723769E+04  0.10000000000E+02 0.  1.
</event>
<event>
 5    1  0.1129619E-008  0.3827343E+03  0.7957747E-01  0.3439338E+00
         13   -1    0    0    0    0  0.00000000000E+00  0.00000000000E+00  0.14999999963E+04  0.15000000000E+04  0.10566000000E+00 0. -1.
        994   -1    0    0    0    0 -0.00000000000E+00 -0.00000000000E+00  0.11368683772E-12  0.17120000000E+03  0.17120000000E+03 0.  0.
         13    1    1    2    0    0  0.15501577456E+02  0.64529317306E+01  0.51020469527E+02  0.53712556319E+02  0.10566000000E+00 0. -1.
        994    1    1    2    0    0 -0.98501542102E+01  0.39629967340E+01  0.31327526345E+01  0.17155752685E+03  0.17120000000E+03 0.  0.
        998    1    1    2    0    0 -0.56514232462E+01 -0.10415928465E+02  0.14458467741E+04  0.14459299168E+04  0.10000000000E+02 0. -1.
</event>
<event>
 5    1  0.1129619E-008  0.3753930E+03  0.7957747E-01  0.3471467E+00
         13   -1    0    0    0    0  0.00000000000E+00  0.00000000000E+00  0.14999999963E+04  0.15000000000E+04  0.10566000000E+00 0.  1.
        994   -1    0    0    0    0 -0.00000000000E+00 -0.00000000000E+00  0.11368683772E-12  0.17120000000E+03  0.17120000000E+03 0.  0.
         13    1    1    2    0    0 -0.28468261013E+01  0.24077776387E+02  0.42012158426E+02  0.48506456830E+02  0.10566000000E+00 0.  1.
        994    1    1    2    0    0  0.25448770934E+00 -0.22565853213E+02  0.82078291565E+01  0.17287594094E+03  0.17120000000E+03 0.  0.
        998    1    1    2    0    0  0.25923383919E+01 -0.15119231735E+01  0.14497800087E+04  0.14498176022E+04  0.10000000000E+02 0.  1.
</event>
<event>
 5    1  0.1129619E-008  0.3849253E+03  0.7957747E-01  0.3429989E+00
         13   -1    0    0    0    0  0.00000000000E+00  0.00000000000E+00  0.14999999963E+04  0.15000000000E+04  0.10566000000E+00 0.  1.
        994   -1    0    0    0    0 -0.00000000000E+00 -0.00000000000E+00  0.11368683772E-12  0.17120000000E+03  0.17120000000E+03 0.  0.
         13    1    1    2    0    0 -0.10778638410E+02 -0.12735649057E+02  0.83542899238E+02  0.85192740184E+02  0.10566000000E+00 0.  1.
        994    1    1    2    0    0  0.60130735912E+01  0.89465098854E+01  0.20495593522E+01  0.17155126868E+03  0.17120000000E+03 0.  0.
        998    1    1    2    0    0  0.47655648187E+01  0.37891391714E+01  0.14144075377E+04  0.14144559911E+04  0.10000000000E+02 0.  1.
</event>
<event>
 5    1  0.1129619E-008  0.3818490E+03  0.7957747E-01  0.3443147E+00
         13   -1    0    0    0    0  0.00000000000E+00  0.00000000000E+00  0.14999999963E+04  0.15000000000E+04  0.10566000000E+00 0. -1.
        994   -1    0    0    0    0 -0.00000000000E+00 -0.00000000000E+00  0.11368683772E-12  0.17120000000E+03  0.17120000000E+03 0.  0.
         13    1    1    2    0    0  0.34547348097E+01  0.10786261035E+02  0.18665078352E+02  0.21832886516E+02  0.10566000000E+00 0. -1.
        994    1    1    2    0    0 -0.30132894395E+01 -0.89146663297E+01  0.34969697916E+01  0.17149408149E+03  0.17120000000E+03 0.  0.
        998    1    1    2    0    0 -0.44144537024E+00 -0.18715947048E+01  0.14778379481E+04  0.14778730320E+04  0.10000000000E+02 0. -1.
</event>
<event>
 5    1  0.1129619E-008  0.3828548E+03  0.7957747E-01  0.3438822E+00
         13   -1    0    0    0    0  0.00000000000E+00  0.00000000000E+00  0.14999999963E+04  0.15000000000E+04  0.10566000000E+00 0. -1.
        994   -1    0    0    0    0 -0.00000000000E+00 -0.00000000000E+00  0.11368683772E-12  0.17120000000E+03  0.17120000000E+03 0.  0.
         13    1    1    2    0    0  0.16344345936E+02  0.13380912414E+02  0.84583397117E+02  0.87181125784E+02  0.10566000000E+00 0. -1.
        994    1    1    2    0    0 -0.47797777854E+01 -0.62253048169E+01  0.29029838237E+01  0.17140439904E+03  0.17120000000E+03 0.  0.
        998    1    1    2    0    0 -0.11564568151E+02 -0.71556075967E+01  0.14125136153E+04  0.14126144752E+04  0.10000000000E+02 0. -1.
</event>
<event>
 5    1  0.1129619E-008  0.3718568E+03  0.7957747E-01  0.3487401E+00
         13   -1    0    0    0    0  0.00000000000E+00  0.00000000000E+00  0.14999999963E+04  0.15000000000E+04  0.10566000000E+00 0. -1.
        994   -1    0    0    0    0 -0.00000000000E+00 -0.00000000000E+00  0.11368683772E-12  0.17120000000E+03  0.17120000000E+03 0.  0.
         13    1    1    2    0    0  0.63728657740E+02 -0.52620102546E+02  0.43985502343E+03  0.44755186270E+03  0.10566000000E+00 0. -1.
        994    1    1    2    0    0 -0.40358348370E+02  0.13425028028E+02  0.14542636687E+02  0.17700270038E+03  0.17120000000E+03 0.  0.
        998    1    1    2    0    0 -0.23370309370E+02  0.39195074518E+02  0.10456023362E+04  0.10466454369E+04  0.10000000000E+02 0. -1.
</event>
<event>
 5    1  0.1129619E-008  0.3770439E+03  0.7957747E-01  0.3464132E+00
         13   -1    0    0    0    0  0.00000000000E+00  0.00000000000E+00  0.14999999963E+04  0.15000000000E+04  0.10566000000E+00 0.  1.
        994   -1    0    0    0    0 -0.00000000000E+00 -0.00000000000E+00  0.11368683772E-12  0.17120000000E+03  0.17120000000E+03 0.  0.
         13    1    1    2    0    0 -0.25793821854E+02  0.19450538666E+01  0.56860456267E+02  0.62467808760E+02  0.10566000000E+00 0.  1.
        994    1    1    2    0    0  0.20865720706E+02  0.27721505413E+02  0.97077602090E+01  0.17495010938E+03  0.17120000000E+03 0.  0.
        998    1    1    2    0    0  0.49281011485E+01 -0.29666559280E+02  0.14334317798E+04  0.14337820819E+04  0.10000000000E+02 0.  1.
</event>
<event>
 5    1  0.1129619E-008  0.3827129E+03  0.7957747E-01  0.3439430E+00
         13   -1    0    0    0    0  0.00000000000E+00  0.00000000000E+00  0.14999999963E+04  0.15000000000E+04  0.10566000000E+00 0. -1.
        994   -1    0    0    0    0 -0.00000000000E+00 -0.00000000000E+00  0.11368683772E-12  0.17120000000E+03  0.17120000000E+03 0.  0.
         13    1    1    2    0    0  0.15455654007E+02 -0.92763448292E+01  0.55465374364E+02  0.58321065933E+02  0.10566000000E+00 0. -1.
        994    1    1    2    0    0 -0.15413213489E+02  0.14533630439E+02  0.42582977210E+01  0.17255829932E+03  0.17120000000E+03 0.  0.
        998    1    1    2    0    0 -0.42440518656E-01 -0.52572856102E+01  0.14402763242E+04  0.14403206347E+04  0.10000000000E+02 0. -1.
</event>
<event>
 5    1  0.1129619E-008  0.3820025E+03  0.7957747E-01  0.3442485E+00
         13   -1    0    0    0    0  0.00000000000E+00  0.00000000000E+00  0.14999999963E+04  0.15000000000E+04  0.10566000000E+00 0.  1.
        994   -1    0    0    0    0 -0.00000000000E+00 -0.00000000000E+00  0.11368683772E-12  0.17120000000E+03  0.17120000000E+03 0.  0.
         13    1    1    2    0    0 -0.20591369798E+02  0.12646608357E+02  0.91391181659E+02  0.94532007607E+02  0.10566000000E+00 0.  1.
        994    1    1    2    0    0  0.22775697140E+02  0.42706197555E+01  0.49110020968E+01  0.17283092465E+03  0.17120000000E+03 0.  0.
        998    1    1    2    0    0 -0.21843273420E+01 -0.16917228113E+02  0.14036978125E+04  0.14038370677E+04  0.10000000000E+02 0.  1.
</event>
<event>
 5    1  0.1129619E-008  0.3712157E+03  0.7957747E-01  0.3490322E+00
         13   -1    0    0    0    0  0.00000000000E+00  0.00000000000E+00  0.14999999963E+04  0.15000000000E+04  0.10566000000E+00 0. -1.
        994   -1    0    0    0    0 -0.00000000000E+00 -0.00000000000E+00  0.11368683772E-12  0.17120000000E+03  0.17120000000E+03 0.  0.
         13    1    1    2    0    0  0.23826190115E+02 -0.29837359773E+01  0.29075871243E+02  0.37709514294E+02  0.10566000000E+00 0. -1.
        994    1    1    2    0    0 -0.25886690532E+02  0.85383805159E+01  0.11197651099E+02  0.17371773680E+03  0.17120000000E+03 0.  0.
        998    1    1    2    0    0  0.20605004171E+01 -0.55546445386E+01  0.14597264739E+04  0.14597727489E+04  0.10000000000E+02 0. -1.
</event>
<event>
 5    1  0.1129619E-008  0.3846491E+03  0.7957747E-01  0.3431162E+00
         13   -1    0    0    0    0  0.00000000000E+00  0.00000000000E+00  0.14999999963E+04  0.15000000000E+04  0.10566000000E+00 0.  1.
        994   -1    0    0    0    0 -0.00000000000E+00 -0.00000000000E+00  0.11368683772E-12  0.17120000000E+03  0.17120000000E+03 0.  0.
         13    1    1    2    0    0 -0.44615019874E+01 -0.92731480427E+01  0.28699559028E+02  0.30488885303E+02  0.10566000000E+00 0.  1.
        994    1    1    2    0    0 -0.20749020366E+01  0.11272252447E+02  0.22370833060E+01  0.17159782468E+03  0.17120000000E+03 0.  0.
        998    1    1    2    0    0  0.65364040240E+01 -0.19991044047E+01  0.14690633539E+04  0.14691132900E+04  0.10000000000E+02 0.  1.
</event>
<event>
 5    1  0.1129619E-008  0.3710196E+03  0.7957747E-01  0.3491218E+00
         13   -1    0    0    0    0  0.00000000000E+00  0.00000000000E+00  0.14999999963E+04  0.15000000000E+04  0.10566000000E+00 0. -1.
        994   -1    0    0    0    0 -0.00000000000E+00 -0.00000000000E+00  0.11368683772E-12  0.17120000000E+03  0.17120000000E+03 0.  0.
         13    1    1    2    0    0  0.19197679491E+02 -0.11093755638E+02  0.16967542554E+02  0.27920081955E+02  0.10566000000E+00 0. -1.
        994    1    1    2    0    0 -0.13853000630E+02 -0.17425948211E+02  0.13219592007E+02  0.17314666301E+03  0.17120000000E+03 0.  0.
        998    1    1    2    0    0 -0.53446788617E+01  0.28519703849E+02  0.14698128617E+04  0.14701332550E+04  0.10000000000E+02 0. -1.
</event>
<event>
 5    1  0.1129619E-008  0.3722462E+03  0.7957747E-01  0.3485631E+00
         13   -1    0    0    0    0  0.00000000000E+00  0.00000000000E+00  0.14999999963E+04  0.15000000000E+04  0.10566000000E+00 0.  1.
        994   -1    0    0    0    0 -0.00000000000E+00 -0.00000000000E+00  0.11368683772E-12  0.17120000000E+03  0.17120000000E+03 0.  0.
         13    1    1    2    0    0  0.50656457738E+02  0.34998156896E+02  0.20161246739E+03  0.21080452051E+03  0.10566000000E+00 0.  1.
        994    1    1    2    0    0 -0.39050945667E+02 -0.51501516785E+02  0.22571605120E+02  0.18438085569E+03  0.17120000000E+03 0.  0.
        998    1    1    2    0    0 -0.11605512071E+02  0.16503359889E+02  0.12758159238E+04  0.12760146238E+04  0.10000000000E+02 0.  1.
</event>
<event>
 5    1  0.1129619E-008  0.3821405E+03  0.7957747E-01  0.3441891E+00
         13   -1    0    0    0    0  0.00000000000E+00  0.00000000000E+00  0.14999999963E+04  0.15000000000E+04  0.10566000000E+00 0. -1.
        994   -1    0    0    0    0 -0.00000000000E+00 -0.00000000000E+00  0.11368683772E-12  0.17120000000E+03  0.17120000000E+03 0.  0.
         13    1    1    2    0    0 -0.70812125250E+01 -0.21621471657E+02  0.78635099144E+02  0.81860378626E+02  0.10566000000E+00 0. -1.
        994    1    1    2    0    0 -0.45283640994E+02  0.45247605260E+02  0.16780777260E+02  0.18354560308E+03  0.17120000000E+03 0.  0.
        998    1    1    2    0    0  0.52364853519E+02 -0.23626133603E+02  0.14045841199E+04  0.14057940183E+04  0.10000000000E+02 0. -1.
</event>
<event>
 5    1  0.1129619E-008  0.3807490E+03  0.7957747E-01  0.3447903E+00
         13   -1    0    0    0    0  0.00000000000E+00  0.00000000000E+00  0.14999999963E+04  0.15000000000E+04  0.10566000000E+00 0.  1.
        994   -1    0    0    0    0 -0.00000000000E+00 -0.00000000000E+00  0.11368683772E-12  0.17120000000E+03  0.17120000000E+03 0.  0.
         13    1    1    2    0    0 -0.99724967734E+01  0.23242755960E+02  0.87480998015E+02  0.91063783000E+02  0.10566000000E+00 0.  1.
        994    1    1    2    0    0  0.63949065194E+01 -0.52507017590E+01  0.39838565576E+01  0.17144613093E+03  0.17120000000E+03 0.  0.
        998    1    1    2    0    0  0.35775902540E+01 -0.17992054201E+02  0.14085351417E+04  0.14086900861E+04  0.10000000000E+02 0.  1.
</event>
<event>
 5    1  0.1129619E-008  0.3763350E+03  0.7957747E-01  0.3467274E+00
         13   -1    0    0    0    0  0.00000000000E+00  0.00000000000E+00  0.14999999963E+04  0.15000000000E+04  0.10566000000E+00 0.  1.
        994   -1    0    0    0    0 -0.00000000000E+00 -0.00000000000E+00  0.11368683772E-12  0.17120000000E+03  0.17120000000E+03 0.  0.
         13    1    1    2    0    0  0.89195137599E+02  0.34490679314E+02  0.50082616580E+03  0.50987472877E+03  0.10566000000E+00 0.  1.
        994    1    1    2    0    0 -0.86992979123E+02 -0.39287601348E+02  0.37477866805E+02  0.19956283356E+03  0.17120000000E+03 0.  0.
        998    1    1    2    0    0 -0.22021584763E+01  0.47969220343E+01  0.96169596368E+03  0.96176243767E+03  0.10000000000E+02 0. -1.
</event>
<event>
 5    1  0.1129619E-008  0.3799997E+03  0.7957747E-01  0.3451160E+00
         13   -1    0    0    0    0  0.00000000000E+00  0.00000000000E+00  0.14999999963E+04  0.15000000000E+04  0.10566000000E+00 0.  1.
        994   -1    0    0    0    0 -0.00000000000E+00 -0.00000000000E+00  0.11368683772E-12  0.17120000000E+03  0.17120000000E+03 0.  0.
         13    1    1    2    0    0  0.10911795304E+02  0.11077771314E+02  0.27436314134E+02  0.31536435933E+02  0.10566000000E+00 0.  1.
        994    1    1    2    0    0 -0.10347781432E+02 -0.74028344146E+01  0.46746474888E+01  0.17173575885E+03  0.17120000000E+03 0.  0.
        998    1    1    2    0    0 -0.56401387256E+00 -0.36749368997E+01  0.14678890347E+04  0.14679278052E+04  0.10000000000E+02 0.  1.
</event>
<event>
 5    1  0.1129619E-008  0.3816731E+03  0.7957747E-01  0.3443906E+00
         13   -1    0    0    0    0  0.00000000000E+00  0.00000000000E+00  0.14999999963E+04  0.15000000000E+04  0.10566000000E+00 0. -1.
        994   -1    0    0    0    0 -0.00000000000E+00 -0.00000000000E+00  0.11368683772E-12  0.17120000000E+03  0.17120000000E+03 0.  0.
         13    1    1    2    0    0 -0.22511122575E+02  0.65494192794E+01  0.80850806292E+02  0.84181408723E+02  0.10566000000E+00 0. -1.
        994    1    1    2    0    0  0.17992125407E+02 -0.40744110471E+01  0.44231730102E+01  0.17224785009E+03  0.17120000000E+03 0.  0.
        998    1    1    2    0    0  0.45189971682E+01 -0.24750082323E+01  0.14147260170E+04  0.14147707412E+04  0.10000000000E+02 0. -1.
</event>
<event>
 5    1  0.1129619E-008  0.3849759E+03  0.7957747E-01  0.3429774E+00
         13   -1    0    0    0    0  0.00000000000E+00  0.00000000000E+00  0.14999999963E+04  0.15000000000E+04  0.10566000000E+00 0. -1.
        994   -1    0    0    0    0 -0.00000000000E+00 -0.00000000000E+00  0.11368683772E-12  0.17120000000E+03  0.17120000000E+03 0.  0.
         13    1    1    2    0    0  0.94280496663E+01 -0.61190351034E+01  0.37767712671E+02  0.39404847361E+02  0.10566000000E+00 0. -1.
        994    1    1    2    0    0 -0.96800232160E+01  0.44176049616E+01  0.20145562544E+01  0.17154217126E+03  0.17120000000E+03 0.  0.
        998    1    1    2    0    0  0.25197354979E+00  0.17014301418E+01  0.14602177274E+04  0.14602529814E+04  0.10000000000E+02 0. -1.
</event>
<event>
 5    1  0.1129619E-008  0.3846131E+03  0.7957747E-01  0.3431315E+00
         13   -1    0    0    0    0  0.00000000000E+00  0.00000000000E+00  0.14999999963E+04  0.15000000000E+04  0.10566000000E+00 0.  1.
        994   -1    0    0    0    0 -0.00000000000E+00 -0.00000000000E+00  0.11368683772E-12  0.17120000000E+03  0.17120000000E+03 0.  0.
         13    1    1    2    0    0 -0.40582165824E+01 -0.14877661646E+02  0.60408497972E+02  0.62345903868E+02  0.10566000000E+00 0.  1.
        994    1    1    2    0    0  0.66645488429E+01  0.22115766675E+02  0.35811005750E+01  0.17278827399E+03  0.17120000000E+03 0.  0.
        998    1    1    2    0    0 -0.26063322605E+01 -0.72381050294E+01  0.14360103977E+04  0.14360658221E+04  0.10000000000E+02 0.  1.
</event>
<event>
 5    1  0.1129619E-008  0.4374534E+03  0.7957747E-01  0.3233725E+00
         13   -1    0    0    0    0  0.00000000000E+00  0.00000000000E+00  0.14999999963E+04  0.15000000000E+04  0.10566000000E+00 0. -1.
        994   -1    0    0    0    0 -0.00000000000E+00 -0.00000000000E+00  0.11368683772E-12  0.17120000000E+03  0.17120000000E+03 0.  0.
         13    1    1    2    0    0  0.34644851649E+02 -0.10248457319E+03  0.96799439293E+02  0.14516713161E+03  0.10566000000E+00 0. -1.
        994    1    1    2    0    0 -0.48332766841E+02  0.77933960812E+02  0.92718648613E+02  0.21521139932E+03  0.17120000000E+03 0.  0.
        998    1    1    2    0    0  0.13687915192E+02  0.24550612383E+02  0.13104819084E+04  0.13108214691E+04  0.10000000000E+02 0. -1.
</event>
<event>
 5    1  0.1129619E-008  0.3825074E+03  0.7957747E-01  0.3440313E+00
         13   -1    0    0    0    0  0.00000000000E+00  0.00000000000E+00  0.14999999963E+04  0.15000000000E+04  0.10566000000E+00 0. -1.
        994   -1    0    0    0    0 -0.00000000000E+00 -0.00000000000E+00  0.11368683772E-12  0.17120000000E+03  0.17120000000E+03 0.  0.
         13    1    1    2    0    0  0.94279255126E+01  0.14815083621E+03  0.38186453759E+03  0.40970488438E+03  0.10566000000E+00 0. -1.
        994    1    1    2    0    0 -0.12315173070E+02 -0.16601906276E+03  0.12761037758E+03  0.27075420801E+03  0.17120000000E+03 0.  0.
        998    1    1    2    0    0  0.28872475578E+01  0.17868226550E+02  0.99052508111E+03  0.99074090762E+03  0.10000000000E+02 0. -1.
</event>
<event>
 5    1  0.1129619E-008  0.3704400E+03  0.7957747E-01  0.3493871E+00
         13   -1    0    0    0    0  0.00000000000E+00  0.00000000000E+00  0.14999999963E+04  0.15000000000E+04  0.10566000000E+00 0.  1.
        994   -1    0    0    0    0 -0.00000000000E+00 -0.00000000000E+00  0.11368683772E-12  0.17120000000E+03  0.17120000000E+03 0.  0.
         13    1    1    2    0    0  0.81859393778E+01  0.14525652959E+02  0.76654774155E+01  0.18351427885E+02  0.10566000000E+00 0.  1.
        994    1    1    2    0    0 -0.85641377677E+01  0.44154907260E+01  0.11496809244E+02  0.17185592116E+03  0.17120000000E+03 0.  0.
        998    1    1    2    0    0  0.37819838987E+00 -0.18941143685E+02  0.14808377096E+04  0.14809926510E+04  0.10000000000E+02 0.  1.
</event>
<event>
 5    1  0.1129619E-008  0.3746679E+03  0.7957747E-01  0.3474709E+00
         13   -1    0    0    0    0  0.00000000000E+00  0.00000000000E+00  0.14999999963E+04  0.15000000000E+04  0.10566000000E+00 0. -1.
        994   -1    0    0    0    0 -0.00000000000E+00 -0.00000000000E+00  0.11368683772E-12  0.17120000000E+03  0.17120000000E+03 0.  0.
         13    1    1    2    0    0 -0.64044372654E+01 -0.16720758789E+02  0.20284611831E+02  0.27056925774E+02  0.10566000000E+00 0. -1.
        994    1    1    2    0    0  0.64926290451E+01  0.15144613131E+02  0.77738655259E+01  0.17216674047E+03  0.17120000000E+03 0.  0.
        998    1    1    2    0    0 -0.88191779694E-01  0.15761456576E+01  0.14719415189E+04  0.14719763338E+04  0.10000000000E+02 0. -1.
</event>
<event>
 5    1  0.1129619E-008  0.3727761E+03  0.7957747E-01  0.3483229E+00
         13   -1    0    0    0    0  0.00000000000E+00  0.00000000000E+00  0.14999999963E+04  0.15000000000E+04  0.10566000000E+00 0.  1.
        994   -1    0    0    0    0 -0.00000000000E+00 -0.00000000000E+00  0.11368683772E-12  0.17120000000E+03  0.17120000000E+03 0.  0.
         13    1    1    2    0    0  0.37911445846E+02 -0.85808287183E+02  0.38830706596E+03  0.39947807013E+03  0.10566000000E+00 0.  1.
        994    1    1    2    0    0 -0.33927708604E+02  0.94368840298E+02  0.43094290456E+02  0.20303478840E+03  0.17120000000E+03 0.  0.
        998    1    1    2    0    0 -0.39837372419E+01 -0.85605531155E+01  0.10685986399E+04  0.10686871415E+04  0.10000000000E+02 0.  0.
</event>
<event>
 5    1  0.1129619E-008  0.3806034E+03  0.7957747E-01  0.3448535E+00
         13   -1    0    0    0    0  0.00000000000E+00  0.00000000000E+00  0.14999999963E+04  0.15000000000E+04  0.10566000000E+00 0.  1.
        994   -1    0    0    0    0 -0.00000000000E+00 -0.00000000000E+00  0.11368683772E-12  0.17120000000E+03  0.17120000000E+03 0.  0.
         13    1    1    2    0    0 -0.20334464164E+02  0.25169300268E+01  0.54628471966E+02  0.58344721124E+02  0.10566000000E+00 0.  1.
        994    1    1    2    0    0  0.81480678804E+01  0.23342184084E+01  0.40685784815E+01  0.17145796253E+03  0.17120000000E+03 0.  0.
        998    1    1    2    0    0  0.12186396283E+02 -0.48511484352E+01  0.14413029458E+04  0.14413973163E+04  0.10000000000E+02 0.  1.
</event>
<event>
 5    1  0.1129619E-008  0.3820949E+03  0.7957747E-01  0.3442087E+00
         13   -1    0    0    0    0  0.00000000000E+00  0.00000000000E+00  0.14999999963E+04  0.15000000000E+04  0.10566000000E+00 0.  1.
        994   -1    0    0    0    0 -0.00000000000E+00 -0.00000000000E+00  0.11368683772E-12  0.17120000000E+03  0.17120000000E+03 0.  0.
         13    1    1    2    0    0  0.25907222654E+02  0.10496380035E+02  0.11282746883E+03  0.11623857821E+03  0.10566000000E+00 0.  1.
        994    1    1    2    0    0 -0.31767420861E+02 -0.14227869477E+02  0.71122567249E+01  0.17484743491E+03  0.17120000000E+03 0.  0.
        998    1    1    2    0    0  0.58601982075E+01  0.37314894421E+01  0.13800602707E+04  0.13801139869E+04  0.10000000000E+02 0.  1.
</event>
<event>
 5    1  0.1129619E-008  0.3008831E+03  0.7957747E-01  0.3889735E+00
         13   -1    0    0    0    0  0.00000000000E+00  0.00000000000E+00  0.14999999963E+04  0.15000000000E+04  0.10566000000E+00 0.  1.
        994   -1    0    0    0    0 -0.00000000000E+00 -0.00000000000E+00  0.11368683772E-12  0.17120000000E+03  0.17120000000E+03 0.  0.
         13    1    1    2    0    0  0.27387084380E+02  0.18243724956E+03  0.10475252565E+04  0.10636458888E+04  0.10566000000E+00 0.  1.
        994    1    1    2    0    0 -0.25671169611E+02 -0.20082682408E+02  0.62725234671E+02  0.18521937843E+03  0.17120000000E+03 0.  0.
        998    1    1    2    0    0 -0.17159147690E+01 -0.16235456715E+03  0.38974950507E+03  0.42233473281E+03  0.10000000000E+02 0. -1.
</event>
<event>
 5    1  0.1129619E-008  0.3829454E+03  0.7957747E-01  0.3438433E+00
         13   -1    0    0    0    0  0.00000000000E+00  0.00000000000E+00  0.14999999963E+04  0.15000000000E+04  0.10566000000E+00 0.  1.
        994   -1    0    0    0    0 -0.00000000000E+00 -0.00000000000E+00  0.11368683772E-12  0.17120000000E+03  0.17120000000E+03 0.  0.
         13    1    1    2    0    0 -0.81370046173E+01  0.14372831583E+02  0.48229840022E+02  0.50979581839E+02  0.10566000000E+00 0.  1.
        994    1    1    2    0    0  0.87413478405E+01 -0.20053415483E+02  0.42395920059E+01  0.17264404066E+03  0.17120000000E+03 0.  0.
        998    1    1    2    0    0 -0.60434322330E+00  0.56805839003E+01  0.14475305643E+04  0.14475763775E+04  0.10000000000E+02 0.  1.
</event>
<event>
 5    1  0.1129619E-008  0.3820245E+03  0.7957747E-01  0.3442391E+00
         13   -1    0    0    0    0  0.00000000000E+00  0.00000000000E+00  0.14999999963E+04  0.15000000000E+04  0.10566000000E+00 0. -1.
        994   -1    0    0    0    0 -0.00000000000E+00 -0.00000000000E+00  0.11368683772E-12  0.17120000000E+03  0.17120000000E+03 0.  0.
         13    1    1    2    0    0  0.53402898216E+01 -0.18853789535E+02  0.74999351871E+02  0.77517082120E+02  0.10566000000E+00 0. -1.
        994    1    1    2    0    0 -0.28784462876E+01 -0.30002450838E+02  0.61371613338E+01  0.17394118908E+03  0.17120000000E+03 0.  0.
        998    1    1    2    0    0 -0.24618435340E+01  0.48856240373E+02  0.14188634831E+04  0.14197417288E+04  0.10000000000E+02 0. -1.
</event>
<event>
 5    1  0.1129619E-008  0.3816700E+03  0.7957747E-01  0.3443919E+00
         13   -1    0    0    0    0  0.00000000000E+00  0.00000000000E+00  0.14999999963E+04  0.15000000000E+04  0.10566000000E+00 0. -1.
        994   -1    0    0    0    0 -0.00000000000E+00 -0.00000000000E+00  0.11368683772E-12  0.17120000000E+03  0.17120000000E+03 0.  0.
         13    1    1    2    0    0  0.13802473420E+02  0.15429086892E+02  0.65604506824E+02  0.68793367954E+02  0.10566000000E+00 0. -1.
        994    1    1    2    0    0 -0.47895887556E+01 -0.62164036284E+01  0.34972850602E+01  0.17141544515E+03  0.17120000000E+03 0.  0.
        998    1    1    2    0    0 -0.90128846647E+01 -0.92126832633E+01  0.14308982044E+04  0.14309911869E+04  0.10000000000E+02 0. -1.
</event>
<event>
 5    1  0.1129619E-008  0.3733319E+03  0.7957747E-01  0.3480717E+00
         13   -1    0    0    0    0  0.00000000000E+00  0.00000000000E+00  0.14999999963E+04  0.15000000000E+04  0.10566000000E+00 0. -1.
        994   -1    0    0    0    0 -0.00000000000E+00 -0.00000000000E+00  0.11368683772E-12  0.17120000000E+03  0.17120000000E+03 0.  0.
         13    1    1    2    0    0 -0.67624914889E+01  0.28952643118E+02  0.60201753532E+02  0.67143496536E+02  0.10566000000E+00 0. -1.
        994    1    1    2    0    0  0.49236159446E+01  0.54442017538E+01  0.77220467915E+01  0.17153119639E+03  0.17120000000E+03 0.  0.
        998    1    1    2    0    0  0.18388755443E+01 -0.34396844872E+02  0.14320761960E+04  0.14325253071E+04  0.10000000000E+02 0. -1.
</event>
<event>
 5    1  0.1129619E-008  0.3789848E+03  0.7957747E-01  0.3455591E+00
         13   -1    0    0    0    0  0.00000000000E+00  0.00000000000E+00  0.14999999963E+04  0.15000000000E+04  0.10566000000E+00 0.  1.
        994   -1    0    0    0    0 -0.00000000000E+00 -0.00000000000E+00  0.11368683772E-12  0.17120000000E+03  0.17120000000E+03 0.  0.
         13    1    1    2    0    0  0.14310132742E+02 -0.65777958737E+01  0.24538209247E+02  0.29157883578E+02  0.10566000000E+00 0.  1.
        994    1    1    2    0    0 -0.94032699612E+01  0.13864423077E+02  0.55883728882E+01  0.17210843566E+03  0.17120000000E+03 0.  0.
        998    1    1    2    0    0 -0.49068627806E+01 -0.72866272037E+01  0.14698734141E+04  0.14699336808E+04  0.10000000000E+02 0.  1.
</event>
<event>
 5    1  0.1129619E-008  0.3798112E+03  0.7957747E-01  0.3451981E+00
         13   -1    0    0    0    0  0.00000000000E+00  0.00000000000E+00  0.14999999963E+04  0.15000000000E+04  0.10566000000E+00 0. -1.
        994   -1    0    0    0    0 -0.00000000000E+00 -0.00000000000E+00  0.11368683772E-12  0.17120000000E+03  0.17120000000E+03 0.  0.
         13    1    1    2    0    0  0.10218187807E+02 -0.10516686539E+02  0.22990943709E+02  0.27269153168E+02  0.10566000000E+00 0. -1.
        994    1    1    2    0    0 -0.12487049887E+02  0.16910970891E+02  0.57080432672E+01  0.17258021065E+03  0.17120000000E+03 0.  0.
        998    1    1    2    0    0  0.22688620799E+01 -0.63942843519E+01  0.14713010093E+04  0.14713506362E+04  0.10000000000E+02 0. -1.
</event>
<event>
 5    1  0.1129619E-008  0.3791152E+03  0.7957747E-01  0.3455020E+00
         13   -1    0    0    0    0  0.00000000000E+00  0.00000000000E+00  0.14999999963E+04  0.15000000000E+04  0.10566000000E+00 0.  1.
        994   -1    0    0    0    0 -0.00000000000E+00 -0.00000000000E+00  0.11368683772E-12  0.17120000000E+03  0.17120000000E+03 0.  0.
         13    1    1    2    0    0  0.13572234497E+02  0.20529251227E+02  0.62966264227E+02  0.67604861511E+02  0.10566000000E+00 0.  1.
        994    1    1    2    0    0 -0.10819018759E+02 -0.18536385833E+02  0.61264116197E+01  0.17264883923E+03  0.17120000000E+03 0.  0.
        998    1    1    2    0    0 -0.27532157384E+01 -0.19928653941E+01  0.14309073204E+04  0.14309462993E+04  0.10000000000E+02 0.  1.
</event>
<event>
 5    1  0.1129619E-008  0.3818556E+03  0.7957747E-01  0.3443118E+00
         13   -1    0    0    0    0  0.00000000000E+00  0.00000000000E+00  0.14999999963E+04  0.15000000000E+04  0.10566000000E+00 0.  1.
        994   -1    0    0    0    0 -0.00000000000E+00 -0.00000000000E+00  0.11368683772E-12  0.17120000000E+03  0.17120000000E+03 0.  0.
         13    1    1    2    0    0  0.70527410769E+01 -0.31936656683E+02  0.16459320448E+03  0.16781127889E+03  0.10566000000E+00 0.  1.
        994    1    1    2    0    0 -0.29677664713E+01  0.20296067416E+02  0.45985409272E+01  0.17248572280E+03  0.17120000000E+03 0.  0.
        998    1    1    2    0    0 -0.40849746056E+01  0.11640589268E+02  0.13308082509E+04  0.13309029983E+04  0.10000000000E+02 0.  1.
</event>
<event>
 5    1  0.1129619E-008  0.3834551E+03  0.7957747E-01  0.3436251E+00
         13   -1    0    0    0    0  0.00000000000E+00  0.00000000000E+00  0.14999999963E+04  0.15000000000E+04  0.10566000000E+00 0. -1.
        994   -1    0    0    0    0 -0.00000000000E+00 -0.00000000000E+00  0.11368683772E-12  0.17120000000E+03  0.17120000000E+03 0.  0.
         13    1    1    2    0    0 -0.10878918911E+01  0.12787612723E+02  0.36003168662E+02  0.38222321563E+02  0.10566000000E+00 0. -1.
        994    1    1    2    0    0 -0.86534113910E+01  0.75029409557E+01  0.28327696999E+01  0.17160606119E+03  0.17120000000E+03 0.  0.
        998    1    1    2    0    0  0.97413032820E+01 -0.20290553679E+02  0.14611640579E+04  0.14613716173E+04  0.10000000000E+02 0. -1.
</event>
<event>
 5    1  0.1129619E-008  0.3851172E+03  0.7957747E-01  0.3429175E+00
         13   -1    0    0    0    0  0.00000000000E+00  0.00000000000E+00  0.14999999963E+04  0.15000000000E+04  0.10566000000E+00 0. -1.
        994   -1    0    0    0    0 -0.00000000000E+00 -0.00000000000E+00  0.11368683772E-12  0.17120000000E+03  0.17120000000E+03 0.  0.
         13    1    1    2    0    0 -0.13120640011E+02  0.72317967960E+01  0.71105302723E+02  0.72666535067E+02  0.10566000000E+00 0. -1.
        994    1    1    2    0    0  0.16671900031E+02  0.76120147585E+01  0.26769648689E+01  0.17219901614E+03  0.17120000000E+03 0.  0.
        998    1    1    2    0    0 -0.35512600199E+01 -0.14843811554E+02  0.14262177287E+04  0.14263344488E+04  0.10000000000E+02 0. -1.
</event>
<event>
 5    1  0.1129619E-008  0.3758327E+03  0.7957747E-01  0.3469507E+00
         13   -1    0    0    0    0  0.00000000000E+00  0.00000000000E+00  0.14999999963E+04  0.15000000000E+04  0.10566000000E+00 0.  1.
        994   -1    0    0    0    0 -0.00000000000E+00 -0.00000000000E+00  0.11368683772E-12  0.17120000000E+03  0.17120000000E+03 0.  0.
         13    1    1    2    0    0  0.14055748630E+02  0.70645536161E+02  0.36525661456E+03  0.37229123209E+03  0.10566000000E+00 0.  1.
        994    1    1    2    0    0  0.35787100010E+02 -0.67751296990E+02  0.26419551530E+02  0.18941591135E+03  0.17120000000E+03 0.  0.
        998    1    1    2    0    0 -0.49842848639E+02 -0.28942391703E+01  0.11083238302E+04  0.11094928566E+04  0.10000000000E+02 0.  1.
</event>
<event>
 5    1  0.1129619E-008  0.3824539E+03  0.7957747E-01  0.3440543E+00
         13   -1    0    0    0    0  0.00000000000E+00  0.00000000000E+00  0.14999999963E+04  0.15000000000E+04  0.10566000000E+00 0.  1.
        994   -1    0    0    0    0 -0.00000000000E+00 -0.00000000000E+00  0.11368683772E-12  0.17120000000E+03  0.17120000000E+03 0.  0.
         13    1    1    2    0    0  0.11840776087E+03  0.13656395334E+02  0.30342108602E+03  0.32599273240E+03  0.10566000000E+00 0.  1.
        994    1    1    2    0    0 -0.12305223694E+03 -0.21254089360E+01  0.75410471576E+02  0.22392532148E+03  0.17120000000E+03 0.  0.
        998    1    1    2    0    0  0.46444760685E+01 -0.11530986398E+02  0.11211684387E+04  0.11212819461E+04  0.10000000000E+02 0.  1.
</event>
<event>
 5    1  0.1129619E-008  0.3792058E+03  0.7957747E-01  0.3454624E+00
         13   -1    0    0    0    0  0.00000000000E+00  0.00000000000E+00  0.14999999963E+04  0.15000000000E+04  0.10566000000E+00 0.  1.
        994   -1    0    0    0    0 -0.00000000000E+00 -0.00000000000E+00  0.11368683772E-12  0.17120000000E+03  0.17120000000E+03 0.  0.
         13    1    1    2    0    0  0.14608604347E+02 -0.77123541765E+02  0.45916441010E+03  0.46582552387E+03  0.10566000000E+00 0.  1.
        994    1    1    2    0    0 -0.21897797374E+02  0.77551457545E+02  0.26616884516E+02  0.19108019426E+03  0.17120000000E+03 0.  0.
        998    1    1    2    0    0  0.72891930273E+01 -0.42791577993E+00  0.10142187017E+04  0.10142942819E+04  0.10000000000E+02 0.  1.
</event>
<event>
 5    1  0.1129619E-008  0.3819808E+03  0.7957747E-01  0.3442579E+00
         13   -1    0    0    0    0  0.00000000000E+00  0.00000000000E+00  0.14999999963E+04  0.15000000000E+04  0.10566000000E+00 0.  1.
        994   -1    0    0    0    0 -0.00000000000E+00 -0.00000000000E+00  0.11368683772E-12  0.17120000000E+03  0.17120000000E+03 0.  0.
         13    1    1    2    0    0 -0.18124597675E+03  0.13193543202E+03  0.11911459905E+04  0.12120585152E+04  0.10566000000E+00 0.  1.
        994    1    1    2    0    0  0.17987993193E+03 -0.12454248155E+03  0.18299531965E+03  0.33266251161E+03  0.17120000000E+03 0.  0.
        998    1    1    2    0    0  0.13660448267E+01 -0.73929504694E+01  0.12585868611E+03  0.12647897321E+03  0.10000000000E+02 0.  0.
</event>
<event>
 5    1  0.1129619E-008  0.3840594E+03  0.7957747E-01  0.3433671E+00
         13   -1    0    0    0    0  0.00000000000E+00  0.00000000000E+00  0.14999999963E+04  0.15000000000E+04  0.10566000000E+00 0. -1.
        994   -1    0    0    0    0 -0.00000000000E+00 -0.00000000000E+00  0.11368683772E-12  0.17120000000E+03  0.17120000000E+03 0.  0.
         13    1    1    2    0    0 -0.96748262578E+01  0.80666672336E+01  0.56231920189E+02  0.57625631411E+02  0.10566000000E+00 0. -1.
        994    1    1    2    0    0 -0.27100765506E+02  0.65640319959E+02  0.18914796945E+02  0.18630703862E+03  0.17120000000E+03 0.  0.
        998    1    1    2    0    0  0.36775591764E+02 -0.73706987193E+02  0.14248532791E+04  0.14272673300E+04  0.10000000000E+02 0. -1.
</event>
<event>
 5    1  0.1129619E-008  0.3850492E+03  0.7957747E-01  0.3429463E+00
         13   -1    0    0    0    0  0.00000000000E+00  0.00000000000E+00  0.14999999963E+04  0.15000000000E+04  0.10566000000E+00 0.  1.
        994   -1    0    0    0    0 -0.00000000000E+00 -0.00000000000E+00  0.11368683772E-12  0.17120000000E+03  0.17120000000E+03 0.  0.
         13    1    1    2    0    0  0.11713183627E+02  0.33488402356E+01  0.53505886925E+02  0.54875354225E+02  0.10566000000E+00 0.  1.
        994    1    1    2    0    0  0.14301308668E+02  0.10278706504E+02  0.26262689023E+01  0.17212355018E+03  0.17120000000E+03 0.  0.
        998    1    1    2    0    0 -0.26014492296E+02 -0.13627546739E+02  0.14438678405E+04  0.14442010956E+04  0.10000000000E+02 0.  1.
</event>
<event>
 5    1  0.1129619E-008  0.3849851E+03  0.7957747E-01  0.3429735E+00
         13   -1    0    0    0    0  0.00000000000E+00  0.00000000000E+00  0.14999999963E+04  0.15000000000E+04  0.10566000000E+00 0.  1.
        994   -1    0    0    0    0 -0.00000000000E+00 -0.00000000000E+00  0.11368683772E-12  0.17120000000E+03  0.17120000000E+03 0.  0.
         13    1    1    2    0    0  0.10548593301E+02  0.11937678406E+02  0.79056155985E+02  0.80645321932E+02  0.10566000000E+00 0.  1.
        994    1    1    2    0    0 -0.78845946952E+01 -0.31623941507E+01  0.18749221108E+01  0.17142089401E+03  0.17120000000E+03 0.  0.
        998    1    1    2    0    0 -0.26639986053E+01 -0.87752842553E+01  0.14190689182E+04  0.14191337841E+04  0.10000000000E+02 0.  1.
</event>
<event>
 5    1  0.1148853E-008  0.3861394E+03  0.7957747E-01  0.3424854E+00
         13   -1    0    0    0    0  0.00000000000E+00  0.00000000000E+00  0.14999999963E+04  0.15000000000E+04  0.10566000000E+00 0.  1.
        994   -1    0    0    0    0 -0.00000000000E+00 -0.00000000000E+00  0.11368683772E-12  0.17120000000E+03  0.17120000000E+03 0.  0.
         13    1    1    2    0    0 -0.52558551815E+01  0.14298501808E+02  0.90300696414E+02  0.91576733423E+02  0.10566000000E+00 0.  1.
        994    1    1    2    0    0  0.23570263569E+02 -0.26339928532E+02  0.51697920638E+01  0.17488715193E+03  0.17120000000E+03 0.  0.
        998    1    1    2    0    0 -0.18314408387E+02  0.12041426724E+02  0.14045295078E+04  0.14047361146E+04  0.10000000000E+02 0.  1.
</event>
<event>
 5    1  0.1129619E-008  0.3803071E+03  0.7957747E-01  0.3449822E+00
         13   -1    0    0    0    0  0.00000000000E+00  0.00000000000E+00  0.14999999963E+04  0.15000000000E+04  0.10566000000E+00 0. -1.
        994   -1    0    0    0    0 -0.00000000000E+00 -0.00000000000E+00  0.11368683772E-12  0.17120000000E+03  0.17120000000E+03 0.  0.
         13    1    1    2    0    0  0.42465781981E+02 -0.92915846359E+01  0.21149223456E+03  0.21591353044E+03  0.10566000000E+00 0. -1.
        994    1    1    2    0    0 -0.38819379059E+02  0.72337456944E+01  0.92030305588E+01  0.17593580374E+03  0.17120000000E+03 0.  0.
        998    1    1    2    0    0 -0.36464029224E+01  0.20578389415E+01  0.12793047312E+04  0.12793506658E+04  0.10000000000E+02 0.  0.
</event>
<event>
 5    1  0.1129619E-008  0.2884435E+03  0.7957747E-01  0.3982141E+00
         13   -1    0    0    0    0  0.00000000000E+00  0.00000000000E+00  0.14999999963E+04  0.15000000000E+04  0.10566000000E+00 0.  1.
        994   -1    0    0    0    0 -0.00000000000E+00 -0.00000000000E+00  0.11368683772E-12  0.17120000000E+03  0.17120000000E+03 0.  0.
         13    1    1    2    0    0  0.10200363079E+03  0.12815772797E+03  0.61293318509E+03  0.63444167934E+03  0.10566000000E+00 0.  1.
        994    1    1    2    0    0 -0.81033642998E+02 -0.12307020553E+03  0.96165370477E+02  0.24549937936E+03  0.17120000000E+03 0.  0.
        998    1    1    2    0    0 -0.20969987791E+02 -0.50875224434E+01  0.79090144071E+03  0.79125894130E+03  0.10000000000E+02 0. -1.
</event>
<event>
 5    1  0.1129619E-008  0.3839722E+03  0.7957747E-01  0.3434043E+00
         13   -1    0    0    0    0  0.00000000000E+00  0.00000000000E+00  0.14999999963E+04  0.15000000000E+04  0.10566000000E+00 0. -1.
        994   -1    0    0    0    0 -0.00000000000E+00 -0.00000000000E+00  0.11368683772E-12  0.17120000000E+03  0.17120000000E+03 0.  0.
         13    1    1    2    0    0  0.26980338858E+01  0.16937512614E+02  0.69571619653E+02  0.71654589145E+02  0.10566000000E+00 0. -1.
        994    1    1    2    0    0 -0.52250656901E+01 -0.70951131819E+01  0.23975039586E+01  0.17144337248E+03  0.17120000000E+03 0.  0.
        998    1    1    2    0    0  0.25270318043E+01 -0.98423994319E+01  0.14280308727E+04  0.14281020384E+04  0.10000000000E+02 0. -1.
</event>
<event>
 5    1  0.1129619E-008  0.3841776E+03  0.7957747E-01  0.3433167E+00
         13   -1    0    0    0    0  0.00000000000E+00  0.00000000000E+00  0.14999999963E+04  0.15000000000E+04  0.10566000000E+00 0. -1.
        994   -1    0    0    0    0 -0.00000000000E+00 -0.00000000000E+00  0.11368683772E-12  0.17120000000E+03  0.17120000000E+03 0.  0.
         13    1    1    2    0    0 -0.23118105242E+01  0.16875551574E+02  0.68881114405E+02  0.70955956723E+02  0.10566000000E+00 0. -1.
        994    1    1    2    0    0  0.42019467563E+01 -0.15303403231E+02  0.28698834025E+01  0.17195792142E+03  0.17120000000E+03 0.  0.
        998    1    1    2    0    0 -0.18901362321E+01 -0.15721483426E+01  0.14282489985E+04  0.14282861219E+04  0.10000000000E+02 0. -1.
</event>
<event>
 5    1  0.1129619E-008  0.3713847E+03  0.7957747E-01  0.3489551E+00
         13   -1    0    0    0    0  0.00000000000E+00  0.00000000000E+00  0.14999999963E+04  0.15000000000E+04  0.10566000000E+00 0. -1.
        994   -1    0    0    0    0 -0.00000000000E+00 -0.00000000000E+00  0.11368683772E-12  0.17120000000E+03  0.17120000000E+03 0.  0.
         13    1    1    2    0    0  0.61934482193E+02 -0.61607938979E+01  0.15588860198E+03  0.16785440971E+03  0.10566000000E+00 0. -1.
        994    1    1    2    0    0 -0.45267929270E+02  0.24679110860E+02  0.21070499612E+02  0.18003235789E+03  0.17120000000E+03 0.  0.
        998    1    1    2    0    0 -0.16666552923E+02 -0.18518316962E+02  0.13230408947E+04  0.13233132324E+04  0.10000000000E+02 0.  1.
</event>
<event>
 5    1  0.1129619E-008  0.3804154E+03  0.7957747E-01  0.3449352E+00
         13   -1    0    0    0    0  0.00000000000E+00  0.00000000000E+00  0.14999999963E+04  0.15000000000E+04  0.10566000000E+00 0.  1.
        994   -1    0    0    0    0 -0.00000000000E+00 -0.00000000000E+00  0.11368683772E-12  0.17120000000E+03  0.17120000000E+03 0.  0.
         13    1    1    2    0    0 -0.44253576888E+01 -0.16798709275E+02  0.36166064190E+02  0.40122011253E+02  0.10566000000E+00 0.  1.
        994    1    1    2    0    0  0.22407787077E+01  0.18093652118E+02  0.50340699817E+01  0.17224164188E+03  0.17120000000E+03 0.  0.
        998    1    1    2    0    0  0.21845789811E+01 -0.12949428432E+01  0.14587998621E+04  0.14588363469E+04  0.10000000000E+02 0.  1.
</event>
<event>
 5    1  0.1129619E-008  0.3822025E+03  0.7957747E-01  0.3441624E+00
         13   -1    0    0    0    0  0.00000000000E+00  0.00000000000E+00  0.14999999963E+04  0.15000000000E+04  0.10566000000E+00 0. -1.
        994   -1    0    0    0    0 -0.00000000000E+00 -0.00000000000E+00  0.11368683772E-12  0.17120000000E+03  0.17120000000E+03 0.  0.
         13    1    1    2    0    0  0.17259289697E+02  0.24119477795E+01  0.49523355438E+02  0.52500233055E+02  0.10566000000E+00 0. -1.
        994    1    1    2    0    0 -0.83574645735E+01 -0.11443665705E+02  0.36921407698E+01  0.17182513379E+03  0.17120000000E+03 0.  0.
        998    1    1    2    0    0 -0.89018251236E+01  0.90317179258E+01  0.14467845001E+04  0.14468746332E+04  0.10000000000E+02 0. -1.
</event>
<event>
 5    1  0.1129619E-008  0.3767980E+03  0.7957747E-01  0.3465220E+00
         13   -1    0    0    0    0  0.00000000000E+00  0.00000000000E+00  0.14999999963E+04  0.15000000000E+04  0.10566000000E+00 0. -1.
        994   -1    0    0    0    0 -0.00000000000E+00 -0.00000000000E+00  0.11368683772E-12  0.17120000000E+03  0.17120000000E+03 0.  0.
         13    1    1    2    0    0 -0.71809019413E+02  0.52740601897E+02  0.50051994215E+03  0.50838797193E+03  0.10566000000E+00 0. -1.
        994    1    1    2    0    0  0.62865747543E+02 -0.50965036757E+02  0.28217837492E+02  0.19145553933E+03  0.17120000000E+03 0.  0.
        998    1    1    2    0    0  0.89432718703E+01 -0.17755651401E+01  0.97126221664E+03  0.97135648874E+03  0.10000000000E+02 0.  0.
</event>
<event>
 5    1  0.1129619E-008  0.3811346E+03  0.7957747E-01  0.3446233E+00
         13   -1    0    0    0    0  0.00000000000E+00  0.00000000000E+00  0.14999999963E+04  0.15000000000E+04  0.10566000000E+00 0. -1.
        994   -1    0    0    0    0 -0.00000000000E+00 -0.00000000000E+00  0.11368683772E-12  0.17120000000E+03  0.17120000000E+03 0.  0.
         13    1    1    2    0    0 -0.37674396744E+02 -0.24903359390E+02  0.23601630657E+03  0.24029824304E+03  0.10566000000E+00 0. -1.
        994    1    1    2    0    0  0.40663611440E+02  0.26154734224E+02  0.11386201887E+02  0.17826016103E+03  0.17120000000E+03 0.  0.
        998    1    1    2    0    0 -0.29892146959E+01 -0.12513748343E+01  0.12525974878E+04  0.12526415959E+04  0.10000000000E+02 0.  0.
</event>
<event>
 5    1  0.1129619E-008  0.3850600E+03  0.7957747E-01  0.3429418E+00
         13   -1    0    0    0    0  0.00000000000E+00  0.00000000000E+00  0.14999999963E+04  0.15000000000E+04  0.10566000000E+00 0.  1.
        994   -1    0    0    0    0 -0.00000000000E+00 -0.00000000000E+00  0.11368683772E-12  0.17120000000E+03  0.17120000000E+03 0.  0.
         13    1    1    2    0    0  0.70815292707E+01 -0.14103283382E+02  0.88710521679E+02  0.90103376626E+02  0.10566000000E+00 0.  1.
        994    1    1    2    0    0  0.11341181476E+02 -0.16832466128E+01  0.20326817067E+01  0.17159553465E+03  0.17120000000E+03 0.  0.
        998    1    1    2    0    0 -0.18422710747E+02  0.15786529995E+02  0.14092567929E+04  0.14095010887E+04  0.10000000000E+02 0.  1.
</event>
<event>
 5    1  0.1129619E-008  0.3829107E+03  0.7957747E-01  0.3438582E+00
         13   -1    0    0    0    0  0.00000000000E+00  0.00000000000E+00  0.14999999963E+04  0.15000000000E+04  0.10566000000E+00 0. -1.
        994   -1    0    0    0    0 -0.00000000000E+00 -0.00000000000E+00  0.11368683772E-12  0.17120000000E+03  0.17120000000E+03 0.  0.
         13    1    1    2    0    0 -0.27818300581E+02  0.54893804813E+01  0.13580680729E+03  0.13873532793E+03  0.10566000000E+00 0. -1.
        994    1    1    2    0    0  0.34996263394E+02  0.15895047920E+02  0.75782280126E+01  0.17562534139E+03  0.17120000000E+03 0.  0.
        998    1    1    2    0    0 -0.71779628134E+01 -0.21384428401E+02  0.13566149610E+04  0.13568393307E+04  0.10000000000E+02 0. -1.
</event>
<event>
 5    1  0.1129619E-008  0.3808353E+03  0.7957747E-01  0.3447529E+00
         13   -1    0    0    0    0  0.00000000000E+00  0.00000000000E+00  0.14999999963E+04  0.15000000000E+04  0.10566000000E+00 0.  1.
        994   -1    0    0    0    0 -0.00000000000E+00 -0.00000000000E+00  0.11368683772E-12  0.17120000000E+03  0.17120000000E+03 0.  0.
         13    1    1    2    0    0  0.24386074105E+02  0.29860513781E+02  0.19217707850E+03  0.19600604980E+03  0.10566000000E+00 0.  1.
        994    1    1    2    0    0 -0.30978432188E+02 -0.10053472179E+02  0.72563452794E+01  0.17442141529E+03  0.17120000000E+03 0.  0.
        998    1    1    2    0    0  0.65923580826E+01 -0.19807041602E+02  0.13005665725E+04  0.13007725349E+04  0.10000000000E+02 0.  1.
</event>
<event>
 5    1  0.1129619E-008  0.3795499E+03  0.7957747E-01  0.3453121E+00
         13   -1    0    0    0    0  0.00000000000E+00  0.00000000000E+00  0.14999999963E+04  0.15000000000E+04  0.10566000000E+00 0. -1.
        994   -1    0    0    0    0 -0.00000000000E+00 -0.00000000000E+00  0.11368683772E-12  0.17120000000E+03  0.17120000000E+03 0.  0.
         13    1    1    2    0    0  0.31040273944E+02  0.22442758063E+02  0.19286395890E+03  0.19663085669E+03  0.10566000000E+00 0. -1.
        994    1    1    2    0    0  0.57164946936E+01 -0.12011702471E+02  0.49531645614E+01  0.17178746505E+03  0.17120000000E+03 0.  0.
        998    1    1    2    0    0 -0.36756768638E+02 -0.10431055592E+02  0.13021828728E+04  0.13027816783E+04  0.10000000000E+02 0. -1.
</event>
<event>
 5    1  0.1129619E-008  0.4144654E+03  0.7957747E-01  0.3313575E+00
         13   -1    0    0    0    0  0.00000000000E+00  0.00000000000E+00  0.14999999963E+04  0.15000000000E+04  0.10566000000E+00 0.  1.
        994   -1    0    0    0    0 -0.00000000000E+00 -0.00000000000E+00  0.11368683772E-12  0.17120000000E+03  0.17120000000E+03 0.  0.
         13    1    1    2    0    0 -0.67576988258E+02 -0.32771472385E+02  0.63530591443E+02  0.98370554321E+02  0.10566000000E+00 0.  1.
        994    1    1    2    0    0  0.58812800051E+02  0.36524083201E+02  0.56963460497E+02  0.19325431414E+03  0.17120000000E+03 0.  0.
        998    1    1    2    0    0  0.87641882070E+01 -0.37526108159E+01  0.13795059443E+04  0.13795751315E+04  0.10000000000E+02 0.  1.
</event>
<event>
 5    1  0.1129619E-008  0.3726892E+03  0.7957747E-01  0.3483622E+00
         13   -1    0    0    0    0  0.00000000000E+00  0.00000000000E+00  0.14999999963E+04  0.15000000000E+04  0.10566000000E+00 0. -1.
        994   -1    0    0    0    0 -0.00000000000E+00 -0.00000000000E+00  0.11368683772E-12  0.17120000000E+03  0.17120000000E+03 0.  0.
         13    1    1    2    0    0  0.38533352352E+02 -0.82179205691E+01  0.91047810339E+02  0.99207199303E+02  0.10566000000E+00 0. -1.
        994    1    1    2    0    0 -0.33451365620E+02  0.25273059624E+02  0.13916017364E+02  0.17680728759E+03  0.17120000000E+03 0.  0.
        998    1    1    2    0    0 -0.50819867323E+01 -0.17055139055E+02  0.13950361686E+04  0.13951855131E+04  0.10000000000E+02 0. -1.
</event>
<event>
 5    1  0.1129619E-008  0.3732880E+03  0.7957747E-01  0.3480915E+00
         13   -1    0    0    0    0  0.00000000000E+00  0.00000000000E+00  0.14999999963E+04  0.15000000000E+04  0.10566000000E+00 0.  1.
        994   -1    0    0    0    0 -0.00000000000E+00 -0.00000000000E+00  0.11368683772E-12  0.17120000000E+03  0.17120000000E+03 0.  0.
         13    1    1    2    0    0 -0.72611241889E+01 -0.76758089412E+01  0.38276495117E+01  0.11238506672E+02  0.10566000000E+00 0.  1.
        994    1    1    2    0    0  0.85121587019E+01  0.86598795115E+01  0.80647760427E+01  0.17181947204E+03  0.17120000000E+03 0.  0.
        998    1    1    2    0    0 -0.12510345130E+01 -0.98407057038E+00  0.14881075707E+04  0.14881420213E+04  0.10000000000E+02 0.  1.
</event>
<event>
 5    1  0.1129619E-008  0.3774803E+03  0.7957747E-01  0.3462204E+00
         13   -1    0    0    0    0  0.00000000000E+00  0.00000000000E+00  0.14999999963E+04  0.15000000000E+04  0.10566000000E+00 0.  1.
        994   -1    0    0    0    0 -0.00000000000E+00 -0.00000000000E+00  0.11368683772E-12  0.17120000000E+03  0.17120000000E+03 0.  0.
         13    1    1    2    0    0  0.20941456464E+02  0.14215392723E+02  0.62904424261E+02  0.67805602606E+02  0.10566000000E+00 0.  1.
        994    1    1    2    0    0  0.11289858176E+02 -0.45274475159E-01  0.58403298507E+01  0.17167123347E+03  0.17120000000E+03 0.  0.
        998    1    1    2    0    0 -0.32231314640E+02 -0.14170118248E+02  0.14312552422E+04  0.14317231639E+04  0.10000000000E+02 0.  1.
</event>
<event>
 5    1  0.1129619E-008  0.3920887E+03  0.7957747E-01  0.3400153E+00
         13   -1    0    0    0    0  0.00000000000E+00  0.00000000000E+00  0.14999999963E+04  0.15000000000E+04  0.10566000000E+00 0.  1.
        994   -1    0    0    0    0 -0.00000000000E+00 -0.00000000000E+00  0.11368683772E-12  0.17120000000E+03  0.17120000000E+03 0.  0.
         13    1    1    2    0    0 -0.31557616140E+02  0.93862603089E+02  0.25093405880E+03  0.26976653689E+03  0.10566000000E+00 0.  1.
        994    1    1    2    0    0 -0.70342272300E+01 -0.19388784796E+02  0.24747940820E+02  0.17420478152E+03  0.17120000000E+03 0.  0.
        998    1    1    2    0    0  0.38591843370E+02 -0.74473818293E+02  0.12243179967E+04  0.12272286816E+04  0.10000000000E+02 0.  1.
</event>
<event>
 5    1  0.1129619E-008  0.3805735E+03  0.7957747E-01  0.3448665E+00
         13   -1    0    0    0    0  0.00000000000E+00  0.00000000000E+00  0.14999999963E+04  0.15000000000E+04  0.10566000000E+00 0. -1.
        994   -1    0    0    0    0 -0.00000000000E+00 -0.00000000000E+00  0.11368683772E-12  0.17120000000E+03  0.17120000000E+03 0.  0.
         13    1    1    2    0    0  0.76339669773E+01  0.10300522008E+02  0.19931216217E+02  0.23699003130E+02  0.10566000000E+00 0. -1.
        994    1    1    2    0    0 -0.32156441272E+01 -0.57003015553E+01  0.39868724770E+01  0.17137143565E+03  0.17120000000E+03 0.  0.
        998    1    1    2    0    0 -0.44183228501E+01 -0.46002204523E+01  0.14760819076E+04  0.14761295612E+04  0.10000000000E+02 0. -1.
</event>
<event>
 5    1  0.1129619E-008  0.3837046E+03  0.7957747E-01  0.3435185E+00
         13   -1    0    0    0    0  0.00000000000E+00  0.00000000000E+00  0.14999999963E+04  0.15000000000E+04  0.10566000000E+00 0. -1.
        994   -1    0    0    0    0 -0.00000000000E+00 -0.00000000000E+00  0.11368683772E-12  0.17120000000E+03  0.17120000000E+03 0.  0.
         13    1    1    2    0    0 -0.13997558677E+00 -0.23506694344E+02  0.12119049849E+03  0.12344931090E+03  0.10566000000E+00 0. -1.
        994    1    1    2    0    0  0.10068058860E+02  0.14222875413E+02  0.32780929424E+01  0.17211578047E+03  0.17120000000E+03 0.  0.
        998    1    1    2    0    0 -0.99280832728E+01  0.92838189307E+01  0.13755314048E+04  0.13756349086E+04  0.10000000000E+02 0. -1.
</event>
<event>
 5    1  0.1368895E-008  0.3861024E+03  0.7957747E-01  0.3425010E+00
         13   -1    0    0    0    0  0.00000000000E+00  0.00000000000E+00  0.14999999963E+04  0.15000000000E+04  0.10566000000E+00 0.  1.
        994   -1    0    0    0    0 -0.00000000000E+00 -0.00000000000E+00  0.11368683772E-12  0.17120000000E+03  0.17120000000E+03 0.  0.
         13    1    1    2    0    0  0.52984869956E+01 -0.10049674051E+02  0.56249098458E+02  0.57385034237E+02  0.10566000000E+00 0.  1.
        994    1    1    2    0    0 -0.63658785132E+01  0.16498504656E+02  0.21092662007E+01  0.17212383353E+03  0.17120000000E+03 0.  0.
        998    1    1    2    0    0  0.10673915176E+01 -0.64488306048E+01  0.14416416316E+04  0.14416911322E+04  0.10000000000E+02 0.  1.
</event>
<event>
 5    1  0.1129619E-008  0.3715269E+03  0.7957747E-01  0.3488903E+00
         13   -1    0    0    0    0  0.00000000000E+00  0.00000000000E+00  0.14999999963E+04  0.15000000000E+04  0.10566000000E+00 0. -1.
        994   -1    0    0    0    0 -0.00000000000E+00 -0.00000000000E+00  0.11368683772E-12  0.17120000000E+03  0.17120000000E+03 0.  0.
         13    1    1    2    0    0 -0.40967901420E+01 -0.32412340079E+02  0.40986926052E+02  0.52414528044E+02  0.10566000000E+00 0. -1.
        994    1    1    2    0    0  0.12291239599E+01  0.21203899212E+02  0.13335627124E+02  0.17302715116E+03  0.17120000000E+03 0.  0.
        998    1    1    2    0    0  0.28676661820E+01  0.11208440867E+02  0.14456774431E+04  0.14457583208E+04  0.10000000000E+02 0. -1.
</event>
<event>
 5    1  0.1129619E-008  0.3763407E+03  0.7957747E-01  0.3467249E+00
         13   -1    0    0    0    0  0.00000000000E+00  0.00000000000E+00  0.14999999963E+04  0.15000000000E+04  0.10566000000E+00 0. -1.
        994   -1    0    0    0    0 -0.00000000000E+00 -0.00000000000E+00  0.11368683772E-12  0.17120000000E+03  0.17120000000E+03 0.  0.
         13    1    1    2    0    0 -0.38561529478E+01  0.26857564979E+02  0.55934289289E+02  0.62167954724E+02  0.10566000000E+00 0. -1.
        994    1    1    2    0    0  0.92495042867E+01 -0.32815068233E+02  0.99353517684E+01  0.17484431145E+03  0.17120000000E+03 0.  0.
        998    1    1    2    0    0 -0.53933513389E+01  0.59575032537E+01  0.14341303552E+04  0.14341877338E+04  0.10000000000E+02 0. -1.
</event>
<event>
 5    1  0.1129619E-008  0.3818170E+03  0.7957747E-01  0.3443285E+00
         13   -1    0    0    0    0  0.00000000000E+00  0.00000000000E+00  0.14999999963E+04  0.15000000000E+04  0.10566000000E+00 0. -1.
        994   -1    0    0    0    0 -0.00000000000E+00 -0.00000000000E+00  0.11368683772E-12  0.17120000000E+03  0.17120000000E+03 0.  0.
         13    1    1    2    0    0  0.13119502705E+02 -0.12821802633E+02  0.49740329377E+02  0.53015389318E+02  0.10566000000E+00 0. -1.
        994    1    1    2    0    0 -0.10240979137E+02  0.16523984488E+02  0.44755642584E+01  0.17235831977E+03  0.17120000000E+03 0.  0.
        998    1    1    2    0    0 -0.28785235677E+01 -0.37021818552E+01  0.14457841026E+04  0.14458262909E+04  0.10000000000E+02 0. -1.
</event>
<event>
 5    1  0.1129619E-008  0.3814173E+03  0.7957747E-01  0.3445010E+00
         13   -1    0    0    0    0  0.00000000000E+00  0.00000000000E+00  0.14999999963E+04  0.15000000000E+04  0.10566000000E+00 0.  1.
        994   -1    0    0    0    0 -0.00000000000E+00 -0.00000000000E+00  0.11368683772E-12  0.17120000000E+03  0.17120000000E+03 0.  0.
         13    1    1    2    0    0 -0.18126052915E+02  0.21616217791E+02  0.11952100377E+03  0.12280511460E+03  0.10566000000E+00 0.  1.
        994    1    1    2    0    0  0.54686214282E+01 -0.98733484891E+01  0.38433790030E+01  0.17161468583E+03  0.17120000000E+03 0.  0.
        998    1    1    2    0    0  0.12657431487E+02 -0.11742869302E+02  0.13766356135E+04  0.13767801996E+04  0.10000000000E+02 0.  1.
</event>
<event>
 5    1  0.1129619E-008  0.3821851E+03  0.7957747E-01  0.3441699E+00
         13   -1    0    0    0    0  0.00000000000E+00  0.00000000000E+00  0.14999999963E+04  0.15000000000E+04  0.10566000000E+00 0.  1.
        994   -1    0    0    0    0 -0.00000000000E+00 -0.00000000000E+00  0.11368683772E-12  0.17120000000E+03  0.17120000000E+03 0.  0.
         13    1    1    2    0    0  0.40651005501E+01  0.13134867753E+02  0.30015114988E+02  0.33014664699E+02  0.10566000000E+00 0.  1.
        994    1    1    2    0    0 -0.98099542166E+01 -0.71193953632E+01  0.35219184245E+01  0.17166468740E+03  0.17120000000E+03 0.  0.
        998    1    1    2    0    0  0.57448536665E+01 -0.60154723902E+01  0.14664629629E+04  0.14665206479E+04  0.10000000000E+02 0.  1.
</event>
<event>
 5    1  0.1129619E-008  0.3880128E+03  0.7957747E-01  0.3416994E+00
         13   -1    0    0    0    0  0.00000000000E+00  0.00000000000E+00  0.14999999963E+04  0.15000000000E+04  0.10566000000E+00 0. -1.
        994   -1    0    0    0    0 -0.00000000000E+00 -0.00000000000E+00  0.11368683772E-12  0.17120000000E+03  0.17120000000E+03 0.  0.
         13    1    1    2    0    0  0.39980891369E+02 -0.94451014714E+02  0.44357960683E+03  0.45528270846E+03  0.10566000000E+00 0. -1.
        994    1    1    2    0    0 -0.16645672233E+02 -0.35018911605E+02  0.26433872221E+02  0.17751504774E+03  0.17120000000E+03 0.  0.
        998    1    1    2    0    0 -0.23335219137E+02  0.12946992632E+03  0.10299865172E+04  0.10384022438E+04  0.10000000000E+02 0. -1.
</event>
<event>
 5    1  0.1129619E-008  0.3826739E+03  0.7957747E-01  0.3439598E+00
         13   -1    0    0    0    0  0.00000000000E+00  0.00000000000E+00  0.14999999963E+04  0.15000000000E+04  0.10566000000E+00 0.  1.
        994   -1    0    0    0    0 -0.00000000000E+00 -0.00000000000E+00  0.11368683772E-12  0.17120000000E+03  0.17120000000E+03 0.  0.
         13    1    1    2    0    0  0.10390145574E+02 -0.10005579982E+02  0.35843036968E+02  0.38636785826E+02  0.10566000000E+00 0.  1.
        994    1    1    2    0    0 -0.11995386441E+02  0.69647676463E+01  0.34271985559E+01  0.17179517739E+03  0.17120000000E+03 0.  0.
        998    1    1    2    0    0  0.16052408666E+01  0.30408123360E+01  0.14607297608E+04  0.14607680368E+04  0.10000000000E+02 0.  1.
</event>
<event>
 5    1  0.1129619E-008  0.3811114E+03  0.7957747E-01  0.3446334E+00
         13   -1    0    0    0    0  0.00000000000E+00  0.00000000000E+00  0.14999999963E+04  0.15000000000E+04  0.10566000000E+00 0. -1.
        994   -1    0    0    0    0 -0.00000000000E+00 -0.00000000000E+00  0.11368683772E-12  0.17120000000E+03  0.17120000000E+03 0.  0.
         13    1    1    2    0    0  0.16415082624E+02 -0.12886162690E+02  0.60156881269E+02  0.63673932300E+02  0.10566000000E+00 0. -1.
        994    1    1    2    0    0 -0.17942938421E+01  0.16606846950E+02  0.45030231819E+01  0.17207185730E+03  0.17120000000E+03 0.  0.
        998    1    1    2    0    0 -0.14620788782E+02 -0.37206842598E+01  0.14353400918E+04  0.14354542104E+04  0.10000000000E+02 0. -1.
</event>
<event>
 5    1  0.1129619E-008  0.3751335E+03  0.7957747E-01  0.3472626E+00
         13   -1    0    0    0    0  0.00000000000E+00  0.00000000000E+00  0.14999999963E+04  0.15000000000E+04  0.10566000000E+00 0.  1.
        994   -1    0    0    0    0 -0.00000000000E+00 -0.00000000000E+00  0.11368683772E-12  0.17120000000E+03  0.17120000000E+03 0.  0.
         13    1    1    2    0    0  0.38147914240E+02  0.18818179856E+02  0.61866055074E+02  0.75078673326E+02  0.10566000000E+00 0.  1.
        994    1    1    2    0    0 -0.21768749796E+02 -0.11923861922E+02  0.15875600545E+02  0.17371681451E+03  0.17120000000E+03 0.  0.
        998    1    1    2    0    0 -0.16379164443E+02 -0.68943179347E+01  0.14222583407E+04  0.14224045122E+04  0.10000000000E+02 0.  1.
</event>
<event>
 5    1  0.1129619E-008  0.3703156E+03  0.7957747E-01  0.3494442E+00
         13   -1    0    0    0    0  0.00000000000E+00  0.00000000000E+00  0.14999999963E+04  0.15000000000E+04  0.10566000000E+00 0.  1.
        994   -1    0    0    0    0 -0.00000000000E+00 -0.00000000000E+00  0.11368683772E-12  0.17120000000E+03  0.17120000000E+03 0.  0.
         13    1    1    2    0    0 -0.15945358761E+02  0.51356780132E+02  0.18762192258E+03  0.19517625452E+03  0.10566000000E+00 0.  1.
        994    1    1    2    0    0  0.75183091891E+01  0.63348963811E+01  0.94380909672E+01  0.17174158916E+03  0.17120000000E+03 0.  0.
        998    1    1    2    0    0  0.84270495715E+01 -0.57691676513E+02  0.13029399827E+04  0.13042821563E+04  0.10000000000E+02 0.  1.
</event>
<event>
 5    1  0.1129619E-008  0.3695424E+03  0.7957747E-01  0.3497997E+00
         13   -1    0    0    0    0  0.00000000000E+00  0.00000000000E+00  0.14999999963E+04  0.15000000000E+04  0.10566000000E+00 0. -1.
        994   -1    0    0    0    0 -0.00000000000E+00 -0.00000000000E+00  0.11368683772E-12  0.17120000000E+03  0.17120000000E+03 0.  0.
         13    1    1    2    0    0 -0.45184539588E+02 -0.28301492752E+02  0.18205138790E+03  0.18969801293E+03  0.10566000000E+00 0. -1.
        994    1    1    2    0    0 -0.21797811126E+01 -0.17983483672E+02  0.10645693018E+02  0.17248457296E+03  0.17120000000E+03 0.  0.
        998    1    1    2    0    0  0.47364320701E+02  0.46284976424E+02  0.13073029154E+04  0.13090174141E+04  0.10000000000E+02 0. -1.
</event>
<event>
 5    1  0.1129619E-008  0.3785116E+03  0.7957747E-01  0.3457665E+00
         13   -1    0    0    0    0  0.00000000000E+00  0.00000000000E+00  0.14999999963E+04  0.15000000000E+04  0.10566000000E+00 0.  1.
        994   -1    0    0    0    0 -0.00000000000E+00 -0.00000000000E+00  0.11368683772E-12  0.17120000000E+03  0.17120000000E+03 0.  0.
         13    1    1    2    0    0 -0.48482285447E+02  0.90043652419E+01  0.24312911337E+03  0.24807939763E+03  0.10566000000E+00 0.  1.
        994    1    1    2    0    0  0.35534284510E+02  0.19563149490E+02  0.10433943623E+02  0.17624899822E+03  0.17120000000E+03 0.  0.
        998    1    1    2    0    0  0.12948000937E+02 -0.28567514732E+02  0.12464369393E+04  0.12468716042E+04  0.10000000000E+02 0.  1.
</event>
<event>
 5    1  0.1129619E-008  0.3684688E+03  0.7957747E-01  0.3502958E+00
         13   -1    0    0    0    0  0.00000000000E+00  0.00000000000E+00  0.14999999963E+04  0.15000000000E+04  0.10566000000E+00 0.  1.
        994   -1    0    0    0    0 -0.00000000000E+00 -0.00000000000E+00  0.11368683772E-12  0.17120000000E+03  0.17120000000E+03 0.  0.
         13    1    1    2    0    0 -0.79848747138E+02  0.59695944138E+02  0.58835725476E+03  0.59674424887E+03  0.10566000000E+00 0.  1.
        994    1    1    2    0    0  0.29292713144E+02 -0.28159984724E+02  0.15894699232E+02  0.17667237828E+03  0.17120000000E+03 0.  0.
        998    1    1    2    0    0  0.50556033994E+02 -0.31535959414E+02  0.89574804229E+03  0.89778337285E+03  0.10000000000E+02 0. -1.
</event>
<event>
 5    1  0.1129619E-008  0.3839309E+03  0.7957747E-01  0.3434219E+00
         13   -1    0    0    0    0  0.00000000000E+00  0.00000000000E+00  0.14999999963E+04  0.15000000000E+04  0.10566000000E+00 0.  1.
        994   -1    0    0    0    0 -0.00000000000E+00 -0.00000000000E+00  0.11368683772E-12  0.17120000000E+03  0.17120000000E+03 0.  0.
         13    1    1    2    0    0  0.27013352679E+01  0.11938977121E+02  0.33309215518E+02  0.35487341256E+02  0.10566000000E+00 0.  1.
        994    1    1    2    0    0 -0.57737068357E+01 -0.12907816412E+02  0.28219657411E+01  0.17180614339E+03  0.17120000000E+03 0.  0.
        998    1    1    2    0    0  0.30723715678E+01  0.96883929115E+00  0.14638688150E+04  0.14639065154E+04  0.10000000000E+02 0.  1.
</event>
<event>
 5    1  0.1129619E-008  0.3841168E+03  0.7957747E-01  0.3433426E+00
         13   -1    0    0    0    0  0.00000000000E+00  0.00000000000E+00  0.14999999963E+04  0.15000000000E+04  0.10566000000E+00 0. -1.
        994   -1    0    0    0    0 -0.00000000000E+00 -0.00000000000E+00  0.11368683772E-12  0.17120000000E+03  0.17120000000E+03 0.  0.
         13    1    1    2    0    0 -0.12568682574E+02 -0.16905702360E+01  0.37493368965E+02  0.39580218415E+02  0.10566000000E+00 0. -1.
        994    1    1    2    0    0  0.14270852809E+02 -0.21565260003E+01  0.27565705667E+01  0.17182941112E+03  0.17120000000E+03 0.  0.
        998    1    1    2    0    0 -0.17021702355E+01  0.38470962364E+01  0.14597500567E+04  0.14597903705E+04  0.10000000000E+02 0. -1.
</event>
<event>
 5    1  0.1129619E-008  0.3837227E+03  0.7957747E-01  0.3435107E+00
         13   -1    0    0    0    0  0.00000000000E+00  0.00000000000E+00  0.14999999963E+04  0.15000000000E+04  0.10566000000E+00 0.  1.
        994   -1    0    0    0    0 -0.00000000000E+00 -0.00000000000E+00  0.11368683772E-12  0.17120000000E+03  0.17120000000E+03 0.  0.
         13    1    1    2    0    0  0.21839604943E+02  0.18328641680E+02  0.16623174429E+03  0.16865915755E+03  0.10566000000E+00 0.  1.
        994    1    1    2    0    0 -0.13915573960E+02 -0.23114953620E+02  0.46732263804E+01  0.17337595948E+03  0.17120000000E+03 0.  0.
        998    1    1    2    0    0 -0.79240309827E+01  0.47863119400E+01  0.13290950256E+04  0.13291648830E+04  0.10000000000E+02 0.  1.
</event>
<event>
 5    1  0.1129619E-008  0.3727974E+03  0.7957747E-01  0.3483133E+00
         13   -1    0    0    0    0  0.00000000000E+00  0.00000000000E+00  0.14999999963E+04  0.15000000000E+04  0.10566000000E+00 0. -1.
        994   -1    0    0    0    0 -0.00000000000E+00 -0.00000000000E+00  0.11368683772E-12  0.17120000000E+03  0.17120000000E+03 0.  0.
         13    1    1    2    0    0  0.26003230546E+02 -0.72832284817E+01  0.23994457017E+02  0.36124209992E+02  0.10566000000E+00 0. -1.
        994    1    1    2    0    0 -0.16676039014E+02  0.24753789491E+02  0.15577288669E+02  0.17447903110E+03  0.17120000000E+03 0.  0.
        998    1    1    2    0    0 -0.93271915322E+01 -0.17470561009E+02  0.14604282506E+04  0.14605967589E+04  0.10000000000E+02 0. -1.
</event>
<event>
 5    1  0.1129619E-008  0.3774414E+03  0.7957747E-01  0.3462375E+00
         13   -1    0    0    0    0  0.00000000000E+00  0.00000000000E+00  0.14999999963E+04  0.15000000000E+04  0.10566000000E+00 0. -1.
        994   -1    0    0    0    0 -0.00000000000E+00 -0.00000000000E+00  0.11368683772E-12  0.17120000000E+03  0.17120000000E+03 0.  0.
         13    1    1    2    0    0  0.89369577991E+01 -0.45627660997E+01  0.67387363216E+01  0.12087587867E+02  0.10566000000E+00 0. -1.
        994    1    1    2    0    0 -0.97908920337E+01  0.39861874245E+01  0.58071595986E+01  0.17162434081E+03  0.17120000000E+03 0.  0.
        998    1    1    2    0    0  0.85393423463E+00  0.57657867516E+00  0.14874541004E+04  0.14874880713E+04  0.10000000000E+02 0. -1.
</event>
<event>
 5    1  0.1129619E-008  0.3959987E+03  0.7957747E-01  0.3384324E+00
         13   -1    0    0    0    0  0.00000000000E+00  0.00000000000E+00  0.14999999963E+04  0.15000000000E+04  0.10566000000E+00 0. -1.
        994   -1    0    0    0    0 -0.00000000000E+00 -0.00000000000E+00  0.11368683772E-12  0.17120000000E+03  0.17120000000E+03 0.  0.
         13    1    1    2    0    0  0.45796615089E+02 -0.21313831061E+02  0.39996387045E+02  0.64430827162E+02  0.10566000000E+00 0. -1.
        994    1    1    2    0    0 -0.43674182423E+02  0.21241061760E+02  0.34549038375E+02  0.18127794396E+03  0.17120000000E+03 0.  0.
        998    1    1    2    0    0 -0.21224326662E+01  0.72769300040E-01  0.14254545709E+04  0.14254912289E+04  0.10000000000E+02 0. -1.
</event>
<event>
 5    1  0.1129619E-008  0.3843362E+03  0.7957747E-01  0.3432492E+00
         13   -1    0    0    0    0  0.00000000000E+00  0.00000000000E+00  0.14999999963E+04  0.15000000000E+04  0.10566000000E+00 0. -1.
        994   -1    0    0    0    0 -0.00000000000E+00 -0.00000000000E+00  0.11368683772E-12  0.17120000000E+03  0.17120000000E+03 0.  0.
         13    1    1    2    0    0  0.22318676764E+02 -0.17466460862E+01  0.12625826597E+03  0.12822766860E+03  0.10566000000E+00 0. -1.
        994    1    1    2    0    0 -0.14359392715E+02  0.12308084378E+02  0.31397537199E+01  0.17227007620E+03  0.17120000000E+03 0.  0.
        998    1    1    2    0    0 -0.79592840488E+01 -0.10561438292E+02  0.13706019766E+04  0.13707022552E+04  0.10000000000E+02 0. -1.
</event>
<event>
 5    1  0.1129619E-008  0.3773054E+03  0.7957747E-01  0.3462976E+00
         13   -1    0    0    0    0  0.00000000000E+00  0.00000000000E+00  0.14999999963E+04  0.15000000000E+04  0.10566000000E+00 0. -1.
        994   -1    0    0    0    0 -0.00000000000E+00 -0.00000000000E+00  0.11368683772E-12  0.17120000000E+03  0.17120000000E+03 0.  0.
         13    1    1    2    0    0 -0.54277873489E+01  0.89222275988E+01  0.74213254672E+01  0.12812269766E+02  0.10566000000E+00 0. -1.
        994    1    1    2    0    0  0.26951472294E+01 -0.66041381305E+01  0.56712409153E+01  0.17144235601E+03  0.17120000000E+03 0.  0.
        998    1    1    2    0    0  0.27326401195E+01 -0.23180894684E+01  0.14869074299E+04  0.14869453742E+04  0.10000000000E+02 0. -1.
</event>
<event>
 5    1  0.1129619E-008  0.3748615E+03  0.7957747E-01  0.3473842E+00
         13   -1    0    0    0    0  0.00000000000E+00  0.00000000000E+00  0.14999999963E+04  0.15000000000E+04  0.10566000000E+00 0.  1.
        994   -1    0    0    0    0 -0.00000000000E+00 -0.00000000000E+00  0.11368683772E-12  0.17120000000E+03  0.17120000000E+03 0.  0.
         13    1    1    2    0    0 -0.24068921441E+02  0.25258176625E+01  0.15543649430E+02  0.28762978563E+02  0.10566000000E+00 0.  1.
        994    1    1    2    0    0  0.24229589831E+02 -0.19294353071E+02  0.16952436066E+02  0.17480323273E+03  0.17120000000E+03 0.  0.
        998    1    1    2    0    0 -0.16066839012E+00  0.16768535408E+02  0.14675039108E+04  0.14676337887E+04  0.10000000000E+02 0.  1.
</event>
<event>
 5    1  0.1129619E-008  0.3857478E+03  0.7957747E-01  0.3426507E+00
         13   -1    0    0    0    0  0.00000000000E+00  0.00000000000E+00  0.14999999963E+04  0.15000000000E+04  0.10566000000E+00 0.  1.
        994   -1    0    0    0    0 -0.00000000000E+00 -0.00000000000E+00  0.11368683772E-12  0.17120000000E+03  0.17120000000E+03 0.  0.
         13    1    1    2    0    0  0.35980432074E+01 -0.12837448513E+02  0.71826044183E+02  0.73052979312E+02  0.10566000000E+00 0.  1.
        994    1    1    2    0    0 -0.26948301459E+01  0.70667766399E+01  0.14470201284E+01  0.17137308805E+03  0.17120000000E+03 0.  0.
        998    1    1    2    0    0 -0.90321306149E+00  0.57706718731E+01  0.14267269320E+04  0.14267739326E+04  0.10000000000E+02 0.  1.
</event>
<event>
 5    1  0.1129619E-008  0.3860749E+03  0.7957747E-01  0.3425126E+00
         13   -1    0    0    0    0  0.00000000000E+00  0.00000000000E+00  0.14999999963E+04  0.15000000000E+04  0.10566000000E+00 0.  1.
        994   -1    0    0    0    0 -0.00000000000E+00 -0.00000000000E+00  0.11368683772E-12  0.17120000000E+03  0.17120000000E+03 0.  0.
         13    1    1    2    0    0 -0.42355207044E+01 -0.10784835367E+02  0.63434893039E+02  0.64484487503E+02  0.10566000000E+00 0.  1.
        994    1    1    2    0    0 -0.41790389232E+01  0.67096821555E+01  0.13022165342E+01  0.17138733900E+03  0.17120000000E+03 0.  0.
        998    1    1    2    0    0  0.84145596276E+01  0.40751532120E+01  0.14352628867E+04  0.14353281735E+04  0.10000000000E+02 0.  1.
</event>
<event>
 5    1  0.1129619E-008  0.3844968E+03  0.7957747E-01  0.3431809E+00
         13   -1    0    0    0    0  0.00000000000E+00  0.00000000000E+00  0.14999999963E+04  0.15000000000E+04  0.10566000000E+00 0.  1.
        994   -1    0    0    0    0 -0.00000000000E+00 -0.00000000000E+00  0.11368683772E-12  0.17120000000E+03  0.17120000000E+03 0.  0.
         13    1    1    2    0    0  0.11688013171E+02 -0.12308857913E+02  0.80368591589E+02  0.82141580902E+02  0.10566000000E+00 0.  1.
        994    1    1    2    0    0 -0.77205551582E+01 -0.26074919299E+01  0.20989708601E+01  0.17140668501E+03  0.17120000000E+03 0.  0.
        998    1    1    2    0    0 -0.39674580124E+01  0.14916349843E+02  0.14175324338E+04  0.14176517341E+04  0.10000000000E+02 0.  1.
</event>
<event>
 5    1  0.1129619E-008  0.3785418E+03  0.7957747E-01  0.3457532E+00
         13   -1    0    0    0    0  0.00000000000E+00  0.00000000000E+00  0.14999999963E+04  0.15000000000E+04  0.10566000000E+00 0. -1.
        994   -1    0    0    0    0 -0.00000000000E+00 -0.00000000000E+00  0.11368683772E-12  0.17120000000E+03  0.17120000000E+03 0.  0.
         13    1    1    2    0    0 -0.38678784895E+02 -0.11109089353E+02  0.19734228925E+03  0.20140370046E+03  0.10566000000E+00 0. -1.
        994    1    1    2    0    0  0.39092155769E+01 -0.20542462480E+02  0.63412685511E+01  0.17258889425E+03  0.17120000000E+03 0.  0.
        998    1    1    2    0    0  0.34769569318E+02  0.31651551833E+02  0.12963164385E+04  0.12972074053E+04  0.10000000000E+02 0. -1.
</event>
<event>
 5    1  0.1129619E-008  0.3806545E+03  0.7957747E-01  0.3448314E+00
         13   -1    0    0    0    0  0.00000000000E+00  0.00000000000E+00  0.14999999963E+04  0.15000000000E+04  0.10566000000E+00 0.  1.
        994   -1    0    0    0    0 -0.00000000000E+00 -0.00000000000E+00  0.11368683772E-12  0.17120000000E+03  0.17120000000E+03 0.  0.
         13    1    1    2    0    0 -0.13718274874E+02  0.50095796977E+01  0.26341398829E+02  0.30119219953E+02  0.10566000000E+00 0.  1.
        994    1    1    2    0    0  0.11239409284E+02 -0.53802729431E+01  0.43212486477E+01  0.17170726498E+03  0.17120000000E+03 0.  0.
        998    1    1    2    0    0  0.24788655902E+01  0.37069324543E+00  0.14693373488E+04  0.14693735151E+04  0.10000000000E+02 0.  1.
</event>
<event>
 5    1  0.1129619E-008  0.3836730E+03  0.7957747E-01  0.3435320E+00
         13   -1    0    0    0    0  0.00000000000E+00  0.00000000000E+00  0.14999999963E+04  0.15000000000E+04  0.10566000000E+00 0. -1.
        994   -1    0    0    0    0 -0.00000000000E+00 -0.00000000000E+00  0.11368683772E-12  0.17120000000E+03  0.17120000000E+03 0.  0.
         13    1    1    2    0    0  0.12500820466E+02  0.81136928187E+01  0.47680118528E+02  0.49955053702E+02  0.10566000000E+00 0. -1.
        994    1    1    2    0    0 -0.13845625315E+02  0.12832092814E+01  0.29292447936E+01  0.17178873200E+03  0.17120000000E+03 0.  0.
        998    1    1    2    0    0  0.13448048490E+01 -0.93969021001E+01  0.14493906330E+04  0.14494562143E+04  0.10000000000E+02 0. -1.
</event>
<event>
 5    1  0.1129619E-008  0.3936331E+03  0.7957747E-01  0.3393863E+00
         13   -1    0    0    0    0  0.00000000000E+00  0.00000000000E+00  0.14999999963E+04  0.15000000000E+04  0.10566000000E+00 0.  1.
        994   -1    0    0    0    0 -0.00000000000E+00 -0.00000000000E+00  0.11368683772E-12  0.17120000000E+03  0.17120000000E+03 0.  0.
         13    1    1    2    0    0  0.46208297050E+02 -0.10844953771E+03  0.23175547565E+03  0.26001369311E+03  0.10566000000E+00 0.  1.
        994    1    1    2    0    0 -0.28610177843E+02  0.11906352463E+03  0.83851320582E+02  0.22657261339E+03  0.17120000000E+03 0.  0.
        998    1    1    2    0    0 -0.17598119207E+02 -0.10613986923E+02  0.11843932000E+04  0.11846136935E+04  0.10000000000E+02 0.  1.
</event>
<event>
 5    1  0.1129619E-008  0.3779761E+03  0.7957747E-01  0.3460019E+00
         13   -1    0    0    0    0  0.00000000000E+00  0.00000000000E+00  0.14999999963E+04  0.15000000000E+04  0.10566000000E+00 0. -1.
        994   -1    0    0    0    0 -0.00000000000E+00 -0.00000000000E+00  0.11368683772E-12  0.17120000000E+03  0.17120000000E+03 0.  0.
         13    1    1    2    0    0  0.11313543517E+02 -0.72700249170E+01  0.15264997040E+02  0.20344061243E+02  0.10566000000E+00 0. -1.
        994    1    1    2    0    0 -0.93775055427E+01  0.42571213562E+01  0.55153308592E+01  0.17159813393E+03  0.17120000000E+03 0.  0.
        998    1    1    2    0    0 -0.19360379746E+01  0.30129035607E+01  0.14792196684E+04  0.14792578048E+04  0.10000000000E+02 0. -1.
</event>
<event>
 5    1  0.1129619E-008  0.3772373E+03  0.7957747E-01  0.3463277E+00
         13   -1    0    0    0    0  0.00000000000E+00  0.00000000000E+00  0.14999999963E+04  0.15000000000E+04  0.10566000000E+00 0.  1.
        994   -1    0    0    0    0 -0.00000000000E+00 -0.00000000000E+00  0.11368683772E-12  0.17120000000E+03  0.17120000000E+03 0.  0.
         13    1    1    2    0    0  0.98818675826E+02 -0.51378118401E+02  0.59532761876E+03  0.60565652524E+03  0.10566000000E+00 0.  1.
        994    1    1    2    0    0 -0.10538287903E+03  0.53077402435E+02  0.54048133748E+02  0.21483342990E+03  0.17120000000E+03 0.  0.
        998    1    1    2    0    0  0.65642032076E+01 -0.16992840333E+01  0.85062424377E+03  0.85071004485E+03  0.10000000000E+02 0.  1.
</event>
<event>
 5    1  0.1129619E-008  0.3854500E+03  0.7957747E-01  0.3427766E+00
         13   -1    0    0    0    0  0.00000000000E+00  0.00000000000E+00  0.14999999963E+04  0.15000000000E+04  0.10566000000E+00 0. -1.
        994   -1    0    0    0    0 -0.00000000000E+00 -0.00000000000E+00  0.11368683772E-12  0.17120000000E+03  0.17120000000E+03 0.  0.
         13    1    1    2    0    0 -0.92021300431E+01  0.11733459635E+02  0.74677417634E+02  0.76151698214E+02  0.10566000000E+00 0. -1.
        994    1    1    2    0    0  0.17799192976E+02 -0.93729092700E+01  0.27368745547E+01  0.17239951619E+03  0.17120000000E+03 0.  0.
        998    1    1    2    0    0 -0.85970629324E+01 -0.23605503648E+01  0.14225857041E+04  0.14226487856E+04  0.10000000000E+02 0. -1.
</event>
<event>
 5    1  0.1129619E-008  0.3834245E+03  0.7957747E-01  0.3436382E+00
         13   -1    0    0    0    0  0.00000000000E+00  0.00000000000E+00  0.14999999963E+04  0.15000000000E+04  0.10566000000E+00 0. -1.
        994   -1    0    0    0    0 -0.00000000000E+00 -0.00000000000E+00  0.11368683772E-12  0.17120000000E+03  0.17120000000E+03 0.  0.
         13    1    1    2    0    0  0.17297794785E+02  0.32406084208E+01  0.64839787663E+02  0.67185746074E+02  0.10566000000E+00 0. -1.
        994    1    1    2    0    0 -0.62729828496E+01 -0.74476724851E+01  0.27278571919E+01  0.17149839458E+03  0.17120000000E+03 0.  0.
        998    1    1    2    0    0 -0.11024811935E+02  0.42070640644E+01  0.14324323514E+04  0.14325158593E+04  0.10000000000E+02 0. -1.
</event>
<event>
 5    1  0.1129619E-008  0.3831576E+03  0.7957747E-01  0.3437524E+00
         13   -1    0    0    0    0  0.00000000000E+00  0.00000000000E+00  0.14999999963E+04  0.15000000000E+04  0.10566000000E+00 0. -1.
        994   -1    0    0    0    0 -0.00000000000E+00 -0.00000000000E+00  0.11368683772E-12  0.17120000000E+03  0.17120000000E+03 0.  0.
         13    1    1    2    0    0 -0.27580182467E+02 -0.82983788765E+01  0.15072540251E+03  0.15345255841E+03  0.10566000000E+00 0. -1.
        994    1    1    2    0    0  0.24052407253E+02  0.12031137277E+02  0.49441388598E+01  0.17336998318E+03  0.17120000000E+03 0.  0.
        998    1    1    2    0    0  0.35277752148E+01 -0.37327584010E+01  0.13443304549E+04  0.13443774584E+04  0.10000000000E+02 0. -1.
</event>
<event>
 5    1  0.1733659E-008  0.3862865E+03  0.7957747E-01  0.3424234E+00
         13   -1    0    0    0    0  0.00000000000E+00  0.00000000000E+00  0.14999999963E+04  0.15000000000E+04  0.10566000000E+00 0. -1.
        994   -1    0    0    0    0 -0.00000000000E+00 -0.00000000000E+00  0.11368683772E-12  0.17120000000E+03  0.17120000000E+03 0.  0.
         13    1    1    2    0    0  0.75484684339E+01  0.95371995264E+01  0.73405716164E+02  0.74406638683E+02  0.10566000000E+00 0. -1.
        994    1    1    2    0    0 -0.82961890972E+01 -0.84036515565E+01  0.14495549297E+01  0.17161290547E+03  0.17120000000E+03 0.  0.
        998    1    1    2    0    0  0.74772066336E+00 -0.11335479699E+01  0.14251447252E+04  0.14251804559E+04  0.10000000000E+02 0.  0.
</event>
<event>
 5    1  0.1129619E-008  0.3836184E+03  0.7957747E-01  0.3435553E+00
         13   -1    0    0    0    0  0.00000000000E+00  0.00000000000E+00  0.14999999963E+04  0.15000000000E+04  0.10566000000E+00 0.  1.
        994   -1    0    0    0    0 -0.00000000000E+00 -0.00000000000E+00  0.11368683772E-12  0.17120000000E+03  0.17120000000E+03 0.  0.
         13    1    1    2    0    0  0.12348168290E+02  0.40669171970E+01  0.36475057683E+02  0.38722836577E+02  0.10566000000E+00 0.  1.
        994    1    1    2    0    0 -0.15311033221E+01 -0.90762822195E+01  0.25975692222E+01  0.17146693717E+03  0.17120000000E+03 0.  0.
        998    1    1    2    0    0 -0.10817064967E+02  0.50093650226E+01  0.14609273694E+04  0.14610102263E+04  0.10000000000E+02 0.  1.
</event>
<event>
 5    1  0.1129619E-008  0.3809834E+03  0.7957747E-01  0.3446888E+00
         13   -1    0    0    0    0  0.00000000000E+00  0.00000000000E+00  0.14999999963E+04  0.15000000000E+04  0.10566000000E+00 0.  1.
        994   -1    0    0    0    0 -0.00000000000E+00 -0.00000000000E+00  0.11368683772E-12  0.17120000000E+03  0.17120000000E+03 0.  0.
         13    1    1    2    0    0  0.31619674117E+02  0.13982687985E+02  0.14731049885E+03  0.15131329614E+03  0.10566000000E+00 0.  1.
        994    1    1    2    0    0 -0.29052252743E+02 -0.23406391167E+02  0.82893918104E+01  0.17541392919E+03  0.17120000000E+03 0.  0.
        998    1    1    2    0    0 -0.25674213739E+01  0.94237031827E+01  0.13444001056E+04  0.13444727747E+04  0.10000000000E+02 0.  1.
</event>
<event>
 5    1  0.1129619E-008  0.3935316E+03  0.7957747E-01  0.3394275E+00
         13   -1    0    0    0    0  0.00000000000E+00  0.00000000000E+00  0.14999999963E+04  0.15000000000E+04  0.10566000000E+00 0. -1.
        994   -1    0    0    0    0 -0.00000000000E+00 -0.00000000000E+00  0.11368683772E-12  0.17120000000E+03  0.17120000000E+03 0.  0.
         13    1    1    2    0    0 -0.94908847114E+02  0.73732095318E+01  0.19027312473E+03  0.21275790617E+03  0.10566000000E+00 0. -1.
        994    1    1    2    0    0  0.49373535841E+02 -0.17079567577E+02  0.34453384375E+02  0.18227982161E+03  0.17120000000E+03 0.  0.
        998    1    1    2    0    0  0.45535311272E+02  0.97063580454E+01  0.12752734872E+04  0.12761622722E+04  0.10000000000E+02 0. -1.
</event>
<event>
 5    1  0.1129619E-008  0.3742256E+03  0.7957747E-01  0.3476693E+00
         13   -1    0    0    0    0  0.00000000000E+00  0.00000000000E+00  0.14999999963E+04  0.15000000000E+04  0.10566000000E+00 0.  1.
        994   -1    0    0    0    0 -0.00000000000E+00 -0.00000000000E+00  0.11368683772E-12  0.17120000000E+03  0.17120000000E+03 0.  0.
         13    1    1    2    0    0 -0.11669153929E+02 -0.32656098584E+01  0.70985970423E+01  0.14044023824E+02  0.10566000000E+00 0.  1.
        994    1    1    2    0    0  0.11833756567E+02  0.13778938813E+01  0.75607991301E+01  0.17178050550E+03  0.17120000000E+03 0.  0.
        998    1    1    2    0    0 -0.16460263837E+00  0.18877159771E+01  0.14853406001E+04  0.14853754707E+04  0.10000000000E+02 0.  1.
</event>
<event>
 5    1  0.1129619E-008  0.3701686E+03  0.7957747E-01  0.3495116E+00
         13   -1    0    0    0    0  0.00000000000E+00  0.00000000000E+00  0.14999999963E+04  0.15000000000E+04  0.10566000000E+00 0.  1.
        994   -1    0    0    0    0 -0.00000000000E+00 -0.00000000000E+00  0.11368683772E-12  0.17120000000E+03  0.17120000000E+03 0.  0.
         13    1    1    2    0    0 -0.50674351996E+02  0.71449385944E+02  0.51250638958E+03  0.51993818404E+03  0.10566000000E+00 0.  1.
        994    1    1    2    0    0 -0.17280250313E+02 -0.24273657529E+02  0.14139921870E+02  0.17434791335E+03  0.17120000000E+03 0.  0.
        998    1    1    2    0    0  0.67954602309E+02 -0.47175728415E+02  0.97335368483E+03  0.97691390260E+03  0.10000000000E+02 0.  1.
</event>
<event>
 5    1  0.1129619E-008  0.3700318E+03  0.7957747E-01  0.3495745E+00
         13   -1    0    0    0    0  0.00000000000E+00  0.00000000000E+00  0.14999999963E+04  0.15000000000E+04  0.10566000000E+00 0.  1.
        994   -1    0    0    0    0 -0.00000000000E+00 -0.00000000000E+00  0.11368683772E-12  0.17120000000E+03  0.17120000000E+03 0.  0.
         13    1    1    2    0    0 -0.57883874051E+02  0.48660105977E+01  0.20504504572E+03  0.21311429533E+03  0.10566000000E+00 0.  1.
        994    1    1    2    0    0  0.93019645920E+01 -0.48166072409E+00  0.95524336577E+01  0.17171909484E+03  0.17120000000E+03 0.  0.
        998    1    1    2    0    0  0.48581909459E+02 -0.43843498737E+01  0.12854025169E+04  0.12863666098E+04  0.10000000000E+02 0.  1.
</event>
<event>
 5    1  0.1129619E-008  0.3828294E+03  0.7957747E-01  0.3438930E+00
         13   -1    0    0    0    0  0.00000000000E+00  0.00000000000E+00  0.14999999963E+04  0.15000000000E+04  0.10566000000E+00 0. -1.
        994   -1    0    0    0    0 -0.00000000000E+00 -0.00000000000E+00  0.11368683772E-12  0.17120000000E+03  0.17120000000E+03 0.  0.
         13    1    1    2    0    0  0.44215381625E+02 -0.12903127787E+01  0.47629460104E+02  0.65001857767E+02  0.10566000000E+00 0. -1.
        994    1    1    2    0    0 -0.35463544937E+02  0.33449318982E+01  0.22550112237E+02  0.17631448934E+03  0.17120000000E+03 0.  0.
        998    1    1    2    0    0 -0.87518366887E+01 -0.20546191195E+01  0.14298204239E+04  0.14298836529E+04  0.10000000000E+02 0. -1.
</event>
<event>
 5    1  0.1129619E-008  0.3831276E+03  0.7957747E-01  0.3437652E+00
         13   -1    0    0    0    0  0.00000000000E+00  0.00000000000E+00  0.14999999963E+04  0.15000000000E+04  0.10566000000E+00 0.  1.
        994   -1    0    0    0    0 -0.00000000000E+00 -0.00000000000E+00  0.11368683772E-12  0.17120000000E+03  0.17120000000E+03 0.  0.
         13    1    1    2    0    0  0.10624072809E+02  0.15153513292E+02  0.63259295745E+02  0.65910921328E+02  0.10566000000E+00 0.  1.
        994    1    1    2    0    0 -0.10443864591E+02 -0.17900015657E+02  0.39849741389E+01  0.17249581122E+03  0.17120000000E+03 0.  0.
        998    1    1    2    0    0 -0.18020821796E+00  0.27465023651E+01  0.14327557264E+04  0.14327932675E+04  0.10000000000E+02 0.  1.
</event>
<event>
 5    1  0.1129619E-008  0.3777628E+03  0.7957747E-01  0.3460958E+00
         13   -1    0    0    0    0  0.00000000000E+00  0.00000000000E+00  0.14999999963E+04  0.15000000000E+04  0.10566000000E+00 0. -1.
        994   -1    0    0    0    0 -0.00000000000E+00 -0.00000000000E+00  0.11368683772E-12  0.17120000000E+03  0.17120000000E+03 0.  0.
         13    1    1    2    0    0  0.10258112376E+03 -0.12295256838E+03  0.90204687552E+03  0.91614889500E+03  0.10566000000E+00 0. -1.
        994    1    1    2    0    0 -0.11900780476E+03  0.10821241520E+03  0.98032938996E+02  0.25454406598E+03  0.17120000000E+03 0.  0.
        998    1    1    2    0    0  0.16426681007E+02  0.14740153179E+02  0.49992018177E+03  0.50050703901E+03  0.10000000000E+02 0. -1.
</event>
<event>
 5    1  0.1129619E-008  0.3733474E+03  0.7957747E-01  0.3480647E+00
         13   -1    0    0    0    0  0.00000000000E+00  0.00000000000E+00  0.14999999963E+04  0.15000000000E+04  0.10566000000E+00 0. -1.
        994   -1    0    0    0    0 -0.00000000000E+00 -0.00000000000E+00  0.11368683772E-12  0.17120000000E+03  0.17120000000E+03 0.  0.
         13    1    1    2    0    0  0.29034368226E+02 -0.15809224826E+02  0.70063083399E+02  0.77471110405E+02  0.10566000000E+00 0. -1.
        994    1    1    2    0    0 -0.17885803104E+02  0.88569021701E+01  0.88926639496E+01  0.17258871962E+03  0.17120000000E+03 0.  0.
        998    1    1    2    0    0 -0.11148565122E+02  0.69523226561E+01  0.14210442489E+04  0.14211401700E+04  0.10000000000E+02 0. -1.
</event>
<event>
 5    1  0.1129619E-008  0.3707961E+03  0.7957747E-01  0.3492240E+00
         13   -1    0    0    0    0  0.00000000000E+00  0.00000000000E+00  0.14999999963E+04  0.15000000000E+04  0.10566000000E+00 0.  1.
        994   -1    0    0    0    0 -0.00000000000E+00 -0.00000000000E+00  0.11368683772E-12  0.17120000000E+03  0.17120000000E+03 0.  0.
         13    1    1    2    0    0 -0.61410484853E+02 -0.88503373249E+01  0.14358749325E+03  0.15641916603E+03  0.10566000000E+00 0.  1.
        994    1    1    2    0    0  0.71387713868E+02  0.15235713348E+02  0.30282006911E+02  0.18855973217E+03  0.17120000000E+03 0.  0.
        998    1    1    2    0    0 -0.99772290149E+01 -0.63853760233E+01  0.13261304961E+04  0.13262211018E+04  0.10000000000E+02 0.  1.
</event>
<event>
 5    1  0.1129619E-008  0.3782595E+03  0.7957747E-01  0.3458772E+00
         13   -1    0    0    0    0  0.00000000000E+00  0.00000000000E+00  0.14999999963E+04  0.15000000000E+04  0.10566000000E+00 0. -1.
        994   -1    0    0    0    0 -0.00000000000E+00 -0.00000000000E+00  0.11368683772E-12  0.17120000000E+03  0.17120000000E+03 0.  0.
         13    1    1    2    0    0 -0.25020378625E+02  0.48132102964E+02  0.31898172892E+03  0.32356154473E+03  0.10566000000E+00 0. -1.
        994    1    1    2    0    0 -0.44403574979E+01 -0.26539457797E+02  0.74526170359E+01  0.17346192982E+03  0.17120000000E+03 0.  0.
        998    1    1    2    0    0  0.29460736123E+02 -0.21592645167E+02  0.11735656503E+04  0.11741765255E+04  0.10000000000E+02 0. -1.
</event>
<event>
 5    1  0.1129619E-008  0.3696558E+03  0.7957747E-01  0.3497474E+00
         13   -1    0    0    0    0  0.00000000000E+00  0.00000000000E+00  0.14999999963E+04  0.15000000000E+04  0.10566000000E+00 0. -1.
        994   -1    0    0    0    0 -0.00000000000E+00 -0.00000000000E+00  0.11368683772E-12  0.17120000000E+03  0.17120000000E+03 0.  0.
         13    1    1    2    0    0  0.47746807625E+02  0.15502794469E+02  0.13176926706E+03  0.14100796141E+03  0.10566000000E+00 0. -1.
        994    1    1    2    0    0  0.21643497025E+01  0.12081023522E+02  0.11283086297E+02  0.17200983569E+03  0.17120000000E+03 0.  0.
        998    1    1    2    0    0 -0.49911157328E+02 -0.27583817992E+02  0.13569476429E+04  0.13581822029E+04  0.10000000000E+02 0. -1.
</event>
<event>
 5    1  0.1129619E-008  0.3767458E+03  0.7957747E-01  0.3465451E+00
         13   -1    0    0    0    0  0.00000000000E+00  0.00000000000E+00  0.14999999963E+04  0.15000000000E+04  0.10566000000E+00 0. -1.
        994   -1    0    0    0    0 -0.00000000000E+00 -0.00000000000E+00  0.11368683772E-12  0.17120000000E+03  0.17120000000E+03 0.  0.
         13    1    1    2    0    0  0.11189634665E+02  0.60126957616E+02  0.32319268052E+03  0.32892853155E+03  0.10566000000E+00 0. -1.
        994    1    1    2    0    0 -0.32220629557E+01 -0.34135565960E+02  0.97679950745E+01  0.17487273167E+03  0.17120000000E+03 0.  0.
        998    1    1    2    0    0 -0.79675717090E+01 -0.25991391656E+02  0.11670393207E+04  0.11673987368E+04  0.10000000000E+02 0. -1.
</event>
<event>
 5    1  0.1129619E-008  0.3779495E+03  0.7957747E-01  0.3460136E+00
         13   -1    0    0    0    0  0.00000000000E+00  0.00000000000E+00  0.14999999963E+04  0.15000000000E+04  0.10566000000E+00 0. -1.
        994   -1    0    0    0    0 -0.00000000000E+00 -0.00000000000E+00  0.11368683772E-12  0.17120000000E+03  0.17120000000E+03 0.  0.
         13    1    1    2    0    0 -0.24701523242E+02  0.37442518443E+02  0.20358298047E+03  0.20846618080E+03  0.10566000000E+00 0. -1.
        994    1    1    2    0    0  0.36155498282E+01 -0.19118901737E+02  0.64471559345E+01  0.17242276655E+03  0.17120000000E+03 0.  0.
        998    1    1    2    0    0  0.21085973414E+02 -0.18323616706E+02  0.12899698599E+04  0.12903110527E+04  0.10000000000E+02 0. -1.
</event>
<event>
 5    1  0.1129619E-008  0.3830778E+03  0.7957747E-01  0.3437865E+00
         13   -1    0    0    0    0  0.00000000000E+00  0.00000000000E+00  0.14999999963E+04  0.15000000000E+04  0.10566000000E+00 0.  1.
        994   -1    0    0    0    0 -0.00000000000E+00 -0.00000000000E+00  0.11368683772E-12  0.17120000000E+03  0.17120000000E+03 0.  0.
         13    1    1    2    0    0  0.17393528802E+02 -0.15309915267E+02  0.13035717304E+03  0.13240064983E+03  0.10566000000E+00 0.  1.
        994    1    1    2    0    0  0.18969173805E+02 -0.35581878385E+01  0.38211153179E+01  0.17232681503E+03  0.17120000000E+03 0.  0.
        998    1    1    2    0    0 -0.36362702607E+02  0.18868103105E+02  0.13658217079E+04  0.13664725351E+04  0.10000000000E+02 0.  1.
</event>
<event>
 5    1  0.1129619E-008  0.3767623E+03  0.7957747E-01  0.3465378E+00
         13   -1    0    0    0    0  0.00000000000E+00  0.00000000000E+00  0.14999999963E+04  0.15000000000E+04  0.10566000000E+00 0. -1.
        994   -1    0    0    0    0 -0.00000000000E+00 -0.00000000000E+00  0.11368683772E-12  0.17120000000E+03  0.17120000000E+03 0.  0.
         13    1    1    2    0    0  0.38420819409E+02  0.26235584608E+02  0.22083477868E+03  0.22568224543E+03  0.10566000000E+00 0. -1.
        994    1    1    2    0    0  0.73223963636E+01 -0.14096573748E+02  0.66296113195E+01  0.17206313558E+03  0.17120000000E+03 0.  0.
        998    1    1    2    0    0 -0.45743215772E+02 -0.12139010860E+02  0.12725356063E+04  0.12734546190E+04  0.10000000000E+02 0. -1.
</event>
<event>
 5    1  0.1129619E-008  0.3834123E+03  0.7957747E-01  0.3436434E+00
         13   -1    0    0    0    0  0.00000000000E+00  0.00000000000E+00  0.14999999963E+04  0.15000000000E+04  0.10566000000E+00 0. -1.
        994   -1    0    0    0    0 -0.00000000000E+00 -0.00000000000E+00  0.11368683772E-12  0.17120000000E+03  0.17120000000E+03 0.  0.
         13    1    1    2    0    0 -0.27688348772E+02  0.25241828223E+01  0.14521002142E+03  0.14784781920E+03  0.10566000000E+00 0. -1.
        994    1    1    2    0    0  0.27639712687E+02 -0.92959953749E+01  0.52365619253E+01  0.17374472892E+03  0.17120000000E+03 0.  0.
        998    1    1    2    0    0  0.48636084971E-01  0.67718125526E+01  0.13495534129E+04  0.13496074519E+04  0.10000000000E+02 0. -1.
</event>
<event>
 5    1  0.1129619E-008  0.3699284E+03  0.7957747E-01  0.3496220E+00
         13   -1    0    0    0    0  0.00000000000E+00  0.00000000000E+00  0.14999999963E+04  0.15000000000E+04  0.10566000000E+00 0. -1.
        994   -1    0    0    0    0 -0.00000000000E+00 -0.00000000000E+00  0.11368683772E-12  0.17120000000E+03  0.17120000000E+03 0.  0.
         13    1    1    2    0    0  0.23644146977E+00  0.99896503384E+02  0.44175932291E+03  0.45291354345E+03  0.10566000000E+00 0. -1.
        994    1    1    2    0    0  0.32456165802E+02 -0.82285126613E+02  0.36875558250E+02  0.19619758295E+03  0.17120000000E+03 0.  0.
        998    1    1    2    0    0 -0.32692607272E+02 -0.17611376772E+02  0.10213651151E+04  0.10220888736E+04  0.10000000000E+02 0. -1.
</event>
<event>
 5    1  0.1129619E-008  0.3728910E+03  0.7957747E-01  0.3482709E+00
         13   -1    0    0    0    0  0.00000000000E+00  0.00000000000E+00  0.14999999963E+04  0.15000000000E+04  0.10566000000E+00 0. -1.
        994   -1    0    0    0    0 -0.00000000000E+00 -0.00000000000E+00  0.11368683772E-12  0.17120000000E+03  0.17120000000E+03 0.  0.
         13    1    1    2    0    0  0.43105789863E+02 -0.57197495991E+02  0.26683152939E+03  0.27627656235E+03  0.10566000000E+00 0. -1.
        994    1    1    2    0    0 -0.55394018917E+02  0.50061413266E+02  0.27098613415E+02  0.18872842202E+03  0.17120000000E+03 0.  0.
        998    1    1    2    0    0  0.12288229055E+02  0.71360827244E+01  0.12060698535E+04  0.12061950156E+04  0.10000000000E+02 0. -1.
</event>
<event>
 5    1  0.1129619E-008  0.3814528E+03  0.7957747E-01  0.3444857E+00
         13   -1    0    0    0    0  0.00000000000E+00  0.00000000000E+00  0.14999999963E+04  0.15000000000E+04  0.10566000000E+00 0.  1.
        994   -1    0    0    0    0 -0.00000000000E+00 -0.00000000000E+00  0.11368683772E-12  0.17120000000E+03  0.17120000000E+03 0.  0.
         13    1    1    2    0    0 -0.18352076649E+02  0.32127258499E+01  0.59829155102E+02  0.62663061599E+02  0.10566000000E+00 0.  1.
        994    1    1    2    0    0 -0.26543738767E+02  0.14221363038E+02  0.64243679749E+01  0.17394691644E+03  0.17120000000E+03 0.  0.
        998    1    1    2    0    0  0.44895815416E+02 -0.17434088888E+02  0.14337464732E+04  0.14345900220E+04  0.10000000000E+02 0.  1.
</event>
<event>
 5    1  0.1129619E-008  0.3841007E+03  0.7957747E-01  0.3433495E+00
         13   -1    0    0    0    0  0.00000000000E+00  0.00000000000E+00  0.14999999963E+04  0.15000000000E+04  0.10566000000E+00 0.  1.
        994   -1    0    0    0    0 -0.00000000000E+00 -0.00000000000E+00  0.11368683772E-12  0.17120000000E+03  0.17120000000E+03 0.  0.
         13    1    1    2    0    0 -0.80523839323E+01 -0.94652308020E+01  0.36129251294E+02  0.38206876923E+02  0.10566000000E+00 0.  1.
        994    1    1    2    0    0  0.94909210060E+01  0.74569351614E+01  0.25579363032E+01  0.17164401097E+03  0.17120000000E+03 0.  0.
        998    1    1    2    0    0 -0.14385370737E+01  0.20082956406E+01  0.14613128087E+04  0.14613491121E+04  0.10000000000E+02 0.  1.
</event>
<event>
 5    1  0.1129619E-008  0.3803999E+03  0.7957747E-01  0.3449419E+00
         13   -1    0    0    0    0  0.00000000000E+00  0.00000000000E+00  0.14999999963E+04  0.15000000000E+04  0.10566000000E+00 0. -1.
        994   -1    0    0    0    0 -0.00000000000E+00 -0.00000000000E+00  0.11368683772E-12  0.17120000000E+03  0.17120000000E+03 0.  0.
         13    1    1    2    0    0  0.17944180345E+02 -0.19321125550E+02  0.89888526195E+02  0.93676346034E+02  0.10566000000E+00 0. -1.
        994    1    1    2    0    0 -0.15309937600E+02 -0.56846583198E+00  0.47153997705E+01  0.17194880732E+03  0.17120000000E+03 0.  0.
        998    1    1    2    0    0 -0.26342427455E+01  0.19889591382E+02  0.14053960703E+04  0.14055748466E+04  0.10000000000E+02 0. -1.
</event>
<event>
 5    1  0.1129619E-008  0.3849907E+03  0.7957747E-01  0.3429712E+00
         13   -1    0    0    0    0  0.00000000000E+00  0.00000000000E+00  0.14999999963E+04  0.15000000000E+04  0.10566000000E+00 0.  1.
        994   -1    0    0    0    0 -0.00000000000E+00 -0.00000000000E+00  0.11368683772E-12  0.17120000000E+03  0.17120000000E+03 0.  0.
         13    1    1    2    0    0  0.10098913918E+02  0.99519761577E+00  0.30937832940E+02  0.32559778127E+02  0.10566000000E+00 0.  1.
        994    1    1    2    0    0 -0.73639718043E+01 -0.23262102720E+02  0.35951559862E+01  0.17296739187E+03  0.17120000000E+03 0.  0.
        998    1    1    2    0    0 -0.27349421132E+01  0.22266905105E+02  0.14654670074E+04  0.14656728300E+04  0.10000000000E+02 0.  1.
</event>
<event>
 5    1  0.1129619E-008  0.3723000E+03  0.7957747E-01  0.3485387E+00
         13   -1    0    0    0    0  0.00000000000E+00  0.00000000000E+00  0.14999999963E+04  0.15000000000E+04  0.10566000000E+00 0.  1.
        994   -1    0    0    0    0 -0.00000000000E+00 -0.00000000000E+00  0.11368683772E-12  0.17120000000E+03  0.17120000000E+03 0.  0.
         13    1    1    2    0    0 -0.33996810803E+02  0.41322277115E+02  0.18264563735E+03  0.19032276201E+03  0.10566000000E+00 0.  1.
        994    1    1    2    0    0  0.10814179641E+02 -0.21027463998E+02  0.99921578963E+01  0.17311378900E+03  0.17120000000E+03 0.  0.
        998    1    1    2    0    0  0.23182631162E+02 -0.20294813117E+02  0.13073622010E+04  0.13077634490E+04  0.10000000000E+02 0.  1.
</event>
<event>
 5    1  0.1129619E-008  0.3811252E+03  0.7957747E-01  0.3446274E+00
         13   -1    0    0    0    0  0.00000000000E+00  0.00000000000E+00  0.14999999963E+04  0.15000000000E+04  0.10566000000E+00 0.  1.
        994   -1    0    0    0    0 -0.00000000000E+00 -0.00000000000E+00  0.11368683772E-12  0.17120000000E+03  0.17120000000E+03 0.  0.
         13    1    1    2    0    0 -0.12614568448E+02 -0.36755547835E+01  0.22932672201E+02  0.26430203525E+02  0.10566000000E+00 0.  1.
        994    1    1    2    0    0  0.68733855966E+01  0.81259590007E+00  0.37257831981E+01  0.17138035244E+03  0.17120000000E+03 0.  0.
        998    1    1    2    0    0  0.57411828509E+01  0.28629588834E+01  0.14733415409E+04  0.14733894440E+04  0.10000000000E+02 0.  1.
</event>
<event>
 5    1  0.1129619E-008  0.3841310E+03  0.7957747E-01  0.3433366E+00
         13   -1    0    0    0    0  0.00000000000E+00  0.00000000000E+00  0.14999999963E+04  0.15000000000E+04  0.10566000000E+00 0. -1.
        994   -1    0    0    0    0 -0.00000000000E+00 -0.00000000000E+00  0.11368683772E-12  0.17120000000E+03  0.17120000000E+03 0.  0.
         13    1    1    2    0    0  0.16431220535E+02  0.57382405418E+01  0.70103849882E+02  0.72232079751E+02  0.10566000000E+00 0. -1.
        994    1    1    2    0    0 -0.19540072911E+02  0.16901496835E+00  0.33225086226E+01  0.17234361630E+03  0.17120000000E+03 0.  0.
        998    1    1    2    0    0  0.31088523761E+01 -0.59072555101E+01  0.14265736378E+04  0.14266243040E+04  0.10000000000E+02 0. -1.
</event>
<event>
 5    1  0.1129619E-008  0.3949168E+03  0.7957747E-01  0.3388673E+00
         13   -1    0    0    0    0  0.00000000000E+00  0.00000000000E+00  0.14999999963E+04  0.15000000000E+04  0.10566000000E+00 0. -1.
        994   -1    0    0    0    0 -0.00000000000E+00 -0.00000000000E+00  0.11368683772E-12  0.17120000000E+03  0.17120000000E+03 0.  0.
         13    1    1    2    0    0  0.14733958653E+02  0.94832458316E+01 -0.49018935694E+01  0.18195087625E+02  0.10566000000E+00 0. -1.
        994    1    1    2    0    0 -0.91511256312E+01 -0.19489466054E+02  0.26555285738E+02  0.17458008359E+03  0.17120000000E+03 0.  0.
        998    1    1    2    0    0 -0.55828330219E+01  0.10006220223E+02  0.14783466041E+04  0.14784248288E+04  0.10000000000E+02 0. -1.
</event>
<event>
 5    1  0.1129619E-008  0.3810025E+03  0.7957747E-01  0.3446805E+00
         13   -1    0    0    0    0  0.00000000000E+00  0.00000000000E+00  0.14999999963E+04  0.15000000000E+04  0.10566000000E+00 0.  1.
        994   -1    0    0    0    0 -0.00000000000E+00 -0.00000000000E+00  0.11368683772E-12  0.17120000000E+03  0.17120000000E+03 0.  0.
         13    1    1    2    0    0  0.14404747566E+02  0.16202070271E+01  0.27317103296E+02  0.30925024168E+02  0.10566000000E+00 0.  1.
        994    1    1    2    0    0 -0.12374558291E+02 -0.22184408166E+01  0.41547385766E+01  0.17171124898E+03  0.17120000000E+03 0.  0.
        998    1    1    2    0    0 -0.20301892752E+01  0.59823378951E+00  0.14685281544E+04  0.14685637269E+04  0.10000000000E+02 0.  1.
</event>
<event>
 5    1  0.1129619E-008  0.3690066E+03  0.7957747E-01  0.3500469E+00
         13   -1    0    0    0    0  0.00000000000E+00  0.00000000000E+00  0.14999999963E+04  0.15000000000E+04  0.10566000000E+00 0.  1.
        994   -1    0    0    0    0 -0.00000000000E+00 -0.00000000000E+00  0.11368683772E-12  0.17120000000E+03  0.17120000000E+03 0.  0.
         13    1    1    2    0    0  0.35308470139E+02 -0.15055652795E+02  0.68512272134E+02  0.78532180293E+02  0.10566000000E+00 0.  1.
        994    1    1    2    0    0 -0.35457445680E+02  0.16575953351E+02  0.15123288207E+02  0.17626725881E+03  0.17120000000E+03 0.  0.
        998    1    1    2    0    0  0.14897554053E+00 -0.15203005561E+01  0.14163644359E+04  0.14164005609E+04  0.10000000000E+02 0.  1.
</event>
<event>
 5    1  0.1129619E-008  0.3856019E+03  0.7957747E-01  0.3427123E+00
         13   -1    0    0    0    0  0.00000000000E+00  0.00000000000E+00  0.14999999963E+04  0.15000000000E+04  0.10566000000E+00 0.  1.
        994   -1    0    0    0    0 -0.00000000000E+00 -0.00000000000E+00  0.11368683772E-12  0.17120000000E+03  0.17120000000E+03 0.  0.
         13    1    1    2    0    0  0.12959502008E+02  0.52416650550E+01  0.74431891215E+02  0.75733356843E+02  0.10566000000E+00 0.  1.
        994    1    1    2    0    0 -0.60754131236E+01 -0.67082522489E+01  0.16005004184E+01  0.17144653072E+03  0.17120000000E+03 0.  0.
        998    1    1    2    0    0 -0.68840888849E+01  0.14665871939E+01  0.14239676046E+04  0.14240201124E+04  0.10000000000E+02 0.  1.
</event>
<event>
 5    1  0.1129619E-008  0.3808638E+03  0.7957747E-01  0.3447406E+00
         13   -1    0    0    0    0  0.00000000000E+00  0.00000000000E+00  0.14999999963E+04  0.15000000000E+04  0.10566000000E+00 0. -1.
        994   -1    0    0    0    0 -0.00000000000E+00 -0.00000000000E+00  0.11368683772E-12  0.17120000000E+03  0.17120000000E+03 0.  0.
         13    1    1    2    0    0 -0.12163823527E+02  0.10199990537E+02  0.28783546077E+02  0.32870991749E+02  0.10566000000E+00 0. -1.
        994    1    1    2    0    0  0.49529594788E+02 -0.19325161904E+02  0.13178100111E+02  0.17974911673E+03  0.17120000000E+03 0.  0.
        998    1    1    2    0    0 -0.37365771261E+02  0.91251713671E+01  0.14580383501E+04  0.14585798915E+04  0.10000000000E+02 0. -1.
</event>
<event>
 5    1  0.1129619E-008  0.3778343E+03  0.7957747E-01  0.3460643E+00
         13   -1    0    0    0    0  0.00000000000E+00  0.00000000000E+00  0.14999999963E+04  0.15000000000E+04  0.10566000000E+00 0.  1.
        994   -1    0    0    0    0 -0.00000000000E+00 -0.00000000000E+00  0.11368683772E-12  0.17120000000E+03  0.17120000000E+03 0.  0.
         13    1    1    2    0    0 -0.17617286685E+02 -0.10312108593E+02  0.36875146309E+02  0.42148498824E+02  0.10566000000E+00 0.  1.
        994    1    1    2    0    0  0.18944963149E+02  0.99105363897E+01  0.67710695360E+01  0.17266272830E+03  0.17120000000E+03 0.  0.
        998    1    1    2    0    0 -0.13276764648E+01  0.40157220351E+00  0.14563537804E+04  0.14563887729E+04  0.10000000000E+02 0.  1.
</event>
<event>
 5    1  0.1129619E-008  0.3779697E+03  0.7957747E-01  0.3460047E+00
         13   -1    0    0    0    0  0.00000000000E+00  0.00000000000E+00  0.14999999963E+04  0.15000000000E+04  0.10566000000E+00 0. -1.
        994   -1    0    0    0    0 -0.00000000000E+00 -0.00000000000E+00  0.11368683772E-12  0.17120000000E+03  0.17120000000E+03 0.  0.
         13    1    1    2    0    0  0.15586893887E+02  0.97097198789E+01  0.30003246049E+02  0.35177206522E+02  0.10566000000E+00 0. -1.
        994    1    1    2    0    0 -0.14703890460E+02 -0.12318888464E+02  0.64008806945E+01  0.17239016991E+03  0.17120000000E+03 0.  0.
        998    1    1    2    0    0 -0.88300342687E+00  0.26091685846E+01  0.14635958695E+04  0.14636326236E+04  0.10000000000E+02 0. -1.
</event>
<event>
 5    1  0.1129619E-008  0.3700710E+03  0.7957747E-01  0.3495565E+00
         13   -1    0    0    0    0  0.00000000000E+00  0.00000000000E+00  0.14999999963E+04  0.15000000000E+04  0.10566000000E+00 0.  1.
        994   -1    0    0    0    0 -0.00000000000E+00 -0.00000000000E+00  0.11368683772E-12  0.17120000000E+03  0.17120000000E+03 0.  0.
         13    1    1    2    0    0 -0.23251480041E+02  0.73472846428E+02  0.38830780439E+03  0.39588110917E+03  0.10566000000E+00 0.  1.
        994    1    1    2    0    0  0.10314339492E+01  0.49698481341E+01  0.11066483338E+02  0.17163236962E+03  0.17120000000E+03 0.  0.
        998    1    1    2    0    0  0.22220046092E+02 -0.78442694562E+02  0.11006257086E+04  0.11036865212E+04  0.10000000000E+02 0.  1.
</event>
<event>
 5    1  0.1129619E-008  0.3821744E+03  0.7957747E-01  0.3441745E+00
         13   -1    0    0    0    0  0.00000000000E+00  0.00000000000E+00  0.14999999963E+04  0.15000000000E+04  0.10566000000E+00 0.  1.
        994   -1    0    0    0    0 -0.00000000000E+00 -0.00000000000E+00  0.11368683772E-12  0.17120000000E+03  0.17120000000E+03 0.  0.
         13    1    1    2    0    0  0.16114333608E+02 -0.11733675202E+01  0.38368155081E+02  0.41631418753E+02  0.10566000000E+00 0.  1.
        994    1    1    2    0    0 -0.35922109871E+02 -0.22737213294E+02  0.90616797695E+01  0.17663219663E+03  0.17120000000E+03 0.  0.
        998    1    1    2    0    0  0.19807776263E+02  0.23910580814E+02  0.14525701614E+04  0.14529363846E+04  0.10000000000E+02 0.  1.
</event>
<event>
 5    1  0.1129619E-008  0.3822356E+03  0.7957747E-01  0.3441482E+00
         13   -1    0    0    0    0  0.00000000000E+00  0.00000000000E+00  0.14999999963E+04  0.15000000000E+04  0.10566000000E+00 0. -1.
        994   -1    0    0    0    0 -0.00000000000E+00 -0.00000000000E+00  0.11368683772E-12  0.17120000000E+03  0.17120000000E+03 0.  0.
         13    1    1    2    0    0  0.75600218402E+01 -0.16995459583E+02  0.49436649019E+02  0.52820384389E+02  0.10566000000E+00 0. -1.
        994    1    1    2    0    0 -0.27218215165E+02  0.35997078996E+02  0.97968503128E+01  0.17731903228E+03  0.17120000000E+03 0.  0.
        998    1    1    2    0    0  0.19658193325E+02 -0.19001619413E+02  0.14407664969E+04  0.14410605833E+04  0.10000000000E+02 0. -1.
</event>
<event>
 5    1  0.1129619E-008  0.3727927E+03  0.7957747E-01  0.3483154E+00
         13   -1    0    0    0    0  0.00000000000E+00  0.00000000000E+00  0.14999999963E+04  0.15000000000E+04  0.10566000000E+00 0.  1.
        994   -1    0    0    0    0 -0.00000000000E+00 -0.00000000000E+00  0.11368683772E-12  0.17120000000E+03  0.17120000000E+03 0.  0.
         13    1    1    2    0    0  0.62604952868E+01  0.32915175057E+02  0.69702016845E+02  0.77336827363E+02  0.10566000000E+00 0.  1.
        994    1    1    2    0    0 -0.25299680965E+02 -0.13634288722E+02  0.10650538197E+02  0.17392194125E+03  0.17120000000E+03 0.  0.
        998    1    1    2    0    0  0.19039185678E+02 -0.19280886335E+02  0.14196474412E+04  0.14199412314E+04  0.10000000000E+02 0.  1.
</event>
<event>
 5    1  0.1129619E-008  0.3777861E+03  0.7957747E-01  0.3460855E+00
         13   -1    0    0    0    0  0.00000000000E+00  0.00000000000E+00  0.14999999963E+04  0.15000000000E+04  0.10566000000E+00 0.  1.
        994   -1    0    0    0    0 -0.00000000000E+00 -0.00000000000E+00  0.11368683772E-12  0.17120000000E+03  0.17120000000E+03 0.  0.
         13    1    1    2    0    0 -0.25225822064E+02  0.24564151070E+02  0.11010065109E+03  0.11559370291E+03  0.10566000000E+00 0.  1.
        994    1    1    2    0    0  0.19020335281E+02 -0.26637931840E+02  0.88712280946E+01  0.17452647723E+03  0.17120000000E+03 0.  0.
        998    1    1    2    0    0  0.62054867827E+01  0.20737807702E+01  0.13810281171E+04  0.13810798199E+04  0.10000000000E+02 0.  1.
</event>
<event>
 5    1  0.1129619E-008  0.3756498E+03  0.7957747E-01  0.3470322E+00
         13   -1    0    0    0    0  0.00000000000E+00  0.00000000000E+00  0.14999999963E+04  0.15000000000E+04  0.10566000000E+00 0. -1.
        994   -1    0    0    0    0 -0.00000000000E+00 -0.00000000000E+00  0.11368683772E-12  0.17120000000E+03  0.17120000000E+03 0.  0.
         13    1    1    2    0    0 -0.17416898357E+03  0.12529027859E+03  0.96902043295E+03  0.99248833716E+03  0.10566000000E+00 0. -1.
        994    1    1    2    0    0  0.16582093127E+03 -0.13142526244E+03  0.17749846159E+03  0.32493741662E+03  0.17120000000E+03 0.  0.
        998    1    1    2    0    0  0.83480522959E+01  0.61349838549E+01  0.35348110174E+03  0.35377424622E+03  0.10000000000E+02 0. -1.
</event>
<event>
 5    1  0.1129619E-008  0.3688003E+03  0.7957747E-01  0.3501423E+00
         13   -1    0    0    0    0  0.00000000000E+00  0.00000000000E+00  0.14999999963E+04  0.15000000000E+04  0.10566000000E+00 0. -1.
        994   -1    0    0    0    0 -0.00000000000E+00 -0.00000000000E+00  0.11368683772E-12  0.17120000000E+03  0.17120000000E+03 0.  0.
         13    1    1    2    0    0 -0.69039295750E+01 -0.20400554287E+02  0.18819404663E+02  0.28601189043E+02  0.10566000000E+00 0. -1.
        994    1    1    2    0    0  0.10021742215E+02  0.22012342263E+02  0.11931203586E+02  0.17331120030E+03  0.17120000000E+03 0.  0.
        998    1    1    2    0    0 -0.31178126404E+01 -0.16117879761E+01  0.14692493880E+04  0.14692876107E+04  0.10000000000E+02 0. -1.
</event>
<event>
 5    1  0.1129619E-008  0.3847510E+03  0.7957747E-01  0.3430729E+00
         13   -1    0    0    0    0  0.00000000000E+00  0.00000000000E+00  0.14999999963E+04  0.15000000000E+04  0.10566000000E+00 0.  1.
        994   -1    0    0    0    0 -0.00000000000E+00 -0.00000000000E+00  0.11368683772E-12  0.17120000000E+03  0.17120000000E+03 0.  0.
         13    1    1    2    0    0 -0.19043940954E+02  0.10849842875E+02  0.12525861613E+03  0.12716179794E+03  0.10566000000E+00 0.  1.
        994    1    1    2    0    0  0.19355339613E+02 -0.14819913397E+02  0.37121286247E+01  0.17296669883E+03  0.17120000000E+03 0.  0.
        998    1    1    2    0    0 -0.31139865883E+00  0.39700705219E+01  0.13710292515E+04  0.13710715032E+04  0.10000000000E+02 0.  1.
</event>
<event>
 5    1  0.1129619E-008  0.3836312E+03  0.7957747E-01  0.3435498E+00
         13   -1    0    0    0    0  0.00000000000E+00  0.00000000000E+00  0.14999999963E+04  0.15000000000E+04  0.10566000000E+00 0. -1.
        994   -1    0    0    0    0 -0.00000000000E+00 -0.00000000000E+00  0.11368683772E-12  0.17120000000E+03  0.17120000000E+03 0.  0.
         13    1    1    2    0    0 -0.12782057329E+02 -0.18426364357E+02  0.98834380216E+02  0.10134672057E+03  0.10566000000E+00 0. -1.
        994    1    1    2    0    0  0.32455990584E+01  0.32022252980E+02  0.57408601649E+01  0.17429387848E+03  0.17120000000E+03 0.  0.
        998    1    1    2    0    0  0.95364582705E+01 -0.13595888624E+02  0.13954247559E+04  0.13955594010E+04  0.10000000000E+02 0. -1.
</event>
<event>
 5    1  0.1129619E-008  0.3842741E+03  0.7957747E-01  0.3432757E+00
         13   -1    0    0    0    0  0.00000000000E+00  0.00000000000E+00  0.14999999963E+04  0.15000000000E+04  0.10566000000E+00 0.  1.
        994   -1    0    0    0    0 -0.00000000000E+00 -0.00000000000E+00  0.11368683772E-12  0.17120000000E+03  0.17120000000E+03 0.  0.
         13    1    1    2    0    0 -0.27990003823E+01 -0.15420075414E+02  0.68367714428E+02  0.70141062646E+02  0.10566000000E+00 0.  1.
        994    1    1    2    0    0 -0.83210961191E+01 -0.62640409150E+01  0.23486593619E+01  0.17153260638E+03  0.17120000000E+03 0.  0.
        998    1    1    2    0    0  0.11120096501E+02  0.21684116329E+02  0.14292836225E+04  0.14295263310E+04  0.10000000000E+02 0.  1.
</event>
<event>
 5    1  0.1129619E-008  0.3790169E+03  0.7957747E-01  0.3455450E+00
         13   -1    0    0    0    0  0.00000000000E+00  0.00000000000E+00  0.14999999963E+04  0.15000000000E+04  0.10566000000E+00 0. -1.
        994   -1    0    0    0    0 -0.00000000000E+00 -0.00000000000E+00  0.11368683772E-12  0.17120000000E+03  0.17120000000E+03 0.  0.
         13    1    1    2    0    0  0.71986758986E+01  0.38539012410E+02  0.14695720186E+03  0.15209703072E+03  0.10566000000E+00 0. -1.
        994    1    1    2    0    0 -0.45711641298E+01 -0.42031229116E+02  0.10648711426E+02  0.17666452620E+03  0.17120000000E+03 0.  0.
        998    1    1    2    0    0 -0.26275117688E+01  0.34922167064E+01  0.13423940830E+04  0.13424384431E+04  0.10000000000E+02 0. -1.
</event>
<event>
 5    1  0.1129619E-008  0.3685837E+03  0.7957747E-01  0.3502425E+00
         13   -1    0    0    0    0  0.00000000000E+00  0.00000000000E+00  0.14999999963E+04  0.15000000000E+04  0.10566000000E+00 0. -1.
        994   -1    0    0    0    0 -0.00000000000E+00 -0.00000000000E+00  0.11368683772E-12  0.17120000000E+03  0.17120000000E+03 0.  0.
         13    1    1    2    0    0 -0.14302002026E+02 -0.91390354651E+02  0.36626898453E+03  0.37776940636E+03  0.10566000000E+00 0. -1.
        994    1    1    2    0    0 -0.27072561478E+02  0.81196763159E+02  0.35916780503E+02  0.19474417335E+03  0.17120000000E+03 0.  0.
        998    1    1    2    0    0  0.41374563504E+02  0.10193591492E+02  0.10978142312E+04  0.10986864203E+04  0.10000000000E+02 0. -1.
</event>
<event>
 5    1  0.1129619E-008  0.3837341E+03  0.7957747E-01  0.3435059E+00
         13   -1    0    0    0    0  0.00000000000E+00  0.00000000000E+00  0.14999999963E+04  0.15000000000E+04  0.10566000000E+00 0. -1.
        994   -1    0    0    0    0 -0.00000000000E+00 -0.00000000000E+00  0.11368683772E-12  0.17120000000E+03  0.17120000000E+03 0.  0.
         13    1    1    2    0    0 -0.10109634064E+02 -0.18995517271E+02  0.95625747097E+02  0.98016983473E+02  0.10566000000E+00 0. -1.
        994    1    1    2    0    0  0.10339236864E+02  0.20828016558E+02  0.40475079326E+01  0.17281935196E+03  0.17120000000E+03 0.  0.
        998    1    1    2    0    0 -0.22960280007E+00 -0.18324992865E+01  0.14003267412E+04  0.14003636646E+04  0.10000000000E+02 0. -1.
</event>
<event>
 5    1  0.1129619E-008  0.3783622E+03  0.7957747E-01  0.3458321E+00
         13   -1    0    0    0    0  0.00000000000E+00  0.00000000000E+00  0.14999999963E+04  0.15000000000E+04  0.10566000000E+00 0.  1.
        994   -1    0    0    0    0 -0.00000000000E+00 -0.00000000000E+00  0.11368683772E-12  0.17120000000E+03  0.17120000000E+03 0.  0.
         13    1    1    2    0    0 -0.78295835982E+01 -0.12012910050E+02  0.18550335905E+02  0.23446503223E+02  0.10566000000E+00 0.  1.
        994    1    1    2    0    0  0.34383337837E+01  0.11103902386E+02  0.54164846348E+01  0.17167963506E+03  0.17120000000E+03 0.  0.
        998    1    1    2    0    0  0.43912498145E+01  0.90900766397E+00  0.14760331757E+04  0.14760738617E+04  0.10000000000E+02 0.  1.
</event>
<event>
 5    1  0.1129619E-008  0.3837795E+03  0.7957747E-01  0.3434865E+00
         13   -1    0    0    0    0  0.00000000000E+00  0.00000000000E+00  0.14999999963E+04  0.15000000000E+04  0.10566000000E+00 0.  1.
        994   -1    0    0    0    0 -0.00000000000E+00 -0.00000000000E+00  0.11368683772E-12  0.17120000000E+03  0.17120000000E+03 0.  0.
         13    1    1    2    0    0 -0.94408138437E+01  0.14675498908E+02  0.69897691613E+02  0.72043026666E+02  0.10566000000E+00 0.  1.
        994    1    1    2    0    0  0.12134931990E+02  0.13776552725E+01  0.27299407828E+01  0.17165677116E+03  0.17120000000E+03 0.  0.
        998    1    1    2    0    0 -0.26941181464E+01 -0.16053154181E+02  0.14273723639E+04  0.14275002022E+04  0.10000000000E+02 0.  1.
</event>
<event>
 5    1  0.1129619E-008  0.3790010E+03  0.7957747E-01  0.3455520E+00
         13   -1    0    0    0    0  0.00000000000E+00  0.00000000000E+00  0.14999999963E+04  0.15000000000E+04  0.10566000000E+00 0.  1.
        994   -1    0    0    0    0 -0.00000000000E+00 -0.00000000000E+00  0.11368683772E-12  0.17120000000E+03  0.17120000000E+03 0.  0.
         13    1    1    2    0    0  0.24172401036E+02  0.76176307257E-01  0.62657980758E+02  0.67159098351E+02  0.10566000000E+00 0.  1.
        994    1    1    2    0    0 -0.98037103798E+01  0.51549833320E+01  0.50498904647E+01  0.17163224634E+03  0.17120000000E+03 0.  0.
        998    1    1    2    0    0 -0.14368690656E+02 -0.52311596393E+01  0.14322921251E+04  0.14324086553E+04  0.10000000000E+02 0.  1.
</event>
<event>
 5    1  0.1129619E-008  0.3835243E+03  0.7957747E-01  0.3435955E+00
         13   -1    0    0    0    0  0.00000000000E+00  0.00000000000E+00  0.14999999963E+04  0.15000000000E+04  0.10566000000E+00 0.  1.
        994   -1    0    0    0    0 -0.00000000000E+00 -0.00000000000E+00  0.11368683772E-12  0.17120000000E+03  0.17120000000E+03 0.  0.
         13    1    1    2    0    0  0.25073709787E+02 -0.72707056116E+02  0.17940351266E+03  0.19519384840E+03  0.10566000000E+00 0.  1.
        994    1    1    2    0    0 -0.51297060020E+02 -0.28942684729E+01  0.28031614392E+02  0.18092809777E+03  0.17120000000E+03 0.  0.
        998    1    1    2    0    0  0.26223350234E+02  0.75601324589E+02  0.12925648692E+04  0.12950780538E+04  0.10000000000E+02 0.  1.
</event>
<event>
 5    1  0.1129619E-008  0.3787353E+03  0.7957747E-01  0.3456684E+00
         13   -1    0    0    0    0  0.00000000000E+00  0.00000000000E+00  0.14999999963E+04  0.15000000000E+04  0.10566000000E+00 0. -1.
        994   -1    0    0    0    0 -0.00000000000E+00 -0.00000000000E+00  0.11368683772E-12  0.17120000000E+03  0.17120000000E+03 0.  0.
         13    1    1    2    0    0  0.47901335389E+01  0.13369816320E+02  0.18970872386E+02  0.23698154588E+02  0.10566000000E+00 0. -1.
        994    1    1    2    0    0 -0.35591540548E+01 -0.12218713208E+02  0.53168108355E+01  0.17175468846E+03  0.17120000000E+03 0.  0.
        998    1    1    2    0    0 -0.12309794841E+01 -0.11511031120E+01  0.14757123131E+04  0.14757471570E+04  0.10000000000E+02 0. -1.
</event>
<event>
 5    1  0.1129619E-008  0.3788948E+03  0.7957747E-01  0.3455985E+00
         13   -1    0    0    0    0  0.00000000000E+00  0.00000000000E+00  0.14999999963E+04  0.15000000000E+04  0.10566000000E+00 0.  1.
        994   -1    0    0    0    0 -0.00000000000E+00 -0.00000000000E+00  0.11368683772E-12  0.17120000000E+03  0.17120000000E+03 0.  0.
         13    1    1    2    0    0 -0.12161482910E+03 -0.10391635138E+03  0.86738196789E+03  0.88200921998E+03  0.10566000000E+00 0.  1.
        994    1    1    2    0    0  0.11985450361E+03  0.11610443241E+03  0.10462919830E+03  0.26096369555E+03  0.17120000000E+03 0.  0.
        998    1    1    2    0    0  0.17603254952E+01 -0.12188081029E+02  0.52798883009E+03  0.52822708447E+03  0.10000000000E+02 0.  0.
</event>
<event>
 5    1  0.1129619E-008  0.3772427E+03  0.7957747E-01  0.3463253E+00
         13   -1    0    0    0    0  0.00000000000E+00  0.00000000000E+00  0.14999999963E+04  0.15000000000E+04  0.10566000000E+00 0.  1.
        994   -1    0    0    0    0 -0.00000000000E+00 -0.00000000000E+00  0.11368683772E-12  0.17120000000E+03  0.17120000000E+03 0.  0.
         13    1    1    2    0    0  0.41783175876E+02 -0.13105277997E+02  0.23577328827E+03  0.23980541429E+03  0.10566000000E+00 0.  1.
        994    1    1    2    0    0  0.12748600043E+02 -0.15718717668E+02  0.69146392248E+01  0.17253074255E+03  0.17120000000E+03 0.  0.
        998    1    1    2    0    0 -0.54531775919E+02  0.28823995666E+02  0.12573120688E+04  0.12588638432E+04  0.10000000000E+02 0.  1.
</event>
<event>
 5    1  0.1129619E-008  0.3832823E+03  0.7957747E-01  0.3436990E+00
         13   -1    0    0    0    0  0.00000000000E+00  0.00000000000E+00  0.14999999963E+04  0.15000000000E+04  0.10566000000E+00 0. -1.
        994   -1    0    0    0    0 -0.00000000000E+00 -0.00000000000E+00  0.11368683772E-12  0.17120000000E+03  0.17120000000E+03 0.  0.
         13    1    1    2    0    0 -0.17685180336E+02  0.88149537555E+01  0.75968964982E+02  0.78496903237E+02  0.10566000000E+00 0. -1.
        994    1    1    2    0    0  0.11713294822E+02 -0.14838363302E+02  0.36680985210E+01  0.17227963678E+03  0.17120000000E+03 0.  0.
        998    1    1    2    0    0  0.59718855138E+01  0.60234095463E+01  0.14203629328E+04  0.14204234600E+04  0.10000000000E+02 0. -1.
</event>
<event>
 5    1  0.1129619E-008  0.3741112E+03  0.7957747E-01  0.3477207E+00
         13   -1    0    0    0    0  0.00000000000E+00  0.00000000000E+00  0.14999999963E+04  0.15000000000E+04  0.10566000000E+00 0. -1.
        994   -1    0    0    0    0 -0.00000000000E+00 -0.00000000000E+00  0.11368683772E-12  0.17120000000E+03  0.17120000000E+03 0.  0.
         13    1    1    2    0    0  0.26774156061E+01 -0.21202620069E+02  0.28123318551E+02  0.35322115770E+02  0.10566000000E+00 0. -1.
        994    1    1    2    0    0 -0.15823285966E+01  0.27119489095E+02  0.96559923175E+01  0.17361062364E+03  0.17120000000E+03 0.  0.
        998    1    1    2    0    0 -0.10950870095E+01 -0.59168690256E+01  0.14622206854E+04  0.14622672606E+04  0.10000000000E+02 0. -1.
</event>
<event>
 5    1  0.1129619E-008  0.3817773E+03  0.7957747E-01  0.3443456E+00
         13   -1    0    0    0    0  0.00000000000E+00  0.00000000000E+00  0.14999999963E+04  0.15000000000E+04  0.10566000000E+00 0. -1.
        994   -1    0    0    0    0 -0.00000000000E+00 -0.00000000000E+00  0.11368683772E-12  0.17120000000E+03  0.17120000000E+03 0.  0.
         13    1    1    2    0    0 -0.20232447820E+02 -0.48213867225E+01  0.47797796881E+01  0.21341395751E+02  0.10566000000E+00 0. -1.
        994    1    1    2    0    0  0.17799203150E+02  0.13896344530E+02  0.19168895772E+02  0.17374350805E+03  0.17120000000E+03 0.  0.
        998    1    1    2    0    0  0.24332446701E+01 -0.90749578071E+01  0.14760513208E+04  0.14761150962E+04  0.10000000000E+02 0. -1.
</event>
<event>
 5    1  0.1129619E-008  0.3791279E+03  0.7957747E-01  0.3454964E+00
         13   -1    0    0    0    0  0.00000000000E+00  0.00000000000E+00  0.14999999963E+04  0.15000000000E+04  0.10566000000E+00 0. -1.
        994   -1    0    0    0    0 -0.00000000000E+00 -0.00000000000E+00  0.11368683772E-12  0.17120000000E+03  0.17120000000E+03 0.  0.
         13    1    1    2    0    0 -0.39949202375E+02 -0.31513524326E+02  0.23235236028E+03  0.23785851147E+03  0.10566000000E+00 0. -1.
        994    1    1    2    0    0  0.41412686665E+02  0.36048896479E+02  0.14747652824E+02  0.18039253537E+03  0.17120000000E+03 0.  0.
        998    1    1    2    0    0 -0.14634842898E+01 -0.45353721526E+01  0.12528999832E+04  0.12529489532E+04  0.10000000000E+02 0. -1.
</event>
<event>
 5    1  0.1129619E-008  0.3736836E+03  0.7957747E-01  0.3479131E+00
         13   -1    0    0    0    0  0.00000000000E+00  0.00000000000E+00  0.14999999963E+04  0.15000000000E+04  0.10566000000E+00 0. -1.
        994   -1    0    0    0    0 -0.00000000000E+00 -0.00000000000E+00  0.11368683772E-12  0.17120000000E+03  0.17120000000E+03 0.  0.
         13    1    1    2    0    0  0.41365677160E+02 -0.27185910224E+02  0.16671559582E+03  0.17390886699E+03  0.10566000000E+00 0. -1.
        994    1    1    2    0    0 -0.12737585696E+02  0.28585323556E+02  0.10707474925E+02  0.17436587060E+03  0.17120000000E+03 0.  0.
        998    1    1    2    0    0 -0.28628091464E+02 -0.13994133320E+01  0.13225769255E+04  0.13229252624E+04  0.10000000000E+02 0. -1.
</event>
<event>
 5    1  0.1129619E-008  0.3748316E+03  0.7957747E-01  0.3473976E+00
         13   -1    0    0    0    0  0.00000000000E+00  0.00000000000E+00  0.14999999963E+04  0.15000000000E+04  0.10566000000E+00 0.  1.
        994   -1    0    0    0    0 -0.00000000000E+00 -0.00000000000E+00  0.11368683772E-12  0.17120000000E+03  0.17120000000E+03 0.  0.
         13    1    1    2    0    0 -0.19331412036E+02  0.31300147193E+02  0.10716118414E+03  0.11330019089E+03  0.10566000000E+00 0.  1.
        994    1    1    2    0    0 -0.60973385698E+01 -0.52028447076E+01  0.69837656030E+01  0.17152976451E+03  0.17120000000E+03 0.  0.
        998    1    1    2    0    0  0.25428750605E+02 -0.26097302485E+02  0.13858550465E+04  0.13863700446E+04  0.10000000000E+02 0.  1.
</event>
<event>
 5    1  0.1129619E-008  0.4056653E+03  0.7957747E-01  0.3346493E+00
         13   -1    0    0    0    0  0.00000000000E+00  0.00000000000E+00  0.14999999963E+04  0.15000000000E+04  0.10566000000E+00 0. -1.
        994   -1    0    0    0    0 -0.00000000000E+00 -0.00000000000E+00  0.11368683772E-12  0.17120000000E+03  0.17120000000E+03 0.  0.
         13    1    1    2    0    0 -0.21099507687E+02  0.10639362943E+03  0.24374750819E+03  0.26679140264E+03  0.10566000000E+00 0. -1.
        994    1    1    2    0    0  0.29028076213E+02  0.11546432494E+02  0.35129878921E+02  0.17753731356E+03  0.17120000000E+03 0.  0.
        998    1    1    2    0    0 -0.79285685261E+01 -0.11794006193E+03  0.12211226092E+04  0.12268712838E+04  0.10000000000E+02 0. -1.
</event>
<event>
 5    1  0.1129619E-008  0.3819472E+03  0.7957747E-01  0.3442724E+00
         13   -1    0    0    0    0  0.00000000000E+00  0.00000000000E+00  0.14999999963E+04  0.15000000000E+04  0.10566000000E+00 0. -1.
        994   -1    0    0    0    0 -0.00000000000E+00 -0.00000000000E+00  0.11368683772E-12  0.17120000000E+03  0.17120000000E+03 0.  0.
         13    1    1    2    0    0 -0.15481885580E+02 -0.31032666080E+01  0.39862490830E+02  0.42875965109E+02  0.10566000000E+00 0. -1.
        994    1    1    2    0    0 -0.48335092998E+00  0.66753873870E+01  0.33022414915E+01  0.17136259575E+03  0.17120000000E+03 0.  0.
        998    1    1    2    0    0  0.15965236510E+02 -0.35721207789E+01  0.14568352640E+04  0.14569614391E+04  0.10000000000E+02 0. -1.
</event>
<event>
 5    1  0.1129619E-008  0.3722694E+03  0.7957747E-01  0.3485526E+00
         13   -1    0    0    0    0  0.00000000000E+00  0.00000000000E+00  0.14999999963E+04  0.15000000000E+04  0.10566000000E+00 0.  1.
        994   -1    0    0    0    0 -0.00000000000E+00 -0.00000000000E+00  0.11368683772E-12  0.17120000000E+03  0.17120000000E+03 0.  0.
         13    1    1    2    0    0 -0.84982145882E+02 -0.39155196335E+02  0.41362964264E+03  0.42408087313E+03  0.10566000000E+00 0.  1.
        994    1    1    2    0    0  0.64760362705E+02  0.69384094862E+02  0.39655578143E+02  0.19972496608E+03  0.17120000000E+03 0.  0.
        998    1    1    2    0    0  0.20221783176E+02 -0.30228898527E+02  0.10467147755E+04  0.10473941608E+04  0.10000000000E+02 0.  1.
</event>
<event>
 5    1  0.1129619E-008  0.3846211E+03  0.7957747E-01  0.3431281E+00
         13   -1    0    0    0    0  0.00000000000E+00  0.00000000000E+00  0.14999999963E+04  0.15000000000E+04  0.10566000000E+00 0.  1.
        994   -1    0    0    0    0 -0.00000000000E+00 -0.00000000000E+00  0.11368683772E-12  0.17120000000E+03  0.17120000000E+03 0.  0.
         13    1    1    2    0    0 -0.11376620489E+02  0.50429538181E+01  0.41328982522E+02  0.43161960536E+02  0.10566000000E+00 0.  1.
        994    1    1    2    0    0  0.11669584583E+02 -0.62433801659E+01  0.23953392361E+01  0.17172750697E+03  0.17120000000E+03 0.  0.
        998    1    1    2    0    0 -0.29296409414E+00  0.12004263478E+01  0.14562756745E+04  0.14563105325E+04  0.10000000000E+02 0.  1.
</event>
<event>
 5    1  0.1129619E-008  0.3848924E+03  0.7957747E-01  0.3430129E+00
         13   -1    0    0    0    0  0.00000000000E+00  0.00000000000E+00  0.14999999963E+04  0.15000000000E+04  0.10566000000E+00 0.  1.
        994   -1    0    0    0    0 -0.00000000000E+00 -0.00000000000E+00  0.11368683772E-12  0.17120000000E+03  0.17120000000E+03 0.  0.
         13    1    1    2    0    0  0.13959696427E+02 -0.44155523924E+01  0.61703106263E+02  0.63416517673E+02  0.10566000000E+00 0.  1.
        994    1    1    2    0    0 -0.14751420476E+02  0.21547974844E+01  0.24150578337E+01  0.17186483079E+03  0.17120000000E+03 0.  0.
        998    1    1    2    0    0  0.79172404929E+00  0.22607549080E+01  0.14358818322E+04  0.14359186515E+04  0.10000000000E+02 0.  1.
</event>
<event>
 5    1  0.1129619E-008  0.3740387E+03  0.7957747E-01  0.3477533E+00
         13   -1    0    0    0    0  0.00000000000E+00  0.00000000000E+00  0.14999999963E+04  0.15000000000E+04  0.10566000000E+00 0.  1.
        994   -1    0    0    0    0 -0.00000000000E+00 -0.00000000000E+00  0.11368683772E-12  0.17120000000E+03  0.17120000000E+03 0.  0.
         13    1    1    2    0    0  0.10924924221E+03  0.63924316790E+02  0.70347609824E+03  0.71477293398E+03  0.10566000000E+00 0.  1.
        994    1    1    2    0    0 -0.10546782362E+03 -0.42531792628E+02  0.52644553119E+02  0.21216339028E+03  0.17120000000E+03 0.  0.
        998    1    1    2    0    0 -0.37814185985E+01 -0.21392524162E+02  0.74387934492E+03  0.74426367574E+03  0.10000000000E+02 0. -1.
</event>
<event>
 5    1  0.1129619E-008  0.3777790E+03  0.7957747E-01  0.3460887E+00
         13   -1    0    0    0    0  0.00000000000E+00  0.00000000000E+00  0.14999999963E+04  0.15000000000E+04  0.10566000000E+00 0.  1.
        994   -1    0    0    0    0 -0.00000000000E+00 -0.00000000000E+00  0.11368683772E-12  0.17120000000E+03  0.17120000000E+03 0.  0.
         13    1    1    2    0    0  0.29955835095E+02 -0.22863797134E+01  0.83468437179E+02  0.88710601156E+02  0.10566000000E+00 0.  1.
        994    1    1    2    0    0 -0.20436546144E+02 -0.61884397431E+01  0.67955061258E+01  0.17266026789E+03  0.17120000000E+03 0.  0.
        998    1    1    2    0    0 -0.95192889507E+01  0.84748194565E+01  0.14097360530E+04  0.14098291310E+04  0.10000000000E+02 0.  1.
</event>
<event>
 5    1  0.1129619E-008  0.3857099E+03  0.7957747E-01  0.3426667E+00
         13   -1    0    0    0    0  0.00000000000E+00  0.00000000000E+00  0.14999999963E+04  0.15000000000E+04  0.10566000000E+00 0.  1.
        994   -1    0    0    0    0 -0.00000000000E+00 -0.00000000000E+00  0.11368683772E-12  0.17120000000E+03  0.17120000000E+03 0.  0.
         13    1    1    2    0    0 -0.10357315782E+02  0.57110391738E+01  0.54676310144E+02  0.55941040513E+02  0.10566000000E+00 0.  1.
        994    1    1    2    0    0  0.53371317687E+01 -0.94515835669E+01  0.16647600735E+01  0.17155182550E+03  0.17120000000E+03 0.  0.
        998    1    1    2    0    0  0.50201840130E+01  0.37405443931E+01  0.14436589261E+04  0.14437071340E+04  0.10000000000E+02 0.  1.
</event>
<event>
 5    1  0.1129619E-008  0.3748436E+03  0.7957747E-01  0.3473923E+00
         13   -1    0    0    0    0  0.00000000000E+00  0.00000000000E+00  0.14999999963E+04  0.15000000000E+04  0.10566000000E+00 0. -1.
        994   -1    0    0    0    0 -0.00000000000E+00 -0.00000000000E+00  0.11368683772E-12  0.17120000000E+03  0.17120000000E+03 0.  0.
         13    1    1    2    0    0  0.11141518397E+02 -0.11163913163E+02  0.15565991717E+02  0.22160271918E+02  0.10566000000E+00 0. -1.
        994    1    1    2    0    0 -0.99363075866E+01  0.14111421842E+01  0.71016947664E+01  0.17164089140E+03  0.17120000000E+03 0.  0.
        998    1    1    2    0    0 -0.12052108109E+01  0.97527709790E+01  0.14773323098E+04  0.14773988367E+04  0.10000000000E+02 0. -1.
</event>
<event>
 5    1  0.1129619E-008  0.3785925E+03  0.7957747E-01  0.3457310E+00
         13   -1    0    0    0    0  0.00000000000E+00  0.00000000000E+00  0.14999999963E+04  0.15000000000E+04  0.10566000000E+00 0.  1.
        994   -1    0    0    0    0 -0.00000000000E+00 -0.00000000000E+00  0.11368683772E-12  0.17120000000E+03  0.17120000000E+03 0.  0.
         13    1    1    2    0    0  0.25560316760E+03 -0.22395199931E+02  0.74166072123E+03  0.78478988325E+03  0.10566000000E+00 0.  1.
        994    1    1    2    0    0 -0.29430834593E+03  0.31980299046E+02  0.40232108438E+03  0.52802636009E+03  0.17120000000E+03 0.  0.
        998    1    1    2    0    0  0.38705178330E+02 -0.95850991151E+01  0.35601819067E+03  0.35838375667E+03  0.10000000000E+02 0.  1.
</event>
<event>
 5    1  0.1129619E-008  0.3729032E+03  0.7957747E-01  0.3482654E+00
         13   -1    0    0    0    0  0.00000000000E+00  0.00000000000E+00  0.14999999963E+04  0.15000000000E+04  0.10566000000E+00 0. -1.
        994   -1    0    0    0    0 -0.00000000000E+00 -0.00000000000E+00  0.11368683772E-12  0.17120000000E+03  0.17120000000E+03 0.  0.
         13    1    1    2    0    0  0.20468282639E+02 -0.18139263901E+02  0.24502947598E+02  0.36720417945E+02  0.10566000000E+00 0. -1.
        994    1    1    2    0    0 -0.18158080481E+02  0.17149399115E+02  0.14688563480E+02  0.17363470757E+03  0.17120000000E+03 0.  0.
        998    1    1    2    0    0 -0.23102021582E+01  0.98986478654E+00  0.14608084852E+04  0.14608448745E+04  0.10000000000E+02 0. -1.
</event>
<event>
 5    1  0.1129619E-008  0.3836221E+03  0.7957747E-01  0.3435537E+00
         13   -1    0    0    0    0  0.00000000000E+00  0.00000000000E+00  0.14999999963E+04  0.15000000000E+04  0.10566000000E+00 0.  1.
        994   -1    0    0    0    0 -0.00000000000E+00 -0.00000000000E+00  0.11368683772E-12  0.17120000000E+03  0.17120000000E+03 0.  0.
         13    1    1    2    0    0 -0.95661174508E+01  0.13419489070E+02  0.57430998214E+02  0.59748841076E+02  0.10566000000E+00 0.  1.
        994    1    1    2    0    0  0.62299327555E+01 -0.11464684843E+02  0.28783950663E+01  0.17172063423E+03  0.17120000000E+03 0.  0.
        998    1    1    2    0    0  0.33361846953E+01 -0.19548042273E+01  0.14396906030E+04  0.14397305247E+04  0.10000000000E+02 0.  1.
</event>
<event>
 5    1  0.1129619E-008  0.3763912E+03  0.7957747E-01  0.3467024E+00
         13   -1    0    0    0    0  0.00000000000E+00  0.00000000000E+00  0.14999999963E+04  0.15000000000E+04  0.10566000000E+00 0.  1.
        994   -1    0    0    0    0 -0.00000000000E+00 -0.00000000000E+00  0.11368683772E-12  0.17120000000E+03  0.17120000000E+03 0.  0.
         13    1    1    2    0    0  0.42790868847E+02  0.14730643450E+03  0.44899312054E+03  0.47447347403E+03  0.10566000000E+00 0.  1.
        994    1    1    2    0    0 -0.37694847276E+02 -0.16977625960E+03  0.13213975801E+03  0.27751618959E+03  0.17120000000E+03 0.  0.
        998    1    1    2    0    0 -0.50960215712E+01  0.22469825095E+02  0.91886711772E+03  0.91921033638E+03  0.10000000000E+02 0.  1.
</event>
<event>
 5    1  0.1129619E-008  0.3855097E+03  0.7957747E-01  0.3427513E+00
         13   -1    0    0    0    0  0.00000000000E+00  0.00000000000E+00  0.14999999963E+04  0.15000000000E+04  0.10566000000E+00 0.  1.
        994   -1    0    0    0    0 -0.00000000000E+00 -0.00000000000E+00  0.11368683772E-12  0.17120000000E+03  0.17120000000E+03 0.  0.
         13    1    1    2    0    0 -0.56031264349E+01  0.12021508700E+02  0.62091576118E+02  0.63492414398E+02  0.10566000000E+00 0.  1.
        994    1    1    2    0    0  0.30929002031E+01 -0.13790125005E+02  0.20333164303E+01  0.17179437696E+03  0.17120000000E+03 0.  0.
        998    1    1    2    0    0  0.25102262318E+01  0.17686163047E+01  0.14358751037E+04  0.14359132086E+04  0.10000000000E+02 0.  1.
</event>
<event>
 5    1  0.1129619E-008  0.3847027E+03  0.7957747E-01  0.3430934E+00
         13   -1    0    0    0    0  0.00000000000E+00  0.00000000000E+00  0.14999999963E+04  0.15000000000E+04  0.10566000000E+00 0.  1.
        994   -1    0    0    0    0 -0.00000000000E+00 -0.00000000000E+00  0.11368683772E-12  0.17120000000E+03  0.17120000000E+03 0.  0.
         13    1    1    2    0    0 -0.11278658292E+02 -0.61874263168E+01  0.45860336254E+02  0.47630599227E+02  0.10566000000E+00 0.  1.
        994    1    1    2    0    0  0.11463028138E+02  0.11764757185E+01  0.22150193490E+01  0.17160166497E+03  0.17120000000E+03 0.  0.
        998    1    1    2    0    0 -0.18436984621E+00  0.50109505982E+01  0.14519246407E+04  0.14519677358E+04  0.10000000000E+02 0.  1.
</event>
<event>
 5    1  0.1129619E-008  0.3702895E+03  0.7957747E-01  0.3494562E+00
         13   -1    0    0    0    0  0.00000000000E+00  0.00000000000E+00  0.14999999963E+04  0.15000000000E+04  0.10566000000E+00 0. -1.
        994   -1    0    0    0    0 -0.00000000000E+00 -0.00000000000E+00  0.11368683772E-12  0.17120000000E+03  0.17120000000E+03 0.  0.
         13    1    1    2    0    0  0.34692367578E+02  0.20379994068E+02  0.73631216416E+02  0.83907518860E+02  0.10566000000E+00 0. -1.
        994    1    1    2    0    0 -0.90840744025E+01  0.50475962369E+01  0.11470000810E+02  0.17189822441E+03  0.17120000000E+03 0.  0.
        998    1    1    2    0    0 -0.25608293176E+02 -0.25427590305E+02  0.14148987791E+04  0.14153942567E+04  0.10000000000E+02 0. -1.
</event>
<event>
 5    1  0.1129619E-008  0.3684978E+03  0.7957747E-01  0.3502823E+00
         13   -1    0    0    0    0  0.00000000000E+00  0.00000000000E+00  0.14999999963E+04  0.15000000000E+04  0.10566000000E+00 0.  1.
        994   -1    0    0    0    0 -0.00000000000E+00 -0.00000000000E+00  0.11368683772E-12  0.17120000000E+03  0.17120000000E+03 0.  0.
         13    1    1    2    0    0  0.92308810169E+02  0.49652506134E+02  0.36677571928E+03  0.38145868350E+03  0.10566000000E+00 0.  1.
        994    1    1    2    0    0 -0.10439099822E+03 -0.50477129334E+02  0.58481188176E+02  0.21488348114E+03  0.17120000000E+03 0.  0.
        998    1    1    2    0    0  0.12082188048E+02  0.82462320046E+00  0.10747430888E+04  0.10748578354E+04  0.10000000000E+02 0.  1.
</event>
<event>
 5    1  0.1129619E-008  0.2532493E+03  0.7957747E-01  0.4299083E+00
         13   -1    0    0    0    0  0.00000000000E+00  0.00000000000E+00  0.14999999963E+04  0.15000000000E+04  0.10566000000E+00 0.  1.
        994   -1    0    0    0    0 -0.00000000000E+00 -0.00000000000E+00  0.11368683772E-12  0.17120000000E+03  0.17120000000E+03 0.  0.
         13    1    1    2    0    0  0.42963482527E+02  0.13465421196E+03  0.58744241161E+03  0.60420709674E+03  0.10566000000E+00 0.  1.
        994    1    1    2    0    0 -0.11844300030E+03  0.37269682175E+02  0.10179325554E+03  0.23471063121E+03  0.17120000000E+03 0.  0.
        998    1    1    2    0    0  0.75479517775E+02 -0.17192389413E+03  0.81076432914E+03  0.83228227205E+03  0.10000000000E+02 0.  1.
</event>
<event>
 5    1  0.1129619E-008  0.3835220E+03  0.7957747E-01  0.3435965E+00
         13   -1    0    0    0    0  0.00000000000E+00  0.00000000000E+00  0.14999999963E+04  0.15000000000E+04  0.10566000000E+00 0. -1.
        994   -1    0    0    0    0 -0.00000000000E+00 -0.00000000000E+00  0.11368683772E-12  0.17120000000E+03  0.17120000000E+03 0.  0.
         13    1    1    2    0    0 -0.45626011101E+01  0.10415017199E+02  0.26354386861E+02  0.28702870641E+02  0.10566000000E+00 0. -1.
        994    1    1    2    0    0  0.34597386977E+01 -0.93857978857E+01  0.26964330721E+01  0.17151318825E+03  0.17120000000E+03 0.  0.
        998    1    1    2    0    0  0.11028624124E+01 -0.10292193137E+01  0.14709491763E+04  0.14709839411E+04  0.10000000000E+02 0. -1.
</event>
<event>
 5    1  0.1129619E-008  0.3693130E+03  0.7957747E-01  0.3499054E+00
         13   -1    0    0    0    0  0.00000000000E+00  0.00000000000E+00  0.14999999963E+04  0.15000000000E+04  0.10566000000E+00 0.  1.
        994   -1    0    0    0    0 -0.00000000000E+00 -0.00000000000E+00  0.11368683772E-12  0.17120000000E+03  0.17120000000E+03 0.  0.
         13    1    1    2    0    0  0.37779085900E+02  0.37993094538E+02  0.15716682889E+03  0.16604866103E+03  0.10566000000E+00 0.  1.
        994    1    1    2    0    0  0.90762460577E+00 -0.23701723363E+02  0.11580892417E+02  0.17322284071E+03  0.17120000000E+03 0.  0.
        998    1    1    2    0    0 -0.38686710506E+02 -0.14291371174E+02  0.13312522750E+04  0.13319284983E+04  0.10000000000E+02 0.  1.
</event>
<event>
 5    1  0.1129619E-008  0.3838181E+03  0.7957747E-01  0.3434700E+00
         13   -1    0    0    0    0  0.00000000000E+00  0.00000000000E+00  0.14999999963E+04  0.15000000000E+04  0.10566000000E+00 0.  1.
        994   -1    0    0    0    0 -0.00000000000E+00 -0.00000000000E+00  0.11368683772E-12  0.17120000000E+03  0.17120000000E+03 0.  0.
         13    1    1    2    0    0 -0.15274958498E+02 -0.19212546394E+02  0.13300258285E+03  0.13524845473E+03  0.10566000000E+00 0.  1.
        994    1    1    2    0    0 -0.20567361690E+00  0.22444157425E+02  0.38829935191E+01  0.17270871473E+03  0.17120000000E+03 0.  0.
        998    1    1    2    0    0  0.15480632115E+02 -0.32316110311E+01  0.13631144199E+04  0.13632428305E+04  0.10000000000E+02 0.  1.
</event>
<event>
 5    1  0.1129619E-008  0.3815677E+03  0.7957747E-01  0.3444361E+00
         13   -1    0    0    0    0  0.00000000000E+00  0.00000000000E+00  0.14999999963E+04  0.15000000000E+04  0.10566000000E+00 0. -1.
        994   -1    0    0    0    0 -0.00000000000E+00 -0.00000000000E+00  0.11368683772E-12  0.17120000000E+03  0.17120000000E+03 0.  0.
         13    1    1    2    0    0 -0.22401173878E+02 -0.99023195243E+01  0.82847320034E+02  0.86391886910E+02  0.10566000000E+00 0. -1.
        994    1    1    2    0    0  0.23351600056E+02  0.17332000117E+02  0.61614958561E+01  0.17376161683E+03  0.17120000000E+03 0.  0.
        998    1    1    2    0    0 -0.95042617709E+00 -0.74296805929E+01  0.14109911804E+04  0.14110464963E+04  0.10000000000E+02 0. -1.
</event>
<event>
 5    1  0.1129619E-008  0.3852410E+03  0.7957747E-01  0.3428651E+00
         13   -1    0    0    0    0  0.00000000000E+00  0.00000000000E+00  0.14999999963E+04  0.15000000000E+04  0.10566000000E+00 0.  1.
        994   -1    0    0    0    0 -0.00000000000E+00 -0.00000000000E+00  0.11368683772E-12  0.17120000000E+03  0.17120000000E+03 0.  0.
         13    1    1    2    0    0 -0.25274652452E+01 -0.24670052368E+02  0.14295061890E+03  0.14508580280E+03  0.10566000000E+00 0.  1.
        994    1    1    2    0    0  0.18267359689E+02  0.52588193282E+02  0.11761909528E+02  0.18040786296E+03  0.17120000000E+03 0.  0.
        998    1    1    2    0    0 -0.15739894444E+02 -0.27918140914E+02  0.13452874678E+04  0.13457063342E+04  0.10000000000E+02 0.  1.
</event>
<event>
 5    1  0.1129619E-008  0.3851868E+03  0.7957747E-01  0.3428880E+00
         13   -1    0    0    0    0  0.00000000000E+00  0.00000000000E+00  0.14999999963E+04  0.15000000000E+04  0.10566000000E+00 0.  1.
        994   -1    0    0    0    0 -0.00000000000E+00 -0.00000000000E+00  0.11368683772E-12  0.17120000000E+03  0.17120000000E+03 0.  0.
         13    1    1    2    0    0 -0.10677837602E+02 -0.10172331133E+02  0.67397679795E+02  0.68992397714E+02  0.10566000000E+00 0.  1.
        994    1    1    2    0    0  0.38521905011E+01  0.21429442960E+02  0.30970636738E+01  0.17260675595E+03  0.17120000000E+03 0.  0.
        998    1    1    2    0    0  0.68256471011E+01 -0.11257111827E+02  0.14295052528E+04  0.14296008463E+04  0.10000000000E+02 0.  1.
</event>
<event>
 5    1  0.1129619E-008  0.3781190E+03  0.7957747E-01  0.3459390E+00
         13   -1    0    0    0    0  0.00000000000E+00  0.00000000000E+00  0.14999999963E+04  0.15000000000E+04  0.10566000000E+00 0.  1.
        994   -1    0    0    0    0 -0.00000000000E+00 -0.00000000000E+00  0.11368683772E-12  0.17120000000E+03  0.17120000000E+03 0.  0.
         13    1    1    2    0    0 -0.40595195444E+02 -0.39437470892E+01  0.16659984648E+03  0.17151980365E+03  0.10566000000E+00 0.  1.
        994    1    1    2    0    0  0.18728147195E+02  0.44104232763E+01  0.63319639395E+01  0.17239410981E+03  0.17120000000E+03 0.  0.
        998    1    1    2    0    0  0.21867048248E+02 -0.46667618710E+00  0.13270681859E+04  0.13272860865E+04  0.10000000000E+02 0.  1.
</event>
<event>
 5    1  0.1129619E-008  0.3762679E+03  0.7957747E-01  0.3467572E+00
         13   -1    0    0    0    0  0.00000000000E+00  0.00000000000E+00  0.14999999963E+04  0.15000000000E+04  0.10566000000E+00 0. -1.
        994   -1    0    0    0    0 -0.00000000000E+00 -0.00000000000E+00  0.11368683772E-12  0.17120000000E+03  0.17120000000E+03 0.  0.
         13    1    1    2    0    0  0.57008849976E+01  0.17003554394E+02  0.24235725846E+02  0.30149668706E+02  0.10566000000E+00 0. -1.
        994    1    1    2    0    0 -0.31912630411E+01 -0.10481012735E+02  0.64354678206E+01  0.17167087998E+03  0.17120000000E+03 0.  0.
        998    1    1    2    0    0 -0.25096219565E+01 -0.65225416588E+01  0.14693288026E+04  0.14693794513E+04  0.10000000000E+02 0. -1.
</event>
<event>
 5    1  0.1129619E-008  0.3790320E+03  0.7957747E-01  0.3455384E+00
         13   -1    0    0    0    0  0.00000000000E+00  0.00000000000E+00  0.14999999963E+04  0.15000000000E+04  0.10566000000E+00 0.  1.
        994   -1    0    0    0    0 -0.00000000000E+00 -0.00000000000E+00  0.11368683772E-12  0.17120000000E+03  0.17120000000E+03 0.  0.
         13    1    1    2    0    0 -0.35435030720E+01  0.10238151831E+02  0.10695779713E+02  0.15224553676E+02  0.10566000000E+00 0.  1.
        994    1    1    2    0    0  0.50827004272E+01 -0.42551722907E+01  0.47699746262E+01  0.17139467026E+03  0.17120000000E+03 0.  0.
        998    1    1    2    0    0 -0.15391973553E+01 -0.59829795408E+01  0.14845342419E+04  0.14845807761E+04  0.10000000000E+02 0.  1.
</event>
<event>
 5    1  0.1129619E-008  0.3843448E+03  0.7957747E-01  0.3432456E+00
         13   -1    0    0    0    0  0.00000000000E+00  0.00000000000E+00  0.14999999963E+04  0.15000000000E+04  0.10566000000E+00 0.  1.
        994   -1    0    0    0    0 -0.00000000000E+00 -0.00000000000E+00  0.11368683772E-12  0.17120000000E+03  0.17120000000E+03 0.  0.
         13    1    1    2    0    0 -0.95834871475E+01 -0.80977190058E+01  0.40064874520E+02  0.41983587428E+02  0.10566000000E+00 0.  1.
        994    1    1    2    0    0  0.33028776751E+01  0.73846532831E+01  0.21714882278E+01  0.17140477667E+03  0.17120000000E+03 0.  0.
        998    1    1    2    0    0  0.62806094725E+01  0.71306572274E+00  0.14577636335E+04  0.14578116359E+04  0.10000000000E+02 0.  1.
</event>
<event>
 5    1  0.1129619E-008  0.3840867E+03  0.7957747E-01  0.3433555E+00
         13   -1    0    0    0    0  0.00000000000E+00  0.00000000000E+00  0.14999999963E+04  0.15000000000E+04  0.10566000000E+00 0.  1.
        994   -1    0    0    0    0 -0.00000000000E+00 -0.00000000000E+00  0.11368683772E-12  0.17120000000E+03  0.17120000000E+03 0.  0.
         13    1    1    2    0    0 -0.88878765890E+01  0.11366397055E+02  0.48382467999E+02  0.50488253148E+02  0.10566000000E+00 0.  1.
        994    1    1    2    0    0  0.10570847879E+02 -0.98375046106E+01  0.27723558111E+01  0.17183028045E+03  0.17120000000E+03 0.  0.
        998    1    1    2    0    0 -0.16829712903E+01 -0.15288924442E+01  0.14488451725E+04  0.14488814664E+04  0.10000000000E+02 0.  0.
</event>
<event>
 5    1  0.1129619E-008  0.3747386E+03  0.7957747E-01  0.3474393E+00
         13   -1    0    0    0    0  0.00000000000E+00  0.00000000000E+00  0.14999999963E+04  0.15000000000E+04  0.10566000000E+00 0.  1.
        994   -1    0    0    0    0 -0.00000000000E+00 -0.00000000000E+00  0.11368683772E-12  0.17120000000E+03  0.17120000000E+03 0.  0.
         13    1    1    2    0    0 -0.42821812689E+02  0.12948555021E+02  0.69146437354E+02  0.82356625003E+02  0.10566000000E+00 0.  1.
        994    1    1    2    0    0  0.26217379862E+02 -0.22663003062E+02  0.17748137241E+02  0.17557163521E+03  0.17120000000E+03 0.  0.
        998    1    1    2    0    0  0.16604432827E+02  0.97144480412E+01  0.14131054217E+04  0.14132717398E+04  0.10000000000E+02 0.  1.
</event>
<event>
 5    1  0.1129619E-008  0.3846503E+03  0.7957747E-01  0.3431156E+00
         13   -1    0    0    0    0  0.00000000000E+00  0.00000000000E+00  0.14999999963E+04  0.15000000000E+04  0.10566000000E+00 0. -1.
        994   -1    0    0    0    0 -0.00000000000E+00 -0.00000000000E+00  0.11368683772E-12  0.17120000000E+03  0.17120000000E+03 0.  0.
         13    1    1    2    0    0 -0.12068220078E+02 -0.13900234635E+02  0.92516698375E+02  0.94330319097E+02  0.10566000000E+00 0. -1.
        994    1    1    2    0    0  0.10986237780E+02  0.85582127204E+01  0.24426221841E+01  0.17178284789E+03  0.17120000000E+03 0.  0.
        998    1    1    2    0    0  0.10819822976E+01  0.53420219142E+01  0.14050406757E+04  0.14050868330E+04  0.10000000000E+02 0. -1.
</event>
<event>
 5    1  0.1129619E-008  0.3704750E+03  0.7957747E-01  0.3493711E+00
         13   -1    0    0    0    0  0.00000000000E+00  0.00000000000E+00  0.14999999963E+04  0.15000000000E+04  0.10566000000E+00 0.  1.
        994   -1    0    0    0    0 -0.00000000000E+00 -0.00000000000E+00  0.11368683772E-12  0.17120000000E+03  0.17120000000E+03 0.  0.
         13    1    1    2    0    0  0.14514826326E+02 -0.33323397765E+01  0.47539603975E+01  0.15633169069E+02  0.10566000000E+00 0.  1.
        994    1    1    2    0    0 -0.15641141302E+02  0.19121051857E+01  0.12060154082E+02  0.17234613069E+03  0.17120000000E+03 0.  0.
        998    1    1    2    0    0  0.11263149764E+01  0.14202345908E+01  0.14831858818E+04  0.14832207002E+04  0.10000000000E+02 0.  1.
</event>
<event>
 5    1  0.1129619E-008  0.3804966E+03  0.7957747E-01  0.3448999E+00
         13   -1    0    0    0    0  0.00000000000E+00  0.00000000000E+00  0.14999999963E+04  0.15000000000E+04  0.10566000000E+00 0. -1.
        994   -1    0    0    0    0 -0.00000000000E+00 -0.00000000000E+00  0.11368683772E-12  0.17120000000E+03  0.17120000000E+03 0.  0.
         13    1    1    2    0    0 -0.14022171149E+02 -0.22935963741E+02  0.88466680075E+02  0.92461042412E+02  0.10566000000E+00 0. -1.
        994    1    1    2    0    0  0.67586958496E+01  0.23847814233E+02  0.59358867855E+01  0.17308689426E+03  0.17120000000E+03 0.  0.
        998    1    1    2    0    0  0.72634752995E+01 -0.91185049220E+00  0.14055974294E+04  0.14056520633E+04  0.10000000000E+02 0. -1.
</event>
<event>
 5    1  0.1129619E-008  0.3817076E+03  0.7957747E-01  0.3443757E+00
         13   -1    0    0    0    0  0.00000000000E+00  0.00000000000E+00  0.14999999963E+04  0.15000000000E+04  0.10566000000E+00 0. -1.
        994   -1    0    0    0    0 -0.00000000000E+00 -0.00000000000E+00  0.11368683772E-12  0.17120000000E+03  0.17120000000E+03 0.  0.
         13    1    1    2    0    0  0.13883534538E+02  0.27469832136E+03  0.11478020377E+04  0.11802971868E+04  0.10566000000E+00 0. -1.
        994    1    1    2    0    0 -0.16960221370E+02 -0.27054522170E+03  0.30546256882E+03  0.44283087860E+03  0.17120000000E+03 0.  0.
        998    1    1    2    0    0  0.30766868326E+01 -0.41530996646E+01  0.46735389741E+02  0.48071934566E+02  0.10000000000E+02 0.  0.
</event>
<event>
 5    1  0.1129619E-008  0.3833045E+03  0.7957747E-01  0.3436895E+00
         13   -1    0    0    0    0  0.00000000000E+00  0.00000000000E+00  0.14999999963E+04  0.15000000000E+04  0.10566000000E+00 0. -1.
        994   -1    0    0    0    0 -0.00000000000E+00 -0.00000000000E+00  0.11368683772E-12  0.17120000000E+03  0.17120000000E+03 0.  0.
         13    1    1    2    0    0  0.11728980298E+02 -0.54177057675E+01  0.33436689586E+02  0.35846114003E+02  0.10566000000E+00 0. -1.
        994    1    1    2    0    0 -0.21957374547E+01  0.72310701674E+01  0.26631421197E+01  0.17138740317E+03  0.17120000000E+03 0.  0.
        998    1    1    2    0    0 -0.95332428434E+01 -0.18133643999E+01  0.14639001646E+04  0.14639664828E+04  0.10000000000E+02 0. -1.
</event>
<event>
 5    1  0.1129619E-008  0.3781104E+03  0.7957747E-01  0.3459428E+00
         13   -1    0    0    0    0  0.00000000000E+00  0.00000000000E+00  0.14999999963E+04  0.15000000000E+04  0.10566000000E+00 0. -1.
        994   -1    0    0    0    0 -0.00000000000E+00 -0.00000000000E+00  0.11368683772E-12  0.17120000000E+03  0.17120000000E+03 0.  0.
         13    1    1    2    0    0  0.25260363566E+02  0.53146245739E+02  0.31644739997E+03  0.32187198933E+03  0.10566000000E+00 0. -1.
        994    1    1    2    0    0 -0.18348547408E+02 -0.36856856303E+02  0.10813484698E+02  0.17641277873E+03  0.17120000000E+03 0.  0.
        998    1    1    2    0    0 -0.69118161571E+01 -0.16289389436E+02  0.11727391116E+04  0.11729152319E+04  0.10000000000E+02 0. -1.
</event>
<event>
 5    1  0.1129619E-008  0.2976765E+03  0.7957747E-01  0.3912748E+00
         13   -1    0    0    0    0  0.00000000000E+00  0.00000000000E+00  0.14999999963E+04  0.15000000000E+04  0.10566000000E+00 0. -1.
        994   -1    0    0    0    0 -0.00000000000E+00 -0.00000000000E+00  0.11368683772E-12  0.17120000000E+03  0.17120000000E+03 0.  0.
         13    1    1    2    0    0 -0.83911845042E+02 -0.19937915961E+03  0.38043346712E+03  0.43763327238E+03  0.10566000000E+00 0. -1.
        994    1    1    2    0    0  0.14900196344E+03  0.23403090814E+03  0.42805947888E+03  0.53806728997E+03  0.17120000000E+03 0.  0.
        998    1    1    2    0    0 -0.65090118402E+02 -0.34651748527E+02  0.69150705028E+03  0.69549943766E+03  0.10000000000E+02 0. -1.
</event>
<event>
 5    1  0.1129619E-008  0.3741984E+03  0.7957747E-01  0.3476816E+00
         13   -1    0    0    0    0  0.00000000000E+00  0.00000000000E+00  0.14999999963E+04  0.15000000000E+04  0.10566000000E+00 0.  1.
        994   -1    0    0    0    0 -0.00000000000E+00 -0.00000000000E+00  0.11368683772E-12  0.17120000000E+03  0.17120000000E+03 0.  0.
         13    1    1    2    0    0 -0.12050998238E+02  0.55255330130E+01  0.88590254454E+01  0.15945267934E+02  0.10566000000E+00 0.  1.
        994    1    1    2    0    0  0.20119209100E+02 -0.16903579565E+02  0.94480787248E+01  0.17346244484E+03  0.17120000000E+03 0.  0.
        998    1    1    2    0    0 -0.80682108621E+01  0.11378046553E+02  0.14816928921E+04  0.14817922872E+04  0.10000000000E+02 0.  1.
</event>
<event>
 5    1  0.1129619E-008  0.3795671E+03  0.7957747E-01  0.3453046E+00
         13   -1    0    0    0    0  0.00000000000E+00  0.00000000000E+00  0.14999999963E+04  0.15000000000E+04  0.10566000000E+00 0. -1.
        994   -1    0    0    0    0 -0.00000000000E+00 -0.00000000000E+00  0.11368683772E-12  0.17120000000E+03  0.17120000000E+03 0.  0.
         13    1    1    2    0    0 -0.18241927356E+02  0.11651456352E+01  0.35883577898E+02  0.40271178339E+02  0.10566000000E+00 0. -1.
        994    1    1    2    0    0  0.19373584347E+02  0.32291736009E+01  0.56443127610E+01  0.17241537518E+03  0.17120000000E+03 0.  0.
        998    1    1    2    0    0 -0.11316569913E+01 -0.43943192360E+01  0.14584721056E+04  0.14585134465E+04  0.10000000000E+02 0. -1.
</event>
<event>
 5    1  0.1129619E-008  0.3841729E+03  0.7957747E-01  0.3433188E+00
         13   -1    0    0    0    0  0.00000000000E+00  0.00000000000E+00  0.14999999963E+04  0.15000000000E+04  0.10566000000E+00 0.  1.
        994   -1    0    0    0    0 -0.00000000000E+00 -0.00000000000E+00  0.11368683772E-12  0.17120000000E+03  0.17120000000E+03 0.  0.
         13    1    1    2    0    0 -0.11058611194E+02  0.63387283297E+01  0.37837958462E+02  0.39927366842E+02  0.10566000000E+00 0.  1.
        994    1    1    2    0    0  0.11847809797E+02 -0.14268217198E+02  0.31763320186E+01  0.17223089649E+03  0.17120000000E+03 0.  0.
        998    1    1    2    0    0 -0.78919860233E+00  0.79294888682E+01  0.14589857058E+04  0.14590417367E+04  0.10000000000E+02 0.  1.
</event>
<event>
 5    1  0.1129619E-008  0.3305727E+03  0.7957747E-01  0.3699354E+00
         13   -1    0    0    0    0  0.00000000000E+00  0.00000000000E+00  0.14999999963E+04  0.15000000000E+04  0.10566000000E+00 0.  1.
        994   -1    0    0    0    0 -0.00000000000E+00 -0.00000000000E+00  0.11368683772E-12  0.17120000000E+03  0.17120000000E+03 0.  0.
         13    1    1    2    0    0 -0.13439747134E+03  0.12587735474E+03  0.10969637072E+04  0.11123116357E+04  0.10566000000E+00 0.  1.
        994    1    1    2    0    0  0.80007001705E+02 -0.40008592321E+02  0.61971382841E+02  0.20285881808E+03  0.17120000000E+03 0.  0.
        998    1    1    2    0    0  0.54390469638E+02 -0.85868762416E+02  0.34106490624E+03  0.35602954627E+03  0.10000000000E+02 0.  1.
</event>
<event>
 5    1  0.1129619E-008  0.3838035E+03  0.7957747E-01  0.3434763E+00
         13   -1    0    0    0    0  0.00000000000E+00  0.00000000000E+00  0.14999999963E+04  0.15000000000E+04  0.10566000000E+00 0. -1.
        994   -1    0    0    0    0 -0.00000000000E+00 -0.00000000000E+00  0.11368683772E-12  0.17120000000E+03  0.17120000000E+03 0.  0.
         13    1    1    2    0    0  0.14813838398E+02  0.82043010484E+00  0.48034654573E+02  0.50273871123E+02  0.10566000000E+00 0. -1.
        994    1    1    2    0    0 -0.13374121873E+02 -0.61847265433E+01  0.29424909179E+01  0.17185812821E+03  0.17120000000E+03 0.  0.
        998    1    1    2    0    0 -0.14397165258E+01  0.53642964385E+01  0.14490228508E+04  0.14490680007E+04  0.10000000000E+02 0. -1.
</event>
<event>
 5    1  0.1129619E-008  0.3839293E+03  0.7957747E-01  0.3434226E+00
         13   -1    0    0    0    0  0.00000000000E+00  0.00000000000E+00  0.14999999963E+04  0.15000000000E+04  0.10566000000E+00 0. -1.
        994   -1    0    0    0    0 -0.00000000000E+00 -0.00000000000E+00  0.11368683772E-12  0.17120000000E+03  0.17120000000E+03 0.  0.
         13    1    1    2    0    0 -0.11189041056E+02  0.86638356514E+01  0.43916929553E+02  0.46140703867E+02  0.10566000000E+00 0. -1.
        994    1    1    2    0    0  0.14508079526E+00 -0.30584545497E+02  0.52557877436E+01  0.17398993872E+03  0.17120000000E+03 0.  0.
        998    1    1    2    0    0  0.11043960261E+02  0.21920709846E+02  0.14508272790E+04  0.14510693574E+04  0.10000000000E+02 0. -1.
</event>
<event>
 5    1  0.1129619E-008  0.3736400E+03  0.7957747E-01  0.3479328E+00
         13   -1    0    0    0    0  0.00000000000E+00  0.00000000000E+00  0.14999999963E+04  0.15000000000E+04  0.10566000000E+00 0.  1.
        994   -1    0    0    0    0 -0.00000000000E+00 -0.00000000000E+00  0.11368683772E-12  0.17120000000E+03  0.17120000000E+03 0.  0.
         13    1    1    2    0    0 -0.33880117276E+02  0.45689246731E+02  0.12383966707E+03  0.13627781888E+03  0.10566000000E+00 0.  1.
        994    1    1    2    0    0  0.30317260841E+02 -0.15500707034E+02  0.16993320930E+02  0.17537850832E+03  0.17120000000E+03 0.  0.
        998    1    1    2    0    0  0.35628564354E+01 -0.30188539696E+02  0.13591670083E+04  0.13595436728E+04  0.10000000000E+02 0.  1.
</event>
<event>
 5    1  0.1129619E-008  0.3935055E+03  0.7957747E-01  0.3394381E+00
         13   -1    0    0    0    0  0.00000000000E+00  0.00000000000E+00  0.14999999963E+04  0.15000000000E+04  0.10566000000E+00 0.  1.
        994   -1    0    0    0    0 -0.00000000000E+00 -0.00000000000E+00  0.11368683772E-12  0.17120000000E+03  0.17120000000E+03 0.  0.
         13    1    1    2    0    0  0.80098993294E+02  0.14800688255E+02  0.12360429436E+03  0.14803020587E+03  0.10566000000E+00 0.  1.
        994    1    1    2    0    0 -0.73900645575E+02 -0.94690113598E+01  0.45450344324E+02  0.19216175840E+03  0.17120000000E+03 0.  0.
        998    1    1    2    0    0 -0.61983477191E+01 -0.53316768955E+01  0.13309453576E+04  0.13310080357E+04  0.10000000000E+02 0.  1.
</event>
<event>
 5    1  0.1129619E-008  0.3850891E+03  0.7957747E-01  0.3429294E+00
         13   -1    0    0    0    0  0.00000000000E+00  0.00000000000E+00  0.14999999963E+04  0.15000000000E+04  0.10566000000E+00 0.  1.
        994   -1    0    0    0    0 -0.00000000000E+00 -0.00000000000E+00  0.11368683772E-12  0.17120000000E+03  0.17120000000E+03 0.  0.
         13    1    1    2    0    0 -0.13259002044E+02 -0.18567836581E+01  0.55839865285E+02  0.57422560896E+02  0.10566000000E+00 0.  1.
        994    1    1    2    0    0  0.11283596707E+02 -0.11788030107E+01  0.20091639105E+01  0.17158725439E+03  0.17120000000E+03 0.  0.
        998    1    1    2    0    0  0.19754053364E+01  0.30355866688E+01  0.14421509671E+04  0.14421901847E+04  0.10000000000E+02 0.  1.
</event>
<event>
 5    1  0.1129619E-008  0.3820768E+03  0.7957747E-01  0.3442165E+00
         13   -1    0    0    0    0  0.00000000000E+00  0.00000000000E+00  0.14999999963E+04  0.15000000000E+04  0.10566000000E+00 0.  1.
        994   -1    0    0    0    0 -0.00000000000E+00 -0.00000000000E+00  0.11368683772E-12  0.17120000000E+03  0.17120000000E+03 0.  0.
         13    1    1    2    0    0 -0.15613715201E+02 -0.72728583394E+02  0.13789305920E+03  0.15667719006E+03  0.10566000000E+00 0.  1.
        994    1    1    2    0    0 -0.20157395550E+02  0.82691196258E+02  0.44429603679E+02  0.19628444721E+03  0.17120000000E+03 0.  0.
        998    1    1    2    0    0  0.35771110751E+02 -0.99626128645E+01  0.13176773334E+04  0.13182383627E+04  0.10000000000E+02 0.  1.
</event>
<event>
 5    1  0.1129619E-008  0.3777428E+03  0.7957747E-01  0.3461046E+00
         13   -1    0    0    0    0  0.00000000000E+00  0.00000000000E+00  0.14999999963E+04  0.15000000000E+04  0.10566000000E+00 0.  1.
        994   -1    0    0    0    0 -0.00000000000E+00 -0.00000000000E+00  0.11368683772E-12  0.17120000000E+03  0.17120000000E+03 0.  0.
         13    1    1    2    0    0 -0.17790049140E+02  0.59401917650E+02  0.36546289755E+03  0.37068613991E+03  0.10566000000E+00 0.  1.
        994    1    1    2    0    0  0.57248377130E+01 -0.34264079286E+02  0.93522459511E+01  0.17493914771E+03  0.17120000000E+03 0.  0.
        998    1    1    2    0    0  0.12065211427E+02 -0.25137838365E+02  0.11251848528E+04  0.11255747124E+04  0.10000000000E+02 0.  1.
</event>
<event>
 5    1  0.1129619E-008  0.3739931E+03  0.7957747E-01  0.3477738E+00
         13   -1    0    0    0    0  0.00000000000E+00  0.00000000000E+00  0.14999999963E+04  0.15000000000E+04  0.10566000000E+00 0.  1.
        994   -1    0    0    0    0 -0.00000000000E+00 -0.00000000000E+00  0.11368683772E-12  0.17120000000E+03  0.17120000000E+03 0.  0.
         13    1    1    2    0    0 -0.18164148476E+01  0.34643610622E+02  0.97688165544E+02  0.10366517241E+03  0.10566000000E+00 0.  1.
        994    1    1    2    0    0  0.45688745841E+02  0.25372068115E+02  0.16570033183E+02  0.17976431608E+03  0.17120000000E+03 0.  0.
        998    1    1    2    0    0 -0.43872330994E+02 -0.60015678737E+02  0.13857417976E+04  0.13877705115E+04  0.10000000000E+02 0.  1.
</event>
<event>
 5    1  0.1129619E-008  0.3785206E+03  0.7957747E-01  0.3457626E+00
         13   -1    0    0    0    0  0.00000000000E+00  0.00000000000E+00  0.14999999963E+04  0.15000000000E+04  0.10566000000E+00 0. -1.
        994   -1    0    0    0    0 -0.00000000000E+00 -0.00000000000E+00  0.11368683772E-12  0.17120000000E+03  0.17120000000E+03 0.  0.
         13    1    1    2    0    0  0.12230367121E+03 -0.81797120101E+01  0.49329485785E+03  0.50829609837E+03  0.10566000000E+00 0. -1.
        994    1    1    2    0    0 -0.67510100240E+02  0.18948415875E+02  0.33457143139E+02  0.18800392689E+03  0.17120000000E+03 0.  0.
        998    1    1    2    0    0 -0.54793570968E+02 -0.10768703865E+02  0.97324799529E+03  0.97489997474E+03  0.10000000000E+02 0. -1.
</event>
<event>
 5    1  0.1129619E-008  0.3790759E+03  0.7957747E-01  0.3455192E+00
         13   -1    0    0    0    0  0.00000000000E+00  0.00000000000E+00  0.14999999963E+04  0.15000000000E+04  0.10566000000E+00 0. -1.
        994   -1    0    0    0    0 -0.00000000000E+00 -0.00000000000E+00  0.11368683772E-12  0.17120000000E+03  0.17120000000E+03 0.  0.
         13    1    1    2    0    0 -0.30363055881E+02 -0.38059955173E+02  0.25904979693E+03  0.26358543928E+03  0.10566000000E+00 0. -1.
        994    1    1    2    0    0  0.29010240735E+02  0.11131777755E+02  0.78446397522E+01  0.17417373199E+03  0.17120000000E+03 0.  0.
        998    1    1    2    0    0  0.13528151453E+01  0.26928177418E+02  0.12331055596E+04  0.12334408287E+04  0.10000000000E+02 0. -1.
</event>
<event>
 5    1  0.1129619E-008  0.3986217E+03  0.7957747E-01  0.3373879E+00
         13   -1    0    0    0    0  0.00000000000E+00  0.00000000000E+00  0.14999999963E+04  0.15000000000E+04  0.10566000000E+00 0.  1.
        994   -1    0    0    0    0 -0.00000000000E+00 -0.00000000000E+00  0.11368683772E-12  0.17120000000E+03  0.17120000000E+03 0.  0.
         13    1    1    2    0    0  0.12970377415E+02 -0.18093392185E+02 -0.25690252720E+01  0.22410100087E+02  0.10566000000E+00 0.  1.
        994    1    1    2    0    0 -0.89400427815E+01  0.18510325110E+02  0.28604867383E+02  0.17478625500E+03  0.17120000000E+03 0.  0.
        998    1    1    2    0    0 -0.40303346331E+01 -0.41693292455E+00  0.14739641542E+04  0.14740036449E+04  0.10000000000E+02 0.  1.
</event>
<event>
 5    1  0.1129619E-008  0.3841174E+03  0.7957747E-01  0.3433424E+00
         13   -1    0    0    0    0  0.00000000000E+00  0.00000000000E+00  0.14999999963E+04  0.15000000000E+04  0.10566000000E+00 0. -1.
        994   -1    0    0    0    0 -0.00000000000E+00 -0.00000000000E+00  0.11368683772E-12  0.17120000000E+03  0.17120000000E+03 0.  0.
         13    1    1    2    0    0 -0.98386319882E+01  0.40587865785E+01  0.27227364720E+02  0.29233764409E+02  0.10566000000E+00 0. -1.
        994    1    1    2    0    0  0.57124425909E+01  0.56591573882E+01  0.22822249422E+01  0.17140392823E+03  0.17120000000E+03 0.  0.
        998    1    1    2    0    0  0.41261893973E+01 -0.97179439668E+01  0.14704904066E+04  0.14705623074E+04  0.10000000000E+02 0. -1.
</event>
<event>
 5    1  0.1129619E-008  0.3786051E+03  0.7957747E-01  0.3457255E+00
         13   -1    0    0    0    0  0.00000000000E+00  0.00000000000E+00  0.14999999963E+04  0.15000000000E+04  0.10566000000E+00 0.  1.
        994   -1    0    0    0    0 -0.00000000000E+00 -0.00000000000E+00  0.11368683772E-12  0.17120000000E+03  0.17120000000E+03 0.  0.
         13    1    1    2    0    0 -0.46507109553E+01  0.93588333687E+01  0.82999129679E+01  0.13346032883E+02  0.10566000000E+00 0.  1.
        994    1    1    2    0    0  0.12516965195E+02 -0.45742559355E+02  0.12429605971E+02  0.17808141750E+03  0.17120000000E+03 0.  0.
        998    1    1    2    0    0 -0.78662542396E+01  0.36383725986E+02  0.14792704773E+04  0.14797725496E+04  0.10000000000E+02 0.  1.
</event>
<event>
 5    1  0.1129619E-008  0.3809885E+03  0.7957747E-01  0.3446866E+00
         13   -1    0    0    0    0  0.00000000000E+00  0.00000000000E+00  0.14999999963E+04  0.15000000000E+04  0.10566000000E+00 0. -1.
        994   -1    0    0    0    0 -0.00000000000E+00 -0.00000000000E+00  0.11368683772E-12  0.17120000000E+03  0.17120000000E+03 0.  0.
         13    1    1    2    0    0  0.29922310609E+02 -0.15691186019E+01  0.11880896164E+03  0.12252912852E+03  0.10566000000E+00 0. -1.
        994    1    1    2    0    0 -0.23458272924E+02 -0.89143972915E+01  0.57361765991E+01  0.17312452388E+03  0.17120000000E+03 0.  0.
        998    1    1    2    0    0 -0.64640376847E+01  0.10483515893E+02  0.13754548580E+04  0.13755463476E+04  0.10000000000E+02 0. -1.
</event>
<event>
 5    1  0.1129619E-008  0.3810129E+03  0.7957747E-01  0.3446760E+00
         13   -1    0    0    0    0  0.00000000000E+00  0.00000000000E+00  0.14999999963E+04  0.15000000000E+04  0.10566000000E+00 0.  1.
        994   -1    0    0    0    0 -0.00000000000E+00 -0.00000000000E+00  0.11368683772E-12  0.17120000000E+03  0.17120000000E+03 0.  0.
         13    1    1    2    0    0  0.21291556010E+01  0.14034654160E+02  0.26283046100E+02  0.29871633656E+02  0.10566000000E+00 0.  1.
        994    1    1    2    0    0 -0.51008543263E+01 -0.10387548961E+02  0.40690495611E+01  0.17163891474E+03  0.17120000000E+03 0.  0.
        998    1    1    2    0    0  0.29716987253E+01 -0.36471051994E+01  0.14696479006E+04  0.14696894516E+04  0.10000000000E+02 0.  1.
</event>
<event>
 5    1  0.1129619E-008  0.3710092E+03  0.7957747E-01  0.3491265E+00
         13   -1    0    0    0    0  0.00000000000E+00  0.00000000000E+00  0.14999999963E+04  0.15000000000E+04  0.10566000000E+00 0.  1.
        994   -1    0    0    0    0 -0.00000000000E+00 -0.00000000000E+00  0.11368683772E-12  0.17120000000E+03  0.17120000000E+03 0.  0.
         13    1    1    2    0    0 -0.15338839909E+02 -0.30272796139E+02  0.60856110740E+02  0.69679262153E+02  0.10566000000E+00 0.  1.
        994    1    1    2    0    0  0.13890029519E+02  0.27799559690E+02  0.12077379417E+02  0.17441631670E+03  0.17120000000E+03 0.  0.
        998    1    1    2    0    0  0.14488103901E+01  0.24732364489E+01  0.14270665061E+04  0.14271044211E+04  0.10000000000E+02 0.  1.
</event>
<event>
 5    1  0.1129619E-008  0.3718359E+03  0.7957747E-01  0.3487496E+00
         13   -1    0    0    0    0  0.00000000000E+00  0.00000000000E+00  0.14999999963E+04  0.15000000000E+04  0.10566000000E+00 0.  1.
        994   -1    0    0    0    0 -0.00000000000E+00 -0.00000000000E+00  0.11368683772E-12  0.17120000000E+03  0.17120000000E+03 0.  0.
         13    1    1    2    0    0  0.26871073798E+01 -0.25987239328E+02  0.36973521685E+02  0.45272614501E+02  0.10566000000E+00 0.  1.
        994    1    1    2    0    0 -0.68702339239E+01  0.24562916919E+02  0.10551021588E+02  0.17341078703E+03  0.17120000000E+03 0.  0.
        998    1    1    2    0    0  0.41831265441E+01  0.14243224092E+01  0.14524754530E+04  0.14525165985E+04  0.10000000000E+02 0.  1.
</event>
<event>
 5    1  0.1129619E-008  0.3742287E+03  0.7957747E-01  0.3476679E+00
         13   -1    0    0    0    0  0.00000000000E+00  0.00000000000E+00  0.14999999963E+04  0.15000000000E+04  0.10566000000E+00 0. -1.
        994   -1    0    0    0    0 -0.00000000000E+00 -0.00000000000E+00  0.11368683772E-12  0.17120000000E+03  0.17120000000E+03 0.  0.
         13    1    1    2    0    0  0.22122468910E+02  0.32100960587E+02  0.96729507331E+02  0.10429038332E+03  0.10566000000E+00 0. -1.
        994    1    1    2    0    0 -0.26324238710E+02 -0.35200202847E+02  0.13688453811E+02  0.17728179148E+03  0.17120000000E+03 0.  0.
        998    1    1    2    0    0  0.42017698005E+01  0.30992422604E+01  0.13895820351E+04  0.13896278252E+04  0.10000000000E+02 0. -1.
</event>
<event>
 5    1  0.1129619E-008  0.3710616E+03  0.7957747E-01  0.3491026E+00
         13   -1    0    0    0    0  0.00000000000E+00  0.00000000000E+00  0.14999999963E+04  0.15000000000E+04  0.10566000000E+00 0. -1.
        994   -1    0    0    0    0 -0.00000000000E+00 -0.00000000000E+00  0.11368683772E-12  0.17120000000E+03  0.17120000000E+03 0.  0.
         13    1    1    2    0    0 -0.95935695251E+02  0.10567716534E+02  0.48538964556E+03  0.49489236550E+03  0.10566000000E+00 0. -1.
        994    1    1    2    0    0  0.42227210245E+02 -0.11195598494E+03  0.63585056460E+02  0.21833410007E+03  0.17120000000E+03 0.  0.
        998    1    1    2    0    0  0.53708485005E+02  0.10138826841E+03  0.95102529426E+03  0.95797353442E+03  0.10000000000E+02 0. -1.
</event>
<event>
 5    1  0.1129619E-008  0.3815102E+03  0.7957747E-01  0.3444609E+00
         13   -1    0    0    0    0  0.00000000000E+00  0.00000000000E+00  0.14999999963E+04  0.15000000000E+04  0.10566000000E+00 0.  1.
        994   -1    0    0    0    0 -0.00000000000E+00 -0.00000000000E+00  0.11368683772E-12  0.17120000000E+03  0.17120000000E+03 0.  0.
         13    1    1    2    0    0  0.41166784695E+01 -0.18198275090E+02  0.50337799265E+02  0.53684536477E+02  0.10566000000E+00 0.  1.
        994    1    1    2    0    0 -0.74523480648E-01  0.12932266998E+02  0.39292820816E+01  0.17173272356E+03  0.17120000000E+03 0.  0.
        998    1    1    2    0    0 -0.40421549889E+01  0.52660080922E+01  0.14457329149E+04  0.14457827400E+04  0.10000000000E+02 0.  1.
</event>
<event>
 5    1  0.1129619E-008  0.3801657E+03  0.7957747E-01  0.3450437E+00
         13   -1    0    0    0    0  0.00000000000E+00  0.00000000000E+00  0.14999999963E+04  0.15000000000E+04  0.10566000000E+00 0.  1.
        994   -1    0    0    0    0 -0.00000000000E+00 -0.00000000000E+00  0.11368683772E-12  0.17120000000E+03  0.17120000000E+03 0.  0.
         13    1    1    2    0    0  0.56656504862E+02  0.16307957253E+02  0.10952704104E+03  0.12438686786E+03  0.10566000000E+00 0.  1.
        994    1    1    2    0    0 -0.17917662742E+02  0.18088032872E+02  0.18771974604E+02  0.17409780757E+03  0.17120000000E+03 0.  0.
        998    1    1    2    0    0 -0.38738842121E+02 -0.34395990126E+02  0.13717009806E+04  0.13727153246E+04  0.10000000000E+02 0.  1.
</event>
<event>
 5    1  0.1129619E-008  0.3839829E+03  0.7957747E-01  0.3433997E+00
         13   -1    0    0    0    0  0.00000000000E+00  0.00000000000E+00  0.14999999963E+04  0.15000000000E+04  0.10566000000E+00 0.  1.
        994   -1    0    0    0    0 -0.00000000000E+00 -0.00000000000E+00  0.11368683772E-12  0.17120000000E+03  0.17120000000E+03 0.  0.
         13    1    1    2    0    0 -0.11574414205E+02  0.21567478686E+02  0.14301560770E+03  0.14509513572E+03  0.10566000000E+00 0.  1.
        994    1    1    2    0    0  0.38691597557E+01 -0.11720583139E+02  0.26387856121E+01  0.17166463135E+03  0.17120000000E+03 0.  0.
        998    1    1    2    0    0  0.77052544491E+01 -0.98468955465E+01  0.13543456030E+04  0.13544402329E+04  0.10000000000E+02 0.  1.
</event>
<event>
 5    1  0.1129619E-008  0.3731039E+03  0.7957747E-01  0.3481747E+00
         13   -1    0    0    0    0  0.00000000000E+00  0.00000000000E+00  0.14999999963E+04  0.15000000000E+04  0.10566000000E+00 0. -1.
        994   -1    0    0    0    0 -0.00000000000E+00 -0.00000000000E+00  0.11368683772E-12  0.17120000000E+03  0.17120000000E+03 0.  0.
         13    1    1    2    0    0  0.15440133972E+02  0.71095151663E+02  0.18547386226E+03  0.19923223402E+03  0.10566000000E+00 0. -1.
        994    1    1    2    0    0 -0.85647917716E+01 -0.67464048922E+02  0.29120664583E+02  0.18649988381E+03  0.17120000000E+03 0.  0.
        998    1    1    2    0    0 -0.68753422009E+01 -0.36311027417E+01  0.12854054694E+04  0.12854678822E+04  0.10000000000E+02 0. -1.
</event>
<event>
 5    1  0.1129619E-008  0.3752933E+03  0.7957747E-01  0.3471912E+00
         13   -1    0    0    0    0  0.00000000000E+00  0.00000000000E+00  0.14999999963E+04  0.15000000000E+04  0.10566000000E+00 0.  1.
        994   -1    0    0    0    0 -0.00000000000E+00 -0.00000000000E+00  0.11368683772E-12  0.17120000000E+03  0.17120000000E+03 0.  0.
         13    1    1    2    0    0  0.48757917241E+02 -0.67136356478E+02  0.22783674376E+03  0.24247519012E+03  0.10566000000E+00 0.  1.
        994    1    1    2    0    0 -0.27718805010E+02  0.61048901971E+02  0.29956905125E+02  0.18628514903E+03  0.17120000000E+03 0.  0.
        998    1    1    2    0    0 -0.21039112231E+02  0.60874545066E+01  0.12422063474E+04  0.12424396608E+04  0.10000000000E+02 0.  1.
</event>
<event>
 5    1  0.1129619E-008  0.3849630E+03  0.7957747E-01  0.3429829E+00
         13   -1    0    0    0    0  0.00000000000E+00  0.00000000000E+00  0.14999999963E+04  0.15000000000E+04  0.10566000000E+00 0.  1.
        994   -1    0    0    0    0 -0.00000000000E+00 -0.00000000000E+00  0.11368683772E-12  0.17120000000E+03  0.17120000000E+03 0.  0.
         13    1    1    2    0    0  0.12945121098E+02  0.79403576246E+01  0.67042424749E+02  0.68740987189E+02  0.10566000000E+00 0.  1.
        994    1    1    2    0    0 -0.13681596486E+02 -0.95879294114E+01  0.25670450736E+01  0.17203239286E+03  0.17120000000E+03 0.  0.
        998    1    1    2    0    0  0.73647538893E+00  0.16475717868E+01  0.14303905265E+04  0.14304266200E+04  0.10000000000E+02 0.  1.
</event>
<event>
 5    1  0.1129619E-008  0.3832600E+03  0.7957747E-01  0.3437086E+00
         13   -1    0    0    0    0  0.00000000000E+00  0.00000000000E+00  0.14999999963E+04  0.15000000000E+04  0.10566000000E+00 0.  1.
        994   -1    0    0    0    0 -0.00000000000E+00 -0.00000000000E+00  0.11368683772E-12  0.17120000000E+03  0.17120000000E+03 0.  0.
         13    1    1    2    0    0 -0.22507273347E+02 -0.53656482985E+01  0.12718448164E+03  0.12927208156E+03  0.10566000000E+00 0.  1.
        994    1    1    2    0    0 -0.12190034499E+02  0.12673543298E+02  0.35198334067E+01  0.17213670401E+03  0.17120000000E+03 0.  0.
        998    1    1    2    0    0  0.34697307847E+02 -0.73078950000E+01  0.13692956812E+04  0.13697912144E+04  0.10000000000E+02 0.  1.
</event>
<event>
 5    1  0.1129619E-008  0.3841529E+03  0.7957747E-01  0.3433273E+00
         13   -1    0    0    0    0  0.00000000000E+00  0.00000000000E+00  0.14999999963E+04  0.15000000000E+04  0.10566000000E+00 0. -1.
        994   -1    0    0    0    0 -0.00000000000E+00 -0.00000000000E+00  0.11368683772E-12  0.17120000000E+03  0.17120000000E+03 0.  0.
         13    1    1    2    0    0 -0.23634560842E+02  0.64422538558E+02  0.12365368731E+03  0.14141817949E+03  0.10566000000E+00 0. -1.
        994    1    1    2    0    0  0.37063584138E+02 -0.26436471950E+02  0.26292914889E+02  0.17909035064E+03  0.17120000000E+03 0.  0.
        998    1    1    2    0    0 -0.13429023296E+02 -0.37986066607E+02  0.13500533941E+04  0.13506914699E+04  0.10000000000E+02 0. -1.
</event>
<event>
 5    1  0.1129619E-008  0.4185120E+03  0.7957747E-01  0.3298896E+00
         13   -1    0    0    0    0  0.00000000000E+00  0.00000000000E+00  0.14999999963E+04  0.15000000000E+04  0.10566000000E+00 0.  1.
        994   -1    0    0    0    0 -0.00000000000E+00 -0.00000000000E+00  0.11368683772E-12  0.17120000000E+03  0.17120000000E+03 0.  0.
         13    1    1    2    0    0  0.10476955486E+03  0.62550412743E+02  0.14242406014E+03  0.18754689501E+03  0.10566000000E+00 0.  1.
        994    1    1    2    0    0 -0.13079726351E+03 -0.72719511910E+02  0.14278888040E+03  0.26850354918E+03  0.17120000000E+03 0.  0.
        998    1    1    2    0    0  0.26027708647E+02  0.10169099167E+02  0.12147870557E+04  0.12151495558E+04  0.10000000000E+02 0.  1.
</event>
<event>
 5    1  0.1520258E-008  0.3859470E+03  0.7957747E-01  0.3425666E+00
         13   -1    0    0    0    0  0.00000000000E+00  0.00000000000E+00  0.14999999963E+04  0.15000000000E+04  0.10566000000E+00 0. -1.
        994   -1    0    0    0    0 -0.00000000000E+00 -0.00000000000E+00  0.11368683772E-12  0.17120000000E+03  0.17120000000E+03 0.  0.
         13    1    1    2    0    0  0.53839512486E+00  0.11534446390E+02  0.56538757356E+02  0.57705940511E+02  0.10566000000E+00 0. -1.
        994    1    1    2    0    0 -0.21597032837E+01 -0.11501298423E+02  0.16098070613E+01  0.17160703850E+03  0.17120000000E+03 0.  0.
        998    1    1    2    0    0  0.16213081589E+01 -0.33147967731E-01  0.14418514319E+04  0.14418870210E+04  0.10000000000E+02 0. -1.
</event>
<event>
 5    1  0.1129619E-008  0.3699747E+03  0.7957747E-01  0.3496007E+00
         13   -1    0    0    0    0  0.00000000000E+00  0.00000000000E+00  0.14999999963E+04  0.15000000000E+04  0.10566000000E+00 0. -1.
        994   -1    0    0    0    0 -0.00000000000E+00 -0.00000000000E+00  0.11368683772E-12  0.17120000000E+03  0.17120000000E+03 0.  0.
         13    1    1    2    0    0  0.37981058557E+02 -0.17676318907E+02  0.85313860488E+02  0.95044615916E+02  0.10566000000E+00 0. -1.
        994    1    1    2    0    0 -0.52586016630E+02 -0.48847019000E+01  0.18989667171E+02  0.18016436084E+03  0.17120000000E+03 0.  0.
        998    1    1    2    0    0  0.14604958073E+02  0.22561020807E+02  0.13956964686E+04  0.13959910232E+04  0.10000000000E+02 0. -1.
</event>
<event>
 5    1  0.1129619E-008  0.3808829E+03  0.7957747E-01  0.3447323E+00
         13   -1    0    0    0    0  0.00000000000E+00  0.00000000000E+00  0.14999999963E+04  0.15000000000E+04  0.10566000000E+00 0.  1.
        994   -1    0    0    0    0 -0.00000000000E+00 -0.00000000000E+00  0.11368683772E-12  0.17120000000E+03  0.17120000000E+03 0.  0.
         13    1    1    2    0    0  0.80004524928E+01 -0.90237419730E+01  0.17918876123E+02  0.21599362139E+02  0.10566000000E+00 0.  1.
        994    1    1    2    0    0 -0.31733569483E+01  0.15899363114E+02  0.45647637557E+01  0.17202655902E+03  0.17120000000E+03 0.  0.
        998    1    1    2    0    0 -0.48270955445E+01 -0.68756211411E+01  0.14775163564E+04  0.14775740788E+04  0.10000000000E+02 0.  1.
</event>
<event>
 5    1  0.1129619E-008  0.3809818E+03  0.7957747E-01  0.3446895E+00
         13   -1    0    0    0    0  0.00000000000E+00  0.00000000000E+00  0.14999999963E+04  0.15000000000E+04  0.10566000000E+00 0.  1.
        994   -1    0    0    0    0 -0.00000000000E+00 -0.00000000000E+00  0.11368683772E-12  0.17120000000E+03  0.17120000000E+03 0.  0.
         13    1    1    2    0    0 -0.24412242756E+02 -0.31163182332E+01  0.85878842401E+02  0.89335635509E+02  0.10566000000E+00 0.  1.
        994    1    1    2    0    0  0.67234824645E+01 -0.37802840040E+01  0.38366431569E+01  0.17141661411E+03  0.17120000000E+03 0.  0.
        998    1    1    2    0    0  0.17688760292E+02  0.68966022372E+01  0.14102845107E+04  0.14104477504E+04  0.10000000000E+02 0.  1.
</event>
<event>
 5    1  0.1129619E-008  0.3685548E+03  0.7957747E-01  0.3502559E+00
         13   -1    0    0    0    0  0.00000000000E+00  0.00000000000E+00  0.14999999963E+04  0.15000000000E+04  0.10566000000E+00 0. -1.
        994   -1    0    0    0    0 -0.00000000000E+00 -0.00000000000E+00  0.11368683772E-12  0.17120000000E+03  0.17120000000E+03 0.  0.
         13    1    1    2    0    0  0.64161343247E+02 -0.10350292253E+02  0.19308564588E+03  0.20372992988E+03  0.10566000000E+00 0. -1.
        994    1    1    2    0    0 -0.47322385664E+02  0.21245636361E+02  0.19595472375E+02  0.17995612739E+03  0.17120000000E+03 0.  0.
        998    1    1    2    0    0 -0.16838957583E+02 -0.10895344108E+02  0.12873188780E+04  0.12875139427E+04  0.10000000000E+02 0. -1.
</event>
<event>
 5    1  0.1129619E-008  0.3696080E+03  0.7957747E-01  0.3497695E+00
         13   -1    0    0    0    0  0.00000000000E+00  0.00000000000E+00  0.14999999963E+04  0.15000000000E+04  0.10566000000E+00 0. -1.
        994   -1    0    0    0    0 -0.00000000000E+00 -0.00000000000E+00  0.11368683772E-12  0.17120000000E+03  0.17120000000E+03 0.  0.
         13    1    1    2    0    0  0.13300030284E+02  0.68925185188E+01  0.55085478419E+01  0.15960979934E+02  0.10566000000E+00 0. -1.
        994    1    1    2    0    0 -0.97763841273E+01 -0.15399583227E+02  0.11894102666E+02  0.17257935719E+03  0.17120000000E+03 0.  0.
        998    1    1    2    0    0 -0.35236461564E+01  0.85070647087E+01  0.14825973458E+04  0.14826596629E+04  0.10000000000E+02 0. -1.
</event>
<event>
 5    1  0.1129619E-008  0.3852344E+03  0.7957747E-01  0.3428679E+00
         13   -1    0    0    0    0  0.00000000000E+00  0.00000000000E+00  0.14999999963E+04  0.15000000000E+04  0.10566000000E+00 0.  1.
        994   -1    0    0    0    0 -0.00000000000E+00 -0.00000000000E+00  0.11368683772E-12  0.17120000000E+03  0.17120000000E+03 0.  0.
         13    1    1    2    0    0  0.94224704585E+01  0.53652285191E+01  0.37183719986E+02  0.38732529256E+02  0.10566000000E+00 0.  1.
        994    1    1    2    0    0 -0.14415601615E+02 -0.66930797060E+01  0.23443320129E+01  0.17195215258E+03  0.17120000000E+03 0.  0.
        998    1    1    2    0    0  0.49931311562E+01  0.13278511868E+01  0.14604719443E+04  0.14605153182E+04  0.10000000000E+02 0.  1.
</event>
<event>
 5    1  0.1129619E-008  0.3858674E+03  0.7957747E-01  0.3426002E+00
         13   -1    0    0    0    0  0.00000000000E+00  0.00000000000E+00  0.14999999963E+04  0.15000000000E+04  0.10566000000E+00 0. -1.
        994   -1    0    0    0    0 -0.00000000000E+00 -0.00000000000E+00  0.11368683772E-12  0.17120000000E+03  0.17120000000E+03 0.  0.
         13    1    1    2    0    0 -0.65320044440E+01 -0.10948991354E+02  0.66449310701E+02  0.67661433257E+02  0.10566000000E+00 0. -1.
        994    1    1    2    0    0  0.66150652231E+01  0.10429739488E+02  0.17004778667E+01  0.17165334305E+03  0.17120000000E+03 0.  0.
        998    1    1    2    0    0 -0.83060779158E-01  0.51925186578E+00  0.14318502077E+04  0.14318852237E+04  0.10000000000E+02 0. -1.
</event>
<event>
 5    1  0.1129619E-008  0.3842701E+03  0.7957747E-01  0.3432774E+00
         13   -1    0    0    0    0  0.00000000000E+00  0.00000000000E+00  0.14999999963E+04  0.15000000000E+04  0.10566000000E+00 0. -1.
        994   -1    0    0    0    0 -0.00000000000E+00 -0.00000000000E+00  0.11368683772E-12  0.17120000000E+03  0.17120000000E+03 0.  0.
         13    1    1    2    0    0 -0.91706349406E+00 -0.12225369345E+02  0.36248904655E+02  0.38266106593E+02  0.10566000000E+00 0. -1.
        994    1    1    2    0    0 -0.32288285132E+01  0.14885665155E+02  0.27581126542E+01  0.17189838727E+03  0.17120000000E+03 0.  0.
        998    1    1    2    0    0  0.41458920072E+01 -0.26602958102E+01  0.14609929790E+04  0.14610355061E+04  0.10000000000E+02 0. -1.
</event>
<event>
 5    1  0.1129619E-008  0.3807683E+03  0.7957747E-01  0.3447820E+00
         13   -1    0    0    0    0  0.00000000000E+00  0.00000000000E+00  0.14999999963E+04  0.15000000000E+04  0.10566000000E+00 0.  1.
        994   -1    0    0    0    0 -0.00000000000E+00 -0.00000000000E+00  0.11368683772E-12  0.17120000000E+03  0.17120000000E+03 0.  0.
         13    1    1    2    0    0  0.71418790124E+01 -0.80370512867E+01  0.13732651802E+02  0.17441259093E+02  0.10566000000E+00 0.  1.
        994    1    1    2    0    0 -0.77708235162E+01  0.71107693560E+01  0.41158620193E+01  0.17157310121E+03  0.17120000000E+03 0.  0.
        998    1    1    2    0    0  0.62894450375E+00  0.92628193074E+00  0.14821514825E+04  0.14821856397E+04  0.10000000000E+02 0.  1.
</event>
<event>
 5    1  0.1129619E-008  0.3848441E+03  0.7957747E-01  0.3430333E+00
         13   -1    0    0    0    0  0.00000000000E+00  0.00000000000E+00  0.14999999963E+04  0.15000000000E+04  0.10566000000E+00 0. -1.
        994   -1    0    0    0    0 -0.00000000000E+00 -0.00000000000E+00  0.11368683772E-12  0.17120000000E+03  0.17120000000E+03 0.  0.
         13    1    1    2    0    0 -0.17341131940E+02  0.96962969051E+01  0.96312703975E+02  0.98340638301E+02  0.10566000000E+00 0. -1.
        994    1    1    2    0    0  0.36186954063E+02 -0.12348392312E+02  0.65327694140E+01  0.17553944147E+03  0.17120000000E+03 0.  0.
        998    1    1    2    0    0 -0.18845822124E+02  0.26520954073E+01  0.13971545229E+04  0.13973199202E+04  0.10000000000E+02 0. -1.
</event>
<event>
 5    1  0.1129619E-008  0.3799641E+03  0.7957747E-01  0.3451315E+00
         13   -1    0    0    0    0  0.00000000000E+00  0.00000000000E+00  0.14999999963E+04  0.15000000000E+04  0.10566000000E+00 0. -1.
        994   -1    0    0    0    0 -0.00000000000E+00 -0.00000000000E+00  0.11368683772E-12  0.17120000000E+03  0.17120000000E+03 0.  0.
         13    1    1    2    0    0  0.59146034237E+01  0.18779287523E+02  0.43003563082E+02  0.47296530267E+02  0.10566000000E+00 0. -1.
        994    1    1    2    0    0 -0.11842591819E+02 -0.24177383751E+02  0.65782730160E+01  0.17342867855E+03  0.17120000000E+03 0.  0.
        998    1    1    2    0    0  0.59279883950E+01  0.53980962282E+01  0.14504181602E+04  0.14504747912E+04  0.10000000000E+02 0. -1.
</event>
<event>
 5    1  0.1245895E-008  0.3860053E+03  0.7957747E-01  0.3425420E+00
         13   -1    0    0    0    0  0.00000000000E+00  0.00000000000E+00  0.14999999963E+04  0.15000000000E+04  0.10566000000E+00 0.  1.
        994   -1    0    0    0    0 -0.00000000000E+00 -0.00000000000E+00  0.11368683772E-12  0.17120000000E+03  0.17120000000E+03 0.  0.
         13    1    1    2    0    0 -0.11381402245E+02  0.72487121656E+01  0.81275636390E+02  0.82388229619E+02  0.10566000000E+00 0.  1.
        994    1    1    2    0    0  0.76063827464E+01 -0.47486503064E+01  0.13954499897E+01  0.17144035120E+03  0.17120000000E+03 0.  0.
        998    1    1    2    0    0  0.37750194982E+01 -0.25000618592E+01  0.14173289099E+04  0.14173714192E+04  0.10000000000E+02 0.  1.
</event>
<event>
 5    1  0.1129619E-008  0.3810751E+03  0.7957747E-01  0.3446491E+00
         13   -1    0    0    0    0  0.00000000000E+00  0.00000000000E+00  0.14999999963E+04  0.15000000000E+04  0.10566000000E+00 0.  1.
        994   -1    0    0    0    0 -0.00000000000E+00 -0.00000000000E+00  0.11368683772E-12  0.17120000000E+03  0.17120000000E+03 0.  0.
         13    1    1    2    0    0 -0.38211957214E+02 -0.55375129606E+01  0.17408787796E+03  0.17831830568E+03  0.10566000000E+00 0.  1.
        994    1    1    2    0    0  0.47647373200E+02 -0.42013711788E+01  0.11250534508E+02  0.17811215068E+03  0.17120000000E+03 0.  0.
        998    1    1    2    0    0 -0.94354159861E+01  0.97388841395E+01  0.13146615838E+04  0.13147695436E+04  0.10000000000E+02 0.  1.
</event>
<event>
 5    1  0.1129619E-008  0.3757021E+03  0.7957747E-01  0.3470088E+00
         13   -1    0    0    0    0  0.00000000000E+00  0.00000000000E+00  0.14999999963E+04  0.15000000000E+04  0.10566000000E+00 0.  1.
        994   -1    0    0    0    0 -0.00000000000E+00 -0.00000000000E+00  0.11368683772E-12  0.17120000000E+03  0.17120000000E+03 0.  0.
         13    1    1    2    0    0 -0.45972608785E+02  0.44733290766E+02  0.15040144633E+03  0.16350888136E+03  0.10566000000E+00 0.  1.
        994    1    1    2    0    0  0.10150891633E+02 -0.27715929591E+02  0.17100362494E+02  0.17456539105E+03  0.17120000000E+03 0.  0.
        998    1    1    2    0    0  0.35821717152E+02 -0.17017361175E+02  0.13324981875E+04  0.13331257276E+04  0.10000000000E+02 0.  1.
</event>
<event>
 5    1  0.1129619E-008  0.3791396E+03  0.7957747E-01  0.3454914E+00
         13   -1    0    0    0    0  0.00000000000E+00  0.00000000000E+00  0.14999999963E+04  0.15000000000E+04  0.10566000000E+00 0. -1.
        994   -1    0    0    0    0 -0.00000000000E+00 -0.00000000000E+00  0.11368683772E-12  0.17120000000E+03  0.17120000000E+03 0.  0.
         13    1    1    2    0    0 -0.25274011842E+02  0.35587045839E+01  0.67518624576E+02  0.72181825147E+02  0.10566000000E+00 0. -1.
        994    1    1    2    0    0  0.23372129563E+02 -0.36281999387E+01  0.64457874263E+01  0.17294625885E+03  0.17120000000E+03 0.  0.
        998    1    1    2    0    0  0.19018822795E+01  0.69495354837E-01  0.14260355843E+04  0.14260719160E+04  0.10000000000E+02 0.  0.
</event>
<event>
 5    1  0.1129619E-008  0.3763358E+03  0.7957747E-01  0.3467270E+00
         13   -1    0    0    0    0  0.00000000000E+00  0.00000000000E+00  0.14999999963E+04  0.15000000000E+04  0.10566000000E+00 0. -1.
        994   -1    0    0    0    0 -0.00000000000E+00 -0.00000000000E+00  0.11368683772E-12  0.17120000000E+03  0.17120000000E+03 0.  0.
         13    1    1    2    0    0 -0.13761524847E+03  0.15657443184E+03  0.92926969019E+03  0.95236320676E+03  0.10566000000E+00 0. -1.
        994    1    1    2    0    0  0.13081599121E+03 -0.16653345384E+03  0.17697589925E+03  0.32477087880E+03  0.17120000000E+03 0.  0.
        998    1    1    2    0    0  0.67992572655E+01  0.99590219995E+01  0.39375440684E+03  0.39406591444E+03  0.10000000000E+02 0. -1.
</event>
<event>
 5    1  0.1129619E-008  0.3727887E+03  0.7957747E-01  0.3483172E+00
         13   -1    0    0    0    0  0.00000000000E+00  0.00000000000E+00  0.14999999963E+04  0.15000000000E+04  0.10566000000E+00 0. -1.
        994   -1    0    0    0    0 -0.00000000000E+00 -0.00000000000E+00  0.11368683772E-12  0.17120000000E+03  0.17120000000E+03 0.  0.
         13    1    1    2    0    0 -0.49561137545E+01  0.14798719779E+02  0.42397004907E+01  0.16172550663E+02  0.10566000000E+00 0. -1.
        994    1    1    2    0    0  0.69436830529E+00 -0.74055581984E+01  0.12616421092E+02  0.17182531397E+03  0.17120000000E+03 0.  0.
        998    1    1    2    0    0  0.42617454493E+01 -0.73931615806E+01  0.14831438747E+04  0.14832021354E+04  0.10000000000E+02 0. -1.
</event>
<event>
 5    1  0.1129619E-008  0.3824117E+03  0.7957747E-01  0.3440724E+00
         13   -1    0    0    0    0  0.00000000000E+00  0.00000000000E+00  0.14999999963E+04  0.15000000000E+04  0.10566000000E+00 0.  1.
        994   -1    0    0    0    0 -0.00000000000E+00 -0.00000000000E+00  0.11368683772E-12  0.17120000000E+03  0.17120000000E+03 0.  0.
         13    1    1    2    0    0  0.12905497576E+02  0.21953107538E+02  0.10440574061E+03  0.10746655589E+03  0.10566000000E+00 0.  1.
        994    1    1    2    0    0 -0.18705594863E+02 -0.17301925955E+02  0.50768896458E+01  0.17316024581E+03  0.17120000000E+03 0.  0.
        998    1    1    2    0    0  0.58000972873E+01 -0.46511815830E+01  0.13905173660E+04  0.13905731983E+04  0.10000000000E+02 0.  1.
</event>
<event>
 5    1  0.1129619E-008  0.3752052E+03  0.7957747E-01  0.3472306E+00
         13   -1    0    0    0    0  0.00000000000E+00  0.00000000000E+00  0.14999999963E+04  0.15000000000E+04  0.10566000000E+00 0.  1.
        994   -1    0    0    0    0 -0.00000000000E+00 -0.00000000000E+00  0.11368683772E-12  0.17120000000E+03  0.17120000000E+03 0.  0.
         13    1    1    2    0    0  0.28573207453E+02 -0.18386043885E+02  0.81345291862E+02  0.88156352386E+02  0.10566000000E+00 0.  1.
        994    1    1    2    0    0 -0.29168207414E+02  0.17193279387E+02  0.10477424920E+02  0.17483023083E+03  0.17120000000E+03 0.  0.
        998    1    1    2    0    0  0.59499996100E+00  0.11927644981E+01  0.14081772795E+04  0.14082134168E+04  0.10000000000E+02 0.  1.
</event>
<event>
 5    1  0.1129619E-008  0.4136449E+03  0.7957747E-01  0.3316586E+00
         13   -1    0    0    0    0  0.00000000000E+00  0.00000000000E+00  0.14999999963E+04  0.15000000000E+04  0.10566000000E+00 0. -1.
        994   -1    0    0    0    0 -0.00000000000E+00 -0.00000000000E+00  0.11368683772E-12  0.17120000000E+03  0.17120000000E+03 0.  0.
         13    1    1    2    0    0  0.75544002046E+02  0.39028106512E+02  0.82458225127E+02  0.11844601892E+03  0.10566000000E+00 0. -1.
        994    1    1    2    0    0 -0.76225230885E+02 -0.50633725590E+02  0.71877156213E+02  0.20700199414E+03  0.17120000000E+03 0.  0.
        998    1    1    2    0    0  0.68122883905E+00  0.11605619078E+02  0.13456646149E+04  0.13457519869E+04  0.10000000000E+02 0. -1.
</event>
<event>
 5    1  0.1129619E-008  0.3752952E+03  0.7957747E-01  0.3471903E+00
         13   -1    0    0    0    0  0.00000000000E+00  0.00000000000E+00  0.14999999963E+04  0.15000000000E+04  0.10566000000E+00 0. -1.
        994   -1    0    0    0    0 -0.00000000000E+00 -0.00000000000E+00  0.11368683772E-12  0.17120000000E+03  0.17120000000E+03 0.  0.
         13    1    1    2    0    0 -0.18140878916E+02  0.48258680967E-01  0.22585420675E+02  0.28969056040E+02  0.10566000000E+00 0. -1.
        994    1    1    2    0    0  0.10192430932E+02  0.68639968573E+01  0.70401248367E+01  0.17178475910E+03  0.17120000000E+03 0.  0.
        998    1    1    2    0    0  0.79484479838E+01 -0.69122555383E+01  0.14703744508E+04  0.14704461849E+04  0.10000000000E+02 0. -1.
</event>
<event>
 5    1  0.1129619E-008  0.3837928E+03  0.7957747E-01  0.3434808E+00
         13   -1    0    0    0    0  0.00000000000E+00  0.00000000000E+00  0.14999999963E+04  0.15000000000E+04  0.10566000000E+00 0.  1.
        994   -1    0    0    0    0 -0.00000000000E+00 -0.00000000000E+00  0.11368683772E-12  0.17120000000E+03  0.17120000000E+03 0.  0.
         13    1    1    2    0    0  0.23506945315E+02 -0.38382599662E+02  0.25455455955E+03  0.25850306649E+03  0.10566000000E+00 0.  1.
        994    1    1    2    0    0 -0.62222332392E+02  0.60495308519E+02  0.27505549039E+02  0.19390022235E+03  0.17120000000E+03 0.  0.
        998    1    1    2    0    0  0.38715387078E+02 -0.22112708857E+02  0.12179398877E+04  0.12187967112E+04  0.10000000000E+02 0.  1.
</event>
<event>
 5    1  0.1129619E-008  0.3772681E+03  0.7957747E-01  0.3463141E+00
         13   -1    0    0    0    0  0.00000000000E+00  0.00000000000E+00  0.14999999963E+04  0.15000000000E+04  0.10566000000E+00 0. -1.
        994   -1    0    0    0    0 -0.00000000000E+00 -0.00000000000E+00  0.11368683772E-12  0.17120000000E+03  0.17120000000E+03 0.  0.
         13    1    1    2    0    0 -0.40143982598E+02 -0.26321383076E+02  0.21178038672E+03  0.21715270642E+03  0.10566000000E+00 0. -1.
        994    1    1    2    0    0  0.15182469768E+02  0.21193775694E+02  0.78148335540E+01  0.17334992108E+03  0.17120000000E+03 0.  0.
        998    1    1    2    0    0  0.24961512831E+02  0.51276073816E+01  0.12804047760E+04  0.12806973725E+04  0.10000000000E+02 0. -1.
</event>
<event>
 5    1  0.1129619E-008  0.3826807E+03  0.7957747E-01  0.3439569E+00
         13   -1    0    0    0    0  0.00000000000E+00  0.00000000000E+00  0.14999999963E+04  0.15000000000E+04  0.10566000000E+00 0. -1.
        994   -1    0    0    0    0 -0.00000000000E+00 -0.00000000000E+00  0.11368683772E-12  0.17120000000E+03  0.17120000000E+03 0.  0.
         13    1    1    2    0    0  0.13528538761E+02 -0.73170101752E+01  0.42097270036E+02  0.44819095344E+02  0.10566000000E+00 0. -1.
        994    1    1    2    0    0 -0.97896460894E+01 -0.32711430474E+01  0.31391176644E+01  0.17153959195E+03  0.17120000000E+03 0.  0.
        998    1    1    2    0    0 -0.37388926716E+01  0.10588153223E+02  0.14547636086E+04  0.14548413127E+04  0.10000000000E+02 0. -1.
</event>
<event>
 5    1  0.1129619E-008  0.3834254E+03  0.7957747E-01  0.3436378E+00
         13   -1    0    0    0    0  0.00000000000E+00  0.00000000000E+00  0.14999999963E+04  0.15000000000E+04  0.10566000000E+00 0.  1.
        994   -1    0    0    0    0 -0.00000000000E+00 -0.00000000000E+00  0.11368683772E-12  0.17120000000E+03  0.17120000000E+03 0.  0.
         13    1    1    2    0    0 -0.76156777200E+01 -0.66602448781E+01  0.20640694221E+02  0.22987101404E+02  0.10566000000E+00 0.  1.
        994    1    1    2    0    0  0.86371072575E+01 -0.58879380328E+01  0.27752096211E+01  0.17154127557E+03  0.17120000000E+03 0.  0.
        998    1    1    2    0    0 -0.10214295375E+01  0.12548182911E+02  0.14765840924E+04  0.14766716230E+04  0.10000000000E+02 0.  1.
</event>
<event>
 5    1  0.3219540E-008  0.3864607E+03  0.7957747E-01  0.3423501E+00
         13   -1    0    0    0    0  0.00000000000E+00  0.00000000000E+00  0.14999999963E+04  0.15000000000E+04  0.10566000000E+00 0. -1.
        994   -1    0    0    0    0 -0.00000000000E+00 -0.00000000000E+00  0.11368683772E-12  0.17120000000E+03  0.17120000000E+03 0.  0.
         13    1    1    2    0    0 -0.30189816573E+01  0.10418134588E+02  0.63493175372E+02  0.64413090761E+02  0.10566000000E+00 0. -1.
        994    1    1    2    0    0  0.22795181848E+01 -0.12216652151E+02  0.14123468652E+01  0.17165627724E+03  0.17120000000E+03 0.  0.
        998    1    1    2    0    0  0.73946347245E+00  0.17985175631E+01  0.14350944740E+04  0.14351306320E+04  0.10000000000E+02 0. -1.
</event>
<event>
 5    1  0.1129619E-008  0.3702135E+03  0.7957747E-01  0.3494910E+00
         13   -1    0    0    0    0  0.00000000000E+00  0.00000000000E+00  0.14999999963E+04  0.15000000000E+04  0.10566000000E+00 0. -1.
        994   -1    0    0    0    0 -0.00000000000E+00 -0.00000000000E+00  0.11368683772E-12  0.17120000000E+03  0.17120000000E+03 0.  0.
         13    1    1    2    0    0 -0.39507815009E+01 -0.15674761716E+02  0.69952146934E+01  0.17613943964E+02  0.10566000000E+00 0. -1.
        994    1    1    2    0    0  0.77173301863E+01  0.22011634778E+01  0.11277109287E+02  0.17175859658E+03  0.17120000000E+03 0.  0.
        998    1    1    2    0    0 -0.37665486854E+01  0.13473598238E+02  0.14817276723E+04  0.14818274595E+04  0.10000000000E+02 0. -1.
</event>
<event>
 5    1  0.1129619E-008  0.3818378E+03  0.7957747E-01  0.3443195E+00
         13   -1    0    0    0    0  0.00000000000E+00  0.00000000000E+00  0.14999999963E+04  0.15000000000E+04  0.10566000000E+00 0.  1.
        994   -1    0    0    0    0 -0.00000000000E+00 -0.00000000000E+00  0.11368683772E-12  0.17120000000E+03  0.17120000000E+03 0.  0.
         13    1    1    2    0    0  0.12239954742E+02 -0.85623026098E+01  0.32972582710E+02  0.36198506774E+02  0.10566000000E+00 0.  1.
        994    1    1    2    0    0 -0.14757038420E+02  0.59690128218E+01  0.40507455408E+01  0.17198618502E+03  0.17120000000E+03 0.  0.
        998    1    1    2    0    0  0.25170836784E+01  0.25932897880E+01  0.14629766680E+04  0.14630153082E+04  0.10000000000E+02 0.  1.
</event>
<event>
 5    1  0.1129619E-008  0.3802659E+03  0.7957747E-01  0.3450002E+00
         13   -1    0    0    0    0  0.00000000000E+00  0.00000000000E+00  0.14999999963E+04  0.15000000000E+04  0.10566000000E+00 0.  1.
        994   -1    0    0    0    0 -0.00000000000E+00 -0.00000000000E+00  0.11368683772E-12  0.17120000000E+03  0.17120000000E+03 0.  0.
         13    1    1    2    0    0 -0.52662667942E+01  0.26009143958E+02  0.84667276835E+02  0.88728620332E+02  0.10566000000E+00 0.  1.
        994    1    1    2    0    0 -0.31925389218E+01 -0.22353403745E+02  0.57037789704E+01  0.17277685047E+03  0.17120000000E+03 0.  0.
        998    1    1    2    0    0  0.84588057159E+01 -0.36557402130E+01  0.14096289405E+04  0.14096945292E+04  0.10000000000E+02 0.  1.
</event>
<event>
 5    1  0.1129619E-008  0.3800568E+03  0.7957747E-01  0.3450911E+00
         13   -1    0    0    0    0  0.00000000000E+00  0.00000000000E+00  0.14999999963E+04  0.15000000000E+04  0.10566000000E+00 0. -1.
        994   -1    0    0    0    0 -0.00000000000E+00 -0.00000000000E+00  0.11368683772E-12  0.17120000000E+03  0.17120000000E+03 0.  0.
         13    1    1    2    0    0  0.24404915858E+00  0.24105314095E+02  0.71779704489E+02  0.75719633307E+02  0.10566000000E+00 0. -1.
        994    1    1    2    0    0 -0.16584874304E+02 -0.73174942669E+01  0.52035464982E+01  0.17223565448E+03  0.17120000000E+03 0.  0.
        998    1    1    2    0    0  0.16340825146E+02 -0.16787819828E+02  0.14230167453E+04  0.14232447122E+04  0.10000000000E+02 0. -1.
</event>
<event>
 5    1  0.1129619E-008  0.3852362E+03  0.7957747E-01  0.3428671E+00
         13   -1    0    0    0    0  0.00000000000E+00  0.00000000000E+00  0.14999999963E+04  0.15000000000E+04  0.10566000000E+00 0.  1.
        994   -1    0    0    0    0 -0.00000000000E+00 -0.00000000000E+00  0.11368683772E-12  0.17120000000E+03  0.17120000000E+03 0.  0.
         13    1    1    2    0    0  0.33762965337E+01  0.10974685392E+02  0.50127792585E+02  0.51426159211E+02  0.10566000000E+00 0.  1.
        994    1    1    2    0    0  0.38560493061E+01  0.15383763239E+02  0.23398845444E+01  0.17194895855E+03  0.17120000000E+03 0.  0.
        998    1    1    2    0    0 -0.72323458398E+01 -0.26358448631E+02  0.14475323191E+04  0.14478248822E+04  0.10000000000E+02 0.  1.
</event>
<event>
 5    1  0.1129619E-008  0.3853755E+03  0.7957747E-01  0.3428081E+00
         13   -1    0    0    0    0  0.00000000000E+00  0.00000000000E+00  0.14999999963E+04  0.15000000000E+04  0.10566000000E+00 0.  1.
        994   -1    0    0    0    0 -0.00000000000E+00 -0.00000000000E+00  0.11368683772E-12  0.17120000000E+03  0.17120000000E+03 0.  0.
         13    1    1    2    0    0 -0.90744046051E+01  0.13761087233E+02  0.92085972613E+02  0.93549718636E+02  0.10566000000E+00 0.  1.
        994    1    1    2    0    0  0.12781189387E+02 -0.81815186875E+01  0.22006364432E+01  0.17188536544E+03  0.17120000000E+03 0.  0.
        998    1    1    2    0    0 -0.37067847819E+01 -0.55795685453E+01  0.14057133872E+04  0.14057649159E+04  0.10000000000E+02 0.  1.
</event>
<event>
 5    1  0.1129619E-008  0.3908478E+03  0.7957747E-01  0.3405243E+00
         13   -1    0    0    0    0  0.00000000000E+00  0.00000000000E+00  0.14999999963E+04  0.15000000000E+04  0.10566000000E+00 0. -1.
        994   -1    0    0    0    0 -0.00000000000E+00 -0.00000000000E+00  0.11368683772E-12  0.17120000000E+03  0.17120000000E+03 0.  0.
         13    1    1    2    0    0  0.81492939191E+02  0.35483422136E+02  0.15633899527E+03  0.17983899741E+03  0.10566000000E+00 0. -1.
        994    1    1    2    0    0 -0.72111461668E+02 -0.38040739504E+02  0.47971172365E+02  0.19559609951E+03  0.17120000000E+03 0.  0.
        998    1    1    2    0    0 -0.93814775235E+01  0.25573173684E+01  0.12956898286E+04  0.12957649031E+04  0.10000000000E+02 0. -1.
</event>
<event>
 5    1  0.1129619E-008  0.3772206E+03  0.7957747E-01  0.3463351E+00
         13   -1    0    0    0    0  0.00000000000E+00  0.00000000000E+00  0.14999999963E+04  0.15000000000E+04  0.10566000000E+00 0.  1.
        994   -1    0    0    0    0 -0.00000000000E+00 -0.00000000000E+00  0.11368683772E-12  0.17120000000E+03  0.17120000000E+03 0.  0.
         13    1    1    2    0    0 -0.21175681847E+01  0.45830773420E+02  0.17611081031E+03  0.18198893526E+03  0.10566000000E+00 0.  1.
        994    1    1    2    0    0  0.12811161357E+02 -0.37142547141E+02  0.10768885757E+02  0.17598040676E+03  0.17120000000E+03 0.  0.
        998    1    1    2    0    0 -0.10693593172E+02 -0.86882262787E+01  0.13131203002E+04  0.13132306580E+04  0.10000000000E+02 0.  1.
</event>
<event>
 5    1  0.1129619E-008  0.3846527E+03  0.7957747E-01  0.3431146E+00
         13   -1    0    0    0    0  0.00000000000E+00  0.00000000000E+00  0.14999999963E+04  0.15000000000E+04  0.10566000000E+00 0. -1.
        994   -1    0    0    0    0 -0.00000000000E+00 -0.00000000000E+00  0.11368683772E-12  0.17120000000E+03  0.17120000000E+03 0.  0.
         13    1    1    2    0    0  0.39086093872E+01  0.13382381989E+02  0.52405258194E+02  0.54228107337E+02  0.10566000000E+00 0. -1.
        994    1    1    2    0    0  0.25603602537E+01 -0.15169957161E+02  0.25822849279E+01  0.17190925292E+03  0.17120000000E+03 0.  0.
        998    1    1    2    0    0 -0.64689696408E+01  0.17875751725E+01  0.14450124532E+04  0.14450626397E+04  0.10000000000E+02 0. -1.
</event>
<event>
 5    1  0.1129619E-008  0.3688401E+03  0.7957747E-01  0.3501238E+00
         13   -1    0    0    0    0  0.00000000000E+00  0.00000000000E+00  0.14999999963E+04  0.15000000000E+04  0.10566000000E+00 0.  1.
        994   -1    0    0    0    0 -0.00000000000E+00 -0.00000000000E+00  0.11368683772E-12  0.17120000000E+03  0.17120000000E+03 0.  0.
         13    1    1    2    0    0  0.27818652329E+02  0.25671729389E+02  0.70326997725E+02  0.79867470727E+02  0.10566000000E+00 0.  1.
        994    1    1    2    0    0 -0.13504320616E+02 -0.12312731660E+02  0.11036823284E+02  0.17252600240E+03  0.17120000000E+03 0.  0.
        998    1    1    2    0    0 -0.14314331713E+02 -0.13358997729E+02  0.14186361753E+04  0.14188065269E+04  0.10000000000E+02 0.  1.
</event>
<event>
 5    1  0.1129619E-008  0.3723811E+03  0.7957747E-01  0.3485019E+00
         13   -1    0    0    0    0  0.00000000000E+00  0.00000000000E+00  0.14999999963E+04  0.15000000000E+04  0.10566000000E+00 0. -1.
        994   -1    0    0    0    0 -0.00000000000E+00 -0.00000000000E+00  0.11368683772E-12  0.17120000000E+03  0.17120000000E+03 0.  0.
         13    1    1    2    0    0 -0.14313335342E+02  0.12717040215E+03  0.60839635340E+03  0.62170999408E+03  0.10566000000E+00 0. -1.
        994    1    1    2    0    0  0.45932139247E+02 -0.12133663313E+03  0.68163955410E+02  0.22536216357E+03  0.17120000000E+03 0.  0.
        998    1    1    2    0    0 -0.31618803906E+02 -0.58337690208E+01  0.82343968747E+03  0.82412784234E+03  0.10000000000E+02 0. -1.
</event>
<event>
 5    1  0.1129619E-008  0.3825038E+03  0.7957747E-01  0.3440328E+00
         13   -1    0    0    0    0  0.00000000000E+00  0.00000000000E+00  0.14999999963E+04  0.15000000000E+04  0.10566000000E+00 0.  1.
        994   -1    0    0    0    0 -0.00000000000E+00 -0.00000000000E+00  0.11368683772E-12  0.17120000000E+03  0.17120000000E+03 0.  0.
         13    1    1    2    0    0 -0.15786280480E+02 -0.14882918972E+01  0.43721881223E+02  0.46508447898E+02  0.10566000000E+00 0.  1.
        994    1    1    2    0    0  0.46858669270E+01  0.62710511823E+01  0.30777562645E+01  0.17140652267E+03  0.17120000000E+03 0.  0.
        998    1    1    2    0    0  0.11100413553E+02 -0.47827592851E+01  0.14532003588E+04  0.14532850294E+04  0.10000000000E+02 0.  1.
</event>
<event>
 5    1  0.1129619E-008  0.3722474E+03  0.7957747E-01  0.3485626E+00
         13   -1    0    0    0    0  0.00000000000E+00  0.00000000000E+00  0.14999999963E+04  0.15000000000E+04  0.10566000000E+00 0. -1.
        994   -1    0    0    0    0 -0.00000000000E+00 -0.00000000000E+00  0.11368683772E-12  0.17120000000E+03  0.17120000000E+03 0.  0.
         13    1    1    2    0    0  0.11450838906E+02  0.13091396298E+02  0.15237926339E+02  0.23123839037E+02  0.10566000000E+00 0. -1.
        994    1    1    2    0    0 -0.72445543829E+00 -0.12075507994E+02  0.86013711254E+01  0.17184227162E+03  0.17120000000E+03 0.  0.
        998    1    1    2    0    0 -0.10726383468E+02 -0.10158883041E+01  0.14761606988E+04  0.14762338893E+04  0.10000000000E+02 0. -1.
</event>
<event>
 5    1  0.1129619E-008  0.3844562E+03  0.7957747E-01  0.3431982E+00
         13   -1    0    0    0    0  0.00000000000E+00  0.00000000000E+00  0.14999999963E+04  0.15000000000E+04  0.10566000000E+00 0.  1.
        994   -1    0    0    0    0 -0.00000000000E+00 -0.00000000000E+00  0.11368683772E-12  0.17120000000E+03  0.17120000000E+03 0.  0.
         13    1    1    2    0    0 -0.16534577018E+02 -0.75444178180E+01  0.89077837483E+02  0.90913050615E+02  0.10566000000E+00 0.  1.
        994    1    1    2    0    0  0.53219129971E+01  0.69018639664E+01  0.21506557244E+01  0.17143518835E+03  0.17120000000E+03 0.  0.
        998    1    1    2    0    0  0.11212664021E+02  0.64255385153E+00  0.14087715031E+04  0.14088517610E+04  0.10000000000E+02 0.  1.
</event>
<event>
 5    1  0.1129619E-008  0.3789415E+03  0.7957747E-01  0.3455780E+00
         13   -1    0    0    0    0  0.00000000000E+00  0.00000000000E+00  0.14999999963E+04  0.15000000000E+04  0.10566000000E+00 0. -1.
        994   -1    0    0    0    0 -0.00000000000E+00 -0.00000000000E+00  0.11368683772E-12  0.17120000000E+03  0.17120000000E+03 0.  0.
         13    1    1    2    0    0  0.24815123024E+01 -0.19364724602E+02  0.38943065315E+02  0.43562873670E+02  0.10566000000E+00 0. -1.
        994    1    1    2    0    0  0.18489599009E+01  0.13784916699E+02  0.53176106395E+01  0.17184632543E+03  0.17120000000E+03 0.  0.
        998    1    1    2    0    0 -0.43304722033E+01  0.55798079026E+01  0.14557393203E+04  0.14557908009E+04  0.10000000000E+02 0. -1.
</event>
<event>
 5    1  0.1129619E-008  0.3831530E+03  0.7957747E-01  0.3437543E+00
         13   -1    0    0    0    0  0.00000000000E+00  0.00000000000E+00  0.14999999963E+04  0.15000000000E+04  0.10566000000E+00 0.  1.
        994   -1    0    0    0    0 -0.00000000000E+00 -0.00000000000E+00  0.11368683772E-12  0.17120000000E+03  0.17120000000E+03 0.  0.
         13    1    1    2    0    0  0.78628635492E+01  0.26200806668E+02  0.15327300676E+03  0.15569499882E+03  0.10566000000E+00 0.  1.
        994    1    1    2    0    0  0.54716857319E+01 -0.12562324684E+02  0.31713265448E+01  0.17177674074E+03  0.17120000000E+03 0.  0.
        998    1    1    2    0    0 -0.13334549281E+02 -0.13638481984E+02  0.13435556630E+04  0.13437282604E+04  0.10000000000E+02 0.  1.
</event>
<event>
 5    1  0.1129619E-008  0.3781814E+03  0.7957747E-01  0.3459115E+00
         13   -1    0    0    0    0  0.00000000000E+00  0.00000000000E+00  0.14999999963E+04  0.15000000000E+04  0.10566000000E+00 0. -1.
        994   -1    0    0    0    0 -0.00000000000E+00 -0.00000000000E+00  0.11368683772E-12  0.17120000000E+03  0.17120000000E+03 0.  0.
         13    1    1    2    0    0 -0.10823954476E+02  0.15503872281E+02  0.32957743040E+02  0.37996737183E+02  0.10566000000E+00 0. -1.
        994    1    1    2    0    0  0.11715331152E+02 -0.12125470213E+02  0.60106042721E+01  0.17213321404E+03  0.17120000000E+03 0.  0.
        998    1    1    2    0    0 -0.89137667626E+00 -0.33784020680E+01  0.14610316490E+04  0.14610700488E+04  0.10000000000E+02 0. -1.
</event>
<event>
 5    1  0.1129619E-008  0.3835593E+03  0.7957747E-01  0.3435805E+00
         13   -1    0    0    0    0  0.00000000000E+00  0.00000000000E+00  0.14999999963E+04  0.15000000000E+04  0.10566000000E+00 0. -1.
        994   -1    0    0    0    0 -0.00000000000E+00 -0.00000000000E+00  0.11368683772E-12  0.17120000000E+03  0.17120000000E+03 0.  0.
         13    1    1    2    0    0  0.64195303052E+02  0.39030348234E+01  0.99561581905E+02  0.11852759329E+03  0.10566000000E+00 0. -1.
        994    1    1    2    0    0 -0.66794141095E+02  0.30070522925E+01  0.34899960952E+02  0.18707738218E+03  0.17120000000E+03 0.  0.
        998    1    1    2    0    0  0.25988380425E+01 -0.69100871159E+01  0.13655384534E+04  0.13655950245E+04  0.10000000000E+02 0. -1.
</event>
<event>
 5    1  0.1129619E-008  0.3812739E+03  0.7957747E-01  0.3445630E+00
         13   -1    0    0    0    0  0.00000000000E+00  0.00000000000E+00  0.14999999963E+04  0.15000000000E+04  0.10566000000E+00 0.  1.
        994   -1    0    0    0    0 -0.00000000000E+00 -0.00000000000E+00  0.11368683772E-12  0.17120000000E+03  0.17120000000E+03 0.  0.
         13    1    1    2    0    0  0.10589425091E+02 -0.20011065301E+02  0.71228239894E+02  0.74739895509E+02  0.10566000000E+00 0.  1.
        994    1    1    2    0    0 -0.14137128461E+02  0.12035781517E+02  0.46398340902E+01  0.17226632433E+03  0.17120000000E+03 0.  0.
        998    1    1    2    0    0  0.35477033699E+01  0.79752837844E+01  0.14241319223E+04  0.14241937802E+04  0.10000000000E+02 0.  1.
</event>
<event>
 5    1  0.1129619E-008  0.3833367E+03  0.7957747E-01  0.3436757E+00
         13   -1    0    0    0    0  0.00000000000E+00  0.00000000000E+00  0.14999999963E+04  0.15000000000E+04  0.10566000000E+00 0.  1.
        994   -1    0    0    0    0 -0.00000000000E+00 -0.00000000000E+00  0.11368683772E-12  0.17120000000E+03  0.17120000000E+03 0.  0.
         13    1    1    2    0    0 -0.11568880421E+02 -0.14559051967E+02  0.68764079659E+02  0.71234224947E+02  0.10566000000E+00 0.  1.
        994    1    1    2    0    0  0.12598365913E+02  0.84565042376E+01  0.32198111712E+01  0.17190124628E+03  0.17120000000E+03 0.  0.
        998    1    1    2    0    0 -0.10294854916E+01  0.61025477290E+01  0.14280161054E+04  0.14280645288E+04  0.10000000000E+02 0.  1.
</event>
<event>
 5    1  0.1129619E-008  0.3688220E+03  0.7957747E-01  0.3501322E+00
         13   -1    0    0    0    0  0.00000000000E+00  0.00000000000E+00  0.14999999963E+04  0.15000000000E+04  0.10566000000E+00 0. -1.
        994   -1    0    0    0    0 -0.00000000000E+00 -0.00000000000E+00  0.11368683772E-12  0.17120000000E+03  0.17120000000E+03 0.  0.
         13    1    1    2    0    0  0.48083791697E+02  0.57822279099E+02  0.35876499639E+03  0.36656213768E+03  0.10566000000E+00 0. -1.
        994    1    1    2    0    0  0.14892042463E+01 -0.78639463651E+01  0.10540338949E+02  0.17171079793E+03  0.17120000000E+03 0.  0.
        998    1    1    2    0    0 -0.49572995943E+02 -0.49958332734E+02  0.11306946609E+04  0.11329270644E+04  0.10000000000E+02 0. -1.
</event>
<event>
 5    1  0.1129619E-008  0.3862460E+03  0.7957747E-01  0.3424405E+00
         13   -1    0    0    0    0  0.00000000000E+00  0.00000000000E+00  0.14999999963E+04  0.15000000000E+04  0.10566000000E+00 0.  1.
        994   -1    0    0    0    0 -0.00000000000E+00 -0.00000000000E+00  0.11368683772E-12  0.17120000000E+03  0.17120000000E+03 0.  0.
         13    1    1    2    0    0  0.16501942645E+01  0.10201015310E+02  0.53656972785E+02  0.54643075928E+02  0.10566000000E+00 0.  1.
        994    1    1    2    0    0 -0.49178962103E+01 -0.60716560565E+01  0.12127926049E+01  0.17138250079E+03  0.17120000000E+03 0.  0.
        998    1    1    2    0    0  0.32677019458E+01 -0.41293592536E+01  0.14451302309E+04  0.14451744233E+04  0.10000000000E+02 0.  1.
</event>
<event>
 5    1  0.1129619E-008  0.3853026E+03  0.7957747E-01  0.3428390E+00
         13   -1    0    0    0    0  0.00000000000E+00  0.00000000000E+00  0.14999999963E+04  0.15000000000E+04  0.10566000000E+00 0.  1.
        994   -1    0    0    0    0 -0.00000000000E+00 -0.00000000000E+00  0.11368683772E-12  0.17120000000E+03  0.17120000000E+03 0.  0.
         13    1    1    2    0    0  0.13845101133E+02 -0.11743858558E+01  0.59802058273E+02  0.61395141056E+02  0.10566000000E+00 0.  1.
        994    1    1    2    0    0 -0.22585875504E+02  0.14296203899E+02  0.38309453130E+01  0.17331652939E+03  0.17120000000E+03 0.  0.
        998    1    1    2    0    0  0.87407743712E+01 -0.13121818043E+02  0.14363669927E+04  0.14364883296E+04  0.10000000000E+02 0.  1.
</event>
<event>
 5    1  0.1129619E-008  0.3757762E+03  0.7957747E-01  0.3469758E+00
         13   -1    0    0    0    0  0.00000000000E+00  0.00000000000E+00  0.14999999963E+04  0.15000000000E+04  0.10566000000E+00 0. -1.
        994   -1    0    0    0    0 -0.00000000000E+00 -0.00000000000E+00  0.11368683772E-12  0.17120000000E+03  0.17120000000E+03 0.  0.
         13    1    1    2    0    0 -0.11841913028E+03  0.94524070407E+02  0.43734024753E+03  0.46284381121E+03  0.10566000000E+00 0. -1.
        994    1    1    2    0    0  0.15444403591E+03 -0.90404149392E+02  0.13913666520E+03  0.28406746040E+03  0.17120000000E+03 0.  0.
        998    1    1    2    0    0 -0.36024905634E+02 -0.41199210151E+01  0.92352308356E+03  0.92428872839E+03  0.10000000000E+02 0. -1.
</event>
<event>
 5    1  0.1129619E-008  0.3840884E+03  0.7957747E-01  0.3433548E+00
         13   -1    0    0    0    0  0.00000000000E+00  0.00000000000E+00  0.14999999963E+04  0.15000000000E+04  0.10566000000E+00 0.  1.
        994   -1    0    0    0    0 -0.00000000000E+00 -0.00000000000E+00  0.11368683772E-12  0.17120000000E+03  0.17120000000E+03 0.  0.
         13    1    1    2    0    0  0.11310784093E+02  0.82942512477E+01  0.46684363538E+02  0.48745968075E+02  0.10566000000E+00 0.  1.
        994    1    1    2    0    0 -0.13750174028E+01 -0.14667120867E+02  0.27995384734E+01  0.17185544077E+03  0.17120000000E+03 0.  0.
        998    1    1    2    0    0 -0.99357666901E+01  0.63728696188E+01  0.14505160943E+04  0.14505985912E+04  0.10000000000E+02 0.  1.
</event>
<event>
 5    1  0.1129619E-008  0.3772953E+03  0.7957747E-01  0.3463021E+00
         13   -1    0    0    0    0  0.00000000000E+00  0.00000000000E+00  0.14999999963E+04  0.15000000000E+04  0.10566000000E+00 0.  1.
        994   -1    0    0    0    0 -0.00000000000E+00 -0.00000000000E+00  0.11368683772E-12  0.17120000000E+03  0.17120000000E+03 0.  0.
         13    1    1    2    0    0 -0.50659740556E+02  0.19275691272E+02  0.32104090094E+03  0.32558444807E+03  0.10566000000E+00 0.  1.
        994    1    1    2    0    0  0.52055849098E+01 -0.12954714131E+02  0.61625194684E+01  0.17187885088E+03  0.17120000000E+03 0.  0.
        998    1    1    2    0    0  0.45454155646E+02 -0.63209771411E+01  0.11727965759E+04  0.11737367011E+04  0.10000000000E+02 0.  1.
</event>
<event>
 5    1  0.1129619E-008  0.3805000E+03  0.7957747E-01  0.3448984E+00
         13   -1    0    0    0    0  0.00000000000E+00  0.00000000000E+00  0.14999999963E+04  0.15000000000E+04  0.10566000000E+00 0. -1.
        994   -1    0    0    0    0 -0.00000000000E+00 -0.00000000000E+00  0.11368683772E-12  0.17120000000E+03  0.17120000000E+03 0.  0.
         13    1    1    2    0    0  0.12388212693E+02  0.27306248583E+02  0.13406972515E+03  0.13738195438E+03  0.10566000000E+00 0. -1.
        994    1    1    2    0    0 -0.97129929901E+01  0.11979176319E+02  0.46751291855E+01  0.17195679612E+03  0.17120000000E+03 0.  0.
        998    1    1    2    0    0 -0.26752197033E+01 -0.39285424902E+02  0.13612551419E+04  0.13618612495E+04  0.10000000000E+02 0. -1.
</event>
<event>
 5    1  0.1129619E-008  0.3729620E+03  0.7957747E-01  0.3482388E+00
         13   -1    0    0    0    0  0.00000000000E+00  0.00000000000E+00  0.14999999963E+04  0.15000000000E+04  0.10566000000E+00 0. -1.
        994   -1    0    0    0    0 -0.00000000000E+00 -0.00000000000E+00  0.11368683772E-12  0.17120000000E+03  0.17120000000E+03 0.  0.
         13    1    1    2    0    0 -0.11959957313E+02 -0.17915213684E+02  0.27813707670E+02  0.35179666836E+02  0.10566000000E+00 0. -1.
        994    1    1    2    0    0  0.11212754380E+02 -0.72990943903E+01  0.83419261894E+01  0.17192449032E+03  0.17120000000E+03 0.  0.
        998    1    1    2    0    0  0.74720293335E+00  0.25214308074E+02  0.14638443624E+04  0.14640958428E+04  0.10000000000E+02 0. -1.
</event>
<event>
 5    1  0.1129619E-008  0.3778897E+03  0.7957747E-01  0.3460399E+00
         13   -1    0    0    0    0  0.00000000000E+00  0.00000000000E+00  0.14999999963E+04  0.15000000000E+04  0.10566000000E+00 0. -1.
        994   -1    0    0    0    0 -0.00000000000E+00 -0.00000000000E+00  0.11368683772E-12  0.17120000000E+03  0.17120000000E+03 0.  0.
         13    1    1    2    0    0  0.31401925028E+00  0.10240893178E+02  0.76887748135E+01  0.12810266326E+02  0.10566000000E+00 0. -1.
        994    1    1    2    0    0  0.13799167145E+01 -0.96780862776E+01  0.55240305262E+01  0.17156784208E+03  0.17120000000E+03 0.  0.
        998    1    1    2    0    0 -0.16939359648E+01 -0.56280690067E+00  0.14867871909E+04  0.14868218916E+04  0.10000000000E+02 0. -1.
</event>
<event>
 5    1  0.1129619E-008  0.3840787E+03  0.7957747E-01  0.3433589E+00
         13   -1    0    0    0    0  0.00000000000E+00  0.00000000000E+00  0.14999999963E+04  0.15000000000E+04  0.10566000000E+00 0.  1.
        994   -1    0    0    0    0 -0.00000000000E+00 -0.00000000000E+00  0.11368683772E-12  0.17120000000E+03  0.17120000000E+03 0.  0.
         13    1    1    2    0    0  0.13058421282E+02  0.17831879615E+02  0.10912830135E+03  0.11134404167E+03  0.10566000000E+00 0.  1.
        994    1    1    2    0    0 -0.16244671440E+02 -0.16436289574E+02  0.38517390496E+01  0.17279559271E+03  0.17120000000E+03 0.  0.
        998    1    1    2    0    0  0.31862501575E+01 -0.13955900412E+01  0.13870199559E+04  0.13870603656E+04  0.10000000000E+02 0.  1.
</event>
<event>
 5    1  0.1129619E-008  0.3818234E+03  0.7957747E-01  0.3443257E+00
         13   -1    0    0    0    0  0.00000000000E+00  0.00000000000E+00  0.14999999963E+04  0.15000000000E+04  0.10566000000E+00 0. -1.
        994   -1    0    0    0    0 -0.00000000000E+00 -0.00000000000E+00  0.11368683772E-12  0.17120000000E+03  0.17120000000E+03 0.  0.
         13    1    1    2    0    0 -0.17802309232E+02 -0.31533497360E+01  0.49096825276E+02  0.52319931620E+02  0.10566000000E+00 0. -1.
        994    1    1    2    0    0  0.14630817264E+02  0.29147142879E+01  0.39554280346E+01  0.17189427502E+03  0.17120000000E+03 0.  0.
        998    1    1    2    0    0  0.31714919677E+01  0.23863544809E+00  0.14469477430E+04  0.14469857934E+04  0.10000000000E+02 0. -1.
</event>
<event>
 5    1  0.1129619E-008  0.3840087E+03  0.7957747E-01  0.3433887E+00
         13   -1    0    0    0    0  0.00000000000E+00  0.00000000000E+00  0.14999999963E+04  0.15000000000E+04  0.10566000000E+00 0. -1.
        994   -1    0    0    0    0 -0.00000000000E+00 -0.00000000000E+00  0.11368683772E-12  0.17120000000E+03  0.17120000000E+03 0.  0.
         13    1    1    2    0    0 -0.10507683596E+02 -0.63869068674E+01  0.35861151389E+02  0.37910913164E+02  0.10566000000E+00 0. -1.
        994    1    1    2    0    0  0.11540778906E+02 -0.12815596519E+02  0.31050072785E+01  0.17209448034E+03  0.17120000000E+03 0.  0.
        998    1    1    2    0    0 -0.10330953091E+01  0.19202503387E+02  0.14610338376E+04  0.14611946065E+04  0.10000000000E+02 0. -1.
</event>
<event>
 5    1  0.1129619E-008  0.3905286E+03  0.7957747E-01  0.3406558E+00
         13   -1    0    0    0    0  0.00000000000E+00  0.00000000000E+00  0.14999999963E+04  0.15000000000E+04  0.10566000000E+00 0. -1.
        994   -1    0    0    0    0 -0.00000000000E+00 -0.00000000000E+00  0.11368683772E-12  0.17120000000E+03  0.17120000000E+03 0.  0.
         13    1    1    2    0    0 -0.28748021855E+02  0.11223365593E+03  0.39889322935E+03  0.41537773396E+03  0.10566000000E+00 0. -1.
        994    1    1    2    0    0  0.34317909715E+01 -0.18115641470E+02  0.23517938848E+02  0.17378862766E+03  0.17120000000E+03 0.  0.
        998    1    1    2    0    0  0.25316230883E+02 -0.94118014458E+02  0.10775888281E+04  0.10820336384E+04  0.10000000000E+02 0. -1.
</event>
<event>
 5    1  0.1129619E-008  0.3782906E+03  0.7957747E-01  0.3458636E+00
         13   -1    0    0    0    0  0.00000000000E+00  0.00000000000E+00  0.14999999963E+04  0.15000000000E+04  0.10566000000E+00 0. -1.
        994   -1    0    0    0    0 -0.00000000000E+00 -0.00000000000E+00  0.11368683772E-12  0.17120000000E+03  0.17120000000E+03 0.  0.
         13    1    1    2    0    0  0.10611414300E+02  0.35009044801E+02  0.13485901240E+03  0.13973260078E+03  0.10566000000E+00 0. -1.
        994    1    1    2    0    0 -0.45180615741E+02 -0.67257346750E+01  0.12045529631E+02  0.17759802457E+03  0.17120000000E+03 0.  0.
        998    1    1    2    0    0  0.34569201441E+02 -0.28283310126E+02  0.13530954543E+04  0.13538693747E+04  0.10000000000E+02 0. -1.
</event>
<event>
 5    1  0.1129619E-008  0.3798425E+03  0.7957747E-01  0.3451844E+00
         13   -1    0    0    0    0  0.00000000000E+00  0.00000000000E+00  0.14999999963E+04  0.15000000000E+04  0.10566000000E+00 0.  1.
        994   -1    0    0    0    0 -0.00000000000E+00 -0.00000000000E+00  0.11368683772E-12  0.17120000000E+03  0.17120000000E+03 0.  0.
         13    1    1    2    0    0 -0.73831948593E+02 -0.27294727224E+02  0.45095873676E+03  0.45777718618E+03  0.10566000000E+00 0.  1.
        994    1    1    2    0    0  0.88156808276E+02  0.19181676204E+02  0.31935693111E+02  0.19613487207E+03  0.17120000000E+03 0.  0.
        998    1    1    2    0    0 -0.14324859683E+02  0.81130510203E+01  0.10171055664E+04  0.10172879417E+04  0.10000000000E+02 0.  1.
</event>
<event>
 5    1  0.1129619E-008  0.3830604E+03  0.7957747E-01  0.3437940E+00
         13   -1    0    0    0    0  0.00000000000E+00  0.00000000000E+00  0.14999999963E+04  0.15000000000E+04  0.10566000000E+00 0. -1.
        994   -1    0    0    0    0 -0.00000000000E+00 -0.00000000000E+00  0.11368683772E-12  0.17120000000E+03  0.17120000000E+03 0.  0.
         13    1    1    2    0    0 -0.32159832594E+02 -0.14272536699E+02  0.19976573699E+03  0.20284062950E+03  0.10566000000E+00 0. -1.
        994    1    1    2    0    0  0.34451400707E+02  0.21304864256E+02  0.80454098418E+01  0.17611066087E+03  0.17120000000E+03 0.  0.
        998    1    1    2    0    0 -0.22915681122E+01 -0.70323275568E+01  0.12921888494E+04  0.12922487096E+04  0.10000000000E+02 0. -1.
</event>
<event>
 5    1  0.1129619E-008  0.3788208E+03  0.7957747E-01  0.3456309E+00
         13   -1    0    0    0    0  0.00000000000E+00  0.00000000000E+00  0.14999999963E+04  0.15000000000E+04  0.10566000000E+00 0. -1.
        994   -1    0    0    0    0 -0.00000000000E+00 -0.00000000000E+00  0.11368683772E-12  0.17120000000E+03  0.17120000000E+03 0.  0.
         13    1    1    2    0    0  0.76660306035E+01  0.12212802072E+02  0.20158835383E+02  0.24785285306E+02  0.10566000000E+00 0. -1.
        994    1    1    2    0    0 -0.12427137080E+02 -0.14779945664E+00  0.52481090205E+01  0.17173071429E+03  0.17120000000E+03 0.  0.
        998    1    1    2    0    0  0.47611064763E+01 -0.12065002615E+02  0.14745930519E+04  0.14746840004E+04  0.10000000000E+02 0. -1.
</event>
<event>
 5    1  0.1129619E-008  0.3847052E+03  0.7957747E-01  0.3430924E+00
         13   -1    0    0    0    0  0.00000000000E+00  0.00000000000E+00  0.14999999963E+04  0.15000000000E+04  0.10566000000E+00 0.  1.
        994   -1    0    0    0    0 -0.00000000000E+00 -0.00000000000E+00  0.11368683772E-12  0.17120000000E+03  0.17120000000E+03 0.  0.
         13    1    1    2    0    0 -0.90726704288E+01 -0.12622733390E+02  0.69133375553E+02  0.70859590222E+02  0.10566000000E+00 0.  1.
        994    1    1    2    0    0 -0.71993567293E+00  0.95210708142E+01  0.20767629033E+01  0.17147863436E+03  0.17120000000E+03 0.  0.
        998    1    1    2    0    0  0.97926061017E+01  0.31016625758E+01  0.14287898578E+04  0.14288617754E+04  0.10000000000E+02 0.  1.
</event>
<event>
 5    1  0.1129619E-008  0.3837868E+03  0.7957747E-01  0.3434834E+00
         13   -1    0    0    0    0  0.00000000000E+00  0.00000000000E+00  0.14999999963E+04  0.15000000000E+04  0.10566000000E+00 0. -1.
        994   -1    0    0    0    0 -0.00000000000E+00 -0.00000000000E+00  0.11368683772E-12  0.17120000000E+03  0.17120000000E+03 0.  0.
         13    1    1    2    0    0  0.10334857626E+00  0.21981558150E+02  0.10329857104E+03  0.10561157854E+03  0.10566000000E+00 0. -1.
        994    1    1    2    0    0  0.43479485500E+01 -0.19767709739E+02  0.35873916953E+01  0.17242962734E+03  0.17120000000E+03 0.  0.
        998    1    1    2    0    0 -0.44512971263E+01 -0.22138484117E+01  0.13931140335E+04  0.13931587941E+04  0.10000000000E+02 0. -1.
</event>
<event>
 5    1  0.1129619E-008  0.3692779E+03  0.7957747E-01  0.3499216E+00
         13   -1    0    0    0    0  0.00000000000E+00  0.00000000000E+00  0.14999999963E+04  0.15000000000E+04  0.10566000000E+00 0. -1.
        994   -1    0    0    0    0 -0.00000000000E+00 -0.00000000000E+00  0.11368683772E-12  0.17120000000E+03  0.17120000000E+03 0.  0.
         13    1    1    2    0    0 -0.44266055885E+02 -0.11186830135E+03  0.51663128762E+03  0.53045442694E+03  0.10566000000E+00 0. -1.
        994    1    1    2    0    0  0.46406692442E+02  0.10152867297E+03  0.54174893310E+02  0.21143796160E+03  0.17120000000E+03 0.  0.
        998    1    1    2    0    0 -0.21406365576E+01  0.10339628373E+02  0.92919381535E+03  0.92930761147E+03  0.10000000000E+02 0. -1.
</event>
<event>
 5    1  0.1129619E-008  0.3770246E+03  0.7957747E-01  0.3464217E+00
         13   -1    0    0    0    0  0.00000000000E+00  0.00000000000E+00  0.14999999963E+04  0.15000000000E+04  0.10566000000E+00 0. -1.
        994   -1    0    0    0    0 -0.00000000000E+00 -0.00000000000E+00  0.11368683772E-12  0.17120000000E+03  0.17120000000E+03 0.  0.
         13    1    1    2    0    0 -0.31903771148E+02 -0.38968822641E+01  0.29382707984E+02  0.43547571658E+02  0.10566000000E+00 0. -1.
        994    1    1    2    0    0  0.21878280051E+02 -0.35950779696E+01  0.16466380404E+02  0.17341327921E+03  0.17120000000E+03 0.  0.
        998    1    1    2    0    0  0.10025491097E+02  0.74919602337E+01  0.14541509079E+04  0.14542391491E+04  0.10000000000E+02 0. -1.
</event>
<event>
 5    1  0.1129619E-008  0.3788505E+03  0.7957747E-01  0.3456179E+00
         13   -1    0    0    0    0  0.00000000000E+00  0.00000000000E+00  0.14999999963E+04  0.15000000000E+04  0.10566000000E+00 0. -1.
        994   -1    0    0    0    0 -0.00000000000E+00 -0.00000000000E+00  0.11368683772E-12  0.17120000000E+03  0.17120000000E+03 0.  0.
         13    1    1    2    0    0 -0.31307239454E+02 -0.17128965530E+02  0.13851161865E+03  0.14303504594E+03  0.10566000000E+00 0. -1.
        994    1    1    2    0    0  0.13905294831E+02  0.51166252233E+01  0.54515732208E+01  0.17192642824E+03  0.17120000000E+03 0.  0.
        998    1    1    2    0    0  0.17401944624E+02  0.12012340306E+02  0.13560368044E+04  0.13562385258E+04  0.10000000000E+02 0. -1.
</event>
<event>
 5    1  0.1129619E-008  0.3818192E+03  0.7957747E-01  0.3443275E+00
         13   -1    0    0    0    0  0.00000000000E+00  0.00000000000E+00  0.14999999963E+04  0.15000000000E+04  0.10566000000E+00 0.  1.
        994   -1    0    0    0    0 -0.00000000000E+00 -0.00000000000E+00  0.11368683772E-12  0.17120000000E+03  0.17120000000E+03 0.  0.
         13    1    1    2    0    0 -0.63199697537E+01 -0.28513829035E+02  0.14075484181E+03  0.14375297256E+03  0.10566000000E+00 0.  1.
        994    1    1    2    0    0 -0.14410690498E+01  0.81222528987E+01  0.34437643013E+01  0.17143321494E+03  0.17120000000E+03 0.  0.
        998    1    1    2    0    0  0.77610388035E+01  0.20391576136E+02  0.13558013902E+04  0.13560138125E+04  0.10000000000E+02 0.  1.
</event>
<event>
 5    1  0.1129619E-008  0.3762921E+03  0.7957747E-01  0.3467464E+00
         13   -1    0    0    0    0  0.00000000000E+00  0.00000000000E+00  0.14999999963E+04  0.15000000000E+04  0.10566000000E+00 0. -1.
        994   -1    0    0    0    0 -0.00000000000E+00 -0.00000000000E+00  0.11368683772E-12  0.17120000000E+03  0.17120000000E+03 0.  0.
         13    1    1    2    0    0 -0.65909904832E+02  0.67599387374E+00  0.28959957502E+03  0.29700588805E+03  0.10566000000E+00 0. -1.
        994    1    1    2    0    0  0.66287909406E+02 -0.10024869977E+02  0.21383157908E+02  0.18509798593E+03  0.17120000000E+03 0.  0.
        998    1    1    2    0    0 -0.37800457403E+00  0.93488761037E+01  0.11890172634E+04  0.11890961260E+04  0.10000000000E+02 0. -1.
</event>
<event>
 5    1  0.1129619E-008  0.4006006E+03  0.7957747E-01  0.3366088E+00
         13   -1    0    0    0    0  0.00000000000E+00  0.00000000000E+00  0.14999999963E+04  0.15000000000E+04  0.10566000000E+00 0.  1.
        994   -1    0    0    0    0 -0.00000000000E+00 -0.00000000000E+00  0.11368683772E-12  0.17120000000E+03  0.17120000000E+03 0.  0.
         13    1    1    2    0    0  0.87404292257E+02  0.10957525823E+03  0.28254680584E+03  0.31540284745E+03  0.10566000000E+00 0.  1.
        994    1    1    2    0    0 -0.75001007593E+02 -0.10581859089E+03  0.97762122827E+02  0.23598643600E+03  0.17120000000E+03 0.  0.
        998    1    1    2    0    0 -0.12403284664E+02 -0.37566673470E+01  0.11196910676E+04  0.11198107166E+04  0.10000000000E+02 0.  1.
</event>
<event>
 5    1  0.1129619E-008  0.3819049E+03  0.7957747E-01  0.3442906E+00
         13   -1    0    0    0    0  0.00000000000E+00  0.00000000000E+00  0.14999999963E+04  0.15000000000E+04  0.10566000000E+00 0. -1.
        994   -1    0    0    0    0 -0.00000000000E+00 -0.00000000000E+00  0.11368683772E-12  0.17120000000E+03  0.17120000000E+03 0.  0.
         13    1    1    2    0    0 -0.13681606639E+02 -0.10805690677E+02  0.44816856558E+02  0.48088575639E+02  0.10566000000E+00 0. -1.
        994    1    1    2    0    0  0.21191858404E+02  0.91257387720E+01  0.49452125854E+01  0.17281860171E+03  0.17120000000E+03 0.  0.
        998    1    1    2    0    0 -0.75102517647E+01  0.16799519050E+01  0.14502379271E+04  0.14502928226E+04  0.10000000000E+02 0. -1.
</event>
<event>
 5    1  0.1129619E-008  0.3805701E+03  0.7957747E-01  0.3448680E+00
         13   -1    0    0    0    0  0.00000000000E+00  0.00000000000E+00  0.14999999963E+04  0.15000000000E+04  0.10566000000E+00 0. -1.
        994   -1    0    0    0    0 -0.00000000000E+00 -0.00000000000E+00  0.11368683772E-12  0.17120000000E+03  0.17120000000E+03 0.  0.
         13    1    1    2    0    0 -0.35629684002E+02 -0.22225422229E+02  0.20107885028E+03  0.20541703671E+03  0.10566000000E+00 0. -1.
        994    1    1    2    0    0  0.39345794307E+02  0.14481200607E+02  0.97331148026E+01  0.17652753390E+03  0.17120000000E+03 0.  0.
        998    1    1    2    0    0 -0.37161103041E+01  0.77442216220E+01  0.12891880312E+04  0.12892554294E+04  0.10000000000E+02 0. -1.
</event>
<event>
 5    1  0.1129619E-008  0.3767434E+03  0.7957747E-01  0.3465462E+00
         13   -1    0    0    0    0  0.00000000000E+00  0.00000000000E+00  0.14999999963E+04  0.15000000000E+04  0.10566000000E+00 0. -1.
        994   -1    0    0    0    0 -0.00000000000E+00 -0.00000000000E+00  0.11368683772E-12  0.17120000000E+03  0.17120000000E+03 0.  0.
         13    1    1    2    0    0  0.37733215946E+02 -0.33989371078E+02  0.26326469911E+03  0.26811823119E+03  0.10566000000E+00 0. -1.
        994    1    1    2    0    0 -0.44012398111E+01  0.43640723134E+01  0.59160067881E+01  0.17141427938E+03  0.17120000000E+03 0.  0.
        998    1    1    2    0    0 -0.33331976135E+02  0.29625298765E+02  0.12308192904E+04  0.12316674894E+04  0.10000000000E+02 0. -1.
</event>
<event>
 5    1  0.1129619E-008  0.3763806E+03  0.7957747E-01  0.3467071E+00
         13   -1    0    0    0    0  0.00000000000E+00  0.00000000000E+00  0.14999999963E+04  0.15000000000E+04  0.10566000000E+00 0. -1.
        994   -1    0    0    0    0 -0.00000000000E+00 -0.00000000000E+00  0.11368683772E-12  0.17120000000E+03  0.17120000000E+03 0.  0.
         13    1    1    2    0    0  0.36905632193E+02  0.18957828380E+02  0.13313262760E+03  0.13944795674E+03  0.10566000000E+00 0. -1.
        994    1    1    2    0    0 -0.35499412361E+02 -0.13127740279E+02  0.10833772509E+02  0.17566831379E+03  0.17120000000E+03 0.  0.
        998    1    1    2    0    0 -0.14062198317E+01 -0.58300881004E+01  0.13560335962E+04  0.13560837295E+04  0.10000000000E+02 0. -1.
</event>
<event>
 5    1  0.1129619E-008  0.3836705E+03  0.7957747E-01  0.3435330E+00
         13   -1    0    0    0    0  0.00000000000E+00  0.00000000000E+00  0.14999999963E+04  0.15000000000E+04  0.10566000000E+00 0. -1.
        994   -1    0    0    0    0 -0.00000000000E+00 -0.00000000000E+00  0.11368683772E-12  0.17120000000E+03  0.17120000000E+03 0.  0.
         13    1    1    2    0    0  0.13318049870E+02  0.44100403521E+01  0.41117748384E+02  0.43445359987E+02  0.10566000000E+00 0. -1.
        994    1    1    2    0    0 -0.14931052149E+02 -0.59167175978E+01  0.31440595557E+01  0.17198043196E+03  0.17120000000E+03 0.  0.
        998    1    1    2    0    0  0.16130022789E+01  0.15066772458E+01  0.14557381883E+04  0.14557742081E+04  0.10000000000E+02 0. -1.
</event>
<event>
 5    1  0.1129619E-008  0.3122670E+03  0.7957747E-01  0.3812157E+00
         13   -1    0    0    0    0  0.00000000000E+00  0.00000000000E+00  0.14999999963E+04  0.15000000000E+04  0.10566000000E+00 0.  1.
        994   -1    0    0    0    0 -0.00000000000E+00 -0.00000000000E+00  0.11368683772E-12  0.17120000000E+03  0.17120000000E+03 0.  0.
         13    1    1    2    0    0 -0.13654591154E+03 -0.60899773556E+02  0.88865344564E+03  0.90114289987E+03  0.10566000000E+00 0.  1.
        994    1    1    2    0    0  0.51712149207E+02  0.95000982130E+02  0.60165990229E+02  0.21125510494E+03  0.17120000000E+03 0.  0.
        998    1    1    2    0    0  0.84833762331E+02 -0.34101208574E+02  0.55118056041E+03  0.55880199519E+03  0.10000000000E+02 0.  1.
</event>
<event>
 5    1  0.1129619E-008  0.3768302E+03  0.7957747E-01  0.3465078E+00
         13   -1    0    0    0    0  0.00000000000E+00  0.00000000000E+00  0.14999999963E+04  0.15000000000E+04  0.10566000000E+00 0.  1.
        994   -1    0    0    0    0 -0.00000000000E+00 -0.00000000000E+00  0.11368683772E-12  0.17120000000E+03  0.17120000000E+03 0.  0.
         13    1    1    2    0    0 -0.10156197535E+02  0.11198566054E+02  0.11934534080E+01  0.15165478070E+02  0.10566000000E+00 0.  1.
        994    1    1    2    0    0  0.12921029850E+02 -0.17617385316E+01  0.15206313993E+02  0.17236800376E+03  0.17120000000E+03 0.  0.
        998    1    1    2    0    0 -0.27648323152E+01 -0.94368275220E+01  0.14836002289E+04  0.14836665182E+04  0.10000000000E+02 0.  1.
</event>
<event>
 5    1  0.1129619E-008  0.3830056E+03  0.7957747E-01  0.3438175E+00
         13   -1    0    0    0    0  0.00000000000E+00  0.00000000000E+00  0.14999999963E+04  0.15000000000E+04  0.10566000000E+00 0. -1.
        994   -1    0    0    0    0 -0.00000000000E+00 -0.00000000000E+00  0.11368683772E-12  0.17120000000E+03  0.17120000000E+03 0.  0.
         13    1    1    2    0    0  0.66238946409E+02  0.57886439306E+02  0.24994043348E+03  0.26496918562E+03  0.10566000000E+00 0. -1.
        994    1    1    2    0    0 -0.16216691112E+01 -0.23297415587E+02  0.19988816901E+02  0.17393789749E+03  0.17120000000E+03 0.  0.
        998    1    1    2    0    0 -0.64617277298E+02 -0.34589023719E+02  0.12300707459E+04  0.12322929169E+04  0.10000000000E+02 0. -1.
</event>
<event>
 5    1  0.1129619E-008  0.3844992E+03  0.7957747E-01  0.3431799E+00
         13   -1    0    0    0    0  0.00000000000E+00  0.00000000000E+00  0.14999999963E+04  0.15000000000E+04  0.10566000000E+00 0. -1.
        994   -1    0    0    0    0 -0.00000000000E+00 -0.00000000000E+00  0.11368683772E-12  0.17120000000E+03  0.17120000000E+03 0.  0.
         13    1    1    2    0    0 -0.13506200687E+02 -0.83752211798E+01  0.64740598041E+02  0.66662718108E+02  0.10566000000E+00 0. -1.
        994    1    1    2    0    0  0.14258500134E+02  0.77070444336E+01  0.27448065595E+01  0.17198743362E+03  0.17120000000E+03 0.  0.
        998    1    1    2    0    0 -0.75229944682E+00  0.66817674622E+00  0.14325145917E+04  0.14325498483E+04  0.10000000000E+02 0. -1.
</event>
<event>
 5    1  0.1129619E-008  0.3771462E+03  0.7957747E-01  0.3463679E+00
         13   -1    0    0    0    0  0.00000000000E+00  0.00000000000E+00  0.14999999963E+04  0.15000000000E+04  0.10566000000E+00 0.  1.
        994   -1    0    0    0    0 -0.00000000000E+00 -0.00000000000E+00  0.11368683772E-12  0.17120000000E+03  0.17120000000E+03 0.  0.
         13    1    1    2    0    0 -0.49811216771E+01  0.13412549427E+03  0.42491053738E+03  0.44560457328E+03  0.10566000000E+00 0.  1.
        994    1    1    2    0    0  0.43150671362E+02 -0.13098958149E+03  0.86549988329E+02  0.23626381733E+03  0.17120000000E+03 0.  0.
        998    1    1    2    0    0 -0.38169549685E+02 -0.31359127716E+01  0.98853947057E+03  0.98933160939E+03  0.10000000000E+02 0.  1.
</event>
<event>
 5    1  0.1129619E-008  0.3753211E+03  0.7957747E-01  0.3471788E+00
         13   -1    0    0    0    0  0.00000000000E+00  0.00000000000E+00  0.14999999963E+04  0.15000000000E+04  0.10566000000E+00 0.  1.
        994   -1    0    0    0    0 -0.00000000000E+00 -0.00000000000E+00  0.11368683772E-12  0.17120000000E+03  0.17120000000E+03 0.  0.
         13    1    1    2    0    0 -0.20976562284E+02  0.38760249298E+02  0.13112131720E+03  0.13832998258E+03  0.10566000000E+00 0.  1.
        994    1    1    2    0    0  0.39793064685E+02 -0.35311466454E+02  0.16185914903E+02  0.18000503188E+03  0.17120000000E+03 0.  0.
        998    1    1    2    0    0 -0.18816502401E+02 -0.34487828445E+01  0.13526927642E+04  0.13528649855E+04  0.10000000000E+02 0.  1.
</event>
<event>
 5    1  0.1129619E-008  0.3822959E+03  0.7957747E-01  0.3441222E+00
         13   -1    0    0    0    0  0.00000000000E+00  0.00000000000E+00  0.14999999963E+04  0.15000000000E+04  0.10566000000E+00 0. -1.
        994   -1    0    0    0    0 -0.00000000000E+00 -0.00000000000E+00  0.11368683772E-12  0.17120000000E+03  0.17120000000E+03 0.  0.
         13    1    1    2    0    0 -0.20212845440E+02 -0.20475535216E+02  0.14501420355E+03  0.14784091808E+03  0.10566000000E+00 0. -1.
        994    1    1    2    0    0  0.39073338137E+01  0.10737661261E+02  0.34119482449E+01  0.17161481876E+03  0.17120000000E+03 0.  0.
        998    1    1    2    0    0  0.16305511626E+02  0.97378739544E+01  0.13515738445E+04  0.13517442632E+04  0.10000000000E+02 0. -1.
</event>
<event>
 5    1  0.1129619E-008  0.3806992E+03  0.7957747E-01  0.3448120E+00
         13   -1    0    0    0    0  0.00000000000E+00  0.00000000000E+00  0.14999999963E+04  0.15000000000E+04  0.10566000000E+00 0. -1.
        994   -1    0    0    0    0 -0.00000000000E+00 -0.00000000000E+00  0.11368683772E-12  0.17120000000E+03  0.17120000000E+03 0.  0.
         13    1    1    2    0    0 -0.48538689240E+02  0.11917184800E+03  0.50005336652E+03  0.51634418196E+03  0.10566000000E+00 0. -1.
        994    1    1    2    0    0  0.64657167009E+02 -0.54981993804E+02  0.43374499985E+02  0.19594477829E+03  0.17120000000E+03 0.  0.
        998    1    1    2    0    0 -0.16118477769E+02 -0.64189854200E+02  0.95657212977E+03  0.95891103976E+03  0.10000000000E+02 0. -1.
</event>
<event>
 5    1  0.1129619E-008  0.3839451E+03  0.7957747E-01  0.3434159E+00
         13   -1    0    0    0    0  0.00000000000E+00  0.00000000000E+00  0.14999999963E+04  0.15000000000E+04  0.10566000000E+00 0.  1.
        994   -1    0    0    0    0 -0.00000000000E+00 -0.00000000000E+00  0.11368683772E-12  0.17120000000E+03  0.17120000000E+03 0.  0.
         13    1    1    2    0    0  0.28446230884E+01  0.14843287906E+02  0.52382787847E+02  0.54519562572E+02  0.10566000000E+00 0.  1.
        994    1    1    2    0    0  0.69138871653E+00 -0.10850698832E+02  0.25449985412E+01  0.17156378610E+03  0.17120000000E+03 0.  0.
        998    1    1    2    0    0 -0.35360118049E+01 -0.39925890739E+01  0.14450722099E+04  0.14451166513E+04  0.10000000000E+02 0.  1.
</event>
<event>
 5    1  0.1129619E-008  0.3828122E+03  0.7957747E-01  0.3439004E+00
         13   -1    0    0    0    0  0.00000000000E+00  0.00000000000E+00  0.14999999963E+04  0.15000000000E+04  0.10566000000E+00 0.  1.
        994   -1    0    0    0    0 -0.00000000000E+00 -0.00000000000E+00  0.11368683772E-12  0.17120000000E+03  0.17120000000E+03 0.  0.
         13    1    1    2    0    0  0.15191509696E+02 -0.10862540360E+02  0.58738371323E+02  0.61635900088E+02  0.10566000000E+00 0.  1.
        994    1    1    2    0    0 -0.19131857175E+02  0.21080684084E+02  0.54091356554E+01  0.17363502512E+03  0.17120000000E+03 0.  0.
        998    1    1    2    0    0  0.39403474784E+01 -0.10218143723E+02  0.14358524893E+04  0.14359290748E+04  0.10000000000E+02 0.  1.
</event>
<event>
 5    1  0.1129619E-008  0.3850529E+03  0.7957747E-01  0.3429448E+00
         13   -1    0    0    0    0  0.00000000000E+00  0.00000000000E+00  0.14999999963E+04  0.15000000000E+04  0.10566000000E+00 0. -1.
        994   -1    0    0    0    0 -0.00000000000E+00 -0.00000000000E+00  0.11368683772E-12  0.17120000000E+03  0.17120000000E+03 0.  0.
         13    1    1    2    0    0 -0.71831005175E+01  0.15375882167E+02  0.96317355686E+02  0.97801118888E+02  0.10566000000E+00 0. -1.
        994    1    1    2    0    0 -0.35275270546E+02 -0.21996072062E+02  0.73069964371E+01  0.17632641349E+03  0.17120000000E+03 0.  0.
        998    1    1    2    0    0  0.42458371064E+02  0.66201898958E+01  0.13963756442E+04  0.13970724676E+04  0.10000000000E+02 0. -1.
</event>
<event>
 5    1  0.1129619E-008  0.3808329E+03  0.7957747E-01  0.3447540E+00
         13   -1    0    0    0    0  0.00000000000E+00  0.00000000000E+00  0.14999999963E+04  0.15000000000E+04  0.10566000000E+00 0.  1.
        994   -1    0    0    0    0 -0.00000000000E+00 -0.00000000000E+00  0.11368683772E-12  0.17120000000E+03  0.17120000000E+03 0.  0.
         13    1    1    2    0    0  0.38338653121E+02 -0.30347212036E+02  0.25313979116E+03  0.25781887176E+03  0.10566000000E+00 0.  1.
        994    1    1    2    0    0 -0.47693917313E+02  0.29547557238E+02  0.14279237230E+02  0.18072383491E+03  0.17120000000E+03 0.  0.
        998    1    1    2    0    0  0.93552641924E+01  0.79965479837E+00  0.12325809679E+04  0.12326572933E+04  0.10000000000E+02 0. -1.
</event>
<event>
 5    1  0.1129619E-008  0.3771719E+03  0.7957747E-01  0.3463566E+00
         13   -1    0    0    0    0  0.00000000000E+00  0.00000000000E+00  0.14999999963E+04  0.15000000000E+04  0.10566000000E+00 0. -1.
        994   -1    0    0    0    0 -0.00000000000E+00 -0.00000000000E+00  0.11368683772E-12  0.17120000000E+03  0.17120000000E+03 0.  0.
         13    1    1    2    0    0  0.51402701418E+01  0.42727230599E+02  0.22800983792E+03  0.23203563512E+03  0.10566000000E+00 0. -1.
        994    1    1    2    0    0 -0.57387036792E+02  0.21215899133E+02  0.18305633382E+02  0.18272362349E+03  0.17120000000E+03 0.  0.
        998    1    1    2    0    0  0.52246766650E+02 -0.63943129732E+02  0.12536845250E+04  0.12564407414E+04  0.10000000000E+02 0. -1.
</event>
<event>
 5    1  0.1129619E-008  0.3789648E+03  0.7957747E-01  0.3455678E+00
         13   -1    0    0    0    0  0.00000000000E+00  0.00000000000E+00  0.14999999963E+04  0.15000000000E+04  0.10566000000E+00 0.  1.
        994   -1    0    0    0    0 -0.00000000000E+00 -0.00000000000E+00  0.11368683772E-12  0.17120000000E+03  0.17120000000E+03 0.  0.
         13    1    1    2    0    0  0.68693354959E+01  0.13545321644E+02  0.22410962567E+02  0.27072604526E+02  0.10566000000E+00 0.  1.
        994    1    1    2    0    0 -0.40809024364E+01 -0.17416594358E+02  0.57307275420E+01  0.17222738679E+03  0.17120000000E+03 0.  0.
        998    1    1    2    0    0 -0.27884330596E+01  0.38712727138E+01  0.14718583062E+04  0.14719000087E+04  0.10000000000E+02 0.  1.
</event>
<event>
 5    1  0.1129619E-008  0.3822034E+03  0.7957747E-01  0.3441620E+00
         13   -1    0    0    0    0  0.00000000000E+00  0.00000000000E+00  0.14999999963E+04  0.15000000000E+04  0.10566000000E+00 0.  1.
        994   -1    0    0    0    0 -0.00000000000E+00 -0.00000000000E+00  0.11368683772E-12  0.17120000000E+03  0.17120000000E+03 0.  0.
         13    1    1    2    0    0 -0.31870186414E+01  0.12811143675E+02  0.27643705096E+02  0.30634426477E+02  0.10566000000E+00 0.  1.
        994    1    1    2    0    0  0.10854909322E+02 -0.71432372669E+01  0.35855889352E+01  0.17172987900E+03  0.17120000000E+03 0.  0.
        998    1    1    2    0    0 -0.76678906805E+01 -0.56679064085E+01  0.14687707022E+04  0.14688356945E+04  0.10000000000E+02 0.  1.
</event>
<event>
 5    1  0.1129619E-008  0.3814972E+03  0.7957747E-01  0.3444665E+00
         13   -1    0    0    0    0  0.00000000000E+00  0.00000000000E+00  0.14999999963E+04  0.15000000000E+04  0.10566000000E+00 0. -1.
        994   -1    0    0    0    0 -0.00000000000E+00 -0.00000000000E+00  0.11368683772E-12  0.17120000000E+03  0.17120000000E+03 0.  0.
         13    1    1    2    0    0 -0.70019407919E+01  0.77293701623E+01  0.14413869696E+02  0.17791603121E+02  0.10566000000E+00 0. -1.
        994    1    1    2    0    0  0.97565758018E+01 -0.10624945905E+02  0.40717478218E+01  0.17185487883E+03  0.17120000000E+03 0.  0.
        998    1    1    2    0    0 -0.27546350099E+01  0.28955757424E+01  0.14815143788E+04  0.14815535181E+04  0.10000000000E+02 0. -1.
</event>
<event>
 5    1  0.1129619E-008  0.3842608E+03  0.7957747E-01  0.3432813E+00
         13   -1    0    0    0    0  0.00000000000E+00  0.00000000000E+00  0.14999999963E+04  0.15000000000E+04  0.10566000000E+00 0.  1.
        994   -1    0    0    0    0 -0.00000000000E+00 -0.00000000000E+00  0.11368683772E-12  0.17120000000E+03  0.17120000000E+03 0.  0.
         13    1    1    2    0    0 -0.21065425788E+02  0.11103433017E+02  0.13112953503E+03  0.13327417045E+03  0.10566000000E+00 0.  1.
        994    1    1    2    0    0  0.24572784528E+02 -0.51061534944E+01  0.40768373057E+01  0.17307788751E+03  0.17120000000E+03 0.  0.
        998    1    1    2    0    0 -0.35073587399E+01 -0.59972795222E+01  0.13647936239E+04  0.13648479420E+04  0.10000000000E+02 0.  1.
</event>
<event>
 5    1  0.1129619E-008  0.4170661E+03  0.7957747E-01  0.3304109E+00
         13   -1    0    0    0    0  0.00000000000E+00  0.00000000000E+00  0.14999999963E+04  0.15000000000E+04  0.10566000000E+00 0. -1.
        994   -1    0    0    0    0 -0.00000000000E+00 -0.00000000000E+00  0.11368683772E-12  0.17120000000E+03  0.17120000000E+03 0.  0.
         13    1    1    2    0    0 -0.12259234389E+02  0.13803390707E+02 -0.12147658049E+02  0.22099755269E+02  0.10566000000E+00 0. -1.
        994    1    1    2    0    0  0.11215737081E+02 -0.12977884671E+02  0.39648211296E+02  0.17656624510E+03  0.17120000000E+03 0.  0.
        998    1    1    2    0    0  0.10434973077E+01 -0.82550603606E+00  0.14724994430E+04  0.14725339996E+04  0.10000000000E+02 0. -1.
</event>
<event>
 5    1  0.1129619E-008  0.3821837E+03  0.7957747E-01  0.3441705E+00
         13   -1    0    0    0    0  0.00000000000E+00  0.00000000000E+00  0.14999999963E+04  0.15000000000E+04  0.10566000000E+00 0.  1.
        994   -1    0    0    0    0 -0.00000000000E+00 -0.00000000000E+00  0.11368683772E-12  0.17120000000E+03  0.17120000000E+03 0.  0.
         13    1    1    2    0    0  0.35393501065E+01  0.24108884878E+02  0.91070334090E+02  0.94273974375E+02  0.10566000000E+00 0.  1.
        994    1    1    2    0    0  0.24036477275E+01 -0.26794449447E+02  0.54405714134E+01  0.17338615822E+03  0.17120000000E+03 0.  0.
        998    1    1    2    0    0 -0.59429978339E+01  0.26855645693E+01  0.14034890908E+04  0.14035398674E+04  0.10000000000E+02 0.  1.
</event>
<event>
 5    1  0.1129619E-008  0.3850010E+03  0.7957747E-01  0.3429668E+00
         13   -1    0    0    0    0  0.00000000000E+00  0.00000000000E+00  0.14999999963E+04  0.15000000000E+04  0.10566000000E+00 0.  1.
        994   -1    0    0    0    0 -0.00000000000E+00 -0.00000000000E+00  0.11368683772E-12  0.17120000000E+03  0.17120000000E+03 0.  0.
         13    1    1    2    0    0 -0.56067015050E+01  0.10171235520E+02  0.39992301567E+02  0.41644741354E+02  0.10566000000E+00 0.  1.
        994    1    1    2    0    0  0.53911268684E+01 -0.13122731835E+02  0.22918436219E+01  0.17180210385E+03  0.17120000000E+03 0.  0.
        998    1    1    2    0    0  0.21557463667E+00  0.29514963152E+01  0.14577158511E+04  0.14577531548E+04  0.10000000000E+02 0.  1.
</event>
<event>
 5    1  0.1129619E-008  0.3849637E+03  0.7957747E-01  0.3429826E+00
         13   -1    0    0    0    0  0.00000000000E+00  0.00000000000E+00  0.14999999963E+04  0.15000000000E+04  0.10566000000E+00 0. -1.
        994   -1    0    0    0    0 -0.00000000000E+00 -0.00000000000E+00  0.11368683772E-12  0.17120000000E+03  0.17120000000E+03 0.  0.
         13    1    1    2    0    0  0.10927473459E+02 -0.87401755606E+01  0.56602511450E+02  0.58306567482E+02  0.10566000000E+00 0. -1.
        994    1    1    2    0    0 -0.17642101611E+02  0.59511916549E+01  0.27891592312E+01  0.17223205230E+03  0.17120000000E+03 0.  0.
        998    1    1    2    0    0  0.67146281522E+01  0.27889839057E+01  0.14406083256E+04  0.14406613802E+04  0.10000000000E+02 0. -1.
</event>
<event>
 5    1  0.1129619E-008  0.3730694E+03  0.7957747E-01  0.3481902E+00
         13   -1    0    0    0    0  0.00000000000E+00  0.00000000000E+00  0.14999999963E+04  0.15000000000E+04  0.10566000000E+00 0.  1.
        994   -1    0    0    0    0 -0.00000000000E+00 -0.00000000000E+00  0.11368683772E-12  0.17120000000E+03  0.17120000000E+03 0.  0.
         13    1    1    2    0    0  0.12047906424E+01  0.24567923759E+02  0.35669786672E+02  0.43328734617E+02  0.10566000000E+00 0.  1.
        994    1    1    2    0    0 -0.98409604879E+00 -0.23382020975E+02  0.95496517335E+01  0.17305583838E+03  0.17120000000E+03 0.  0.
        998    1    1    2    0    0 -0.22069459359E+00 -0.11859027843E+01  0.14547805579E+04  0.14548154270E+04  0.10000000000E+02 0.  1.
</event>
<event>
 5    1  0.1129619E-008  0.3852124E+03  0.7957747E-01  0.3428772E+00
         13   -1    0    0    0    0  0.00000000000E+00  0.00000000000E+00  0.14999999963E+04  0.15000000000E+04  0.10566000000E+00 0. -1.
        994   -1    0    0    0    0 -0.00000000000E+00 -0.00000000000E+00  0.11368683772E-12  0.17120000000E+03  0.17120000000E+03 0.  0.
         13    1    1    2    0    0  0.20020159996E+01 -0.16366793224E+02  0.85651213926E+02  0.87223973766E+02  0.10566000000E+00 0. -1.
        994    1    1    2    0    0  0.16636806736E+01  0.16714064398E+02  0.24524490964E+01  0.17203947887E+03  0.17120000000E+03 0.  0.
        998    1    1    2    0    0 -0.36656966732E+01 -0.34727117419E+00  0.14118963333E+04  0.14119365474E+04  0.10000000000E+02 0. -1.
</event>
<event>
 5    1  0.1129619E-008  0.3805546E+03  0.7957747E-01  0.3448747E+00
         13   -1    0    0    0    0  0.00000000000E+00  0.00000000000E+00  0.14999999963E+04  0.15000000000E+04  0.10566000000E+00 0.  1.
        994   -1    0    0    0    0 -0.00000000000E+00 -0.00000000000E+00  0.11368683772E-12  0.17120000000E+03  0.17120000000E+03 0.  0.
         13    1    1    2    0    0  0.33327048201E+02 -0.36023883484E+01  0.15228082164E+03  0.15592667875E+03  0.10566000000E+00 0.  1.
        994    1    1    2    0    0 -0.11534571681E+02  0.35165493872E+01  0.43388150386E+01  0.17167899633E+03  0.17120000000E+03 0.  0.
        998    1    1    2    0    0 -0.21792476520E+02  0.85838961248E-01  0.13433803596E+04  0.13435943249E+04  0.10000000000E+02 0.  1.
</event>
<event>
 5    1  0.1129619E-008  0.3839552E+03  0.7957747E-01  0.3434115E+00
         13   -1    0    0    0    0  0.00000000000E+00  0.00000000000E+00  0.14999999963E+04  0.15000000000E+04  0.10566000000E+00 0.  1.
        994   -1    0    0    0    0 -0.00000000000E+00 -0.00000000000E+00  0.11368683772E-12  0.17120000000E+03  0.17120000000E+03 0.  0.
         13    1    1    2    0    0 -0.10745660366E+02 -0.16487290074E+02  0.86777834189E+02  0.88981479091E+02  0.10566000000E+00 0.  1.
        994    1    1    2    0    0  0.11285683215E+02  0.13622544946E+02  0.31830807891E+01  0.17214096659E+03  0.17120000000E+03 0.  0.
        998    1    1    2    0    0 -0.54002284829E+00  0.28647451280E+01  0.14100390813E+04  0.14100775543E+04  0.10000000000E+02 0.  1.
</event>
<event>
 5    1  0.1129619E-008  0.3854924E+03  0.7957747E-01  0.3427587E+00
         13   -1    0    0    0    0  0.00000000000E+00  0.00000000000E+00  0.14999999963E+04  0.15000000000E+04  0.10566000000E+00 0. -1.
        994   -1    0    0    0    0 -0.00000000000E+00 -0.00000000000E+00  0.11368683772E-12  0.17120000000E+03  0.17120000000E+03 0.  0.
         13    1    1    2    0    0  0.12317632722E+02 -0.52918202113E+01  0.61204061765E+02  0.62655213491E+02  0.10566000000E+00 0. -1.
        994    1    1    2    0    0 -0.16769446934E+02  0.76998466513E+01  0.25046775936E+01  0.17220980053E+03  0.17120000000E+03 0.  0.
        998    1    1    2    0    0  0.44518142121E+01 -0.24080264400E+01  0.14362912569E+04  0.14363349860E+04  0.10000000000E+02 0. -1.
</event>
<event>
 5    1  0.1129619E-008  0.3768579E+03  0.7957747E-01  0.3464955E+00
         13   -1    0    0    0    0  0.00000000000E+00  0.00000000000E+00  0.14999999963E+04  0.15000000000E+04  0.10566000000E+00 0.  1.
        994   -1    0    0    0    0 -0.00000000000E+00 -0.00000000000E+00  0.11368683772E-12  0.17120000000E+03  0.17120000000E+03 0.  0.
         13    1    1    2    0    0 -0.87381198695E+01 -0.10829269396E+02  0.14228237806E+02  0.19901802170E+02  0.10566000000E+00 0.  1.
        994    1    1    2    0    0  0.12473578345E+02  0.89137615286E+01  0.65221057489E+01  0.17200878805E+03  0.17120000000E+03 0.  0.
        998    1    1    2    0    0 -0.37354584757E+01  0.19155078670E+01  0.14792496527E+04  0.14792894098E+04  0.10000000000E+02 0.  1.
</event>
<event>
 5    1  0.1129619E-008  0.3804640E+03  0.7957747E-01  0.3449140E+00
         13   -1    0    0    0    0  0.00000000000E+00  0.00000000000E+00  0.14999999963E+04  0.15000000000E+04  0.10566000000E+00 0.  1.
        994   -1    0    0    0    0 -0.00000000000E+00 -0.00000000000E+00  0.11368683772E-12  0.17120000000E+03  0.17120000000E+03 0.  0.
         13    1    1    2    0    0 -0.11019103692E+03  0.16179255810E+02  0.31385379360E+03  0.33302859916E+03  0.10566000000E+00 0.  1.
        994    1    1    2    0    0  0.96280045056E+02 -0.76730677070E+01  0.51281024219E+02  0.20314503806E+03  0.17120000000E+03 0.  0.
        998    1    1    2    0    0  0.13910991859E+02 -0.85061881031E+01  0.11348651785E+04  0.11350263628E+04  0.10000000000E+02 0.  1.
</event>
<event>
 5    1  0.1129619E-008  0.3822901E+03  0.7957747E-01  0.3441247E+00
         13   -1    0    0    0    0  0.00000000000E+00  0.00000000000E+00  0.14999999963E+04  0.15000000000E+04  0.10566000000E+00 0.  1.
        994   -1    0    0    0    0 -0.00000000000E+00 -0.00000000000E+00  0.11368683772E-12  0.17120000000E+03  0.17120000000E+03 0.  0.
         13    1    1    2    0    0  0.14255591492E+02 -0.21150908577E+02  0.98741795949E+02  0.10198301944E+03  0.10566000000E+00 0.  1.
        994    1    1    2    0    0 -0.76905595726E+00  0.37719889982E+02  0.77184708214E+01  0.17547762347E+03  0.17120000000E+03 0.  0.
        998    1    1    2    0    0 -0.13486535534E+02 -0.16568981405E+02  0.13935397295E+04  0.13937393571E+04  0.10000000000E+02 0.  1.
</event>
<event>
 5    1  0.1129619E-008  0.3730781E+03  0.7957747E-01  0.3481863E+00
         13   -1    0    0    0    0  0.00000000000E+00  0.00000000000E+00  0.14999999963E+04  0.15000000000E+04  0.10566000000E+00 0.  1.
        994   -1    0    0    0    0 -0.00000000000E+00 -0.00000000000E+00  0.11368683772E-12  0.17120000000E+03  0.17120000000E+03 0.  0.
         13    1    1    2    0    0 -0.78709921430E+02 -0.11557094728E+02  0.33187257597E+03  0.34127442918E+03  0.10566000000E+00 0.  1.
        994    1    1    2    0    0  0.75643412680E+02 -0.20534149949E+01  0.27521414136E+02  0.18919040840E+03  0.17120000000E+03 0.  0.
        998    1    1    2    0    0  0.30665087503E+01  0.13610509723E+02  0.11406060062E+04  0.11407351624E+04  0.10000000000E+02 0.  1.
</event>
<event>
 5    1  0.1129619E-008  0.3858915E+03  0.7957747E-01  0.3425900E+00
         13   -1    0    0    0    0  0.00000000000E+00  0.00000000000E+00  0.14999999963E+04  0.15000000000E+04  0.10566000000E+00 0.  1.
        994   -1    0    0    0    0 -0.00000000000E+00 -0.00000000000E+00  0.11368683772E-12  0.17120000000E+03  0.17120000000E+03 0.  0.
         13    1    1    2    0    0 -0.55166088670E+01 -0.13313837519E+02  0.84767365062E+02  0.85983769320E+02  0.10566000000E+00 0.  1.
        994    1    1    2    0    0  0.98775875891E+01  0.11322900854E+02  0.19288566099E+01  0.17186894806E+03  0.17120000000E+03 0.  0.
        998    1    1    2    0    0 -0.43609787221E+01  0.19909366654E+01  0.14133037746E+04  0.14133472826E+04  0.10000000000E+02 0.  1.
</event>
<event>
 5    1  0.1129619E-008  0.3832440E+03  0.7957747E-01  0.3437154E+00
         13   -1    0    0    0    0  0.00000000000E+00  0.00000000000E+00  0.14999999963E+04  0.15000000000E+04  0.10566000000E+00 0.  1.
        994   -1    0    0    0    0 -0.00000000000E+00 -0.00000000000E+00  0.11368683772E-12  0.17120000000E+03  0.17120000000E+03 0.  0.
         13    1    1    2    0    0 -0.27356474484E+02 -0.15446970957E+02  0.16927691874E+03  0.17216756951E+03  0.10566000000E+00 0.  1.
        994    1    1    2    0    0  0.40292841886E+02  0.37898110104E+01  0.79406742265E+01  0.17609761521E+03  0.17120000000E+03 0.  0.
        998    1    1    2    0    0 -0.12936367402E+02  0.11657159946E+02  0.13227824033E+04  0.13229348153E+04  0.10000000000E+02 0.  1.
</event>
<event>
 5    1  0.1129619E-008  0.3863809E+03  0.7957747E-01  0.3423837E+00
         13   -1    0    0    0    0  0.00000000000E+00  0.00000000000E+00  0.14999999963E+04  0.15000000000E+04  0.10566000000E+00 0.  1.
        994   -1    0    0    0    0 -0.00000000000E+00 -0.00000000000E+00  0.11368683772E-12  0.17120000000E+03  0.17120000000E+03 0.  0.
         13    1    1    2    0    0 -0.94336018891E+01  0.54320262948E+01  0.63875090378E+02  0.64796127115E+02  0.10566000000E+00 0.  1.
        994    1    1    2    0    0  0.37712468663E+00 -0.14224203333E+02  0.16092628877E+01  0.17179784606E+03  0.17120000000E+03 0.  0.
        998    1    1    2    0    0  0.90564772025E+01  0.87921770386E+01  0.14345156430E+04  0.14346060268E+04  0.10000000000E+02 0.  1.
</event>
<event>
 5    1  0.1129619E-008  0.3725664E+03  0.7957747E-01  0.3484179E+00
         13   -1    0    0    0    0  0.00000000000E+00  0.00000000000E+00  0.14999999963E+04  0.15000000000E+04  0.10566000000E+00 0. -1.
        994   -1    0    0    0    0 -0.00000000000E+00 -0.00000000000E+00  0.11368683772E-12  0.17120000000E+03  0.17120000000E+03 0.  0.
         13    1    1    2    0    0 -0.42962314586E+00 -0.50954348381E+02  0.20631018938E+03  0.21250984825E+03  0.10566000000E+00 0. -1.
        994    1    1    2    0    0  0.25707487988E+02 -0.12056312304E+02  0.10701982912E+02  0.17386834687E+03  0.17120000000E+03 0.  0.
        998    1    1    2    0    0 -0.25277864842E+02  0.63010660685E+02  0.12829878240E+04  0.12848218049E+04  0.10000000000E+02 0. -1.
</event>
<event>
 5    1  0.1129619E-008  0.3857405E+03  0.7957747E-01  0.3426538E+00
         13   -1    0    0    0    0  0.00000000000E+00  0.00000000000E+00  0.14999999963E+04  0.15000000000E+04  0.10566000000E+00 0. -1.
        994   -1    0    0    0    0 -0.00000000000E+00 -0.00000000000E+00  0.11368683772E-12  0.17120000000E+03  0.17120000000E+03 0.  0.
         13    1    1    2    0    0 -0.13294193604E+02  0.71436109632E+01  0.89494876578E+02  0.90758530502E+02  0.10566000000E+00 0. -1.
        994    1    1    2    0    0  0.10282733732E+02 -0.53595922172E+01  0.17042004207E+01  0.17160071136E+03  0.17120000000E+03 0.  0.
        998    1    1    2    0    0  0.30114598714E+01 -0.17840187460E+01  0.14088009193E+04  0.14088407581E+04  0.10000000000E+02 0. -1.
</event>
<event>
 5    1  0.1129619E-008  0.3753750E+03  0.7957747E-01  0.3471547E+00
         13   -1    0    0    0    0  0.00000000000E+00  0.00000000000E+00  0.14999999963E+04  0.15000000000E+04  0.10566000000E+00 0.  1.
        994   -1    0    0    0    0 -0.00000000000E+00 -0.00000000000E+00  0.11368683772E-12  0.17120000000E+03  0.17120000000E+03 0.  0.
         13    1    1    2    0    0 -0.13135358342E+02 -0.26603172530E+01  0.10940782803E+02  0.17301064101E+02  0.10566000000E+00 0.  1.
        994    1    1    2    0    0  0.92004044882E+01  0.47171552469E+01  0.68492895816E+01  0.17164862879E+03  0.17120000000E+03 0.  0.
        998    1    1    2    0    0  0.39349538540E+01 -0.20568379939E+01  0.14822099239E+04  0.14822503071E+04  0.10000000000E+02 0.  1.
</event>
<event>
 5    1  0.1129619E-008  0.3835450E+03  0.7957747E-01  0.3435866E+00
         13   -1    0    0    0    0  0.00000000000E+00  0.00000000000E+00  0.14999999963E+04  0.15000000000E+04  0.10566000000E+00 0.  1.
        994   -1    0    0    0    0 -0.00000000000E+00 -0.00000000000E+00  0.11368683772E-12  0.17120000000E+03  0.17120000000E+03 0.  0.
         13    1    1    2    0    0  0.54591679641E+01 -0.19453769131E+02  0.92188554590E+02  0.94376863741E+02  0.10566000000E+00 0.  1.
        994    1    1    2    0    0  0.75057801241E+01  0.44479936630E+01  0.26057843269E+01  0.17144197705E+03  0.17120000000E+03 0.  0.
        998    1    1    2    0    0 -0.12964948088E+02  0.15005775468E+02  0.14052056574E+04  0.14053811592E+04  0.10000000000E+02 0.  1.
</event>
<event>
 5    1  0.1129619E-008  0.3693017E+03  0.7957747E-01  0.3499106E+00
         13   -1    0    0    0    0  0.00000000000E+00  0.00000000000E+00  0.14999999963E+04  0.15000000000E+04  0.10566000000E+00 0. -1.
        994   -1    0    0    0    0 -0.00000000000E+00 -0.00000000000E+00  0.11368683772E-12  0.17120000000E+03  0.17120000000E+03 0.  0.
         13    1    1    2    0    0  0.21928326287E+01 -0.19234113675E+02  0.12917776877E+02  0.23273155507E+02  0.10566000000E+00 0. -1.
        994    1    1    2    0    0 -0.74930346122E+02  0.40936954770E+01  0.30475753157E+02  0.18939252003E+03  0.17120000000E+03 0.  0.
        998    1    1    2    0    0  0.72737513494E+02  0.15140418198E+02  0.14566064662E+04  0.14585343245E+04  0.10000000000E+02 0. -1.
</event>
<event>
 5    1  0.1129619E-008  0.3812531E+03  0.7957747E-01  0.3445720E+00
         13   -1    0    0    0    0  0.00000000000E+00  0.00000000000E+00  0.14999999963E+04  0.15000000000E+04  0.10566000000E+00 0.  1.
        994   -1    0    0    0    0 -0.00000000000E+00 -0.00000000000E+00  0.11368683772E-12  0.17120000000E+03  0.17120000000E+03 0.  0.
         13    1    1    2    0    0  0.53651872243E+01 -0.19564621352E+02  0.60011276246E+02  0.63347644655E+02  0.10566000000E+00 0.  1.
        994    1    1    2    0    0  0.45673154580E+01  0.48216038503E+01  0.36487960186E+01  0.17136762222E+03  0.17120000000E+03 0.  0.
        998    1    1    2    0    0 -0.99325026823E+01  0.14743017502E+02  0.14363399240E+04  0.14364847331E+04  0.10000000000E+02 0.  1.
</event>
<event>
 5    1  0.1129619E-008  0.3857319E+03  0.7957747E-01  0.3426574E+00
         13   -1    0    0    0    0  0.00000000000E+00  0.00000000000E+00  0.14999999963E+04  0.15000000000E+04  0.10566000000E+00 0. -1.
        994   -1    0    0    0    0 -0.00000000000E+00 -0.00000000000E+00  0.11368683772E-12  0.17120000000E+03  0.17120000000E+03 0.  0.
         13    1    1    2    0    0  0.43388273606E+01 -0.91458320691E+01  0.40415134708E+02  0.41663724565E+02  0.10566000000E+00 0. -1.
        994    1    1    2    0    0 -0.19968911878E+01  0.79751019013E+01  0.14889817531E+01  0.17140375402E+03  0.17120000000E+03 0.  0.
        998    1    1    2    0    0 -0.23419361729E+01  0.11707301678E+01  0.14580958798E+04  0.14581325214E+04  0.10000000000E+02 0. -1.
</event>
<event>
 5    1  0.1129619E-008  0.3750397E+03  0.7957747E-01  0.3473045E+00
         13   -1    0    0    0    0  0.00000000000E+00  0.00000000000E+00  0.14999999963E+04  0.15000000000E+04  0.10566000000E+00 0. -1.
        994   -1    0    0    0    0 -0.00000000000E+00 -0.00000000000E+00  0.11368683772E-12  0.17120000000E+03  0.17120000000E+03 0.  0.
         13    1    1    2    0    0 -0.10980519350E+02  0.39546746739E+00  0.59494534906E+01  0.12495413582E+02  0.10566000000E+00 0. -1.
        994    1    1    2    0    0  0.12044504900E+02 -0.19294883347E+01  0.71642209833E+01  0.17178346569E+03  0.17120000000E+03 0.  0.
        998    1    1    2    0    0 -0.10639855495E+01  0.15340208673E+01  0.14868863218E+04  0.14869211207E+04  0.10000000000E+02 0. -1.
</event>
<event>
 5    1  0.1129619E-008  0.3856110E+03  0.7957747E-01  0.3427085E+00
         13   -1    0    0    0    0  0.00000000000E+00  0.00000000000E+00  0.14999999963E+04  0.15000000000E+04  0.10566000000E+00 0.  1.
        994   -1    0    0    0    0 -0.00000000000E+00 -0.00000000000E+00  0.11368683772E-12  0.17120000000E+03  0.17120000000E+03 0.  0.
         13    1    1    2    0    0  0.12855144717E+02 -0.51800298202E+01  0.73446189179E+02  0.74742500116E+02  0.10566000000E+00 0.  1.
        994    1    1    2    0    0 -0.86600445739E+01 -0.49755496515E-01  0.15732848935E+01  0.17142611841E+03  0.17120000000E+03 0.  0.
        998    1    1    2    0    0 -0.41951001435E+01  0.52297853167E+01  0.14249805222E+04  0.14250313815E+04  0.10000000000E+02 0.  1.
</event>
<event>
 5    1  0.1129619E-008  0.3860087E+03  0.7957747E-01  0.3425405E+00
         13   -1    0    0    0    0  0.00000000000E+00  0.00000000000E+00  0.14999999963E+04  0.15000000000E+04  0.10566000000E+00 0.  1.
        994   -1    0    0    0    0 -0.00000000000E+00 -0.00000000000E+00  0.11368683772E-12  0.17120000000E+03  0.17120000000E+03 0.  0.
         13    1    1    2    0    0  0.97094519763E+01 -0.39156289699E+01  0.49061337889E+02  0.50166040779E+02  0.10566000000E+00 0.  1.
        994    1    1    2    0    0 -0.54757022695E+01  0.53420412403E+01  0.13220019461E+01  0.17137592716E+03  0.17120000000E+03 0.  0.
        998    1    1    2    0    0 -0.42337497068E+01 -0.14264122704E+01  0.14496166564E+04  0.14496580321E+04  0.10000000000E+02 0.  1.
</event>
<event>
 5    1  0.1129619E-008  0.3849873E+03  0.7957747E-01  0.3429726E+00
         13   -1    0    0    0    0  0.00000000000E+00  0.00000000000E+00  0.14999999963E+04  0.15000000000E+04  0.10566000000E+00 0. -1.
        994   -1    0    0    0    0 -0.00000000000E+00 -0.00000000000E+00  0.11368683772E-12  0.17120000000E+03  0.17120000000E+03 0.  0.
         13    1    1    2    0    0  0.50986421598E+01 -0.14065980958E+02  0.66136937057E+02  0.67808211741E+02  0.10566000000E+00 0. -1.
        994    1    1    2    0    0 -0.84510234659E+01  0.13090609620E+02  0.24353100925E+01  0.17192485159E+03  0.17120000000E+03 0.  0.
        998    1    1    2    0    0  0.33523813061E+01  0.97537133748E+00  0.14314277491E+04  0.14314669367E+04  0.10000000000E+02 0. -1.
</event>
<event>
 5    1  0.1129619E-008  0.3835870E+03  0.7957747E-01  0.3435687E+00
         13   -1    0    0    0    0  0.00000000000E+00  0.00000000000E+00  0.14999999963E+04  0.15000000000E+04  0.10566000000E+00 0. -1.
        994   -1    0    0    0    0 -0.00000000000E+00 -0.00000000000E+00  0.11368683772E-12  0.17120000000E+03  0.17120000000E+03 0.  0.
         13    1    1    2    0    0 -0.14066977986E+02  0.50839912439E+01  0.50929105002E+02  0.53080238667E+02  0.10566000000E+00 0. -1.
        994    1    1    2    0    0 -0.86900293458E+01 -0.88984616122E+01  0.28445439710E+01  0.17167478166E+03  0.17120000000E+03 0.  0.
        998    1    1    2    0    0  0.22757007332E+02  0.38144703683E+01  0.14462263473E+04  0.14464449797E+04  0.10000000000E+02 0. -1.
</event>
<event>
 5    1  0.1129619E-008  0.3731266E+03  0.7957747E-01  0.3481644E+00
         13   -1    0    0    0    0  0.00000000000E+00  0.00000000000E+00  0.14999999963E+04  0.15000000000E+04  0.10566000000E+00 0. -1.
        994   -1    0    0    0    0 -0.00000000000E+00 -0.00000000000E+00  0.11368683772E-12  0.17120000000E+03  0.17120000000E+03 0.  0.
         13    1    1    2    0    0  0.16763733303E+02  0.75214783903E+01  0.18816897919E+02  0.26299851763E+02  0.10566000000E+00 0. -1.
        994    1    1    2    0    0 -0.11900174472E+02 -0.40976626680E+01  0.81859802337E+01  0.17185707802E+03  0.17120000000E+03 0.  0.
        998    1    1    2    0    0 -0.48635588305E+01 -0.34238157223E+01  0.14729971181E+04  0.14730430702E+04  0.10000000000E+02 0. -1.
</event>
<event>
 5    1  0.1129619E-008  0.3700408E+03  0.7957747E-01  0.3495703E+00
         13   -1    0    0    0    0  0.00000000000E+00  0.00000000000E+00  0.14999999963E+04  0.15000000000E+04  0.10566000000E+00 0.  1.
        994   -1    0    0    0    0 -0.00000000000E+00 -0.00000000000E+00  0.11368683772E-12  0.17120000000E+03  0.17120000000E+03 0.  0.
         13    1    1    2    0    0  0.58378718141E+02  0.65340078199E+01  0.16671289363E+03  0.17675963356E+03  0.10566000000E+00 0.  1.
        994    1    1    2    0    0 -0.55076656766E+02 -0.51670330456E+01  0.19902625072E+02  0.18101295765E+03  0.17120000000E+03 0.  0.
        998    1    1    2    0    0 -0.33020613756E+01 -0.13669747744E+01  0.13133844776E+04  0.13134274088E+04  0.10000000000E+02 0.  1.
</event>
<event>
 5    1  0.1129619E-008  0.3686188E+03  0.7957747E-01  0.3502263E+00
         13   -1    0    0    0    0  0.00000000000E+00  0.00000000000E+00  0.14999999963E+04  0.15000000000E+04  0.10566000000E+00 0.  1.
        994   -1    0    0    0    0 -0.00000000000E+00 -0.00000000000E+00  0.11368683772E-12  0.17120000000E+03  0.17120000000E+03 0.  0.
         13    1    1    2    0    0  0.39027427002E+02 -0.64307521579E+02  0.25741836611E+03  0.26818430932E+03  0.10566000000E+00 0.  1.
        994    1    1    2    0    0 -0.44721259521E+02  0.41409427503E+02  0.23011905440E+02  0.18317674397E+03  0.17120000000E+03 0.  0.
        998    1    1    2    0    0  0.56938325186E+01  0.22898094077E+02  0.12195697247E+04  0.12198389467E+04  0.10000000000E+02 0.  1.
</event>
<event>
 5    1  0.1129619E-008  0.3800657E+03  0.7957747E-01  0.3450872E+00
         13   -1    0    0    0    0  0.00000000000E+00  0.00000000000E+00  0.14999999963E+04  0.15000000000E+04  0.10566000000E+00 0. -1.
        994   -1    0    0    0    0 -0.00000000000E+00 -0.00000000000E+00  0.11368683772E-12  0.17120000000E+03  0.17120000000E+03 0.  0.
         13    1    1    2    0    0  0.32112607819E+02  0.36308975834E+02  0.23519320857E+03  0.24013624847E+03  0.10566000000E+00 0. -1.
        994    1    1    2    0    0 -0.31530913895E+02 -0.41801849239E+02  0.13317874476E+02  0.17952269748E+03  0.17120000000E+03 0.  0.
        998    1    1    2    0    0 -0.58169392421E+00  0.54928734045E+01  0.12514889132E+04  0.12515410540E+04  0.10000000000E+02 0. -1.
</event>
<event>
 5    1  0.2251988E-008  0.3858289E+03  0.7957747E-01  0.3426164E+00
         13   -1    0    0    0    0  0.00000000000E+00  0.00000000000E+00  0.14999999963E+04  0.15000000000E+04  0.10566000000E+00 0. -1.
        994   -1    0    0    0    0 -0.00000000000E+00 -0.00000000000E+00  0.11368683772E-12  0.17120000000E+03  0.17120000000E+03 0.  0.
         13    1    1    2    0    0 -0.33190089022E+01  0.10414955243E+02  0.48044123622E+02  0.49272061977E+02  0.10566000000E+00 0. -1.
        994    1    1    2    0    0  0.38800026927E+01 -0.11301412738E+02  0.16875674634E+01  0.17162477745E+03  0.17120000000E+03 0.  0.
        998    1    1    2    0    0 -0.56099379055E+00  0.88645749513E+00  0.14502683052E+04  0.14503031606E+04  0.10000000000E+02 0. -1.
</event>
<event>
 5    1  0.1129619E-008  0.3826718E+03  0.7957747E-01  0.3439607E+00
         13   -1    0    0    0    0  0.00000000000E+00  0.00000000000E+00  0.14999999963E+04  0.15000000000E+04  0.10566000000E+00 0. -1.
        994   -1    0    0    0    0 -0.00000000000E+00 -0.00000000000E+00  0.11368683772E-12  0.17120000000E+03  0.17120000000E+03 0.  0.
         13    1    1    2    0    0  0.23020325645E+02 -0.80133044271E+01  0.10860476206E+03  0.11130657638E+03  0.10566000000E+00 0. -1.
        994    1    1    2    0    0 -0.73678264958E+01  0.11386510955E+02  0.34002011903E+01  0.17177001737E+03  0.17120000000E+03 0.  0.
        998    1    1    2    0    0 -0.15652499149E+02 -0.33732065279E+01  0.13879950330E+04  0.13881234062E+04  0.10000000000E+02 0. -1.
</event>
<event>
 5    1  0.1129619E-008  0.3841126E+03  0.7957747E-01  0.3433444E+00
         13   -1    0    0    0    0  0.00000000000E+00  0.00000000000E+00  0.14999999963E+04  0.15000000000E+04  0.10566000000E+00 0. -1.
        994   -1    0    0    0    0 -0.00000000000E+00 -0.00000000000E+00  0.11368683772E-12  0.17120000000E+03  0.17120000000E+03 0.  0.
         13    1    1    2    0    0  0.12453738884E+02 -0.23328232851E+01 -0.43383940058E+01  0.13392927359E+02  0.10566000000E+00 0. -1.
        994    1    1    2    0    0 -0.22039726322E+02  0.89317162551E+01  0.20688123400E+02  0.17407746420E+03  0.17120000000E+03 0.  0.
        998    1    1    2    0    0  0.95859874382E+01 -0.65988929700E+01  0.14836502669E+04  0.14837296084E+04  0.10000000000E+02 0. -1.
</event>
<event>
 5    1  0.1129619E-008  0.3820908E+03  0.7957747E-01  0.3442105E+00
         13   -1    0    0    0    0  0.00000000000E+00  0.00000000000E+00  0.14999999963E+04  0.15000000000E+04  0.10566000000E+00 0. -1.
        994   -1    0    0    0    0 -0.00000000000E+00 -0.00000000000E+00  0.11368683772E-12  0.17120000000E+03  0.17120000000E+03 0.  0.
         13    1    1    2    0    0 -0.99487949792E+01 -0.29435237284E+02  0.17024229102E+03  0.17305450162E+03  0.10566000000E+00 0. -1.
        994    1    1    2    0    0 -0.25595966684E+02  0.17483513781E+02  0.62778936935E+01  0.17409675101E+03  0.17120000000E+03 0.  0.
        998    1    1    2    0    0  0.35544761663E+02  0.11951723503E+02  0.13234798116E+04  0.13240487474E+04  0.10000000000E+02 0. -1.
</event>
<event>
 5    1  0.1129619E-008  0.3804298E+03  0.7957747E-01  0.3449289E+00
         13   -1    0    0    0    0  0.00000000000E+00  0.00000000000E+00  0.14999999963E+04  0.15000000000E+04  0.10566000000E+00 0.  1.
        994   -1    0    0    0    0 -0.00000000000E+00 -0.00000000000E+00  0.11368683772E-12  0.17120000000E+03  0.17120000000E+03 0.  0.
         13    1    1    2    0    0 -0.23814824398E+02 -0.11763022141E+01  0.64513277656E+02  0.68778657344E+02  0.10566000000E+00 0.  1.
        994    1    1    2    0    0  0.38044974910E+02  0.47776943341E+01  0.88399042436E+01  0.17566397009E+03  0.17120000000E+03 0.  0.
        998    1    1    2    0    0 -0.14230150512E+02 -0.36013921199E+01  0.14266468144E+04  0.14267573726E+04  0.10000000000E+02 0.  1.
</event>
<event>
 5    1  0.1129619E-008  0.3822386E+03  0.7957747E-01  0.3441469E+00
         13   -1    0    0    0    0  0.00000000000E+00  0.00000000000E+00  0.14999999963E+04  0.15000000000E+04  0.10566000000E+00 0.  1.
        994   -1    0    0    0    0 -0.00000000000E+00 -0.00000000000E+00  0.11368683772E-12  0.17120000000E+03  0.17120000000E+03 0.  0.
         13    1    1    2    0    0 -0.30976642230E+02 -0.12452730432E+02  0.15885934790E+03  0.16232968440E+03  0.10566000000E+00 0.  1.
        994    1    1    2    0    0  0.43924253604E+02 -0.11169093653E+01  0.94403637482E+01  0.17700041810E+03  0.17120000000E+03 0.  0.
        998    1    1    2    0    0 -0.12947611374E+02  0.13569639798E+02  0.13317002846E+04  0.13318698975E+04  0.10000000000E+02 0.  1.
</event>
<event>
 5    1  0.1129619E-008  0.3803668E+03  0.7957747E-01  0.3449563E+00
         13   -1    0    0    0    0  0.00000000000E+00  0.00000000000E+00  0.14999999963E+04  0.15000000000E+04  0.10566000000E+00 0.  1.
        994   -1    0    0    0    0 -0.00000000000E+00 -0.00000000000E+00  0.11368683772E-12  0.17120000000E+03  0.17120000000E+03 0.  0.
         13    1    1    2    0    0  0.38470375106E+02  0.17155014345E+02  0.18042008849E+03  0.18527191847E+03  0.10566000000E+00 0.  1.
        994    1    1    2    0    0 -0.47848745011E+02 -0.28720113196E+02  0.14417385291E+02  0.18064232145E+03  0.17120000000E+03 0.  0.
        998    1    1    2    0    0  0.93783699054E+01  0.11565098851E+02  0.13051625225E+04  0.13052857601E+04  0.10000000000E+02 0.  1.
</event>
<event>
 5    1  0.1129619E-008  0.3830903E+03  0.7957747E-01  0.3437812E+00
         13   -1    0    0    0    0  0.00000000000E+00  0.00000000000E+00  0.14999999963E+04  0.15000000000E+04  0.10566000000E+00 0.  1.
        994   -1    0    0    0    0 -0.00000000000E+00 -0.00000000000E+00  0.11368683772E-12  0.17120000000E+03  0.17120000000E+03 0.  0.
         13    1    1    2    0    0 -0.22630171543E+02  0.17533682671E+02  0.15472445884E+03  0.15735064035E+03  0.10566000000E+00 0.  1.
        994    1    1    2    0    0  0.16686787330E+02 -0.10614286293E+02  0.38765378191E+01  0.17238207416E+03  0.17120000000E+03 0.  0.
        998    1    1    2    0    0  0.59433842134E+01 -0.69193963781E+01  0.13413989996E+04  0.13414672855E+04  0.10000000000E+02 0.  1.
</event>
<event>
 5    1  0.1129619E-008  0.3813813E+03  0.7957747E-01  0.3445166E+00
         13   -1    0    0    0    0  0.00000000000E+00  0.00000000000E+00  0.14999999963E+04  0.15000000000E+04  0.10566000000E+00 0.  1.
        994   -1    0    0    0    0 -0.00000000000E+00 -0.00000000000E+00  0.11368683772E-12  0.17120000000E+03  0.17120000000E+03 0.  0.
         13    1    1    2    0    0  0.50397924315E+01 -0.10652002371E+02  0.18637350656E+02  0.22050547970E+02  0.10566000000E+00 0.  1.
        994    1    1    2    0    0 -0.17050463380E+01  0.11769189565E+02  0.39082493468E+01  0.17165702846E+03  0.17120000000E+03 0.  0.
        998    1    1    2    0    0 -0.33347460934E+01 -0.11171871940E+01  0.14774543963E+04  0.14774924236E+04  0.10000000000E+02 0.  1.
</event>
<event>
 5    1  0.1129619E-008  0.3810984E+03  0.7957747E-01  0.3446390E+00
         13   -1    0    0    0    0  0.00000000000E+00  0.00000000000E+00  0.14999999963E+04  0.15000000000E+04  0.10566000000E+00 0. -1.
        994   -1    0    0    0    0 -0.00000000000E+00 -0.00000000000E+00  0.11368683772E-12  0.17120000000E+03  0.17120000000E+03 0.  0.
         13    1    1    2    0    0 -0.17663605661E+01  0.15087683886E+02  0.30509842287E+02  0.34082545021E+02  0.10566000000E+00 0. -1.
        994    1    1    2    0    0  0.52920077383E+01 -0.13291848328E+02  0.42617537584E+01  0.17184958866E+03  0.17120000000E+03 0.  0.
        998    1    1    2    0    0 -0.35256471722E+01 -0.17958355586E+01  0.14652284002E+04  0.14652678663E+04  0.10000000000E+02 0. -1.
</event>
<event>
 5    1  0.1129619E-008  0.3825301E+03  0.7957747E-01  0.3440215E+00
         13   -1    0    0    0    0  0.00000000000E+00  0.00000000000E+00  0.14999999963E+04  0.15000000000E+04  0.10566000000E+00 0. -1.
        994   -1    0    0    0    0 -0.00000000000E+00 -0.00000000000E+00  0.11368683772E-12  0.17120000000E+03  0.17120000000E+03 0.  0.
         13    1    1    2    0    0 -0.15423491650E+02 -0.86826227936E+01  0.51957815185E+02  0.54889869339E+02  0.10566000000E+00 0. -1.
        994    1    1    2    0    0  0.17582600484E+02  0.87020975573E+01  0.41383608280E+01  0.17237006809E+03  0.17120000000E+03 0.  0.
        998    1    1    2    0    0 -0.21591088348E+01 -0.19474763764E-01  0.14439038203E+04  0.14439400626E+04  0.10000000000E+02 0. -1.
</event>
<event>
 5    1  0.1129619E-008  0.3702424E+03  0.7957747E-01  0.3494778E+00
         13   -1    0    0    0    0  0.00000000000E+00  0.00000000000E+00  0.14999999963E+04  0.15000000000E+04  0.10566000000E+00 0.  1.
        994   -1    0    0    0    0 -0.00000000000E+00 -0.00000000000E+00  0.11368683772E-12  0.17120000000E+03  0.17120000000E+03 0.  0.
         13    1    1    2    0    0  0.13227188357E+03  0.86832466016E+01  0.61975827154E+03  0.63377565136E+03  0.10566000000E+00 0.  1.
        994    1    1    2    0    0 -0.10220455499E+03 -0.28154798788E+02  0.51497247947E+02  0.20784578490E+03  0.17120000000E+03 0.  0.
        998    1    1    2    0    0 -0.30067328575E+02  0.19471552186E+02  0.82874447679E+03  0.82957856374E+03  0.10000000000E+02 0. -1.
</event>
<event>
 5    1  0.1129619E-008  0.3727874E+03  0.7957747E-01  0.3483178E+00
         13   -1    0    0    0    0  0.00000000000E+00  0.00000000000E+00  0.14999999963E+04  0.15000000000E+04  0.10566000000E+00 0.  1.
        994   -1    0    0    0    0 -0.00000000000E+00 -0.00000000000E+00  0.11368683772E-12  0.17120000000E+03  0.17120000000E+03 0.  0.
         13    1    1    2    0    0  0.10386473478E+03 -0.45286834993E+02  0.47144863744E+03  0.48487380777E+03  0.10566000000E+00 0.  1.
        994    1    1    2    0    0 -0.58040756679E+02  0.63744502355E+02  0.39145330397E+02  0.19563713325E+03  0.17120000000E+03 0.  0.
        998    1    1    2    0    0 -0.45823978101E+02 -0.18457667361E+02  0.98940602844E+03  0.99068905897E+03  0.10000000000E+02 0.  1.
</event>
<event>
 5    1  0.1129619E-008  0.3820330E+03  0.7957747E-01  0.3442354E+00
         13   -1    0    0    0    0  0.00000000000E+00  0.00000000000E+00  0.14999999963E+04  0.15000000000E+04  0.10566000000E+00 0.  1.
        994   -1    0    0    0    0 -0.00000000000E+00 -0.00000000000E+00  0.11368683772E-12  0.17120000000E+03  0.17120000000E+03 0.  0.
         13    1    1    2    0    0 -0.88194349678E+01  0.14944915049E+02  0.45784996481E+02  0.48963353498E+02  0.10566000000E+00 0.  1.
        994    1    1    2    0    0  0.83794010961E+01 -0.17977131745E+02  0.44177847034E+01  0.17240170663E+03  0.17120000000E+03 0.  0.
        998    1    1    2    0    0  0.44003387175E+00  0.30322166964E+01  0.14497972151E+04  0.14498349399E+04  0.10000000000E+02 0.  1.
</event>
<event>
 5    1  0.1129619E-008  0.3686461E+03  0.7957747E-01  0.3502137E+00
         13   -1    0    0    0    0  0.00000000000E+00  0.00000000000E+00  0.14999999963E+04  0.15000000000E+04  0.10566000000E+00 0. -1.
        994   -1    0    0    0    0 -0.00000000000E+00 -0.00000000000E+00  0.11368683772E-12  0.17120000000E+03  0.17120000000E+03 0.  0.
         13    1    1    2    0    0 -0.37044272145E+02  0.79392909607E+02  0.36846483709E+03  0.37873719058E+03  0.10566000000E+00 0. -1.
        994    1    1    2    0    0  0.70974654496E+01 -0.54431523009E+02  0.20783498375E+02  0.18098220497E+03  0.17120000000E+03 0.  0.
        998    1    1    2    0    0  0.29946806696E+02 -0.24961386598E+02  0.11107516608E+04  0.11114806044E+04  0.10000000000E+02 0. -1.
</event>
<event>
 5    1  0.1129619E-008  0.3822740E+03  0.7957747E-01  0.3441317E+00
         13   -1    0    0    0    0  0.00000000000E+00  0.00000000000E+00  0.14999999963E+04  0.15000000000E+04  0.10566000000E+00 0.  1.
        994   -1    0    0    0    0 -0.00000000000E+00 -0.00000000000E+00  0.11368683772E-12  0.17120000000E+03  0.17120000000E+03 0.  0.
         13    1    1    2    0    0 -0.50444002095E+02 -0.21857081092E+02  0.33041934820E+03  0.33496161895E+03  0.10566000000E+00 0.  1.
        994    1    1    2    0    0  0.65444473972E+02  0.27656593456E+02  0.19923120167E+02  0.18642488314E+03  0.17120000000E+03 0.  0.
        998    1    1    2    0    0 -0.15000471877E+02 -0.57995123636E+01  0.11496575279E+04  0.11498134979E+04  0.10000000000E+02 0.  1.
</event>
<event>
 5    1  0.1129619E-008  0.3745883E+03  0.7957747E-01  0.3475066E+00
         13   -1    0    0    0    0  0.00000000000E+00  0.00000000000E+00  0.14999999963E+04  0.15000000000E+04  0.10566000000E+00 0.  1.
        994   -1    0    0    0    0 -0.00000000000E+00 -0.00000000000E+00  0.11368683772E-12  0.17120000000E+03  0.17120000000E+03 0.  0.
         13    1    1    2    0    0  0.45215519308E+02 -0.23425501788E+02  0.85392254592E+02  0.99423566767E+02  0.10566000000E+00 0.  1.
        994    1    1    2    0    0 -0.46375373228E+02  0.35784744283E+02  0.25679755473E+02  0.18275697800E+03  0.17120000000E+03 0.  0.
        998    1    1    2    0    0  0.11598539201E+01 -0.12359242495E+02  0.13889279862E+04  0.13890194552E+04  0.10000000000E+02 0.  1.
</event>
<event>
 5    1  0.1129619E-008  0.3775842E+03  0.7957747E-01  0.3461745E+00
         13   -1    0    0    0    0  0.00000000000E+00  0.00000000000E+00  0.14999999963E+04  0.15000000000E+04  0.10566000000E+00 0. -1.
        994   -1    0    0    0    0 -0.00000000000E+00 -0.00000000000E+00  0.11368683772E-12  0.17120000000E+03  0.17120000000E+03 0.  0.
         13    1    1    2    0    0 -0.57141605682E+02 -0.16642277760E+02  0.32542416485E+03  0.33082174467E+03  0.10566000000E+00 0. -1.
        994    1    1    2    0    0  0.43315066283E+02 -0.17874850248E+02  0.12792773239E+02  0.17795729905E+03  0.17120000000E+03 0.  0.
        998    1    1    2    0    0  0.13826539399E+02  0.34517128008E+02  0.11617830582E+04  0.11624209563E+04  0.10000000000E+02 0. -1.
</event>
<event>
 5    1  0.1129619E-008  0.3777519E+03  0.7957747E-01  0.3461006E+00
         13   -1    0    0    0    0  0.00000000000E+00  0.00000000000E+00  0.14999999963E+04  0.15000000000E+04  0.10566000000E+00 0.  1.
        994   -1    0    0    0    0 -0.00000000000E+00 -0.00000000000E+00  0.11368683772E-12  0.17120000000E+03  0.17120000000E+03 0.  0.
         13    1    1    2    0    0 -0.21360045685E+02 -0.11549924162E+02  0.54554463370E+02  0.59714763145E+02  0.10566000000E+00 0.  1.
        994    1    1    2    0    0  0.62363074161E+01  0.14545111627E+02  0.61162621747E+01  0.17203865980E+03  0.17120000000E+03 0.  0.
        998    1    1    2    0    0  0.15123738269E+02 -0.29951874648E+01  0.14393292707E+04  0.14394465771E+04  0.10000000000E+02 0.  1.
</event>
<event>
 5    1  0.1129619E-008  0.3806121E+03  0.7957747E-01  0.3448498E+00
         13   -1    0    0    0    0  0.00000000000E+00  0.00000000000E+00  0.14999999963E+04  0.15000000000E+04  0.10566000000E+00 0.  1.
        994   -1    0    0    0    0 -0.00000000000E+00 -0.00000000000E+00  0.11368683772E-12  0.17120000000E+03  0.17120000000E+03 0.  0.
         13    1    1    2    0    0  0.15474038211E+02 -0.15936000619E+03  0.94624479347E+03  0.95969488785E+03  0.10566000000E+00 0.  1.
        994    1    1    2    0    0 -0.14056176793E+02  0.16338597308E+03  0.99473495261E+02  0.25709330712E+03  0.17120000000E+03 0.  0.
        998    1    1    2    0    0 -0.14178614177E+01 -0.40259668958E+01  0.45428170755E+03  0.45441180503E+03  0.10000000000E+02 0.  1.
</event>
<event>
 5    1  0.1129619E-008  0.3814081E+03  0.7957747E-01  0.3445050E+00
         13   -1    0    0    0    0  0.00000000000E+00  0.00000000000E+00  0.14999999963E+04  0.15000000000E+04  0.10566000000E+00 0.  1.
        994   -1    0    0    0    0 -0.00000000000E+00 -0.00000000000E+00  0.11368683772E-12  0.17120000000E+03  0.17120000000E+03 0.  0.
         13    1    1    2    0    0 -0.73912925971E+01 -0.74344503879E+01  0.14713556172E+02  0.18066603391E+02  0.10566000000E+00 0.  1.
        994    1    1    2    0    0 -0.12379050976E+01  0.79786866212E+01  0.36409777461E+01  0.17142896070E+03  0.17120000000E+03 0.  0.
        998    1    1    2    0    0  0.86291976947E+01 -0.54423623339E+00  0.14816454624E+04  0.14817044359E+04  0.10000000000E+02 0.  1.
</event>
<event>
 5    1  0.1129619E-008  0.3834298E+03  0.7957747E-01  0.3436359E+00
         13   -1    0    0    0    0  0.00000000000E+00  0.00000000000E+00  0.14999999963E+04  0.15000000000E+04  0.10566000000E+00 0. -1.
        994   -1    0    0    0    0 -0.00000000000E+00 -0.00000000000E+00  0.11368683772E-12  0.17120000000E+03  0.17120000000E+03 0.  0.
         13    1    1    2    0    0  0.26118829892E+01 -0.24622528749E+02  0.12400878145E+03  0.12645663247E+03  0.10566000000E+00 0. -1.
        994    1    1    2    0    0  0.86659028446E+01  0.18977152314E+02  0.38516799308E+01  0.17250943632E+03  0.17120000000E+03 0.  0.
        998    1    1    2    0    0 -0.11277785834E+02  0.56453764350E+01  0.13721395349E+04  0.13722339312E+04  0.10000000000E+02 0. -1.
</event>
<event>
 5    1  0.1129619E-008  0.3746568E+03  0.7957747E-01  0.3474759E+00
         13   -1    0    0    0    0  0.00000000000E+00  0.00000000000E+00  0.14999999963E+04  0.15000000000E+04  0.10566000000E+00 0.  1.
        994   -1    0    0    0    0 -0.00000000000E+00 -0.00000000000E+00  0.11368683772E-12  0.17120000000E+03  0.17120000000E+03 0.  0.
         13    1    1    2    0    0  0.14674237391E+02  0.18306961954E+02  0.35865485951E+02  0.42858165447E+02  0.10566000000E+00 0.  1.
        994    1    1    2    0    0 -0.19784630761E+02 -0.23325316532E+02  0.10045303671E+02  0.17420060313E+03  0.17120000000E+03 0.  0.
        998    1    1    2    0    0  0.51103933709E+01  0.50183545783E+01  0.14540892067E+04  0.14541412314E+04  0.10000000000E+02 0.  1.
</event>
<event>
 5    1  0.2359478E-008  0.3863665E+03  0.7957747E-01  0.3423897E+00
         13   -1    0    0    0    0  0.00000000000E+00  0.00000000000E+00  0.14999999963E+04  0.15000000000E+04  0.10566000000E+00 0.  1.
        994   -1    0    0    0    0 -0.00000000000E+00 -0.00000000000E+00  0.11368683772E-12  0.17120000000E+03  0.17120000000E+03 0.  0.
         13    1    1    2    0    0  0.30945566236E+01  0.10651839159E+02  0.65141452616E+02  0.66079179559E+02  0.10566000000E+00 0.  1.
        994    1    1    2    0    0  0.27425692865E+01 -0.97243223256E+01  0.12875006240E+01  0.17150271656E+03  0.17120000000E+03 0.  0.
        998    1    1    2    0    0 -0.58371259101E+01 -0.92751683299E+00  0.14335710430E+04  0.14336181039E+04  0.10000000000E+02 0.  1.
</event>
<event>
 5    1  0.1129619E-008  0.3801328E+03  0.7957747E-01  0.3450581E+00
         13   -1    0    0    0    0  0.00000000000E+00  0.00000000000E+00  0.14999999963E+04  0.15000000000E+04  0.10566000000E+00 0.  1.
        994   -1    0    0    0    0 -0.00000000000E+00 -0.00000000000E+00  0.11368683772E-12  0.17120000000E+03  0.17120000000E+03 0.  0.
         13    1    1    2    0    0  0.59228584465E+02 -0.63342676710E+02  0.46443599996E+03  0.47246283360E+03  0.10566000000E+00 0.  1.
        994    1    1    2    0    0 -0.96904489275E+02  0.64442338267E+02  0.50733898223E+02  0.21313531719E+03  0.17120000000E+03 0.  0.
        998    1    1    2    0    0  0.37675904811E+02 -0.10996615566E+01  0.98483009810E+03  0.98560184922E+03  0.10000000000E+02 0.  1.
</event>
<event>
 5    1  0.1129619E-008  0.3848682E+03  0.7957747E-01  0.3430231E+00
         13   -1    0    0    0    0  0.00000000000E+00  0.00000000000E+00  0.14999999963E+04  0.15000000000E+04  0.10566000000E+00 0. -1.
        994   -1    0    0    0    0 -0.00000000000E+00 -0.00000000000E+00  0.11368683772E-12  0.17120000000E+03  0.17120000000E+03 0.  0.
         13    1    1    2    0    0  0.24147746769E+01 -0.12628474010E+02  0.48299364097E+02  0.49981488861E+02  0.10566000000E+00 0. -1.
        994    1    1    2    0    0 -0.42097473577E+01  0.92107128547E+01  0.20330704175E+01  0.17151131910E+03  0.17120000000E+03 0.  0.
        998    1    1    2    0    0  0.17949726809E+01  0.34177611549E+01  0.14496675618E+04  0.14497071920E+04  0.10000000000E+02 0. -1.
</event>
<event>
 5    1  0.1129619E-008  0.3844816E+03  0.7957747E-01  0.3431874E+00
         13   -1    0    0    0    0  0.00000000000E+00  0.00000000000E+00  0.14999999963E+04  0.15000000000E+04  0.10566000000E+00 0.  1.
        994   -1    0    0    0    0 -0.00000000000E+00 -0.00000000000E+00  0.11368683772E-12  0.17120000000E+03  0.17120000000E+03 0.  0.
         13    1    1    2    0    0 -0.12843850274E+02  0.37667543912E+01  0.47575249855E+02  0.49422348096E+02  0.10566000000E+00 0.  1.
        994    1    1    2    0    0  0.78355415840E+01  0.11215634680E+01  0.20941335791E+01  0.17139567968E+03  0.17120000000E+03 0.  0.
        998    1    1    2    0    0  0.50083086896E+01 -0.48883178592E+01  0.14503306128E+04  0.14503819722E+04  0.10000000000E+02 0.  1.
</event>
<event>
 5    1  0.1549845E-008  0.3860487E+03  0.7957747E-01  0.3425237E+00
         13   -1    0    0    0    0  0.00000000000E+00  0.00000000000E+00  0.14999999963E+04  0.15000000000E+04  0.10566000000E+00 0.  1.
        994   -1    0    0    0    0 -0.00000000000E+00 -0.00000000000E+00  0.11368683772E-12  0.17120000000E+03  0.17120000000E+03 0.  0.
         13    1    1    2    0    0 -0.92908306926E+01 -0.73463620006E+01  0.63946107268E+02  0.65033870932E+02  0.10566000000E+00 0.  1.
        994    1    1    2    0    0  0.51899891042E+01  0.62379420946E+01  0.13262340458E+01  0.17139733605E+03  0.17120000000E+03 0.  0.
        998    1    1    2    0    0  0.41008415884E+01  0.11084199059E+01  0.14347276550E+04  0.14347687930E+04  0.10000000000E+02 0.  1.
</event>
<event>
 5    1  0.1129619E-008  0.3829047E+03  0.7957747E-01  0.3438607E+00
         13   -1    0    0    0    0  0.00000000000E+00  0.00000000000E+00  0.14999999963E+04  0.15000000000E+04  0.10566000000E+00 0.  1.
        994   -1    0    0    0    0 -0.00000000000E+00 -0.00000000000E+00  0.11368683772E-12  0.17120000000E+03  0.17120000000E+03 0.  0.
         13    1    1    2    0    0  0.20448585763E+02 -0.10560574751E+02  0.10018746275E+03  0.10279693212E+03  0.10566000000E+00 0.  1.
        994    1    1    2    0    0 -0.11014533812E+02  0.30350962274E+01  0.31063148964E+01  0.17160891864E+03  0.17120000000E+03 0.  0.
        998    1    1    2    0    0 -0.94340519513E+01  0.75254785235E+01  0.13967062186E+04  0.13967941492E+04  0.10000000000E+02 0.  1.
</event>
<event>
 5    1  0.1129619E-008  0.3738610E+03  0.7957747E-01  0.3478332E+00
         13   -1    0    0    0    0  0.00000000000E+00  0.00000000000E+00  0.14999999963E+04  0.15000000000E+04  0.10566000000E+00 0.  1.
        994   -1    0    0    0    0 -0.00000000000E+00 -0.00000000000E+00  0.11368683772E-12  0.17120000000E+03  0.17120000000E+03 0.  0.
         13    1    1    2    0    0  0.37756130707E+02  0.62787915171E+02  0.41499818158E+03  0.42141588672E+03  0.10566000000E+00 0.  1.
        994    1    1    2    0    0  0.14858530417E+02 -0.45105247629E+02  0.14999745957E+02  0.17829663953E+03  0.17120000000E+03 0.  0.
        998    1    1    2    0    0 -0.52614661124E+02 -0.17682667541E+02  0.10700020687E+04  0.10714874738E+04  0.10000000000E+02 0.  1.
</event>
<event>
 5    1  0.1129619E-008  0.3837178E+03  0.7957747E-01  0.3435128E+00
         13   -1    0    0    0    0  0.00000000000E+00  0.00000000000E+00  0.14999999963E+04  0.15000000000E+04  0.10566000000E+00 0.  1.
        994   -1    0    0    0    0 -0.00000000000E+00 -0.00000000000E+00  0.11368683772E-12  0.17120000000E+03  0.17120000000E+03 0.  0.
         13    1    1    2    0    0 -0.65981468003E+01 -0.17516391656E+02  0.80976979406E+02  0.83112224585E+02  0.10566000000E+00 0.  1.
        994    1    1    2    0    0  0.95318729515E+01 -0.15411461842E+00  0.25682413394E+01  0.17148444891E+03  0.17120000000E+03 0.  0.
        998    1    1    2    0    0 -0.29337261512E+01  0.17670506274E+02  0.14164547755E+04  0.14166033265E+04  0.10000000000E+02 0.  1.
</event>
<event>
 5    1  0.1129619E-008  0.3756166E+03  0.7957747E-01  0.3470470E+00
         13   -1    0    0    0    0  0.00000000000E+00  0.00000000000E+00  0.14999999963E+04  0.15000000000E+04  0.10566000000E+00 0. -1.
        994   -1    0    0    0    0 -0.00000000000E+00 -0.00000000000E+00  0.11368683772E-12  0.17120000000E+03  0.17120000000E+03 0.  0.
         13    1    1    2    0    0  0.16730978914E+02  0.12219089686E+02  0.30214092963E+02  0.36635152324E+02  0.10566000000E+00 0. -1.
        994    1    1    2    0    0 -0.19399511877E+02 -0.15803591789E+02  0.84891221362E+01  0.17322701801E+03  0.17120000000E+03 0.  0.
        998    1    1    2    0    0  0.26685329635E+01  0.35845021029E+01  0.14612967812E+04  0.14613378297E+04  0.10000000000E+02 0. -1.
</event>
<event>
 5    1  0.1129619E-008  0.3855911E+03  0.7957747E-01  0.3427169E+00
         13   -1    0    0    0    0  0.00000000000E+00  0.00000000000E+00  0.14999999963E+04  0.15000000000E+04  0.10566000000E+00 0. -1.
        994   -1    0    0    0    0 -0.00000000000E+00 -0.00000000000E+00  0.11368683772E-12  0.17120000000E+03  0.17120000000E+03 0.  0.
         13    1    1    2    0    0 -0.66734685142E+01 -0.10258158809E+02  0.57245257289E+02  0.58538838819E+02  0.10566000000E+00 0. -1.
        994    1    1    2    0    0  0.17198792334E+02 -0.39068698731E+01  0.23586284214E+01  0.17212223917E+03  0.17120000000E+03 0.  0.
        998    1    1    2    0    0 -0.10525323820E+02  0.14165028682E+02  0.14403961106E+04  0.14405389220E+04  0.10000000000E+02 0. -1.
</event>
<event>
 5    1  0.1129619E-008  0.3787545E+03  0.7957747E-01  0.3456600E+00
         13   -1    0    0    0    0  0.00000000000E+00  0.00000000000E+00  0.14999999963E+04  0.15000000000E+04  0.10566000000E+00 0. -1.
        994   -1    0    0    0    0 -0.00000000000E+00 -0.00000000000E+00  0.11368683772E-12  0.17120000000E+03  0.17120000000E+03 0.  0.
         13    1    1    2    0    0 -0.14043147438E+02  0.31380378304E+02  0.13036022356E+03  0.13481742166E+03  0.10566000000E+00 0. -1.
        994    1    1    2    0    0  0.11282301180E+02 -0.51007774047E+01  0.52779846692E+01  0.17172828938E+03  0.17120000000E+03 0.  0.
        998    1    1    2    0    0  0.27608462581E+01 -0.26279600899E+02  0.13643617881E+04  0.13646542890E+04  0.10000000000E+02 0. -1.
</event>
<event>
 5    1  0.1129619E-008  0.3716491E+03  0.7957747E-01  0.3488346E+00
         13   -1    0    0    0    0  0.00000000000E+00  0.00000000000E+00  0.14999999963E+04  0.15000000000E+04  0.10566000000E+00 0.  1.
        994   -1    0    0    0    0 -0.00000000000E+00 -0.00000000000E+00  0.11368683772E-12  0.17120000000E+03  0.17120000000E+03 0.  0.
         13    1    1    2    0    0  0.31220878232E+02 -0.20635846351E+02  0.76272876965E+02  0.84959662880E+02  0.10566000000E+00 0.  1.
        994    1    1    2    0    0 -0.28605248395E+02  0.26243980132E+02  0.13608648851E+02  0.17607283167E+03  0.17120000000E+03 0.  0.
        998    1    1    2    0    0 -0.26156298370E+01 -0.56081337805E+01  0.14101184705E+04  0.14101675054E+04  0.10000000000E+02 0.  1.
</event>
<event>
 5    1  0.1129619E-008  0.3712683E+03  0.7957747E-01  0.3490082E+00
         13   -1    0    0    0    0  0.00000000000E+00  0.00000000000E+00  0.14999999963E+04  0.15000000000E+04  0.10566000000E+00 0.  1.
        994   -1    0    0    0    0 -0.00000000000E+00 -0.00000000000E+00  0.11368683772E-12  0.17120000000E+03  0.17120000000E+03 0.  0.
         13    1    1    2    0    0 -0.34590979859E+02 -0.44704592854E+00  0.66876563092E+02  0.75294233462E+02  0.10566000000E+00 0.  1.
        994    1    1    2    0    0  0.19681761229E+02  0.86185888777E+01  0.10198525494E+02  0.17284415443E+03  0.17120000000E+03 0.  0.
        998    1    1    2    0    0  0.14909218630E+02 -0.81715429491E+01  0.14229249077E+04  0.14230616121E+04  0.10000000000E+02 0.  1.
</event>
<event>
 5    1  0.1129619E-008  0.3754792E+03  0.7957747E-01  0.3471083E+00
         13   -1    0    0    0    0  0.00000000000E+00  0.00000000000E+00  0.14999999963E+04  0.15000000000E+04  0.10566000000E+00 0.  1.
        994   -1    0    0    0    0 -0.00000000000E+00 -0.00000000000E+00  0.11368683772E-12  0.17120000000E+03  0.17120000000E+03 0.  0.
         13    1    1    2    0    0 -0.65946262979E+02 -0.51508881095E+02  0.29229873505E+03  0.30404051721E+03  0.10566000000E+00 0.  1.
        994    1    1    2    0    0  0.19060907263E+02  0.88684466728E+01  0.15442732298E+02  0.17317588029E+03  0.17120000000E+03 0.  0.
        998    1    1    2    0    0  0.46885355715E+02  0.42640434422E+02  0.11922585289E+04  0.11939836025E+04  0.10000000000E+02 0.  1.
</event>
<event>
 5    1  0.1129619E-008  0.3834596E+03  0.7957747E-01  0.3436231E+00
         13   -1    0    0    0    0  0.00000000000E+00  0.00000000000E+00  0.14999999963E+04  0.15000000000E+04  0.10566000000E+00 0. -1.
        994   -1    0    0    0    0 -0.00000000000E+00 -0.00000000000E+00  0.11368683772E-12  0.17120000000E+03  0.17120000000E+03 0.  0.
         13    1    1    2    0    0 -0.99911216797E+01  0.13505428151E+02  0.55333540217E+02  0.57827596690E+02  0.10566000000E+00 0. -1.
        994    1    1    2    0    0  0.10187597355E+02 -0.19183496770E+02  0.39577379359E+01  0.17261777828E+03  0.17120000000E+03 0.  0.
        998    1    1    2    0    0 -0.19647567578E+00  0.56780686188E+01  0.14407087181E+04  0.14407546250E+04  0.10000000000E+02 0. -1.
</event>
<event>
 5    1  0.1129619E-008  0.3859252E+03  0.7957747E-01  0.3425758E+00
         13   -1    0    0    0    0  0.00000000000E+00  0.00000000000E+00  0.14999999963E+04  0.15000000000E+04  0.10566000000E+00 0.  1.
        994   -1    0    0    0    0 -0.00000000000E+00 -0.00000000000E+00  0.11368683772E-12  0.17120000000E+03  0.17120000000E+03 0.  0.
         13    1    1    2    0    0  0.78879046485E+01  0.83205023895E+01  0.57640643107E+02  0.58769930250E+02  0.10566000000E+00 0.  1.
        994    1    1    2    0    0  0.57137917937E+01 -0.13106443058E+02  0.18420316616E+01  0.17180587693E+03  0.17120000000E+03 0.  0.
        998    1    1    2    0    0 -0.13601696442E+02  0.47859406685E+01  0.14405173215E+04  0.14406241928E+04  0.10000000000E+02 0.  1.
</event>
<event>
 5    1  0.1129619E-008  0.3795066E+03  0.7957747E-01  0.3453310E+00
         13   -1    0    0    0    0  0.00000000000E+00  0.00000000000E+00  0.14999999963E+04  0.15000000000E+04  0.10566000000E+00 0.  1.
        994   -1    0    0    0    0 -0.00000000000E+00 -0.00000000000E+00  0.11368683772E-12  0.17120000000E+03  0.17120000000E+03 0.  0.
         13    1    1    2    0    0 -0.12724760626E+02 -0.37531611225E+02  0.14418134968E+03  0.14952863985E+03  0.10566000000E+00 0.  1.
        994    1    1    2    0    0 -0.46091072458E+02  0.82777041452E+02  0.35050263139E+02  0.19878225901E+03  0.17120000000E+03 0.  0.
        998    1    1    2    0    0  0.58815833084E+02 -0.45245430227E+02  0.13207683835E+04  0.13228891011E+04  0.10000000000E+02 0.  1.
</event>
<event>
 5    1  0.1129619E-008  0.3827069E+03  0.7957747E-01  0.3439456E+00
         13   -1    0    0    0    0  0.00000000000E+00  0.00000000000E+00  0.14999999963E+04  0.15000000000E+04  0.10566000000E+00 0. -1.
        994   -1    0    0    0    0 -0.00000000000E+00 -0.00000000000E+00  0.11368683772E-12  0.17120000000E+03  0.17120000000E+03 0.  0.
         13    1    1    2    0    0 -0.72650639525E+01 -0.10257734539E+02  0.27167137557E+02  0.29934374875E+02  0.10566000000E+00 0. -1.
        994    1    1    2    0    0  0.57335998237E+01  0.10935991398E+02  0.32782346773E+01  0.17167602307E+03  0.17120000000E+03 0.  0.
        998    1    1    2    0    0  0.15314641288E+01 -0.67825685962E+00  0.14695546240E+04  0.14695896021E+04  0.10000000000E+02 0. -1.
</event>
<event>
 5    1  0.1129619E-008  0.3768424E+03  0.7957747E-01  0.3465024E+00
         13   -1    0    0    0    0  0.00000000000E+00  0.00000000000E+00  0.14999999963E+04  0.15000000000E+04  0.10566000000E+00 0.  1.
        994   -1    0    0    0    0 -0.00000000000E+00 -0.00000000000E+00  0.11368683772E-12  0.17120000000E+03  0.17120000000E+03 0.  0.
         13    1    1    2    0    0 -0.13980168908E+02  0.32492587258E+02  0.10771472023E+03  0.11337409522E+03  0.10566000000E+00 0.  1.
        994    1    1    2    0    0  0.12136303844E+02 -0.16678970048E+02  0.71742975278E+01  0.17258733574E+03  0.17120000000E+03 0.  0.
        998    1    1    2    0    0  0.18438650637E+01 -0.15813617210E+02  0.13851109785E+04  0.13852385690E+04  0.10000000000E+02 0.  1.
</event>
<event>
 5    1  0.1129619E-008  0.3799337E+03  0.7957747E-01  0.3451447E+00
         13   -1    0    0    0    0  0.00000000000E+00  0.00000000000E+00  0.14999999963E+04  0.15000000000E+04  0.10566000000E+00 0.  1.
        994   -1    0    0    0    0 -0.00000000000E+00 -0.00000000000E+00  0.11368683772E-12  0.17120000000E+03  0.17120000000E+03 0.  0.
         13    1    1    2    0    0  0.14496044858E+02 -0.43873247102E+01  0.25633584178E+02  0.29773742400E+02  0.10566000000E+00 0.  1.
        994    1    1    2    0    0 -0.67694161301E+01  0.22825465405E+02  0.60641649816E+01  0.17295386946E+03  0.17120000000E+03 0.  0.
        998    1    1    2    0    0 -0.77266287278E+01 -0.18438140695E+02  0.14683022471E+04  0.14684723881E+04  0.10000000000E+02 0.  1.
</event>
<event>
 5    1  0.1129619E-008  0.3740533E+03  0.7957747E-01  0.3477468E+00
         13   -1    0    0    0    0  0.00000000000E+00  0.00000000000E+00  0.14999999963E+04  0.15000000000E+04  0.10566000000E+00 0. -1.
        994   -1    0    0    0    0 -0.00000000000E+00 -0.00000000000E+00  0.11368683772E-12  0.17120000000E+03  0.17120000000E+03 0.  0.
         13    1    1    2    0    0 -0.23378544543E+02  0.15146940316E+02  0.48349375330E+02  0.55800173877E+02  0.10566000000E+00 0. -1.
        994    1    1    2    0    0  0.32873102041E+02 -0.19089045791E+02  0.12109346976E+02  0.17578711213E+03  0.17120000000E+03 0.  0.
        998    1    1    2    0    0 -0.94945574985E+01  0.39421054754E+01  0.14395412740E+04  0.14396127140E+04  0.10000000000E+02 0. -1.
</event>
<event>
 5    1  0.1129619E-008  0.3779795E+03  0.7957747E-01  0.3460004E+00
         13   -1    0    0    0    0  0.00000000000E+00  0.00000000000E+00  0.14999999963E+04  0.15000000000E+04  0.10566000000E+00 0.  1.
        994   -1    0    0    0    0 -0.00000000000E+00 -0.00000000000E+00  0.11368683772E-12  0.17120000000E+03  0.17120000000E+03 0.  0.
         13    1    1    2    0    0  0.11231682022E+02  0.29865882694E+01  0.10696987360E+02  0.15795793528E+02  0.10566000000E+00 0.  1.
        994    1    1    2    0    0 -0.11255234783E+02 -0.62503805901E+01  0.57145674749E+01  0.17177847318E+03  0.17120000000E+03 0.  0.
        998    1    1    2    0    0  0.23552761045E-01  0.32637923208E+01  0.14835884414E+04  0.14836257333E+04  0.10000000000E+02 0.  1.
</event>
<event>
 5    1  0.1129619E-008  0.3851364E+03  0.7957747E-01  0.3429094E+00
         13   -1    0    0    0    0  0.00000000000E+00  0.00000000000E+00  0.14999999963E+04  0.15000000000E+04  0.10566000000E+00 0.  1.
        994   -1    0    0    0    0 -0.00000000000E+00 -0.00000000000E+00  0.11368683772E-12  0.17120000000E+03  0.17120000000E+03 0.  0.
         13    1    1    2    0    0  0.61977716771E+01 -0.17420061716E+02  0.10352780304E+03  0.10516600254E+03  0.10566000000E+00 0.  1.
        994    1    1    2    0    0 -0.91533027906E+01  0.16686999936E+02  0.27541047253E+01  0.17227670769E+03  0.17120000000E+03 0.  0.
        998    1    1    2    0    0  0.29555311135E+01  0.73306178045E+00  0.13937180885E+04  0.13937572898E+04  0.10000000000E+02 0.  1.
</event>
<event>
 5    1  0.1129619E-008  0.3792063E+03  0.7957747E-01  0.3454622E+00
         13   -1    0    0    0    0  0.00000000000E+00  0.00000000000E+00  0.14999999963E+04  0.15000000000E+04  0.10566000000E+00 0.  1.
        994   -1    0    0    0    0 -0.00000000000E+00 -0.00000000000E+00  0.11368683772E-12  0.17120000000E+03  0.17120000000E+03 0.  0.
         13    1    1    2    0    0 -0.27464855955E+01  0.14575064521E+02  0.23014529411E+02  0.27379835956E+02  0.10566000000E+00 0.  1.
        994    1    1    2    0    0 -0.64965796259E+01 -0.11748312671E+01  0.46804200135E+01  0.17139116695E+03  0.17120000000E+03 0.  0.
        998    1    1    2    0    0  0.92430652214E+01 -0.13400233254E+02  0.14723050469E+04  0.14724289971E+04  0.10000000000E+02 0.  1.
</event>
<event>
 5    1  0.1129619E-008  0.3763980E+03  0.7957747E-01  0.3466994E+00
         13   -1    0    0    0    0  0.00000000000E+00  0.00000000000E+00  0.14999999963E+04  0.15000000000E+04  0.10566000000E+00 0. -1.
        994   -1    0    0    0    0 -0.00000000000E+00 -0.00000000000E+00  0.11368683772E-12  0.17120000000E+03  0.17120000000E+03 0.  0.
         13    1    1    2    0    0  0.98636638754E+01 -0.18214550924E+02  0.31824585601E+02  0.37972057399E+02  0.10566000000E+00 0. -1.
        994    1    1    2    0    0 -0.15093280870E+02  0.29070714381E+02  0.96010913897E+01  0.17456956928E+03  0.17120000000E+03 0.  0.
        998    1    1    2    0    0  0.52296169951E+01 -0.10856163457E+02  0.14585743193E+04  0.14586583733E+04  0.10000000000E+02 0. -1.
</event>
<event>
 5    1  0.1129619E-008  0.3803386E+03  0.7957747E-01  0.3449686E+00
         13   -1    0    0    0    0  0.00000000000E+00  0.00000000000E+00  0.14999999963E+04  0.15000000000E+04  0.10566000000E+00 0. -1.
        994   -1    0    0    0    0 -0.00000000000E+00 -0.00000000000E+00  0.11368683772E-12  0.17120000000E+03  0.17120000000E+03 0.  0.
         13    1    1    2    0    0  0.22273441610E+02 -0.59018028933E+02  0.32587499149E+03  0.33192432147E+03  0.10566000000E+00 0. -1.
        994    1    1    2    0    0 -0.14137920565E+02  0.82811348239E+02  0.27900321688E+02  0.19273159613E+03  0.17120000000E+03 0.  0.
        998    1    1    2    0    0 -0.81355210448E+01 -0.23793319306E+02  0.11462246831E+04  0.11465440824E+04  0.10000000000E+02 0. -1.
</event>
<event>
 5    1  0.1129619E-008  0.3753083E+03  0.7957747E-01  0.3471845E+00
         13   -1    0    0    0    0  0.00000000000E+00  0.00000000000E+00  0.14999999963E+04  0.15000000000E+04  0.10566000000E+00 0.  1.
        994   -1    0    0    0    0 -0.00000000000E+00 -0.00000000000E+00  0.11368683772E-12  0.17120000000E+03  0.17120000000E+03 0.  0.
         13    1    1    2    0    0  0.14321427470E+02  0.26700472644E+02  0.66022834361E+02  0.72643267721E+02  0.10566000000E+00 0.  1.
        994    1    1    2    0    0 -0.98890382326E+01 -0.25817079191E+02  0.91202038961E+01  0.17365751574E+03  0.17120000000E+03 0.  0.
        998    1    1    2    0    0 -0.44323892373E+01 -0.88339345298E+00  0.14248569580E+04  0.14248992165E+04  0.10000000000E+02 0.  1.
</event>
<event>
 5    1  0.1129619E-008  0.3849093E+03  0.7957747E-01  0.3430057E+00
         13   -1    0    0    0    0  0.00000000000E+00  0.00000000000E+00  0.14999999963E+04  0.15000000000E+04  0.10566000000E+00 0. -1.
        994   -1    0    0    0    0 -0.00000000000E+00 -0.00000000000E+00  0.11368683772E-12  0.17120000000E+03  0.17120000000E+03 0.  0.
         13    1    1    2    0    0 -0.18327067197E+02 -0.62269550111E+00  0.99611299961E+02  0.10128519826E+03  0.10566000000E+00 0. -1.
        994    1    1    2    0    0  0.12599952364E+02  0.26505228081E+01  0.22207164278E+01  0.17169786152E+03  0.17120000000E+03 0.  0.
        998    1    1    2    0    0  0.57271148331E+01 -0.20278273069E+01  0.13981679799E+04  0.13982169402E+04  0.10000000000E+02 0. -1.
</event>
<event>
 5    1  0.1129619E-008  0.3845320E+03  0.7957747E-01  0.3431659E+00
         13   -1    0    0    0    0  0.00000000000E+00  0.00000000000E+00  0.14999999963E+04  0.15000000000E+04  0.10566000000E+00 0.  1.
        994   -1    0    0    0    0 -0.00000000000E+00 -0.00000000000E+00  0.11368683772E-12  0.17120000000E+03  0.17120000000E+03 0.  0.
         13    1    1    2    0    0  0.20284686207E+01  0.13081435265E+02  0.46608228862E+02  0.48451798679E+02  0.10566000000E+00 0.  1.
        994    1    1    2    0    0 -0.37357949402E+01 -0.90208511049E+01  0.21767161027E+01  0.17149201151E+03  0.17120000000E+03 0.  0.
        998    1    1    2    0    0  0.17073263195E+01 -0.40605841603E+01  0.14512150513E+04  0.14512561898E+04  0.10000000000E+02 0.  1.
</event>
<event>
 5    1  0.1129619E-008  0.3694142E+03  0.7957747E-01  0.3498587E+00
         13   -1    0    0    0    0  0.00000000000E+00  0.00000000000E+00  0.14999999963E+04  0.15000000000E+04  0.10566000000E+00 0.  1.
        994   -1    0    0    0    0 -0.00000000000E+00 -0.00000000000E+00  0.11368683772E-12  0.17120000000E+03  0.17120000000E+03 0.  0.
         13    1    1    2    0    0  0.10277276721E+02 -0.91970938085E+01  0.56552485159E+01  0.14906439921E+02  0.10566000000E+00 0.  1.
        994    1    1    2    0    0  0.64577958596E+01  0.13192292150E+02  0.10323368019E+02  0.17213875690E+03  0.17120000000E+03 0.  0.
        998    1    1    2    0    0 -0.16735072580E+02 -0.39951983419E+01  0.14840213797E+04  0.14841548032E+04  0.10000000000E+02 0.  1.
</event>
<event>
 5    1  0.1129619E-008  0.3779908E+03  0.7957747E-01  0.3459954E+00
         13   -1    0    0    0    0  0.00000000000E+00  0.00000000000E+00  0.14999999963E+04  0.15000000000E+04  0.10566000000E+00 0.  1.
        994   -1    0    0    0    0 -0.00000000000E+00 -0.00000000000E+00  0.11368683772E-12  0.17120000000E+03  0.17120000000E+03 0.  0.
         13    1    1    2    0    0  0.26301565276E+01 -0.23335323940E+02  0.11791839660E+02  0.26277627620E+02  0.10566000000E+00 0.  1.
        994    1    1    2    0    0  0.52649881756E+01  0.10119476458E+02  0.15696281491E+02  0.17229607412E+03  0.17120000000E+03 0.  0.
        998    1    1    2    0    0 -0.78951447032E+01  0.13215847482E+02  0.14725118751E+04  0.14726262983E+04  0.10000000000E+02 0.  1.
</event>
<event>
 5    1  0.1129619E-008  0.3753046E+03  0.7957747E-01  0.3471862E+00
         13   -1    0    0    0    0  0.00000000000E+00  0.00000000000E+00  0.14999999963E+04  0.15000000000E+04  0.10566000000E+00 0.  1.
        994   -1    0    0    0    0 -0.00000000000E+00 -0.00000000000E+00  0.11368683772E-12  0.17120000000E+03  0.17120000000E+03 0.  0.
         13    1    1    2    0    0 -0.14360425354E+02 -0.92226398332E+01  0.19327436373E+02  0.25784488799E+02  0.10566000000E+00 0.  1.
        994    1    1    2    0    0  0.12972230494E+02  0.10039227828E+02  0.74365968476E+01  0.17214472932E+03  0.17120000000E+03 0.  0.
        998    1    1    2    0    0  0.13881948598E+01 -0.81658799435E+00  0.14732359631E+04  0.14732707819E+04  0.10000000000E+02 0.  1.
</event>
<event>
 5    1  0.1129619E-008  0.3837878E+03  0.7957747E-01  0.3434829E+00
         13   -1    0    0    0    0  0.00000000000E+00  0.00000000000E+00  0.14999999963E+04  0.15000000000E+04  0.10566000000E+00 0.  1.
        994   -1    0    0    0    0 -0.00000000000E+00 -0.00000000000E+00  0.11368683772E-12  0.17120000000E+03  0.17120000000E+03 0.  0.
         13    1    1    2    0    0 -0.15429000944E+02  0.32020778332E+01  0.53492849414E+02  0.55765611941E+02  0.10566000000E+00 0.  1.
        994    1    1    2    0    0  0.16448015821E+02 -0.52673253697E+00  0.31277890314E+01  0.17201755066E+03  0.17120000000E+03 0.  0.
        998    1    1    2    0    0 -0.10190148763E+01 -0.26753452962E+01  0.14433793578E+04  0.14434168374E+04  0.10000000000E+02 0.  1.
</event>
<event>
 5    1  0.1129619E-008  0.3857376E+03  0.7957747E-01  0.3426550E+00
         13   -1    0    0    0    0  0.00000000000E+00  0.00000000000E+00  0.14999999963E+04  0.15000000000E+04  0.10566000000E+00 0. -1.
        994   -1    0    0    0    0 -0.00000000000E+00 -0.00000000000E+00  0.11368683772E-12  0.17120000000E+03  0.17120000000E+03 0.  0.
         13    1    1    2    0    0 -0.55998331230E-01  0.15985980738E+02  0.94786049246E+02  0.96124715925E+02  0.10566000000E+00 0. -1.
        994    1    1    2    0    0 -0.16237448894E+01 -0.18672930283E+02  0.24178357534E+01  0.17223995124E+03  0.17120000000E+03 0.  0.
        998    1    1    2    0    0  0.16797432206E+01  0.26869495451E+01  0.14027961113E+04  0.14028353328E+04  0.10000000000E+02 0. -1.
</event>
<event>
 5    1  0.1129619E-008  0.3796762E+03  0.7957747E-01  0.3452569E+00
         13   -1    0    0    0    0  0.00000000000E+00  0.00000000000E+00  0.14999999963E+04  0.15000000000E+04  0.10566000000E+00 0. -1.
        994   -1    0    0    0    0 -0.00000000000E+00 -0.00000000000E+00  0.11368683772E-12  0.17120000000E+03  0.17120000000E+03 0.  0.
         13    1    1    2    0    0 -0.20329841473E+02 -0.10308835217E+01  0.45879577756E+02  0.50192748423E+02  0.10566000000E+00 0. -1.
        994    1    1    2    0    0  0.17525790769E+02  0.37325373647E+01  0.53719075691E+01  0.17221899596E+03  0.17120000000E+03 0.  0.
        998    1    1    2    0    0  0.28040507045E+01 -0.27016538430E+01  0.14487485110E+04  0.14487882556E+04  0.10000000000E+02 0. -1.
</event>
<event>
 5    1  0.1129619E-008  0.3821101E+03  0.7957747E-01  0.3442022E+00
         13   -1    0    0    0    0  0.00000000000E+00  0.00000000000E+00  0.14999999963E+04  0.15000000000E+04  0.10566000000E+00 0. -1.
        994   -1    0    0    0    0 -0.00000000000E+00 -0.00000000000E+00  0.11368683772E-12  0.17120000000E+03  0.17120000000E+03 0.  0.
         13    1    1    2    0    0 -0.14831282247E+01  0.12524996749E+02  0.24684930211E+02  0.27720608876E+02  0.10566000000E+00 0. -1.
        994    1    1    2    0    0  0.35347966072E+01 -0.89183677051E+01  0.33773237020E+01  0.17150183202E+03  0.17120000000E+03 0.  0.
        998    1    1    2    0    0 -0.20516683825E+01 -0.36066290440E+01  0.14719377424E+04  0.14719775591E+04  0.10000000000E+02 0. -1.
</event>
<event>
 5    1  0.1129619E-008  0.3843324E+03  0.7957747E-01  0.3432508E+00
         13   -1    0    0    0    0  0.00000000000E+00  0.00000000000E+00  0.14999999963E+04  0.15000000000E+04  0.10566000000E+00 0. -1.
        994   -1    0    0    0    0 -0.00000000000E+00 -0.00000000000E+00  0.11368683772E-12  0.17120000000E+03  0.17120000000E+03 0.  0.
         13    1    1    2    0    0 -0.10894747524E+02 -0.43732736453E+01  0.34008100001E+02  0.35977535709E+02  0.10566000000E+00 0. -1.
        994    1    1    2    0    0  0.92272754001E+01  0.10733377958E+02  0.26225190925E+01  0.17180414902E+03  0.17120000000E+03 0.  0.
        998    1    1    2    0    0  0.16674721241E+01 -0.63601043128E+01  0.14633693772E+04  0.14634183153E+04  0.10000000000E+02 0. -1.
</event>
<event>
 5    1  0.1129619E-008  0.3808043E+03  0.7957747E-01  0.3447664E+00
         13   -1    0    0    0    0  0.00000000000E+00  0.00000000000E+00  0.14999999963E+04  0.15000000000E+04  0.10566000000E+00 0. -1.
        994   -1    0    0    0    0 -0.00000000000E+00 -0.00000000000E+00  0.11368683772E-12  0.17120000000E+03  0.17120000000E+03 0.  0.
         13    1    1    2    0    0 -0.10488640390E+02  0.14353075815E+02  0.38231059308E+02  0.42162156283E+02  0.10566000000E+00 0. -1.
        994    1    1    2    0    0  0.19454274947E+02 -0.25149881226E+02  0.71056935356E+01  0.17427253432E+03  0.17120000000E+03 0.  0.
        998    1    1    2    0    0 -0.89656345570E+01  0.10796805411E+02  0.14546632434E+04  0.14547653094E+04  0.10000000000E+02 0. -1.
</event>
<event>
 5    1  0.1129619E-008  0.3821330E+03  0.7957747E-01  0.3441923E+00
         13   -1    0    0    0    0  0.00000000000E+00  0.00000000000E+00  0.14999999963E+04  0.15000000000E+04  0.10566000000E+00 0. -1.
        994   -1    0    0    0    0 -0.00000000000E+00 -0.00000000000E+00  0.11368683772E-12  0.17120000000E+03  0.17120000000E+03 0.  0.
         13    1    1    2    0    0 -0.11467775686E+01 -0.10063533641E+02  0.15292913961E+02  0.18343232800E+02  0.10566000000E+00 0. -1.
        994    1    1    2    0    0  0.52613122833E+00  0.12503830068E+02  0.35803644113E+01  0.17169415130E+03  0.17120000000E+03 0.  0.
        998    1    1    2    0    0  0.62064634025E+00 -0.24402964276E+01  0.14811267179E+04  0.14811626159E+04  0.10000000000E+02 0. -1.
</event>
<event>
 5    1  0.1129619E-008  0.3787833E+03  0.7957747E-01  0.3456474E+00
         13   -1    0    0    0    0  0.00000000000E+00  0.00000000000E+00  0.14999999963E+04  0.15000000000E+04  0.10566000000E+00 0. -1.
        994   -1    0    0    0    0 -0.00000000000E+00 -0.00000000000E+00  0.11368683772E-12  0.17120000000E+03  0.17120000000E+03 0.  0.
         13    1    1    2    0    0  0.16049737179E+02 -0.84396930495E+01  0.35597671399E+02  0.39950317338E+02  0.10566000000E+00 0. -1.
        994    1    1    2    0    0 -0.14584341071E+01 -0.34594087927E+02  0.87830495038E+01  0.17488699182E+03  0.17120000000E+03 0.  0.
        998    1    1    2    0    0 -0.14591303072E+02  0.43033780976E+02  0.14556192754E+04  0.14563626908E+04  0.10000000000E+02 0. -1.
</event>
<event>
 5    1  0.1129619E-008  0.3815524E+03  0.7957747E-01  0.3444427E+00
         13   -1    0    0    0    0  0.00000000000E+00  0.00000000000E+00  0.14999999963E+04  0.15000000000E+04  0.10566000000E+00 0. -1.
        994   -1    0    0    0    0 -0.00000000000E+00 -0.00000000000E+00  0.11368683772E-12  0.17120000000E+03  0.17120000000E+03 0.  0.
         13    1    1    2    0    0 -0.13881287959E+02 -0.35279802028E+01  0.28851783149E+02  0.32211385481E+02  0.10566000000E+00 0. -1.
        994    1    1    2    0    0  0.15063801965E+02  0.95797647633E+00  0.41096569547E+01  0.17191324885E+03  0.17120000000E+03 0.  0.
        998    1    1    2    0    0 -0.11825140060E+01  0.25700037265E+01  0.14670385562E+04  0.14670753657E+04  0.10000000000E+02 0. -1.
</event>
<event>
 5    1  0.1129619E-008  0.3755756E+03  0.7957747E-01  0.3470653E+00
         13   -1    0    0    0    0  0.00000000000E+00  0.00000000000E+00  0.14999999963E+04  0.15000000000E+04  0.10566000000E+00 0. -1.
        994   -1    0    0    0    0 -0.00000000000E+00 -0.00000000000E+00  0.11368683772E-12  0.17120000000E+03  0.17120000000E+03 0.  0.
         13    1    1    2    0    0 -0.15112525396E+02  0.30038280513E+02  0.32094853199E+02  0.46484163819E+02  0.10566000000E+00 0. -1.
        994    1    1    2    0    0  0.49383885525E+01 -0.63460505766E+02  0.28509703752E+02  0.18486175019E+03  0.17120000000E+03 0.  0.
        998    1    1    2    0    0  0.10174136843E+02  0.33422225253E+02  0.14393954393E+04  0.14398540860E+04  0.10000000000E+02 0. -1.
</event>
<event>
 5    1  0.1129619E-008  0.3795508E+03  0.7957747E-01  0.3453117E+00
         13   -1    0    0    0    0  0.00000000000E+00  0.00000000000E+00  0.14999999963E+04  0.15000000000E+04  0.10566000000E+00 0.  1.
        994   -1    0    0    0    0 -0.00000000000E+00 -0.00000000000E+00  0.11368683772E-12  0.17120000000E+03  0.17120000000E+03 0.  0.
         13    1    1    2    0    0  0.13864814969E+02  0.26158256356E+02  0.92898232012E+02  0.97501693035E+02  0.10566000000E+00 0.  1.
        994    1    1    2    0    0 -0.12919432679E+02 -0.28520651609E+02  0.76490986702E+01  0.17420760035E+03  0.17120000000E+03 0.  0.
        998    1    1    2    0    0 -0.94538229062E+00  0.23623952530E+01  0.13994526656E+04  0.13994907066E+04  0.10000000000E+02 0.  1.
</event>
<event>
 5    1  0.1129619E-008  0.3757720E+03  0.7957747E-01  0.3469777E+00
         13   -1    0    0    0    0  0.00000000000E+00  0.00000000000E+00  0.14999999963E+04  0.15000000000E+04  0.10566000000E+00 0. -1.
        994   -1    0    0    0    0 -0.00000000000E+00 -0.00000000000E+00  0.11368683772E-12  0.17120000000E+03  0.17120000000E+03 0.  0.
         13    1    1    2    0    0  0.45495135088E+02  0.72957709417E+02  0.43587532844E+03  0.44427463104E+03  0.10566000000E+00 0. -1.
        994    1    1    2    0    0 -0.28865420765E+02 -0.77714027654E+02  0.29951986569E+02  0.19255971570E+03  0.17120000000E+03 0.  0.
        998    1    1    2    0    0 -0.16629714323E+02  0.47563182367E+01  0.10341726813E+04  0.10343656533E+04  0.10000000000E+02 0. -1.
</event>
<event>
 5    1  0.1129619E-008  0.3741301E+03  0.7957747E-01  0.3477123E+00
         13   -1    0    0    0    0  0.00000000000E+00  0.00000000000E+00  0.14999999963E+04  0.15000000000E+04  0.10566000000E+00 0. -1.
        994   -1    0    0    0    0 -0.00000000000E+00 -0.00000000000E+00  0.11368683772E-12  0.17120000000E+03  0.17120000000E+03 0.  0.
         13    1    1    2    0    0 -0.17482286575E+02 -0.79896863526E+01  0.23272549190E+02  0.30184236643E+02  0.10566000000E+00 0. -1.
        994    1    1    2    0    0  0.10477085483E+02 -0.59618543708E+01  0.76216852915E+01  0.17179302406E+03  0.17120000000E+03 0.  0.
        998    1    1    2    0    0  0.70052010923E+01  0.13951540723E+02  0.14691057618E+04  0.14692227393E+04  0.10000000000E+02 0. -1.
</event>
<event>
 5    1  0.1129619E-008  0.3841423E+03  0.7957747E-01  0.3433318E+00
         13   -1    0    0    0    0  0.00000000000E+00  0.00000000000E+00  0.14999999963E+04  0.15000000000E+04  0.10566000000E+00 0.  1.
        994   -1    0    0    0    0 -0.00000000000E+00 -0.00000000000E+00  0.11368683772E-12  0.17120000000E+03  0.17120000000E+03 0.  0.
         13    1    1    2    0    0 -0.84919623974E+01  0.87497970952E+01  0.35854108697E+02  0.37870841674E+02  0.10566000000E+00 0.  1.
        994    1    1    2    0    0  0.10701060207E+02  0.69080620219E+00  0.24358909420E+01  0.17155280081E+03  0.17120000000E+03 0.  0.
        998    1    1    2    0    0 -0.22090978092E+01 -0.94406032974E+01  0.14617099966E+04  0.14617763575E+04  0.10000000000E+02 0.  1.
</event>
<event>
 5    1  0.1129619E-008  0.3778981E+03  0.7957747E-01  0.3460362E+00
         13   -1    0    0    0    0  0.00000000000E+00  0.00000000000E+00  0.14999999963E+04  0.15000000000E+04  0.10566000000E+00 0. -1.
        994   -1    0    0    0    0 -0.00000000000E+00 -0.00000000000E+00  0.11368683772E-12  0.17120000000E+03  0.17120000000E+03 0.  0.
         13    1    1    2    0    0 -0.44409469575E+02 -0.43411996806E+02  0.30375181383E+03  0.31003544639E+03  0.10566000000E+00 0. -1.
        994    1    1    2    0    0  0.54739387158E+02  0.29177540529E+02  0.18261910018E+02  0.18300455386E+03  0.17120000000E+03 0.  0.
        998    1    1    2    0    0 -0.10329917583E+02  0.14234456277E+02  0.11779862724E+04  0.11781599997E+04  0.10000000000E+02 0. -1.
</event>
<event>
 5    1  0.1129619E-008  0.3738811E+03  0.7957747E-01  0.3478242E+00
         13   -1    0    0    0    0  0.00000000000E+00  0.00000000000E+00  0.14999999963E+04  0.15000000000E+04  0.10566000000E+00 0.  1.
        994   -1    0    0    0    0 -0.00000000000E+00 -0.00000000000E+00  0.11368683772E-12  0.17120000000E+03  0.17120000000E+03 0.  0.
         13    1    1    2    0    0  0.35288465361E+02 -0.40893564918E+02  0.27018014883E+03  0.27552655666E+03  0.10566000000E+00 0.  1.
        994    1    1    2    0    0 -0.19540320574E+02 -0.30000615665E+02  0.11640799815E+02  0.17529064233E+03  0.17120000000E+03 0.  0.
        998    1    1    2    0    0 -0.15748144786E+02  0.70894180583E+02  0.12181790476E+04  0.12203828010E+04  0.10000000000E+02 0.  1.
</event>
<event>
 5    1  0.1129619E-008  0.3858964E+03  0.7957747E-01  0.3425880E+00
         13   -1    0    0    0    0  0.00000000000E+00  0.00000000000E+00  0.14999999963E+04  0.15000000000E+04  0.10566000000E+00 0. -1.
        994   -1    0    0    0    0 -0.00000000000E+00 -0.00000000000E+00  0.11368683772E-12  0.17120000000E+03  0.17120000000E+03 0.  0.
         13    1    1    2    0    0 -0.77896056257E+01 -0.10391256318E+02  0.68047855720E+02  0.69276099744E+02  0.10566000000E+00 0. -1.
        994    1    1    2    0    0  0.61336902470E+01  0.15242924480E+02  0.20715256701E+01  0.17199912826E+03  0.17120000000E+03 0.  0.
        998    1    1    2    0    0  0.16559153787E+01 -0.48516681617E+01  0.14298806149E+04  0.14299247720E+04  0.10000000000E+02 0. -1.
</event>
<event>
 5    1  0.1129619E-008  0.3830087E+03  0.7957747E-01  0.3438162E+00
         13   -1    0    0    0    0  0.00000000000E+00  0.00000000000E+00  0.14999999963E+04  0.15000000000E+04  0.10566000000E+00 0.  1.
        994   -1    0    0    0    0 -0.00000000000E+00 -0.00000000000E+00  0.11368683772E-12  0.17120000000E+03  0.17120000000E+03 0.  0.
         13    1    1    2    0    0  0.12175015019E+02 -0.88007736791E+01  0.41558845547E+02  0.44190874797E+02  0.10566000000E+00 0.  1.
        994    1    1    2    0    0 -0.10491881004E+02  0.91019018261E+01  0.32608627873E+01  0.17179347313E+03  0.17120000000E+03 0.  0.
        998    1    1    2    0    0 -0.16831340145E+01 -0.30112814698E+00  0.14551802879E+04  0.14552156521E+04  0.10000000000E+02 0.  1.
</event>
<event>
 5    1  0.1129619E-008  0.3816883E+03  0.7957747E-01  0.3443840E+00
         13   -1    0    0    0    0  0.00000000000E+00  0.00000000000E+00  0.14999999963E+04  0.15000000000E+04  0.10566000000E+00 0.  1.
        994   -1    0    0    0    0 -0.00000000000E+00 -0.00000000000E+00  0.11368683772E-12  0.17120000000E+03  0.17120000000E+03 0.  0.
         13    1    1    2    0    0  0.21203736795E+02  0.19783108377E+02  0.12648737365E+03  0.12976916694E+03  0.10566000000E+00 0.  1.
        994    1    1    2    0    0 -0.19113451522E+02 -0.60478114652E+01  0.46205105602E+01  0.17243169422E+03  0.17120000000E+03 0.  0.
        998    1    1    2    0    0 -0.20902852733E+01 -0.13735296911E+02  0.13688921121E+04  0.13689991388E+04  0.10000000000E+02 0.  1.
</event>
<event>
 5    1  0.1129619E-008  0.3778759E+03  0.7957747E-01  0.3460460E+00
         13   -1    0    0    0    0  0.00000000000E+00  0.00000000000E+00  0.14999999963E+04  0.15000000000E+04  0.10566000000E+00 0. -1.
        994   -1    0    0    0    0 -0.00000000000E+00 -0.00000000000E+00  0.11368683772E-12  0.17120000000E+03  0.17120000000E+03 0.  0.
         13    1    1    2    0    0 -0.35086343199E+02 -0.27543417091E+02  0.57578508129E+02  0.72835342153E+02  0.10566000000E+00 0. -1.
        994    1    1    2    0    0  0.40002824977E+02  0.24198222456E+02  0.23066150144E+02  0.17896163628E+03  0.17120000000E+03 0.  0.
        998    1    1    2    0    0 -0.49164817776E+01  0.33451946347E+01  0.14193553380E+04  0.14194030216E+04  0.10000000000E+02 0. -1.
</event>
<event>
 5    1  0.1129619E-008  0.3782083E+03  0.7957747E-01  0.3458997E+00
         13   -1    0    0    0    0  0.00000000000E+00  0.00000000000E+00  0.14999999963E+04  0.15000000000E+04  0.10566000000E+00 0. -1.
        994   -1    0    0    0    0 -0.00000000000E+00 -0.00000000000E+00  0.11368683772E-12  0.17120000000E+03  0.17120000000E+03 0.  0.
         13    1    1    2    0    0 -0.31014125032E+02 -0.90352899847E+00  0.84203271140E+02  0.89737920362E+02  0.10566000000E+00 0. -1.
        994    1    1    2    0    0  0.44393000437E+02 -0.17219034873E+02  0.12702805564E+02  0.17815171882E+03  0.17120000000E+03 0.  0.
        998    1    1    2    0    0 -0.13378875405E+02  0.18122563871E+02  0.14030939196E+04  0.14033103608E+04  0.10000000000E+02 0. -1.
</event>
<event>
 5    1  0.1129619E-008  0.3720724E+03  0.7957747E-01  0.3486420E+00
         13   -1    0    0    0    0  0.00000000000E+00  0.00000000000E+00  0.14999999963E+04  0.15000000000E+04  0.10566000000E+00 0.  1.
        994   -1    0    0    0    0 -0.00000000000E+00 -0.00000000000E+00  0.11368683772E-12  0.17120000000E+03  0.17120000000E+03 0.  0.
         13    1    1    2    0    0  0.31592372620E+02  0.26799879620E+02  0.96926102854E+02  0.10540869098E+03  0.10566000000E+00 0.  1.
        994    1    1    2    0    0 -0.27507385739E+02 -0.27329387688E+02  0.13369352865E+02  0.17604468551E+03  0.17120000000E+03 0.  0.
        998    1    1    2    0    0 -0.40849868810E+01  0.52950806843E+00  0.13897045406E+04  0.13897466235E+04  0.10000000000E+02 0.  1.
</event>
<event>
 5    1  0.1129619E-008  0.3751193E+03  0.7957747E-01  0.3472689E+00
         13   -1    0    0    0    0  0.00000000000E+00  0.00000000000E+00  0.14999999963E+04  0.15000000000E+04  0.10566000000E+00 0.  1.
        994   -1    0    0    0    0 -0.00000000000E+00 -0.00000000000E+00  0.11368683772E-12  0.17120000000E+03  0.17120000000E+03 0.  0.
         13    1    1    2    0    0 -0.10655645375E+02 -0.89190093093E-01  0.55421325636E+01  0.12011541559E+02  0.10566000000E+00 0.  1.
        994    1    1    2    0    0  0.70558711792E+01 -0.87946321607E+01  0.70495636078E+01  0.17171565805E+03  0.17120000000E+03 0.  0.
        998    1    1    2    0    0  0.35997741957E+01  0.88838222538E+01  0.14874083001E+04  0.14874728004E+04  0.10000000000E+02 0.  1.
</event>
<event>
 5    1  0.1129619E-008  0.3838492E+03  0.7957747E-01  0.3434568E+00
         13   -1    0    0    0    0  0.00000000000E+00  0.00000000000E+00  0.14999999963E+04  0.15000000000E+04  0.10566000000E+00 0. -1.
        994   -1    0    0    0    0 -0.00000000000E+00 -0.00000000000E+00  0.11368683772E-12  0.17120000000E+03  0.17120000000E+03 0.  0.
         13    1    1    2    0    0 -0.23587651059E+01  0.17828370265E+02  0.86420301728E+02  0.88271707098E+02  0.10566000000E+00 0. -1.
        994    1    1    2    0    0 -0.20151590121E+02  0.11425773994E+02  0.39759889827E+01  0.17280591247E+03  0.17120000000E+03 0.  0.
        998    1    1    2    0    0  0.22510355227E+02 -0.29254144259E+02  0.14096037056E+04  0.14101223804E+04  0.10000000000E+02 0. -1.
</event>
<event>
 5    1  0.1129619E-008  0.3747876E+03  0.7957747E-01  0.3474173E+00
         13   -1    0    0    0    0  0.00000000000E+00  0.00000000000E+00  0.14999999963E+04  0.15000000000E+04  0.10566000000E+00 0.  1.
        994   -1    0    0    0    0 -0.00000000000E+00 -0.00000000000E+00  0.11368683772E-12  0.17120000000E+03  0.17120000000E+03 0.  0.
         13    1    1    2    0    0 -0.33109913561E+02  0.21319569556E+02  0.10934497658E+03  0.11622015957E+03  0.10566000000E+00 0.  1.
        994    1    1    2    0    0  0.19763512127E+02 -0.23166317922E+02  0.99485640142E+01  0.17417143458E+03  0.17120000000E+03 0.  0.
        998    1    1    2    0    0  0.13346401434E+02  0.18467483664E+01  0.13807064557E+04  0.13808084059E+04  0.10000000000E+02 0.  1.
</event>
<event>
 5    1  0.1129619E-008  0.3826234E+03  0.7957747E-01  0.3439815E+00
         13   -1    0    0    0    0  0.00000000000E+00  0.00000000000E+00  0.14999999963E+04  0.15000000000E+04  0.10566000000E+00 0. -1.
        994   -1    0    0    0    0 -0.00000000000E+00 -0.00000000000E+00  0.11368683772E-12  0.17120000000E+03  0.17120000000E+03 0.  0.
         13    1    1    2    0    0 -0.84853744291E+01  0.23475016333E+02  0.12414832011E+03  0.12663291247E+03  0.10566000000E+00 0. -1.
        994    1    1    2    0    0  0.70561279073E+01  0.49948089003E+01  0.30624160690E+01  0.17144548827E+03  0.17120000000E+03 0.  0.
        998    1    1    2    0    0  0.14292465218E+01 -0.28469825234E+02  0.13727892601E+04  0.13731215993E+04  0.10000000000E+02 0. -1.
</event>
<event>
 5    1  0.1129619E-008  0.3806006E+03  0.7957747E-01  0.3448548E+00
         13   -1    0    0    0    0  0.00000000000E+00  0.00000000000E+00  0.14999999963E+04  0.15000000000E+04  0.10566000000E+00 0.  1.
        994   -1    0    0    0    0 -0.00000000000E+00 -0.00000000000E+00  0.11368683772E-12  0.17120000000E+03  0.17120000000E+03 0.  0.
         13    1    1    2    0    0  0.33997237307E+02 -0.17680213214E+01  0.17127126491E+03  0.17462186402E+03  0.10566000000E+00 0.  1.
        994    1    1    2    0    0 -0.13319178038E+01  0.32996689234E+02  0.74772391734E+01  0.17451620157E+03  0.17120000000E+03 0.  0.
        998    1    1    2    0    0 -0.32665319503E+02 -0.31228667913E+02  0.13212514922E+04  0.13220619344E+04  0.10000000000E+02 0.  1.
</event>
<event>
 5    1  0.1129619E-008  0.3685048E+03  0.7957747E-01  0.3502791E+00
         13   -1    0    0    0    0  0.00000000000E+00  0.00000000000E+00  0.14999999963E+04  0.15000000000E+04  0.10566000000E+00 0. -1.
        994   -1    0    0    0    0 -0.00000000000E+00 -0.00000000000E+00  0.11368683772E-12  0.17120000000E+03  0.17120000000E+03 0.  0.
         13    1    1    2    0    0  0.87222403442E+01  0.44359778890E+02  0.10251550998E+03  0.11204154770E+03  0.10566000000E+00 0. -1.
        994    1    1    2    0    0 -0.35512690176E+01 -0.13371300517E+02  0.10816262883E+02  0.17209832867E+03  0.17120000000E+03 0.  0.
        998    1    1    2    0    0 -0.51709713266E+01 -0.30988478372E+02  0.13866682234E+04  0.13870601236E+04  0.10000000000E+02 0. -1.
</event>
<event>
 5    1  0.1129619E-008  0.3786326E+03  0.7957747E-01  0.3457134E+00
         13   -1    0    0    0    0  0.00000000000E+00  0.00000000000E+00  0.14999999963E+04  0.15000000000E+04  0.10566000000E+00 0.  1.
        994   -1    0    0    0    0 -0.00000000000E+00 -0.00000000000E+00  0.11368683772E-12  0.17120000000E+03  0.17120000000E+03 0.  0.
         13    1    1    2    0    0  0.37330120803E+02  0.16554419737E+02  0.15289486036E+03  0.15825434029E+03  0.10566000000E+00 0.  1.
        994    1    1    2    0    0 -0.41232689225E+02 -0.13401820452E+02  0.11163392545E+02  0.17695707046E+03  0.17120000000E+03 0.  0.
        998    1    1    2    0    0  0.39025684221E+01 -0.31525992852E+01  0.13359417434E+04  0.13359885893E+04  0.10000000000E+02 0.  1.
</event>
<event>
 5    1  0.1129619E-008  0.4460587E+03  0.7957747E-01  0.3205899E+00
         13   -1    0    0    0    0  0.00000000000E+00  0.00000000000E+00  0.14999999963E+04  0.15000000000E+04  0.10566000000E+00 0. -1.
        994   -1    0    0    0    0 -0.00000000000E+00 -0.00000000000E+00  0.11368683772E-12  0.17120000000E+03  0.17120000000E+03 0.  0.
         13    1    1    2    0    0  0.77948260557E+02  0.46682084828E+02  0.52832899171E+02  0.10510221105E+03  0.10566000000E+00 0. -1.
        994    1    1    2    0    0 -0.53300174033E+02 -0.65148371125E+02  0.94236320873E+02  0.21277956430E+03  0.17120000000E+03 0.  0.
        998    1    1    2    0    0 -0.24648086525E+02  0.18466286296E+02  0.13529307762E+04  0.13533182247E+04  0.10000000000E+02 0. -1.
</event>
<event>
 5    1  0.1129619E-008  0.3855349E+03  0.7957747E-01  0.3427407E+00
         13   -1    0    0    0    0  0.00000000000E+00  0.00000000000E+00  0.14999999963E+04  0.15000000000E+04  0.10566000000E+00 0.  1.
        994   -1    0    0    0    0 -0.00000000000E+00 -0.00000000000E+00  0.11368683772E-12  0.17120000000E+03  0.17120000000E+03 0.  0.
         13    1    1    2    0    0 -0.50784685042E+01 -0.13595580553E+02  0.72729074196E+02  0.74163063922E+02  0.10566000000E+00 0.  1.
        994    1    1    2    0    0  0.37374807920E+01  0.18377046305E+02  0.25202258068E+01  0.17224249224E+03  0.17120000000E+03 0.  0.
        998    1    1    2    0    0  0.13409877122E+01 -0.47814657519E+01  0.14247506963E+04  0.14247944438E+04  0.10000000000E+02 0.  1.
</event>
<event>
 5    1  0.1129619E-008  0.3826833E+03  0.7957747E-01  0.3439558E+00
         13   -1    0    0    0    0  0.00000000000E+00  0.00000000000E+00  0.14999999963E+04  0.15000000000E+04  0.10566000000E+00 0.  1.
        994   -1    0    0    0    0 -0.00000000000E+00 -0.00000000000E+00  0.11368683772E-12  0.17120000000E+03  0.17120000000E+03 0.  0.
         13    1    1    2    0    0 -0.19498060811E+02 -0.24779274939E+01  0.78679236036E+02  0.81097150673E+02  0.10566000000E+00 0.  1.
        994    1    1    2    0    0 -0.12422477289E+02  0.35622785117E-01  0.32962471548E+01  0.17168175342E+03  0.17120000000E+03 0.  0.
        998    1    1    2    0    0  0.31920538099E+02  0.24423047088E+01  0.14180245131E+04  0.14184210959E+04  0.10000000000E+02 0.  1.
</event>
<event>
 5    1  0.1129619E-008  0.3803525E+03  0.7957747E-01  0.3449625E+00
         13   -1    0    0    0    0  0.00000000000E+00  0.00000000000E+00  0.14999999963E+04  0.15000000000E+04  0.10566000000E+00 0.  1.
        994   -1    0    0    0    0 -0.00000000000E+00 -0.00000000000E+00  0.11368683772E-12  0.17120000000E+03  0.17120000000E+03 0.  0.
         13    1    1    2    0    0  0.61530355215E+01  0.16032812147E+02  0.35311492129E+02  0.39266061069E+02  0.10566000000E+00 0.  1.
        994    1    1    2    0    0 -0.23428776068E+01 -0.15511859259E+02  0.47775156111E+01  0.17198363733E+03  0.17120000000E+03 0.  0.
        998    1    1    2    0    0 -0.38101579147E+01 -0.52095288810E+00  0.14599109885E+04  0.14599503016E+04  0.10000000000E+02 0.  1.
</event>
<event>
 5    1  0.1129619E-008  0.3819237E+03  0.7957747E-01  0.3442825E+00
         13   -1    0    0    0    0  0.00000000000E+00  0.00000000000E+00  0.14999999963E+04  0.15000000000E+04  0.10566000000E+00 0.  1.
        994   -1    0    0    0    0 -0.00000000000E+00 -0.00000000000E+00  0.11368683772E-12  0.17120000000E+03  0.17120000000E+03 0.  0.
         13    1    1    2    0    0  0.37959317681E+02  0.27247567269E+01  0.22888407866E+03  0.23202643540E+03  0.10566000000E+00 0.  1.
        994    1    1    2    0    0 -0.20671038038E+02 -0.18505036183E+02  0.57263130712E+01  0.17352797711E+03  0.17120000000E+03 0.  0.
        998    1    1    2    0    0 -0.17288279642E+02  0.15780279456E+02  0.12653896046E+04  0.12656455875E+04  0.10000000000E+02 0.  1.
</event>
<event>
 5    1  0.1129619E-008  0.3751578E+03  0.7957747E-01  0.3472517E+00
         13   -1    0    0    0    0  0.00000000000E+00  0.00000000000E+00  0.14999999963E+04  0.15000000000E+04  0.10566000000E+00 0. -1.
        994   -1    0    0    0    0 -0.00000000000E+00 -0.00000000000E+00  0.11368683772E-12  0.17120000000E+03  0.17120000000E+03 0.  0.
         13    1    1    2    0    0 -0.20482400920E+02 -0.59739419301E+01  0.31063104590E+02  0.37684802778E+02  0.10566000000E+00 0. -1.
        994    1    1    2    0    0  0.21691630424E+02  0.82214877957E+01  0.84280754864E+01  0.17296991689E+03  0.17120000000E+03 0.  0.
        998    1    1    2    0    0 -0.12092295039E+01 -0.22475458656E+01  0.14605088162E+04  0.14605452803E+04  0.10000000000E+02 0. -1.
</event>
<event>
 5    1  0.1129619E-008  0.3717360E+03  0.7957747E-01  0.3487950E+00
         13   -1    0    0    0    0  0.00000000000E+00  0.00000000000E+00  0.14999999963E+04  0.15000000000E+04  0.10566000000E+00 0.  1.
        994   -1    0    0    0    0 -0.00000000000E+00 -0.00000000000E+00  0.11368683772E-12  0.17120000000E+03  0.17120000000E+03 0.  0.
         13    1    1    2    0    0  0.48585080576E+02 -0.25617826111E+02  0.16173020311E+03  0.17080237947E+03  0.10566000000E+00 0.  1.
        994    1    1    2    0    0 -0.43207834990E+02  0.29311067258E+02  0.17793008674E+02  0.17986685861E+03  0.17120000000E+03 0.  0.
        998    1    1    2    0    0 -0.53772455862E+01 -0.36932411472E+01  0.13204767845E+04  0.13205307619E+04  0.10000000000E+02 0.  1.
</event>
<event>
 5    1  0.1129619E-008  0.3730505E+03  0.7957747E-01  0.3481988E+00
         13   -1    0    0    0    0  0.00000000000E+00  0.00000000000E+00  0.14999999963E+04  0.15000000000E+04  0.10566000000E+00 0.  1.
        994   -1    0    0    0    0 -0.00000000000E+00 -0.00000000000E+00  0.11368683772E-12  0.17120000000E+03  0.17120000000E+03 0.  0.
         13    1    1    2    0    0 -0.14495266227E+02  0.22359329928E+02  0.22587263184E+02  0.34932048322E+02  0.10566000000E+00 0.  1.
        994    1    1    2    0    0  0.11493902670E+02 -0.25552868432E+02  0.15340129303E+02  0.17415458205E+03  0.17120000000E+03 0.  0.
        998    1    1    2    0    0  0.30013635570E+01  0.31935385044E+01  0.14620726038E+04  0.14621133696E+04  0.10000000000E+02 0.  1.
</event>
<event>
 5    1  0.1129619E-008  0.3844539E+03  0.7957747E-01  0.3431991E+00
         13   -1    0    0    0    0  0.00000000000E+00  0.00000000000E+00  0.14999999963E+04  0.15000000000E+04  0.10566000000E+00 0. -1.
        994   -1    0    0    0    0 -0.00000000000E+00 -0.00000000000E+00  0.11368683772E-12  0.17120000000E+03  0.17120000000E+03 0.  0.
         13    1    1    2    0    0  0.16173035636E+02 -0.28912965909E+01  0.71294117942E+02  0.73162757567E+02  0.10566000000E+00 0. -1.
        994    1    1    2    0    0 -0.85799882648E+01  0.56489776048E+01  0.22492307867E+01  0.17152266960E+03  0.17120000000E+03 0.  0.
        998    1    1    2    0    0 -0.75930473715E+01 -0.27576810139E+01  0.14264566475E+04  0.14265145728E+04  0.10000000000E+02 0. -1.
</event>
<event>
 5    1  0.1129619E-008  0.3836764E+03  0.7957747E-01  0.3435305E+00
         13   -1    0    0    0    0  0.00000000000E+00  0.00000000000E+00  0.14999999963E+04  0.15000000000E+04  0.10566000000E+00 0.  1.
        994   -1    0    0    0    0 -0.00000000000E+00 -0.00000000000E+00  0.11368683772E-12  0.17120000000E+03  0.17120000000E+03 0.  0.
         13    1    1    2    0    0 -0.23148646119E+02  0.59600075392E+01  0.13255270968E+03  0.13469080709E+03  0.10566000000E+00 0.  1.
        994    1    1    2    0    0  0.50025944059E+01 -0.63181537695E+01  0.25032336354E+01  0.17140785045E+03  0.17120000000E+03 0.  0.
        998    1    1    2    0    0  0.18146051713E+02  0.35814623034E+00  0.13649440530E+04  0.13651013425E+04  0.10000000000E+02 0.  1.
</event>
<event>
 5    1  0.1129619E-008  0.3828878E+03  0.7957747E-01  0.3438680E+00
         13   -1    0    0    0    0  0.00000000000E+00  0.00000000000E+00  0.14999999963E+04  0.15000000000E+04  0.10566000000E+00 0. -1.
        994   -1    0    0    0    0 -0.00000000000E+00 -0.00000000000E+00  0.11368683772E-12  0.17120000000E+03  0.17120000000E+03 0.  0.
         13    1    1    2    0    0  0.10648912059E+02  0.32843096991E+02  0.17928274138E+03  0.18257705460E+03  0.10566000000E+00 0. -1.
        994    1    1    2    0    0 -0.16523180463E+02 -0.43019129737E+02  0.97466338564E+01  0.17756153268E+03  0.17120000000E+03 0.  0.
        998    1    1    2    0    0  0.58742684036E+01  0.10176032746E+02  0.13109706210E+04  0.13110614127E+04  0.10000000000E+02 0. -1.
</event>
<event>
 5    1  0.1450542E-008  0.3863234E+03  0.7957747E-01  0.3424079E+00
         13   -1    0    0    0    0  0.00000000000E+00  0.00000000000E+00  0.14999999963E+04  0.15000000000E+04  0.10566000000E+00 0.  1.
        994   -1    0    0    0    0 -0.00000000000E+00 -0.00000000000E+00  0.11368683772E-12  0.17120000000E+03  0.17120000000E+03 0.  0.
         13    1    1    2    0    0  0.77540152304E+01  0.79287020063E+01  0.64755340075E+02  0.65698206215E+02  0.10566000000E+00 0.  1.
        994    1    1    2    0    0 -0.74320914024E+01 -0.17136688781E+01  0.11650031265E+01  0.17137377243E+03  0.17120000000E+03 0.  0.
        998    1    1    2    0    0 -0.32192382801E+00 -0.62150331282E+01  0.14340796531E+04  0.14341280214E+04  0.10000000000E+02 0.  1.
</event>
<event>
 5    1  0.1129619E-008  0.3843420E+03  0.7957747E-01  0.3432467E+00
         13   -1    0    0    0    0  0.00000000000E+00  0.00000000000E+00  0.14999999963E+04  0.15000000000E+04  0.10566000000E+00 0. -1.
        994   -1    0    0    0    0 -0.00000000000E+00 -0.00000000000E+00  0.11368683772E-12  0.17120000000E+03  0.17120000000E+03 0.  0.
         13    1    1    2    0    0 -0.69873273257E+01  0.19925247067E+02  0.10107917907E+03  0.10326107601E+03  0.10566000000E+00 0. -1.
        994    1    1    2    0    0  0.43461503749E+01 -0.29990254988E+02  0.49894589263E+01  0.17393285807E+03  0.17120000000E+03 0.  0.
        998    1    1    2    0    0  0.26411769508E+01  0.10065007921E+02  0.13939313583E+04  0.13940060659E+04  0.10000000000E+02 0. -1.
</event>
<event>
 5    1  0.1129619E-008  0.3848286E+03  0.7957747E-01  0.3430399E+00
         13   -1    0    0    0    0  0.00000000000E+00  0.00000000000E+00  0.14999999963E+04  0.15000000000E+04  0.10566000000E+00 0.  1.
        994   -1    0    0    0    0 -0.00000000000E+00 -0.00000000000E+00  0.11368683772E-12  0.17120000000E+03  0.17120000000E+03 0.  0.
         13    1    1    2    0    0 -0.28789149379E+01  0.18254045075E+02  0.10325429933E+03  0.10489499419E+03  0.10566000000E+00 0.  1.
        994    1    1    2    0    0 -0.19011227680E+01 -0.74481335397E+01  0.19097088497E+01  0.17138312621E+03  0.17120000000E+03 0.  0.
        998    1    1    2    0    0  0.47800377058E+01 -0.10805911535E+02  0.13948359881E+04  0.13949218796E+04  0.10000000000E+02 0.  1.
</event>
<event>
 5    1  0.1129619E-008  0.3788288E+03  0.7957747E-01  0.3456274E+00
         13   -1    0    0    0    0  0.00000000000E+00  0.00000000000E+00  0.14999999963E+04  0.15000000000E+04  0.10566000000E+00 0.  1.
        994   -1    0    0    0    0 -0.00000000000E+00 -0.00000000000E+00  0.11368683772E-12  0.17120000000E+03  0.17120000000E+03 0.  0.
         13    1    1    2    0    0 -0.21341476508E+01 -0.12280948245E+02  0.14471081894E+02  0.19099729088E+02  0.10566000000E+00 0.  1.
        994    1    1    2    0    0  0.63683133373E+01  0.54216374967E+01  0.49602852646E+01  0.17147592833E+03  0.17120000000E+03 0.  0.
        998    1    1    2    0    0 -0.42341656866E+01  0.68593107487E+01  0.14805686291E+04  0.14806243426E+04  0.10000000000E+02 0.  1.
</event>
<event>
 5    1  0.1129619E-008  0.4037378E+03  0.7957747E-01  0.3353893E+00
         13   -1    0    0    0    0  0.00000000000E+00  0.00000000000E+00  0.14999999963E+04  0.15000000000E+04  0.10566000000E+00 0. -1.
        994   -1    0    0    0    0 -0.00000000000E+00 -0.00000000000E+00  0.11368683772E-12  0.17120000000E+03  0.17120000000E+03 0.  0.
         13    1    1    2    0    0 -0.55320748152E+02 -0.29628110595E+02  0.66477853178E+02  0.91419506894E+02  0.10566000000E+00 0. -1.
        994    1    1    2    0    0 -0.32087802250E+02  0.82192758780E+01  0.34405230719E+02  0.17773672510E+03  0.17120000000E+03 0.  0.
        998    1    1    2    0    0  0.87408550402E+02  0.21408834717E+02  0.13991169124E+04  0.14020437680E+04  0.10000000000E+02 0. -1.
</event>
<event>
 5    1  0.1129619E-008  0.3857240E+03  0.7957747E-01  0.3426608E+00
         13   -1    0    0    0    0  0.00000000000E+00  0.00000000000E+00  0.14999999963E+04  0.15000000000E+04  0.10566000000E+00 0. -1.
        994   -1    0    0    0    0 -0.00000000000E+00 -0.00000000000E+00  0.11368683772E-12  0.17120000000E+03  0.17120000000E+03 0.  0.
         13    1    1    2    0    0  0.15205400160E+02  0.11362053301E+01  0.90282934923E+02  0.91561534821E+02  0.10566000000E+00 0. -1.
        994    1    1    2    0    0 -0.12124597816E+02 -0.27826827974E+01  0.17790201103E+01  0.17166057820E+03  0.17120000000E+03 0.  0.
        998    1    1    2    0    0 -0.30808023436E+01  0.16464774673E+01  0.14079380412E+04  0.14079778870E+04  0.10000000000E+02 0. -1.
</event>
<event>
 5    1  0.1129619E-008  0.3839960E+03  0.7957747E-01  0.3433941E+00
         13   -1    0    0    0    0  0.00000000000E+00  0.00000000000E+00  0.14999999963E+04  0.15000000000E+04  0.10566000000E+00 0. -1.
        994   -1    0    0    0    0 -0.00000000000E+00 -0.00000000000E+00  0.11368683772E-12  0.17120000000E+03  0.17120000000E+03 0.  0.
         13    1    1    2    0    0 -0.94137133986E+01  0.59331034135E+01  0.28206122211E+02  0.30321876760E+02  0.10566000000E+00 0. -1.
        994    1    1    2    0    0  0.88851165663E+01 -0.47180119571E+01  0.24633888314E+01  0.17151301180E+03  0.17120000000E+03 0.  0.
        998    1    1    2    0    0  0.52859683229E+00 -0.12150914563E+01  0.14693304852E+04  0.14693651114E+04  0.10000000000E+02 0. -1.
</event>
<event>
 5    1  0.1129619E-008  0.3815988E+03  0.7957747E-01  0.3444226E+00
         13   -1    0    0    0    0  0.00000000000E+00  0.00000000000E+00  0.14999999963E+04  0.15000000000E+04  0.10566000000E+00 0. -1.
        994   -1    0    0    0    0 -0.00000000000E+00 -0.00000000000E+00  0.11368683772E-12  0.17120000000E+03  0.17120000000E+03 0.  0.
         13    1    1    2    0    0 -0.73198997946E+02  0.42987327032E+02  0.46442462530E+03  0.47211889110E+03  0.10566000000E+00 0. -1.
        994    1    1    2    0    0  0.93728879997E+02 -0.80462674001E+02  0.55853330458E+02  0.21837669147E+03  0.17120000000E+03 0.  0.
        998    1    1    2    0    0 -0.20529882051E+02  0.37475346969E+02  0.97972204052E+03  0.98070441744E+03  0.10000000000E+02 0. -1.
</event>
<event>
 5    1  0.1129619E-008  0.3824632E+03  0.7957747E-01  0.3440503E+00
         13   -1    0    0    0    0  0.00000000000E+00  0.00000000000E+00  0.14999999963E+04  0.15000000000E+04  0.10566000000E+00 0. -1.
        994   -1    0    0    0    0 -0.00000000000E+00 -0.00000000000E+00  0.11368683772E-12  0.17120000000E+03  0.17120000000E+03 0.  0.
         13    1    1    2    0    0 -0.22729345992E+02  0.17654041176E+01  0.94270944213E+02  0.96988462757E+02  0.10566000000E+00 0. -1.
        994    1    1    2    0    0  0.66360436776E+01  0.23378057953E+02  0.48556015128E+01  0.17298435633E+03  0.17120000000E+03 0.  0.
        998    1    1    2    0    0  0.16093302315E+02 -0.25143462071E+02  0.14008734506E+04  0.14012271809E+04  0.10000000000E+02 0. -1.
</event>
<event>
 5    1  0.1129619E-008  0.3817061E+03  0.7957747E-01  0.3443763E+00
         13   -1    0    0    0    0  0.00000000000E+00  0.00000000000E+00  0.14999999963E+04  0.15000000000E+04  0.10566000000E+00 0. -1.
        994   -1    0    0    0    0 -0.00000000000E+00 -0.00000000000E+00  0.11368683772E-12  0.17120000000E+03  0.17120000000E+03 0.  0.
         13    1    1    2    0    0  0.31127328269E+02 -0.30613714770E+02  0.26327122697E+03  0.26686674617E+03  0.10566000000E+00 0. -1.
        994    1    1    2    0    0 -0.20710565205E+02  0.29222021041E+02  0.75505451397E+01  0.17506942839E+03  0.17120000000E+03 0.  0.
        998    1    1    2    0    0 -0.10416763064E+02  0.13916937288E+01  0.12291782242E+04  0.12292638254E+04  0.10000000000E+02 0. -1.
</event>
<event>
 5    1  0.1129619E-008  0.3786244E+03  0.7957747E-01  0.3457170E+00
         13   -1    0    0    0    0  0.00000000000E+00  0.00000000000E+00  0.14999999963E+04  0.15000000000E+04  0.10566000000E+00 0.  1.
        994   -1    0    0    0    0 -0.00000000000E+00 -0.00000000000E+00  0.11368683772E-12  0.17120000000E+03  0.17120000000E+03 0.  0.
         13    1    1    2    0    0 -0.45709340709E+02 -0.18768313596E+02  0.24582941682E+03  0.25074629960E+03  0.10566000000E+00 0.  1.
        994    1    1    2    0    0  0.31002291592E+02  0.63053881180E+01  0.81976654472E+01  0.17429154231E+03  0.17120000000E+03 0.  0.
        998    1    1    2    0    0  0.14707049117E+02  0.12462925478E+02  0.12459729140E+04  0.12461621581E+04  0.10000000000E+02 0.  1.
</event>
<event>
 5    1  0.1129619E-008  0.2159753E+03  0.7957747E-01  0.4769799E+00
         13   -1    0    0    0    0  0.00000000000E+00  0.00000000000E+00  0.14999999963E+04  0.15000000000E+04  0.10566000000E+00 0. -1.
        994   -1    0    0    0    0 -0.00000000000E+00 -0.00000000000E+00  0.11368683772E-12  0.17120000000E+03  0.17120000000E+03 0.  0.
         13    1    1    2    0    0  0.27429414176E+02  0.18509286433E+03  0.26670065756E+03  0.32579286839E+03  0.10566000000E+00 0. -1.
        994    1    1    2    0    0 -0.25237678380E+02 -0.55432350599E+02  0.10546909413E+03  0.21010201265E+03  0.17120000000E+03 0.  0.
        998    1    1    2    0    0 -0.21917357958E+01 -0.12966051373E+03  0.11278302446E+04  0.11353051190E+04  0.10000000000E+02 0. -1.
</event>
<event>
 5    1  0.1129619E-008  0.3813415E+03  0.7957747E-01  0.3445338E+00
         13   -1    0    0    0    0  0.00000000000E+00  0.00000000000E+00  0.14999999963E+04  0.15000000000E+04  0.10566000000E+00 0.  1.
        994   -1    0    0    0    0 -0.00000000000E+00 -0.00000000000E+00  0.11368683772E-12  0.17120000000E+03  0.17120000000E+03 0.  0.
         13    1    1    2    0    0 -0.23888109286E+02 -0.17039088065E+01  0.82437826032E+02  0.85846091323E+02  0.10566000000E+00 0.  1.
        994    1    1    2    0    0  0.12869992624E+02  0.76671580286E+01  0.42047825804E+01  0.17190562009E+03  0.17120000000E+03 0.  0.
        998    1    1    2    0    0  0.11018116662E+02 -0.59632492222E+01  0.14133573877E+04  0.14134482886E+04  0.10000000000E+02 0.  1.
</event>
<event>
 5    1  0.1129619E-008  0.3798222E+03  0.7957747E-01  0.3451933E+00
         13   -1    0    0    0    0  0.00000000000E+00  0.00000000000E+00  0.14999999963E+04  0.15000000000E+04  0.10566000000E+00 0. -1.
        994   -1    0    0    0    0 -0.00000000000E+00 -0.00000000000E+00  0.11368683772E-12  0.17120000000E+03  0.17120000000E+03 0.  0.
         13    1    1    2    0    0  0.11784371188E+02  0.93125356302E+01  0.24566059206E+02  0.28794047182E+02  0.10566000000E+00 0. -1.
        994    1    1    2    0    0 -0.13462424910E+02 -0.93486532950E+01  0.51219754276E+01  0.17205902718E+03  0.17120000000E+03 0.  0.
        998    1    1    2    0    0  0.16780537224E+01  0.36117664772E-01  0.14703119616E+04  0.14703469256E+04  0.10000000000E+02 0. -1.
</event>
<event>
 5    1  0.1129619E-008  0.3815918E+03  0.7957747E-01  0.3444256E+00
         13   -1    0    0    0    0  0.00000000000E+00  0.00000000000E+00  0.14999999963E+04  0.15000000000E+04  0.10566000000E+00 0. -1.
        994   -1    0    0    0    0 -0.00000000000E+00 -0.00000000000E+00  0.11368683772E-12  0.17120000000E+03  0.17120000000E+03 0.  0.
         13    1    1    2    0    0 -0.21137688719E+01 -0.19153169284E+02  0.56691341255E+02  0.59876800597E+02  0.10566000000E+00 0. -1.
        994    1    1    2    0    0  0.13741750187E+02  0.23242566884E+01  0.39779389022E+01  0.17181240312E+03  0.17120000000E+03 0.  0.
        998    1    1    2    0    0 -0.11627981315E+02  0.16828912595E+02  0.14393307161E+04  0.14395107963E+04  0.10000000000E+02 0. -1.
</event>
<event>
 5    1  0.1429273E-008  0.3853429E+03  0.7957747E-01  0.3428219E+00
         13   -1    0    0    0    0  0.00000000000E+00  0.00000000000E+00  0.14999999963E+04  0.15000000000E+04  0.10566000000E+00 0.  1.
        994   -1    0    0    0    0 -0.00000000000E+00 -0.00000000000E+00  0.11368683772E-12  0.17120000000E+03  0.17120000000E+03 0.  0.
         13    1    1    2    0    0 -0.48737272125E+01 -0.99128055328E+01  0.40931342213E+02  0.42395788351E+02  0.10566000000E+00 0.  1.
        994    1    1    2    0    0  0.41446127983E+01  0.10860874424E+02  0.19040295941E+01  0.17160478355E+03  0.17120000000E+03 0.  0.
        998    1    1    2    0    0  0.72911441416E+00 -0.94806889068E+00  0.14571646245E+04  0.14571994281E+04  0.10000000000E+02 0.  1.
</event>
<event>
 5    1  0.1129619E-008  0.3849430E+03  0.7957747E-01  0.3429914E+00
         13   -1    0    0    0    0  0.00000000000E+00  0.00000000000E+00  0.14999999963E+04  0.15000000000E+04  0.10566000000E+00 0.  1.
        994   -1    0    0    0    0 -0.00000000000E+00 -0.00000000000E+00  0.11368683772E-12  0.17120000000E+03  0.17120000000E+03 0.  0.
         13    1    1    2    0    0 -0.52175889607E+01  0.87138186801E+01  0.30462404257E+02  0.32111105675E+02  0.10566000000E+00 0.  1.
        994    1    1    2    0    0  0.90500147410E+01 -0.60219371836E+01  0.20472227543E+01  0.17155698067E+03  0.17120000000E+03 0.  0.
        998    1    1    2    0    0 -0.38324257803E+01 -0.26918814964E+01  0.14674903693E+04  0.14675319137E+04  0.10000000000E+02 0.  1.
</event>
<event>
 5    1  0.1129619E-008  0.3844903E+03  0.7957747E-01  0.3431837E+00
         13   -1    0    0    0    0  0.00000000000E+00  0.00000000000E+00  0.14999999963E+04  0.15000000000E+04  0.10566000000E+00 0. -1.
        994   -1    0    0    0    0 -0.00000000000E+00 -0.00000000000E+00  0.11368683772E-12  0.17120000000E+03  0.17120000000E+03 0.  0.
         13    1    1    2    0    0 -0.14143728474E+02  0.20311327563E+01  0.52458271642E+02  0.54369586932E+02  0.10566000000E+00 0. -1.
        994    1    1    2    0    0  0.14704194236E+02 -0.10068681423E+01  0.25992986225E+01  0.17185291230E+03  0.17120000000E+03 0.  0.
        998    1    1    2    0    0 -0.56046576150E+00 -0.10242646139E+01  0.14449424260E+04  0.14449775008E+04  0.10000000000E+02 0. -1.
</event>
<event>
 5    1  0.1129619E-008  0.3820752E+03  0.7957747E-01  0.3442172E+00
         13   -1    0    0    0    0  0.00000000000E+00  0.00000000000E+00  0.14999999963E+04  0.15000000000E+04  0.10566000000E+00 0.  1.
        994   -1    0    0    0    0 -0.00000000000E+00 -0.00000000000E+00  0.11368683772E-12  0.17120000000E+03  0.17120000000E+03 0.  0.
         13    1    1    2    0    0  0.13631516030E+02  0.99140738879E+01  0.44592919411E+02  0.47672284568E+02  0.10566000000E+00 0.  1.
        994    1    1    2    0    0 -0.13200337829E+02 -0.39716123986E+01  0.37203954606E+01  0.17179436535E+03  0.17120000000E+03 0.  0.
        998    1    1    2    0    0 -0.43117820035E+00 -0.59424614893E+01  0.14516866814E+04  0.14517333501E+04  0.10000000000E+02 0.  1.
</event>
<event>
 5    1  0.1129619E-008  0.3713302E+03  0.7957747E-01  0.3489800E+00
         13   -1    0    0    0    0  0.00000000000E+00  0.00000000000E+00  0.14999999963E+04  0.15000000000E+04  0.10566000000E+00 0. -1.
        994   -1    0    0    0    0 -0.00000000000E+00 -0.00000000000E+00  0.11368683772E-12  0.17120000000E+03  0.17120000000E+03 0.  0.
         13    1    1    2    0    0 -0.16344120434E+02  0.82134591163E+02  0.27871811737E+03  0.29102752697E+03  0.10566000000E+00 0. -1.
        994    1    1    2    0    0  0.35276047169E+02 -0.10351594694E+03  0.50938012191E+02  0.20943751302E+03  0.17120000000E+03 0.  0.
        998    1    1    2    0    0 -0.18931926735E+02  0.21381355780E+02  0.11703438667E+04  0.11707349600E+04  0.10000000000E+02 0. -1.
</event>
<event>
 5    1  0.1129619E-008  0.3783571E+03  0.7957747E-01  0.3458344E+00
         13   -1    0    0    0    0  0.00000000000E+00  0.00000000000E+00  0.14999999963E+04  0.15000000000E+04  0.10566000000E+00 0. -1.
        994   -1    0    0    0    0 -0.00000000000E+00 -0.00000000000E+00  0.11368683772E-12  0.17120000000E+03  0.17120000000E+03 0.  0.
         13    1    1    2    0    0  0.19398344713E+02  0.89070767866E+02  0.51235986609E+03  0.52040613084E+03  0.10566000000E+00 0. -1.
        994    1    1    2    0    0 -0.27611036935E+02 -0.92033505087E+02  0.36652081258E+02  0.19971317052E+03  0.17120000000E+03 0.  0.
        998    1    1    2    0    0  0.82126922218E+01  0.29627372209E+01  0.95098804893E+03  0.95108069864E+03  0.10000000000E+02 0. -1.
</event>
<event>
 5    1  0.1129619E-008  0.3716135E+03  0.7957747E-01  0.3488508E+00
         13   -1    0    0    0    0  0.00000000000E+00  0.00000000000E+00  0.14999999963E+04  0.15000000000E+04  0.10566000000E+00 0.  1.
        994   -1    0    0    0    0 -0.00000000000E+00 -0.00000000000E+00  0.11368683772E-12  0.17120000000E+03  0.17120000000E+03 0.  0.
         13    1    1    2    0    0  0.14085961003E+03  0.19274296598E+02  0.80229226865E+03  0.81479188984E+03  0.10566000000E+00 0.  1.
        994    1    1    2    0    0 -0.11988249659E+03  0.74837088448E+01  0.59799384565E+02  0.21751603454E+03  0.17120000000E+03 0.  0.
        998    1    1    2    0    0 -0.20977113435E+02 -0.26758005443E+02  0.63790834306E+03  0.63889207562E+03  0.10000000000E+02 0. -1.
</event>
<event>
 5    1  0.1129619E-008  0.3798506E+03  0.7957747E-01  0.3451809E+00
         13   -1    0    0    0    0  0.00000000000E+00  0.00000000000E+00  0.14999999963E+04  0.15000000000E+04  0.10566000000E+00 0. -1.
        994   -1    0    0    0    0 -0.00000000000E+00 -0.00000000000E+00  0.11368683772E-12  0.17120000000E+03  0.17120000000E+03 0.  0.
         13    1    1    2    0    0 -0.24772279979E+02 -0.60962467770E+01  0.69673645383E+02  0.74197426539E+02  0.10566000000E+00 0. -1.
        994    1    1    2    0    0  0.29490432544E+02  0.30632844887E+02  0.10279565026E+02  0.17670078170E+03  0.17120000000E+03 0.  0.
        998    1    1    2    0    0 -0.47181525652E+01 -0.24536598110E+02  0.14200467859E+04  0.14203017918E+04  0.10000000000E+02 0. -1.
</event>
<event>
 5    1  0.1129619E-008  0.3764866E+03  0.7957747E-01  0.3466601E+00
         13   -1    0    0    0    0  0.00000000000E+00  0.00000000000E+00  0.14999999963E+04  0.15000000000E+04  0.10566000000E+00 0.  1.
        994   -1    0    0    0    0 -0.00000000000E+00 -0.00000000000E+00  0.11368683772E-12  0.17120000000E+03  0.17120000000E+03 0.  0.
         13    1    1    2    0    0  0.48380524874E+01 -0.99590677219E+01  0.76056837263E+01  0.13433070042E+02  0.10566000000E+00 0.  1.
        994    1    1    2    0    0 -0.25228386594E+01  0.11573378382E+02  0.63919995228E+01  0.17172828963E+03  0.17120000000E+03 0.  0.
        998    1    1    2    0    0 -0.23152138280E+01 -0.16143106599E+01  0.14860023130E+04  0.14860386403E+04  0.10000000000E+02 0.  1.
</event>
<event>
 5    1  0.1129619E-008  0.3801298E+03  0.7957747E-01  0.3450593E+00
         13   -1    0    0    0    0  0.00000000000E+00  0.00000000000E+00  0.14999999963E+04  0.15000000000E+04  0.10566000000E+00 0.  1.
        994   -1    0    0    0    0 -0.00000000000E+00 -0.00000000000E+00  0.11368683772E-12  0.17120000000E+03  0.17120000000E+03 0.  0.
         13    1    1    2    0    0 -0.91941683227E+01  0.65973082512E+01  0.13825693008E+02  0.17866677321E+02  0.10566000000E+00 0.  1.
        994    1    1    2    0    0  0.11329329336E+02 -0.61769868346E+01  0.46242004300E+01  0.17174787364E+03  0.17120000000E+03 0.  0.
        998    1    1    2    0    0 -0.21351610137E+01 -0.42032141654E+00  0.14815501028E+04  0.14815854490E+04  0.10000000000E+02 0.  1.
</event>
<event>
 5    1  0.1129619E-008  0.3840855E+03  0.7957747E-01  0.3433560E+00
         13   -1    0    0    0    0  0.00000000000E+00  0.00000000000E+00  0.14999999963E+04  0.15000000000E+04  0.10566000000E+00 0.  1.
        994   -1    0    0    0    0 -0.00000000000E+00 -0.00000000000E+00  0.11368683772E-12  0.17120000000E+03  0.17120000000E+03 0.  0.
         13    1    1    2    0    0  0.10383566578E+02  0.99203228280E+01  0.50594532429E+02  0.52593242300E+02  0.10566000000E+00 0.  1.
        994    1    1    2    0    0  0.47232724784E+01 -0.97960992197E+01  0.24750547137E+01  0.17156292944E+03  0.17120000000E+03 0.  0.
        998    1    1    2    0    0 -0.15106839056E+02 -0.12422360828E+00  0.14469304091E+04  0.14470438283E+04  0.10000000000E+02 0.  1.
</event>
<event>
 5    1  0.1437499E-008  0.3865922E+03  0.7957747E-01  0.3422947E+00
         13   -1    0    0    0    0  0.00000000000E+00  0.00000000000E+00  0.14999999963E+04  0.15000000000E+04  0.10566000000E+00 0.  1.
        994   -1    0    0    0    0 -0.00000000000E+00 -0.00000000000E+00  0.11368683772E-12  0.17120000000E+03  0.17120000000E+03 0.  0.
         13    1    1    2    0    0  0.98409814223E+01  0.25586041101E+01  0.56409521775E+02  0.57318728887E+02  0.10566000000E+00 0.  1.
        994    1    1    2    0    0 -0.19041733985E+02 -0.85121691935E+01  0.22663386357E+01  0.17248078429E+03  0.17120000000E+03 0.  0.
        998    1    1    2    0    0  0.92007525625E+01  0.59535650834E+01  0.14413241359E+04  0.14414004868E+04  0.10000000000E+02 0.  1.
</event>
<event>
 5    1  0.1129619E-008  0.3706118E+03  0.7957747E-01  0.3493084E+00
         13   -1    0    0    0    0  0.00000000000E+00  0.00000000000E+00  0.14999999963E+04  0.15000000000E+04  0.10566000000E+00 0. -1.
        994   -1    0    0    0    0 -0.00000000000E+00 -0.00000000000E+00  0.11368683772E-12  0.17120000000E+03  0.17120000000E+03 0.  0.
         13    1    1    2    0    0 -0.28901641337E+02 -0.28310649154E-01  0.44040912502E+02  0.52677498152E+02  0.10566000000E+00 0. -1.
        994    1    1    2    0    0  0.11917160300E+02 -0.26100137711E+02  0.11795343384E+02  0.17398794793E+03  0.17120000000E+03 0.  0.
        998    1    1    2    0    0  0.16984481037E+02  0.26128448360E+02  0.14441637404E+04  0.14445345539E+04  0.10000000000E+02 0. -1.
</event>
<event>
 5    1  0.1129619E-008  0.3848952E+03  0.7957747E-01  0.3430117E+00
         13   -1    0    0    0    0  0.00000000000E+00  0.00000000000E+00  0.14999999963E+04  0.15000000000E+04  0.10566000000E+00 0.  1.
        994   -1    0    0    0    0 -0.00000000000E+00 -0.00000000000E+00  0.11368683772E-12  0.17120000000E+03  0.17120000000E+03 0.  0.
         13    1    1    2    0    0  0.83989255181E+01  0.72303723585E+01  0.36013371555E+02  0.37680158294E+02  0.10566000000E+00 0.  1.
        994    1    1    2    0    0 -0.35728226108E+01 -0.99217422716E+01  0.20481308908E+01  0.17153670415E+03  0.17120000000E+03 0.  0.
        998    1    1    2    0    0 -0.48261029073E+01  0.26913699131E+01  0.14619384938E+04  0.14619831376E+04  0.10000000000E+02 0.  1.
</event>
<event>
 5    1  0.1129619E-008  0.3690508E+03  0.7957747E-01  0.3500265E+00
         13   -1    0    0    0    0  0.00000000000E+00  0.00000000000E+00  0.14999999963E+04  0.15000000000E+04  0.10566000000E+00 0.  1.
        994   -1    0    0    0    0 -0.00000000000E+00 -0.00000000000E+00  0.11368683772E-12  0.17120000000E+03  0.17120000000E+03 0.  0.
         13    1    1    2    0    0 -0.74021570180E+02 -0.92596935180E+02  0.57745582837E+03  0.58949862607E+03  0.10566000000E+00 0.  1.
        994    1    1    2    0    0  0.63745762964E+02  0.66238214717E+02  0.39683764887E+02  0.19833119921E+03  0.17120000000E+03 0.  0.
        998    1    1    2    0    0  0.10275807215E+02  0.26358720462E+02  0.88286040302E+03  0.88337017472E+03  0.10000000000E+02 0. -1.
</event>
<event>
 5    1  0.1129619E-008  0.3816326E+03  0.7957747E-01  0.3444080E+00
         13   -1    0    0    0    0  0.00000000000E+00  0.00000000000E+00  0.14999999963E+04  0.15000000000E+04  0.10566000000E+00 0.  1.
        994   -1    0    0    0    0 -0.00000000000E+00 -0.00000000000E+00  0.11368683772E-12  0.17120000000E+03  0.17120000000E+03 0.  0.
         13    1    1    2    0    0  0.27445140183E+02  0.56788843937E+01  0.11103376342E+03  0.11451634482E+03  0.10566000000E+00 0.  1.
        994    1    1    2    0    0 -0.27455482760E+02  0.14599590309E+01  0.58287912751E+01  0.17349164194E+03  0.17120000000E+03 0.  0.
        998    1    1    2    0    0  0.10342577117E-01 -0.71388434246E+01  0.13831374416E+04  0.13831920132E+04  0.10000000000E+02 0.  1.
</event>
<event>
 5    1  0.1129619E-008  0.3828269E+03  0.7957747E-01  0.3438941E+00
         13   -1    0    0    0    0  0.00000000000E+00  0.00000000000E+00  0.14999999963E+04  0.15000000000E+04  0.10566000000E+00 0.  1.
        994   -1    0    0    0    0 -0.00000000000E+00 -0.00000000000E+00  0.11368683772E-12  0.17120000000E+03  0.17120000000E+03 0.  0.
         13    1    1    2    0    0  0.63605369198E+01  0.11660521787E+03  0.42633839630E+03  0.44204261400E+03  0.10566000000E+00 0.  1.
        994    1    1    2    0    0  0.19313456869E+02 -0.51432746386E+02  0.29024719185E+02  0.18212690999E+03  0.17120000000E+03 0.  0.
        998    1    1    2    0    0 -0.25673993789E+02 -0.65172471487E+02  0.10446368808E+04  0.10470304760E+04  0.10000000000E+02 0.  1.
</event>
<event>
 5    1  0.1129619E-008  0.3829651E+03  0.7957747E-01  0.3438349E+00
         13   -1    0    0    0    0  0.00000000000E+00  0.00000000000E+00  0.14999999963E+04  0.15000000000E+04  0.10566000000E+00 0.  1.
        994   -1    0    0    0    0 -0.00000000000E+00 -0.00000000000E+00  0.11368683772E-12  0.17120000000E+03  0.17120000000E+03 0.  0.
         13    1    1    2    0    0  0.55222725044E+01 -0.16047386439E+02  0.52078563721E+02  0.54774100343E+02  0.10566000000E+00 0.  1.
        994    1    1    2    0    0 -0.54884192350E+01  0.16887062746E+02  0.36882874453E+01  0.17215789003E+03  0.17120000000E+03 0.  0.
        998    1    1    2    0    0 -0.33853269374E-01 -0.83967630695E+00  0.14442331451E+04  0.14442680096E+04  0.10000000000E+02 0.  1.
</event>
<event>
 5    1  0.1129619E-008  0.3825217E+03  0.7957747E-01  0.3440251E+00
         13   -1    0    0    0    0  0.00000000000E+00  0.00000000000E+00  0.14999999963E+04  0.15000000000E+04  0.10566000000E+00 0.  1.
        994   -1    0    0    0    0 -0.00000000000E+00 -0.00000000000E+00  0.11368683772E-12  0.17120000000E+03  0.17120000000E+03 0.  0.
         13    1    1    2    0    0 -0.31889542482E+02 -0.77940405738E+00  0.17572079999E+03  0.17859272411E+03  0.10566000000E+00 0.  1.
        994    1    1    2    0    0  0.19405805237E+02  0.16111271101E+02  0.49774924549E+01  0.17311953606E+03  0.17120000000E+03 0.  0.
        998    1    1    2    0    0  0.12483737245E+02 -0.15331867043E+02  0.13193017038E+04  0.13194877398E+04  0.10000000000E+02 0.  1.
</event>
<event>
 5    1  0.1129619E-008  0.3750316E+03  0.7957747E-01  0.3473081E+00
         13   -1    0    0    0    0  0.00000000000E+00  0.00000000000E+00  0.14999999963E+04  0.15000000000E+04  0.10566000000E+00 0. -1.
        994   -1    0    0    0    0 -0.00000000000E+00 -0.00000000000E+00  0.11368683772E-12  0.17120000000E+03  0.17120000000E+03 0.  0.
         13    1    1    2    0    0 -0.82021118012E+01  0.99406042856E+02  0.54210233903E+03  0.55120213455E+03  0.10566000000E+00 0. -1.
        994    1    1    2    0    0  0.16215258334E+02 -0.11976431332E+02  0.15071940074E+02  0.17304037936E+03  0.17120000000E+03 0.  0.
        998    1    1    2    0    0 -0.80131465331E+01 -0.87429611524E+02  0.94282571718E+03  0.94695748609E+03  0.10000000000E+02 0. -1.
</event>
<event>
 5    1  0.1129619E-008  0.3797187E+03  0.7957747E-01  0.3452384E+00
         13   -1    0    0    0    0  0.00000000000E+00  0.00000000000E+00  0.14999999963E+04  0.15000000000E+04  0.10566000000E+00 0. -1.
        994   -1    0    0    0    0 -0.00000000000E+00 -0.00000000000E+00  0.11368683772E-12  0.17120000000E+03  0.17120000000E+03 0.  0.
         13    1    1    2    0    0  0.12963879347E+02 -0.69461791990E+02  0.15513062440E+03  0.17046561091E+03  0.10566000000E+00 0. -1.
        994    1    1    2    0    0 -0.10716210195E+02  0.33345390037E+02  0.20626227753E+02  0.17595918126E+03  0.17120000000E+03 0.  0.
        998    1    1    2    0    0 -0.22476691515E+01  0.36116401953E+02  0.13242431441E+04  0.13247752078E+04  0.10000000000E+02 0. -1.
</event>
<event>
 5    1  0.1129619E-008  0.3411534E+03  0.7957747E-01  0.3639966E+00
         13   -1    0    0    0    0  0.00000000000E+00  0.00000000000E+00  0.14999999963E+04  0.15000000000E+04  0.10566000000E+00 0. -1.
        994   -1    0    0    0    0 -0.00000000000E+00 -0.00000000000E+00  0.11368683772E-12  0.17120000000E+03  0.17120000000E+03 0.  0.
         13    1    1    2    0    0 -0.96703913737E+02  0.21144815788E+03  0.10543377770E+04  0.10796713063E+04  0.10566000000E+00 0. -1.
        994    1    1    2    0    0  0.38684514998E+02 -0.15936510663E+03  0.13870712737E+03  0.27466859321E+03  0.17120000000E+03 0.  0.
        998    1    1    2    0    0  0.58019398739E+02 -0.52083051248E+02  0.30695509191E+03  0.31686010053E+03  0.10000000000E+02 0. -1.
</event>
<event>
 5    1  0.1972906E-008  0.3865707E+03  0.7957747E-01  0.3423038E+00
         13   -1    0    0    0    0  0.00000000000E+00  0.00000000000E+00  0.14999999963E+04  0.15000000000E+04  0.10566000000E+00 0. -1.
        994   -1    0    0    0    0 -0.00000000000E+00 -0.00000000000E+00  0.11368683772E-12  0.17120000000E+03  0.17120000000E+03 0.  0.
         13    1    1    2    0    0 -0.10411915414E+02  0.93753953594E+00  0.53920025833E+02  0.54924196060E+02  0.10566000000E+00 0. -1.
        994    1    1    2    0    0  0.32363913911E+02 -0.73614451552E+01  0.44650891907E+01  0.17444480737E+03  0.17120000000E+03 0.  0.
        998    1    1    2    0    0 -0.21951998497E+02  0.64239056193E+01  0.14416148813E+04  0.14418309966E+04  0.10000000000E+02 0. -1.
</event>
<event>
 5    1  0.1129619E-008  0.3825264E+03  0.7957747E-01  0.3440231E+00
         13   -1    0    0    0    0  0.00000000000E+00  0.00000000000E+00  0.14999999963E+04  0.15000000000E+04  0.10566000000E+00 0.  1.
        994   -1    0    0    0    0 -0.00000000000E+00 -0.00000000000E+00  0.11368683772E-12  0.17120000000E+03  0.17120000000E+03 0.  0.
         13    1    1    2    0    0 -0.31161974325E+02  0.14990249373E+02  0.20162460229E+03  0.20456849130E+03  0.10566000000E+00 0.  1.
        994    1    1    2    0    0  0.42169716768E+02  0.25647180353E+02  0.10981740293E+02  0.17851078817E+03  0.17120000000E+03 0.  0.
        998    1    1    2    0    0 -0.11007742443E+02 -0.40637429726E+02  0.12873936537E+04  0.12881207205E+04  0.10000000000E+02 0.  1.
</event>
<event>
 5    1  0.1129619E-008  0.4135415E+03  0.7957747E-01  0.3316966E+00
         13   -1    0    0    0    0  0.00000000000E+00  0.00000000000E+00  0.14999999963E+04  0.15000000000E+04  0.10566000000E+00 0.  1.
        994   -1    0    0    0    0 -0.00000000000E+00 -0.00000000000E+00  0.11368683772E-12  0.17120000000E+03  0.17120000000E+03 0.  0.
         13    1    1    2    0    0  0.61975476294E+02 -0.72923613797E+02  0.11963686354E+03  0.15320510237E+03  0.10566000000E+00 0.  1.
        994    1    1    2    0    0 -0.42078222935E+02  0.45844534601E+02  0.52367459726E+02  0.18953651109E+03  0.17120000000E+03 0.  0.
        998    1    1    2    0    0 -0.19897253359E+02  0.27079079196E+02  0.13279956730E+04  0.13284583865E+04  0.10000000000E+02 0.  1.
</event>
<event>
 5    1  0.1129619E-008  0.3842522E+03  0.7957747E-01  0.3432850E+00
         13   -1    0    0    0    0  0.00000000000E+00  0.00000000000E+00  0.14999999963E+04  0.15000000000E+04  0.10566000000E+00 0. -1.
        994   -1    0    0    0    0 -0.00000000000E+00 -0.00000000000E+00  0.11368683772E-12  0.17120000000E+03  0.17120000000E+03 0.  0.
         13    1    1    2    0    0  0.39302179586E+02  0.93089729784E+02  0.42463599740E+03  0.43649295592E+03  0.10566000000E+00 0. -1.
        994    1    1    2    0    0  0.73436942118E+02 -0.28444143844E+02  0.41888316224E+02  0.19304435973E+03  0.17120000000E+03 0.  0.
        998    1    1    2    0    0 -0.11273912170E+03 -0.64645585940E+02  0.10334756827E+04  0.10416626844E+04  0.10000000000E+02 0. -1.
</event>
<event>
 5    1  0.1129619E-008  0.3691256E+03  0.7957747E-01  0.3499919E+00
         13   -1    0    0    0    0  0.00000000000E+00  0.00000000000E+00  0.14999999963E+04  0.15000000000E+04  0.10566000000E+00 0. -1.
        994   -1    0    0    0    0 -0.00000000000E+00 -0.00000000000E+00  0.11368683772E-12  0.17120000000E+03  0.17120000000E+03 0.  0.
         13    1    1    2    0    0 -0.35915236930E+02 -0.50331744018E+02  0.15804311748E+03  0.16970806359E+03  0.10566000000E+00 0. -1.
        994    1    1    2    0    0  0.48962983854E+02  0.45701873539E+02  0.26280182246E+02  0.18570439686E+03  0.17120000000E+03 0.  0.
        998    1    1    2    0    0 -0.13047746924E+02  0.46298704786E+01  0.13156766966E+04  0.13157875396E+04  0.10000000000E+02 0. -1.
</event>
<event>
 5    1  0.1129619E-008  0.3785971E+03  0.7957747E-01  0.3457290E+00
         13   -1    0    0    0    0  0.00000000000E+00  0.00000000000E+00  0.14999999963E+04  0.15000000000E+04  0.10566000000E+00 0.  1.
        994   -1    0    0    0    0 -0.00000000000E+00 -0.00000000000E+00  0.11368683772E-12  0.17120000000E+03  0.17120000000E+03 0.  0.
         13    1    1    2    0    0  0.19442373530E+02 -0.31558840538E+02  0.14708383870E+03  0.15168267230E+03  0.10566000000E+00 0.  1.
        994    1    1    2    0    0 -0.18266556863E+02  0.50115875536E+01  0.60489019639E+01  0.17235084080E+03  0.17120000000E+03 0.  0.
        998    1    1    2    0    0 -0.11758166672E+01  0.26547252985E+02  0.13468672556E+04  0.13471664869E+04  0.10000000000E+02 0.  1.
</event>
<event>
 5    1  0.1129619E-008  0.3824189E+03  0.7957747E-01  0.3440693E+00
         13   -1    0    0    0    0  0.00000000000E+00  0.00000000000E+00  0.14999999963E+04  0.15000000000E+04  0.10566000000E+00 0.  1.
        994   -1    0    0    0    0 -0.00000000000E+00 -0.00000000000E+00  0.11368683772E-12  0.17120000000E+03  0.17120000000E+03 0.  0.
         13    1    1    2    0    0  0.18787490000E+02  0.16360421337E+02  0.12506820611E+03  0.12752529361E+03  0.10566000000E+00 0.  1.
        994    1    1    2    0    0  0.12010328404E+02  0.37024605461E+00  0.33960451172E+01  0.17165476455E+03  0.17120000000E+03 0.  0.
        998    1    1    2    0    0 -0.30797818404E+02 -0.16730667391E+02  0.13715357450E+04  0.13720199418E+04  0.10000000000E+02 0.  1.
</event>
<event>
 5    1  0.1129619E-008  0.3773900E+03  0.7957747E-01  0.3462602E+00
         13   -1    0    0    0    0  0.00000000000E+00  0.00000000000E+00  0.14999999963E+04  0.15000000000E+04  0.10566000000E+00 0. -1.
        994   -1    0    0    0    0 -0.00000000000E+00 -0.00000000000E+00  0.11368683772E-12  0.17120000000E+03  0.17120000000E+03 0.  0.
         13    1    1    2    0    0  0.48075820874E+01  0.45145412066E+02  0.17004632488E+03  0.17600279783E+03  0.10566000000E+00 0. -1.
        994    1    1    2    0    0 -0.79153452616E+01 -0.41959224296E+02  0.11629250056E+02  0.17682734136E+03  0.17120000000E+03 0.  0.
        998    1    1    2    0    0  0.31077631742E+01 -0.31861877704E+01  0.13183244213E+04  0.13183698608E+04  0.10000000000E+02 0. -1.
</event>
<event>
 5    1  0.1129619E-008  0.3804289E+03  0.7957747E-01  0.3449293E+00
         13   -1    0    0    0    0  0.00000000000E+00  0.00000000000E+00  0.14999999963E+04  0.15000000000E+04  0.10566000000E+00 0. -1.
        994   -1    0    0    0    0 -0.00000000000E+00 -0.00000000000E+00  0.11368683772E-12  0.17120000000E+03  0.17120000000E+03 0.  0.
         13    1    1    2    0    0  0.51599061520E+02 -0.12133051251E+02  0.30811932691E+03  0.31264549391E+03  0.10566000000E+00 0. -1.
        994    1    1    2    0    0 -0.45675331149E+02  0.58063573139E+01  0.11026229483E+02  0.17762591984E+03  0.17120000000E+03 0.  0.
        998    1    1    2    0    0 -0.59237303709E+01  0.63266939369E+01  0.11808544399E+04  0.11809285863E+04  0.10000000000E+02 0.  0.
</event>
<event>
 5    1  0.1129619E-008  0.3841087E+03  0.7957747E-01  0.3433461E+00
         13   -1    0    0    0    0  0.00000000000E+00  0.00000000000E+00  0.14999999963E+04  0.15000000000E+04  0.10566000000E+00 0. -1.
        994   -1    0    0    0    0 -0.00000000000E+00 -0.00000000000E+00  0.11368683772E-12  0.17120000000E+03  0.17120000000E+03 0.  0.
         13    1    1    2    0    0  0.10709320543E+02  0.75102891906E+00  0.26865410374E+02  0.28931212030E+02  0.10566000000E+00 0. -1.
        994    1    1    2    0    0 -0.10551489419E+02 -0.31983840405E+01  0.24743500906E+01  0.17157250945E+03  0.17120000000E+03 0.  0.
        998    1    1    2    0    0 -0.15783112423E+00  0.24473551215E+01  0.14706602358E+04  0.14706962785E+04  0.10000000000E+02 0. -1.
</event>
<event>
 5    1  0.1129619E-008  0.3828755E+03  0.7957747E-01  0.3438733E+00
         13   -1    0    0    0    0  0.00000000000E+00  0.00000000000E+00  0.14999999963E+04  0.15000000000E+04  0.10566000000E+00 0.  1.
        994   -1    0    0    0    0 -0.00000000000E+00 -0.00000000000E+00  0.11368683772E-12  0.17120000000E+03  0.17120000000E+03 0.  0.
         13    1    1    2    0    0 -0.68833762267E+01 -0.16042995262E+02  0.55090746377E+02  0.57790657252E+02  0.10566000000E+00 0.  1.
        994    1    1    2    0    0  0.43522831680E+01  0.13799122059E+02  0.33822029814E+01  0.17184364241E+03  0.17120000000E+03 0.  0.
        998    1    1    2    0    0  0.25310930587E+01  0.22438732030E+01  0.14415270469E+04  0.14415657003E+04  0.10000000000E+02 0.  1.
</event>
<event>
 5    1  0.1129619E-008  0.3779032E+03  0.7957747E-01  0.3460339E+00
         13   -1    0    0    0    0  0.00000000000E+00  0.00000000000E+00  0.14999999963E+04  0.15000000000E+04  0.10566000000E+00 0.  1.
        994   -1    0    0    0    0 -0.00000000000E+00 -0.00000000000E+00  0.11368683772E-12  0.17120000000E+03  0.17120000000E+03 0.  0.
         13    1    1    2    0    0  0.86031581227E+01  0.34968127978E+02  0.11728141277E+03  0.12268547286E+03  0.10566000000E+00 0.  1.
        994    1    1    2    0    0 -0.16706546477E+02 -0.27919043296E+02  0.87670450001E+01  0.17448462039E+03  0.17120000000E+03 0.  0.
        998    1    1    2    0    0  0.81033883543E+01 -0.70490846827E+01  0.13739515385E+04  0.13740299068E+04  0.10000000000E+02 0.  1.
</event>
<event>
 5    1  0.1129619E-008  0.3863359E+03  0.7957747E-01  0.3424026E+00
         13   -1    0    0    0    0  0.00000000000E+00  0.00000000000E+00  0.14999999963E+04  0.15000000000E+04  0.10566000000E+00 0.  1.
        994   -1    0    0    0    0 -0.00000000000E+00 -0.00000000000E+00  0.11368683772E-12  0.17120000000E+03  0.17120000000E+03 0.  0.
         13    1    1    2    0    0  0.39124050737E+00 -0.10559115775E+02  0.56059686987E+02  0.57046890049E+02  0.10566000000E+00 0.  1.
        994    1    1    2    0    0  0.38777828642E+01  0.13410441282E+02  0.16067228960E+01  0.17177572207E+03  0.17120000000E+03 0.  0.
        998    1    1    2    0    0 -0.42690233715E+01 -0.28513255066E+01  0.14423335864E+04  0.14423773879E+04  0.10000000000E+02 0.  1.
</event>
<event>
 5    1  0.1129619E-008  0.3837153E+03  0.7957747E-01  0.3435139E+00
         13   -1    0    0    0    0  0.00000000000E+00  0.00000000000E+00  0.14999999963E+04  0.15000000000E+04  0.10566000000E+00 0. -1.
        994   -1    0    0    0    0 -0.00000000000E+00 -0.00000000000E+00  0.11368683772E-12  0.17120000000E+03  0.17120000000E+03 0.  0.
         13    1    1    2    0    0  0.13056740163E+02  0.15991304148E+02  0.98020361536E+02  0.10017086758E+03  0.10566000000E+00 0. -1.
        994    1    1    2    0    0 -0.98851865728E+01  0.53913802533E+00  0.25930555938E+01  0.17150560201E+03  0.17120000000E+03 0.  0.
        998    1    1    2    0    0 -0.31715535899E+01 -0.16530442173E+02  0.13993865791E+04  0.13995235304E+04  0.10000000000E+02 0. -1.
</event>
<event>
 5    1  0.1129619E-008  0.3750211E+03  0.7957747E-01  0.3473128E+00
         13   -1    0    0    0    0  0.00000000000E+00  0.00000000000E+00  0.14999999963E+04  0.15000000000E+04  0.10566000000E+00 0.  1.
        994   -1    0    0    0    0 -0.00000000000E+00 -0.00000000000E+00  0.11368683772E-12  0.17120000000E+03  0.17120000000E+03 0.  0.
         13    1    1    2    0    0 -0.47647109685E+02 -0.40877379403E+01  0.14226518576E+03  0.15008781065E+03  0.10566000000E+00 0.  1.
        994    1    1    2    0    0  0.63802193950E+02 -0.15439790786E+01  0.20640547896E+02  0.18387108539E+03  0.17120000000E+03 0.  0.
        998    1    1    2    0    0 -0.16155084265E+02  0.56317170190E+01  0.13370942626E+04  0.13372411040E+04  0.10000000000E+02 0.  1.
</event>
<event>
 5    1  0.1129619E-008  0.3691116E+03  0.7957747E-01  0.3499984E+00
         13   -1    0    0    0    0  0.00000000000E+00  0.00000000000E+00  0.14999999963E+04  0.15000000000E+04  0.10566000000E+00 0. -1.
        994   -1    0    0    0    0 -0.00000000000E+00 -0.00000000000E+00  0.11368683772E-12  0.17120000000E+03  0.17120000000E+03 0.  0.
         13    1    1    2    0    0  0.55712742490E+02  0.16344568956E+02  0.14644052361E+03  0.15753060886E+03  0.10566000000E+00 0. -1.
        994    1    1    2    0    0 -0.62860750002E+02 -0.31394437202E+02  0.27058265790E+02  0.18702586539E+03  0.17120000000E+03 0.  0.
        998    1    1    2    0    0  0.71480075120E+01  0.15049868245E+02  0.13265012069E+04  0.13266435257E+04  0.10000000000E+02 0. -1.
</event>
<event>
 5    1  0.1129619E-008  0.3715935E+03  0.7957747E-01  0.3488599E+00
         13   -1    0    0    0    0  0.00000000000E+00  0.00000000000E+00  0.14999999963E+04  0.15000000000E+04  0.10566000000E+00 0. -1.
        994   -1    0    0    0    0 -0.00000000000E+00 -0.00000000000E+00  0.11368683772E-12  0.17120000000E+03  0.17120000000E+03 0.  0.
         13    1    1    2    0    0  0.21780010043E+02  0.28031887438E+01  0.25046459593E+02  0.33310103674E+02  0.10566000000E+00 0. -1.
        994    1    1    2    0    0 -0.16550674719E+02  0.96914089768E+01  0.97044602700E+01  0.17254409521E+03  0.17120000000E+03 0.  0.
        998    1    1    2    0    0 -0.52293353232E+01 -0.12494597721E+02  0.14652490764E+04  0.14653458011E+04  0.10000000000E+02 0. -1.
</event>
<event>
 5    1  0.1129619E-008  0.4020549E+03  0.7957747E-01  0.3360412E+00
         13   -1    0    0    0    0  0.00000000000E+00  0.00000000000E+00  0.14999999963E+04  0.15000000000E+04  0.10566000000E+00 0.  1.
        994   -1    0    0    0    0 -0.00000000000E+00 -0.00000000000E+00  0.11368683772E-12  0.17120000000E+03  0.17120000000E+03 0.  0.
         13    1    1    2    0    0  0.78821689010E+02  0.95926441483E+02  0.35004661736E+03  0.37141269004E+03  0.10566000000E+00 0.  1.
        994    1    1    2    0    0  0.99992325654E+02 -0.12026194731E+03  0.13386863032E+03  0.26775296701E+03  0.17120000000E+03 0.  0.
        998    1    1    2    0    0 -0.17881401466E+03  0.24335505829E+02  0.10160847486E+04  0.10320343429E+04  0.10000000000E+02 0.  1.
</event>
<event>
 5    1  0.1129619E-008  0.3791613E+03  0.7957747E-01  0.3454819E+00
         13   -1    0    0    0    0  0.00000000000E+00  0.00000000000E+00  0.14999999963E+04  0.15000000000E+04  0.10566000000E+00 0. -1.
        994   -1    0    0    0    0 -0.00000000000E+00 -0.00000000000E+00  0.11368683772E-12  0.17120000000E+03  0.17120000000E+03 0.  0.
         13    1    1    2    0    0  0.18473437594E+02 -0.70396499234E+01  0.42109042754E+02  0.46518890929E+02  0.10566000000E+00 0. -1.
        994    1    1    2    0    0 -0.67501484317E+01 -0.73296954562E+00  0.47116860140E+01  0.17139936328E+03  0.17120000000E+03 0.  0.
        998    1    1    2    0    0 -0.11723289162E+02  0.77726194690E+01  0.14531792675E+04  0.14532817458E+04  0.10000000000E+02 0. -1.
</event>
<event>
 5    1  0.1129619E-008  0.3745281E+03  0.7957747E-01  0.3475336E+00
         13   -1    0    0    0    0  0.00000000000E+00  0.00000000000E+00  0.14999999963E+04  0.15000000000E+04  0.10566000000E+00 0. -1.
        994   -1    0    0    0    0 -0.00000000000E+00 -0.00000000000E+00  0.11368683772E-12  0.17120000000E+03  0.17120000000E+03 0.  0.
         13    1    1    2    0    0 -0.27355851013E+02 -0.76463991854E+02  0.33650494129E+03  0.34616567033E+03  0.10566000000E+00 0. -1.
        994    1    1    2    0    0  0.14781358164E+02  0.92213006667E+02  0.37221579716E+02  0.19853617591E+03  0.17120000000E+03 0.  0.
        998    1    1    2    0    0  0.12574492849E+02 -0.15749014813E+02  0.11262734753E+04  0.11264981538E+04  0.10000000000E+02 0. -1.
</event>
<event>
 5    1  0.1129619E-008  0.3816306E+03  0.7957747E-01  0.3444089E+00
         13   -1    0    0    0    0  0.00000000000E+00  0.00000000000E+00  0.14999999963E+04  0.15000000000E+04  0.10566000000E+00 0.  1.
        994   -1    0    0    0    0 -0.00000000000E+00 -0.00000000000E+00  0.11368683772E-12  0.17120000000E+03  0.17120000000E+03 0.  0.
         13    1    1    2    0    0 -0.99466147561E+01 -0.28051772380E+02  0.14842877032E+03  0.15138344726E+03  0.10566000000E+00 0.  1.
        994    1    1    2    0    0 -0.73959699390E+01  0.46572843984E+01  0.35663350424E+01  0.17146005195E+03  0.17120000000E+03 0.  0.
        998    1    1    2    0    0  0.17342584695E+02  0.23394487982E+02  0.13480048909E+04  0.13483565008E+04  0.10000000000E+02 0.  1.
</event>
<event>
 5    1  0.1129619E-008  0.3759459E+03  0.7957747E-01  0.3469003E+00
         13   -1    0    0    0    0  0.00000000000E+00  0.00000000000E+00  0.14999999963E+04  0.15000000000E+04  0.10566000000E+00 0.  1.
        994   -1    0    0    0    0 -0.00000000000E+00 -0.00000000000E+00  0.11368683772E-12  0.17120000000E+03  0.17120000000E+03 0.  0.
         13    1    1    2    0    0  0.11340598251E+02  0.22708435970E+01  0.80227324933E+01  0.14076267262E+02  0.10566000000E+00 0.  1.
        994    1    1    2    0    0 -0.76852945912E+01  0.60648126031E+01  0.65186239274E+01  0.17160354939E+03  0.17120000000E+03 0.  0.
        998    1    1    2    0    0 -0.36553036602E+01 -0.83356562001E+01  0.14854586399E+04  0.14855201833E+04  0.10000000000E+02 0.  1.
</event>
<event>
 5    1  0.1129619E-008  0.3806326E+03  0.7957747E-01  0.3448409E+00
         13   -1    0    0    0    0  0.00000000000E+00  0.00000000000E+00  0.14999999963E+04  0.15000000000E+04  0.10566000000E+00 0. -1.
        994   -1    0    0    0    0 -0.00000000000E+00 -0.00000000000E+00  0.11368683772E-12  0.17120000000E+03  0.17120000000E+03 0.  0.
         13    1    1    2    0    0 -0.70572383948E+01  0.87924365598E+01  0.14977552370E+02  0.18746994251E+02  0.10566000000E+00 0. -1.
        994    1    1    2    0    0  0.40655322134E+01 -0.92013823987E+01  0.41518179908E+01  0.17154553793E+03  0.17120000000E+03 0.  0.
        998    1    1    2    0    0  0.29917061814E+01  0.40894583896E+00  0.14808706259E+04  0.14809074678E+04  0.10000000000E+02 0. -1.
</event>
<event>
 5    1  0.1129619E-008  0.3857636E+03  0.7957747E-01  0.3426440E+00
         13   -1    0    0    0    0  0.00000000000E+00  0.00000000000E+00  0.14999999963E+04  0.15000000000E+04  0.10566000000E+00 0. -1.
        994   -1    0    0    0    0 -0.00000000000E+00 -0.00000000000E+00  0.11368683772E-12  0.17120000000E+03  0.17120000000E+03 0.  0.
         13    1    1    2    0    0 -0.11724187447E+02  0.33375634554E+01  0.56428660100E+02  0.57730414392E+02  0.10566000000E+00 0. -1.
        994    1    1    2    0    0  0.15147913014E+02 -0.91385565549E+01  0.22788958234E+01  0.17212671452E+03  0.17120000000E+03 0.  0.
        998    1    1    2    0    0 -0.34237255673E+01  0.58009930995E+01  0.14412924404E+04  0.14413428711E+04  0.10000000000E+02 0. -1.
</event>
<event>
 5    1  0.1129619E-008  0.3823016E+03  0.7957747E-01  0.3441198E+00
         13   -1    0    0    0    0  0.00000000000E+00  0.00000000000E+00  0.14999999963E+04  0.15000000000E+04  0.10566000000E+00 0. -1.
        994   -1    0    0    0    0 -0.00000000000E+00 -0.00000000000E+00  0.11368683772E-12  0.17120000000E+03  0.17120000000E+03 0.  0.
         13    1    1    2    0    0  0.26531326931E+02 -0.11167177181E+01  0.90086070922E+02  0.93918420479E+02  0.10566000000E+00 0. -1.
        994    1    1    2    0    0 -0.67120226331E+02 -0.29383189989E+02  0.20995986047E+02  0.18740002152E+03  0.17120000000E+03 0.  0.
        998    1    1    2    0    0  0.40588899400E+02  0.30499907707E+02  0.13889179393E+04  0.13898815580E+04  0.10000000000E+02 0. -1.
</event>
<event>
 5    1  0.1129619E-008  0.3711275E+03  0.7957747E-01  0.3490725E+00
         13   -1    0    0    0    0  0.00000000000E+00  0.00000000000E+00  0.14999999963E+04  0.15000000000E+04  0.10566000000E+00 0.  1.
        994   -1    0    0    0    0 -0.00000000000E+00 -0.00000000000E+00  0.11368683772E-12  0.17120000000E+03  0.17120000000E+03 0.  0.
         13    1    1    2    0    0  0.46696838229E+02  0.34526713387E+02  0.21409404109E+03  0.22183092262E+03  0.10566000000E+00 0.  1.
        994    1    1    2    0    0 -0.86890125401E+01 -0.12074477248E+02  0.94434774781E+01  0.17210436138E+03  0.17120000000E+03 0.  0.
        998    1    1    2    0    0 -0.38007825689E+02 -0.22452236139E+02  0.12764624777E+04  0.12772647160E+04  0.10000000000E+02 0.  1.
</event>
<event>
 5    1  0.1129619E-008  0.3845697E+03  0.7957747E-01  0.3431499E+00
         13   -1    0    0    0    0  0.00000000000E+00  0.00000000000E+00  0.14999999963E+04  0.15000000000E+04  0.10566000000E+00 0. -1.
        994   -1    0    0    0    0 -0.00000000000E+00 -0.00000000000E+00  0.11368683772E-12  0.17120000000E+03  0.17120000000E+03 0.  0.
         13    1    1    2    0    0 -0.35061785224E+01  0.12843409584E+02  0.44254306569E+02  0.46213648109E+02  0.10566000000E+00 0. -1.
        994    1    1    2    0    0  0.24851367297E+02 -0.18893100753E+02  0.50599138051E+01  0.17409647452E+03  0.17120000000E+03 0.  0.
        998    1    1    2    0    0 -0.21345188774E+02  0.60496911687E+01  0.14506857759E+04  0.14508898774E+04  0.10000000000E+02 0. -1.
</event>
<event>
 5    1  0.1129619E-008  0.3845024E+03  0.7957747E-01  0.3431785E+00
         13   -1    0    0    0    0  0.00000000000E+00  0.00000000000E+00  0.14999999963E+04  0.15000000000E+04  0.10566000000E+00 0.  1.
        994   -1    0    0    0    0 -0.00000000000E+00 -0.00000000000E+00  0.11368683772E-12  0.17120000000E+03  0.17120000000E+03 0.  0.
         13    1    1    2    0    0  0.97808003758E+01 -0.16194139848E+02  0.87698446159E+02  0.89715900732E+02  0.10566000000E+00 0.  1.
        994    1    1    2    0    0 -0.10824459602E+02  0.21543310866E+02  0.37944649316E+01  0.17293097216E+03  0.17120000000E+03 0.  0.
        998    1    1    2    0    0  0.10436592264E+01 -0.53491710179E+01  0.14085070852E+04  0.14085531271E+04  0.10000000000E+02 0.  1.
</event>
<event>
 5    1  0.1129619E-008  0.3803894E+03  0.7957747E-01  0.3449465E+00
         13   -1    0    0    0    0  0.00000000000E+00  0.00000000000E+00  0.14999999963E+04  0.15000000000E+04  0.10566000000E+00 0. -1.
        994   -1    0    0    0    0 -0.00000000000E+00 -0.00000000000E+00  0.11368683772E-12  0.17120000000E+03  0.17120000000E+03 0.  0.
         13    1    1    2    0    0 -0.26112156552E+02  0.30959631350E+02  0.18911456098E+03  0.19340287442E+03  0.10566000000E+00 0. -1.
        994    1    1    2    0    0  0.41144892036E+02 -0.13297215133E+02  0.10204340274E+02  0.17687081905E+03  0.17120000000E+03 0.  0.
        998    1    1    2    0    0 -0.15032735484E+02 -0.17662416217E+02  0.13006810950E+04  0.13009263065E+04  0.10000000000E+02 0. -1.
</event>
<event>
 5    1  0.1129619E-008  0.3823678E+03  0.7957747E-01  0.3440913E+00
         13   -1    0    0    0    0  0.00000000000E+00  0.00000000000E+00  0.14999999963E+04  0.15000000000E+04  0.10566000000E+00 0. -1.
        994   -1    0    0    0    0 -0.00000000000E+00 -0.00000000000E+00  0.11368683772E-12  0.17120000000E+03  0.17120000000E+03 0.  0.
         13    1    1    2    0    0  0.49424138861E+01  0.25367884554E+02  0.11367148746E+03  0.11657261791E+03  0.10566000000E+00 0. -1.
        994    1    1    2    0    0  0.32118696535E+01 -0.15160053358E+02  0.37396109205E+01  0.17194059443E+03  0.17120000000E+03 0.  0.
        998    1    1    2    0    0 -0.81542835397E+01 -0.10207831196E+02  0.13825888979E+04  0.13826867877E+04  0.10000000000E+02 0. -1.
</event>
<event>
 5    1  0.1129619E-008  0.3747985E+03  0.7957747E-01  0.3474124E+00
         13   -1    0    0    0    0  0.00000000000E+00  0.00000000000E+00  0.14999999963E+04  0.15000000000E+04  0.10566000000E+00 0.  1.
        994   -1    0    0    0    0 -0.00000000000E+00 -0.00000000000E+00  0.11368683772E-12  0.17120000000E+03  0.17120000000E+03 0.  0.
         13    1    1    2    0    0 -0.56370942499E+00 -0.12931940421E+02  0.91397721718E+01  0.15846117845E+02  0.10566000000E+00 0.  1.
        994    1    1    2    0    0  0.78677857844E+00  0.16641190995E+02  0.77268584570E+01  0.17218214948E+03  0.17120000000E+03 0.  0.
        998    1    1    2    0    0 -0.22306915345E+00 -0.37092505741E+01  0.14831333656E+04  0.14831717327E+04  0.10000000000E+02 0.  1.
</event>
<event>
 5    1  0.1129619E-008  0.2867633E+03  0.7957747E-01  0.3995297E+00
         13   -1    0    0    0    0  0.00000000000E+00  0.00000000000E+00  0.14999999963E+04  0.15000000000E+04  0.10566000000E+00 0.  1.
        994   -1    0    0    0    0 -0.00000000000E+00 -0.00000000000E+00  0.11368683772E-12  0.17120000000E+03  0.17120000000E+03 0.  0.
         13    1    1    2    0    0  0.76544319911E+02  0.14210435812E+03  0.72752114459E+03  0.74521118383E+03  0.10566000000E+00 0.  1.
        994    1    1    2    0    0  0.39984078827E+02 -0.10120022719E+03  0.72950872221E+02  0.21557245256E+03  0.17120000000E+03 0.  0.
        998    1    1    2    0    0 -0.11652839874E+03 -0.40904130925E+02  0.69952797946E+03  0.71041636362E+03  0.10000000000E+02 0. -1.
</event>
<event>
 5    1  0.1129619E-008  0.3764768E+03  0.7957747E-01  0.3466644E+00
         13   -1    0    0    0    0  0.00000000000E+00  0.00000000000E+00  0.14999999963E+04  0.15000000000E+04  0.10566000000E+00 0.  1.
        994   -1    0    0    0    0 -0.00000000000E+00 -0.00000000000E+00  0.11368683772E-12  0.17120000000E+03  0.17120000000E+03 0.  0.
         13    1    1    2    0    0  0.11390006511E+02 -0.41033656488E+02  0.13607480687E+03  0.14258280907E+03  0.10566000000E+00 0.  1.
        994    1    1    2    0    0 -0.13274074157E+02  0.43802184374E+02  0.13040849941E+02  0.17769168852E+03  0.17120000000E+03 0.  0.
        998    1    1    2    0    0  0.18840676454E+01 -0.27685278866E+01  0.13508843395E+04  0.13509255024E+04  0.10000000000E+02 0.  1.
</event>
<event>
 5    1  0.1129619E-008  0.3860345E+03  0.7957747E-01  0.3425297E+00
         13   -1    0    0    0    0  0.00000000000E+00  0.00000000000E+00  0.14999999963E+04  0.15000000000E+04  0.10566000000E+00 0.  1.
        994   -1    0    0    0    0 -0.00000000000E+00 -0.00000000000E+00  0.11368683772E-12  0.17120000000E+03  0.17120000000E+03 0.  0.
         13    1    1    2    0    0 -0.18177933010E+02 -0.21691645939E+01 -0.35277269374E+00  0.18310601742E+02  0.10566000000E+00 0.  1.
        994    1    1    2    0    0  0.19219115674E+02  0.24494331215E+01  0.21074486273E+02  0.17357692272E+03  0.17120000000E+03 0.  0.
        998    1    1    2    0    0 -0.10411826642E+01 -0.28026852754E+00  0.14792782827E+04  0.14793124755E+04  0.10000000000E+02 0.  1.
</event>
<event>
 5    1  0.1129619E-008  0.3816613E+03  0.7957747E-01  0.3443957E+00
         13   -1    0    0    0    0  0.00000000000E+00  0.00000000000E+00  0.14999999963E+04  0.15000000000E+04  0.10566000000E+00 0. -1.
        994   -1    0    0    0    0 -0.00000000000E+00 -0.00000000000E+00  0.11368683772E-12  0.17120000000E+03  0.17120000000E+03 0.  0.
         13    1    1    2    0    0 -0.28261680318E+02 -0.93565250378E+01  0.12531165166E+03  0.12879941126E+03  0.10566000000E+00 0. -1.
        994    1    1    2    0    0  0.28483476677E+02  0.21111109146E+01  0.60137752549E+01  0.17367029316E+03  0.17120000000E+03 0.  0.
        998    1    1    2    0    0 -0.22179635949E+00  0.72454141232E+01  0.13686745694E+04  0.13687302956E+04  0.10000000000E+02 0. -1.
</event>
<event>
 5    1  0.1129619E-008  0.3843782E+03  0.7957747E-01  0.3432314E+00
         13   -1    0    0    0    0  0.00000000000E+00  0.00000000000E+00  0.14999999963E+04  0.15000000000E+04  0.10566000000E+00 0. -1.
        994   -1    0    0    0    0 -0.00000000000E+00 -0.00000000000E+00  0.11368683772E-12  0.17120000000E+03  0.17120000000E+03 0.  0.
         13    1    1    2    0    0 -0.11482569400E+02  0.88741857027E+01  0.52131450109E+02  0.54113767439E+02  0.10566000000E+00 0. -1.
        994    1    1    2    0    0  0.12607423098E+02 -0.10358681893E+02  0.28170242971E+01  0.17199890998E+03  0.17120000000E+03 0.  0.
        998    1    1    2    0    0 -0.11248536977E+01  0.14844961907E+01  0.14450515219E+04  0.14450873226E+04  0.10000000000E+02 0. -1.
</event>
<event>
 5    1  0.1129619E-008  0.3777702E+03  0.7957747E-01  0.3460925E+00
         13   -1    0    0    0    0  0.00000000000E+00  0.00000000000E+00  0.14999999963E+04  0.15000000000E+04  0.10566000000E+00 0. -1.
        994   -1    0    0    0    0 -0.00000000000E+00 -0.00000000000E+00  0.11368683772E-12  0.17120000000E+03  0.17120000000E+03 0.  0.
         13    1    1    2    0    0 -0.12600186188E+02 -0.37021275018E+01  0.14172110520E+02  0.19321757700E+02  0.10566000000E+00 0. -1.
        994    1    1    2    0    0  0.55292571095E+01  0.48353273423E+01  0.54447174487E+01  0.17144397925E+03  0.17120000000E+03 0.  0.
        998    1    1    2    0    0  0.70709290787E+01 -0.11331998405E+01  0.14803831683E+04  0.14804342630E+04  0.10000000000E+02 0. -1.
</event>
<event>
 5    1  0.1129619E-008  0.3843072E+03  0.7957747E-01  0.3432616E+00
         13   -1    0    0    0    0  0.00000000000E+00  0.00000000000E+00  0.14999999963E+04  0.15000000000E+04  0.10566000000E+00 0. -1.
        994   -1    0    0    0    0 -0.00000000000E+00 -0.00000000000E+00  0.11368683772E-12  0.17120000000E+03  0.17120000000E+03 0.  0.
         13    1    1    2    0    0  0.14782253924E+02  0.27541681072E+01  0.57505361872E+02  0.59438861708E+02  0.10566000000E+00 0. -1.
        994    1    1    2    0    0 -0.96861756177E+01  0.75177113804E+01  0.24701514332E+01  0.17165628340E+03  0.17120000000E+03 0.  0.
        998    1    1    2    0    0 -0.50960783064E+01 -0.10271879488E+02  0.14400244830E+04  0.14401048549E+04  0.10000000000E+02 0. -1.
</event>
<event>
 5    1  0.1129619E-008  0.3842554E+03  0.7957747E-01  0.3432836E+00
         13   -1    0    0    0    0  0.00000000000E+00  0.00000000000E+00  0.14999999963E+04  0.15000000000E+04  0.10566000000E+00 0.  1.
        994   -1    0    0    0    0 -0.00000000000E+00 -0.00000000000E+00  0.11368683772E-12  0.17120000000E+03  0.17120000000E+03 0.  0.
         13    1    1    2    0    0  0.56586819079E+01 -0.85355390107E+01  0.25707646038E+02  0.27672555646E+02  0.10566000000E+00 0.  1.
        994    1    1    2    0    0 -0.77765297409E+01  0.27818273849E+01  0.22251869002E+01  0.17141354799E+03  0.17120000000E+03 0.  0.
        998    1    1    2    0    0  0.21178478331E+01  0.57537116258E+01  0.14720671633E+04  0.14721138964E+04  0.10000000000E+02 0.  1.
</event>
<event>
 5    1  0.1129619E-008  0.3716566E+03  0.7957747E-01  0.3488312E+00
         13   -1    0    0    0    0  0.00000000000E+00  0.00000000000E+00  0.14999999963E+04  0.15000000000E+04  0.10566000000E+00 0. -1.
        994   -1    0    0    0    0 -0.00000000000E+00 -0.00000000000E+00  0.11368683772E-12  0.17120000000E+03  0.17120000000E+03 0.  0.
         13    1    1    2    0    0 -0.33362648739E+02  0.10669571627E+03  0.50433113286E+03  0.51657230369E+03  0.10566000000E+00 0. -1.
        994    1    1    2    0    0  0.16050876000E+02 -0.10716278116E+03  0.49922655846E+02  0.20867008375E+03  0.17120000000E+03 0.  0.
        998    1    1    2    0    0  0.17311772738E+02  0.46706488850E+00  0.94574620757E+03  0.94595761256E+03  0.10000000000E+02 0. -1.
</event>
<event>
 5    1  0.1129619E-008  0.3774442E+03  0.7957747E-01  0.3462363E+00
         13   -1    0    0    0    0  0.00000000000E+00  0.00000000000E+00  0.14999999963E+04  0.15000000000E+04  0.10566000000E+00 0.  1.
        994   -1    0    0    0    0 -0.00000000000E+00 -0.00000000000E+00  0.11368683772E-12  0.17120000000E+03  0.17120000000E+03 0.  0.
         13    1    1    2    0    0  0.74046361528E+02  0.41774822326E+02  0.31526429119E+03  0.32652654395E+03  0.10566000000E+00 0.  1.
        994    1    1    2    0    0  0.26605970162E+01 -0.79218873574E+01  0.15181274740E+02  0.17207482727E+03  0.17120000000E+03 0.  0.
        998    1    1    2    0    0 -0.76706958544E+02 -0.33852934968E+02  0.11695544303E+04  0.11725986288E+04  0.10000000000E+02 0.  1.
</event>
<event>
 5    1  0.1129619E-008  0.3843429E+03  0.7957747E-01  0.3432464E+00
         13   -1    0    0    0    0  0.00000000000E+00  0.00000000000E+00  0.14999999963E+04  0.15000000000E+04  0.10566000000E+00 0.  1.
        994   -1    0    0    0    0 -0.00000000000E+00 -0.00000000000E+00  0.11368683772E-12  0.17120000000E+03  0.17120000000E+03 0.  0.
         13    1    1    2    0    0 -0.10549009741E+02  0.61957006047E+01  0.37488771686E+02  0.39434597488E+02  0.10566000000E+00 0.  1.
        994    1    1    2    0    0  0.93856023740E+01 -0.43493325322E+01  0.23094760120E+01  0.17152778173E+03  0.17120000000E+03 0.  0.
        998    1    1    2    0    0  0.11634073667E+01 -0.18463680724E+01  0.14602017486E+04  0.14602376208E+04  0.10000000000E+02 0.  1.
</event>
<event>
 5    1  0.1129619E-008  0.3840177E+03  0.7957747E-01  0.3433849E+00
         13   -1    0    0    0    0  0.00000000000E+00  0.00000000000E+00  0.14999999963E+04  0.15000000000E+04  0.10566000000E+00 0. -1.
        994   -1    0    0    0    0 -0.00000000000E+00 -0.00000000000E+00  0.11368683772E-12  0.17120000000E+03  0.17120000000E+03 0.  0.
         13    1    1    2    0    0 -0.78509204074E+01  0.10423502762E+02  0.41281779950E+02  0.43295298601E+02  0.10566000000E+00 0. -1.
        994    1    1    2    0    0  0.85784148305E+01  0.62637651373E+01  0.24909159753E+01  0.17154727808E+03  0.17120000000E+03 0.  0.
        998    1    1    2    0    0 -0.72749442318E+00 -0.16687267899E+02  0.14562273004E+04  0.14563574233E+04  0.10000000000E+02 0. -1.
</event>
<event>
 5    1  0.1129619E-008  0.3850838E+03  0.7957747E-01  0.3429317E+00
         13   -1    0    0    0    0  0.00000000000E+00  0.00000000000E+00  0.14999999963E+04  0.15000000000E+04  0.10566000000E+00 0.  1.
        994   -1    0    0    0    0 -0.00000000000E+00 -0.00000000000E+00  0.11368683772E-12  0.17120000000E+03  0.17120000000E+03 0.  0.
         13    1    1    2    0    0 -0.10188522785E+02 -0.11220329967E+02  0.72625653329E+02  0.74190285662E+02  0.10566000000E+00 0.  1.
        994    1    1    2    0    0  0.10230337796E+02  0.35055966717E+01  0.19731476269E+01  0.17155256434E+03  0.17120000000E+03 0.  0.
        998    1    1    2    0    0 -0.41815011176E-01  0.77147332950E+01  0.14254011953E+04  0.14254571500E+04  0.10000000000E+02 0.  1.
</event>
<event>
 5    1  0.1129619E-008  0.3832315E+03  0.7957747E-01  0.3437207E+00
         13   -1    0    0    0    0  0.00000000000E+00  0.00000000000E+00  0.14999999963E+04  0.15000000000E+04  0.10566000000E+00 0.  1.
        994   -1    0    0    0    0 -0.00000000000E+00 -0.00000000000E+00  0.11368683772E-12  0.17120000000E+03  0.17120000000E+03 0.  0.
         13    1    1    2    0    0  0.11660508294E+02  0.26633207001E+02  0.16509897957E+03  0.16763943267E+03  0.10566000000E+00 0.  1.
        994    1    1    2    0    0 -0.61655604381E+01 -0.18121712542E+02  0.37235995823E+01  0.17230703931E+03  0.17120000000E+03 0.  0.
        998    1    1    2    0    0 -0.54949478560E+01 -0.85114944592E+01  0.13311774171E+04  0.13312535280E+04  0.10000000000E+02 0.  1.
</event>
<event>
 5    1  0.1129619E-008  0.3814802E+03  0.7957747E-01  0.3444738E+00
         13   -1    0    0    0    0  0.00000000000E+00  0.00000000000E+00  0.14999999963E+04  0.15000000000E+04  0.10566000000E+00 0. -1.
        994   -1    0    0    0    0 -0.00000000000E+00 -0.00000000000E+00  0.11368683772E-12  0.17120000000E+03  0.17120000000E+03 0.  0.
         13    1    1    2    0    0 -0.82951942657E+01  0.15880477705E+02  0.47066384346E+02  0.50361250178E+02  0.10566000000E+00 0. -1.
        994    1    1    2    0    0  0.22817325286E+02  0.38773544885E+01  0.51717830926E+01  0.17283475215E+03  0.17120000000E+03 0.  0.
        998    1    1    2    0    0 -0.14522131020E+02 -0.19757832194E+02  0.14477618288E+04  0.14480039977E+04  0.10000000000E+02 0. -1.
</event>
<event>
 5    1  0.1129619E-008  0.3832446E+03  0.7957747E-01  0.3437151E+00
         13   -1    0    0    0    0  0.00000000000E+00  0.00000000000E+00  0.14999999963E+04  0.15000000000E+04  0.10566000000E+00 0. -1.
        994   -1    0    0    0    0 -0.00000000000E+00 -0.00000000000E+00  0.11368683772E-12  0.17120000000E+03  0.17120000000E+03 0.  0.
         13    1    1    2    0    0 -0.27141402101E+01  0.21501273931E+02  0.93852242410E+02  0.96321990776E+02  0.10566000000E+00 0. -1.
        994    1    1    2    0    0  0.13586068879E+01 -0.12194116111E+02  0.30022595853E+01  0.17166536006E+03  0.17120000000E+03 0.  0.
        998    1    1    2    0    0  0.13555333221E+01 -0.93071578195E+01  0.14031454943E+04  0.14032126492E+04  0.10000000000E+02 0. -1.
</event>
<event>
 5    1  0.1129619E-008  0.3764047E+03  0.7957747E-01  0.3466964E+00
         13   -1    0    0    0    0  0.00000000000E+00  0.00000000000E+00  0.14999999963E+04  0.15000000000E+04  0.10566000000E+00 0.  1.
        994   -1    0    0    0    0 -0.00000000000E+00 -0.00000000000E+00  0.11368683772E-12  0.17120000000E+03  0.17120000000E+03 0.  0.
         13    1    1    2    0    0  0.14382802831E+02  0.67921148857E+01  0.18592258015E+02  0.24467959948E+02  0.10566000000E+00 0.  1.
        994    1    1    2    0    0 -0.12149727360E+02 -0.43670454563E+01  0.65232952557E+01  0.17181001234E+03  0.17120000000E+03 0.  0.
        998    1    1    2    0    0 -0.22330754712E+01 -0.24250694294E+01  0.14748844430E+04  0.14749220277E+04  0.10000000000E+02 0.  1.
</event>
<event>
 5    1  0.1129619E-008  0.3820272E+03  0.7957747E-01  0.3442379E+00
         13   -1    0    0    0    0  0.00000000000E+00  0.00000000000E+00  0.14999999963E+04  0.15000000000E+04  0.10566000000E+00 0. -1.
        994   -1    0    0    0    0 -0.00000000000E+00 -0.00000000000E+00  0.11368683772E-12  0.17120000000E+03  0.17120000000E+03 0.  0.
         13    1    1    2    0    0 -0.20111275656E+02  0.22931217556E+02  0.14991570345E+03  0.15298703687E+03  0.10566000000E+00 0. -1.
        994    1    1    2    0    0  0.87454154856E+01 -0.14515083990E+02  0.40675008770E+01  0.17208473064E+03  0.17120000000E+03 0.  0.
        998    1    1    2    0    0  0.11365860170E+02 -0.84161335662E+01  0.13460167920E+04  0.13461282325E+04  0.10000000000E+02 0. -1.
</event>
<event>
 5    1  0.1129619E-008  0.3808512E+03  0.7957747E-01  0.3447461E+00
         13   -1    0    0    0    0  0.00000000000E+00  0.00000000000E+00  0.14999999963E+04  0.15000000000E+04  0.10566000000E+00 0. -1.
        994   -1    0    0    0    0 -0.00000000000E+00 -0.00000000000E+00  0.11368683772E-12  0.17120000000E+03  0.17120000000E+03 0.  0.
         13    1    1    2    0    0  0.10649945056E+02  0.12910577455E+01  0.13795505071E+02  0.17476134699E+02  0.10566000000E+00 0. -1.
        994    1    1    2    0    0 -0.11799761852E+02 -0.42437946024E+01  0.42284502500E+01  0.17171069846E+03  0.17120000000E+03 0.  0.
        998    1    1    2    0    0  0.11498167960E+01  0.29527368569E+01  0.14819760410E+04  0.14820131668E+04  0.10000000000E+02 0. -1.
</event>
<event>
 5    1  0.1129619E-008  0.3826884E+03  0.7957747E-01  0.3439536E+00
         13   -1    0    0    0    0  0.00000000000E+00  0.00000000000E+00  0.14999999963E+04  0.15000000000E+04  0.10566000000E+00 0. -1.
        994   -1    0    0    0    0 -0.00000000000E+00 -0.00000000000E+00  0.11368683772E-12  0.17120000000E+03  0.17120000000E+03 0.  0.
         13    1    1    2    0    0  0.13421610241E+02 -0.24504250688E+02  0.12880183115E+03  0.13179727158E+03  0.10566000000E+00 0. -1.
        994    1    1    2    0    0 -0.15141666532E+02  0.23990315696E+02  0.54534597447E+01  0.17362023366E+03  0.17120000000E+03 0.  0.
        998    1    1    2    0    0  0.17200562906E+01  0.51393499133E+00  0.13657447054E+04  0.13657824948E+04  0.10000000000E+02 0. -1.
</event>
<event>
 5    1  0.1129619E-008  0.4201782E+03  0.7957747E-01  0.3292932E+00
         13   -1    0    0    0    0  0.00000000000E+00  0.00000000000E+00  0.14999999963E+04  0.15000000000E+04  0.10566000000E+00 0.  1.
        994   -1    0    0    0    0 -0.00000000000E+00 -0.00000000000E+00  0.11368683772E-12  0.17120000000E+03  0.17120000000E+03 0.  0.
         13    1    1    2    0    0 -0.34443067422E+02 -0.68226300289E+01 -0.10487772092E+01  0.35128112270E+02  0.10566000000E+00 0.  1.
        994    1    1    2    0    0  0.34482005824E+02 -0.75003662439E+01  0.45774981870E+02  0.18069325716E+03  0.17120000000E+03 0.  0.
        998    1    1    2    0    0 -0.38938401637E-01  0.14322996273E+02  0.14552737916E+04  0.14553786306E+04  0.10000000000E+02 0.  1.
</event>
<event>
 5    1  0.1129619E-008  0.3853634E+03  0.7957747E-01  0.3428133E+00
         13   -1    0    0    0    0  0.00000000000E+00  0.00000000000E+00  0.14999999963E+04  0.15000000000E+04  0.10566000000E+00 0.  1.
        994   -1    0    0    0    0 -0.00000000000E+00 -0.00000000000E+00  0.11368683772E-12  0.17120000000E+03  0.17120000000E+03 0.  0.
         13    1    1    2    0    0  0.10249604070E+02  0.16874270213E+02  0.11719291421E+03  0.11884437591E+03  0.10566000000E+00 0.  1.
        994    1    1    2    0    0 -0.93736679476E+01 -0.27564449575E+02  0.42391968210E+01  0.17370974446E+03  0.17120000000E+03 0.  0.
        998    1    1    2    0    0 -0.87593612192E+00  0.10690179362E+02  0.13785678852E+04  0.13786458796E+04  0.10000000000E+02 0.  1.
</event>
<event>
 5    1  0.1129619E-008  0.3825502E+03  0.7957747E-01  0.3440129E+00
         13   -1    0    0    0    0  0.00000000000E+00  0.00000000000E+00  0.14999999963E+04  0.15000000000E+04  0.10566000000E+00 0. -1.
        994   -1    0    0    0    0 -0.00000000000E+00 -0.00000000000E+00  0.11368683772E-12  0.17120000000E+03  0.17120000000E+03 0.  0.
         13    1    1    2    0    0  0.14163896484E+03 -0.62256487126E+01  0.42613722173E+03  0.44910276994E+03  0.10566000000E+00 0. -1.
        994    1    1    2    0    0 -0.12719998359E+03 -0.28076561998E+01  0.79647704633E+02  0.22768600223E+03  0.17120000000E+03 0.  0.
        998    1    1    2    0    0 -0.14438981255E+02  0.90333049124E+01  0.99421506992E+03  0.99441122783E+03  0.10000000000E+02 0. -1.
</event>
<event>
 5    1  0.1129619E-008  0.3853774E+03  0.7957747E-01  0.3428073E+00
         13   -1    0    0    0    0  0.00000000000E+00  0.00000000000E+00  0.14999999963E+04  0.15000000000E+04  0.10566000000E+00 0.  1.
        994   -1    0    0    0    0 -0.00000000000E+00 -0.00000000000E+00  0.11368683772E-12  0.17120000000E+03  0.17120000000E+03 0.  0.
         13    1    1    2    0    0 -0.10746697341E+02 -0.10645010807E+02  0.82560657084E+02  0.83934980914E+02  0.10566000000E+00 0.  1.
        994    1    1    2    0    0 -0.14610427608E+01  0.87852140389E+01  0.17034388641E+01  0.17143994965E+03  0.17120000000E+03 0.  0.
        998    1    1    2    0    0  0.12207740102E+02  0.18597967679E+01  0.14157359003E+04  0.14158250694E+04  0.10000000000E+02 0.  1.
</event>
<event>
 5    1  0.1129619E-008  0.3843395E+03  0.7957747E-01  0.3432478E+00
         13   -1    0    0    0    0  0.00000000000E+00  0.00000000000E+00  0.14999999963E+04  0.15000000000E+04  0.10566000000E+00 0. -1.
        994   -1    0    0    0    0 -0.00000000000E+00 -0.00000000000E+00  0.11368683772E-12  0.17120000000E+03  0.17120000000E+03 0.  0.
         13    1    1    2    0    0  0.15262368521E+02  0.24430215841E+01  0.64235317343E+02  0.66068868656E+02  0.10566000000E+00 0. -1.
        994    1    1    2    0    0 -0.27680841633E+01  0.13410804010E+02  0.25766667156E+01  0.17176609434E+03  0.17120000000E+03 0.  0.
        998    1    1    2    0    0 -0.12494284358E+02 -0.15853825594E+02  0.14331880122E+04  0.14333650370E+04  0.10000000000E+02 0. -1.
</event>
<event>
 5    1  0.1129619E-008  0.3744029E+03  0.7957747E-01  0.3475898E+00
         13   -1    0    0    0    0  0.00000000000E+00  0.00000000000E+00  0.14999999963E+04  0.15000000000E+04  0.10566000000E+00 0. -1.
        994   -1    0    0    0    0 -0.00000000000E+00 -0.00000000000E+00  0.11368683772E-12  0.17120000000E+03  0.17120000000E+03 0.  0.
         13    1    1    2    0    0 -0.67672388737E+02 -0.76719803553E+02  0.52367725086E+03  0.53357600648E+03  0.10566000000E+00 0. -1.
        994    1    1    2    0    0  0.54487150738E+02  0.77576752432E+02  0.38241276908E+02  0.19939618194E+03  0.17120000000E+03 0.  0.
        998    1    1    2    0    0  0.13185237998E+02 -0.85694887920E+00  0.93808146851E+03  0.93822781158E+03  0.10000000000E+02 0. -1.
</event>
<event>
 5    1  0.1129619E-008  0.3830324E+03  0.7957747E-01  0.3438060E+00
         13   -1    0    0    0    0  0.00000000000E+00  0.00000000000E+00  0.14999999963E+04  0.15000000000E+04  0.10566000000E+00 0. -1.
        994   -1    0    0    0    0 -0.00000000000E+00 -0.00000000000E+00  0.11368683772E-12  0.17120000000E+03  0.17120000000E+03 0.  0.
         13    1    1    2    0    0  0.14115192079E+02 -0.10592777489E+02  0.60736708871E+02  0.63248751378E+02  0.10566000000E+00 0. -1.
        994    1    1    2    0    0  0.19349436079E+02  0.36734715788E+02  0.83367430917E+01  0.17635980638E+03  0.17120000000E+03 0.  0.
        998    1    1    2    0    0 -0.33464628158E+02 -0.26141938300E+02  0.14309265443E+04  0.14315914422E+04  0.10000000000E+02 0. -1.
</event>
<event>
 5    1  0.1129619E-008  0.3849324E+03  0.7957747E-01  0.3429959E+00
         13   -1    0    0    0    0  0.00000000000E+00  0.00000000000E+00  0.14999999963E+04  0.15000000000E+04  0.10566000000E+00 0. -1.
        994   -1    0    0    0    0 -0.00000000000E+00 -0.00000000000E+00  0.11368683772E-12  0.17120000000E+03  0.17120000000E+03 0.  0.
         13    1    1    2    0    0 -0.79538777198E+01  0.10331761952E+02  0.50233249593E+02  0.51897976883E+02  0.10566000000E+00 0. -1.
        994    1    1    2    0    0  0.10389925405E+02 -0.65163167092E+01  0.21586422437E+01  0.17165230167E+03  0.17120000000E+03 0.  0.
        998    1    1    2    0    0 -0.24360476854E+01 -0.38154452431E+01  0.14476081044E+04  0.14476497214E+04  0.10000000000E+02 0. -1.
</event>
<event>
 5    1  0.1129619E-008  0.3816405E+03  0.7957747E-01  0.3444046E+00
         13   -1    0    0    0    0  0.00000000000E+00  0.00000000000E+00  0.14999999963E+04  0.15000000000E+04  0.10566000000E+00 0.  1.
        994   -1    0    0    0    0 -0.00000000000E+00 -0.00000000000E+00  0.11368683772E-12  0.17120000000E+03  0.17120000000E+03 0.  0.
         13    1    1    2    0    0 -0.15004390635E+02 -0.12677634244E+02  0.57831479006E+02  0.61076552591E+02  0.10566000000E+00 0.  1.
        994    1    1    2    0    0  0.36816323397E+01  0.11481003266E+02  0.37907828557E+01  0.17166589028E+03  0.17120000000E+03 0.  0.
        998    1    1    2    0    0  0.11322758295E+02  0.11966309779E+01  0.14383777344E+04  0.14384575571E+04  0.10000000000E+02 0.  1.
</event>
<event>
 5    1  0.1129619E-008  0.3732713E+03  0.7957747E-01  0.3480990E+00
         13   -1    0    0    0    0  0.00000000000E+00  0.00000000000E+00  0.14999999963E+04  0.15000000000E+04  0.10566000000E+00 0. -1.
        994   -1    0    0    0    0 -0.00000000000E+00 -0.00000000000E+00  0.11368683772E-12  0.17120000000E+03  0.17120000000E+03 0.  0.
         13    1    1    2    0    0  0.24607155493E+02 -0.77960767268E+02  0.32325965348E+03  0.33343696266E+03  0.10566000000E+00 0. -1.
        994    1    1    2    0    0 -0.20063146623E+02  0.87353983188E+02  0.35555085994E+02  0.19648626510E+03  0.17120000000E+03 0.  0.
        998    1    1    2    0    0 -0.45440088704E+01 -0.93932159200E+01  0.11411852568E+04  0.11412767722E+04  0.10000000000E+02 0. -1.
</event>
<event>
 5    1  0.1129619E-008  0.3761145E+03  0.7957747E-01  0.3468253E+00
         13   -1    0    0    0    0  0.00000000000E+00  0.00000000000E+00  0.14999999963E+04  0.15000000000E+04  0.10566000000E+00 0.  1.
        994   -1    0    0    0    0 -0.00000000000E+00 -0.00000000000E+00  0.11368683772E-12  0.17120000000E+03  0.17120000000E+03 0.  0.
         13    1    1    2    0    0  0.16391832381E+02 -0.96527345081E+02  0.52897099140E+03  0.53795589171E+03  0.10566000000E+00 0.  1.
        994    1    1    2    0    0 -0.23699947833E+02  0.90361480958E+02  0.36258080270E+02  0.19837079713E+03  0.17120000000E+03 0.  0.
        998    1    1    2    0    0  0.73081154529E+01  0.61658641231E+01  0.93477092461E+03  0.93487331116E+03  0.10000000000E+02 0. -1.
</event>
<event>
 5    1  0.1129619E-008  0.3832048E+03  0.7957747E-01  0.3437322E+00
         13   -1    0    0    0    0  0.00000000000E+00  0.00000000000E+00  0.14999999963E+04  0.15000000000E+04  0.10566000000E+00 0.  1.
        994   -1    0    0    0    0 -0.00000000000E+00 -0.00000000000E+00  0.11368683772E-12  0.17120000000E+03  0.17120000000E+03 0.  0.
         13    1    1    2    0    0  0.21762435212E+02 -0.73286422290E+01  0.12806377057E+03  0.13010631453E+03  0.10566000000E+00 0.  1.
        994    1    1    2    0    0  0.18535552526E+02  0.14092459621E+02  0.43195354387E+01  0.17283015510E+03  0.17120000000E+03 0.  0.
        998    1    1    2    0    0 -0.40297987738E+02 -0.67638173917E+01  0.13676166903E+04  0.13682635304E+04  0.10000000000E+02 0.  1.
</event>
<event>
 5    1  0.1129619E-008  0.3773154E+03  0.7957747E-01  0.3462932E+00
         13   -1    0    0    0    0  0.00000000000E+00  0.00000000000E+00  0.14999999963E+04  0.15000000000E+04  0.10566000000E+00 0.  1.
        994   -1    0    0    0    0 -0.00000000000E+00 -0.00000000000E+00  0.11368683772E-12  0.17120000000E+03  0.17120000000E+03 0.  0.
         13    1    1    2    0    0  0.12269304637E+02  0.49814376480E+02  0.23794460982E+03  0.24341252319E+03  0.10566000000E+00 0.  1.
        994    1    1    2    0    0  0.46989078881E+02 -0.46346378676E+02  0.20330384314E+02  0.18460423851E+03  0.17120000000E+03 0.  0.
        998    1    1    2    0    0 -0.59258383518E+02 -0.34679978039E+01  0.12417250021E+04  0.12431832383E+04  0.10000000000E+02 0.  1.
</event>
<event>
 5    1  0.1129619E-008  0.3778699E+03  0.7957747E-01  0.3460486E+00
         13   -1    0    0    0    0  0.00000000000E+00  0.00000000000E+00  0.14999999963E+04  0.15000000000E+04  0.10566000000E+00 0.  1.
        994   -1    0    0    0    0 -0.00000000000E+00 -0.00000000000E+00  0.11368683772E-12  0.17120000000E+03  0.17120000000E+03 0.  0.
         13    1    1    2    0    0 -0.11684282545E+02 -0.97953378060E+00  0.11130440695E+02  0.16167245255E+02  0.10566000000E+00 0.  1.
        994    1    1    2    0    0 -0.39762319702E+01  0.18722779518E+02  0.64466330018E+01  0.17238721522E+03  0.17120000000E+03 0.  0.
        998    1    1    2    0    0  0.15660514515E+02 -0.17743245738E+02  0.14824229226E+04  0.14826455395E+04  0.10000000000E+02 0.  1.
</event>
<event>
 5    1  0.1129619E-008  0.3840527E+03  0.7957747E-01  0.3433700E+00
         13   -1    0    0    0    0  0.00000000000E+00  0.00000000000E+00  0.14999999963E+04  0.15000000000E+04  0.10566000000E+00 0. -1.
        994   -1    0    0    0    0 -0.00000000000E+00 -0.00000000000E+00  0.11368683772E-12  0.17120000000E+03  0.17120000000E+03 0.  0.
         13    1    1    2    0    0 -0.26349568814E+02 -0.55153338578E+01  0.15228677550E+03  0.15464796100E+03  0.10566000000E+00 0. -1.
        994    1    1    2    0    0  0.30469004740E+02  0.33659108515E+01  0.52071673544E+01  0.17400070172E+03  0.17120000000E+03 0.  0.
        998    1    1    2    0    0 -0.41194359263E+01  0.21494230063E+01  0.13425060534E+04  0.13425513373E+04  0.10000000000E+02 0. -1.
</event>
<event>
 5    1  0.1677773E-008  0.3863186E+03  0.7957747E-01  0.3424099E+00
         13   -1    0    0    0    0  0.00000000000E+00  0.00000000000E+00  0.14999999963E+04  0.15000000000E+04  0.10566000000E+00 0.  1.
        994   -1    0    0    0    0 -0.00000000000E+00 -0.00000000000E+00  0.11368683772E-12  0.17120000000E+03  0.17120000000E+03 0.  0.
         13    1    1    2    0    0  0.55922056507E+01 -0.88179467588E+01  0.56204761740E+02  0.57166558015E+02  0.10566000000E+00 0.  1.
        994    1    1    2    0    0 -0.31219881370E+01  0.79904897078E+01  0.12179344490E+01  0.17141912991E+03  0.17120000000E+03 0.  0.
        998    1    1    2    0    0 -0.24702175137E+01  0.82745705103E+00  0.14425773001E+04  0.14426143121E+04  0.10000000000E+02 0.  1.
</event>
<event>
 5    1  0.1129619E-008  0.3829771E+03  0.7957747E-01  0.3438297E+00
         13   -1    0    0    0    0  0.00000000000E+00  0.00000000000E+00  0.14999999963E+04  0.15000000000E+04  0.10566000000E+00 0.  1.
        994   -1    0    0    0    0 -0.00000000000E+00 -0.00000000000E+00  0.11368683772E-12  0.17120000000E+03  0.17120000000E+03 0.  0.
         13    1    1    2    0    0 -0.10657640231E+02 -0.15597064152E+01  0.25686149231E+02  0.27853319474E+02  0.10566000000E+00 0.  1.
        994    1    1    2    0    0 -0.48867395609E+02 -0.17831439108E+02  0.11647723019E+02  0.17930725592E+03  0.17120000000E+03 0.  0.
        998    1    1    2    0    0  0.59525035840E+02  0.19391145524E+02  0.14626661240E+04  0.14640394246E+04  0.10000000000E+02 0.  1.
</event>
<event>
 5    1  0.1129619E-008  0.3771915E+03  0.7957747E-01  0.3463479E+00
         13   -1    0    0    0    0  0.00000000000E+00  0.00000000000E+00  0.14999999963E+04  0.15000000000E+04  0.10566000000E+00 0.  1.
        994   -1    0    0    0    0 -0.00000000000E+00 -0.00000000000E+00  0.11368683772E-12  0.17120000000E+03  0.17120000000E+03 0.  0.
         13    1    1    2    0    0 -0.29215344949E+02 -0.30428947123E+02  0.50179533063E+02  0.65554968583E+02  0.10566000000E+00 0.  1.
        994    1    1    2    0    0  0.51709142919E+02  0.34754194094E+02  0.28849636172E+02  0.18445441436E+03  0.17120000000E+03 0.  0.
        998    1    1    2    0    0 -0.22493797970E+02 -0.43252469714E+01  0.14209708270E+04  0.14211906171E+04  0.10000000000E+02 0.  1.
</event>
<event>
 5    1  0.1129619E-008  0.3835862E+03  0.7957747E-01  0.3435691E+00
         13   -1    0    0    0    0  0.00000000000E+00  0.00000000000E+00  0.14999999963E+04  0.15000000000E+04  0.10566000000E+00 0. -1.
        994   -1    0    0    0    0 -0.00000000000E+00 -0.00000000000E+00  0.11368683772E-12  0.17120000000E+03  0.17120000000E+03 0.  0.
         13    1    1    2    0    0  0.21495487804E+02  0.10143801497E+02  0.14246773605E+03  0.14443690554E+03  0.10566000000E+00 0. -1.
        994    1    1    2    0    0  0.75482717959E+01 -0.24519914890E+01  0.25418310177E+01  0.17140271169E+03  0.17120000000E+03 0.  0.
        998    1    1    2    0    0 -0.29043759600E+02 -0.76918100084E+01  0.13549904292E+04  0.13553603828E+04  0.10000000000E+02 0. -1.
</event>
<event>
 5    1  0.1129619E-008  0.3782311E+03  0.7957747E-01  0.3458897E+00
         13   -1    0    0    0    0  0.00000000000E+00  0.00000000000E+00  0.14999999963E+04  0.15000000000E+04  0.10566000000E+00 0.  1.
        994   -1    0    0    0    0 -0.00000000000E+00 -0.00000000000E+00  0.11368683772E-12  0.17120000000E+03  0.17120000000E+03 0.  0.
         13    1    1    2    0    0 -0.69438171982E+02  0.30383231083E+02  0.41679985315E+03  0.42363537295E+03  0.10566000000E+00 0.  1.
        994    1    1    2    0    0  0.66997074344E+02 -0.32446858856E+02  0.23894297040E+02  0.18820675878E+03  0.17120000000E+03 0.  0.
        998    1    1    2    0    0  0.24410976377E+01  0.20636277726E+01  0.10593058461E+04  0.10593578683E+04  0.10000000000E+02 0.  0.
</event>
<event>
 5    1  0.1129619E-008  0.3698286E+03  0.7957747E-01  0.3496679E+00
         13   -1    0    0    0    0  0.00000000000E+00  0.00000000000E+00  0.14999999963E+04  0.15000000000E+04  0.10566000000E+00 0.  1.
        994   -1    0    0    0    0 -0.00000000000E+00 -0.00000000000E+00  0.11368683772E-12  0.17120000000E+03  0.17120000000E+03 0.  0.
         13    1    1    2    0    0  0.12847761030E+03 -0.25508636137E+03  0.10566346963E+04  0.10945558189E+04  0.10566000000E+00 0.  1.
        994    1    1    2    0    0 -0.11737421513E+03  0.23186951114E+03  0.30569577757E+03  0.43623333778E+03  0.17120000000E+03 0.  0.
        998    1    1    2    0    0 -0.11103395161E+02  0.23216850231E+02  0.13766952242E+03  0.14041084332E+03  0.10000000000E+02 0.  0.
</event>
<event>
 5    1  0.1129619E-008  0.3821068E+03  0.7957747E-01  0.3442036E+00
         13   -1    0    0    0    0  0.00000000000E+00  0.00000000000E+00  0.14999999963E+04  0.15000000000E+04  0.10566000000E+00 0.  1.
        994   -1    0    0    0    0 -0.00000000000E+00 -0.00000000000E+00  0.11368683772E-12  0.17120000000E+03  0.17120000000E+03 0.  0.
         13    1    1    2    0    0 -0.14161074658E+01 -0.24846931015E+02  0.10340164048E+03  0.10635452862E+03  0.10566000000E+00 0.  1.
        994    1    1    2    0    0  0.54159498867E+01  0.90725450800E+01  0.34441416629E+01  0.17156032671E+03  0.17120000000E+03 0.  0.
        998    1    1    2    0    0 -0.39998424209E+01  0.15774385935E+02  0.13931542141E+04  0.13932851447E+04  0.10000000000E+02 0.  1.
</event>
<event>
 5    1  0.1129619E-008  0.3812813E+03  0.7957747E-01  0.3445598E+00
         13   -1    0    0    0    0  0.00000000000E+00  0.00000000000E+00  0.14999999963E+04  0.15000000000E+04  0.10566000000E+00 0. -1.
        994   -1    0    0    0    0 -0.00000000000E+00 -0.00000000000E+00  0.11368683772E-12  0.17120000000E+03  0.17120000000E+03 0.  0.
         13    1    1    2    0    0  0.35360882169E+02  0.17968547133E+02  0.20758105906E+03  0.21133662229E+03  0.10566000000E+00 0. -1.
        994    1    1    2    0    0 -0.34927476581E+02 -0.36816295200E+01  0.76046902754E+01  0.17493071294E+03  0.17120000000E+03 0.  0.
        998    1    1    2    0    0 -0.43340558761E+00 -0.14286917613E+02  0.12848142469E+04  0.12849326648E+04  0.10000000000E+02 0. -1.
</event>
<event>
 5    1  0.1129619E-008  0.3752899E+03  0.7957747E-01  0.3471927E+00
         13   -1    0    0    0    0  0.00000000000E+00  0.00000000000E+00  0.14999999963E+04  0.15000000000E+04  0.10566000000E+00 0. -1.
        994   -1    0    0    0    0 -0.00000000000E+00 -0.00000000000E+00  0.11368683772E-12  0.17120000000E+03  0.17120000000E+03 0.  0.
         13    1    1    2    0    0 -0.10371187230E+02  0.13329089237E+02  0.18998852051E+02  0.25420340040E+02  0.10566000000E+00 0. -1.
        994    1    1    2    0    0  0.99236302448E+01 -0.83359231639E+01  0.71005527193E+01  0.17183661979E+03  0.17120000000E+03 0.  0.
        998    1    1    2    0    0  0.44755698563E+00 -0.49931660731E+01  0.14739005915E+04  0.14739430402E+04  0.10000000000E+02 0. -1.
</event>
<event>
 5    1  0.1129619E-008  0.3796960E+03  0.7957747E-01  0.3452483E+00
         13   -1    0    0    0    0  0.00000000000E+00  0.00000000000E+00  0.14999999963E+04  0.15000000000E+04  0.10566000000E+00 0.  1.
        994   -1    0    0    0    0 -0.00000000000E+00 -0.00000000000E+00  0.11368683772E-12  0.17120000000E+03  0.17120000000E+03 0.  0.
         13    1    1    2    0    0 -0.61481072801E+01 -0.20937488452E+02  0.53518384186E+02  0.57796247765E+02  0.10566000000E+00 0.  1.
        994    1    1    2    0    0  0.65632420555E+01  0.14991440925E+02  0.51833731794E+01  0.17205849821E+03  0.17120000000E+03 0.  0.
        998    1    1    2    0    0 -0.41513477544E+00  0.59460475267E+01  0.14412982389E+04  0.14413452540E+04  0.10000000000E+02 0.  1.
</event>
<event>
 5    1  0.1129619E-008  0.3836239E+03  0.7957747E-01  0.3435529E+00
         13   -1    0    0    0    0  0.00000000000E+00  0.00000000000E+00  0.14999999963E+04  0.15000000000E+04  0.10566000000E+00 0. -1.
        994   -1    0    0    0    0 -0.00000000000E+00 -0.00000000000E+00  0.11368683772E-12  0.17120000000E+03  0.17120000000E+03 0.  0.
         13    1    1    2    0    0 -0.20412581309E+02  0.15178701720E+02  0.13499515260E+03  0.13737091705E+03  0.10566000000E+00 0. -1.
        994    1    1    2    0    0  0.15178934714E+02 -0.12022906478E+02  0.35544485753E+01  0.17232824622E+03  0.17120000000E+03 0.  0.
        998    1    1    2    0    0  0.52336465942E+01 -0.31557952422E+01  0.13614503951E+04  0.13615008367E+04  0.10000000000E+02 0. -1.
</event>
<event>
 5    1  0.1129619E-008  0.3812314E+03  0.7957747E-01  0.3445814E+00
         13   -1    0    0    0    0  0.00000000000E+00  0.00000000000E+00  0.14999999963E+04  0.15000000000E+04  0.10566000000E+00 0.  1.
        994   -1    0    0    0    0 -0.00000000000E+00 -0.00000000000E+00  0.11368683772E-12  0.17120000000E+03  0.17120000000E+03 0.  0.
         13    1    1    2    0    0 -0.20801343924E+02  0.70759408153E+01  0.67290626670E+02  0.70787035883E+02  0.10566000000E+00 0.  1.
        994    1    1    2    0    0  0.13461983379E+02 -0.59472752671E+01  0.42342847519E+01  0.17188357760E+03  0.17120000000E+03 0.  0.
        998    1    1    2    0    0  0.73393605449E+01 -0.11286655482E+01  0.14284750849E+04  0.14285293865E+04  0.10000000000E+02 0.  1.
</event>
<event>
 5    1  0.1129619E-008  0.3730541E+03  0.7957747E-01  0.3481972E+00
         13   -1    0    0    0    0  0.00000000000E+00  0.00000000000E+00  0.14999999963E+04  0.15000000000E+04  0.10566000000E+00 0.  1.
        994   -1    0    0    0    0 -0.00000000000E+00 -0.00000000000E+00  0.11368683772E-12  0.17120000000E+03  0.17120000000E+03 0.  0.
         13    1    1    2    0    0 -0.82381575519E+01 -0.20930891937E+02  0.29624893231E+02  0.37196974879E+02  0.10566000000E+00 0.  1.
        994    1    1    2    0    0  0.50938771147E+01  0.16679067491E+02  0.87227434808E+01  0.17230689229E+03  0.17120000000E+03 0.  0.
        998    1    1    2    0    0  0.31442804372E+01  0.42518244464E+01  0.14616523596E+04  0.14616961328E+04  0.10000000000E+02 0.  1.
</event>
<event>
 5    1  0.1129619E-008  0.3848541E+03  0.7957747E-01  0.3430291E+00
         13   -1    0    0    0    0  0.00000000000E+00  0.00000000000E+00  0.14999999963E+04  0.15000000000E+04  0.10566000000E+00 0. -1.
        994   -1    0    0    0    0 -0.00000000000E+00 -0.00000000000E+00  0.11368683772E-12  0.17120000000E+03  0.17120000000E+03 0.  0.
         13    1    1    2    0    0  0.11431203847E+02 -0.16362560018E+00  0.36907353044E+02  0.38637586202E+02  0.10566000000E+00 0. -1.
        994    1    1    2    0    0 -0.14942510901E+02 -0.52493459916E+01  0.25283181529E+01  0.17194960500E+03  0.17120000000E+03 0.  0.
        998    1    1    2    0    0  0.35113070541E+01  0.54129715918E+01  0.14605643251E+04  0.14606128088E+04  0.10000000000E+02 0. -1.
</event>
<event>
 5    1  0.2659943E-008  0.3864170E+03  0.7957747E-01  0.3423685E+00
         13   -1    0    0    0    0  0.00000000000E+00  0.00000000000E+00  0.14999999963E+04  0.15000000000E+04  0.10566000000E+00 0.  1.
        994   -1    0    0    0    0 -0.00000000000E+00 -0.00000000000E+00  0.11368683772E-12  0.17120000000E+03  0.17120000000E+03 0.  0.
         13    1    1    2    0    0 -0.11056272239E+02 -0.72061263223E+00  0.63577285645E+02  0.64535593686E+02  0.10566000000E+00 0.  1.
        994    1    1    2    0    0  0.14501608911E+02  0.25090739353E+01  0.16376128764E+01  0.17183920941E+03  0.17120000000E+03 0.  0.
        998    1    1    2    0    0 -0.34453366720E+01 -0.17884613031E+01  0.14347850978E+04  0.14348251969E+04  0.10000000000E+02 0.  1.
</event>
<event>
 5    1  0.1129619E-008  0.3797553E+03  0.7957747E-01  0.3452225E+00
         13   -1    0    0    0    0  0.00000000000E+00  0.00000000000E+00  0.14999999963E+04  0.15000000000E+04  0.10566000000E+00 0. -1.
        994   -1    0    0    0    0 -0.00000000000E+00 -0.00000000000E+00  0.11368683772E-12  0.17120000000E+03  0.17120000000E+03 0.  0.
         13    1    1    2    0    0  0.65797747733E+02  0.62725127416E+02  0.36438358081E+03  0.37555184774E+03  0.10566000000E+00 0. -1.
        994    1    1    2    0    0 -0.77376577486E+02 -0.16093494929E+03  0.11958663139E+03  0.27476825700E+03  0.17120000000E+03 0.  0.
        998    1    1    2    0    0  0.11578829753E+02  0.98209821873E+02  0.10160297841E+04  0.10208798953E+04  0.10000000000E+02 0. -1.
</event>
<event>
 5    1  0.1129619E-008  0.3781009E+03  0.7957747E-01  0.3459470E+00
         13   -1    0    0    0    0  0.00000000000E+00  0.00000000000E+00  0.14999999963E+04  0.15000000000E+04  0.10566000000E+00 0.  1.
        994   -1    0    0    0    0 -0.00000000000E+00 -0.00000000000E+00  0.11368683772E-12  0.17120000000E+03  0.17120000000E+03 0.  0.
         13    1    1    2    0    0 -0.20599602482E+02  0.45064544024E+00  0.39022082651E+02  0.44128004739E+02  0.10566000000E+00 0.  1.
        994    1    1    2    0    0  0.18761716652E+02 -0.32839439683E+01  0.63162538589E+01  0.17237204345E+03  0.17120000000E+03 0.  0.
        998    1    1    2    0    0  0.18378858302E+01  0.28332985281E+01  0.14546616598E+04  0.14546999518E+04  0.10000000000E+02 0.  1.
</event>
<event>
 5    1  0.1129619E-008  0.3848964E+03  0.7957747E-01  0.3430112E+00
         13   -1    0    0    0    0  0.00000000000E+00  0.00000000000E+00  0.14999999963E+04  0.15000000000E+04  0.10566000000E+00 0.  1.
        994   -1    0    0    0    0 -0.00000000000E+00 -0.00000000000E+00  0.11368683772E-12  0.17120000000E+03  0.17120000000E+03 0.  0.
         13    1    1    2    0    0 -0.21805280307E+02  0.45424236684E+00  0.12644271820E+03  0.12830997130E+03  0.10566000000E+00 0.  1.
        994    1    1    2    0    0  0.26644324451E+02 -0.13632686243E+02  0.46339861027E+01  0.17385822956E+03  0.17120000000E+03 0.  0.
        998    1    1    2    0    0 -0.48390441441E+01  0.13178443876E+02  0.13689232920E+04  0.13690317991E+04  0.10000000000E+02 0.  1.
</event>
<event>
 5    1  0.1129619E-008  0.3741834E+03  0.7957747E-01  0.3476883E+00
         13   -1    0    0    0    0  0.00000000000E+00  0.00000000000E+00  0.14999999963E+04  0.15000000000E+04  0.10566000000E+00 0. -1.
        994   -1    0    0    0    0 -0.00000000000E+00 -0.00000000000E+00  0.11368683772E-12  0.17120000000E+03  0.17120000000E+03 0.  0.
         13    1    1    2    0    0  0.68876971483E+02  0.16963755248E+03  0.92796926480E+03  0.94585828959E+03  0.10566000000E+00 0. -1.
        994    1    1    2    0    0 -0.95045861606E+02 -0.15189710910E+03  0.12587887940E+03  0.27795931328E+03  0.17120000000E+03 0.  0.
        998    1    1    2    0    0  0.26168890123E+02 -0.17740443377E+02  0.44615185209E+03  0.44738239713E+03  0.10000000000E+02 0.  1.
</event>
<event>
 5    1  0.1129619E-008  0.3763243E+03  0.7957747E-01  0.3467321E+00
         13   -1    0    0    0    0  0.00000000000E+00  0.00000000000E+00  0.14999999963E+04  0.15000000000E+04  0.10566000000E+00 0. -1.
        994   -1    0    0    0    0 -0.00000000000E+00 -0.00000000000E+00  0.11368683772E-12  0.17120000000E+03  0.17120000000E+03 0.  0.
         13    1    1    2    0    0 -0.19340469611E+01 -0.31347664966E+02  0.85412676241E+02  0.91004137616E+02  0.10566000000E+00 0. -1.
        994    1    1    2    0    0 -0.48178387773E+01  0.39951500131E+01  0.61328076361E+01  0.17142410602E+03  0.17120000000E+03 0.  0.
        998    1    1    2    0    0  0.67518857384E+01  0.27352514953E+02  0.14084545124E+04  0.14087717564E+04  0.10000000000E+02 0. -1.
</event>
<event>
 5    1  0.1129619E-008  0.3780207E+03  0.7957747E-01  0.3459822E+00
         13   -1    0    0    0    0  0.00000000000E+00  0.00000000000E+00  0.14999999963E+04  0.15000000000E+04  0.10566000000E+00 0. -1.
        994   -1    0    0    0    0 -0.00000000000E+00 -0.00000000000E+00  0.11368683772E-12  0.17120000000E+03  0.17120000000E+03 0.  0.
         13    1    1    2    0    0 -0.19061273377E+02 -0.30766330825E+00  0.38607940685E+02  0.43058228568E+02  0.10566000000E+00 0. -1.
        994    1    1    2    0    0 -0.33890950118E+02 -0.28020655556E+02  0.11670334692E+02  0.17714228843E+03  0.17120000000E+03 0.  0.
        998    1    1    2    0    0  0.52952223494E+02  0.28328318864E+02  0.14497217209E+04  0.14509994830E+04  0.10000000000E+02 0. -1.
</event>
<event>
 5    1  0.1129619E-008  0.3800147E+03  0.7957747E-01  0.3451095E+00
         13   -1    0    0    0    0  0.00000000000E+00  0.00000000000E+00  0.14999999963E+04  0.15000000000E+04  0.10566000000E+00 0. -1.
        994   -1    0    0    0    0 -0.00000000000E+00 -0.00000000000E+00  0.11368683772E-12  0.17120000000E+03  0.17120000000E+03 0.  0.
         13    1    1    2    0    0 -0.51806583081E+01  0.14540927366E+02  0.27217823637E+02  0.31290555712E+02  0.10566000000E+00 0. -1.
        994    1    1    2    0    0  0.84035457617E+01 -0.82757177262E+01  0.45908754604E+01  0.17166718738E+03  0.17120000000E+03 0.  0.
        998    1    1    2    0    0 -0.32228874535E+01 -0.62652096393E+01  0.14681912972E+04  0.14682422569E+04  0.10000000000E+02 0. -1.
</event>
<event>
 5    1  0.1129619E-008  0.3479725E+03  0.7957747E-01  0.3603684E+00
         13   -1    0    0    0    0  0.00000000000E+00  0.00000000000E+00  0.14999999963E+04  0.15000000000E+04  0.10566000000E+00 0.  1.
        994   -1    0    0    0    0 -0.00000000000E+00 -0.00000000000E+00  0.11368683772E-12  0.17120000000E+03  0.17120000000E+03 0.  0.
         13    1    1    2    0    0  0.16487146590E+03 -0.15790347582E+03  0.97193644568E+03  0.99838698587E+03  0.10566000000E+00 0.  1.
        994    1    1    2    0    0 -0.13211069092E+03  0.17644489541E+03  0.20223748421E+03  0.34466719570E+03  0.17120000000E+03 0.  0.
        998    1    1    2    0    0 -0.32760774985E+02 -0.18541419591E+02  0.32582606639E+03  0.32814581843E+03  0.10000000000E+02 0.  1.
</event>
<event>
 5    1  0.1129619E-008  0.3841643E+03  0.7957747E-01  0.3433224E+00
         13   -1    0    0    0    0  0.00000000000E+00  0.00000000000E+00  0.14999999963E+04  0.15000000000E+04  0.10566000000E+00 0.  1.
        994   -1    0    0    0    0 -0.00000000000E+00 -0.00000000000E+00  0.11368683772E-12  0.17120000000E+03  0.17120000000E+03 0.  0.
         13    1    1    2    0    0  0.86119605995E+01 -0.51612522560E+01  0.23997704867E+02  0.26013561715E+02  0.10566000000E+00 0.  1.
        994    1    1    2    0    0 -0.71488264417E+01  0.25426509312E+01  0.22354685547E+01  0.17138263656E+03  0.17120000000E+03 0.  0.
        998    1    1    2    0    0 -0.14631341578E+01  0.26186013248E+01  0.14737668229E+04  0.14738038017E+04  0.10000000000E+02 0.  1.
</event>
<event>
 5    1  0.1129619E-008  0.3846291E+03  0.7957747E-01  0.3431247E+00
         13   -1    0    0    0    0  0.00000000000E+00  0.00000000000E+00  0.14999999963E+04  0.15000000000E+04  0.10566000000E+00 0. -1.
        994   -1    0    0    0    0 -0.00000000000E+00 -0.00000000000E+00  0.11368683772E-12  0.17120000000E+03  0.17120000000E+03 0.  0.
         13    1    1    2    0    0 -0.99697816696E+01  0.91395148298E+01  0.50077748520E+02  0.51872144150E+02  0.10566000000E+00 0. -1.
        994    1    1    2    0    0  0.11450001011E+02 -0.15110756022E+01  0.22537039008E+01  0.17160391911E+03  0.17120000000E+03 0.  0.
        998    1    1    2    0    0 -0.14802193412E+01 -0.76284392276E+01  0.14476685439E+04  0.14477239367E+04  0.10000000000E+02 0. -1.
</event>
<event>
 5    1  0.1129619E-008  0.3830265E+03  0.7957747E-01  0.3438085E+00
         13   -1    0    0    0    0  0.00000000000E+00  0.00000000000E+00  0.14999999963E+04  0.15000000000E+04  0.10566000000E+00 0. -1.
        994   -1    0    0    0    0 -0.00000000000E+00 -0.00000000000E+00  0.11368683772E-12  0.17120000000E+03  0.17120000000E+03 0.  0.
         13    1    1    2    0    0 -0.17103643910E+02 -0.16781304084E+02  0.12907420158E+03  0.13127950137E+03  0.10566000000E+00 0. -1.
        994    1    1    2    0    0  0.60307833105E+01 -0.16970714942E+02  0.36874602466E+01  0.17218424108E+03  0.17120000000E+03 0.  0.
        998    1    1    2    0    0  0.11072860600E+02  0.33752019026E+02  0.13672383345E+04  0.13677362576E+04  0.10000000000E+02 0. -1.
</event>
<event>
 5    1  0.1129619E-008  0.3804295E+03  0.7957747E-01  0.3449291E+00
         13   -1    0    0    0    0  0.00000000000E+00  0.00000000000E+00  0.14999999963E+04  0.15000000000E+04  0.10566000000E+00 0. -1.
        994   -1    0    0    0    0 -0.00000000000E+00 -0.00000000000E+00  0.11368683772E-12  0.17120000000E+03  0.17120000000E+03 0.  0.
         13    1    1    2    0    0 -0.23524268248E+02 -0.28048109257E+02  0.21957920326E+03  0.22260980504E+03  0.10566000000E+00 0. -1.
        994    1    1    2    0    0 -0.48841487752E+01 -0.83069324678E+01  0.42265632940E+01  0.17152307097E+03  0.17120000000E+03 0.  0.
        998    1    1    2    0    0  0.28408417023E+02  0.36355041725E+02  0.12761942297E+04  0.12770671240E+04  0.10000000000E+02 0. -1.
</event>
<event>
 5    1  0.1129619E-008  0.3736013E+03  0.7957747E-01  0.3479502E+00
         13   -1    0    0    0    0  0.00000000000E+00  0.00000000000E+00  0.14999999963E+04  0.15000000000E+04  0.10566000000E+00 0. -1.
        994   -1    0    0    0    0 -0.00000000000E+00 -0.00000000000E+00  0.11368683772E-12  0.17120000000E+03  0.17120000000E+03 0.  0.
         13    1    1    2    0    0  0.54002051611E+02 -0.20381344134E+02  0.31387920668E+03  0.31914226971E+03  0.10566000000E+00 0. -1.
        994    1    1    2    0    0 -0.14245475757E+02 -0.53659813157E+02  0.17999887236E+02  0.18087494317E+03  0.17120000000E+03 0.  0.
        998    1    1    2    0    0 -0.39756575855E+02  0.74041157291E+02  0.11681209024E+04  0.11711827871E+04  0.10000000000E+02 0. -1.
</event>
<event>
 5    1  0.1129619E-008  0.3799713E+03  0.7957747E-01  0.3451283E+00
         13   -1    0    0    0    0  0.00000000000E+00  0.00000000000E+00  0.14999999963E+04  0.15000000000E+04  0.10566000000E+00 0.  1.
        994   -1    0    0    0    0 -0.00000000000E+00 -0.00000000000E+00  0.11368683772E-12  0.17120000000E+03  0.17120000000E+03 0.  0.
         13    1    1    2    0    0 -0.11995212523E+02 -0.36356642442E+02  0.16851361740E+03  0.17280781518E+03  0.10566000000E+00 0.  1.
        994    1    1    2    0    0  0.12978893568E+02  0.25442485612E+02  0.68797209917E+01  0.17370245339E+03  0.17120000000E+03 0.  0.
        998    1    1    2    0    0 -0.98368104507E+00  0.10914156829E+02  0.13246066579E+04  0.13246897314E+04  0.10000000000E+02 0.  1.
</event>
<event>
 5    1  0.1129619E-008  0.3796923E+03  0.7957747E-01  0.3452500E+00
         13   -1    0    0    0    0  0.00000000000E+00  0.00000000000E+00  0.14999999963E+04  0.15000000000E+04  0.10566000000E+00 0.  1.
        994   -1    0    0    0    0 -0.00000000000E+00 -0.00000000000E+00  0.11368683772E-12  0.17120000000E+03  0.17120000000E+03 0.  0.
         13    1    1    2    0    0 -0.11334006693E+02  0.38926339841E+02  0.44214954781E+02  0.59989107607E+02  0.10566000000E+00 0.  1.
        994    1    1    2    0    0  0.11481968064E+02 -0.31940067184E+02  0.20339180944E+02  0.17571319178E+03  0.17120000000E+03 0.  0.
        998    1    1    2    0    0 -0.14796137026E+00 -0.69862726577E+01  0.14354458606E+04  0.14354977006E+04  0.10000000000E+02 0.  1.
</event>
<event>
 5    1  0.1129619E-008  0.3975822E+03  0.7957747E-01  0.3378001E+00
         13   -1    0    0    0    0  0.00000000000E+00  0.00000000000E+00  0.14999999963E+04  0.15000000000E+04  0.10566000000E+00 0.  1.
        994   -1    0    0    0    0 -0.00000000000E+00 -0.00000000000E+00  0.11368683772E-12  0.17120000000E+03  0.17120000000E+03 0.  0.
         13    1    1    2    0    0  0.71076948923E+02 -0.94863567539E+02  0.22903386643E+03  0.25789058194E+03  0.10566000000E+00 0.  1.
        994    1    1    2    0    0 -0.63576059330E+02  0.85089328126E+02  0.71569348541E+02  0.21380767229E+03  0.17120000000E+03 0.  0.
        998    1    1    2    0    0 -0.75008895930E+01  0.97742394137E+01  0.11993967813E+04  0.11995017458E+04  0.10000000000E+02 0.  1.
</event>
<event>
 5    1  0.1129619E-008  0.3840850E+03  0.7957747E-01  0.3433562E+00
         13   -1    0    0    0    0  0.00000000000E+00  0.00000000000E+00  0.14999999963E+04  0.15000000000E+04  0.10566000000E+00 0.  1.
        994   -1    0    0    0    0 -0.00000000000E+00 -0.00000000000E+00  0.11368683772E-12  0.17120000000E+03  0.17120000000E+03 0.  0.
         13    1    1    2    0    0  0.61251325178E+01  0.10629322573E+02  0.33506274944E+02  0.35681667161E+02  0.10566000000E+00 0.  1.
        994    1    1    2    0    0 -0.22496677317E+02 -0.13322494276E+02  0.43431213395E+01  0.17323940674E+03  0.17120000000E+03 0.  0.
        998    1    1    2    0    0  0.16371544799E+02  0.26931717035E+01  0.14621506000E+04  0.14622789261E+04  0.10000000000E+02 0.  1.
</event>
<event>
 5    1  0.1354218E-008  0.3860874E+03  0.7957747E-01  0.3425073E+00
         13   -1    0    0    0    0  0.00000000000E+00  0.00000000000E+00  0.14999999963E+04  0.15000000000E+04  0.10566000000E+00 0.  1.
        994   -1    0    0    0    0 -0.00000000000E+00 -0.00000000000E+00  0.11368683772E-12  0.17120000000E+03  0.17120000000E+03 0.  0.
         13    1    1    2    0    0 -0.10881788559E+02 -0.29708438691E+01  0.56835522054E+02  0.57944171119E+02  0.10566000000E+00 0.  1.
        994    1    1    2    0    0  0.13031239244E+02  0.15819954676E+01  0.16561104985E+01  0.17171050815E+03  0.17120000000E+03 0.  0.
        998    1    1    2    0    0 -0.21494506848E+01  0.13888484015E+01  0.14415083637E+04  0.14415453207E+04  0.10000000000E+02 0.  1.
</event>
<event>
 5    1  0.1129619E-008  0.3750573E+03  0.7957747E-01  0.3472966E+00
         13   -1    0    0    0    0  0.00000000000E+00  0.00000000000E+00  0.14999999963E+04  0.15000000000E+04  0.10566000000E+00 0. -1.
        994   -1    0    0    0    0 -0.00000000000E+00 -0.00000000000E+00  0.11368683772E-12  0.17120000000E+03  0.17120000000E+03 0.  0.
         13    1    1    2    0    0 -0.30105274137E+02 -0.51545421712E+01  0.71293535743E+02  0.77560790601E+02  0.10566000000E+00 0. -1.
        994    1    1    2    0    0  0.23882450967E+01  0.16767041365E+02  0.76247058358E+01  0.17220456884E+03  0.17120000000E+03 0.  0.
        998    1    1    2    0    0  0.27717029041E+02 -0.11612499193E+02  0.14210817547E+04  0.14214346406E+04  0.10000000000E+02 0. -1.
</event>
<event>
 5    1  0.1129619E-008  0.3806811E+03  0.7957747E-01  0.3448198E+00
         13   -1    0    0    0    0  0.00000000000E+00  0.00000000000E+00  0.14999999963E+04  0.15000000000E+04  0.10566000000E+00 0.  1.
        994   -1    0    0    0    0 -0.00000000000E+00 -0.00000000000E+00  0.11368683772E-12  0.17120000000E+03  0.17120000000E+03 0.  0.
         13    1    1    2    0    0  0.33449832267E+02  0.18076328335E+02  0.20969334346E+03  0.21311253924E+03  0.10566000000E+00 0.  1.
        994    1    1    2    0    0 -0.33819301804E+01 -0.13789017243E+02  0.44623627969E+01  0.17184564914E+03  0.17120000000E+03 0.  0.
        998    1    1    2    0    0 -0.30067902086E+02 -0.42873110919E+01  0.12858442900E+04  0.12862418116E+04  0.10000000000E+02 0.  1.
</event>
<event>
 5    1  0.1129619E-008  0.3861984E+03  0.7957747E-01  0.3424606E+00
         13   -1    0    0    0    0  0.00000000000E+00  0.00000000000E+00  0.14999999963E+04  0.15000000000E+04  0.10566000000E+00 0. -1.
        994   -1    0    0    0    0 -0.00000000000E+00 -0.00000000000E+00  0.11368683772E-12  0.17120000000E+03  0.17120000000E+03 0.  0.
         13    1    1    2    0    0  0.92984664187E+01 -0.36900086732E+01  0.48846527864E+02  0.49860526372E+02  0.10566000000E+00 0. -1.
        994    1    1    2    0    0 -0.77633853421E+01  0.22300526900E+00  0.12339563393E+01  0.17138051970E+03  0.17120000000E+03 0.  0.
        998    1    1    2    0    0 -0.15350810766E+01  0.34670034042E+01  0.14499195121E+04  0.14499589539E+04  0.10000000000E+02 0. -1.
</event>
<event>
 5    1  0.1129619E-008  0.3841264E+03  0.7957747E-01  0.3433386E+00
         13   -1    0    0    0    0  0.00000000000E+00  0.00000000000E+00  0.14999999963E+04  0.15000000000E+04  0.10566000000E+00 0. -1.
        994   -1    0    0    0    0 -0.00000000000E+00 -0.00000000000E+00  0.11368683772E-12  0.17120000000E+03  0.17120000000E+03 0.  0.
         13    1    1    2    0    0 -0.92222817642E+01  0.17228977004E+02  0.86501809709E+02  0.88681804089E+02  0.10566000000E+00 0. -1.
        994    1    1    2    0    0  0.10742557050E+02 -0.19366284153E+02  0.36836560056E+01  0.17266576040E+03  0.17120000000E+03 0.  0.
        998    1    1    2    0    0 -0.15202752857E+01  0.21373071492E+01  0.14098145306E+04  0.14098524355E+04  0.10000000000E+02 0. -1.
</event>
<event>
 5    1  0.1129619E-008  0.3818291E+03  0.7957747E-01  0.3443233E+00
         13   -1    0    0    0    0  0.00000000000E+00  0.00000000000E+00  0.14999999963E+04  0.15000000000E+04  0.10566000000E+00 0.  1.
        994   -1    0    0    0    0 -0.00000000000E+00 -0.00000000000E+00  0.11368683772E-12  0.17120000000E+03  0.17120000000E+03 0.  0.
         13    1    1    2    0    0  0.21488416133E+02 -0.27552981786E+02  0.20300890387E+03  0.20599404129E+03  0.10566000000E+00 0.  1.
        994    1    1    2    0    0 -0.14225927803E+02  0.40848122569E+01  0.39409149193E+01  0.17188377912E+03  0.17120000000E+03 0.  0.
        998    1    1    2    0    0 -0.72624883291E+01  0.23468169529E+02  0.12930501775E+04  0.12933221796E+04  0.10000000000E+02 0.  1.
</event>
<event>
 5    1  0.1129619E-008  0.3729611E+03  0.7957747E-01  0.3482392E+00
         13   -1    0    0    0    0  0.00000000000E+00  0.00000000000E+00  0.14999999963E+04  0.15000000000E+04  0.10566000000E+00 0. -1.
        994   -1    0    0    0    0 -0.00000000000E+00 -0.00000000000E+00  0.11368683772E-12  0.17120000000E+03  0.17120000000E+03 0.  0.
         13    1    1    2    0    0 -0.51432993706E+02 -0.30165682591E+02  0.21170177033E+03  0.21993856409E+03  0.10566000000E+00 0. -1.
        994    1    1    2    0    0  0.52765546264E+02  0.41247192930E+01  0.17378796349E+02  0.18003521529E+03  0.17120000000E+03 0.  0.
        998    1    1    2    0    0 -0.13325525581E+01  0.26040963298E+02  0.12709194296E+04  0.12712262206E+04  0.10000000000E+02 0. -1.
</event>
<event>
 5    1  0.1129619E-008  0.3170626E+03  0.7957747E-01  0.3781266E+00
         13   -1    0    0    0    0  0.00000000000E+00  0.00000000000E+00  0.14999999963E+04  0.15000000000E+04  0.10566000000E+00 0.  1.
        994   -1    0    0    0    0 -0.00000000000E+00 -0.00000000000E+00  0.11368683772E-12  0.17120000000E+03  0.17120000000E+03 0.  0.
         13    1    1    2    0    0 -0.10445663126E+03 -0.21980212456E+03  0.10822165862E+04  0.11092415933E+04  0.10566000000E+00 0.  1.
        994    1    1    2    0    0 -0.13067682072E+02  0.15527258607E+03  0.19952872208E+03  0.30561657553E+03  0.17120000000E+03 0.  0.
        998    1    1    2    0    0  0.11752431333E+03  0.64529538489E+02  0.21825468803E+03  0.25634183117E+03  0.10000000000E+02 0.  1.
</event>
<event>
 5    1  0.1129619E-008  0.3819056E+03  0.7957747E-01  0.3442903E+00
         13   -1    0    0    0    0  0.00000000000E+00  0.00000000000E+00  0.14999999963E+04  0.15000000000E+04  0.10566000000E+00 0. -1.
        994   -1    0    0    0    0 -0.00000000000E+00 -0.00000000000E+00  0.11368683772E-12  0.17120000000E+03  0.17120000000E+03 0.  0.
         13    1    1    2    0    0 -0.27132277282E+02  0.83000601279E+01  0.12471906894E+03  0.12790585909E+03  0.10566000000E+00 0. -1.
        994    1    1    2    0    0  0.17212147377E+02 -0.65328025651E+01  0.43010291867E+01  0.17224074541E+03  0.17120000000E+03 0.  0.
        998    1    1    2    0    0  0.99201299044E+01 -0.17672575628E+01  0.13709798982E+04  0.13710533955E+04  0.10000000000E+02 0. -1.
</event>
<event>
 5    1  0.1129619E-008  0.3776057E+03  0.7957747E-01  0.3461650E+00
         13   -1    0    0    0    0  0.00000000000E+00  0.00000000000E+00  0.14999999963E+04  0.15000000000E+04  0.10566000000E+00 0.  1.
        994   -1    0    0    0    0 -0.00000000000E+00 -0.00000000000E+00  0.11368683772E-12  0.17120000000E+03  0.17120000000E+03 0.  0.
         13    1    1    2    0    0 -0.48271396614E+02  0.10622166613E+02  0.24722992187E+03  0.25212219971E+03  0.10566000000E+00 0.  1.
        994    1    1    2    0    0  0.15452991426E+02 -0.79118692750E+01  0.63628901305E+01  0.17219558354E+03  0.17120000000E+03 0.  0.
        998    1    1    2    0    0  0.32818405187E+02 -0.27102973380E+01  0.12464071843E+04  0.12468822168E+04  0.10000000000E+02 0.  1.
</event>
<event>
 5    1  0.1129619E-008  0.3790627E+03  0.7957747E-01  0.3455250E+00
         13   -1    0    0    0    0  0.00000000000E+00  0.00000000000E+00  0.14999999963E+04  0.15000000000E+04  0.10566000000E+00 0.  1.
        994   -1    0    0    0    0 -0.00000000000E+00 -0.00000000000E+00  0.11368683772E-12  0.17120000000E+03  0.17120000000E+03 0.  0.
         13    1    1    2    0    0 -0.19789792741E+02 -0.33778042605E+01  0.41252166244E+02  0.45878075833E+02  0.10566000000E+00 0.  1.
        994    1    1    2    0    0  0.18680459291E+02 -0.14680611261E+00  0.57781260262E+01  0.17231310992E+03  0.17120000000E+03 0.  0.
        998    1    1    2    0    0  0.11093334492E+01  0.35246103731E+01  0.14529697040E+04  0.14530088142E+04  0.10000000000E+02 0.  1.
</event>
<event>
 5    1  0.1129619E-008  0.3754998E+03  0.7957747E-01  0.3470990E+00
         13   -1    0    0    0    0  0.00000000000E+00  0.00000000000E+00  0.14999999963E+04  0.15000000000E+04  0.10566000000E+00 0.  1.
        994   -1    0    0    0    0 -0.00000000000E+00 -0.00000000000E+00  0.11368683772E-12  0.17120000000E+03  0.17120000000E+03 0.  0.
         13    1    1    2    0    0  0.14133744382E+02  0.96854352388E+01  0.19856052735E+02  0.26226787456E+02  0.10566000000E+00 0.  1.
        994    1    1    2    0    0 -0.15319944275E+02 -0.80505328692E+01  0.74393254172E+01  0.17223325850E+03  0.17120000000E+03 0.  0.
        998    1    1    2    0    0  0.11861998933E+01 -0.16349023696E+01  0.14727046181E+04  0.14727399540E+04  0.10000000000E+02 0.  1.
</event>
<event>
 5    1  0.1129619E-008  0.3834131E+03  0.7957747E-01  0.3436430E+00
         13   -1    0    0    0    0  0.00000000000E+00  0.00000000000E+00  0.14999999963E+04  0.15000000000E+04  0.10566000000E+00 0. -1.
        994   -1    0    0    0    0 -0.00000000000E+00 -0.00000000000E+00  0.11368683772E-12  0.17120000000E+03  0.17120000000E+03 0.  0.
         13    1    1    2    0    0 -0.86659550157E+01  0.20037189803E+02  0.98648495333E+02  0.10103526388E+03  0.10566000000E+00 0. -1.
        994    1    1    2    0    0  0.60193394278E+01 -0.10857431185E+02  0.29296671822E+01  0.17167451532E+03  0.17120000000E+03 0.  0.
        998    1    1    2    0    0  0.26466155878E+01 -0.91797586187E+01  0.13984218338E+04  0.13984902208E+04  0.10000000000E+02 0. -1.
</event>
<event>
 5    1  0.1129619E-008  0.3772106E+03  0.7957747E-01  0.3463395E+00
         13   -1    0    0    0    0  0.00000000000E+00  0.00000000000E+00  0.14999999963E+04  0.15000000000E+04  0.10566000000E+00 0.  1.
        994   -1    0    0    0    0 -0.00000000000E+00 -0.00000000000E+00  0.11368683772E-12  0.17120000000E+03  0.17120000000E+03 0.  0.
         13    1    1    2    0    0  0.46462012662E+02 -0.35828500667E+01  0.21982451242E+03  0.22470955222E+03  0.10566000000E+00 0.  1.
        994    1    1    2    0    0 -0.77352129817E+01  0.22393743122E+02  0.74441086820E+01  0.17299181485E+03  0.17120000000E+03 0.  0.
        998    1    1    2    0    0 -0.38726799680E+02 -0.18810893055E+02  0.12727313752E+04  0.12734986329E+04  0.10000000000E+02 0.  1.
</event>
<event>
 5    1  0.1129619E-008  0.3823575E+03  0.7957747E-01  0.3440957E+00
         13   -1    0    0    0    0  0.00000000000E+00  0.00000000000E+00  0.14999999963E+04  0.15000000000E+04  0.10566000000E+00 0. -1.
        994   -1    0    0    0    0 -0.00000000000E+00 -0.00000000000E+00  0.11368683772E-12  0.17120000000E+03  0.17120000000E+03 0.  0.
         13    1    1    2    0    0  0.52964437177E+01 -0.17070396794E+02  0.51975501370E+02  0.54962848084E+02  0.10566000000E+00 0. -1.
        994    1    1    2    0    0  0.57749466001E+01  0.19792502481E+02  0.43591247733E+01  0.17249213064E+03  0.17120000000E+03 0.  0.
        998    1    1    2    0    0 -0.11071390318E+02 -0.27221056867E+01  0.14436653701E+04  0.14437450213E+04  0.10000000000E+02 0. -1.
</event>
<event>
 5    1  0.1129619E-008  0.3746070E+03  0.7957747E-01  0.3474982E+00
         13   -1    0    0    0    0  0.00000000000E+00  0.00000000000E+00  0.14999999963E+04  0.15000000000E+04  0.10566000000E+00 0.  1.
        994   -1    0    0    0    0 -0.00000000000E+00 -0.00000000000E+00  0.11368683772E-12  0.17120000000E+03  0.17120000000E+03 0.  0.
         13    1    1    2    0    0  0.55121462580E+02 -0.16320618715E+02  0.11335053910E+03  0.12709482331E+03  0.10566000000E+00 0.  1.
        994    1    1    2    0    0 -0.49751751324E+02  0.91870202471E+01  0.22547562087E+02  0.17993740761E+03  0.17120000000E+03 0.  0.
        998    1    1    2    0    0 -0.53697112559E+01  0.71335984675E+01  0.13641018951E+04  0.13641677691E+04  0.10000000000E+02 0.  1.
</event>
<event>
 5    1  0.1129619E-008  0.3835218E+03  0.7957747E-01  0.3435966E+00
         13   -1    0    0    0    0  0.00000000000E+00  0.00000000000E+00  0.14999999963E+04  0.15000000000E+04  0.10566000000E+00 0. -1.
        994   -1    0    0    0    0 -0.00000000000E+00 -0.00000000000E+00  0.11368683772E-12  0.17120000000E+03  0.17120000000E+03 0.  0.
         13    1    1    2    0    0 -0.16764958723E+02 -0.25071648233E+01  0.61789913154E+02  0.64073038386E+02  0.10566000000E+00 0. -1.
        994    1    1    2    0    0  0.50324149483E+01  0.59258064096E+01  0.25655897195E+01  0.17139563189E+03  0.17120000000E+03 0.  0.
        998    1    1    2    0    0  0.11732543774E+02 -0.34186415863E+01  0.14356444934E+04  0.14357313297E+04  0.10000000000E+02 0. -1.
</event>
<event>
 5    1  0.1129619E-008  0.3784675E+03  0.7957747E-01  0.3457859E+00
         13   -1    0    0    0    0  0.00000000000E+00  0.00000000000E+00  0.14999999963E+04  0.15000000000E+04  0.10566000000E+00 0. -1.
        994   -1    0    0    0    0 -0.00000000000E+00 -0.00000000000E+00  0.11368683772E-12  0.17120000000E+03  0.17120000000E+03 0.  0.
         13    1    1    2    0    0 -0.40691433107E+02  0.27723006998E+02  0.21889654210E+03  0.22436591798E+03  0.10566000000E+00 0. -1.
        994    1    1    2    0    0  0.45429672858E+02 -0.12628164360E+02  0.12415605001E+02  0.17800818228E+03  0.17120000000E+03 0.  0.
        998    1    1    2    0    0 -0.47382397510E+01 -0.15094842638E+02  0.12686878492E+04  0.12688258997E+04  0.10000000000E+02 0. -1.
</event>
<event>
 5    1  0.1129619E-008  0.3842742E+03  0.7957747E-01  0.3432756E+00
         13   -1    0    0    0    0  0.00000000000E+00  0.00000000000E+00  0.14999999963E+04  0.15000000000E+04  0.10566000000E+00 0. -1.
        994   -1    0    0    0    0 -0.00000000000E+00 -0.00000000000E+00  0.11368683772E-12  0.17120000000E+03  0.17120000000E+03 0.  0.
         13    1    1    2    0    0  0.93383213833E+01 -0.12643831180E+02  0.60918865196E+02  0.62914147964E+02  0.10566000000E+00 0. -1.
        994    1    1    2    0    0 -0.48870121902E+01  0.12126981758E+02  0.25546114405E+01  0.17171753729E+03  0.17120000000E+03 0.  0.
        998    1    1    2    0    0 -0.44513091930E+01  0.51684942192E+00  0.14365265196E+04  0.14365683147E+04  0.10000000000E+02 0. -1.
</event>
<event>
 5    1  0.1129619E-008  0.3712568E+03  0.7957747E-01  0.3490135E+00
         13   -1    0    0    0    0  0.00000000000E+00  0.00000000000E+00  0.14999999963E+04  0.15000000000E+04  0.10566000000E+00 0. -1.
        994   -1    0    0    0    0 -0.00000000000E+00 -0.00000000000E+00  0.11368683772E-12  0.17120000000E+03  0.17120000000E+03 0.  0.
         13    1    1    2    0    0  0.24185550087E+02 -0.53219148301E+02  0.14517538611E+03  0.15650278743E+03  0.10566000000E+00 0. -1.
        994    1    1    2    0    0  0.70384594967E+01  0.39659601036E+02  0.17323586857E+02  0.17672569289E+03  0.17120000000E+03 0.  0.
        998    1    1    2    0    0 -0.31224009583E+02  0.13559547265E+02  0.13375010233E+04  0.13379715197E+04  0.10000000000E+02 0.  0.
</event>
<event>
 5    1  0.1129619E-008  0.3790049E+03  0.7957747E-01  0.3455503E+00
         13   -1    0    0    0    0  0.00000000000E+00  0.00000000000E+00  0.14999999963E+04  0.15000000000E+04  0.10566000000E+00 0. -1.
        994   -1    0    0    0    0 -0.00000000000E+00 -0.00000000000E+00  0.11368683772E-12  0.17120000000E+03  0.17120000000E+03 0.  0.
         13    1    1    2    0    0 -0.25003286732E+02  0.30095000322E+02  0.13804796098E+03  0.14348562327E+03  0.10566000000E+00 0. -1.
        994    1    1    2    0    0  0.38461669583E+02 -0.37064107223E+02  0.14265481049E+02  0.17990550859E+03  0.17120000000E+03 0.  0.
        998    1    1    2    0    0 -0.13458382851E+02  0.69691069005E+01  0.13476865543E+04  0.13478088681E+04  0.10000000000E+02 0. -1.
</event>
<event>
 5    1  0.1129619E-008  0.3812699E+03  0.7957747E-01  0.3445648E+00
         13   -1    0    0    0    0  0.00000000000E+00  0.00000000000E+00  0.14999999963E+04  0.15000000000E+04  0.10566000000E+00 0. -1.
        994   -1    0    0    0    0 -0.00000000000E+00 -0.00000000000E+00  0.11368683772E-12  0.17120000000E+03  0.17120000000E+03 0.  0.
         13    1    1    2    0    0 -0.29493837318E+02  0.28757874681E+02  0.20984581233E+03  0.21385083099E+03  0.10566000000E+00 0. -1.
        994    1    1    2    0    0  0.29220424391E+02 -0.29311439024E+02  0.92170631957E+01  0.17637286615E+03  0.17120000000E+03 0.  0.
        998    1    1    2    0    0  0.27341292718E+00  0.55356434314E+00  0.12809371208E+04  0.12809763029E+04  0.10000000000E+02 0.  0.
</event>
<event>
 5    1  0.1129619E-008  0.3839262E+03  0.7957747E-01  0.3434239E+00
         13   -1    0    0    0    0  0.00000000000E+00  0.00000000000E+00  0.14999999963E+04  0.15000000000E+04  0.10566000000E+00 0. -1.
        994   -1    0    0    0    0 -0.00000000000E+00 -0.00000000000E+00  0.11368683772E-12  0.17120000000E+03  0.17120000000E+03 0.  0.
         13    1    1    2    0    0  0.23341018918E+03 -0.15513361347E+03  0.10687755343E+04  0.11049108146E+04  0.10566000000E+00 0. -1.
        994    1    1    2    0    0 -0.24374267071E+03  0.14890707781E+03  0.34822479172E+03  0.48182336277E+03  0.17120000000E+03 0.  0.
        998    1    1    2    0    0  0.10332481532E+02  0.62265356557E+01  0.82999670287E+02  0.84465822606E+02  0.10000000000E+02 0. -1.
</event>
<event>
 5    1  0.1129619E-008  0.3763168E+03  0.7957747E-01  0.3467354E+00
         13   -1    0    0    0    0  0.00000000000E+00  0.00000000000E+00  0.14999999963E+04  0.15000000000E+04  0.10566000000E+00 0.  1.
        994   -1    0    0    0    0 -0.00000000000E+00 -0.00000000000E+00  0.11368683772E-12  0.17120000000E+03  0.17120000000E+03 0.  0.
         13    1    1    2    0    0 -0.51088433172E+01  0.43621461415E+02  0.68007119894E+02  0.80956233215E+02  0.10566000000E+00 0.  1.
        994    1    1    2    0    0 -0.10439031315E+02  0.65719274478E+00  0.14709968188E+02  0.17214885547E+03  0.17120000000E+03 0.  0.
        998    1    1    2    0    0  0.15547874632E+02 -0.44278654160E+02  0.14172829082E+04  0.14180949113E+04  0.10000000000E+02 0.  1.
</event>
<event>
 5    1  0.1129619E-008  0.3764797E+03  0.7957747E-01  0.3466632E+00
         13   -1    0    0    0    0  0.00000000000E+00  0.00000000000E+00  0.14999999963E+04  0.15000000000E+04  0.10566000000E+00 0. -1.
        994   -1    0    0    0    0 -0.00000000000E+00 -0.00000000000E+00  0.11368683772E-12  0.17120000000E+03  0.17120000000E+03 0.  0.
         13    1    1    2    0    0  0.34899628161E+02 -0.24347783451E+02  0.15356659796E+03  0.15935341156E+03  0.10566000000E+00 0. -1.
        994    1    1    2    0    0 -0.17820893430E+02  0.12650515249E+02  0.75379788709E+01  0.17275381589E+03  0.17120000000E+03 0.  0.
        998    1    1    2    0    0 -0.17078734732E+02  0.11697268201E+02  0.13388954195E+04  0.13390927725E+04  0.10000000000E+02 0. -1.
</event>
<event>
 5    1  0.1129619E-008  0.3857871E+03  0.7957747E-01  0.3426341E+00
         13   -1    0    0    0    0  0.00000000000E+00  0.00000000000E+00  0.14999999963E+04  0.15000000000E+04  0.10566000000E+00 0. -1.
        994   -1    0    0    0    0 -0.00000000000E+00 -0.00000000000E+00  0.11368683772E-12  0.17120000000E+03  0.17120000000E+03 0.  0.
         13    1    1    2    0    0  0.95388268993E+01  0.69333932162E+01  0.57417643379E+02  0.58616193115E+02  0.10566000000E+00 0. -1.
        994    1    1    2    0    0 -0.14666154024E+01 -0.77117260316E+01  0.14419988810E+01  0.17138594178E+03  0.17120000000E+03 0.  0.
        998    1    1    2    0    0 -0.80722114969E+01  0.77833281540E+00  0.14411403540E+04  0.14411978651E+04  0.10000000000E+02 0. -1.
</event>
<event>
 5    1  0.1129619E-008  0.3821197E+03  0.7957747E-01  0.3441980E+00
         13   -1    0    0    0    0  0.00000000000E+00  0.00000000000E+00  0.14999999963E+04  0.15000000000E+04  0.10566000000E+00 0. -1.
        994   -1    0    0    0    0 -0.00000000000E+00 -0.00000000000E+00  0.11368683772E-12  0.17120000000E+03  0.17120000000E+03 0.  0.
         13    1    1    2    0    0  0.14191219144E+02  0.15859177509E+02  0.69726279395E+02  0.72901779227E+02  0.10566000000E+00 0. -1.
        994    1    1    2    0    0 -0.17765227591E+02 -0.14242829149E+02  0.47899390203E+01  0.17277397087E+03  0.17120000000E+03 0.  0.
        998    1    1    2    0    0  0.35740084472E+01 -0.16163483605E+01  0.14254837779E+04  0.14255242499E+04  0.10000000000E+02 0. -1.
</event>
<event>
 5    1  0.1129619E-008  0.3844157E+03  0.7957747E-01  0.3432154E+00
         13   -1    0    0    0    0  0.00000000000E+00  0.00000000000E+00  0.14999999963E+04  0.15000000000E+04  0.10566000000E+00 0.  1.
        994   -1    0    0    0    0 -0.00000000000E+00 -0.00000000000E+00  0.11368683772E-12  0.17120000000E+03  0.17120000000E+03 0.  0.
         13    1    1    2    0    0  0.78788290021E+01 -0.11659710655E+02  0.51291721281E+02  0.53187184876E+02  0.10566000000E+00 0.  1.
        994    1    1    2    0    0 -0.35970114144E+01  0.86633405530E+01  0.22105084383E+01  0.17147104219E+03  0.17120000000E+03 0.  0.
        998    1    1    2    0    0 -0.42818175877E+01  0.29963701015E+01  0.14464977666E+04  0.14465417729E+04  0.10000000000E+02 0.  1.
</event>
<event>
 5    1  0.1129619E-008  0.3760035E+03  0.7957747E-01  0.3468747E+00
         13   -1    0    0    0    0  0.00000000000E+00  0.00000000000E+00  0.14999999963E+04  0.15000000000E+04  0.10566000000E+00 0.  1.
        994   -1    0    0    0    0 -0.00000000000E+00 -0.00000000000E+00  0.11368683772E-12  0.17120000000E+03  0.17120000000E+03 0.  0.
         13    1    1    2    0    0  0.24681065570E+02 -0.79116024023E+01  0.54716294827E+02  0.60544467409E+02  0.10566000000E+00 0.  1.
        994    1    1    2    0    0 -0.18769855152E+00  0.72283069904E+01  0.63414509004E+01  0.17146993221E+03  0.17120000000E+03 0.  0.
        998    1    1    2    0    0 -0.24493367019E+02  0.68329541191E+00  0.14389422506E+04  0.14391856004E+04  0.10000000000E+02 0.  1.
</event>
<event>
 5    1  0.1129619E-008  0.3847195E+03  0.7957747E-01  0.3430863E+00
         13   -1    0    0    0    0  0.00000000000E+00  0.00000000000E+00  0.14999999963E+04  0.15000000000E+04  0.10566000000E+00 0.  1.
        994   -1    0    0    0    0 -0.00000000000E+00 -0.00000000000E+00  0.11368683772E-12  0.17120000000E+03  0.17120000000E+03 0.  0.
         13    1    1    2    0    0  0.67624839130E+01 -0.14837365463E+02  0.77278682818E+02  0.78980279720E+02  0.10566000000E+00 0.  1.
        994    1    1    2    0    0 -0.11864424141E+02  0.14985345699E+01  0.22403633782E+01  0.17163178434E+03  0.17120000000E+03 0.  0.
        998    1    1    2    0    0  0.51019402280E+01  0.13338830893E+02  0.14204809501E+04  0.14205879359E+04  0.10000000000E+02 0.  1.
</event>
<event>
 5    1  0.1129619E-008  0.3792191E+03  0.7957747E-01  0.3454566E+00
         13   -1    0    0    0    0  0.00000000000E+00  0.00000000000E+00  0.14999999963E+04  0.15000000000E+04  0.10566000000E+00 0. -1.
        994   -1    0    0    0    0 -0.00000000000E+00 -0.00000000000E+00  0.11368683772E-12  0.17120000000E+03  0.17120000000E+03 0.  0.
         13    1    1    2    0    0 -0.75662285365E+01 -0.77327722527E+01  0.11039334349E+02  0.15457090537E+02  0.10566000000E+00 0. -1.
        994    1    1    2    0    0 -0.44804601972E+01  0.86532766649E+01  0.48461777743E+01  0.17154556001E+03  0.17120000000E+03 0.  0.
        998    1    1    2    0    0  0.12046688734E+02 -0.92050441221E+00  0.14841144842E+04  0.14841973495E+04  0.10000000000E+02 0. -1.
</event>
<event>
 5    1  0.1129619E-008  0.3719499E+03  0.7957747E-01  0.3486977E+00
         13   -1    0    0    0    0  0.00000000000E+00  0.00000000000E+00  0.14999999963E+04  0.15000000000E+04  0.10566000000E+00 0. -1.
        994   -1    0    0    0    0 -0.00000000000E+00 -0.00000000000E+00  0.11368683772E-12  0.17120000000E+03  0.17120000000E+03 0.  0.
         13    1    1    2    0    0  0.30154239985E+01 -0.28863820510E+02  0.29761303606E+02  0.41568729506E+02  0.10566000000E+00 0. -1.
        994    1    1    2    0    0 -0.10458260331E+01  0.28207215479E+02  0.14783211530E+02  0.17413995550E+03  0.17120000000E+03 0.  0.
        998    1    1    2    0    0 -0.19695979654E+01  0.65660503073E+00  0.14554554811E+04  0.14554913150E+04  0.10000000000E+02 0. -1.
</event>
<event>
 5    1  0.1129619E-008  0.3821356E+03  0.7957747E-01  0.3441912E+00
         13   -1    0    0    0    0  0.00000000000E+00  0.00000000000E+00  0.14999999963E+04  0.15000000000E+04  0.10566000000E+00 0. -1.
        994   -1    0    0    0    0 -0.00000000000E+00 -0.00000000000E+00  0.11368683772E-12  0.17120000000E+03  0.17120000000E+03 0.  0.
         13    1    1    2    0    0 -0.32465520422E+02  0.60255389448E+01  0.15488227659E+03  0.15836302568E+03  0.10566000000E+00 0. -1.
        994    1    1    2    0    0  0.39058206581E+02  0.90928244990E+00  0.81423349510E+01  0.17578995396E+03  0.17120000000E+03 0.  0.
        998    1    1    2    0    0 -0.65926861589E+01 -0.69348213947E+01  0.13369753847E+04  0.13370470204E+04  0.10000000000E+02 0. -1.
</event>
<event>
 5    1  0.1129619E-008  0.3753977E+03  0.7957747E-01  0.3471446E+00
         13   -1    0    0    0    0  0.00000000000E+00  0.00000000000E+00  0.14999999963E+04  0.15000000000E+04  0.10566000000E+00 0. -1.
        994   -1    0    0    0    0 -0.00000000000E+00 -0.00000000000E+00  0.11368683772E-12  0.17120000000E+03  0.17120000000E+03 0.  0.
         13    1    1    2    0    0 -0.30345303245E+02  0.43040375276E+01  0.66039414002E+02  0.72805065303E+02  0.10566000000E+00 0. -1.
        994    1    1    2    0    0  0.35332089243E+02 -0.94598576189E+01  0.11029634506E+02  0.17541077012E+03  0.17120000000E+03 0.  0.
        998    1    1    2    0    0 -0.49867859975E+01  0.51558200913E+01  0.14229309478E+04  0.14229841646E+04  0.10000000000E+02 0. -1.
</event>
<event>
 5    1  0.1129619E-008  0.3805716E+03  0.7957747E-01  0.3448673E+00
         13   -1    0    0    0    0  0.00000000000E+00  0.00000000000E+00  0.14999999963E+04  0.15000000000E+04  0.10566000000E+00 0.  1.
        994   -1    0    0    0    0 -0.00000000000E+00 -0.00000000000E+00  0.11368683772E-12  0.17120000000E+03  0.17120000000E+03 0.  0.
         13    1    1    2    0    0 -0.15721509752E+02 -0.15955452075E+02  0.58911980810E+02  0.63026779759E+02  0.10566000000E+00 0.  1.
        994    1    1    2    0    0  0.17887132431E+02  0.30029484259E+02  0.79320469423E+01  0.17491162569E+03  0.17120000000E+03 0.  0.
        998    1    1    2    0    0 -0.21656226782E+01 -0.14074032184E+02  0.14331559685E+04  0.14332615946E+04  0.10000000000E+02 0.  1.
</event>
<event>
 5    1  0.1129619E-008  0.3693976E+03  0.7957747E-01  0.3498664E+00
         13   -1    0    0    0    0  0.00000000000E+00  0.00000000000E+00  0.14999999963E+04  0.15000000000E+04  0.10566000000E+00 0.  1.
        994   -1    0    0    0    0 -0.00000000000E+00 -0.00000000000E+00  0.11368683772E-12  0.17120000000E+03  0.17120000000E+03 0.  0.
         13    1    1    2    0    0  0.44649064751E+02 -0.16543746561E+03  0.66195839648E+03  0.68377775911E+03  0.10566000000E+00 0.  1.
        994    1    1    2    0    0 -0.48900805027E+02  0.17395199992E+03  0.13295476680E+03  0.28220027821E+03  0.17120000000E+03 0.  0.
        998    1    1    2    0    0  0.42517402755E+01 -0.85145343108E+01  0.70508683299E+03  0.70522196268E+03  0.10000000000E+02 0.  1.
</event>
<event>
 5    1  0.1129619E-008  0.3823557E+03  0.7957747E-01  0.3440965E+00
         13   -1    0    0    0    0  0.00000000000E+00  0.00000000000E+00  0.14999999963E+04  0.15000000000E+04  0.10566000000E+00 0. -1.
        994   -1    0    0    0    0 -0.00000000000E+00 -0.00000000000E+00  0.11368683772E-12  0.17120000000E+03  0.17120000000E+03 0.  0.
         13    1    1    2    0    0 -0.13111282842E+02  0.93442124178E+00  0.27469324808E+02  0.30452485124E+02  0.10566000000E+00 0. -1.
        994    1    1    2    0    0  0.16843789187E+02 -0.38520591839E+01  0.39396674595E+01  0.17211482381E+03  0.17120000000E+03 0.  0.
        998    1    1    2    0    0 -0.37325063452E+01  0.29176379421E+01  0.14685910040E+04  0.14686326911E+04  0.10000000000E+02 0. -1.
</event>
<event>
 5    1  0.1129619E-008  0.3689892E+03  0.7957747E-01  0.3500549E+00
         13   -1    0    0    0    0  0.00000000000E+00  0.00000000000E+00  0.14999999963E+04  0.15000000000E+04  0.10566000000E+00 0. -1.
        994   -1    0    0    0    0 -0.00000000000E+00 -0.00000000000E+00  0.11368683772E-12  0.17120000000E+03  0.17120000000E+03 0.  0.
         13    1    1    2    0    0  0.50022892649E+02 -0.51571260846E+02  0.41393142554E+03  0.42012036483E+03  0.10566000000E+00 0. -1.
        994    1    1    2    0    0  0.19295221114E+02 -0.10565741175E+02  0.12093007550E+02  0.17303069461E+03  0.17120000000E+03 0.  0.
        998    1    1    2    0    0 -0.69318113763E+02  0.62137002022E+02  0.10739755632E+04  0.10780489406E+04  0.10000000000E+02 0. -1.
</event>
<event>
 5    1  0.1129619E-008  0.3693325E+03  0.7957747E-01  0.3498964E+00
         13   -1    0    0    0    0  0.00000000000E+00  0.00000000000E+00  0.14999999963E+04  0.15000000000E+04  0.10566000000E+00 0. -1.
        994   -1    0    0    0    0 -0.00000000000E+00 -0.00000000000E+00  0.11368683772E-12  0.17120000000E+03  0.17120000000E+03 0.  0.
         13    1    1    2    0    0 -0.18717284697E+02 -0.29063683130E+01  0.12749887791E+02  0.22833189132E+02  0.10566000000E+00 0. -1.
        994    1    1    2    0    0 -0.30619380519E+01  0.84564696060E+01  0.10868462938E+02  0.17178023993E+03  0.17120000000E+03 0.  0.
        998    1    1    2    0    0  0.21779222749E+02 -0.55501012930E+01  0.14763816455E+04  0.14765865709E+04  0.10000000000E+02 0. -1.
</event>
<event>
 5    1  0.1129619E-008  0.3697191E+03  0.7957747E-01  0.3497183E+00
         13   -1    0    0    0    0  0.00000000000E+00  0.00000000000E+00  0.14999999963E+04  0.15000000000E+04  0.10566000000E+00 0.  1.
        994   -1    0    0    0    0 -0.00000000000E+00 -0.00000000000E+00  0.11368683772E-12  0.17120000000E+03  0.17120000000E+03 0.  0.
         13    1    1    2    0    0 -0.32516805087E+02  0.28873723471E+02  0.77866069852E+02  0.89186156540E+02  0.10566000000E+00 0.  1.
        994    1    1    2    0    0  0.46100073428E+02 -0.24322654473E+02  0.20339912123E+02  0.18011096667E+03  0.17120000000E+03 0.  0.
        998    1    1    2    0    0 -0.13583268342E+02 -0.45510689979E+01  0.14017940143E+04  0.14019028768E+04  0.10000000000E+02 0.  1.
</event>
<event>
 5    1  0.1129619E-008  0.3798807E+03  0.7957747E-01  0.3451678E+00
         13   -1    0    0    0    0  0.00000000000E+00  0.00000000000E+00  0.14999999963E+04  0.15000000000E+04  0.10566000000E+00 0.  1.
        994   -1    0    0    0    0 -0.00000000000E+00 -0.00000000000E+00  0.11368683772E-12  0.17120000000E+03  0.17120000000E+03 0.  0.
         13    1    1    2    0    0 -0.47940997030E+01  0.13282763845E+02  0.21711210309E+02  0.25899865337E+02  0.10566000000E+00 0.  1.
        994    1    1    2    0    0  0.52742539523E+01 -0.14446364883E+02  0.49847584057E+01  0.17196163243E+03  0.17120000000E+03 0.  0.
        998    1    1    2    0    0 -0.48015424925E+00  0.11636010377E+01  0.14733040276E+04  0.14733385022E+04  0.10000000000E+02 0.  1.
</event>
<event>
 5    1  0.1129619E-008  0.3846839E+03  0.7957747E-01  0.3431014E+00
         13   -1    0    0    0    0  0.00000000000E+00  0.00000000000E+00  0.14999999963E+04  0.15000000000E+04  0.10566000000E+00 0.  1.
        994   -1    0    0    0    0 -0.00000000000E+00 -0.00000000000E+00  0.11368683772E-12  0.17120000000E+03  0.17120000000E+03 0.  0.
         13    1    1    2    0    0 -0.14809569133E+02 -0.87640117478E+01  0.80745379340E+02  0.82558819569E+02  0.10566000000E+00 0.  1.
        994    1    1    2    0    0  0.15589918404E+02  0.26387701477E+01  0.26106214968E+01  0.17194843415E+03  0.17120000000E+03 0.  0.
        998    1    1    2    0    0 -0.78034927110E+00  0.61252416001E+01  0.14166439954E+04  0.14166927463E+04  0.10000000000E+02 0.  1.
</event>
<event>
 5    1  0.1129619E-008  0.3717438E+03  0.7957747E-01  0.3487915E+00
         13   -1    0    0    0    0  0.00000000000E+00  0.00000000000E+00  0.14999999963E+04  0.15000000000E+04  0.10566000000E+00 0. -1.
        994   -1    0    0    0    0 -0.00000000000E+00 -0.00000000000E+00  0.11368683772E-12  0.17120000000E+03  0.17120000000E+03 0.  0.
         13    1    1    2    0    0  0.83883605755E+01 -0.67554578423E+01  0.30240350807E+01  0.11187348033E+02  0.10566000000E+00 0. -1.
        994    1    1    2    0    0 -0.11410331679E+02  0.28430116762E+01  0.88358209723E+01  0.17183070190E+03  0.17120000000E+03 0.  0.
        998    1    1    2    0    0  0.30219711035E+01  0.39124461661E+01  0.14881401402E+04  0.14881819501E+04  0.10000000000E+02 0. -1.
</event>
<event>
 5    1  0.1129619E-008  0.3705464E+03  0.7957747E-01  0.3493384E+00
         13   -1    0    0    0    0  0.00000000000E+00  0.00000000000E+00  0.14999999963E+04  0.15000000000E+04  0.10566000000E+00 0. -1.
        994   -1    0    0    0    0 -0.00000000000E+00 -0.00000000000E+00  0.11368683772E-12  0.17120000000E+03  0.17120000000E+03 0.  0.
         13    1    1    2    0    0 -0.97557237572E+01 -0.27583794175E+02  0.44799989259E+02  0.53507850347E+02  0.10566000000E+00 0. -1.
        994    1    1    2    0    0  0.35916200616E+02  0.19862919251E+01  0.13462425834E+02  0.17545539528E+03  0.17120000000E+03 0.  0.
        998    1    1    2    0    0 -0.26160476859E+02  0.25597502250E+02  0.14417375812E+04  0.14422367544E+04  0.10000000000E+02 0. -1.
</event>
<event>
 5    1  0.1129619E-008  0.3813516E+03  0.7957747E-01  0.3445295E+00
         13   -1    0    0    0    0  0.00000000000E+00  0.00000000000E+00  0.14999999963E+04  0.15000000000E+04  0.10566000000E+00 0.  1.
        994   -1    0    0    0    0 -0.00000000000E+00 -0.00000000000E+00  0.11368683772E-12  0.17120000000E+03  0.17120000000E+03 0.  0.
         13    1    1    2    0    0 -0.78626725259E+01  0.88036911832E+01  0.18794452814E+02  0.22193900475E+02  0.10566000000E+00 0.  1.
        994    1    1    2    0    0  0.23090794903E+01 -0.84439621090E+01  0.37075167765E+01  0.17146375134E+03  0.17120000000E+03 0.  0.
        998    1    1    2    0    0  0.55535930356E+01 -0.35972907418E+00  0.14774980267E+04  0.14775423482E+04  0.10000000000E+02 0.  1.
</event>
<event>
 5    1  0.1129619E-008  0.3827501E+03  0.7957747E-01  0.3439270E+00
         13   -1    0    0    0    0  0.00000000000E+00  0.00000000000E+00  0.14999999963E+04  0.15000000000E+04  0.10566000000E+00 0.  1.
        994   -1    0    0    0    0 -0.00000000000E+00 -0.00000000000E+00  0.11368683772E-12  0.17120000000E+03  0.17120000000E+03 0.  0.
         13    1    1    2    0    0 -0.28968351216E+01 -0.12109420252E+02  0.27029271372E+02  0.29759408386E+02  0.10566000000E+00 0.  1.
        994    1    1    2    0    0  0.51567927653E+01  0.94224412805E+01  0.31335915412E+01  0.17156524796E+03  0.17120000000E+03 0.  0.
        998    1    1    2    0    0 -0.22599576436E+01  0.26869789713E+01  0.14698371334E+04  0.14698753437E+04  0.10000000000E+02 0.  1.
</event>
<event>
 5    1  0.1129619E-008  0.3777549E+03  0.7957747E-01  0.3460993E+00
         13   -1    0    0    0    0  0.00000000000E+00  0.00000000000E+00  0.14999999963E+04  0.15000000000E+04  0.10566000000E+00 0. -1.
        994   -1    0    0    0    0 -0.00000000000E+00 -0.00000000000E+00  0.11368683772E-12  0.17120000000E+03  0.17120000000E+03 0.  0.
         13    1    1    2    0    0 -0.49367787951E+02  0.36967143872E+02  0.24203213741E+03  0.24976652081E+03  0.10566000000E+00 0. -1.
        994    1    1    2    0    0  0.55303579915E+02 -0.81112303809E+02  0.38449442705E+02  0.20106091471E+03  0.17120000000E+03 0.  0.
        998    1    1    2    0    0 -0.59357919634E+01  0.44145159937E+02  0.12195184162E+04  0.12203725645E+04  0.10000000000E+02 0. -1.
</event>
<event>
 5    1  0.1347404E-008  0.3861720E+03  0.7957747E-01  0.3424717E+00
         13   -1    0    0    0    0  0.00000000000E+00  0.00000000000E+00  0.14999999963E+04  0.15000000000E+04  0.10566000000E+00 0.  1.
        994   -1    0    0    0    0 -0.00000000000E+00 -0.00000000000E+00  0.11368683772E-12  0.17120000000E+03  0.17120000000E+03 0.  0.
         13    1    1    2    0    0  0.67278247119E+00 -0.10477158375E+02  0.48878808878E+02  0.49993725658E+02  0.10566000000E+00 0.  1.
        994    1    1    2    0    0 -0.14696647579E+02  0.19343826868E+02  0.29853027236E+01  0.17294081971E+03  0.17120000000E+03 0.  0.
        998    1    1    2    0    0  0.14023865108E+02 -0.88666684934E+01  0.14481358847E+04  0.14482654546E+04  0.10000000000E+02 0.  1.
</event>
<event>
 5    1  0.1129619E-008  0.3831675E+03  0.7957747E-01  0.3437482E+00
         13   -1    0    0    0    0  0.00000000000E+00  0.00000000000E+00  0.14999999963E+04  0.15000000000E+04  0.10566000000E+00 0. -1.
        994   -1    0    0    0    0 -0.00000000000E+00 -0.00000000000E+00  0.11368683772E-12  0.17120000000E+03  0.17120000000E+03 0.  0.
         13    1    1    2    0    0 -0.15817840857E+02  0.73979116834E+01  0.58198591796E+02  0.60761998303E+02  0.10566000000E+00 0. -1.
        994    1    1    2    0    0  0.12187538287E+02 -0.93967216313E+01  0.33266158565E+01  0.17192248497E+03  0.17120000000E+03 0.  0.
        998    1    1    2    0    0  0.36303025708E+01  0.19988099478E+01  0.14384747886E+04  0.14385155167E+04  0.10000000000E+02 0. -1.
</event>
<event>
 5    1  0.1129619E-008  0.3694818E+03  0.7957747E-01  0.3498276E+00
         13   -1    0    0    0    0  0.00000000000E+00  0.00000000000E+00  0.14999999963E+04  0.15000000000E+04  0.10566000000E+00 0.  1.
        994   -1    0    0    0    0 -0.00000000000E+00 -0.00000000000E+00  0.11368683772E-12  0.17120000000E+03  0.17120000000E+03 0.  0.
         13    1    1    2    0    0  0.10298540173E+03 -0.27628405617E+02  0.59990815282E+03  0.60931036816E+03  0.10566000000E+00 0.  1.
        994    1    1    2    0    0 -0.56352215160E+02  0.28302714088E+02  0.23443583301E+02  0.18394471282E+03  0.17120000000E+03 0.  0.
        998    1    1    2    0    0 -0.46633186573E+02 -0.67430847081E+00  0.87664826016E+03  0.87794491902E+03  0.10000000000E+02 0.  1.
</event>
<event>
 5    1  0.1129619E-008  0.3821660E+03  0.7957747E-01  0.3441781E+00
         13   -1    0    0    0    0  0.00000000000E+00  0.00000000000E+00  0.14999999963E+04  0.15000000000E+04  0.10566000000E+00 0. -1.
        994   -1    0    0    0    0 -0.00000000000E+00 -0.00000000000E+00  0.11368683772E-12  0.17120000000E+03  0.17120000000E+03 0.  0.
         13    1    1    2    0    0  0.14957809181E+02  0.13077908620E+02  0.64834621317E+02  0.67810817977E+02  0.10566000000E+00 0. -1.
        994    1    1    2    0    0 -0.68573961803E+01 -0.67322516688E+01  0.33503078708E+01  0.17150222056E+03  0.17120000000E+03 0.  0.
        998    1    1    2    0    0 -0.81004130009E+01 -0.63456569511E+01  0.14318150671E+04  0.14318869615E+04  0.10000000000E+02 0. -1.
</event>
<event>
 5    1  0.1129619E-008  0.3779848E+03  0.7957747E-01  0.3459980E+00
         13   -1    0    0    0    0  0.00000000000E+00  0.00000000000E+00  0.14999999963E+04  0.15000000000E+04  0.10566000000E+00 0.  1.
        994   -1    0    0    0    0 -0.00000000000E+00 -0.00000000000E+00  0.11368683772E-12  0.17120000000E+03  0.17120000000E+03 0.  0.
         13    1    1    2    0    0  0.46281709071E+02  0.21141860112E+02  0.17430242180E+03  0.18157731206E+03  0.10566000000E+00 0.  1.
        994    1    1    2    0    0 -0.96595937552E+02 -0.66109335747E+01  0.37380640516E+02  0.20020297670E+03  0.17120000000E+03 0.  0.
        998    1    1    2    0    0  0.50314228481E+02 -0.14530926537E+02  0.12883169340E+04  0.12894197112E+04  0.10000000000E+02 0.  1.
</event>
<event>
 5    1  0.1129619E-008  0.3792758E+03  0.7957747E-01  0.3454318E+00
         13   -1    0    0    0    0  0.00000000000E+00  0.00000000000E+00  0.14999999963E+04  0.15000000000E+04  0.10566000000E+00 0. -1.
        994   -1    0    0    0    0 -0.00000000000E+00 -0.00000000000E+00  0.11368683772E-12  0.17120000000E+03  0.17120000000E+03 0.  0.
         13    1    1    2    0    0 -0.13237532810E+02 -0.60321089121E+01  0.21424942936E+02  0.25897064634E+02  0.10566000000E+00 0. -1.
        994    1    1    2    0    0  0.12132696261E+02  0.68403567204E+01  0.51494943470E+01  0.17184280634E+03  0.17120000000E+03 0.  0.
        998    1    1    2    0    0  0.11048365490E+01 -0.80824780829E+00  0.14734255590E+04  0.14734601290E+04  0.10000000000E+02 0. -1.
</event>
<event>
 5    1  0.1129619E-008  0.3966546E+03  0.7957747E-01  0.3381699E+00
         13   -1    0    0    0    0  0.00000000000E+00  0.00000000000E+00  0.14999999963E+04  0.15000000000E+04  0.10566000000E+00 0. -1.
        994   -1    0    0    0    0 -0.00000000000E+00 -0.00000000000E+00  0.11368683772E-12  0.17120000000E+03  0.17120000000E+03 0.  0.
         13    1    1    2    0    0  0.93450457731E+01  0.44133186350E+02  0.29146224191E+02  0.53708300723E+02  0.10566000000E+00 0. -1.
        994    1    1    2    0    0 -0.15382779130E+02 -0.40633505472E+02  0.33119190459E+02  0.17970540459E+03  0.17120000000E+03 0.  0.
        998    1    1    2    0    0  0.60377333568E+01 -0.34996808784E+01  0.14377345816E+04  0.14377862947E+04  0.10000000000E+02 0. -1.
</event>
<event>
 5    1  0.1129619E-008  0.3820463E+03  0.7957747E-01  0.3442297E+00
         13   -1    0    0    0    0  0.00000000000E+00  0.00000000000E+00  0.14999999963E+04  0.15000000000E+04  0.10566000000E+00 0.  1.
        994   -1    0    0    0    0 -0.00000000000E+00 -0.00000000000E+00  0.11368683772E-12  0.17120000000E+03  0.17120000000E+03 0.  0.
         13    1    1    2    0    0 -0.10691147360E+02 -0.58006296764E+02  0.89831724191E+02  0.10746525453E+03  0.10566000000E+00 0.  1.
        994    1    1    2    0    0  0.13676455269E+02  0.52647397404E+02  0.28338500008E+02  0.18185517442E+03  0.17120000000E+03 0.  0.
        998    1    1    2    0    0 -0.29853079093E+01  0.53588993606E+01  0.13818297721E+04  0.13818795710E+04  0.10000000000E+02 0.  1.
</event>
<event>
 5    1  0.1129619E-008  0.3761767E+03  0.7957747E-01  0.3467977E+00
         13   -1    0    0    0    0  0.00000000000E+00  0.00000000000E+00  0.14999999963E+04  0.15000000000E+04  0.10566000000E+00 0.  1.
        994   -1    0    0    0    0 -0.00000000000E+00 -0.00000000000E+00  0.11368683772E-12  0.17120000000E+03  0.17120000000E+03 0.  0.
         13    1    1    2    0    0 -0.19983756916E+02 -0.11619462151E+03  0.34381631599E+03  0.36346968362E+03  0.10566000000E+00 0.  1.
        994    1    1    2    0    0  0.27216768667E+02  0.12340001490E+03  0.73752452503E+02  0.22520475223E+03  0.17120000000E+03 0.  0.
        998    1    1    2    0    0 -0.72330117506E+01 -0.72053933947E+01  0.10824312278E+04  0.10825255642E+04  0.10000000000E+02 0.  1.
</event>
<event>
 5    1  0.1129619E-008  0.3739435E+03  0.7957747E-01  0.3477961E+00
         13   -1    0    0    0    0  0.00000000000E+00  0.00000000000E+00  0.14999999963E+04  0.15000000000E+04  0.10566000000E+00 0.  1.
        994   -1    0    0    0    0 -0.00000000000E+00 -0.00000000000E+00  0.11368683772E-12  0.17120000000E+03  0.17120000000E+03 0.  0.
         13    1    1    2    0    0  0.24180041940E+02 -0.38777046058E+02  0.13659843774E+03  0.14403984896E+03  0.10566000000E+00 0.  1.
        994    1    1    2    0    0 -0.13287977998E+02  0.33768641528E+02  0.11727896940E+02  0.17539633712E+03  0.17120000000E+03 0.  0.
        998    1    1    2    0    0 -0.10892063943E+02  0.50084045296E+01  0.13516736616E+04  0.13517638139E+04  0.10000000000E+02 0.  1.
</event>
<event>
 5    1  0.1129619E-008  0.3734846E+03  0.7957747E-01  0.3480028E+00
         13   -1    0    0    0    0  0.00000000000E+00  0.00000000000E+00  0.14999999963E+04  0.15000000000E+04  0.10566000000E+00 0. -1.
        994   -1    0    0    0    0 -0.00000000000E+00 -0.00000000000E+00  0.11368683772E-12  0.17120000000E+03  0.17120000000E+03 0.  0.
         13    1    1    2    0    0 -0.10646087403E+02  0.51897818194E+02  0.16803287814E+03  0.17618678160E+03  0.10566000000E+00 0. -1.
        994    1    1    2    0    0  0.15512267637E+02 -0.48386628949E+02  0.16332332698E+02  0.17932674480E+03  0.17120000000E+03 0.  0.
        998    1    1    2    0    0 -0.48661802344E+01 -0.35111892449E+01  0.13156347854E+04  0.13156864736E+04  0.10000000000E+02 0. -1.
</event>
<event>
 5    1  0.1129619E-008  0.3853014E+03  0.7957747E-01  0.3428395E+00
         13   -1    0    0    0    0  0.00000000000E+00  0.00000000000E+00  0.14999999963E+04  0.15000000000E+04  0.10566000000E+00 0. -1.
        994   -1    0    0    0    0 -0.00000000000E+00 -0.00000000000E+00  0.11368683772E-12  0.17120000000E+03  0.17120000000E+03 0.  0.
         13    1    1    2    0    0 -0.15590356522E+02 -0.80905415591E+01  0.10373637259E+03  0.10521293762E+03  0.10566000000E+00 0. -1.
        994    1    1    2    0    0  0.99416278357E+01  0.70662873767E+01  0.19694760462E+01  0.17164523651E+03  0.17120000000E+03 0.  0.
        998    1    1    2    0    0  0.56487286860E+01  0.10242541824E+01  0.13942941476E+04  0.13943418259E+04  0.10000000000E+02 0. -1.
</event>
<event>
 5    1  0.1129619E-008  0.3827550E+03  0.7957747E-01  0.3439249E+00
         13   -1    0    0    0    0  0.00000000000E+00  0.00000000000E+00  0.14999999963E+04  0.15000000000E+04  0.10566000000E+00 0. -1.
        994   -1    0    0    0    0 -0.00000000000E+00 -0.00000000000E+00  0.11368683772E-12  0.17120000000E+03  0.17120000000E+03 0.  0.
         13    1    1    2    0    0  0.84911177194E+01 -0.60957688357E+01  0.18855385332E+02  0.21559086202E+02  0.10566000000E+00 0. -1.
        994    1    1    2    0    0 -0.40365761260E+01  0.59312023697E+01  0.29193737952E+01  0.17137513195E+03  0.17120000000E+03 0.  0.
        998    1    1    2    0    0 -0.44545415934E+01  0.16456646600E+00  0.14782252372E+04  0.14782657818E+04  0.10000000000E+02 0. -1.
</event>
<event>
 5    1  0.1129619E-008  0.3727038E+03  0.7957747E-01  0.3483556E+00
         13   -1    0    0    0    0  0.00000000000E+00  0.00000000000E+00  0.14999999963E+04  0.15000000000E+04  0.10566000000E+00 0.  1.
        994   -1    0    0    0    0 -0.00000000000E+00 -0.00000000000E+00  0.11368683772E-12  0.17120000000E+03  0.17120000000E+03 0.  0.
         13    1    1    2    0    0 -0.39570977192E+01 -0.33676805772E+02  0.69958194395E+02  0.77742819581E+02  0.10566000000E+00 0.  1.
        994    1    1    2    0    0 -0.35719416284E+02  0.27116140320E+02  0.14783883445E+02  0.17759269404E+03  0.17120000000E+03 0.  0.
        998    1    1    2    0    0  0.39676514003E+02  0.65606654522E+01  0.14152579184E+04  0.14158644864E+04  0.10000000000E+02 0.  1.
</event>
<event>
 5    1  0.1129619E-008  0.3849359E+03  0.7957747E-01  0.3429944E+00
         13   -1    0    0    0    0  0.00000000000E+00  0.00000000000E+00  0.14999999963E+04  0.15000000000E+04  0.10566000000E+00 0. -1.
        994   -1    0    0    0    0 -0.00000000000E+00 -0.00000000000E+00  0.11368683772E-12  0.17120000000E+03  0.17120000000E+03 0.  0.
         13    1    1    2    0    0 -0.15532579732E+02  0.27019727831E+01  0.75649632181E+02  0.77275091092E+02  0.10566000000E+00 0. -1.
        994    1    1    2    0    0  0.91592648060E+01  0.24370353422E+01  0.19574984075E+01  0.17147333050E+03  0.17120000000E+03 0.  0.
        998    1    1    2    0    0  0.63733149264E+01 -0.51390081253E+01  0.14223928657E+04  0.14224515784E+04  0.10000000000E+02 0. -1.
</event>
<event>
 5    1  0.1129619E-008  0.3836082E+03  0.7957747E-01  0.3435597E+00
         13   -1    0    0    0    0  0.00000000000E+00  0.00000000000E+00  0.14999999963E+04  0.15000000000E+04  0.10566000000E+00 0.  1.
        994   -1    0    0    0    0 -0.00000000000E+00 -0.00000000000E+00  0.11368683772E-12  0.17120000000E+03  0.17120000000E+03 0.  0.
         13    1    1    2    0    0  0.30844354513E+01  0.10897647271E+02  0.26403010785E+02  0.28729820756E+02  0.10566000000E+00 0.  1.
        994    1    1    2    0    0 -0.13865618988E+02 -0.92779774120E+01  0.32427685960E+01  0.17204154092E+03  0.17120000000E+03 0.  0.
        998    1    1    2    0    0  0.10781183537E+02 -0.16196698592E+01  0.14703542169E+04  0.14704286383E+04  0.10000000000E+02 0.  1.
</event>
<event>
 5    1  0.1129619E-008  0.3780163E+03  0.7957747E-01  0.3459842E+00
         13   -1    0    0    0    0  0.00000000000E+00  0.00000000000E+00  0.14999999963E+04  0.15000000000E+04  0.10566000000E+00 0.  1.
        994   -1    0    0    0    0 -0.00000000000E+00 -0.00000000000E+00  0.11368683772E-12  0.17120000000E+03  0.17120000000E+03 0.  0.
         13    1    1    2    0    0  0.21037396606E+02 -0.17489619446E+02  0.71269359535E+02  0.76339973912E+02  0.10566000000E+00 0.  1.
        994    1    1    2    0    0 -0.13367149648E+01  0.23746784246E+02  0.70437557641E+01  0.17298771940E+03  0.17120000000E+03 0.  0.
        998    1    1    2    0    0 -0.19700681642E+02 -0.62571648008E+01  0.14216868810E+04  0.14218723067E+04  0.10000000000E+02 0.  1.
</event>
<event>
 5    1  0.1129619E-008  0.3686210E+03  0.7957747E-01  0.3502252E+00
         13   -1    0    0    0    0  0.00000000000E+00  0.00000000000E+00  0.14999999963E+04  0.15000000000E+04  0.10566000000E+00 0.  1.
        994   -1    0    0    0    0 -0.00000000000E+00 -0.00000000000E+00  0.11368683772E-12  0.17120000000E+03  0.17120000000E+03 0.  0.
         13    1    1    2    0    0 -0.29838059141E+02 -0.25481127821E+01  0.41425979458E+02  0.51116783840E+02  0.10566000000E+00 0.  1.
        994    1    1    2    0    0  0.15852604362E+02  0.29575419090E+01  0.10895606174E+02  0.17230265916E+03  0.17120000000E+03 0.  0.
        998    1    1    2    0    0  0.13985454779E+02 -0.40942912691E+00  0.14476784106E+04  0.14477805570E+04  0.10000000000E+02 0.  1.
</event>
<event>
 5    1  0.1129619E-008  0.3722502E+03  0.7957747E-01  0.3485613E+00
         13   -1    0    0    0    0  0.00000000000E+00  0.00000000000E+00  0.14999999963E+04  0.15000000000E+04  0.10566000000E+00 0. -1.
        994   -1    0    0    0    0 -0.00000000000E+00 -0.00000000000E+00  0.11368683772E-12  0.17120000000E+03  0.17120000000E+03 0.  0.
         13    1    1    2    0    0  0.68971186926E+02 -0.37758718207E+02  0.20664032742E+03  0.22109496038E+03  0.10566000000E+00 0. -1.
        994    1    1    2    0    0 -0.83868746791E+02  0.29383533267E+02  0.40509618444E+02  0.19709852334E+03  0.17120000000E+03 0.  0.
        998    1    1    2    0    0  0.14897559865E+02  0.83751849403E+01  0.12528500504E+04  0.12530065163E+04  0.10000000000E+02 0. -1.
</event>
<event>
 5    1  0.1129619E-008  0.3847652E+03  0.7957747E-01  0.3430668E+00
         13   -1    0    0    0    0  0.00000000000E+00  0.00000000000E+00  0.14999999963E+04  0.15000000000E+04  0.10566000000E+00 0.  1.
        994   -1    0    0    0    0 -0.00000000000E+00 -0.00000000000E+00  0.11368683772E-12  0.17120000000E+03  0.17120000000E+03 0.  0.
         13    1    1    2    0    0  0.43695138408E+02 -0.48596079400E+01  0.47122950468E+02  0.64447378028E+02  0.10566000000E+00 0.  1.
        994    1    1    2    0    0 -0.62101485689E+01 -0.31629046338E+02  0.22810845559E+02  0.17569501186E+03  0.17120000000E+03 0.  0.
        998    1    1    2    0    0 -0.37484989840E+02  0.36488654278E+02  0.14300662003E+04  0.14310576101E+04  0.10000000000E+02 0.  1.
</event>
<event>
 5    1  0.1129619E-008  0.3756630E+03  0.7957747E-01  0.3470263E+00
         13   -1    0    0    0    0  0.00000000000E+00  0.00000000000E+00  0.14999999963E+04  0.15000000000E+04  0.10566000000E+00 0. -1.
        994   -1    0    0    0    0 -0.00000000000E+00 -0.00000000000E+00  0.11368683772E-12  0.17120000000E+03  0.17120000000E+03 0.  0.
         13    1    1    2    0    0  0.42588656069E+01 -0.19941581712E+02  0.29128185757E+02  0.35556532269E+02  0.10566000000E+00 0. -1.
        994    1    1    2    0    0  0.12126483431E+02  0.30219807314E+02  0.99431567268E+01  0.17455255575E+03  0.17120000000E+03 0.  0.
        998    1    1    2    0    0 -0.16385349038E+02 -0.10278225602E+02  0.14609286538E+04  0.14610909120E+04  0.10000000000E+02 0. -1.
</event>
<event>
 5    1  0.1129619E-008  0.3838533E+03  0.7957747E-01  0.3434550E+00
         13   -1    0    0    0    0  0.00000000000E+00  0.00000000000E+00  0.14999999963E+04  0.15000000000E+04  0.10566000000E+00 0.  1.
        994   -1    0    0    0    0 -0.00000000000E+00 -0.00000000000E+00  0.11368683772E-12  0.17120000000E+03  0.17120000000E+03 0.  0.
         13    1    1    2    0    0  0.13314173442E+02  0.17593552387E+02  0.10845312966E+03  0.11067471616E+03  0.10566000000E+00 0.  1.
        994    1    1    2    0    0 -0.56783598651E+01 -0.15633568277E+02  0.31142457552E+01  0.17203427203E+03  0.17120000000E+03 0.  0.
        998    1    1    2    0    0 -0.76358135768E+01 -0.19599841104E+01  0.13884326209E+04  0.13884910118E+04  0.10000000000E+02 0.  1.
</event>
<event>
 5    1  0.1129619E-008  0.3757438E+03  0.7957747E-01  0.3469903E+00
         13   -1    0    0    0    0  0.00000000000E+00  0.00000000000E+00  0.14999999963E+04  0.15000000000E+04  0.10566000000E+00 0. -1.
        994   -1    0    0    0    0 -0.00000000000E+00 -0.00000000000E+00  0.11368683772E-12  0.17120000000E+03  0.17120000000E+03 0.  0.
         13    1    1    2    0    0 -0.18682652332E+02  0.59630871341E+02  0.14651295278E+03  0.15928257535E+03  0.10566000000E+00 0. -1.
        994    1    1    2    0    0  0.45041025848E+02 -0.49203181656E+01  0.21369463982E+02  0.17837880348E+03  0.17120000000E+03 0.  0.
        998    1    1    2    0    0 -0.26358373516E+02 -0.54710553175E+02  0.13321175795E+04  0.13335386212E+04  0.10000000000E+02 0. -1.
</event>
<event>
 5    1  0.1129619E-008  0.3696031E+03  0.7957747E-01  0.3497717E+00
         13   -1    0    0    0    0  0.00000000000E+00  0.00000000000E+00  0.14999999963E+04  0.15000000000E+04  0.10566000000E+00 0.  1.
        994   -1    0    0    0    0 -0.00000000000E+00 -0.00000000000E+00  0.11368683772E-12  0.17120000000E+03  0.17120000000E+03 0.  0.
         13    1    1    2    0    0  0.63426541770E+02  0.15951529842E+03  0.64838403509E+03  0.67072343388E+03  0.10566000000E+00 0.  1.
        994    1    1    2    0    0 -0.69400155871E+02 -0.17164371117E+03  0.13953449233E+03  0.28819656446E+03  0.17120000000E+03 0.  0.
        998    1    1    2    0    0  0.59736141016E+01  0.12128412752E+02  0.71208146887E+03  0.71228000166E+03  0.10000000000E+02 0. -1.
</event>
<event>
 5    1  0.1129619E-008  0.3855486E+03  0.7957747E-01  0.3427349E+00
         13   -1    0    0    0    0  0.00000000000E+00  0.00000000000E+00  0.14999999963E+04  0.15000000000E+04  0.10566000000E+00 0.  1.
        994   -1    0    0    0    0 -0.00000000000E+00 -0.00000000000E+00  0.11368683772E-12  0.17120000000E+03  0.17120000000E+03 0.  0.
         13    1    1    2    0    0 -0.27442982324E+02 -0.17708406977E+03  0.10099255580E+04  0.10257005064E+04  0.10566000000E+00 0.  1.
        994    1    1    2    0    0  0.25240441740E+02  0.20286302102E+03  0.15327548335E+03  0.30756023636E+03  0.17120000000E+03 0.  0.
        998    1    1    2    0    0  0.22025405843E+01 -0.25778951243E+02  0.33679895492E+03  0.33793925719E+03  0.10000000000E+02 0. -1.
</event>
<event>
 5    1  0.1473096E-008  0.3857497E+03  0.7957747E-01  0.3426499E+00
         13   -1    0    0    0    0  0.00000000000E+00  0.00000000000E+00  0.14999999963E+04  0.15000000000E+04  0.10566000000E+00 0. -1.
        994   -1    0    0    0    0 -0.00000000000E+00 -0.00000000000E+00  0.11368683772E-12  0.17120000000E+03  0.17120000000E+03 0.  0.
         13    1    1    2    0    0  0.10296812612E+02 -0.61320958807E+00  0.41512191949E+02  0.42774684340E+02  0.10566000000E+00 0. -1.
        994    1    1    2    0    0 -0.11355645058E+02  0.57288877418E+00  0.16825967831E+01  0.17158540150E+03  0.17120000000E+03 0.  0.
        998    1    1    2    0    0  0.10588324459E+01  0.40320813882E-01  0.14568052075E+04  0.14568399142E+04  0.10000000000E+02 0. -1.
</event>
<event>
 5    1  0.1129619E-008  0.3716041E+03  0.7957747E-01  0.3488551E+00
         13   -1    0    0    0    0  0.00000000000E+00  0.00000000000E+00  0.14999999963E+04  0.15000000000E+04  0.10566000000E+00 0.  1.
        994   -1    0    0    0    0 -0.00000000000E+00 -0.00000000000E+00  0.11368683772E-12  0.17120000000E+03  0.17120000000E+03 0.  0.
         13    1    1    2    0    0 -0.51253919859E+01  0.42545670350E+02  0.10118301726E+03  0.10988365599E+03  0.10566000000E+00 0.  1.
        994    1    1    2    0    0  0.26262567320E+01 -0.38270905147E+02  0.13510127398E+02  0.17596455026E+03  0.17120000000E+03 0.  0.
        998    1    1    2    0    0  0.24991352540E+01 -0.42747652032E+01  0.13853068516E+04  0.13853517937E+04  0.10000000000E+02 0.  1.
</event>
<event>
 5    1  0.1129619E-008  0.3845595E+03  0.7957747E-01  0.3431543E+00
         13   -1    0    0    0    0  0.00000000000E+00  0.00000000000E+00  0.14999999963E+04  0.15000000000E+04  0.10566000000E+00 0.  1.
        994   -1    0    0    0    0 -0.00000000000E+00 -0.00000000000E+00  0.11368683772E-12  0.17120000000E+03  0.17120000000E+03 0.  0.
         13    1    1    2    0    0 -0.13800605309E+02 -0.11755826506E+02  0.10010708941E+03  0.10173542489E+03  0.10566000000E+00 0.  1.
        994    1    1    2    0    0  0.19985350640E+01 -0.89642899376E+01  0.21268546841E+01  0.17145937171E+03  0.17120000000E+03 0.  0.
        998    1    1    2    0    0  0.11802070245E+02  0.20720116444E+02  0.13977660522E+04  0.13980052034E+04  0.10000000000E+02 0.  1.
</event>
<event>
 5    1  0.1129619E-008  0.3857044E+03  0.7957747E-01  0.3426690E+00
         13   -1    0    0    0    0  0.00000000000E+00  0.00000000000E+00  0.14999999963E+04  0.15000000000E+04  0.10566000000E+00 0. -1.
        994   -1    0    0    0    0 -0.00000000000E+00 -0.00000000000E+00  0.11368683772E-12  0.17120000000E+03  0.17120000000E+03 0.  0.
         13    1    1    2    0    0 -0.12071813839E+02  0.33016007122E+01  0.62161549057E+02  0.63408978874E+02  0.10566000000E+00 0. -1.
        994    1    1    2    0    0  0.23246842689E+01 -0.20053999687E+02  0.26192347057E+01  0.17240611199E+03  0.17120000000E+03 0.  0.
        998    1    1    2    0    0  0.97471295701E+01  0.16752398975E+02  0.14352192125E+04  0.14353849091E+04  0.10000000000E+02 0. -1.
</event>
<event>
 5    1  0.1129619E-008  0.3848758E+03  0.7957747E-01  0.3430199E+00
         13   -1    0    0    0    0  0.00000000000E+00  0.00000000000E+00  0.14999999963E+04  0.15000000000E+04  0.10566000000E+00 0.  1.
        994   -1    0    0    0    0 -0.00000000000E+00 -0.00000000000E+00  0.11368683772E-12  0.17120000000E+03  0.17120000000E+03 0.  0.
         13    1    1    2    0    0 -0.11991780233E+02  0.70791650211E+01  0.58317553296E+02  0.59957197709E+02  0.10566000000E+00 0.  1.
        994    1    1    2    0    0  0.21100752528E+01 -0.84259399916E+01  0.19400989087E+01  0.17143118989E+03  0.17120000000E+03 0.  0.
        998    1    1    2    0    0  0.98817049801E+01  0.13467749705E+01  0.14397423441E+04  0.14398116124E+04  0.10000000000E+02 0.  1.
</event>
<event>
 5    1  0.1129619E-008  0.3851046E+03  0.7957747E-01  0.3429229E+00
         13   -1    0    0    0    0  0.00000000000E+00  0.00000000000E+00  0.14999999963E+04  0.15000000000E+04  0.10566000000E+00 0.  1.
        994   -1    0    0    0    0 -0.00000000000E+00 -0.00000000000E+00  0.11368683772E-12  0.17120000000E+03  0.17120000000E+03 0.  0.
         13    1    1    2    0    0  0.13024944660E+02 -0.24709474071E+01  0.54976090669E+02  0.56552068696E+02  0.10566000000E+00 0.  1.
        994    1    1    2    0    0 -0.92082447224E+01  0.11405901242E+02  0.22849796997E+01  0.17184163490E+03  0.17120000000E+03 0.  0.
        998    1    1    2    0    0 -0.38166999377E+01 -0.89349538349E+01  0.14427389259E+04  0.14428062964E+04  0.10000000000E+02 0.  1.
</event>
<event>
 5    1  0.1129619E-008  0.3856619E+03  0.7957747E-01  0.3426870E+00
         13   -1    0    0    0    0  0.00000000000E+00  0.00000000000E+00  0.14999999963E+04  0.15000000000E+04  0.10566000000E+00 0. -1.
        994   -1    0    0    0    0 -0.00000000000E+00 -0.00000000000E+00  0.11368683772E-12  0.17120000000E+03  0.17120000000E+03 0.  0.
         13    1    1    2    0    0  0.70183138563E+01  0.80770621774E+01  0.43185266380E+02  0.44491280710E+02  0.10566000000E+00 0. -1.
        994    1    1    2    0    0 -0.10386512149E+02 -0.60801557418E+01  0.17773611001E+01  0.17163171892E+03  0.17120000000E+03 0.  0.
        998    1    1    2    0    0  0.33681982928E+01 -0.19969064356E+01  0.14550373688E+04  0.14550770004E+04  0.10000000000E+02 0. -1.
</event>
<event>
 5    1  0.1129619E-008  0.3788858E+03  0.7957747E-01  0.3456024E+00
         13   -1    0    0    0    0  0.00000000000E+00  0.00000000000E+00  0.14999999963E+04  0.15000000000E+04  0.10566000000E+00 0. -1.
        994   -1    0    0    0    0 -0.00000000000E+00 -0.00000000000E+00  0.11368683772E-12  0.17120000000E+03  0.17120000000E+03 0.  0.
         13    1    1    2    0    0 -0.58323140308E+02  0.37569657215E+02  0.12976445836E+03  0.14714582446E+03  0.10566000000E+00 0. -1.
        994    1    1    2    0    0  0.70662339871E+02 -0.40094630079E+02  0.39942077409E+02  0.19366351021E+03  0.17120000000E+03 0.  0.
        998    1    1    2    0    0 -0.12339199563E+02  0.25249728644E+01  0.13302934605E+04  0.13303906653E+04  0.10000000000E+02 0. -1.
</event>
<event>
 5    1  0.1129619E-008  0.3687198E+03  0.7957747E-01  0.3501795E+00
         13   -1    0    0    0    0  0.00000000000E+00  0.00000000000E+00  0.14999999963E+04  0.15000000000E+04  0.10566000000E+00 0. -1.
        994   -1    0    0    0    0 -0.00000000000E+00 -0.00000000000E+00  0.11368683772E-12  0.17120000000E+03  0.17120000000E+03 0.  0.
         13    1    1    2    0    0  0.11187597013E+02 -0.38819486793E+01  0.24114025445E+01  0.12085440776E+02  0.10566000000E+00 0. -1.
        994    1    1    2    0    0 -0.12274755684E+02  0.29945039641E+01  0.10494390796E+02  0.17198607188E+03  0.17120000000E+03 0.  0.
        998    1    1    2    0    0  0.10871586705E+01  0.88744471523E+00  0.14870942029E+04  0.14871284873E+04  0.10000000000E+02 0. -1.
</event>
<event>
 5    1  0.1129619E-008  0.3827610E+03  0.7957747E-01  0.3439224E+00
         13   -1    0    0    0    0  0.00000000000E+00  0.00000000000E+00  0.14999999963E+04  0.15000000000E+04  0.10566000000E+00 0. -1.
        994   -1    0    0    0    0 -0.00000000000E+00 -0.00000000000E+00  0.11368683772E-12  0.17120000000E+03  0.17120000000E+03 0.  0.
         13    1    1    2    0    0 -0.76865372190E+01  0.12487032888E+02  0.39781746243E+02  0.42398199761E+02  0.10566000000E+00 0. -1.
        994    1    1    2    0    0  0.12166872827E+02  0.73185142422E+01  0.34139572147E+01  0.17182167660E+03  0.17120000000E+03 0.  0.
        998    1    1    2    0    0 -0.44803356079E+01 -0.19805547130E+02  0.14568042928E+04  0.14569801236E+04  0.10000000000E+02 0. -1.
</event>
<event>
 5    1  0.1129619E-008  0.3835506E+03  0.7957747E-01  0.3435843E+00
         13   -1    0    0    0    0  0.00000000000E+00  0.00000000000E+00  0.14999999963E+04  0.15000000000E+04  0.10566000000E+00 0. -1.
        994   -1    0    0    0    0 -0.00000000000E+00 -0.00000000000E+00  0.11368683772E-12  0.17120000000E+03  0.17120000000E+03 0.  0.
         13    1    1    2    0    0  0.19923137498E+02  0.37642134406E+01  0.80403886735E+02  0.82921027953E+02  0.10566000000E+00 0. -1.
        994    1    1    2    0    0 -0.22240898601E+02 -0.24342843856E+02  0.59521640554E+01  0.17444798616E+03  0.17120000000E+03 0.  0.
        998    1    1    2    0    0  0.23177611030E+01  0.20578630415E+02  0.14136439455E+04  0.14138309859E+04  0.10000000000E+02 0. -1.
</event>
<event>
 5    1  0.1129619E-008  0.3817909E+03  0.7957747E-01  0.3443397E+00
         13   -1    0    0    0    0  0.00000000000E+00  0.00000000000E+00  0.14999999963E+04  0.15000000000E+04  0.10566000000E+00 0.  1.
        994   -1    0    0    0    0 -0.00000000000E+00 -0.00000000000E+00  0.11368683772E-12  0.17120000000E+03  0.17120000000E+03 0.  0.
         13    1    1    2    0    0  0.52064315623E+01 -0.16261351074E+02  0.56820090817E+02  0.59330197647E+02  0.10566000000E+00 0.  1.
        994    1    1    2    0    0 -0.41138693350E+02 -0.58577173430E+02  0.20450327222E+02  0.18668511784E+03  0.17120000000E+03 0.  0.
        998    1    1    2    0    0  0.35932261787E+02  0.74838524504E+02  0.14227295782E+04  0.14251846845E+04  0.10000000000E+02 0.  1.
</event>
<event>
 5    1  0.1129619E-008  0.3771085E+03  0.7957747E-01  0.3463846E+00
         13   -1    0    0    0    0  0.00000000000E+00  0.00000000000E+00  0.14999999963E+04  0.15000000000E+04  0.10566000000E+00 0. -1.
        994   -1    0    0    0    0 -0.00000000000E+00 -0.00000000000E+00  0.11368683772E-12  0.17120000000E+03  0.17120000000E+03 0.  0.
         13    1    1    2    0    0 -0.35381107853E+01 -0.16672648948E+02  0.23744531147E+02  0.29228571198E+02  0.10566000000E+00 0. -1.
        994    1    1    2    0    0  0.15103066853E+02  0.62251068761E+01  0.65011168138E+01  0.17210043319E+03  0.17120000000E+03 0.  0.
        998    1    1    2    0    0 -0.11564956068E+02  0.10447542072E+02  0.14697543483E+04  0.14698709956E+04  0.10000000000E+02 0. -1.
</event>
<event>
 5    1  0.1129619E-008  0.3825517E+03  0.7957747E-01  0.3440123E+00
         13   -1    0    0    0    0  0.00000000000E+00  0.00000000000E+00  0.14999999963E+04  0.15000000000E+04  0.10566000000E+00 0. -1.
        994   -1    0    0    0    0 -0.00000000000E+00 -0.00000000000E+00  0.11368683772E-12  0.17120000000E+03  0.17120000000E+03 0.  0.
         13    1    1    2    0    0  0.47965786272E+01 -0.16776051968E+02  0.54986041568E+02  0.57688118513E+02  0.10566000000E+00 0. -1.
        994    1    1    2    0    0 -0.72530771124E+01 -0.71330045955E+00  0.30266804113E+01  0.17138178643E+03  0.17120000000E+03 0.  0.
        998    1    1    2    0    0  0.24564984852E+01  0.17489352428E+02  0.14419872743E+04  0.14421300951E+04  0.10000000000E+02 0. -1.
</event>
<event>
 5    1  0.1129619E-008  0.3781015E+03  0.7957747E-01  0.3459467E+00
         13   -1    0    0    0    0  0.00000000000E+00  0.00000000000E+00  0.14999999963E+04  0.15000000000E+04  0.10566000000E+00 0. -1.
        994   -1    0    0    0    0 -0.00000000000E+00 -0.00000000000E+00  0.11368683772E-12  0.17120000000E+03  0.17120000000E+03 0.  0.
         13    1    1    2    0    0  0.54866922300E+02 -0.24015360431E+02  0.28246024216E+03  0.28874022280E+03  0.10566000000E+00 0. -1.
        994    1    1    2    0    0 -0.61115011488E+02  0.13691171605E+02  0.18405462534E+02  0.18322307131E+03  0.17120000000E+03 0.  0.
        998    1    1    2    0    0  0.62480891887E+01  0.10324188826E+02  0.11991342916E+04  0.11992367059E+04  0.10000000000E+02 0. -1.
</event>
<event>
 5    1  0.1129619E-008  0.3835559E+03  0.7957747E-01  0.3435820E+00
         13   -1    0    0    0    0  0.00000000000E+00  0.00000000000E+00  0.14999999963E+04  0.15000000000E+04  0.10566000000E+00 0. -1.
        994   -1    0    0    0    0 -0.00000000000E+00 -0.00000000000E+00  0.11368683772E-12  0.17120000000E+03  0.17120000000E+03 0.  0.
         13    1    1    2    0    0  0.17110778138E+03 -0.11209509428E+03  0.11160795586E+04  0.11346703377E+04  0.10566000000E+00 0. -1.
        994    1    1    2    0    0 -0.17940694578E+03  0.10909613227E+03  0.16501743947E+03  0.31722076477E+03  0.17120000000E+03 0.  0.
        998    1    1    2    0    0  0.82991644009E+01  0.29989620144E+01  0.21890299819E+03  0.21930889749E+03  0.10000000000E+02 0. -1.
</event>
<event>
 5    1  0.1129619E-008  0.3580906E+03  0.7957747E-01  0.3552481E+00
         13   -1    0    0    0    0  0.00000000000E+00  0.00000000000E+00  0.14999999963E+04  0.15000000000E+04  0.10566000000E+00 0. -1.
        994   -1    0    0    0    0 -0.00000000000E+00 -0.00000000000E+00  0.11368683772E-12  0.17120000000E+03  0.17120000000E+03 0.  0.
         13    1    1    2    0    0  0.11494173725E+03  0.17932813633E+03  0.11292133318E+04  0.11491270353E+04  0.10566000000E+00 0. -1.
        994    1    1    2    0    0 -0.13049951617E+03 -0.13862409035E+03  0.14986849569E+03  0.29667620084E+03  0.17120000000E+03 0.  0.
        998    1    1    2    0    0  0.15557778924E+02 -0.40704045984E+02  0.22091816877E+03  0.22539676381E+03  0.10000000000E+02 0.  1.
</event>
<event>
 5    1  0.1129619E-008  0.3696179E+03  0.7957747E-01  0.3497649E+00
         13   -1    0    0    0    0  0.00000000000E+00  0.00000000000E+00  0.14999999963E+04  0.15000000000E+04  0.10566000000E+00 0. -1.
        994   -1    0    0    0    0 -0.00000000000E+00 -0.00000000000E+00  0.11368683772E-12  0.17120000000E+03  0.17120000000E+03 0.  0.
         13    1    1    2    0    0  0.30485116358E+02  0.27202215637E+02  0.89106092907E+02  0.98026577070E+02  0.10566000000E+00 0. -1.
        994    1    1    2    0    0 -0.23340911053E+02  0.83251467735E+01  0.11597971484E+02  0.17337260205E+03  0.17120000000E+03 0.  0.
        998    1    1    2    0    0 -0.71442053050E+01 -0.35527362410E+02  0.13992959319E+04  0.13998008209E+04  0.10000000000E+02 0. -1.
</event>
<event>
 5    1  0.1129619E-008  0.3704929E+03  0.7957747E-01  0.3493629E+00
         13   -1    0    0    0    0  0.00000000000E+00  0.00000000000E+00  0.14999999963E+04  0.15000000000E+04  0.10566000000E+00 0. -1.
        994   -1    0    0    0    0 -0.00000000000E+00 -0.00000000000E+00  0.11368683772E-12  0.17120000000E+03  0.17120000000E+03 0.  0.
         13    1    1    2    0    0 -0.14031014470E+02 -0.51776450223E+02  0.18062896007E+03  0.18842638495E+03  0.10566000000E+00 0. -1.
        994    1    1    2    0    0 -0.12005406464E+02  0.74195585660E+01  0.96994896618E+01  0.17205435110E+03  0.17120000000E+03 0.  0.
        998    1    1    2    0    0  0.26036420934E+02  0.44356891657E+02  0.13096715465E+04  0.13107192639E+04  0.10000000000E+02 0. -1.
</event>
<event>
 5    1  0.1129619E-008  0.3711092E+03  0.7957747E-01  0.3490808E+00
         13   -1    0    0    0    0  0.00000000000E+00  0.00000000000E+00  0.14999999963E+04  0.15000000000E+04  0.10566000000E+00 0.  1.
        994   -1    0    0    0    0 -0.00000000000E+00 -0.00000000000E+00  0.11368683772E-12  0.17120000000E+03  0.17120000000E+03 0.  0.
         13    1    1    2    0    0 -0.22328190376E+01  0.14637563961E+02  0.42220518970E+01  0.15397423350E+02  0.10566000000E+00 0.  1.
        994    1    1    2    0    0 -0.19452565114E+01 -0.14402590070E+02  0.12268178699E+02  0.17225320558E+03  0.17120000000E+03 0.  0.
        998    1    1    2    0    0  0.41780755491E+01 -0.23497389182E+00  0.14835097657E+04  0.14835493711E+04  0.10000000000E+02 0.  1.
</event>
<event>
 5    1  0.1129619E-008  0.3714624E+03  0.7957747E-01  0.3489197E+00
         13   -1    0    0    0    0  0.00000000000E+00  0.00000000000E+00  0.14999999963E+04  0.15000000000E+04  0.10566000000E+00 0.  1.
        994   -1    0    0    0    0 -0.00000000000E+00 -0.00000000000E+00  0.11368683772E-12  0.17120000000E+03  0.17120000000E+03 0.  0.
         13    1    1    2    0    0  0.37765180925E+01 -0.42943869316E+02  0.10931610890E+03  0.11750940741E+03  0.10566000000E+00 0.  1.
        994    1    1    2    0    0  0.29522145279E+01  0.19896973408E+02  0.98998911098E+01  0.17266167196E+03  0.17120000000E+03 0.  0.
        998    1    1    2    0    0 -0.67287326204E+01  0.23046895908E+02  0.13807839963E+04  0.13810289206E+04  0.10000000000E+02 0.  1.
</event>
<event>
 5    1  0.1129619E-008  0.3858146E+03  0.7957747E-01  0.3426225E+00
         13   -1    0    0    0    0  0.00000000000E+00  0.00000000000E+00  0.14999999963E+04  0.15000000000E+04  0.10566000000E+00 0.  1.
        994   -1    0    0    0    0 -0.00000000000E+00 -0.00000000000E+00  0.11368683772E-12  0.17120000000E+03  0.17120000000E+03 0.  0.
         13    1    1    2    0    0  0.70284853130E+01  0.96468649694E+01  0.59681421879E+02  0.60863329609E+02  0.10566000000E+00 0.  1.
        994    1    1    2    0    0  0.34110177322E+01 -0.92607197778E+01  0.15457610543E+01  0.17149118155E+03  0.17120000000E+03 0.  0.
        998    1    1    2    0    0 -0.10439503045E+02 -0.38614519169E+00  0.14387728133E+04  0.14388454888E+04  0.10000000000E+02 0.  1.
</event>
<event>
 5    1  0.1129619E-008  0.3833855E+03  0.7957747E-01  0.3436548E+00
         13   -1    0    0    0    0  0.00000000000E+00  0.00000000000E+00  0.14999999963E+04  0.15000000000E+04  0.10566000000E+00 0.  1.
        994   -1    0    0    0    0 -0.00000000000E+00 -0.00000000000E+00  0.11368683772E-12  0.17120000000E+03  0.17120000000E+03 0.  0.
         13    1    1    2    0    0 -0.10336313991E+02 -0.11872543099E+02  0.51192503177E+02  0.53558194631E+02  0.10566000000E+00 0.  1.
        994    1    1    2    0    0 -0.95405717797E+00  0.93611485493E+01  0.27265911538E+01  0.17148007356E+03  0.17120000000E+03 0.  0.
        998    1    1    2    0    0  0.11290371169E+02  0.25113945498E+01  0.14460809019E+04  0.14461617318E+04  0.10000000000E+02 0.  1.
</event>
<event>
 5    1  0.1129619E-008  0.3736601E+03  0.7957747E-01  0.3479237E+00
         13   -1    0    0    0    0  0.00000000000E+00  0.00000000000E+00  0.14999999963E+04  0.15000000000E+04  0.10566000000E+00 0. -1.
        994   -1    0    0    0    0 -0.00000000000E+00 -0.00000000000E+00  0.11368683772E-12  0.17120000000E+03  0.17120000000E+03 0.  0.
         13    1    1    2    0    0  0.40840696994E+02 -0.73112455590E+01  0.12750922917E+03  0.13408963990E+03  0.10566000000E+00 0. -1.
        994    1    1    2    0    0 -0.44596391212E+01 -0.16894384532E+02  0.84115994880E+01  0.17229481599E+03  0.17120000000E+03 0.  0.
        998    1    1    2    0    0 -0.36381057873E+02  0.24205630091E+02  0.13640791676E+04  0.13648155441E+04  0.10000000000E+02 0. -1.
</event>
<event>
 5    1  0.1129619E-008  0.3775548E+03  0.7957747E-01  0.3461875E+00
         13   -1    0    0    0    0  0.00000000000E+00  0.00000000000E+00  0.14999999963E+04  0.15000000000E+04  0.10566000000E+00 0.  1.
        994   -1    0    0    0    0 -0.00000000000E+00 -0.00000000000E+00  0.11368683772E-12  0.17120000000E+03  0.17120000000E+03 0.  0.
         13    1    1    2    0    0 -0.11085920343E+03  0.53884085000E+02  0.62017006560E+03  0.63230070302E+03  0.10566000000E+00 0.  1.
        994    1    1    2    0    0  0.93976701057E+02  0.47006538930E+02  0.55795568556E+02  0.20847978443E+03  0.17120000000E+03 0.  0.
        998    1    1    2    0    0  0.16882502369E+02 -0.10089062393E+03  0.82403436212E+03  0.83041951256E+03  0.10000000000E+02 0.  1.
</event>
<event>
 5    1  0.1129619E-008  0.3725446E+03  0.7957747E-01  0.3484277E+00
         13   -1    0    0    0    0  0.00000000000E+00  0.00000000000E+00  0.14999999963E+04  0.15000000000E+04  0.10566000000E+00 0. -1.
        994   -1    0    0    0    0 -0.00000000000E+00 -0.00000000000E+00  0.11368683772E-12  0.17120000000E+03  0.17120000000E+03 0.  0.
         13    1    1    2    0    0 -0.81170891396E+02 -0.75823381405E+02  0.50256432468E+03  0.51469292824E+03  0.10566000000E+00 0. -1.
        994    1    1    2    0    0  0.85331149158E+02  0.70766477446E+02  0.51319076294E+02  0.21031497079E+03  0.17120000000E+03 0.  0.
        998    1    1    2    0    0 -0.41602577623E+01  0.50569039584E+01  0.94611659530E+03  0.94619210097E+03  0.10000000000E+02 0.  0.
</event>
<event>
 5    1  0.1129619E-008  0.3799699E+03  0.7957747E-01  0.3451289E+00
         13   -1    0    0    0    0  0.00000000000E+00  0.00000000000E+00  0.14999999963E+04  0.15000000000E+04  0.10566000000E+00 0.  1.
        994   -1    0    0    0    0 -0.00000000000E+00 -0.00000000000E+00  0.11368683772E-12  0.17120000000E+03  0.17120000000E+03 0.  0.
         13    1    1    2    0    0 -0.31093509916E+02 -0.20562533893E+02  0.16459572518E+03  0.16876429738E+03  0.10566000000E+00 0.  1.
        994    1    1    2    0    0  0.22617629033E+02  0.78065882409E+01  0.60646849805E+01  0.17297028753E+03  0.17120000000E+03 0.  0.
        998    1    1    2    0    0  0.84758808834E+01  0.12755945652E+02  0.13293395861E+04  0.13294654151E+04  0.10000000000E+02 0.  1.
</event>
<event>
 5    1  0.1129619E-008  0.3846511E+03  0.7957747E-01  0.3431153E+00
         13   -1    0    0    0    0  0.00000000000E+00  0.00000000000E+00  0.14999999963E+04  0.15000000000E+04  0.10566000000E+00 0. -1.
        994   -1    0    0    0    0 -0.00000000000E+00 -0.00000000000E+00  0.11368683772E-12  0.17120000000E+03  0.17120000000E+03 0.  0.
         13    1    1    2    0    0 -0.46240753095E+00 -0.11958666549E+02  0.39928045766E+02  0.41683132428E+02  0.10566000000E+00 0. -1.
        994    1    1    2    0    0 -0.68458150282E+01  0.57477235928E+01  0.20665738977E+01  0.17144565389E+03  0.17120000000E+03 0.  0.
        998    1    1    2    0    0  0.73082225592E+01  0.62109429558E+01  0.14580053766E+04  0.14580712137E+04  0.10000000000E+02 0. -1.
</event>
<event>
 5    1  0.1129619E-008  0.3815657E+03  0.7957747E-01  0.3444369E+00
         13   -1    0    0    0    0  0.00000000000E+00  0.00000000000E+00  0.14999999963E+04  0.15000000000E+04  0.10566000000E+00 0. -1.
        994   -1    0    0    0    0 -0.00000000000E+00 -0.00000000000E+00  0.11368683772E-12  0.17120000000E+03  0.17120000000E+03 0.  0.
         13    1    1    2    0    0  0.94858480639E+01  0.97344942105E+01  0.26147152202E+02  0.29469075712E+02  0.10566000000E+00 0. -1.
        994    1    1    2    0    0 -0.12333097102E+02 -0.40559250515E+01  0.39056487974E+01  0.17173598896E+03  0.17120000000E+03 0.  0.
        998    1    1    2    0    0  0.28472490376E+01 -0.56785691589E+01  0.14699471953E+04  0.14699949353E+04  0.10000000000E+02 0. -1.
</event>
<event>
 5    1  0.1129619E-008  0.3855730E+03  0.7957747E-01  0.3427246E+00
         13   -1    0    0    0    0  0.00000000000E+00  0.00000000000E+00  0.14999999963E+04  0.15000000000E+04  0.10566000000E+00 0.  1.
        994   -1    0    0    0    0 -0.00000000000E+00 -0.00000000000E+00  0.11368683772E-12  0.17120000000E+03  0.17120000000E+03 0.  0.
         13    1    1    2    0    0 -0.11972647960E+02  0.52147534274E+01  0.62079356728E+02  0.63438124565E+02  0.10566000000E+00 0.  1.
        994    1    1    2    0    0  0.13639409568E+02 -0.22034312474E+00  0.19569896139E+01  0.17175375353E+03  0.17120000000E+03 0.  0.
        998    1    1    2    0    0 -0.16667616074E+01 -0.49944103026E+01  0.14359636499E+04  0.14360081219E+04  0.10000000000E+02 0.  1.
</event>
<event>
 5    1  0.1129619E-008  0.3791791E+03  0.7957747E-01  0.3454741E+00
         13   -1    0    0    0    0  0.00000000000E+00  0.00000000000E+00  0.14999999963E+04  0.15000000000E+04  0.10566000000E+00 0.  1.
        994   -1    0    0    0    0 -0.00000000000E+00 -0.00000000000E+00  0.11368683772E-12  0.17120000000E+03  0.17120000000E+03 0.  0.
         13    1    1    2    0    0 -0.10928899975E+02 -0.35072776130E+02  0.18361780907E+03  0.18725664595E+03  0.10566000000E+00 0.  1.
        994    1    1    2    0    0  0.23219945001E+02 -0.17094176779E+02  0.73398939671E+01  0.17376619570E+03  0.17120000000E+03 0.  0.
        998    1    1    2    0    0 -0.12291045027E+02  0.52166952909E+02  0.13090422932E+04  0.13101771584E+04  0.10000000000E+02 0.  1.
</event>
<event>
 5    1  0.1129619E-008  0.3817872E+03  0.7957747E-01  0.3443413E+00
         13   -1    0    0    0    0  0.00000000000E+00  0.00000000000E+00  0.14999999963E+04  0.15000000000E+04  0.10566000000E+00 0. -1.
        994   -1    0    0    0    0 -0.00000000000E+00 -0.00000000000E+00  0.11368683772E-12  0.17120000000E+03  0.17120000000E+03 0.  0.
         13    1    1    2    0    0 -0.20907316834E+02  0.87478479833E+01  0.76488499003E+02  0.79775575117E+02  0.10566000000E+00 0. -1.
        994    1    1    2    0    0  0.19704729790E+02 -0.23361625041E+01  0.45432644462E+01  0.17240596069E+03  0.17120000000E+03 0.  0.
        998    1    1    2    0    0  0.12025870443E+01 -0.64116854792E+01  0.14189682328E+04  0.14190184642E+04  0.10000000000E+02 0. -1.
</event>
<event>
 5    1  0.1129619E-008  0.3832146E+03  0.7957747E-01  0.3437280E+00
         13   -1    0    0    0    0  0.00000000000E+00  0.00000000000E+00  0.14999999963E+04  0.15000000000E+04  0.10566000000E+00 0.  1.
        994   -1    0    0    0    0 -0.00000000000E+00 -0.00000000000E+00  0.11368683772E-12  0.17120000000E+03  0.17120000000E+03 0.  0.
         13    1    1    2    0    0 -0.16957203345E+02  0.16303876424E+02  0.12561209381E+03  0.12779582312E+03  0.10566000000E+00 0.  1.
        994    1    1    2    0    0  0.74176077116E+01  0.13800965226E+02  0.33315799610E+01  0.17194774488E+03  0.17120000000E+03 0.  0.
        998    1    1    2    0    0  0.95395956333E+01 -0.30104841650E+02  0.13710563225E+04  0.13714564320E+04  0.10000000000E+02 0.  1.
</event>
<event>
 5    1  0.1129619E-008  0.3840368E+03  0.7957747E-01  0.3433767E+00
         13   -1    0    0    0    0  0.00000000000E+00  0.00000000000E+00  0.14999999963E+04  0.15000000000E+04  0.10566000000E+00 0.  1.
        994   -1    0    0    0    0 -0.00000000000E+00 -0.00000000000E+00  0.11368683772E-12  0.17120000000E+03  0.17120000000E+03 0.  0.
         13    1    1    2    0    0  0.14594367190E+02 -0.20396914017E+02  0.13825872832E+03  0.14051518343E+03  0.10566000000E+00 0.  1.
        994    1    1    2    0    0 -0.83767601221E+01  0.23818351738E+02  0.42149511884E+01  0.17310311899E+03  0.17120000000E+03 0.  0.
        998    1    1    2    0    0 -0.62176070678E+01 -0.34214377210E+01  0.13575263168E+04  0.13575816976E+04  0.10000000000E+02 0.  1.
</event>
<event>
 5    1  0.1129619E-008  0.3748057E+03  0.7957747E-01  0.3474092E+00
         13   -1    0    0    0    0  0.00000000000E+00  0.00000000000E+00  0.14999999963E+04  0.15000000000E+04  0.10566000000E+00 0. -1.
        994   -1    0    0    0    0 -0.00000000000E+00 -0.00000000000E+00  0.11368683772E-12  0.17120000000E+03  0.17120000000E+03 0.  0.
         13    1    1    2    0    0  0.27494992206E+02 -0.25724995854E+02  0.10774046223E+03  0.11413048836E+03  0.10566000000E+00 0. -1.
        994    1    1    2    0    0 -0.15534277172E+02 -0.63525263343E+00  0.76011331761E+01  0.17207246886E+03  0.17120000000E+03 0.  0.
        998    1    1    2    0    0 -0.11960715034E+02  0.26360248487E+02  0.13846584009E+04  0.13849970428E+04  0.10000000000E+02 0. -1.
</event>
<event>
 5    1  0.1129619E-008  0.3819195E+03  0.7957747E-01  0.3442843E+00
         13   -1    0    0    0    0  0.00000000000E+00  0.00000000000E+00  0.14999999963E+04  0.15000000000E+04  0.10566000000E+00 0. -1.
        994   -1    0    0    0    0 -0.00000000000E+00 -0.00000000000E+00  0.11368683772E-12  0.17120000000E+03  0.17120000000E+03 0.  0.
         13    1    1    2    0    0 -0.59926201298E+01 -0.45420914586E+02  0.20903755986E+03  0.21399926069E+03  0.10566000000E+00 0. -1.
        994    1    1    2    0    0  0.60759718559E+02  0.80834428948E+02  0.37915499897E+02  0.20241781897E+03  0.17120000000E+03 0.  0.
        998    1    1    2    0    0 -0.54767098429E+02 -0.35413514362E+02  0.12530469365E+04  0.12547829203E+04  0.10000000000E+02 0. -1.
</event>
<event>
 5    1  0.1129619E-008  0.3836053E+03  0.7957747E-01  0.3435609E+00
         13   -1    0    0    0    0  0.00000000000E+00  0.00000000000E+00  0.14999999963E+04  0.15000000000E+04  0.10566000000E+00 0. -1.
        994   -1    0    0    0    0 -0.00000000000E+00 -0.00000000000E+00  0.11368683772E-12  0.17120000000E+03  0.17120000000E+03 0.  0.
         13    1    1    2    0    0  0.16850668186E+02 -0.50399774763E+01  0.65337402185E+02  0.67663385074E+02  0.10566000000E+00 0. -1.
        994    1    1    2    0    0 -0.13961977191E+02 -0.48438294896E+00  0.29691995691E+01  0.17179472512E+03  0.17120000000E+03 0.  0.
        998    1    1    2    0    0 -0.28886909945E+01  0.55243604253E+01  0.14316933945E+04  0.14317418898E+04  0.10000000000E+02 0. -1.
</event>
<event>
 5    1  0.1129619E-008  0.3762782E+03  0.7957747E-01  0.3467526E+00
         13   -1    0    0    0    0  0.00000000000E+00  0.00000000000E+00  0.14999999963E+04  0.15000000000E+04  0.10566000000E+00 0. -1.
        994   -1    0    0    0    0 -0.00000000000E+00 -0.00000000000E+00  0.11368683772E-12  0.17120000000E+03  0.17120000000E+03 0.  0.
         13    1    1    2    0    0 -0.10016091837E+02  0.15269563541E+02  0.24684048849E+02  0.30704968621E+02  0.10566000000E+00 0. -1.
        994    1    1    2    0    0  0.98423446771E+01 -0.17400346488E+02  0.73775833061E+01  0.17252104956E+03  0.17120000000E+03 0.  0.
        998    1    1    2    0    0  0.17374716025E+00  0.21307829467E+01  0.14679383641E+04  0.14679739818E+04  0.10000000000E+02 0. -1.
</event>
<event>
 5    1  0.1244347E-008  0.3861697E+03  0.7957747E-01  0.3424726E+00
         13   -1    0    0    0    0  0.00000000000E+00  0.00000000000E+00  0.14999999963E+04  0.15000000000E+04  0.10566000000E+00 0. -1.
        994   -1    0    0    0    0 -0.00000000000E+00 -0.00000000000E+00  0.11368683772E-12  0.17120000000E+03  0.17120000000E+03 0.  0.
         13    1    1    2    0    0  0.62631209981E+01  0.78412783842E+01  0.45368688580E+02  0.46465486104E+02  0.10566000000E+00 0. -1.
        994    1    1    2    0    0 -0.68313207367E+01 -0.17040055963E+02  0.21554515845E+01  0.17219499534E+03  0.17120000000E+03 0.  0.
        998    1    1    2    0    0  0.56819973861E+00  0.91987775790E+01  0.14524758561E+04  0.14525395186E+04  0.10000000000E+02 0. -1.
</event>
<event>
 5    1  0.1811010E-008  0.3863413E+03  0.7957747E-01  0.3424003E+00
         13   -1    0    0    0    0  0.00000000000E+00  0.00000000000E+00  0.14999999963E+04  0.15000000000E+04  0.10566000000E+00 0. -1.
        994   -1    0    0    0    0 -0.00000000000E+00 -0.00000000000E+00  0.11368683772E-12  0.17120000000E+03  0.17120000000E+03 0.  0.
         13    1    1    2    0    0  0.77559422770E+01  0.85739715633E+01  0.67115448243E+02  0.68104054108E+02  0.10566000000E+00 0. -1.
        994    1    1    2    0    0 -0.10694667152E+02 -0.86744232299E+01  0.15867936089E+01  0.17176023823E+03  0.17120000000E+03 0.  0.
        998    1    1    2    0    0  0.29387248753E+01  0.10045166660E+00  0.14312977544E+04  0.14313357077E+04  0.10000000000E+02 0. -1.
</event>
<event>
 5    1  0.1129619E-008  0.3788862E+03  0.7957747E-01  0.3456022E+00
         13   -1    0    0    0    0  0.00000000000E+00  0.00000000000E+00  0.14999999963E+04  0.15000000000E+04  0.10566000000E+00 0.  1.
        994   -1    0    0    0    0 -0.00000000000E+00 -0.00000000000E+00  0.11368683772E-12  0.17120000000E+03  0.17120000000E+03 0.  0.
         13    1    1    2    0    0 -0.84943741533E+02  0.94035744314E+02  0.53034288597E+03  0.54527217818E+03  0.10566000000E+00 0.  1.
        994    1    1    2    0    0  0.11043151962E+03 -0.14287430413E+03  0.12327297736E+03  0.27769381386E+03  0.17120000000E+03 0.  0.
        998    1    1    2    0    0 -0.25487778090E+02  0.48838559820E+02  0.84638413295E+03  0.84823400796E+03  0.10000000000E+02 0.  1.
</event>
<event>
 5    1  0.1129619E-008  0.3759719E+03  0.7957747E-01  0.3468887E+00
         13   -1    0    0    0    0  0.00000000000E+00  0.00000000000E+00  0.14999999963E+04  0.15000000000E+04  0.10566000000E+00 0.  1.
        994   -1    0    0    0    0 -0.00000000000E+00 -0.00000000000E+00  0.11368683772E-12  0.17120000000E+03  0.17120000000E+03 0.  0.
         13    1    1    2    0    0 -0.24298459393E+02 -0.94105578285E+02  0.51605479540E+03  0.52512744930E+03  0.10566000000E+00 0.  1.
        994    1    1    2    0    0  0.22141896855E+02  0.90388833412E+02  0.36111548779E+02  0.19817640817E+03  0.17120000000E+03 0.  0.
        998    1    1    2    0    0  0.21565625375E+01  0.37167448736E+01  0.94783365210E+03  0.94789614252E+03  0.10000000000E+02 0.  0.
</event>
<event>
 5    1  0.1129619E-008  0.3857351E+03  0.7957747E-01  0.3426560E+00
         13   -1    0    0    0    0  0.00000000000E+00  0.00000000000E+00  0.14999999963E+04  0.15000000000E+04  0.10566000000E+00 0.  1.
        994   -1    0    0    0    0 -0.00000000000E+00 -0.00000000000E+00  0.11368683772E-12  0.17120000000E+03  0.17120000000E+03 0.  0.
         13    1    1    2    0    0 -0.12723287285E+01  0.11054672242E+02  0.46335334640E+02  0.47652901265E+02  0.10566000000E+00 0.  1.
        994    1    1    2    0    0 -0.19768404812E+02 -0.20709219824E+02  0.39593915674E+01  0.17362251696E+03  0.17120000000E+03 0.  0.
        998    1    1    2    0    0  0.21040733541E+02  0.96545475826E+01  0.14497052701E+04  0.14499245818E+04  0.10000000000E+02 0.  1.
</event>
<event>
 5    1  0.1129619E-008  0.3809017E+03  0.7957747E-01  0.3447242E+00
         13   -1    0    0    0    0  0.00000000000E+00  0.00000000000E+00  0.14999999963E+04  0.15000000000E+04  0.10566000000E+00 0. -1.
        994   -1    0    0    0    0 -0.00000000000E+00 -0.00000000000E+00  0.11368683772E-12  0.17120000000E+03  0.17120000000E+03 0.  0.
         13    1    1    2    0    0  0.16987647384E+02  0.78174621995E+01  0.45370811239E+02  0.49073562694E+02  0.10566000000E+00 0. -1.
        994    1    1    2    0    0 -0.11744768859E+02 -0.15250486983E+02  0.49145750375E+01  0.17234880329E+03  0.17120000000E+03 0.  0.
        998    1    1    2    0    0 -0.52428785256E+01  0.74330247832E+01  0.14497146100E+04  0.14497776340E+04  0.10000000000E+02 0. -1.
</event>
<event>
 5    1  0.1129619E-008  0.3820217E+03  0.7957747E-01  0.3442403E+00
         13   -1    0    0    0    0  0.00000000000E+00  0.00000000000E+00  0.14999999963E+04  0.15000000000E+04  0.10566000000E+00 0. -1.
        994   -1    0    0    0    0 -0.00000000000E+00 -0.00000000000E+00  0.11368683772E-12  0.17120000000E+03  0.17120000000E+03 0.  0.
         13    1    1    2    0    0  0.16490271012E+02  0.95953885824E+01  0.58444908851E+02  0.61480233041E+02  0.10566000000E+00 0. -1.
        994    1    1    2    0    0 -0.18378527693E+00 -0.16304763389E+02  0.39994990035E+01  0.17202126345E+03  0.17120000000E+03 0.  0.
        998    1    1    2    0    0 -0.16306485735E+02  0.67093748063E+01  0.14375555884E+04  0.14376985035E+04  0.10000000000E+02 0. -1.
</event>
<event>
 5    1  0.1129619E-008  0.3795154E+03  0.7957747E-01  0.3453271E+00
         13   -1    0    0    0    0  0.00000000000E+00  0.00000000000E+00  0.14999999963E+04  0.15000000000E+04  0.10566000000E+00 0.  1.
        994   -1    0    0    0    0 -0.00000000000E+00 -0.00000000000E+00  0.11368683772E-12  0.17120000000E+03  0.17120000000E+03 0.  0.
         13    1    1    2    0    0 -0.81500195652E+01  0.11096498173E+02  0.19535068079E+02  0.23899479900E+02  0.10566000000E+00 0.  1.
        994    1    1    2    0    0  0.89263299995E+01 -0.12002492018E+02  0.51274577641E+01  0.17192867709E+03  0.17120000000E+03 0.  0.
        998    1    1    2    0    0 -0.77631043431E+00  0.90599384504E+00  0.14753374704E+04  0.14753718430E+04  0.10000000000E+02 0.  1.
</event>
<event>
 5    1  0.1129619E-008  0.3838268E+03  0.7957747E-01  0.3434663E+00
         13   -1    0    0    0    0  0.00000000000E+00  0.00000000000E+00  0.14999999963E+04  0.15000000000E+04  0.10566000000E+00 0. -1.
        994   -1    0    0    0    0 -0.00000000000E+00 -0.00000000000E+00  0.11368683772E-12  0.17120000000E+03  0.17120000000E+03 0.  0.
         13    1    1    2    0    0  0.12194032460E+00  0.11668513423E+02  0.28851178176E+02  0.31121868857E+02  0.10566000000E+00 0. -1.
        994    1    1    2    0    0  0.14445849584E+01 -0.19205007236E+02  0.34391477876E+01  0.17231420970E+03  0.17120000000E+03 0.  0.
        998    1    1    2    0    0 -0.15665252830E+01  0.75364938129E+01  0.14677096703E+04  0.14677639214E+04  0.10000000000E+02 0. -1.
</event>
<event>
 5    1  0.1129619E-008  0.3803837E+03  0.7957747E-01  0.3449490E+00
         13   -1    0    0    0    0  0.00000000000E+00  0.00000000000E+00  0.14999999963E+04  0.15000000000E+04  0.10566000000E+00 0.  1.
        994   -1    0    0    0    0 -0.00000000000E+00 -0.00000000000E+00  0.11368683772E-12  0.17120000000E+03  0.17120000000E+03 0.  0.
         13    1    1    2    0    0  0.40515932563E+00 -0.29800141945E+02  0.10964415430E+03  0.11362246411E+03  0.10566000000E+00 0.  1.
        994    1    1    2    0    0 -0.81690982214E+01  0.20808347289E+02  0.56097800530E+01  0.17274440979E+03  0.17120000000E+03 0.  0.
        998    1    1    2    0    0  0.77639388957E+01  0.89917946560E+01  0.13847460619E+04  0.13848331261E+04  0.10000000000E+02 0.  1.
</event>
<event>
 5    1  0.1129619E-008  0.3702463E+03  0.7957747E-01  0.3494760E+00
         13   -1    0    0    0    0  0.00000000000E+00  0.00000000000E+00  0.14999999963E+04  0.15000000000E+04  0.10566000000E+00 0. -1.
        994   -1    0    0    0    0 -0.00000000000E+00 -0.00000000000E+00  0.11368683772E-12  0.17120000000E+03  0.17120000000E+03 0.  0.
         13    1    1    2    0    0  0.74259878451E+01  0.18742370769E+02  0.13314169017E+02  0.24159884482E+02  0.10566000000E+00 0. -1.
        994    1    1    2    0    0 -0.81370741318E+01 -0.20102381622E+02  0.12716457488E+02  0.17303602519E+03  0.17120000000E+03 0.  0.
        998    1    1    2    0    0  0.71108628662E+00  0.13600108522E+01  0.14739693698E+04  0.14740040903E+04  0.10000000000E+02 0. -1.
</event>
<event>
 5    1  0.1129619E-008  0.3777223E+03  0.7957747E-01  0.3461137E+00
         13   -1    0    0    0    0  0.00000000000E+00  0.00000000000E+00  0.14999999963E+04  0.15000000000E+04  0.10566000000E+00 0.  1.
        994   -1    0    0    0    0 -0.00000000000E+00 -0.00000000000E+00  0.11368683772E-12  0.17120000000E+03  0.17120000000E+03 0.  0.
         13    1    1    2    0    0 -0.13894106583E+02 -0.13389556146E+02  0.33105637155E+02  0.38318674129E+02  0.10566000000E+00 0.  1.
        994    1    1    2    0    0 -0.52195682948E+01  0.23659483552E+02  0.72671132048E+01  0.17305856231E+03  0.17120000000E+03 0.  0.
        998    1    1    2    0    0  0.19113674878E+02 -0.10269927406E+02  0.14596272459E+04  0.14598227636E+04  0.10000000000E+02 0.  1.
</event>
<event>
 5    1  0.1129619E-008  0.3801358E+03  0.7957747E-01  0.3450568E+00
         13   -1    0    0    0    0  0.00000000000E+00  0.00000000000E+00  0.14999999963E+04  0.15000000000E+04  0.10566000000E+00 0.  1.
        994   -1    0    0    0    0 -0.00000000000E+00 -0.00000000000E+00  0.11368683772E-12  0.17120000000E+03  0.17120000000E+03 0.  0.
         13    1    1    2    0    0 -0.24378658727E+01 -0.20484352948E+02  0.52398790172E+02  0.56313375687E+02  0.10566000000E+00 0.  1.
        994    1    1    2    0    0  0.10003151730E+02  0.44988899474E+01  0.44667191440E+01  0.17160913331E+03  0.17120000000E+03 0.  0.
        998    1    1    2    0    0 -0.75652858571E+01  0.15985463001E+02  0.14431344870E+04  0.14432774910E+04  0.10000000000E+02 0.  1.
</event>
<event>
 5    1  0.1129619E-008  0.3764429E+03  0.7957747E-01  0.3466795E+00
         13   -1    0    0    0    0  0.00000000000E+00  0.00000000000E+00  0.14999999963E+04  0.15000000000E+04  0.10566000000E+00 0. -1.
        994   -1    0    0    0    0 -0.00000000000E+00 -0.00000000000E+00  0.11368683772E-12  0.17120000000E+03  0.17120000000E+03 0.  0.
         13    1    1    2    0    0  0.10341055507E+02  0.15425372549E+02  0.27733515298E+02  0.33377216512E+02  0.10566000000E+00 0. -1.
        994    1    1    2    0    0 -0.42452458754E+01  0.68001169512E+01  0.61570651625E+01  0.17149814330E+03  0.17120000000E+03 0.  0.
        998    1    1    2    0    0 -0.60958096312E+01 -0.22225489500E+02  0.14661094158E+04  0.14663246402E+04  0.10000000000E+02 0. -1.
</event>
<event>
 5    1  0.1129619E-008  0.3778946E+03  0.7957747E-01  0.3460377E+00
         13   -1    0    0    0    0  0.00000000000E+00  0.00000000000E+00  0.14999999963E+04  0.15000000000E+04  0.10566000000E+00 0. -1.
        994   -1    0    0    0    0 -0.00000000000E+00 -0.00000000000E+00  0.11368683772E-12  0.17120000000E+03  0.17120000000E+03 0.  0.
         13    1    1    2    0    0 -0.24013842806E+02 -0.22534882376E+01  0.59650552173E+02  0.64342384119E+02  0.10566000000E+00 0. -1.
        994    1    1    2    0    0 -0.10813504952E+02 -0.62804320214E+01  0.57263041975E+01  0.17175158304E+03  0.17120000000E+03 0.  0.
        998    1    1    2    0    0  0.34827347758E+02  0.85339202590E+01  0.14346231399E+04  0.14351060328E+04  0.10000000000E+02 0. -1.
</event>
<event>
 5    1  0.1129619E-008  0.3851400E+03  0.7957747E-01  0.3429079E+00
         13   -1    0    0    0    0  0.00000000000E+00  0.00000000000E+00  0.14999999963E+04  0.15000000000E+04  0.10566000000E+00 0.  1.
        994   -1    0    0    0    0 -0.00000000000E+00 -0.00000000000E+00  0.11368683772E-12  0.17120000000E+03  0.17120000000E+03 0.  0.
         13    1    1    2    0    0  0.41971839690E+01  0.18326616410E+02  0.97767792053E+02  0.99559196206E+02  0.10566000000E+00 0.  1.
        994    1    1    2    0    0 -0.44703833276E+01 -0.31010133301E+02  0.47940260092E+01  0.17410926276E+03  0.17120000000E+03 0.  0.
        998    1    1    2    0    0  0.27319935862E+00  0.12683516891E+02  0.13974381782E+04  0.13975315410E+04  0.10000000000E+02 0.  1.
</event>
<event>
 5    1  0.1129619E-008  0.3857551E+03  0.7957747E-01  0.3426476E+00
         13   -1    0    0    0    0  0.00000000000E+00  0.00000000000E+00  0.14999999963E+04  0.15000000000E+04  0.10566000000E+00 0.  1.
        994   -1    0    0    0    0 -0.00000000000E+00 -0.00000000000E+00  0.11368683772E-12  0.17120000000E+03  0.17120000000E+03 0.  0.
         13    1    1    2    0    0 -0.11045718865E+02  0.51821684696E+01  0.68898877352E+02  0.69970917099E+02  0.10566000000E+00 0.  1.
        994    1    1    2    0    0 -0.12735054136E+02 -0.23919913436E+01  0.18067333874E+01  0.17169917738E+03  0.17120000000E+03 0.  0.
        998    1    1    2    0    0  0.23780773000E+02 -0.27901771259E+01  0.14292943855E+04  0.14295299055E+04  0.10000000000E+02 0.  1.
</event>
<event>
 5    1  0.1129619E-008  0.3816780E+03  0.7957747E-01  0.3443885E+00
         13   -1    0    0    0    0  0.00000000000E+00  0.00000000000E+00  0.14999999963E+04  0.15000000000E+04  0.10566000000E+00 0.  1.
        994   -1    0    0    0    0 -0.00000000000E+00 -0.00000000000E+00  0.11368683772E-12  0.17120000000E+03  0.17120000000E+03 0.  0.
         13    1    1    2    0    0  0.12245122585E+02 -0.11124572984E+02  0.39680666085E+02  0.42991459340E+02  0.10566000000E+00 0.  1.
        994    1    1    2    0    0 -0.15748201763E+02  0.66106936692E+01  0.42588813602E+01  0.17210254269E+03  0.17120000000E+03 0.  0.
        998    1    1    2    0    0  0.35030791784E+01  0.45138793147E+01  0.14560604488E+04  0.14561059980E+04  0.10000000000E+02 0.  1.
</event>
<event>
 5    1  0.1129619E-008  0.2824072E+03  0.7957747E-01  0.4030215E+00
         13   -1    0    0    0    0  0.00000000000E+00  0.00000000000E+00  0.14999999963E+04  0.15000000000E+04  0.10566000000E+00 0.  1.
        994   -1    0    0    0    0 -0.00000000000E+00 -0.00000000000E+00  0.11368683772E-12  0.17120000000E+03  0.17120000000E+03 0.  0.
         13    1    1    2    0    0  0.92229658882E+02 -0.10431788176E+03  0.68839132599E+03  0.70233265572E+03  0.10566000000E+00 0.  1.
        994    1    1    2    0    0 -0.27098916789E+02  0.40901142146E+02  0.28405596743E+02  0.18034293068E+03  0.17120000000E+03 0.  0.
        998    1    1    2    0    0 -0.65130742093E+02  0.63416739612E+02  0.78320307355E+03  0.78852441360E+03  0.10000000000E+02 0. -1.
</event>
<event>
 5    1  0.1129619E-008  0.3849302E+03  0.7957747E-01  0.3429968E+00
         13   -1    0    0    0    0  0.00000000000E+00  0.00000000000E+00  0.14999999963E+04  0.15000000000E+04  0.10566000000E+00 0. -1.
        994   -1    0    0    0    0 -0.00000000000E+00 -0.00000000000E+00  0.11368683772E-12  0.17120000000E+03  0.17120000000E+03 0.  0.
         13    1    1    2    0    0 -0.11899561911E+02  0.10526613434E+02  0.74253282135E+02  0.75933986040E+02  0.10566000000E+00 0. -1.
        994    1    1    2    0    0  0.12271020453E+02 -0.64807058624E+01  0.22985160562E+01  0.17177689212E+03  0.17120000000E+03 0.  0.
        998    1    1    2    0    0 -0.37145854240E+00 -0.40459075716E+01  0.14234481981E+04  0.14234891218E+04  0.10000000000E+02 0. -1.
</event>
<event>
 5    1  0.1129619E-008  0.3840399E+03  0.7957747E-01  0.3433754E+00
         13   -1    0    0    0    0  0.00000000000E+00  0.00000000000E+00  0.14999999963E+04  0.15000000000E+04  0.10566000000E+00 0.  1.
        994   -1    0    0    0    0 -0.00000000000E+00 -0.00000000000E+00  0.11368683772E-12  0.17120000000E+03  0.17120000000E+03 0.  0.
         13    1    1    2    0    0  0.11449587417E+02 -0.10707098160E+02  0.58427684812E+02  0.60494136242E+02  0.10566000000E+00 0.  1.
        994    1    1    2    0    0 -0.13802223007E+02 -0.21488224226E+01  0.27515000307E+01  0.17179094723E+03  0.17120000000E+03 0.  0.
        998    1    1    2    0    0  0.23526355896E+01  0.12855920583E+02  0.14388208114E+04  0.14389149165E+04  0.10000000000E+02 0.  1.
</event>
<event>
 5    1  0.1129619E-008  0.3961701E+03  0.7957747E-01  0.3383637E+00
         13   -1    0    0    0    0  0.00000000000E+00  0.00000000000E+00  0.14999999963E+04  0.15000000000E+04  0.10566000000E+00 0.  1.
        994   -1    0    0    0    0 -0.00000000000E+00 -0.00000000000E+00  0.11368683772E-12  0.17120000000E+03  0.17120000000E+03 0.  0.
         13    1    1    2    0    0 -0.55235557941E+02 -0.45343606848E+02  0.82487644472E+02  0.10913859170E+03  0.10566000000E+00 0.  1.
        994    1    1    2    0    0  0.73458429900E+02  0.50204599660E+02  0.56724768998E+02  0.20110639514E+03  0.17120000000E+03 0.  0.
        998    1    1    2    0    0 -0.18222871958E+02 -0.48609928124E+01  0.13607875828E+04  0.13609550132E+04  0.10000000000E+02 0.  1.
</event>
<event>
 5    1  0.1129619E-008  0.3813202E+03  0.7957747E-01  0.3445430E+00
         13   -1    0    0    0    0  0.00000000000E+00  0.00000000000E+00  0.14999999963E+04  0.15000000000E+04  0.10566000000E+00 0.  1.
        994   -1    0    0    0    0 -0.00000000000E+00 -0.00000000000E+00  0.11368683772E-12  0.17120000000E+03  0.17120000000E+03 0.  0.
         13    1    1    2    0    0 -0.25384423977E+02 -0.11290075545E+01  0.86272255998E+02  0.89936405075E+02  0.10566000000E+00 0.  1.
        994    1    1    2    0    0  0.28257467235E+02 -0.32463569610E+01  0.61656058272E+01  0.17365620629E+03  0.17120000000E+03 0.  0.
        998    1    1    2    0    0 -0.28730432576E+01  0.43753645155E+01  0.14075621345E+04  0.14076073886E+04  0.10000000000E+02 0.  1.
</event>
<event>
 5    1  0.1129619E-008  0.3703113E+03  0.7957747E-01  0.3494461E+00
         13   -1    0    0    0    0  0.00000000000E+00  0.00000000000E+00  0.14999999963E+04  0.15000000000E+04  0.10566000000E+00 0. -1.
        994   -1    0    0    0    0 -0.00000000000E+00 -0.00000000000E+00  0.11368683772E-12  0.17120000000E+03  0.17120000000E+03 0.  0.
         13    1    1    2    0    0  0.50190295711E+02 -0.61918573924E+02  0.29889107532E+03  0.30933616286E+03  0.10566000000E+00 0. -1.
        994    1    1    2    0    0 -0.58120769009E+02  0.41525286006E+02  0.26942008188E+02  0.18745048672E+03  0.17120000000E+03 0.  0.
        998    1    1    2    0    0  0.79304732977E+01  0.20393287918E+02  0.11741669128E+04  0.11744133504E+04  0.10000000000E+02 0. -1.
</event>
<event>
 5    1  0.1129619E-008  0.3766906E+03  0.7957747E-01  0.3465696E+00
         13   -1    0    0    0    0  0.00000000000E+00  0.00000000000E+00  0.14999999963E+04  0.15000000000E+04  0.10566000000E+00 0.  1.
        994   -1    0    0    0    0 -0.00000000000E+00 -0.00000000000E+00  0.11368683772E-12  0.17120000000E+03  0.17120000000E+03 0.  0.
         13    1    1    2    0    0  0.14409672392E+03  0.12086957431E+03  0.10013117324E+04  0.10188221221E+04  0.10566000000E+00 0.  1.
        994    1    1    2    0    0 -0.13374247303E+03 -0.11952542214E+03  0.12368038158E+03  0.27709141527E+03  0.17120000000E+03 0.  0.
        998    1    1    2    0    0 -0.10354250888E+02 -0.13441521670E+01  0.37500788231E+03  0.37528646265E+03  0.10000000000E+02 0.  0.
</event>
<event>
 5    1  0.1129619E-008  0.3823910E+03  0.7957747E-01  0.3440813E+00
         13   -1    0    0    0    0  0.00000000000E+00  0.00000000000E+00  0.14999999963E+04  0.15000000000E+04  0.10566000000E+00 0.  1.
        994   -1    0    0    0    0 -0.00000000000E+00 -0.00000000000E+00  0.11368683772E-12  0.17120000000E+03  0.17120000000E+03 0.  0.
         13    1    1    2    0    0  0.18865869898E+01 -0.24068996096E+02  0.11515343100E+03  0.11765712736E+03  0.10566000000E+00 0.  1.
        994    1    1    2    0    0  0.28386011502E+02 -0.55849830459E+01  0.57119421600E+01  0.17372110974E+03  0.17120000000E+03 0.  0.
        998    1    1    2    0    0 -0.30272598492E+02  0.29653979142E+02  0.13791346231E+04  0.13798217629E+04  0.10000000000E+02 0.  1.
</event>
<event>
 5    1  0.1129619E-008  0.3852169E+03  0.7957747E-01  0.3428753E+00
         13   -1    0    0    0    0  0.00000000000E+00  0.00000000000E+00  0.14999999963E+04  0.15000000000E+04  0.10566000000E+00 0.  1.
        994   -1    0    0    0    0 -0.00000000000E+00 -0.00000000000E+00  0.11368683772E-12  0.17120000000E+03  0.17120000000E+03 0.  0.
         13    1    1    2    0    0 -0.10300566893E+02  0.35621562592E+01  0.39199562310E+02  0.40686699115E+02  0.10566000000E+00 0.  1.
        994    1    1    2    0    0  0.45203159791E+01 -0.60725247196E+01  0.17108411467E+01  0.17137583199E+03  0.17120000000E+03 0.  0.
        998    1    1    2    0    0  0.57802509142E+01  0.25103684604E+01  0.14590895928E+04  0.14591374689E+04  0.10000000000E+02 0.  1.
</event>
<event>
 5    1  0.1157223E-008  0.3858988E+03  0.7957747E-01  0.3425869E+00
         13   -1    0    0    0    0  0.00000000000E+00  0.00000000000E+00  0.14999999963E+04  0.15000000000E+04  0.10566000000E+00 0.  1.
        994   -1    0    0    0    0 -0.00000000000E+00 -0.00000000000E+00  0.11368683772E-12  0.17120000000E+03  0.17120000000E+03 0.  0.
         13    1    1    2    0    0  0.48268938551E+01 -0.92020543984E+01  0.43866701447E+02  0.45080764959E+02  0.10566000000E+00 0.  1.
        994    1    1    2    0    0 -0.78110488273E+01  0.12789421300E+02  0.19213215759E+01  0.17186539284E+03  0.17120000000E+03 0.  0.
        998    1    1    2    0    0  0.29841549722E+01 -0.35873669014E+01  0.14542119733E+04  0.14542538422E+04  0.10000000000E+02 0.  1.
</event>
<event>
 5    1  0.1129619E-008  0.3744180E+03  0.7957747E-01  0.3475830E+00
         13   -1    0    0    0    0  0.00000000000E+00  0.00000000000E+00  0.14999999963E+04  0.15000000000E+04  0.10566000000E+00 0.  1.
        994   -1    0    0    0    0 -0.00000000000E+00 -0.00000000000E+00  0.11368683772E-12  0.17120000000E+03  0.17120000000E+03 0.  0.
         13    1    1    2    0    0 -0.22135834167E+02 -0.70755458333E+02  0.32603630124E+03  0.33435910475E+03  0.10566000000E+00 0.  1.
        994    1    1    2    0    0  0.12839093938E+02  0.65689483941E+02  0.22392701310E+02  0.18517781645E+03  0.17120000000E+03 0.  0.
        998    1    1    2    0    0  0.92967402285E+01  0.50659743917E+01  0.11515709937E+04  0.11516630788E+04  0.10000000000E+02 0.  1.
</event>
<event>
 5    1  0.1129619E-008  0.3804639E+03  0.7957747E-01  0.3449141E+00
         13   -1    0    0    0    0  0.00000000000E+00  0.00000000000E+00  0.14999999963E+04  0.15000000000E+04  0.10566000000E+00 0.  1.
        994   -1    0    0    0    0 -0.00000000000E+00 -0.00000000000E+00  0.11368683772E-12  0.17120000000E+03  0.17120000000E+03 0.  0.
         13    1    1    2    0    0 -0.24669139424E+01 -0.12497935063E+02  0.19275662813E+02  0.23105116017E+02  0.10566000000E+00 0.  1.
        994    1    1    2    0    0 -0.75041820012E+00  0.76260153856E+01  0.40951824402E+01  0.17142033064E+03  0.17120000000E+03 0.  0.
        998    1    1    2    0    0  0.32173321425E+01  0.48719196774E+01  0.14766291510E+04  0.14766745533E+04  0.10000000000E+02 0.  1.
</event>
<event>
 5    1  0.1129619E-008  0.3844798E+03  0.7957747E-01  0.3431881E+00
         13   -1    0    0    0    0  0.00000000000E+00  0.00000000000E+00  0.14999999963E+04  0.15000000000E+04  0.10566000000E+00 0. -1.
        994   -1    0    0    0    0 -0.00000000000E+00 -0.00000000000E+00  0.11368683772E-12  0.17120000000E+03  0.17120000000E+03 0.  0.
         13    1    1    2    0    0  0.65839288492E+01  0.10439577862E+02  0.40614905875E+02  0.42448965220E+02  0.10566000000E+00 0. -1.
        994    1    1    2    0    0 -0.12944573960E+02  0.21064653365E+01  0.24554295863E+01  0.17171915538E+03  0.17120000000E+03 0.  0.
        998    1    1    2    0    0  0.63606451107E+01 -0.12546043198E+02  0.14569296608E+04  0.14570318794E+04  0.10000000000E+02 0. -1.
</event>
<event>
 5    1  0.1129619E-008  0.3751583E+03  0.7957747E-01  0.3472515E+00
         13   -1    0    0    0    0  0.00000000000E+00  0.00000000000E+00  0.14999999963E+04  0.15000000000E+04  0.10566000000E+00 0.  1.
        994   -1    0    0    0    0 -0.00000000000E+00 -0.00000000000E+00  0.11368683772E-12  0.17120000000E+03  0.17120000000E+03 0.  0.
         13    1    1    2    0    0  0.68201590315E+01  0.79478089991E+01  0.52717915048E+01  0.11725407746E+02  0.10566000000E+00 0.  1.
        994    1    1    2    0    0 -0.97897559530E+01 -0.14298790156E+01  0.69300684196E+01  0.17162560917E+03  0.17120000000E+03 0.  0.
        998    1    1    2    0    0  0.29695969214E+01 -0.65179299835E+01  0.14877981364E+04  0.14878489831E+04  0.10000000000E+02 0.  1.
</event>
<event>
 5    1  0.1129619E-008  0.4090995E+03  0.7957747E-01  0.3333481E+00
         13   -1    0    0    0    0  0.00000000000E+00  0.00000000000E+00  0.14999999963E+04  0.15000000000E+04  0.10566000000E+00 0.  1.
        994   -1    0    0    0    0 -0.00000000000E+00 -0.00000000000E+00  0.11368683772E-12  0.17120000000E+03  0.17120000000E+03 0.  0.
         13    1    1    2    0    0  0.10522556129E+01  0.13117212422E+02 -0.12254409780E+02  0.17981941683E+02  0.10566000000E+00 0.  1.
        994    1    1    2    0    0 -0.15245217440E+02 -0.17270834990E+02  0.35496580385E+02  0.17635233374E+03  0.17120000000E+03 0.  0.
        998    1    1    2    0    0  0.14192961827E+02  0.41536225683E+01  0.14767578257E+04  0.14768657246E+04  0.10000000000E+02 0.  1.
</event>
<event>
 5    1  0.1129619E-008  0.4023978E+03  0.7957747E-01  0.3359079E+00
         13   -1    0    0    0    0  0.00000000000E+00  0.00000000000E+00  0.14999999963E+04  0.15000000000E+04  0.10566000000E+00 0. -1.
        994   -1    0    0    0    0 -0.00000000000E+00 -0.00000000000E+00  0.11368683772E-12  0.17120000000E+03  0.17120000000E+03 0.  0.
         13    1    1    2    0    0  0.90513540542E+02  0.11005266101E+02  0.13246845089E+03  0.16081579073E+03  0.10566000000E+00 0. -1.
        994    1    1    2    0    0 -0.62078067177E+02 -0.41901936014E+02  0.51756165913E+02  0.19390100406E+03  0.17120000000E+03 0.  0.
        998    1    1    2    0    0 -0.28435473365E+02  0.30896669913E+02  0.13157753795E+04  0.13164832052E+04  0.10000000000E+02 0. -1.
</event>
<event>
 5    1  0.1129619E-008  0.3851475E+03  0.7957747E-01  0.3429047E+00
         13   -1    0    0    0    0  0.00000000000E+00  0.00000000000E+00  0.14999999963E+04  0.15000000000E+04  0.10566000000E+00 0.  1.
        994   -1    0    0    0    0 -0.00000000000E+00 -0.00000000000E+00  0.11368683772E-12  0.17120000000E+03  0.17120000000E+03 0.  0.
         13    1    1    2    0    0 -0.21921370095E+02  0.19922362243E+01  0.13253178938E+03  0.13434731792E+03  0.10566000000E+00 0.  1.
        994    1    1    2    0    0  0.30826449871E+02 -0.39667613753E+02  0.98972078708E+01  0.17869298900E+03  0.17120000000E+03 0.  0.
        998    1    1    2    0    0 -0.89050797760E+01  0.37675377529E+02  0.13575709990E+04  0.13581596931E+04  0.10000000000E+02 0.  1.
</event>
<event>
 5    1  0.1129619E-008  0.3778538E+03  0.7957747E-01  0.3460557E+00
         13   -1    0    0    0    0  0.00000000000E+00  0.00000000000E+00  0.14999999963E+04  0.15000000000E+04  0.10566000000E+00 0. -1.
        994   -1    0    0    0    0 -0.00000000000E+00 -0.00000000000E+00  0.11368683772E-12  0.17120000000E+03  0.17120000000E+03 0.  0.
         13    1    1    2    0    0  0.17806726715E+02 -0.12539933418E+02  0.42229187513E+02  0.47514680768E+02  0.10566000000E+00 0. -1.
        994    1    1    2    0    0 -0.15244771242E+02  0.17939960205E+02  0.70887227941E+01  0.17295645467E+03  0.17120000000E+03 0.  0.
        998    1    1    2    0    0 -0.25619554731E+01 -0.54000267870E+01  0.14506820860E+04  0.14507288646E+04  0.10000000000E+02 0. -1.
</event>
<event>
 5    1  0.1129619E-008  0.3840330E+03  0.7957747E-01  0.3433784E+00
         13   -1    0    0    0    0  0.00000000000E+00  0.00000000000E+00  0.14999999963E+04  0.15000000000E+04  0.10566000000E+00 0. -1.
        994   -1    0    0    0    0 -0.00000000000E+00 -0.00000000000E+00  0.11368683772E-12  0.17120000000E+03  0.17120000000E+03 0.  0.
         13    1    1    2    0    0 -0.10571375817E+02  0.10157297072E+02  0.50050428054E+02  0.52153438840E+02  0.10566000000E+00 0. -1.
        994    1    1    2    0    0  0.30884217169E+01 -0.13194675045E+02  0.27170676132E+01  0.17175698022E+03  0.17120000000E+03 0.  0.
        998    1    1    2    0    0  0.74829540998E+01  0.30373779737E+01  0.14472325006E+04  0.14472895809E+04  0.10000000000E+02 0. -1.
</event>
<event>
 5    1  0.1129619E-008  0.3767124E+03  0.7957747E-01  0.3465599E+00
         13   -1    0    0    0    0  0.00000000000E+00  0.00000000000E+00  0.14999999963E+04  0.15000000000E+04  0.10566000000E+00 0. -1.
        994   -1    0    0    0    0 -0.00000000000E+00 -0.00000000000E+00  0.11368683772E-12  0.17120000000E+03  0.17120000000E+03 0.  0.
         13    1    1    2    0    0  0.45485214865E+02 -0.23128248782E+02  0.25310197112E+03  0.25819457704E+03  0.10566000000E+00 0. -1.
        994    1    1    2    0    0 -0.21131557801E+02 -0.13906177029E+02  0.79677301623E+01  0.17324216929E+03  0.17120000000E+03 0.  0.
        998    1    1    2    0    0 -0.24353657064E+02  0.37034425811E+02  0.12389302950E+04  0.12397632537E+04  0.10000000000E+02 0. -1.
</event>
<event>
 5    1  0.1129619E-008  0.3750355E+03  0.7957747E-01  0.3473064E+00
         13   -1    0    0    0    0  0.00000000000E+00  0.00000000000E+00  0.14999999963E+04  0.15000000000E+04  0.10566000000E+00 0. -1.
        994   -1    0    0    0    0 -0.00000000000E+00 -0.00000000000E+00  0.11368683772E-12  0.17120000000E+03  0.17120000000E+03 0.  0.
         13    1    1    2    0    0 -0.18322838208E+02 -0.31064266036E+02  0.88435390474E+02  0.95506777124E+02  0.10566000000E+00 0. -1.
        994    1    1    2    0    0  0.33115781306E+02  0.28007582799E+02  0.13080857141E+02  0.17709214689E+03  0.17120000000E+03 0.  0.
        998    1    1    2    0    0 -0.14792943098E+02  0.30566832365E+01  0.13984837487E+04  0.13986010760E+04  0.10000000000E+02 0.  1.
</event>
<event>
 5    1  0.1129619E-008  0.3846971E+03  0.7957747E-01  0.3430958E+00
         13   -1    0    0    0    0  0.00000000000E+00  0.00000000000E+00  0.14999999963E+04  0.15000000000E+04  0.10566000000E+00 0.  1.
        994   -1    0    0    0    0 -0.00000000000E+00 -0.00000000000E+00  0.11368683772E-12  0.17120000000E+03  0.17120000000E+03 0.  0.
         13    1    1    2    0    0 -0.19418253211E+02 -0.29166443972E+01  0.11042462506E+03  0.11215696303E+03  0.10566000000E+00 0.  1.
        994    1    1    2    0    0  0.10028342995E+02 -0.96631041959E+00  0.21148004885E+01  0.17150922366E+03  0.17120000000E+03 0.  0.
        998    1    1    2    0    0  0.93899102153E+01  0.38829548168E+01  0.13874605707E+04  0.13875338133E+04  0.10000000000E+02 0.  0.
</event>
<event>
 5    1  0.1129619E-008  0.3816662E+03  0.7957747E-01  0.3443935E+00
         13   -1    0    0    0    0  0.00000000000E+00  0.00000000000E+00  0.14999999963E+04  0.15000000000E+04  0.10566000000E+00 0. -1.
        994   -1    0    0    0    0 -0.00000000000E+00 -0.00000000000E+00  0.11368683772E-12  0.17120000000E+03  0.17120000000E+03 0.  0.
         13    1    1    2    0    0 -0.26733724787E+02 -0.23063094859E+02  0.15556265842E+03  0.15951912188E+03  0.10566000000E+00 0. -1.
        994    1    1    2    0    0  0.40209340430E+02  0.27139958280E+02  0.11158264705E+02  0.17828997522E+03  0.17120000000E+03 0.  0.
        998    1    1    2    0    0 -0.13475615643E+02 -0.40768634209E+01  0.13332790732E+04  0.13333909029E+04  0.10000000000E+02 0. -1.
</event>
<event>
 5    1  0.1129619E-008  0.3761875E+03  0.7957747E-01  0.3467929E+00
         13   -1    0    0    0    0  0.00000000000E+00  0.00000000000E+00  0.14999999963E+04  0.15000000000E+04  0.10566000000E+00 0. -1.
        994   -1    0    0    0    0 -0.00000000000E+00 -0.00000000000E+00  0.11368683772E-12  0.17120000000E+03  0.17120000000E+03 0.  0.
         13    1    1    2    0    0 -0.27170250651E+02 -0.79474910426E+02  0.24498009181E+03  0.25897826252E+03  0.10566000000E+00 0. -1.
        994    1    1    2    0    0  0.62990168181E+02  0.31638781158E+02  0.32225905046E+02  0.18792744003E+03  0.17120000000E+03 0.  0.
        998    1    1    2    0    0 -0.35819917529E+02  0.47836129269E+02  0.12227939994E+04  0.12242942975E+04  0.10000000000E+02 0. -1.
</event>
<event>
 5    1  0.1129619E-008  0.3802411E+03  0.7957747E-01  0.3450109E+00
         13   -1    0    0    0    0  0.00000000000E+00  0.00000000000E+00  0.14999999963E+04  0.15000000000E+04  0.10566000000E+00 0.  1.
        994   -1    0    0    0    0 -0.00000000000E+00 -0.00000000000E+00  0.11368683772E-12  0.17120000000E+03  0.17120000000E+03 0.  0.
         13    1    1    2    0    0  0.14326052417E+02 -0.17798701640E+02  0.61016555068E+02  0.65154130447E+02  0.10566000000E+00 0.  1.
        994    1    1    2    0    0 -0.22380904682E+02  0.13741221805E+02  0.63187542422E+01  0.17331789500E+03  0.17120000000E+03 0.  0.
        998    1    1    2    0    0  0.80548522645E+01  0.40574798351E+01  0.14326646870E+04  0.14327279746E+04  0.10000000000E+02 0.  1.
</event>
<event>
 5    1  0.1129619E-008  0.3768246E+03  0.7957747E-01  0.3465102E+00
         13   -1    0    0    0    0  0.00000000000E+00  0.00000000000E+00  0.14999999963E+04  0.15000000000E+04  0.10566000000E+00 0.  1.
        994   -1    0    0    0    0 -0.00000000000E+00 -0.00000000000E+00  0.11368683772E-12  0.17120000000E+03  0.17120000000E+03 0.  0.
         13    1    1    2    0    0 -0.20992449397E+02 -0.29795584854E+01  0.37203552717E+02  0.42821445554E+02  0.10566000000E+00 0.  1.
        994    1    1    2    0    0  0.12371853792E+02 -0.10204259796E+02  0.66140749792E+01  0.17207665638E+03  0.17120000000E+03 0.  0.
        998    1    1    2    0    0  0.86205956050E+01  0.13183818282E+02  0.14561823686E+04  0.14563018981E+04  0.10000000000E+02 0.  1.
</event>
<event>
 5    1  0.1129619E-008  0.3847619E+03  0.7957747E-01  0.3430683E+00
         13   -1    0    0    0    0  0.00000000000E+00  0.00000000000E+00  0.14999999963E+04  0.15000000000E+04  0.10566000000E+00 0.  1.
        994   -1    0    0    0    0 -0.00000000000E+00 -0.00000000000E+00  0.11368683772E-12  0.17120000000E+03  0.17120000000E+03 0.  0.
         13    1    1    2    0    0 -0.25896237564E+01  0.13954341857E+02  0.55403787013E+02  0.57192836853E+02  0.10566000000E+00 0.  1.
        994    1    1    2    0    0  0.13912989484E+01 -0.15913529641E+02  0.25886763552E+01  0.17196312798E+03  0.17120000000E+03 0.  0.
        998    1    1    2    0    0  0.11983248080E+01  0.19591877837E+01  0.14420075329E+04  0.14420440352E+04  0.10000000000E+02 0.  1.
</event>
<event>
 5    1  0.1129619E-008  0.3689901E+03  0.7957747E-01  0.3500545E+00
         13   -1    0    0    0    0  0.00000000000E+00  0.00000000000E+00  0.14999999963E+04  0.15000000000E+04  0.10566000000E+00 0. -1.
        994   -1    0    0    0    0 -0.00000000000E+00 -0.00000000000E+00  0.11368683772E-12  0.17120000000E+03  0.17120000000E+03 0.  0.
         13    1    1    2    0    0 -0.13204254455E+02  0.22486281607E+02  0.28148008073E+02  0.38370649183E+02  0.10566000000E+00 0. -1.
        994    1    1    2    0    0  0.16281409035E+02 -0.15906154750E+02  0.12212716879E+02  0.17313775005E+03  0.17120000000E+03 0.  0.
        998    1    1    2    0    0 -0.30771545803E+01 -0.65801268572E+01  0.14596392713E+04  0.14596916008E+04  0.10000000000E+02 0. -1.
</event>
<event>
 5    1  0.1129619E-008  0.3692357E+03  0.7957747E-01  0.3499411E+00
         13   -1    0    0    0    0  0.00000000000E+00  0.00000000000E+00  0.14999999963E+04  0.15000000000E+04  0.10566000000E+00 0. -1.
        994   -1    0    0    0    0 -0.00000000000E+00 -0.00000000000E+00  0.11368683772E-12  0.17120000000E+03  0.17120000000E+03 0.  0.
         13    1    1    2    0    0  0.31405791169E+02 -0.27446405638E+02  0.83918262869E+02  0.93711871758E+02  0.10566000000E+00 0. -1.
        994    1    1    2    0    0 -0.34162865323E+02  0.14743850081E+02  0.14484060344E+02  0.17579451211E+03  0.17120000000E+03 0.  0.
        998    1    1    2    0    0  0.27570741535E+01  0.12702555558E+02  0.14015976731E+04  0.14016936161E+04  0.10000000000E+02 0. -1.
</event>
<event>
 5    1  0.1129619E-008  0.3900203E+03  0.7957747E-01  0.3408656E+00
         13   -1    0    0    0    0  0.00000000000E+00  0.00000000000E+00  0.14999999963E+04  0.15000000000E+04  0.10566000000E+00 0. -1.
        994   -1    0    0    0    0 -0.00000000000E+00 -0.00000000000E+00  0.11368683772E-12  0.17120000000E+03  0.17120000000E+03 0.  0.
         13    1    1    2    0    0 -0.17280420383E+02  0.25000333299E+02  0.12115191140E+02  0.32717252545E+02  0.10566000000E+00 0. -1.
        994    1    1    2    0    0  0.35603081532E+02  0.40790500483E+01  0.26790758565E+02  0.17695028344E+03  0.17120000000E+03 0.  0.
        998    1    1    2    0    0 -0.18322661150E+02 -0.29079383348E+02  0.14610940466E+04  0.14615324640E+04  0.10000000000E+02 0. -1.
</event>
<event>
 5    1  0.1129619E-008  0.3733022E+03  0.7957747E-01  0.3480851E+00
         13   -1    0    0    0    0  0.00000000000E+00  0.00000000000E+00  0.14999999963E+04  0.15000000000E+04  0.10566000000E+00 0. -1.
        994   -1    0    0    0    0 -0.00000000000E+00 -0.00000000000E+00  0.11368683772E-12  0.17120000000E+03  0.17120000000E+03 0.  0.
         13    1    1    2    0    0 -0.12929965074E+02 -0.34040025397E+02  0.45870296003E+02  0.58566223587E+02  0.10566000000E+00 0. -1.
        994    1    1    2    0    0  0.21088412639E+02  0.31828578472E+02  0.17869343719E+02  0.17631373458E+03  0.17120000000E+03 0.  0.
        998    1    1    2    0    0 -0.81584475642E+01  0.22114469247E+01  0.14362603566E+04  0.14363200418E+04  0.10000000000E+02 0. -1.
</event>
<event>
 5    1  0.1129619E-008  0.3787176E+03  0.7957747E-01  0.3456762E+00
         13   -1    0    0    0    0  0.00000000000E+00  0.00000000000E+00  0.14999999963E+04  0.15000000000E+04  0.10566000000E+00 0.  1.
        994   -1    0    0    0    0 -0.00000000000E+00 -0.00000000000E+00  0.11368683772E-12  0.17120000000E+03  0.17120000000E+03 0.  0.
         13    1    1    2    0    0  0.22715944104E+02 -0.64559410957E+02  0.40575365075E+03  0.41148507618E+03  0.10566000000E+00 0.  1.
        994    1    1    2    0    0 -0.18393821541E+02  0.53909846063E+02  0.15752777666E+02  0.18111376032E+03  0.17120000000E+03 0.  0.
        998    1    1    2    0    0 -0.43221225631E+01  0.10649564894E+02  0.10784935679E+04  0.10786011635E+04  0.10000000000E+02 0.  1.
</event>
<event>
 5    1  0.1129619E-008  0.3816507E+03  0.7957747E-01  0.3444002E+00
         13   -1    0    0    0    0  0.00000000000E+00  0.00000000000E+00  0.14999999963E+04  0.15000000000E+04  0.10566000000E+00 0. -1.
        994   -1    0    0    0    0 -0.00000000000E+00 -0.00000000000E+00  0.11368683772E-12  0.17120000000E+03  0.17120000000E+03 0.  0.
         13    1    1    2    0    0 -0.55716046649E+01  0.10394300570E+02  0.19687452592E+02  0.22949754171E+02  0.10566000000E+00 0. -1.
        994    1    1    2    0    0  0.60512466143E+01 -0.70898414678E+01  0.35910954707E+01  0.17149116422E+03  0.17120000000E+03 0.  0.
        998    1    1    2    0    0 -0.47964194945E+00 -0.33044591021E+01  0.14767214482E+04  0.14767590816E+04  0.10000000000E+02 0. -1.
</event>
<event>
 5    1  0.1129619E-008  0.3831024E+03  0.7957747E-01  0.3437760E+00
         13   -1    0    0    0    0  0.00000000000E+00  0.00000000000E+00  0.14999999963E+04  0.15000000000E+04  0.10566000000E+00 0.  1.
        994   -1    0    0    0    0 -0.00000000000E+00 -0.00000000000E+00  0.11368683772E-12  0.17120000000E+03  0.17120000000E+03 0.  0.
         13    1    1    2    0    0  0.45666605931E+00  0.22292682671E+02  0.10419282822E+03  0.10655200074E+03  0.10566000000E+00 0.  1.
        994    1    1    2    0    0 -0.10633813589E+02 -0.10305483525E+01  0.29529566898E+01  0.17155844478E+03  0.17120000000E+03 0.  0.
        998    1    1    2    0    0  0.10177147529E+02 -0.21262134319E+02  0.13928542114E+04  0.13930895545E+04  0.10000000000E+02 0.  1.
</event>
<event>
 5    1  0.1129619E-008  0.3765152E+03  0.7957747E-01  0.3466474E+00
         13   -1    0    0    0    0  0.00000000000E+00  0.00000000000E+00  0.14999999963E+04  0.15000000000E+04  0.10566000000E+00 0. -1.
        994   -1    0    0    0    0 -0.00000000000E+00 -0.00000000000E+00  0.11368683772E-12  0.17120000000E+03  0.17120000000E+03 0.  0.
         13    1    1    2    0    0  0.12021396301E+02 -0.28046598795E+02  0.84481413592E+02  0.89823416098E+02  0.10566000000E+00 0. -1.
        994    1    1    2    0    0  0.85742189240E+01 -0.98031176239E+00  0.61546275743E+01  0.17152783355E+03  0.17120000000E+03 0.  0.
        998    1    1    2    0    0 -0.20595615225E+02  0.29026910557E+02  0.14093639551E+04  0.14098487504E+04  0.10000000000E+02 0. -1.
</event>
<event>
 5    1  0.1129619E-008  0.3795427E+03  0.7957747E-01  0.3453152E+00
         13   -1    0    0    0    0  0.00000000000E+00  0.00000000000E+00  0.14999999963E+04  0.15000000000E+04  0.10566000000E+00 0.  1.
        994   -1    0    0    0    0 -0.00000000000E+00 -0.00000000000E+00  0.11368683772E-12  0.17120000000E+03  0.17120000000E+03 0.  0.
         13    1    1    2    0    0 -0.36441395019E+02 -0.43267138654E+02  0.27132172011E+03  0.27715610678E+03  0.10566000000E+00 0.  1.
        994    1    1    2    0    0  0.37038389906E+02  0.58558312851E+02  0.20608858647E+02  0.18583617351E+03  0.17120000000E+03 0.  0.
        998    1    1    2    0    0 -0.59699488722E+00 -0.15291174197E+02  0.12080694175E+04  0.12082077197E+04  0.10000000000E+02 0.  1.
</event>
<event>
 5    1  0.1129619E-008  0.3825058E+03  0.7957747E-01  0.3440320E+00
         13   -1    0    0    0    0  0.00000000000E+00  0.00000000000E+00  0.14999999963E+04  0.15000000000E+04  0.10566000000E+00 0. -1.
        994   -1    0    0    0    0 -0.00000000000E+00 -0.00000000000E+00  0.11368683772E-12  0.17120000000E+03  0.17120000000E+03 0.  0.
         13    1    1    2    0    0  0.21858768856E+02  0.12003795657E+01  0.91062257086E+02  0.93656780409E+02  0.10566000000E+00 0. -1.
        994    1    1    2    0    0  0.22431879475E+01  0.13093126476E+02  0.34588238072E+01  0.17174942595E+03  0.17120000000E+03 0.  0.
        998    1    1    2    0    0 -0.24101956804E+02 -0.14293506041E+02  0.14054789154E+04  0.14057937936E+04  0.10000000000E+02 0. -1.
</event>
<event>
 5    1  0.1129619E-008  0.3785362E+03  0.7957747E-01  0.3457557E+00
         13   -1    0    0    0    0  0.00000000000E+00  0.00000000000E+00  0.14999999963E+04  0.15000000000E+04  0.10566000000E+00 0.  1.
        994   -1    0    0    0    0 -0.00000000000E+00 -0.00000000000E+00  0.11368683772E-12  0.17120000000E+03  0.17120000000E+03 0.  0.
         13    1    1    2    0    0 -0.50428085537E+02 -0.15095349505E+02  0.79197608192E+02  0.95095392606E+02  0.10566000000E+00 0.  1.
        994    1    1    2    0    0  0.56439149266E+02  0.18219690377E+01  0.27109144316E+02  0.18229932212E+03  0.17120000000E+03 0.  0.
        998    1    1    2    0    0 -0.60110637290E+01  0.13273380468E+02  0.13936932438E+04  0.13938052853E+04  0.10000000000E+02 0.  1.
</event>
<event>
 5    1  0.1129619E-008  0.3801642E+03  0.7957747E-01  0.3450444E+00
         13   -1    0    0    0    0  0.00000000000E+00  0.00000000000E+00  0.14999999963E+04  0.15000000000E+04  0.10566000000E+00 0. -1.
        994   -1    0    0    0    0 -0.00000000000E+00 -0.00000000000E+00  0.11368683772E-12  0.17120000000E+03  0.17120000000E+03 0.  0.
         13    1    1    2    0    0 -0.14598898130E+02 -0.23971920690E+01  0.24525247091E+02  0.28642158881E+02  0.10566000000E+00 0. -1.
        994    1    1    2    0    0  0.22294006425E+02  0.22031544896E+00  0.57127974937E+01  0.17274011496E+03  0.17120000000E+03 0.  0.
        998    1    1    2    0    0 -0.76951082950E+01  0.21768766201E+01  0.14697619517E+04  0.14698177262E+04  0.10000000000E+02 0. -1.
</event>
<event>
 5    1  0.1129619E-008  0.3836160E+03  0.7957747E-01  0.3435563E+00
         13   -1    0    0    0    0  0.00000000000E+00  0.00000000000E+00  0.14999999963E+04  0.15000000000E+04  0.10566000000E+00 0. -1.
        994   -1    0    0    0    0 -0.00000000000E+00 -0.00000000000E+00  0.11368683772E-12  0.17120000000E+03  0.17120000000E+03 0.  0.
         13    1    1    2    0    0 -0.10998261014E+02  0.34378516908E+00  0.26714424250E+02  0.28892067434E+02  0.10566000000E+00 0. -1.
        994    1    1    2    0    0 -0.64575731794E+01  0.81181700843E+01  0.26744021328E+01  0.17153482843E+03  0.17120000000E+03 0.  0.
        998    1    1    2    0    0  0.17455834194E+02 -0.84619552534E+01  0.14706111699E+04  0.14707731041E+04  0.10000000000E+02 0. -1.
</event>
<event>
 5    1  0.1129619E-008  0.3818474E+03  0.7957747E-01  0.3443154E+00
         13   -1    0    0    0    0  0.00000000000E+00  0.00000000000E+00  0.14999999963E+04  0.15000000000E+04  0.10566000000E+00 0.  1.
        994   -1    0    0    0    0 -0.00000000000E+00 -0.00000000000E+00  0.11368683772E-12  0.17120000000E+03  0.17120000000E+03 0.  0.
         13    1    1    2    0    0  0.21769522410E+02  0.12294441004E+02  0.88743696625E+02  0.92198265928E+02  0.10566000000E+00 0.  1.
        994    1    1    2    0    0 -0.19162563622E+02 -0.29774030569E+02  0.73802839548E+01  0.17497887110E+03  0.17120000000E+03 0.  0.
        998    1    1    2    0    0 -0.26069587885E+01  0.17479589565E+02  0.14038760157E+04  0.14040228630E+04  0.10000000000E+02 0.  1.
</event>
<event>
 5    1  0.1129619E-008  0.3792167E+03  0.7957747E-01  0.3454576E+00
         13   -1    0    0    0    0  0.00000000000E+00  0.00000000000E+00  0.14999999963E+04  0.15000000000E+04  0.10566000000E+00 0. -1.
        994   -1    0    0    0    0 -0.00000000000E+00 -0.00000000000E+00  0.11368683772E-12  0.17120000000E+03  0.17120000000E+03 0.  0.
         13    1    1    2    0    0 -0.10139200909E+02  0.10899680233E+02  0.21428349848E+02  0.26091986614E+02  0.10566000000E+00 0. -1.
        994    1    1    2    0    0  0.76925879458E+01 -0.33180392050E+02  0.84271083530E+01  0.17475860631E+03  0.17120000000E+03 0.  0.
        998    1    1    2    0    0  0.24466129628E+01  0.22280711818E+02  0.14701445381E+04  0.14703494071E+04  0.10000000000E+02 0. -1.
</event>
<event>
 5    1  0.1129619E-008  0.3839379E+03  0.7957747E-01  0.3434189E+00
         13   -1    0    0    0    0  0.00000000000E+00  0.00000000000E+00  0.14999999963E+04  0.15000000000E+04  0.10566000000E+00 0. -1.
        994   -1    0    0    0    0 -0.00000000000E+00 -0.00000000000E+00  0.11368683772E-12  0.17120000000E+03  0.17120000000E+03 0.  0.
         13    1    1    2    0    0 -0.24814172074E+01 -0.17080431538E+02  0.65650857814E+02  0.67881844911E+02  0.10566000000E+00 0. -1.
        994    1    1    2    0    0  0.36647624261E+01  0.18676170322E+02  0.33546305903E+01  0.17228732794E+03  0.17120000000E+03 0.  0.
        998    1    1    2    0    0 -0.11833452187E+01 -0.15957387844E+01  0.14309945079E+04  0.14310308272E+04  0.10000000000E+02 0. -1.
</event>
<event>
 5    1  0.1129619E-008  0.3776415E+03  0.7957747E-01  0.3461493E+00
         13   -1    0    0    0    0  0.00000000000E+00  0.00000000000E+00  0.14999999963E+04  0.15000000000E+04  0.10566000000E+00 0.  1.
        994   -1    0    0    0    0 -0.00000000000E+00 -0.00000000000E+00  0.11368683772E-12  0.17120000000E+03  0.17120000000E+03 0.  0.
         13    1    1    2    0    0  0.34261190020E+02 -0.20895079912E+02  0.50560141681E+02  0.64550542964E+02  0.10566000000E+00 0.  1.
        994    1    1    2    0    0  0.11021860434E+01  0.15755927922E+02  0.15934469304E+02  0.17266386823E+03  0.17120000000E+03 0.  0.
        998    1    1    2    0    0 -0.35363376063E+02  0.51391519895E+01  0.14335053853E+04  0.14339855888E+04  0.10000000000E+02 0.  1.
</event>
<event>
 5    1  0.1129619E-008  0.3797146E+03  0.7957747E-01  0.3452402E+00
         13   -1    0    0    0    0  0.00000000000E+00  0.00000000000E+00  0.14999999963E+04  0.15000000000E+04  0.10566000000E+00 0.  1.
        994   -1    0    0    0    0 -0.00000000000E+00 -0.00000000000E+00  0.11368683772E-12  0.17120000000E+03  0.17120000000E+03 0.  0.
         13    1    1    2    0    0 -0.56662355264E+01 -0.45937757278E+02  0.21175059538E+03  0.21675033927E+03  0.10566000000E+00 0.  1.
        994    1    1    2    0    0  0.14581325748E+02  0.47385079233E+02  0.12546039340E+02  0.17867513508E+03  0.17120000000E+03 0.  0.
        998    1    1    2    0    0 -0.89150902219E+01 -0.14473219555E+01  0.12757033616E+04  0.12757745256E+04  0.10000000000E+02 0.  1.
</event>
<event>
 5    1  0.1129619E-008  0.3779341E+03  0.7957747E-01  0.3460204E+00
         13   -1    0    0    0    0  0.00000000000E+00  0.00000000000E+00  0.14999999963E+04  0.15000000000E+04  0.10566000000E+00 0.  1.
        994   -1    0    0    0    0 -0.00000000000E+00 -0.00000000000E+00  0.11368683772E-12  0.17120000000E+03  0.17120000000E+03 0.  0.
         13    1    1    2    0    0 -0.25486519528E+02 -0.30929518730E+02  0.13714779568E+03  0.14288361288E+03  0.10566000000E+00 0.  1.
        994    1    1    2    0    0  0.28557024367E+02  0.33799748937E+02  0.11798340672E+02  0.17721898180E+03  0.17120000000E+03 0.  0.
        998    1    1    2    0    0 -0.30705048395E+01 -0.28702302073E+01  0.13510538599E+04  0.13510974053E+04  0.10000000000E+02 0.  1.
</event>
<event>
 5    1  0.1129619E-008  0.3849194E+03  0.7957747E-01  0.3430014E+00
         13   -1    0    0    0    0  0.00000000000E+00  0.00000000000E+00  0.14999999963E+04  0.15000000000E+04  0.10566000000E+00 0.  1.
        994   -1    0    0    0    0 -0.00000000000E+00 -0.00000000000E+00  0.11368683772E-12  0.17120000000E+03  0.17120000000E+03 0.  0.
         13    1    1    2    0    0 -0.90651656172E+01  0.47379259053E+01  0.32755015671E+02  0.34315118901E+02  0.10566000000E+00 0.  1.
        994    1    1    2    0    0  0.83487797573E+00  0.11347441609E+02  0.20961195003E+01  0.17159048683E+03  0.17120000000E+03 0.  0.
        998    1    1    2    0    0  0.82302876415E+01 -0.16085367514E+02  0.14651488611E+04  0.14652943943E+04  0.10000000000E+02 0.  1.
</event>
<event>
 5    1  0.1129619E-008  0.3845747E+03  0.7957747E-01  0.3431478E+00
         13   -1    0    0    0    0  0.00000000000E+00  0.00000000000E+00  0.14999999963E+04  0.15000000000E+04  0.10566000000E+00 0.  1.
        994   -1    0    0    0    0 -0.00000000000E+00 -0.00000000000E+00  0.11368683772E-12  0.17120000000E+03  0.17120000000E+03 0.  0.
         13    1    1    2    0    0  0.11046667102E+02 -0.56565357317E+01  0.40989134918E+02  0.42826926062E+02  0.10566000000E+00 0.  1.
        994    1    1    2    0    0 -0.12323401062E+02  0.21764297621E+00  0.23419001043E+01  0.17165907514E+03  0.17120000000E+03 0.  0.
        998    1    1    2    0    0  0.12767339603E+01  0.54388927555E+01  0.14566689613E+04  0.14567139988E+04  0.10000000000E+02 0.  1.
</event>
<event>
 5    1  0.1129619E-008  0.3735634E+03  0.7957747E-01  0.3479673E+00
         13   -1    0    0    0    0  0.00000000000E+00  0.00000000000E+00  0.14999999963E+04  0.15000000000E+04  0.10566000000E+00 0. -1.
        994   -1    0    0    0    0 -0.00000000000E+00 -0.00000000000E+00  0.11368683772E-12  0.17120000000E+03  0.17120000000E+03 0.  0.
         13    1    1    2    0    0  0.94102357543E+00  0.21195616443E+02  0.26308938013E+02  0.33798092627E+02  0.10566000000E+00 0. -1.
        994    1    1    2    0    0  0.47610715443E+01 -0.28652813292E+02  0.10305411126E+02  0.17395198478E+03  0.17120000000E+03 0.  0.
        998    1    1    2    0    0 -0.57020951197E+01  0.74571968487E+01  0.14633856471E+04  0.14634499226E+04  0.10000000000E+02 0. -1.
</event>
<event>
 5    1  0.1129619E-008  0.3790358E+03  0.7957747E-01  0.3455368E+00
         13   -1    0    0    0    0  0.00000000000E+00  0.00000000000E+00  0.14999999963E+04  0.15000000000E+04  0.10566000000E+00 0.  1.
        994   -1    0    0    0    0 -0.00000000000E+00 -0.00000000000E+00  0.11368683772E-12  0.17120000000E+03  0.17120000000E+03 0.  0.
         13    1    1    2    0    0 -0.37183824506E+01  0.13908594253E+02  0.20639059162E+02  0.25164603896E+02  0.10566000000E+00 0.  1.
        994    1    1    2    0    0  0.10234876390E+02 -0.47736424921E+01  0.50484999642E+01  0.17164634488E+03  0.17120000000E+03 0.  0.
        998    1    1    2    0    0 -0.65164939391E+01 -0.91349517611E+01  0.14743124372E+04  0.14743890512E+04  0.10000000000E+02 0.  1.
</event>
<event>
 5    1  0.1129619E-008  0.3816080E+03  0.7957747E-01  0.3444187E+00
         13   -1    0    0    0    0  0.00000000000E+00  0.00000000000E+00  0.14999999963E+04  0.15000000000E+04  0.10566000000E+00 0.  1.
        994   -1    0    0    0    0 -0.00000000000E+00 -0.00000000000E+00  0.11368683772E-12  0.17120000000E+03  0.17120000000E+03 0.  0.
         13    1    1    2    0    0  0.12365770757E+02 -0.25613229654E+01  0.22372329016E+02  0.25690561134E+02  0.10566000000E+00 0.  1.
        994    1    1    2    0    0 -0.13600245434E+02  0.27197743143E+00  0.39391946215E+01  0.17178474293E+03  0.17120000000E+03 0.  0.
        998    1    1    2    0    0  0.12344746769E+01  0.22893455340E+01  0.14736884726E+04  0.14737246959E+04  0.10000000000E+02 0.  1.
</event>
<event>
 5    1  0.1129619E-008  0.3839495E+03  0.7957747E-01  0.3434140E+00
         13   -1    0    0    0    0  0.00000000000E+00  0.00000000000E+00  0.14999999963E+04  0.15000000000E+04  0.10566000000E+00 0. -1.
        994   -1    0    0    0    0 -0.00000000000E+00 -0.00000000000E+00  0.11368683772E-12  0.17120000000E+03  0.17120000000E+03 0.  0.
         13    1    1    2    0    0 -0.17660402730E+02  0.80306760830E+01  0.88913877854E+02  0.91005881250E+02  0.10566000000E+00 0. -1.
        994    1    1    2    0    0  0.77338268970E+01 -0.46333387234E+01  0.24208746780E+01  0.17145431036E+03  0.17120000000E+03 0.  0.
        998    1    1    2    0    0  0.99265758334E+01 -0.33973373596E+01  0.14086652437E+04  0.14087398084E+04  0.10000000000E+02 0. -1.
</event>
<event>
 5    1  0.1434275E-008  0.3860671E+03  0.7957747E-01  0.3425159E+00
         13   -1    0    0    0    0  0.00000000000E+00  0.00000000000E+00  0.14999999963E+04  0.15000000000E+04  0.10566000000E+00 0. -1.
        994   -1    0    0    0    0 -0.00000000000E+00 -0.00000000000E+00  0.11368683772E-12  0.17120000000E+03  0.17120000000E+03 0.  0.
         13    1    1    2    0    0  0.54890805234E+01 -0.92458014187E+01  0.50595563143E+02  0.51725593497E+02  0.10566000000E+00 0. -1.
        994    1    1    2    0    0 -0.75804020063E+01  0.12535866270E+02  0.18049347660E+01  0.17183511931E+03  0.17120000000E+03 0.  0.
        998    1    1    2    0    0  0.20913214829E+01 -0.32900648509E+01  0.14475994984E+04  0.14476392872E+04  0.10000000000E+02 0. -1.
</event>
<event>
 5    1  0.1129619E-008  0.3838898E+03  0.7957747E-01  0.3434395E+00
         13   -1    0    0    0    0  0.00000000000E+00  0.00000000000E+00  0.14999999963E+04  0.15000000000E+04  0.10566000000E+00 0.  1.
        994   -1    0    0    0    0 -0.00000000000E+00 -0.00000000000E+00  0.11368683772E-12  0.17120000000E+03  0.17120000000E+03 0.  0.
         13    1    1    2    0    0  0.14212057343E+02  0.15020925739E+01  0.45110009672E+02  0.47319794935E+02  0.10566000000E+00 0.  1.
        994    1    1    2    0    0 -0.15308599375E+02  0.22073021643E+01  0.29723187973E+01  0.17192294808E+03  0.17120000000E+03 0.  0.
        998    1    1    2    0    0  0.10965420322E+01 -0.37093947381E+01  0.14519176678E+04  0.14519572570E+04  0.10000000000E+02 0.  1.
</event>
<event>
 5    1  0.1129619E-008  0.3814875E+03  0.7957747E-01  0.3444707E+00
         13   -1    0    0    0    0  0.00000000000E+00  0.00000000000E+00  0.14999999963E+04  0.15000000000E+04  0.10566000000E+00 0. -1.
        994   -1    0    0    0    0 -0.00000000000E+00 -0.00000000000E+00  0.11368683772E-12  0.17120000000E+03  0.17120000000E+03 0.  0.
         13    1    1    2    0    0 -0.16206002286E+02  0.18011354681E+02  0.88537408964E+02  0.91792850253E+02  0.10566000000E+00 0. -1.
        994    1    1    2    0    0  0.13814272451E+02  0.58695838489E+00  0.40203549767E+01  0.17180448742E+03  0.17120000000E+03 0.  0.
        998    1    1    2    0    0  0.23917298352E+01 -0.18598313066E+02  0.14074422323E+04  0.14076026623E+04  0.10000000000E+02 0. -1.
</event>
<event>
 5    1  0.1129619E-008  0.3849816E+03  0.7957747E-01  0.3429750E+00
         13   -1    0    0    0    0  0.00000000000E+00  0.00000000000E+00  0.14999999963E+04  0.15000000000E+04  0.10566000000E+00 0. -1.
        994   -1    0    0    0    0 -0.00000000000E+00 -0.00000000000E+00  0.11368683772E-12  0.17120000000E+03  0.17120000000E+03 0.  0.
         13    1    1    2    0    0  0.55741294753E+01  0.15296446189E+02  0.80233774021E+02  0.81868930878E+02  0.10566000000E+00 0. -1.
        994    1    1    2    0    0 -0.62750152880E+01 -0.10198342632E+02  0.21109895721E+01  0.17163122760E+03  0.17120000000E+03 0.  0.
        998    1    1    2    0    0  0.70088581263E+00 -0.50981035567E+01  0.14176552327E+04  0.14176998415E+04  0.10000000000E+02 0. -1.
</event>
<event>
 5    1  0.1129619E-008  0.3808588E+03  0.7957747E-01  0.3447428E+00
         13   -1    0    0    0    0  0.00000000000E+00  0.00000000000E+00  0.14999999963E+04  0.15000000000E+04  0.10566000000E+00 0.  1.
        994   -1    0    0    0    0 -0.00000000000E+00 -0.00000000000E+00  0.11368683772E-12  0.17120000000E+03  0.17120000000E+03 0.  0.
         13    1    1    2    0    0 -0.37802980671E+02  0.22589632162E+01  0.16890258945E+03  0.17309611246E+03  0.10566000000E+00 0.  1.
        994    1    1    2    0    0  0.40554627468E+02 -0.86550639545E+01  0.94537780661E+01  0.17640408686E+03  0.17120000000E+03 0.  0.
        998    1    1    2    0    0 -0.27516467976E+01  0.63961007383E+01  0.13216436288E+04  0.13216998007E+04  0.10000000000E+02 0.  1.
</event>
<event>
 5    1  0.1129619E-008  0.3684651E+03  0.7957747E-01  0.3502975E+00
         13   -1    0    0    0    0  0.00000000000E+00  0.00000000000E+00  0.14999999963E+04  0.15000000000E+04  0.10566000000E+00 0.  1.
        994   -1    0    0    0    0 -0.00000000000E+00 -0.00000000000E+00  0.11368683772E-12  0.17120000000E+03  0.17120000000E+03 0.  0.
         13    1    1    2    0    0  0.51632674799E+02  0.17922761502E+02  0.12258025124E+03  0.13421284456E+03  0.10566000000E+00 0.  1.
        994    1    1    2    0    0 -0.65141534235E+02 -0.42408738295E+02  0.31380488869E+02  0.19062029181E+03  0.17120000000E+03 0.  0.
        998    1    1    2    0    0  0.13508859436E+02  0.24485976793E+02  0.13460392562E+04  0.13463668636E+04  0.10000000000E+02 0.  1.
</event>
<event>
 5    1  0.1129619E-008  0.3690127E+03  0.7957747E-01  0.3500441E+00
         13   -1    0    0    0    0  0.00000000000E+00  0.00000000000E+00  0.14999999963E+04  0.15000000000E+04  0.10566000000E+00 0. -1.
        994   -1    0    0    0    0 -0.00000000000E+00 -0.00000000000E+00  0.11368683772E-12  0.17120000000E+03  0.17120000000E+03 0.  0.
         13    1    1    2    0    0  0.62976991503E+01  0.90630582857E+01  0.11334018129E+01  0.11094854834E+02  0.10566000000E+00 0. -1.
        994    1    1    2    0    0  0.33876358012E+01  0.86257707139E+01  0.10716936428E+02  0.17178525176E+03  0.17120000000E+03 0.  0.
        998    1    1    2    0    0 -0.96853349515E+01 -0.17688829000E+02  0.14881496580E+04  0.14883198934E+04  0.10000000000E+02 0. -1.
</event>
<event>
 5    1  0.1129619E-008  0.3755693E+03  0.7957747E-01  0.3470681E+00
         13   -1    0    0    0    0  0.00000000000E+00  0.00000000000E+00  0.14999999963E+04  0.15000000000E+04  0.10566000000E+00 0.  1.
        994   -1    0    0    0    0 -0.00000000000E+00 -0.00000000000E+00  0.11368683772E-12  0.17120000000E+03  0.17120000000E+03 0.  0.
         13    1    1    2    0    0  0.64553204133E+02  0.48111314539E+02  0.19724714385E+03  0.21304521039E+03  0.10566000000E+00 0.  1.
        994    1    1    2    0    0 -0.66841282973E+02 -0.47279635914E+02  0.38220296627E+02  0.19358035065E+03  0.17120000000E+03 0.  0.
        998    1    1    2    0    0  0.22880788400E+01 -0.83167862497E+00  0.12645325558E+04  0.12645744390E+04  0.10000000000E+02 0.  1.
</event>
<event>
 5    1  0.1129619E-008  0.3824497E+03  0.7957747E-01  0.3440561E+00
         13   -1    0    0    0    0  0.00000000000E+00  0.00000000000E+00  0.14999999963E+04  0.15000000000E+04  0.10566000000E+00 0. -1.
        994   -1    0    0    0    0 -0.00000000000E+00 -0.00000000000E+00  0.11368683772E-12  0.17120000000E+03  0.17120000000E+03 0.  0.
         13    1    1    2    0    0 -0.21859057064E+02  0.13633319972E+02  0.98604267202E+02  0.10191417204E+03  0.10566000000E+00 0. -1.
        994    1    1    2    0    0  0.26519908854E+02 -0.33001984951E+02  0.88683750672E+01  0.17658008000E+03  0.17120000000E+03 0.  0.
        998    1    1    2    0    0 -0.46608517908E+01  0.19368664979E+02  0.13925273540E+04  0.13927057480E+04  0.10000000000E+02 0. -1.
</event>
<event>
 5    1  0.1129619E-008  0.3800159E+03  0.7957747E-01  0.3451089E+00
         13   -1    0    0    0    0  0.00000000000E+00  0.00000000000E+00  0.14999999963E+04  0.15000000000E+04  0.10566000000E+00 0. -1.
        994   -1    0    0    0    0 -0.00000000000E+00 -0.00000000000E+00  0.11368683772E-12  0.17120000000E+03  0.17120000000E+03 0.  0.
         13    1    1    2    0    0  0.40379592814E+02 -0.96270994049E+01  0.24684346459E+03  0.25030960775E+03  0.10566000000E+00 0. -1.
        994    1    1    2    0    0 -0.10843336342E+01  0.12237559262E+02  0.46297914855E+01  0.17170267501E+03  0.17120000000E+03 0.  0.
        998    1    1    2    0    0 -0.39295259180E+02 -0.26104598567E+01  0.12485267402E+04  0.12491877172E+04  0.10000000000E+02 0. -1.
</event>
<event>
 5    1  0.1129619E-008  0.3766031E+03  0.7957747E-01  0.3466084E+00
         13   -1    0    0    0    0  0.00000000000E+00  0.00000000000E+00  0.14999999963E+04  0.15000000000E+04  0.10566000000E+00 0.  1.
        994   -1    0    0    0    0 -0.00000000000E+00 -0.00000000000E+00  0.11368683772E-12  0.17120000000E+03  0.17120000000E+03 0.  0.
         13    1    1    2    0    0  0.60203598724E+01  0.11328337902E+02  0.11526453647E+02  0.17246630695E+02  0.10566000000E+00 0.  1.
        994    1    1    2    0    0 -0.37234645661E+01 -0.47521025472E+01  0.59810569505E+01  0.17141079228E+03  0.17120000000E+03 0.  0.
        998    1    1    2    0    0 -0.22968953063E+01 -0.65762353544E+01  0.14824924857E+04  0.14825425770E+04  0.10000000000E+02 0.  1.
</event>
<event>
 5    1  0.1129619E-008  0.3737933E+03  0.7957747E-01  0.3478637E+00
         13   -1    0    0    0    0  0.00000000000E+00  0.00000000000E+00  0.14999999963E+04  0.15000000000E+04  0.10566000000E+00 0.  1.
        994   -1    0    0    0    0 -0.00000000000E+00 -0.00000000000E+00  0.11368683772E-12  0.17120000000E+03  0.17120000000E+03 0.  0.
         13    1    1    2    0    0 -0.37059389812E+02 -0.16173986652E+02  0.13143361101E+03  0.13751291389E+03  0.10566000000E+00 0.  1.
        994    1    1    2    0    0 -0.82037956079E+01 -0.16644691558E+02  0.84758872307E+01  0.17241121972E+03  0.17120000000E+03 0.  0.
        998    1    1    2    0    0  0.45263185420E+02  0.32818678210E+02  0.13600904980E+04  0.13612758664E+04  0.10000000000E+02 0.  1.
</event>
<event>
 5    1  0.1129619E-008  0.3687432E+03  0.7957747E-01  0.3501687E+00
         13   -1    0    0    0    0  0.00000000000E+00  0.00000000000E+00  0.14999999963E+04  0.15000000000E+04  0.10566000000E+00 0. -1.
        994   -1    0    0    0    0 -0.00000000000E+00 -0.00000000000E+00  0.11368683772E-12  0.17120000000E+03  0.17120000000E+03 0.  0.
         13    1    1    2    0    0 -0.73112910994E+02  0.31955070945E+02  0.24265572510E+03  0.25543773488E+03  0.10566000000E+00 0. -1.
        994    1    1    2    0    0  0.85678660202E+02 -0.26841188007E+02  0.38885865253E+02  0.19718730361E+03  0.17120000000E+03 0.  0.
        998    1    1    2    0    0 -0.12565749207E+02 -0.51138829383E+01  0.12184584059E+04  0.12185749615E+04  0.10000000000E+02 0. -1.
</event>
<event>
 5    1  0.1129619E-008  0.3835300E+03  0.7957747E-01  0.3435930E+00
         13   -1    0    0    0    0  0.00000000000E+00  0.00000000000E+00  0.14999999963E+04  0.15000000000E+04  0.10566000000E+00 0.  1.
        994   -1    0    0    0    0 -0.00000000000E+00 -0.00000000000E+00  0.11368683772E-12  0.17120000000E+03  0.17120000000E+03 0.  0.
         13    1    1    2    0    0 -0.24489536537E+02  0.76088815958E+01  0.14177437767E+03  0.14407504227E+03  0.10566000000E+00 0.  1.
        994    1    1    2    0    0  0.13407559069E+02  0.36883054056E+00  0.29563861208E+01  0.17175004773E+03  0.17120000000E+03 0.  0.
        998    1    1    2    0    0  0.11081977468E+02 -0.79777121363E+01  0.13552692325E+04  0.13553749100E+04  0.10000000000E+02 0.  1.
</event>
<event>
 5    1  0.1129619E-008  0.3844035E+03  0.7957747E-01  0.3432206E+00
         13   -1    0    0    0    0  0.00000000000E+00  0.00000000000E+00  0.14999999963E+04  0.15000000000E+04  0.10566000000E+00 0. -1.
        994   -1    0    0    0    0 -0.00000000000E+00 -0.00000000000E+00  0.11368683772E-12  0.17120000000E+03  0.17120000000E+03 0.  0.
         13    1    1    2    0    0  0.10085412172E+02  0.73088779978E+01  0.39080090967E+02  0.41017068524E+02  0.10566000000E+00 0. -1.
        994    1    1    2    0    0 -0.91212862888E+01 -0.92763825194E+01  0.24844679897E+01  0.17171156547E+03  0.17120000000E+03 0.  0.
        998    1    1    2    0    0 -0.96412588329E+00  0.19675045216E+01  0.14584354373E+04  0.14584713660E+04  0.10000000000E+02 0. -1.
</event>
<event>
 5    1  0.1129619E-008  0.3790756E+03  0.7957747E-01  0.3455193E+00
         13   -1    0    0    0    0  0.00000000000E+00  0.00000000000E+00  0.14999999963E+04  0.15000000000E+04  0.10566000000E+00 0. -1.
        994   -1    0    0    0    0 -0.00000000000E+00 -0.00000000000E+00  0.11368683772E-12  0.17120000000E+03  0.17120000000E+03 0.  0.
         13    1    1    2    0    0 -0.17779844278E+02  0.35753735652E+02  0.20277536231E+03  0.20666957009E+03  0.10566000000E+00 0. -1.
        994    1    1    2    0    0  0.65561172821E+01  0.27884832302E+01  0.47707167971E+01  0.17141457946E+03  0.17120000000E+03 0.  0.
        998    1    1    2    0    0  0.11223726996E+02 -0.38542218882E+02  0.12924539172E+04  0.12931158505E+04  0.10000000000E+02 0. -1.
</event>
<event>
 5    1  0.1129619E-008  0.3850278E+03  0.7957747E-01  0.3429554E+00
         13   -1    0    0    0    0  0.00000000000E+00  0.00000000000E+00  0.14999999963E+04  0.15000000000E+04  0.10566000000E+00 0. -1.
        994   -1    0    0    0    0 -0.00000000000E+00 -0.00000000000E+00  0.11368683772E-12  0.17120000000E+03  0.17120000000E+03 0.  0.
         13    1    1    2    0    0  0.48985660499E+01 -0.10329970190E+02  0.39406349404E+02  0.41031399816E+02  0.10566000000E+00 0. -1.
        994    1    1    2    0    0  0.71394818306E+00  0.13973055519E+02  0.22603189912E+01  0.17178563690E+03  0.17120000000E+03 0.  0.
        998    1    1    2    0    0 -0.56125142330E+01 -0.36430853290E+01  0.14583333279E+04  0.14583829633E+04  0.10000000000E+02 0. -1.
</event>
<event>
 5    1  0.1129619E-008  0.3768184E+03  0.7957747E-01  0.3465130E+00
         13   -1    0    0    0    0  0.00000000000E+00  0.00000000000E+00  0.14999999963E+04  0.15000000000E+04  0.10566000000E+00 0. -1.
        994   -1    0    0    0    0 -0.00000000000E+00 -0.00000000000E+00  0.11368683772E-12  0.17120000000E+03  0.17120000000E+03 0.  0.
         13    1    1    2    0    0 -0.68016757688E+02  0.32466404973E+02  0.39683662359E+03  0.40393027092E+03  0.10566000000E+00 0. -1.
        994    1    1    2    0    0  0.67005171505E+02 -0.14286655831E+02  0.21773909447E+02  0.18568076011E+03  0.17120000000E+03 0.  0.
        998    1    1    2    0    0  0.10115861828E+01 -0.18179749142E+02  0.10813894632E+04  0.10815889690E+04  0.10000000000E+02 0. -1.
</event>
<event>
 5    1  0.1129619E-008  0.3684933E+03  0.7957747E-01  0.3502844E+00
         13   -1    0    0    0    0  0.00000000000E+00  0.00000000000E+00  0.14999999963E+04  0.15000000000E+04  0.10566000000E+00 0. -1.
        994   -1    0    0    0    0 -0.00000000000E+00 -0.00000000000E+00  0.11368683772E-12  0.17120000000E+03  0.17120000000E+03 0.  0.
         13    1    1    2    0    0 -0.56040139849E+02  0.38373385365E+02  0.28284030068E+03  0.29088083614E+03  0.10566000000E+00 0. -1.
        994    1    1    2    0    0  0.19419553274E+01 -0.43801246183E+01  0.10138578682E+02  0.17156686003E+03  0.17120000000E+03 0.  0.
        998    1    1    2    0    0  0.54098184522E+02 -0.33993260747E+02  0.12070211169E+04  0.12087523038E+04  0.10000000000E+02 0. -1.
</event>
<event>
 5    1  0.1129619E-008  0.3837954E+03  0.7957747E-01  0.3434797E+00
         13   -1    0    0    0    0  0.00000000000E+00  0.00000000000E+00  0.14999999963E+04  0.15000000000E+04  0.10566000000E+00 0. -1.
        994   -1    0    0    0    0 -0.00000000000E+00 -0.00000000000E+00  0.11368683772E-12  0.17120000000E+03  0.17120000000E+03 0.  0.
         13    1    1    2    0    0  0.21994900458E+02  0.12174179297E+02  0.12977504550E+03  0.13218759354E+03  0.10566000000E+00 0. -1.
        994    1    1    2    0    0 -0.23351393133E+02 -0.12184365024E+02  0.45231539590E+01  0.17327332522E+03  0.17120000000E+03 0.  0.
        998    1    1    2    0    0  0.13564926752E+01  0.10185727856E-01  0.13657017968E+04  0.13657390812E+04  0.10000000000E+02 0. -1.
</event>
<event>
 5    1  0.1129619E-008  0.3799219E+03  0.7957747E-01  0.3451499E+00
         13   -1    0    0    0    0  0.00000000000E+00  0.00000000000E+00  0.14999999963E+04  0.15000000000E+04  0.10566000000E+00 0.  1.
        994   -1    0    0    0    0 -0.00000000000E+00 -0.00000000000E+00  0.11368683772E-12  0.17120000000E+03  0.17120000000E+03 0.  0.
         13    1    1    2    0    0  0.11974672725E+02 -0.89048791932E+01  0.24799358227E+02  0.28943202877E+02  0.10566000000E+00 0.  1.
        994    1    1    2    0    0 -0.13442841471E+02  0.36043043269E+01  0.48205465586E+01  0.17183241448E+03  0.17120000000E+03 0.  0.
        998    1    1    2    0    0  0.14681687467E+01  0.53005748663E+01  0.14703800915E+04  0.14704243826E+04  0.10000000000E+02 0.  1.
</event>
<event>
 5    1  0.1129619E-008  0.3853775E+03  0.7957747E-01  0.3428073E+00
         13   -1    0    0    0    0  0.00000000000E+00  0.00000000000E+00  0.14999999963E+04  0.15000000000E+04  0.10566000000E+00 0. -1.
        994   -1    0    0    0    0 -0.00000000000E+00 -0.00000000000E+00  0.11368683772E-12  0.17120000000E+03  0.17120000000E+03 0.  0.
         13    1    1    2    0    0 -0.15139405443E+02 -0.10483467619E+02  0.11085186236E+03  0.11237104273E+03  0.10566000000E+00 0. -1.
        994    1    1    2    0    0  0.14274897196E+02  0.12353724602E+02  0.26143132370E+01  0.17225754507E+03  0.17120000000E+03 0.  0.
        998    1    1    2    0    0  0.86450824729E+00 -0.18702569829E+01  0.13865338207E+04  0.13865714122E+04  0.10000000000E+02 0.  0.
</event>
<event>
 5    1  0.1129619E-008  0.3736822E+03  0.7957747E-01  0.3479137E+00
         13   -1    0    0    0    0  0.00000000000E+00  0.00000000000E+00  0.14999999963E+04  0.15000000000E+04  0.10566000000E+00 0. -1.
        994   -1    0    0    0    0 -0.00000000000E+00 -0.00000000000E+00  0.11368683772E-12  0.17120000000E+03  0.17120000000E+03 0.  0.
         13    1    1    2    0    0 -0.80032629993E+02  0.56624388195E+02  0.31510050101E+03  0.32999981834E+03  0.10566000000E+00 0. -1.
        994    1    1    2    0    0  0.68230767078E+02 -0.49220323305E+02  0.38411676520E+02  0.19458410700E+03  0.17120000000E+03 0.  0.
        998    1    1    2    0    0  0.11801862915E+02 -0.74040648897E+01  0.11464878187E+04  0.11466160747E+04  0.10000000000E+02 0. -1.
</event>
<event>
 5    1  0.1129619E-008  0.3785218E+03  0.7957747E-01  0.3457620E+00
         13   -1    0    0    0    0  0.00000000000E+00  0.00000000000E+00  0.14999999963E+04  0.15000000000E+04  0.10566000000E+00 0. -1.
        994   -1    0    0    0    0 -0.00000000000E+00 -0.00000000000E+00  0.11368683772E-12  0.17120000000E+03  0.17120000000E+03 0.  0.
         13    1    1    2    0    0  0.90943791563E+02 -0.12433160872E+03  0.47056231264E+03  0.49513434883E+03  0.10566000000E+00 0. -1.
        994    1    1    2    0    0 -0.96510572412E+02  0.12458916556E+03  0.11144963693E+03  0.25800622538E+03  0.17120000000E+03 0.  0.
        998    1    1    2    0    0  0.55667808491E+01 -0.25755684259E+00  0.91798804671E+03  0.91805942579E+03  0.10000000000E+02 0.  0.
</event>
<event>
 5    1  0.1129619E-008  0.3808937E+03  0.7957747E-01  0.3447277E+00
         13   -1    0    0    0    0  0.00000000000E+00  0.00000000000E+00  0.14999999963E+04  0.15000000000E+04  0.10566000000E+00 0. -1.
        994   -1    0    0    0    0 -0.00000000000E+00 -0.00000000000E+00  0.11368683772E-12  0.17120000000E+03  0.17120000000E+03 0.  0.
         13    1    1    2    0    0  0.10712703385E+02 -0.66817271820E+01  0.20069778480E+02  0.23711066282E+02  0.10566000000E+00 0. -1.
        994    1    1    2    0    0 -0.37213064927E+01  0.12931124795E+02  0.42864380375E+01  0.17178147648E+03  0.17120000000E+03 0.  0.
        998    1    1    2    0    0 -0.69913968928E+01 -0.62493976133E+01  0.14756437798E+04  0.14757074572E+04  0.10000000000E+02 0. -1.
</event>
<event>
 5    1  0.1129619E-008  0.3848294E+03  0.7957747E-01  0.3430396E+00
         13   -1    0    0    0    0  0.00000000000E+00  0.00000000000E+00  0.14999999963E+04  0.15000000000E+04  0.10566000000E+00 0.  1.
        994   -1    0    0    0    0 -0.00000000000E+00 -0.00000000000E+00  0.11368683772E-12  0.17120000000E+03  0.17120000000E+03 0.  0.
         13    1    1    2    0    0  0.13249652800E+01  0.13770728562E+02  0.60663373632E+02  0.62220933476E+02  0.10566000000E+00 0.  1.
        994    1    1    2    0    0 -0.11608197338E+02  0.58681044850E+01  0.22717503491E+01  0.17170843237E+03  0.17120000000E+03 0.  0.
        998    1    1    2    0    0  0.10283232058E+02 -0.19638833047E+02  0.14370648723E+04  0.14372706342E+04  0.10000000000E+02 0.  1.
</event>
<event>
 5    1  0.1129619E-008  0.3811524E+03  0.7957747E-01  0.3446156E+00
         13   -1    0    0    0    0  0.00000000000E+00  0.00000000000E+00  0.14999999963E+04  0.15000000000E+04  0.10566000000E+00 0. -1.
        994   -1    0    0    0    0 -0.00000000000E+00 -0.00000000000E+00  0.11368683772E-12  0.17120000000E+03  0.17120000000E+03 0.  0.
         13    1    1    2    0    0  0.41661499200E+02 -0.61980846725E+01  0.21249537447E+03  0.21662961963E+03  0.10566000000E+00 0. -1.
        994    1    1    2    0    0 -0.41976989996E+02  0.17173048785E+02  0.10433314173E+02  0.17741272598E+03  0.17120000000E+03 0.  0.
        998    1    1    2    0    0  0.31549079585E+00 -0.10974964112E+02  0.12770713076E+04  0.12771576544E+04  0.10000000000E+02 0. -1.
</event>
<event>
 5    1  0.1129619E-008  0.3849196E+03  0.7957747E-01  0.3430013E+00
         13   -1    0    0    0    0  0.00000000000E+00  0.00000000000E+00  0.14999999963E+04  0.15000000000E+04  0.10566000000E+00 0. -1.
        994   -1    0    0    0    0 -0.00000000000E+00 -0.00000000000E+00  0.11368683772E-12  0.17120000000E+03  0.17120000000E+03 0.  0.
         13    1    1    2    0    0 -0.91539884084E+01  0.17704872821E+02  0.10290079157E+03  0.10481336792E+03  0.10566000000E+00 0. -1.
        994    1    1    2    0    0  0.36579383694E+02 -0.17596664209E+02  0.71090296923E+01  0.17608995487E+03  0.17120000000E+03 0.  0.
        998    1    1    2    0    0 -0.27425395285E+02 -0.10820861167E+00  0.13899901750E+04  0.13902966772E+04  0.10000000000E+02 0. -1.
</event>
<event>
 5    1  0.1129619E-008  0.4340165E+03  0.7957747E-01  0.3245138E+00
         13   -1    0    0    0    0  0.00000000000E+00  0.00000000000E+00  0.14999999963E+04  0.15000000000E+04  0.10566000000E+00 0. -1.
        994   -1    0    0    0    0 -0.00000000000E+00 -0.00000000000E+00  0.11368683772E-12  0.17120000000E+03  0.17120000000E+03 0.  0.
         13    1    1    2    0    0  0.30449830628E+02 -0.54321607212E+02  0.21179579753E+02  0.65777009342E+02  0.10566000000E+00 0. -1.
        994    1    1    2    0    0 -0.28209134361E+02  0.55365738928E+02  0.67759138867E+02  0.19432411381E+03  0.17120000000E+03 0.  0.
        998    1    1    2    0    0 -0.22406962672E+01 -0.10441317161E+01  0.14110612777E+04  0.14110988768E+04  0.10000000000E+02 0. -1.
</event>
<event>
 5    1  0.1129619E-008  0.3785039E+03  0.7957747E-01  0.3457699E+00
         13   -1    0    0    0    0  0.00000000000E+00  0.00000000000E+00  0.14999999963E+04  0.15000000000E+04  0.10566000000E+00 0.  1.
        994   -1    0    0    0    0 -0.00000000000E+00 -0.00000000000E+00  0.11368683772E-12  0.17120000000E+03  0.17120000000E+03 0.  0.
         13    1    1    2    0    0  0.22595646578E+02 -0.13959798036E+02  0.71837237928E+02  0.76590071959E+02  0.10566000000E+00 0.  1.
        994    1    1    2    0    0 -0.49253640073E+01  0.14148425051E+02  0.56446408528E+01  0.17194690783E+03  0.17120000000E+03 0.  0.
        998    1    1    2    0    0 -0.17670282571E+02 -0.18862701429E+00  0.14225181175E+04  0.14226630202E+04  0.10000000000E+02 0.  1.
</event>
<event>
 5    1  0.1129619E-008  0.3718091E+03  0.7957747E-01  0.3487618E+00
         13   -1    0    0    0    0  0.00000000000E+00  0.00000000000E+00  0.14999999963E+04  0.15000000000E+04  0.10566000000E+00 0. -1.
        994   -1    0    0    0    0 -0.00000000000E+00 -0.00000000000E+00  0.11368683772E-12  0.17120000000E+03  0.17120000000E+03 0.  0.
         13    1    1    2    0    0  0.21374023759E+02  0.64346945386E+01  0.26069318993E+02  0.34320179811E+02  0.10566000000E+00 0. -1.
        994    1    1    2    0    0 -0.20661036244E+02 -0.55535435800E+01  0.99009232027E+01  0.17281547542E+03  0.17120000000E+03 0.  0.
        998    1    1    2    0    0 -0.71298751547E+00 -0.88115095858E+00  0.14640297541E+04  0.14640643448E+04  0.10000000000E+02 0. -1.
</event>
<event>
 5    1  0.1129619E-008  0.4554342E+03  0.7957747E-01  0.3176740E+00
         13   -1    0    0    0    0  0.00000000000E+00  0.00000000000E+00  0.14999999963E+04  0.15000000000E+04  0.10566000000E+00 0.  1.
        994   -1    0    0    0    0 -0.00000000000E+00 -0.00000000000E+00  0.11368683772E-12  0.17120000000E+03  0.17120000000E+03 0.  0.
         13    1    1    2    0    0  0.10677988176E+03  0.57967918242E+02  0.12301695574E+03  0.17290287811E+03  0.10566000000E+00 0.  1.
        994    1    1    2    0    0  0.21994167957E+02 -0.63902914805E+02  0.90084531175E+02  0.20491946882E+03  0.17120000000E+03 0.  0.
        998    1    1    2    0    0 -0.12877404972E+03  0.59349965633E+01  0.12868985094E+04  0.12933776531E+04  0.10000000000E+02 0.  1.
</event>
<event>
 5    1  0.1129619E-008  0.3731525E+03  0.7957747E-01  0.3481527E+00
         13   -1    0    0    0    0  0.00000000000E+00  0.00000000000E+00  0.14999999963E+04  0.15000000000E+04  0.10566000000E+00 0. -1.
        994   -1    0    0    0    0 -0.00000000000E+00 -0.00000000000E+00  0.11368683772E-12  0.17120000000E+03  0.17120000000E+03 0.  0.
         13    1    1    2    0    0 -0.25474926297E+02  0.84502419113E+02  0.27887735432E+03  0.29251020602E+03  0.10566000000E+00 0. -1.
        994    1    1    2    0    0  0.24277527376E+02 -0.63753512676E+02  0.29255036783E+02  0.18659905115E+03  0.17120000000E+03 0.  0.
        998    1    1    2    0    0  0.11973989212E+01 -0.20748906437E+02  0.11918676052E+04  0.11920907428E+04  0.10000000000E+02 0. -1.
</event>
<event>
 5    1  0.1129619E-008  0.3742464E+03  0.7957747E-01  0.3476600E+00
         13   -1    0    0    0    0  0.00000000000E+00  0.00000000000E+00  0.14999999963E+04  0.15000000000E+04  0.10566000000E+00 0.  1.
        994   -1    0    0    0    0 -0.00000000000E+00 -0.00000000000E+00  0.11368683772E-12  0.17120000000E+03  0.17120000000E+03 0.  0.
         13    1    1    2    0    0  0.26848580005E+01 -0.30408355692E+02  0.69964920426E+02  0.76334643594E+02  0.10566000000E+00 0.  1.
        994    1    1    2    0    0 -0.13114337050E+01 -0.89141006652E+01  0.73429490482E+01  0.17159411397E+03  0.17120000000E+03 0.  0.
        998    1    1    2    0    0 -0.13734242955E+01  0.39322456358E+02  0.14226921268E+04  0.14232712424E+04  0.10000000000E+02 0.  1.
</event>
<event>
 5    1  0.1129619E-008  0.4067248E+03  0.7957747E-01  0.3342456E+00
         13   -1    0    0    0    0  0.00000000000E+00  0.00000000000E+00  0.14999999963E+04  0.15000000000E+04  0.10566000000E+00 0.  1.
        994   -1    0    0    0    0 -0.00000000000E+00 -0.00000000000E+00  0.11368683772E-12  0.17120000000E+03  0.17120000000E+03 0.  0.
         13    1    1    2    0    0 -0.10062444708E+03 -0.96333161546E+01  0.15130915605E+03  0.18196854673E+03  0.10566000000E+00 0.  1.
        994    1    1    2    0    0  0.69092896163E+02  0.23550417822E+02  0.53646635218E+02  0.19369009254E+03  0.17120000000E+03 0.  0.
        998    1    1    2    0    0  0.31531550914E+02 -0.13917101668E+02  0.12950442050E+04  0.12955413607E+04  0.10000000000E+02 0.  1.
</event>
<event>
 5    1  0.1129619E-008  0.3847073E+03  0.7957747E-01  0.3430915E+00
         13   -1    0    0    0    0  0.00000000000E+00  0.00000000000E+00  0.14999999963E+04  0.15000000000E+04  0.10566000000E+00 0.  1.
        994   -1    0    0    0    0 -0.00000000000E+00 -0.00000000000E+00  0.11368683772E-12  0.17120000000E+03  0.17120000000E+03 0.  0.
         13    1    1    2    0    0  0.92193288163E+01  0.11974642266E+02  0.62055740693E+02  0.63869509144E+02  0.10566000000E+00 0.  1.
        994    1    1    2    0    0 -0.10929811437E+02 -0.11307570933E+02  0.25900838527E+01  0.17194031078E+03  0.17120000000E+03 0.  0.
        998    1    1    2    0    0  0.17104826204E+01 -0.66707133395E+00  0.14353541717E+04  0.14353901801E+04  0.10000000000E+02 0.  1.
</event>
<event>
 5    1  0.1129619E-008  0.3706303E+03  0.7957747E-01  0.3492999E+00
         13   -1    0    0    0    0  0.00000000000E+00  0.00000000000E+00  0.14999999963E+04  0.15000000000E+04  0.10566000000E+00 0. -1.
        994   -1    0    0    0    0 -0.00000000000E+00 -0.00000000000E+00  0.11368683772E-12  0.17120000000E+03  0.17120000000E+03 0.  0.
         13    1    1    2    0    0 -0.43107186982E+02 -0.29482532410E+00  0.97395377138E+02  0.10650909418E+03  0.10566000000E+00 0. -1.
        994    1    1    2    0    0  0.36011729285E+02  0.79985893775E+01  0.13649589490E+02  0.17566039215E+03  0.17120000000E+03 0.  0.
        998    1    1    2    0    0  0.70954576976E+01 -0.77037640534E+01  0.13889550297E+04  0.13890305137E+04  0.10000000000E+02 0. -1.
</event>
<event>
 5    1  0.1129619E-008  0.3765782E+03  0.7957747E-01  0.3466194E+00
         13   -1    0    0    0    0  0.00000000000E+00  0.00000000000E+00  0.14999999963E+04  0.15000000000E+04  0.10566000000E+00 0. -1.
        994   -1    0    0    0    0 -0.00000000000E+00 -0.00000000000E+00  0.11368683772E-12  0.17120000000E+03  0.17120000000E+03 0.  0.
         13    1    1    2    0    0  0.20957324346E+02 -0.11149945397E+02  0.45151717753E+02  0.51011954542E+02  0.10566000000E+00 0. -1.
        994    1    1    2    0    0 -0.17473915532E+02  0.85791532342E+01  0.71528085472E+01  0.17245156498E+03  0.17120000000E+03 0.  0.
        998    1    1    2    0    0 -0.34834088139E+01  0.25707921628E+01  0.14476954700E+04  0.14477364805E+04  0.10000000000E+02 0. -1.
</event>
<event>
 5    1  0.1129619E-008  0.3706358E+03  0.7957747E-01  0.3492974E+00
         13   -1    0    0    0    0  0.00000000000E+00  0.00000000000E+00  0.14999999963E+04  0.15000000000E+04  0.10566000000E+00 0. -1.
        994   -1    0    0    0    0 -0.00000000000E+00 -0.00000000000E+00  0.11368683772E-12  0.17120000000E+03  0.17120000000E+03 0.  0.
         13    1    1    2    0    0 -0.17494050213E+02 -0.79955859557E+02  0.34136450849E+03  0.35103948509E+03  0.10566000000E+00 0. -1.
        994    1    1    2    0    0  0.87595030256E+01  0.58565694228E+02  0.21134388520E+02  0.18238084278E+03  0.17120000000E+03 0.  0.
        998    1    1    2    0    0  0.87345471877E+01  0.21390165330E+02  0.11375010993E+04  0.11377796721E+04  0.10000000000E+02 0. -1.
</event>
<event>
 5    1  0.1129619E-008  0.3886767E+03  0.7957747E-01  0.3414227E+00
         13   -1    0    0    0    0  0.00000000000E+00  0.00000000000E+00  0.14999999963E+04  0.15000000000E+04  0.10566000000E+00 0. -1.
        994   -1    0    0    0    0 -0.00000000000E+00 -0.00000000000E+00  0.11368683772E-12  0.17120000000E+03  0.17120000000E+03 0.  0.
         13    1    1    2    0    0  0.79177136801E+02 -0.71406058736E+02  0.24717414030E+03  0.26918935903E+03  0.10566000000E+00 0. -1.
        994    1    1    2    0    0 -0.70233083984E+02  0.41310446053E+02  0.46480771447E+02  0.19521562733E+03  0.17120000000E+03 0.  0.
        998    1    1    2    0    0 -0.89440528172E+01  0.30095612683E+02  0.12063450845E+04  0.12067950136E+04  0.10000000000E+02 0. -1.
</event>
<event>
 5    1  0.1129619E-008  0.3771547E+03  0.7957747E-01  0.3463642E+00
         13   -1    0    0    0    0  0.00000000000E+00  0.00000000000E+00  0.14999999963E+04  0.15000000000E+04  0.10566000000E+00 0. -1.
        994   -1    0    0    0    0 -0.00000000000E+00 -0.00000000000E+00  0.11368683772E-12  0.17120000000E+03  0.17120000000E+03 0.  0.
         13    1    1    2    0    0  0.19271700848E+02  0.40524623549E+02  0.61742185370E+02  0.76326615185E+02  0.10566000000E+00 0. -1.
        994    1    1    2    0    0 -0.16349041364E+00 -0.40717874806E+02  0.20742331160E+02  0.17719383838E+03  0.17120000000E+03 0.  0.
        998    1    1    2    0    0 -0.19108210434E+02  0.19325125677E+00  0.14175154797E+04  0.14176795464E+04  0.10000000000E+02 0. -1.
</event>
<event>
 5    1  0.1129619E-008  0.3859199E+03  0.7957747E-01  0.3425780E+00
         13   -1    0    0    0    0  0.00000000000E+00  0.00000000000E+00  0.14999999963E+04  0.15000000000E+04  0.10566000000E+00 0. -1.
        994   -1    0    0    0    0 -0.00000000000E+00 -0.00000000000E+00  0.11368683772E-12  0.17120000000E+03  0.17120000000E+03 0.  0.
         13    1    1    2    0    0  0.92805475611E+01 -0.80435515106E+01  0.58545109050E+02  0.59819463736E+02  0.10566000000E+00 0. -1.
        994    1    1    2    0    0  0.89209497550E+01  0.49611774715E+02  0.95501262562E+01  0.17872200885E+03  0.17120000000E+03 0.  0.
        998    1    1    2    0    0 -0.18201497316E+02 -0.41568223204E+02  0.14319047610E+04  0.14326585274E+04  0.10000000000E+02 0. -1.
</event>
<event>
 5    1  0.1129619E-008  0.3854383E+03  0.7957747E-01  0.3427815E+00
         13   -1    0    0    0    0  0.00000000000E+00  0.00000000000E+00  0.14999999963E+04  0.15000000000E+04  0.10566000000E+00 0. -1.
        994   -1    0    0    0    0 -0.00000000000E+00 -0.00000000000E+00  0.11368683772E-12  0.17120000000E+03  0.17120000000E+03 0.  0.
         13    1    1    2    0    0 -0.21816304600E-02  0.10580151262E+02  0.39423721090E+02  0.40818874974E+02  0.10566000000E+00 0. -1.
        994    1    1    2    0    0  0.10351450240E+02 -0.85563673262E+01  0.20052118250E+01  0.17173766278E+03  0.17120000000E+03 0.  0.
        998    1    1    2    0    0 -0.10349268610E+02 -0.20237839357E+01  0.14585710634E+04  0.14586434622E+04  0.10000000000E+02 0. -1.
</event>
<event>
 5    1  0.1129619E-008  0.3795488E+03  0.7957747E-01  0.3453126E+00
         13   -1    0    0    0    0  0.00000000000E+00  0.00000000000E+00  0.14999999963E+04  0.15000000000E+04  0.10566000000E+00 0.  1.
        994   -1    0    0    0    0 -0.00000000000E+00 -0.00000000000E+00  0.11368683772E-12  0.17120000000E+03  0.17120000000E+03 0.  0.
         13    1    1    2    0    0  0.10004193850E+02  0.31874987879E+02  0.11978736666E+03  0.12435884819E+03  0.10566000000E+00 0.  1.
        994    1    1    2    0    0 -0.13508813910E+02 -0.27101120520E+02  0.74370778157E+01  0.17401640415E+03  0.17120000000E+03 0.  0.
        998    1    1    2    0    0  0.35046200598E+01 -0.47738673593E+01  0.13727755518E+04  0.13728247477E+04  0.10000000000E+02 0.  1.
</event>
<event>
 5    1  0.1129619E-008  0.3851196E+03  0.7957747E-01  0.3429165E+00
         13   -1    0    0    0    0  0.00000000000E+00  0.00000000000E+00  0.14999999963E+04  0.15000000000E+04  0.10566000000E+00 0. -1.
        994   -1    0    0    0    0 -0.00000000000E+00 -0.00000000000E+00  0.11368683772E-12  0.17120000000E+03  0.17120000000E+03 0.  0.
         13    1    1    2    0    0 -0.11372509574E+02 -0.94667913167E+01  0.69517519308E+02  0.71074965822E+02  0.10566000000E+00 0. -1.
        994    1    1    2    0    0  0.89165305745E+01  0.54294838171E+01  0.19291055108E+01  0.17152884673E+03  0.17120000000E+03 0.  0.
        998    1    1    2    0    0  0.24559789999E+01  0.40373074995E+01  0.14285533715E+04  0.14285961874E+04  0.10000000000E+02 0. -1.
</event>
<event>
 5    1  0.1129619E-008  0.3821143E+03  0.7957747E-01  0.3442004E+00
         13   -1    0    0    0    0  0.00000000000E+00  0.00000000000E+00  0.14999999963E+04  0.15000000000E+04  0.10566000000E+00 0.  1.
        994   -1    0    0    0    0 -0.00000000000E+00 -0.00000000000E+00  0.11368683772E-12  0.17120000000E+03  0.17120000000E+03 0.  0.
         13    1    1    2    0    0  0.28314735491E+01  0.21813132892E+02  0.70128137518E+02  0.73496917247E+02  0.10566000000E+00 0.  1.
        994    1    1    2    0    0 -0.94848229791E+01 -0.34320672382E+02  0.72900478128E+01  0.17501558564E+03  0.17120000000E+03 0.  0.
        998    1    1    2    0    0  0.66533494300E+01  0.12507539490E+02  0.14225818109E+04  0.14226874971E+04  0.10000000000E+02 0.  1.
</event>
<event>
 5    1  0.1129619E-008  0.3727021E+03  0.7957747E-01  0.3483564E+00
         13   -1    0    0    0    0  0.00000000000E+00  0.00000000000E+00  0.14999999963E+04  0.15000000000E+04  0.10566000000E+00 0. -1.
        994   -1    0    0    0    0 -0.00000000000E+00 -0.00000000000E+00  0.11368683772E-12  0.17120000000E+03  0.17120000000E+03 0.  0.
         13    1    1    2    0    0  0.10519929697E+03 -0.42292168841E+02  0.53144499252E+03  0.54340529153E+03  0.10566000000E+00 0. -1.
        994    1    1    2    0    0 -0.98115697636E+02  0.50389590924E+02  0.50764054719E+02  0.20988623168E+03  0.17120000000E+03 0.  0.
        998    1    1    2    0    0 -0.70835993303E+01 -0.80974220831E+01  0.91779094904E+03  0.91790847679E+03  0.10000000000E+02 0.  0.
</event>
<event>
 5    1  0.1129619E-008  0.3800314E+03  0.7957747E-01  0.3451022E+00
         13   -1    0    0    0    0  0.00000000000E+00  0.00000000000E+00  0.14999999963E+04  0.15000000000E+04  0.10566000000E+00 0. -1.
        994   -1    0    0    0    0 -0.00000000000E+00 -0.00000000000E+00  0.11368683772E-12  0.17120000000E+03  0.17120000000E+03 0.  0.
         13    1    1    2    0    0 -0.26794733026E+02 -0.15039038112E+02  0.10953907969E+03  0.11376709335E+03  0.10566000000E+00 0. -1.
        994    1    1    2    0    0  0.23774843320E+02  0.81651633624E+01  0.62323929560E+01  0.17314790149E+03  0.17120000000E+03 0.  0.
        998    1    1    2    0    0  0.30198897058E+01  0.68738747492E+01  0.13842285236E+04  0.13842850052E+04  0.10000000000E+02 0. -1.
</event>
<event>
 5    1  0.1129619E-008  0.3857643E+03  0.7957747E-01  0.3426437E+00
         13   -1    0    0    0    0  0.00000000000E+00  0.00000000000E+00  0.14999999963E+04  0.15000000000E+04  0.10566000000E+00 0. -1.
        994   -1    0    0    0    0 -0.00000000000E+00 -0.00000000000E+00  0.11368683772E-12  0.17120000000E+03  0.17120000000E+03 0.  0.
         13    1    1    2    0    0  0.11067264472E+02 -0.19509008324E+01  0.49469383525E+02  0.50729886924E+02  0.10566000000E+00 0. -1.
        994    1    1    2    0    0 -0.10063693701E+02  0.13064300928E+02  0.21437866795E+01  0.17200578395E+03  0.17120000000E+03 0.  0.
        998    1    1    2    0    0 -0.10035707707E+01 -0.11113400095E+02  0.14483868261E+04  0.14484643291E+04  0.10000000000E+02 0. -1.
</event>
<event>
 5    1  0.1129619E-008  0.3743416E+03  0.7957747E-01  0.3476172E+00
         13   -1    0    0    0    0  0.00000000000E+00  0.00000000000E+00  0.14999999963E+04  0.15000000000E+04  0.10566000000E+00 0. -1.
        994   -1    0    0    0    0 -0.00000000000E+00 -0.00000000000E+00  0.11368683772E-12  0.17120000000E+03  0.17120000000E+03 0.  0.
         13    1    1    2    0    0  0.10722739845E+02  0.29441880164E+02  0.64966387572E+02  0.72127970549E+02  0.10566000000E+00 0. -1.
        994    1    1    2    0    0  0.13356536557E+02 -0.37250640346E+02  0.12370958396E+02  0.17614905020E+03  0.17120000000E+03 0.  0.
        998    1    1    2    0    0 -0.24079276402E+02  0.78087601819E+01  0.14226626503E+04  0.14229229792E+04  0.10000000000E+02 0. -1.
</event>
<event>
 5    1  0.1129619E-008  0.3836308E+03  0.7957747E-01  0.3435500E+00
         13   -1    0    0    0    0  0.00000000000E+00  0.00000000000E+00  0.14999999963E+04  0.15000000000E+04  0.10566000000E+00 0.  1.
        994   -1    0    0    0    0 -0.00000000000E+00 -0.00000000000E+00  0.11368683772E-12  0.17120000000E+03  0.17120000000E+03 0.  0.
         13    1    1    2    0    0  0.16738988846E+02 -0.13816446517E+02  0.10108812197E+03  0.10339200892E+03  0.10566000000E+00 0.  1.
        994    1    1    2    0    0 -0.11100186822E+02  0.84138637875E+01  0.29525933236E+01  0.17179105058E+03  0.17120000000E+03 0.  0.
        998    1    1    2    0    0 -0.56388020242E+01  0.54025827293E+01  0.13959592810E+04  0.13960169405E+04  0.10000000000E+02 0.  1.
</event>
<event>
 5    1  0.1129619E-008  0.3742875E+03  0.7957747E-01  0.3476415E+00
         13   -1    0    0    0    0  0.00000000000E+00  0.00000000000E+00  0.14999999963E+04  0.15000000000E+04  0.10566000000E+00 0.  1.
        994   -1    0    0    0    0 -0.00000000000E+00 -0.00000000000E+00  0.11368683772E-12  0.17120000000E+03  0.17120000000E+03 0.  0.
         13    1    1    2    0    0 -0.35961648864E+01 -0.73289941904E+02  0.38844876042E+03  0.39531860394E+03  0.10566000000E+00 0.  1.
        994    1    1    2    0    0 -0.16318530867E+02  0.40789725553E+02  0.13650224909E+02  0.17727341820E+03  0.17120000000E+03 0.  0.
        998    1    1    2    0    0  0.19914695753E+02  0.32500216350E+02  0.10979010110E+04  0.10986079779E+04  0.10000000000E+02 0.  1.
</event>
<event>
 5    1  0.1129619E-008  0.3844238E+03  0.7957747E-01  0.3432120E+00
         13   -1    0    0    0    0  0.00000000000E+00  0.00000000000E+00  0.14999999963E+04  0.15000000000E+04  0.10566000000E+00 0.  1.
        994   -1    0    0    0    0 -0.00000000000E+00 -0.00000000000E+00  0.11368683772E-12  0.17120000000E+03  0.17120000000E+03 0.  0.
         13    1    1    2    0    0 -0.96972401620E+01  0.14362219826E+02  0.76765998739E+02  0.78697773485E+02  0.10566000000E+00 0.  1.
        994    1    1    2    0    0  0.19245579984E+02 -0.40619043238E+01  0.31922356435E+01  0.17235579997E+03  0.17120000000E+03 0.  0.
        998    1    1    2    0    0 -0.95483398219E+01 -0.10300315502E+02  0.14200417619E+04  0.14201464265E+04  0.10000000000E+02 0.  1.
</event>
<event>
 5    1  0.1827607E-008  0.3863715E+03  0.7957747E-01  0.3423876E+00
         13   -1    0    0    0    0  0.00000000000E+00  0.00000000000E+00  0.14999999963E+04  0.15000000000E+04  0.10566000000E+00 0.  1.
        994   -1    0    0    0    0 -0.00000000000E+00 -0.00000000000E+00  0.11368683772E-12  0.17120000000E+03  0.17120000000E+03 0.  0.
         13    1    1    2    0    0 -0.41651929167E+01  0.92986366556E+01  0.61622297869E+02  0.62459044456E+02  0.10566000000E+00 0.  1.
        994    1    1    2    0    0  0.51527113860E+01  0.83696951662E+01  0.12670588731E+01  0.17148658160E+03  0.17120000000E+03 0.  0.
        998    1    1    2    0    0 -0.98751846930E+00 -0.17668331822E+02  0.14371106395E+04  0.14372543739E+04  0.10000000000E+02 0.  1.
</event>
<event>
 5    1  0.1129619E-008  0.3687912E+03  0.7957747E-01  0.3501465E+00
         13   -1    0    0    0    0  0.00000000000E+00  0.00000000000E+00  0.14999999963E+04  0.15000000000E+04  0.10566000000E+00 0. -1.
        994   -1    0    0    0    0 -0.00000000000E+00 -0.00000000000E+00  0.11368683772E-12  0.17120000000E+03  0.17120000000E+03 0.  0.
         13    1    1    2    0    0 -0.83839643154E+01  0.33092911816E+02  0.52387412451E+02  0.62529063782E+02  0.10566000000E+00 0. -1.
        994    1    1    2    0    0  0.19400200883E+02 -0.36360665502E+02  0.15822746203E+02  0.17680007095E+03  0.17120000000E+03 0.  0.
        998    1    1    2    0    0 -0.11016236568E+02  0.32677536855E+01  0.14317898376E+04  0.14318708653E+04  0.10000000000E+02 0. -1.
</event>
<event>
 5    1  0.1129619E-008  0.3841401E+03  0.7957747E-01  0.3433327E+00
         13   -1    0    0    0    0  0.00000000000E+00  0.00000000000E+00  0.14999999963E+04  0.15000000000E+04  0.10566000000E+00 0. -1.
        994   -1    0    0    0    0 -0.00000000000E+00 -0.00000000000E+00  0.11368683772E-12  0.17120000000E+03  0.17120000000E+03 0.  0.
         13    1    1    2    0    0  0.14260034553E+00  0.11313992794E+02  0.30252670329E+02  0.32299566466E+02  0.10566000000E+00 0. -1.
        994    1    1    2    0    0 -0.31330641622E+01 -0.10284874162E+02  0.24389837481E+01  0.17155460754E+03  0.17120000000E+03 0.  0.
        998    1    1    2    0    0  0.29904638167E+01 -0.10291186326E+01  0.14673083422E+04  0.14673458260E+04  0.10000000000E+02 0. -1.
</event>
<event>
 5    1  0.1129619E-008  0.3695389E+03  0.7957747E-01  0.3498013E+00
         13   -1    0    0    0    0  0.00000000000E+00  0.00000000000E+00  0.14999999963E+04  0.15000000000E+04  0.10566000000E+00 0.  1.
        994   -1    0    0    0    0 -0.00000000000E+00 -0.00000000000E+00  0.11368683772E-12  0.17120000000E+03  0.17120000000E+03 0.  0.
         13    1    1    2    0    0  0.17376671065E+02  0.38336066099E+02  0.99602494420E+02  0.10813080375E+03  0.10566000000E+00 0.  1.
        994    1    1    2    0    0  0.86764780555E+01 -0.23035979879E+01  0.97894121942E+01  0.17171447355E+03  0.17120000000E+03 0.  0.
        998    1    1    2    0    0 -0.26053149120E+02 -0.36032468111E+02  0.13906080897E+04  0.13913547227E+04  0.10000000000E+02 0.  1.
</event>
<event>
 5    1  0.1129619E-008  0.3773751E+03  0.7957747E-01  0.3462668E+00
         13   -1    0    0    0    0  0.00000000000E+00  0.00000000000E+00  0.14999999963E+04  0.15000000000E+04  0.10566000000E+00 0. -1.
        994   -1    0    0    0    0 -0.00000000000E+00 -0.00000000000E+00  0.11368683772E-12  0.17120000000E+03  0.17120000000E+03 0.  0.
         13    1    1    2    0    0 -0.10539322469E+02 -0.22294077188E+02  0.51481837884E+02  0.57083219878E+02  0.10566000000E+00 0. -1.
        994    1    1    2    0    0  0.20063605862E+02  0.20956449631E+02  0.83077297317E+01  0.17383952207E+03  0.17120000000E+03 0.  0.
        998    1    1    2    0    0 -0.95242833937E+01  0.13376275568E+01  0.14402104287E+04  0.14402772580E+04  0.10000000000E+02 0. -1.
</event>
<event>
 5    1  0.1129619E-008  0.3803639E+03  0.7957747E-01  0.3449576E+00
         13   -1    0    0    0    0  0.00000000000E+00  0.00000000000E+00  0.14999999963E+04  0.15000000000E+04  0.10566000000E+00 0. -1.
        994   -1    0    0    0    0 -0.00000000000E+00 -0.00000000000E+00  0.11368683772E-12  0.17120000000E+03  0.17120000000E+03 0.  0.
         13    1    1    2    0    0 -0.26640744768E+02 -0.34438869023E+01  0.88030955102E+02  0.92038306477E+02  0.10566000000E+00 0. -1.
        994    1    1    2    0    0  0.19628939070E+02  0.12534413251E+02  0.57627131612E+01  0.17287294649E+03  0.17120000000E+03 0.  0.
        998    1    1    2    0    0  0.70118056979E+01 -0.90905263483E+01  0.14062063280E+04  0.14062887470E+04  0.10000000000E+02 0. -1.
</event>
<event>
 5    1  0.1129619E-008  0.3689478E+03  0.7957747E-01  0.3500741E+00
         13   -1    0    0    0    0  0.00000000000E+00  0.00000000000E+00  0.14999999963E+04  0.15000000000E+04  0.10566000000E+00 0.  1.
        994   -1    0    0    0    0 -0.00000000000E+00 -0.00000000000E+00  0.11368683772E-12  0.17120000000E+03  0.17120000000E+03 0.  0.
         13    1    1    2    0    0  0.90087647510E+01 -0.42454741364E+02  0.83937300521E+02  0.94493621421E+02  0.10566000000E+00 0.  1.
        994    1    1    2    0    0  0.14377412615E+01  0.39686670782E+02  0.15896901629E+02  0.17646317015E+03  0.17120000000E+03 0.  0.
        998    1    1    2    0    0 -0.10446506012E+02  0.27680705819E+01  0.14001657941E+04  0.14002432084E+04  0.10000000000E+02 0.  1.
</event>
<event>
 5    1  0.1129619E-008  0.3774148E+03  0.7957747E-01  0.3462493E+00
         13   -1    0    0    0    0  0.00000000000E+00  0.00000000000E+00  0.14999999963E+04  0.15000000000E+04  0.10566000000E+00 0. -1.
        994   -1    0    0    0    0 -0.00000000000E+00 -0.00000000000E+00  0.11368683772E-12  0.17120000000E+03  0.17120000000E+03 0.  0.
         13    1    1    2    0    0 -0.28207180611E+01 -0.34456633219E+02  0.95596417559E+02  0.10165580277E+03  0.10566000000E+00 0. -1.
        994    1    1    2    0    0  0.44048525020E+02  0.45404633669E+02  0.19058179834E+02  0.18350615121E+03  0.17120000000E+03 0.  0.
        998    1    1    2    0    0 -0.41227806959E+02 -0.10948000450E+02  0.13853453989E+04  0.13860380460E+04  0.10000000000E+02 0. -1.
</event>
<event>
 5    1  0.1129619E-008  0.3850548E+03  0.7957747E-01  0.3429440E+00
         13   -1    0    0    0    0  0.00000000000E+00  0.00000000000E+00  0.14999999963E+04  0.15000000000E+04  0.10566000000E+00 0.  1.
        994   -1    0    0    0    0 -0.00000000000E+00 -0.00000000000E+00  0.11368683772E-12  0.17120000000E+03  0.17120000000E+03 0.  0.
         13    1    1    2    0    0  0.72514813810E+01 -0.77630936396E+01  0.35052191370E+02  0.36626723700E+02  0.10566000000E+00 0.  1.
        994    1    1    2    0    0 -0.73613390527E+01  0.29505365536E+01  0.18097652104E+01  0.17139314522E+03  0.17120000000E+03 0.  0.
        998    1    1    2    0    0  0.10985767172E+00  0.48125570860E+01  0.14631380397E+04  0.14631801311E+04  0.10000000000E+02 0.  1.
</event>
<event>
 5    1  0.1129619E-008  0.3766252E+03  0.7957747E-01  0.3465986E+00
         13   -1    0    0    0    0  0.00000000000E+00  0.00000000000E+00  0.14999999963E+04  0.15000000000E+04  0.10566000000E+00 0.  1.
        994   -1    0    0    0    0 -0.00000000000E+00 -0.00000000000E+00  0.11368683772E-12  0.17120000000E+03  0.17120000000E+03 0.  0.
         13    1    1    2    0    0 -0.22706993363E+01  0.30825996845E+02  0.73923963529E+02  0.80125911569E+02  0.10566000000E+00 0.  1.
        994    1    1    2    0    0  0.10492893739E+02 -0.37653306906E+02  0.11029206873E+02  0.17595157216E+03  0.17120000000E+03 0.  0.
        998    1    1    2    0    0 -0.82221944022E+01  0.68273100610E+01  0.14150468259E+04  0.14151225163E+04  0.10000000000E+02 0.  1.
</event>
<event>
 5    1  0.1129619E-008  0.3792748E+03  0.7957747E-01  0.3454322E+00
         13   -1    0    0    0    0  0.00000000000E+00  0.00000000000E+00  0.14999999963E+04  0.15000000000E+04  0.10566000000E+00 0. -1.
        994   -1    0    0    0    0 -0.00000000000E+00 -0.00000000000E+00  0.11368683772E-12  0.17120000000E+03  0.17120000000E+03 0.  0.
         13    1    1    2    0    0 -0.25589271902E+02 -0.30096878393E+02  0.19824448545E+03  0.20214232635E+03  0.10566000000E+00 0. -1.
        994    1    1    2    0    0 -0.33786463913E+01  0.71814635880E+01  0.47107660024E+01  0.17144859284E+03  0.17120000000E+03 0.  0.
        998    1    1    2    0    0  0.28967918294E+02  0.22915414805E+02  0.12970447448E+04  0.12976090808E+04  0.10000000000E+02 0. -1.
</event>
<event>
 5    1  0.1129619E-008  0.3776792E+03  0.7957747E-01  0.3461327E+00
         13   -1    0    0    0    0  0.00000000000E+00  0.00000000000E+00  0.14999999963E+04  0.15000000000E+04  0.10566000000E+00 0.  1.
        994   -1    0    0    0    0 -0.00000000000E+00 -0.00000000000E+00  0.11368683772E-12  0.17120000000E+03  0.17120000000E+03 0.  0.
         13    1    1    2    0    0 -0.39365157637E+02  0.10797764255E+02  0.47583670710E+02  0.62693095561E+02  0.10566000000E+00 0.  1.
        994    1    1    2    0    0  0.43239373159E+02 -0.12980105899E+02  0.22417262635E+02  0.17846596371E+03  0.17120000000E+03 0.  0.
        998    1    1    2    0    0 -0.38742155225E+01  0.21823416439E+01  0.14299990629E+04  0.14300409407E+04  0.10000000000E+02 0.  1.
</event>
<event>
 5    1  0.1129619E-008  0.3719615E+03  0.7957747E-01  0.3486924E+00
         13   -1    0    0    0    0  0.00000000000E+00  0.00000000000E+00  0.14999999963E+04  0.15000000000E+04  0.10566000000E+00 0. -1.
        994   -1    0    0    0    0 -0.00000000000E+00 -0.00000000000E+00  0.11368683772E-12  0.17120000000E+03  0.17120000000E+03 0.  0.
         13    1    1    2    0    0  0.39091401883E+02  0.22004734138E+02  0.11076573304E+03  0.11950483172E+03  0.10566000000E+00 0. -1.
        994    1    1    2    0    0 -0.37667705197E+02 -0.25525928754E+02  0.15391809408E+02  0.17781107066E+03  0.17120000000E+03 0.  0.
        998    1    1    2    0    0 -0.14236966859E+01  0.35211946166E+01  0.13738424538E+04  0.13738840976E+04  0.10000000000E+02 0. -1.
</event>
<event>
 5    1  0.1129619E-008  0.3817130E+03  0.7957747E-01  0.3443734E+00
         13   -1    0    0    0    0  0.00000000000E+00  0.00000000000E+00  0.14999999963E+04  0.15000000000E+04  0.10566000000E+00 0.  1.
        994   -1    0    0    0    0 -0.00000000000E+00 -0.00000000000E+00  0.11368683772E-12  0.17120000000E+03  0.17120000000E+03 0.  0.
         13    1    1    2    0    0  0.13545296671E+02  0.62954033401E-02  0.26731126792E+02  0.29967305603E+02  0.10566000000E+00 0.  1.
        994    1    1    2    0    0 -0.10077272161E+02  0.12748426229E+01  0.36139893480E+01  0.17153914293E+03  0.17120000000E+03 0.  0.
        998    1    1    2    0    0 -0.34680245095E+01 -0.12811380262E+01  0.14696548801E+04  0.14696935515E+04  0.10000000000E+02 0.  1.
</event>
<event>
 5    1  0.1129619E-008  0.3811284E+03  0.7957747E-01  0.3446260E+00
         13   -1    0    0    0    0  0.00000000000E+00  0.00000000000E+00  0.14999999963E+04  0.15000000000E+04  0.10566000000E+00 0. -1.
        994   -1    0    0    0    0 -0.00000000000E+00 -0.00000000000E+00  0.11368683772E-12  0.17120000000E+03  0.17120000000E+03 0.  0.
         13    1    1    2    0    0  0.47835642414E+02  0.14448652013E+02  0.27371504091E+03  0.27823901059E+03  0.10566000000E+00 0. -1.
        994    1    1    2    0    0 -0.53209714965E+02 -0.15000941764E+02  0.13811430360E+02  0.18043419196E+03  0.17120000000E+03 0.  0.
        998    1    1    2    0    0  0.53740725508E+01  0.55228975100E+00  0.12124735250E+04  0.12125267974E+04  0.10000000000E+02 0.  0.
</event>
<event>
 5    1  0.1129619E-008  0.3792142E+03  0.7957747E-01  0.3454587E+00
         13   -1    0    0    0    0  0.00000000000E+00  0.00000000000E+00  0.14999999963E+04  0.15000000000E+04  0.10566000000E+00 0.  1.
        994   -1    0    0    0    0 -0.00000000000E+00 -0.00000000000E+00  0.11368683772E-12  0.17120000000E+03  0.17120000000E+03 0.  0.
         13    1    1    2    0    0 -0.20976936831E+02  0.20365012468E+02  0.10502986577E+03  0.10902316029E+03  0.10566000000E+00 0.  1.
        994    1    1    2    0    0 -0.92705638056E+01 -0.51229636851E+00  0.48192963040E+01  0.17151930334E+03  0.17120000000E+03 0.  0.
        998    1    1    2    0    0  0.30247500636E+02 -0.19852716100E+02  0.13901508342E+04  0.13906575364E+04  0.10000000000E+02 0.  1.
</event>
<event>
 5    1  0.1129619E-008  0.3838848E+03  0.7957747E-01  0.3434416E+00
         13   -1    0    0    0    0  0.00000000000E+00  0.00000000000E+00  0.14999999963E+04  0.15000000000E+04  0.10566000000E+00 0. -1.
        994   -1    0    0    0    0 -0.00000000000E+00 -0.00000000000E+00  0.11368683772E-12  0.17120000000E+03  0.17120000000E+03 0.  0.
         13    1    1    2    0    0 -0.17274205628E+02  0.75221403302E+01  0.75841542548E+02  0.78146858640E+02  0.10566000000E+00 0. -1.
        994    1    1    2    0    0  0.19850575275E+02 -0.11374517001E+02  0.39143575223E+01  0.17276627903E+03  0.17120000000E+03 0.  0.
        998    1    1    2    0    0 -0.25763696473E+01  0.38523766706E+01  0.14202440962E+04  0.14202868623E+04  0.10000000000E+02 0. -1.
</event>
<event>
 5    1  0.1129619E-008  0.3834465E+03  0.7957747E-01  0.3436288E+00
         13   -1    0    0    0    0  0.00000000000E+00  0.00000000000E+00  0.14999999963E+04  0.15000000000E+04  0.10566000000E+00 0.  1.
        994   -1    0    0    0    0 -0.00000000000E+00 -0.00000000000E+00  0.11368683772E-12  0.17120000000E+03  0.17120000000E+03 0.  0.
         13    1    1    2    0    0  0.11902103067E+02  0.11548969550E+02  0.55063776680E+02  0.57507124962E+02  0.10566000000E+00 0.  1.
        994    1    1    2    0    0 -0.72655658011E+01 -0.16153247207E+02  0.34410215597E+01  0.17214818172E+03  0.17120000000E+03 0.  0.
        998    1    1    2    0    0 -0.46365372660E+01  0.46042776562E+01  0.14414951980E+04  0.14415446933E+04  0.10000000000E+02 0.  1.
</event>
<event>
 5    1  0.1129619E-008  0.3847448E+03  0.7957747E-01  0.3430755E+00
         13   -1    0    0    0    0  0.00000000000E+00  0.00000000000E+00  0.14999999963E+04  0.15000000000E+04  0.10566000000E+00 0.  1.
        994   -1    0    0    0    0 -0.00000000000E+00 -0.00000000000E+00  0.11368683772E-12  0.17120000000E+03  0.17120000000E+03 0.  0.
         13    1    1    2    0    0  0.15358984289E+02 -0.91111006652E+01  0.88601585776E+02  0.90383420603E+02  0.10566000000E+00 0.  1.
        994    1    1    2    0    0 -0.13145944852E+02  0.66646562336E+01  0.24722366488E+01  0.17185105604E+03  0.17120000000E+03 0.  0.
        998    1    1    2    0    0 -0.22130394371E+01  0.24464444316E+01  0.14089261739E+04  0.14089655234E+04  0.10000000000E+02 0.  1.
</event>
<event>
 5    1  0.1129619E-008  0.3810933E+03  0.7957747E-01  0.3446412E+00
         13   -1    0    0    0    0  0.00000000000E+00  0.00000000000E+00  0.14999999963E+04  0.15000000000E+04  0.10566000000E+00 0. -1.
        994   -1    0    0    0    0 -0.00000000000E+00 -0.00000000000E+00  0.11368683772E-12  0.17120000000E+03  0.17120000000E+03 0.  0.
         13    1    1    2    0    0  0.18270323483E+02  0.43195170411E+01  0.47839348210E+02  0.51391413182E+02  0.10566000000E+00 0. -1.
        994    1    1    2    0    0 -0.14098951061E+02  0.45361212802E+01  0.43132598402E+01  0.17189357471E+03  0.17120000000E+03 0.  0.
        998    1    1    2    0    0 -0.41713724227E+01 -0.88556383214E+01  0.14478473882E+04  0.14479150121E+04  0.10000000000E+02 0. -1.
</event>
<event>
 5    1  0.1129619E-008  0.3793607E+03  0.7957747E-01  0.3453947E+00
         13   -1    0    0    0    0  0.00000000000E+00  0.00000000000E+00  0.14999999963E+04  0.15000000000E+04  0.10566000000E+00 0.  1.
        994   -1    0    0    0    0 -0.00000000000E+00 -0.00000000000E+00  0.11368683772E-12  0.17120000000E+03  0.17120000000E+03 0.  0.
         13    1    1    2    0    0 -0.92869114834E+01  0.50964248797E+01  0.10435035359E+02  0.14870151258E+02  0.10566000000E+00 0.  1.
        994    1    1    2    0    0  0.13757928822E+02 -0.60591106222E+01  0.52136673836E+01  0.17193782526E+03  0.17120000000E+03 0.  0.
        998    1    1    2    0    0 -0.44710173383E+01  0.96268574252E+00  0.14843512935E+04  0.14843920235E+04  0.10000000000E+02 0.  1.
</event>
<event>
 5    1  0.1129619E-008  0.3748022E+03  0.7957747E-01  0.3474108E+00
         13   -1    0    0    0    0  0.00000000000E+00  0.00000000000E+00  0.14999999963E+04  0.15000000000E+04  0.10566000000E+00 0.  1.
        994   -1    0    0    0    0 -0.00000000000E+00 -0.00000000000E+00  0.11368683772E-12  0.17120000000E+03  0.17120000000E+03 0.  0.
         13    1    1    2    0    0  0.21793707894E+02 -0.44374565676E+02  0.23584846503E+03  0.24097422560E+03  0.10566000000E+00 0.  1.
        994    1    1    2    0    0  0.18242426433E+02 -0.49447225141E+01  0.79963780708E+01  0.17242568969E+03  0.17120000000E+03 0.  0.
        998    1    1    2    0    0 -0.40036134327E+02  0.49319288190E+02  0.12561551532E+04  0.12578000847E+04  0.10000000000E+02 0.  1.
</event>
<event>
 5    1  0.1129619E-008  0.3748208E+03  0.7957747E-01  0.3474024E+00
         13   -1    0    0    0    0  0.00000000000E+00  0.00000000000E+00  0.14999999963E+04  0.15000000000E+04  0.10566000000E+00 0.  1.
        994   -1    0    0    0    0 -0.00000000000E+00 -0.00000000000E+00  0.11368683772E-12  0.17120000000E+03  0.17120000000E+03 0.  0.
         13    1    1    2    0    0  0.42788581309E+02 -0.60821155229E+02  0.33200371275E+03  0.34023014572E+03  0.10566000000E+00 0.  1.
        994    1    1    2    0    0 -0.28626383900E+02  0.63842418052E+02  0.23607665197E+02  0.18644593333E+03  0.17120000000E+03 0.  0.
        998    1    1    2    0    0 -0.14162197408E+02 -0.30212628224E+01  0.11443886183E+04  0.11445239210E+04  0.10000000000E+02 0.  1.
</event>
<event>
 5    1  0.1129619E-008  0.3737714E+03  0.7957747E-01  0.3478736E+00
         13   -1    0    0    0    0  0.00000000000E+00  0.00000000000E+00  0.14999999963E+04  0.15000000000E+04  0.10566000000E+00 0. -1.
        994   -1    0    0    0    0 -0.00000000000E+00 -0.00000000000E+00  0.11368683772E-12  0.17120000000E+03  0.17120000000E+03 0.  0.
         13    1    1    2    0    0  0.17436263118E+02 -0.20264308666E+01  0.19522842148E+02  0.26254184869E+02  0.10566000000E+00 0. -1.
        994    1    1    2    0    0  0.26595072340E+02  0.15130973479E+02  0.10513383579E+02  0.17423035173E+03  0.17120000000E+03 0.  0.
        998    1    1    2    0    0 -0.44031335457E+02 -0.13104542613E+02  0.14699637706E+04  0.14707154634E+04  0.10000000000E+02 0. -1.
</event>
<event>
 5    1  0.1221255E-008  0.3863685E+03  0.7957747E-01  0.3423889E+00
         13   -1    0    0    0    0  0.00000000000E+00  0.00000000000E+00  0.14999999963E+04  0.15000000000E+04  0.10566000000E+00 0.  1.
        994   -1    0    0    0    0 -0.00000000000E+00 -0.00000000000E+00  0.11368683772E-12  0.17120000000E+03  0.17120000000E+03 0.  0.
         13    1    1    2    0    0 -0.88144400924E+01  0.80409078881E+01  0.70765622314E+02  0.71764441190E+02  0.10566000000E+00 0.  1.
        994    1    1    2    0    0  0.76338036336E+01 -0.16287815405E+02  0.20123292774E+01  0.17215416741E+03  0.17120000000E+03 0.  0.
        998    1    1    2    0    0  0.11806364588E+01  0.82469075173E+01  0.14272220447E+04  0.14272813914E+04  0.10000000000E+02 0.  1.
</event>
<event>
 5    1  0.1129619E-008  0.3749014E+03  0.7957747E-01  0.3473664E+00
         13   -1    0    0    0    0  0.00000000000E+00  0.00000000000E+00  0.14999999963E+04  0.15000000000E+04  0.10566000000E+00 0.  1.
        994   -1    0    0    0    0 -0.00000000000E+00 -0.00000000000E+00  0.11368683772E-12  0.17120000000E+03  0.17120000000E+03 0.  0.
         13    1    1    2    0    0 -0.55426181077E+01  0.16372114813E+02  0.18514995076E+02  0.25329488065E+02  0.10566000000E+00 0.  1.
        994    1    1    2    0    0  0.34649598694E+00 -0.30801529308E+02  0.99625553596E+01  0.17423417224E+03  0.17120000000E+03 0.  0.
        998    1    1    2    0    0  0.51961221207E+01  0.14429414494E+02  0.14715224458E+04  0.14716363397E+04  0.10000000000E+02 0.  1.
</event>
<event>
 5    1  0.1129619E-008  0.3761870E+03  0.7957747E-01  0.3467931E+00
         13   -1    0    0    0    0  0.00000000000E+00  0.00000000000E+00  0.14999999963E+04  0.15000000000E+04  0.10566000000E+00 0. -1.
        994   -1    0    0    0    0 -0.00000000000E+00 -0.00000000000E+00  0.11368683772E-12  0.17120000000E+03  0.17120000000E+03 0.  0.
         13    1    1    2    0    0 -0.23831419333E+02 -0.10100364359E+03  0.40938166615E+03  0.42233047760E+03  0.10566000000E+00 0. -1.
        994    1    1    2    0    0 -0.46878850811E+02  0.64211906841E+02  0.37197449926E+02  0.19238993195E+03  0.17120000000E+03 0.  0.
        998    1    1    2    0    0  0.70710270144E+02  0.36791736751E+02  0.10534208802E+04  0.10564795905E+04  0.10000000000E+02 0. -1.
</event>
<event>
 5    1  0.1129619E-008  0.3825575E+03  0.7957747E-01  0.3440098E+00
         13   -1    0    0    0    0  0.00000000000E+00  0.00000000000E+00  0.14999999963E+04  0.15000000000E+04  0.10566000000E+00 0. -1.
        994   -1    0    0    0    0 -0.00000000000E+00 -0.00000000000E+00  0.11368683772E-12  0.17120000000E+03  0.17120000000E+03 0.  0.
         13    1    1    2    0    0 -0.13857766078E+02  0.61981858506E+01  0.38983306838E+02  0.41834968203E+02  0.10566000000E+00 0. -1.
        994    1    1    2    0    0  0.13486448100E+02 -0.31612196148E+01  0.34839799599E+01  0.17179480699E+03  0.17120000000E+03 0.  0.
        998    1    1    2    0    0  0.37131797794E+00 -0.30369662358E+01  0.14575327095E+04  0.14575702248E+04  0.10000000000E+02 0. -1.
</event>
<event>
 5    1  0.1129619E-008  0.3847190E+03  0.7957747E-01  0.3430865E+00
         13   -1    0    0    0    0  0.00000000000E+00  0.00000000000E+00  0.14999999963E+04  0.15000000000E+04  0.10566000000E+00 0.  1.
        994   -1    0    0    0    0 -0.00000000000E+00 -0.00000000000E+00  0.11368683772E-12  0.17120000000E+03  0.17120000000E+03 0.  0.
         13    1    1    2    0    0 -0.68817608172E+01  0.13326391638E+02  0.60705232772E+02  0.62530694830E+02  0.10566000000E+00 0.  1.
        994    1    1    2    0    0  0.10671487911E+02 -0.14031874068E+02  0.27933453757E+01  0.17212790861E+03  0.17120000000E+03 0.  0.
        998    1    1    2    0    0 -0.37897270939E+01  0.70548243061E+00  0.14365014181E+04  0.14365413966E+04  0.10000000000E+02 0.  1.
</event>
<event>
 5    1  0.1129619E-008  0.3756189E+03  0.7957747E-01  0.3470459E+00
         13   -1    0    0    0    0  0.00000000000E+00  0.00000000000E+00  0.14999999963E+04  0.15000000000E+04  0.10566000000E+00 0.  1.
        994   -1    0    0    0    0 -0.00000000000E+00 -0.00000000000E+00  0.11368683772E-12  0.17120000000E+03  0.17120000000E+03 0.  0.
         13    1    1    2    0    0 -0.52849086672E+00  0.29372339606E+02  0.25679024958E+02  0.39018420308E+02  0.10566000000E+00 0.  1.
        994    1    1    2    0    0  0.25181040912E+00 -0.14399255342E+02  0.14681268492E+02  0.17243080237E+03  0.17120000000E+03 0.  0.
        998    1    1    2    0    0  0.27668045760E+00 -0.14973084264E+02  0.14596397028E+04  0.14597507773E+04  0.10000000000E+02 0.  1.
</event>
<event>
 5    1  0.1129619E-008  0.3730703E+03  0.7957747E-01  0.3481898E+00
         13   -1    0    0    0    0  0.00000000000E+00  0.00000000000E+00  0.14999999963E+04  0.15000000000E+04  0.10566000000E+00 0. -1.
        994   -1    0    0    0    0 -0.00000000000E+00 -0.00000000000E+00  0.11368683772E-12  0.17120000000E+03  0.17120000000E+03 0.  0.
         13    1    1    2    0    0 -0.20223495127E+02  0.21078130543E+02  0.58577285865E+02  0.65456756150E+02  0.10566000000E+00 0. -1.
        994    1    1    2    0    0 -0.17631628148E+02  0.27775168364E+01  0.87638174777E+01  0.17235090196E+03  0.17120000000E+03 0.  0.
        998    1    1    2    0    0  0.37855123275E+02 -0.23855647379E+02  0.14326588929E+04  0.14333923419E+04  0.10000000000E+02 0. -1.
</event>
<event>
 5    1  0.1129619E-008  0.3795586E+03  0.7957747E-01  0.3453083E+00
         13   -1    0    0    0    0  0.00000000000E+00  0.00000000000E+00  0.14999999963E+04  0.15000000000E+04  0.10566000000E+00 0. -1.
        994   -1    0    0    0    0 -0.00000000000E+00 -0.00000000000E+00  0.11368683772E-12  0.17120000000E+03  0.17120000000E+03 0.  0.
         13    1    1    2    0    0 -0.21613207635E+02 -0.26903040291E+02  0.14641485876E+03  0.15042681394E+03  0.10566000000E+00 0. -1.
        994    1    1    2    0    0  0.36417628688E+01  0.66643744872E+01  0.45492351657E+01  0.17142873699E+03  0.17120000000E+03 0.  0.
        998    1    1    2    0    0  0.17971444766E+02  0.20238665803E+02  0.13490359023E+04  0.13493444491E+04  0.10000000000E+02 0. -1.
</event>
<event>
 5    1  0.1129619E-008  0.3832011E+03  0.7957747E-01  0.3437337E+00
         13   -1    0    0    0    0  0.00000000000E+00  0.00000000000E+00  0.14999999963E+04  0.15000000000E+04  0.10566000000E+00 0.  1.
        994   -1    0    0    0    0 -0.00000000000E+00 -0.00000000000E+00  0.11368683772E-12  0.17120000000E+03  0.17120000000E+03 0.  0.
         13    1    1    2    0    0  0.10526146562E+02  0.19372841482E+02  0.95060437832E+02  0.97583834488E+02  0.10566000000E+00 0.  1.
        994    1    1    2    0    0  0.45888073955E+01 -0.19291195174E+02  0.38276649056E+01  0.17238705979E+03  0.17120000000E+03 0.  0.
        998    1    1    2    0    0 -0.15114953957E+02 -0.81646307825E-01  0.14011118935E+04  0.14012291057E+04  0.10000000000E+02 0.  1.
</event>
<event>
 5    1  0.1129619E-008  0.3755976E+03  0.7957747E-01  0.3470554E+00
         13   -1    0    0    0    0  0.00000000000E+00  0.00000000000E+00  0.14999999963E+04  0.15000000000E+04  0.10566000000E+00 0.  1.
        994   -1    0    0    0    0 -0.00000000000E+00 -0.00000000000E+00  0.11368683772E-12  0.17120000000E+03  0.17120000000E+03 0.  0.
         13    1    1    2    0    0  0.91606164513E+02  0.31219841249E+01  0.40942473529E+03  0.41955936551E+03  0.10566000000E+00 0.  1.
        994    1    1    2    0    0 -0.10660545979E+03  0.40475884636E+01  0.46015695078E+02  0.20690092127E+03  0.17120000000E+03 0.  0.
        998    1    1    2    0    0  0.14999295273E+02 -0.71695725885E+01  0.10445595659E+04  0.10447397132E+04  0.10000000000E+02 0.  1.
</event>
<event>
 5    1  0.1129619E-008  0.2723702E+03  0.7957747E-01  0.4115423E+00
         13   -1    0    0    0    0  0.00000000000E+00  0.00000000000E+00  0.14999999963E+04  0.15000000000E+04  0.10566000000E+00 0. -1.
        994   -1    0    0    0    0 -0.00000000000E+00 -0.00000000000E+00  0.11368683772E-12  0.17120000000E+03  0.17120000000E+03 0.  0.
         13    1    1    2    0    0  0.82186169430E+02 -0.12193532010E+03  0.62720601072E+03  0.64421283734E+03  0.10566000000E+00 0. -1.
        994    1    1    2    0    0 -0.51645591040E+02  0.21627671894E+02  0.36120152821E+02  0.18370935933E+03  0.17120000000E+03 0.  0.
        998    1    1    2    0    0 -0.30540578391E+02  0.10030764821E+03  0.83667383273E+03  0.84327780334E+03  0.10000000000E+02 0. -1.
</event>
<event>
 5    1  0.1129619E-008  0.3849938E+03  0.7957747E-01  0.3429698E+00
         13   -1    0    0    0    0  0.00000000000E+00  0.00000000000E+00  0.14999999963E+04  0.15000000000E+04  0.10566000000E+00 0.  1.
        994   -1    0    0    0    0 -0.00000000000E+00 -0.00000000000E+00  0.11368683772E-12  0.17120000000E+03  0.17120000000E+03 0.  0.
         13    1    1    2    0    0 -0.99158965897E+01 -0.11279978706E+02  0.68394137430E+02  0.70023796838E+02  0.10566000000E+00 0.  1.
        994    1    1    2    0    0  0.41055148556E+01  0.11605936204E+02  0.21317653462E+01  0.17165528664E+03  0.17120000000E+03 0.  0.
        998    1    1    2    0    0  0.58103817341E+01 -0.32595749850E+00  0.14294740935E+04  0.14295209165E+04  0.10000000000E+02 0.  1.
</event>
<event>
 5    1  0.1129619E-008  0.3933094E+03  0.7957747E-01  0.3395178E+00
         13   -1    0    0    0    0  0.00000000000E+00  0.00000000000E+00  0.14999999963E+04  0.15000000000E+04  0.10566000000E+00 0. -1.
        994   -1    0    0    0    0 -0.00000000000E+00 -0.00000000000E+00  0.11368683772E-12  0.17120000000E+03  0.17120000000E+03 0.  0.
         13    1    1    2    0    0  0.57758520685E+02 -0.13461473024E+02  0.69210612689E+02  0.91144819054E+02  0.10566000000E+00 0. -1.
        994    1    1    2    0    0 -0.25713812622E+02 -0.49911249402E+01  0.26458094435E+02  0.17520154751E+03  0.17120000000E+03 0.  0.
        998    1    1    2    0    0 -0.32044708062E+02  0.18452597964E+02  0.14043312892E+04  0.14048536334E+04  0.10000000000E+02 0. -1.
</event>
<event>
 5    1  0.1129619E-008  0.3738892E+03  0.7957747E-01  0.3478206E+00
         13   -1    0    0    0    0  0.00000000000E+00  0.00000000000E+00  0.14999999963E+04  0.15000000000E+04  0.10566000000E+00 0. -1.
        994   -1    0    0    0    0 -0.00000000000E+00 -0.00000000000E+00  0.11368683772E-12  0.17120000000E+03  0.17120000000E+03 0.  0.
         13    1    1    2    0    0  0.76836325155E+02  0.39781772721E+02  0.37251485668E+03  0.38243135320E+03  0.10566000000E+00 0. -1.
        994    1    1    2    0    0 -0.80377583939E+02 -0.40021541072E+02  0.35278284513E+02  0.19651024683E+03  0.17120000000E+03 0.  0.
        998    1    1    2    0    0  0.35412587837E+01  0.23976835064E+00  0.10922068551E+04  0.10922584000E+04  0.10000000000E+02 0.  0.
</event>
<event>
 5    1  0.1129619E-008  0.3805271E+03  0.7957747E-01  0.3448866E+00
         13   -1    0    0    0    0  0.00000000000E+00  0.00000000000E+00  0.14999999963E+04  0.15000000000E+04  0.10566000000E+00 0.  1.
        994   -1    0    0    0    0 -0.00000000000E+00 -0.00000000000E+00  0.11368683772E-12  0.17120000000E+03  0.17120000000E+03 0.  0.
         13    1    1    2    0    0 -0.89842241582E+01 -0.73857184463E+01  0.15681297617E+02  0.19523815705E+02  0.10566000000E+00 0.  1.
        994    1    1    2    0    0  0.10651383475E+02  0.66276923136E+01  0.43926433135E+01  0.17171521071E+03  0.17120000000E+03 0.  0.
        998    1    1    2    0    0 -0.16671593172E+01  0.75802613272E+00  0.14799260553E+04  0.14799609736E+04  0.10000000000E+02 0.  1.
</event>
<event>
 5    1  0.1129619E-008  0.3736066E+03  0.7957747E-01  0.3479478E+00
         13   -1    0    0    0    0  0.00000000000E+00  0.00000000000E+00  0.14999999963E+04  0.15000000000E+04  0.10566000000E+00 0. -1.
        994   -1    0    0    0    0 -0.00000000000E+00 -0.00000000000E+00  0.11368683772E-12  0.17120000000E+03  0.17120000000E+03 0.  0.
         13    1    1    2    0    0 -0.45387594081E+02  0.12004959387E+02  0.14663117244E+03  0.15396384200E+03  0.10566000000E+00 0. -1.
        994    1    1    2    0    0  0.24012836776E+02 -0.18162051086E+02  0.10498091376E+02  0.17414398167E+03  0.17120000000E+03 0.  0.
        998    1    1    2    0    0  0.21374757306E+02  0.61570916987E+01  0.13428707325E+04  0.13430921763E+04  0.10000000000E+02 0. -1.
</event>
<event>
 5    1  0.1129619E-008  0.3791662E+03  0.7957747E-01  0.3454797E+00
         13   -1    0    0    0    0  0.00000000000E+00  0.00000000000E+00  0.14999999963E+04  0.15000000000E+04  0.10566000000E+00 0. -1.
        994   -1    0    0    0    0 -0.00000000000E+00 -0.00000000000E+00  0.11368683772E-12  0.17120000000E+03  0.17120000000E+03 0.  0.
         13    1    1    2    0    0  0.19332127224E+02 -0.94932565605E+01  0.56132997907E+02  0.60123021225E+02  0.10566000000E+00 0. -1.
        994    1    1    2    0    0  0.15078211275E+02 -0.15665851272E+02  0.61410233125E+01  0.17268446230E+03  0.17120000000E+03 0.  0.
        998    1    1    2    0    0 -0.34410338498E+02  0.25159107832E+02  0.14377259751E+04  0.14383925165E+04  0.10000000000E+02 0. -1.
</event>
<event>
 5    1  0.1129619E-008  0.3732039E+03  0.7957747E-01  0.3481295E+00
         13   -1    0    0    0    0  0.00000000000E+00  0.00000000000E+00  0.14999999963E+04  0.15000000000E+04  0.10566000000E+00 0.  1.
        994   -1    0    0    0    0 -0.00000000000E+00 -0.00000000000E+00  0.11368683772E-12  0.17120000000E+03  0.17120000000E+03 0.  0.
         13    1    1    2    0    0  0.79685486906E+02  0.79816214141E+02  0.51011268856E+03  0.52243216886E+03  0.10566000000E+00 0.  1.
        994    1    1    2    0    0 -0.38080350056E+02 -0.51625540405E+02  0.27339712459E+02  0.18485726753E+03  0.17120000000E+03 0.  0.
        998    1    1    2    0    0 -0.41605136849E+02 -0.28190673737E+02  0.96254759526E+03  0.96391056361E+03  0.10000000000E+02 0.  1.
</event>
<event>
 5    1  0.1129619E-008  0.4158747E+03  0.7957747E-01  0.3308430E+00
         13   -1    0    0    0    0  0.00000000000E+00  0.00000000000E+00  0.14999999963E+04  0.15000000000E+04  0.10566000000E+00 0. -1.
        994   -1    0    0    0    0 -0.00000000000E+00 -0.00000000000E+00  0.11368683772E-12  0.17120000000E+03  0.17120000000E+03 0.  0.
         13    1    1    2    0    0  0.14581313317E+02  0.33549387858E+02  0.29216236294E+01  0.36697727074E+02  0.10566000000E+00 0. -1.
        994    1    1    2    0    0 -0.65822879033E+01 -0.25723912712E+02  0.40592205819E+02  0.17793879108E+03  0.17120000000E+03 0.  0.
        998    1    1    2    0    0 -0.79990254133E+01 -0.78254751460E+01  0.14564861668E+04  0.14565634818E+04  0.10000000000E+02 0. -1.
</event>
<event>
 5    1  0.1129619E-008  0.3829657E+03  0.7957747E-01  0.3438346E+00
         13   -1    0    0    0    0  0.00000000000E+00  0.00000000000E+00  0.14999999963E+04  0.15000000000E+04  0.10566000000E+00 0.  1.
        994   -1    0    0    0    0 -0.00000000000E+00 -0.00000000000E+00  0.11368683772E-12  0.17120000000E+03  0.17120000000E+03 0.  0.
         13    1    1    2    0    0  0.19722560422E+02 -0.11902703500E+02  0.96445936143E+02  0.99158880100E+02  0.10566000000E+00 0.  1.
        994    1    1    2    0    0 -0.18556489488E+02  0.71347405123E+01  0.39530792946E+01  0.17239580813E+03  0.17120000000E+03 0.  0.
        998    1    1    2    0    0 -0.11660709339E+01  0.47679629876E+01  0.13996009808E+04  0.13996453118E+04  0.10000000000E+02 0.  1.
</event>
<event>
 5    1  0.1129619E-008  0.3839465E+03  0.7957747E-01  0.3434153E+00
         13   -1    0    0    0    0  0.00000000000E+00  0.00000000000E+00  0.14999999963E+04  0.15000000000E+04  0.10566000000E+00 0.  1.
        994   -1    0    0    0    0 -0.00000000000E+00 -0.00000000000E+00  0.11368683772E-12  0.17120000000E+03  0.17120000000E+03 0.  0.
         13    1    1    2    0    0 -0.13436976837E+02  0.11190269889E+02  0.68911818674E+02  0.71095881763E+02  0.10566000000E+00 0.  1.
        994    1    1    2    0    0  0.75131601162E+01 -0.15091121411E+02  0.30924717681E+01  0.17205578427E+03  0.17120000000E+03 0.  0.
        998    1    1    2    0    0  0.59238167209E+01  0.39008515215E+01  0.14279957058E+04  0.14280483340E+04  0.10000000000E+02 0.  1.
</event>
<event>
 5    1  0.1129619E-008  0.3713945E+03  0.7957747E-01  0.3489507E+00
         13   -1    0    0    0    0  0.00000000000E+00  0.00000000000E+00  0.14999999963E+04  0.15000000000E+04  0.10566000000E+00 0. -1.
        994   -1    0    0    0    0 -0.00000000000E+00 -0.00000000000E+00  0.11368683772E-12  0.17120000000E+03  0.17120000000E+03 0.  0.
         13    1    1    2    0    0 -0.68543418025E+02 -0.18489037026E+02  0.26922116696E+03  0.27842430308E+03  0.10566000000E+00 0. -1.
        994    1    1    2    0    0  0.54699274395E+02  0.48996962592E+01  0.18992872916E+02  0.18079321576E+03  0.17120000000E+03 0.  0.
        998    1    1    2    0    0  0.13844143630E+02  0.13589340767E+02  0.12117859564E+04  0.12119824812E+04  0.10000000000E+02 0. -1.
</event>
<event>
 5    1  0.1129619E-008  0.3817399E+03  0.7957747E-01  0.3443617E+00
         13   -1    0    0    0    0  0.00000000000E+00  0.00000000000E+00  0.14999999963E+04  0.15000000000E+04  0.10566000000E+00 0. -1.
        994   -1    0    0    0    0 -0.00000000000E+00 -0.00000000000E+00  0.11368683772E-12  0.17120000000E+03  0.17120000000E+03 0.  0.
         13    1    1    2    0    0  0.31957584581E+02  0.18216029568E+02  0.31493883895E+02  0.48425064092E+02  0.10566000000E+00 0. -1.
        994    1    1    2    0    0 -0.37921510334E+02 -0.10655827766E+02  0.22965697619E+02  0.17716786074E+03  0.17120000000E+03 0.  0.
        998    1    1    2    0    0  0.59639257523E+01 -0.75602018026E+01  0.14455404148E+04  0.14456070752E+04  0.10000000000E+02 0. -1.
</event>
<event>
 5    1  0.1129619E-008  0.3806140E+03  0.7957747E-01  0.3448490E+00
         13   -1    0    0    0    0  0.00000000000E+00  0.00000000000E+00  0.14999999963E+04  0.15000000000E+04  0.10566000000E+00 0.  1.
        994   -1    0    0    0    0 -0.00000000000E+00 -0.00000000000E+00  0.11368683772E-12  0.17120000000E+03  0.17120000000E+03 0.  0.
         13    1    1    2    0    0 -0.10402896966E+01 -0.10321669423E+02  0.12795273150E+02  0.16472681668E+02  0.10566000000E+00 0.  1.
        994    1    1    2    0    0 -0.56270263229E+01 -0.42762487635E+01  0.39902064864E+01  0.17139227368E+03  0.17120000000E+03 0.  0.
        998    1    1    2    0    0  0.66673160194E+01  0.14597918187E+02  0.14832145166E+04  0.14833350447E+04  0.10000000000E+02 0.  1.
</event>
<event>
 5    1  0.1129619E-008  0.3814230E+03  0.7957747E-01  0.3444986E+00
         13   -1    0    0    0    0  0.00000000000E+00  0.00000000000E+00  0.14999999963E+04  0.15000000000E+04  0.10566000000E+00 0.  1.
        994   -1    0    0    0    0 -0.00000000000E+00 -0.00000000000E+00  0.11368683772E-12  0.17120000000E+03  0.17120000000E+03 0.  0.
         13    1    1    2    0    0 -0.48200573166E+01 -0.12216892975E+02  0.23011586884E+02  0.26495843475E+02  0.10566000000E+00 0.  1.
        994    1    1    2    0    0 -0.55238139240E+01  0.25468511815E+02  0.56795406869E+01  0.17326527291E+03  0.17120000000E+03 0.  0.
        998    1    1    2    0    0  0.10343871241E+02 -0.13251618840E+02  0.14713088687E+04  0.14714388836E+04  0.10000000000E+02 0.  1.
</event>
<event>
 5    1  0.1129619E-008  0.3858510E+03  0.7957747E-01  0.3426071E+00
         13   -1    0    0    0    0  0.00000000000E+00  0.00000000000E+00  0.14999999963E+04  0.15000000000E+04  0.10566000000E+00 0. -1.
        994   -1    0    0    0    0 -0.00000000000E+00 -0.00000000000E+00  0.11368683772E-12  0.17120000000E+03  0.17120000000E+03 0.  0.
         13    1    1    2    0    0 -0.81686842476E+01 -0.58733889926E+01  0.43182883645E+02  0.44339561393E+02  0.10566000000E+00 0. -1.
        994    1    1    2    0    0  0.77383192708E+01 -0.51918338441E+01  0.14930836161E+01  0.17145992541E+03  0.17120000000E+03 0.  0.
        998    1    1    2    0    0  0.43036497679E+00  0.11065222837E+02  0.14553240290E+04  0.14554005132E+04  0.10000000000E+02 0. -1.
</event>
<event>
 5    1  0.1129619E-008  0.3857049E+03  0.7957747E-01  0.3426688E+00
         13   -1    0    0    0    0  0.00000000000E+00  0.00000000000E+00  0.14999999963E+04  0.15000000000E+04  0.10566000000E+00 0. -1.
        994   -1    0    0    0    0 -0.00000000000E+00 -0.00000000000E+00  0.11368683772E-12  0.17120000000E+03  0.17120000000E+03 0.  0.
         13    1    1    2    0    0  0.14832367998E+02 -0.11397789901E+01  0.86223026218E+02  0.87496969381E+02  0.10566000000E+00 0. -1.
        994    1    1    2    0    0 -0.10351331700E+02  0.76404528749E+01  0.18238628764E+01  0.17169243741E+03  0.17120000000E+03 0.  0.
        998    1    1    2    0    0 -0.44810362972E+01 -0.65006738848E+01  0.14119531072E+04  0.14120105932E+04  0.10000000000E+02 0. -1.
</event>
<event>
 5    1  0.1129619E-008  0.3851546E+03  0.7957747E-01  0.3429017E+00
         13   -1    0    0    0    0  0.00000000000E+00  0.00000000000E+00  0.14999999963E+04  0.15000000000E+04  0.10566000000E+00 0.  1.
        994   -1    0    0    0    0 -0.00000000000E+00 -0.00000000000E+00  0.11368683772E-12  0.17120000000E+03  0.17120000000E+03 0.  0.
         13    1    1    2    0    0 -0.11029372447E+02  0.10998869431E+02  0.75494416911E+02  0.77084630985E+02  0.10566000000E+00 0.  1.
        994    1    1    2    0    0 -0.95519946129E+00 -0.23226447502E+02  0.33316454809E+01  0.17280312535E+03  0.17120000000E+03 0.  0.
        998    1    1    2    0    0  0.11984571908E+02  0.12227578071E+02  0.14211739339E+04  0.14213122437E+04  0.10000000000E+02 0.  1.
</event>
<event>
 5    1  0.1129619E-008  0.3693042E+03  0.7957747E-01  0.3499095E+00
         13   -1    0    0    0    0  0.00000000000E+00  0.00000000000E+00  0.14999999963E+04  0.15000000000E+04  0.10566000000E+00 0. -1.
        994   -1    0    0    0    0 -0.00000000000E+00 -0.00000000000E+00  0.11368683772E-12  0.17120000000E+03  0.17120000000E+03 0.  0.
         13    1    1    2    0    0  0.32374680776E+02 -0.29568659686E+02  0.10727080638E+03  0.11588555845E+03  0.10566000000E+00 0. -1.
        994    1    1    2    0    0  0.80051849423E+01  0.80306852178E+01  0.10078958329E+02  0.17187088262E+03  0.17120000000E+03 0.  0.
        998    1    1    2    0    0 -0.40379865718E+02  0.21537974468E+02  0.13826502316E+04  0.13834435589E+04  0.10000000000E+02 0. -1.
</event>
<event>
 5    1  0.1129619E-008  0.3707479E+03  0.7957747E-01  0.3492461E+00
         13   -1    0    0    0    0  0.00000000000E+00  0.00000000000E+00  0.14999999963E+04  0.15000000000E+04  0.10566000000E+00 0.  1.
        994   -1    0    0    0    0 -0.00000000000E+00 -0.00000000000E+00  0.11368683772E-12  0.17120000000E+03  0.17120000000E+03 0.  0.
         13    1    1    2    0    0 -0.15798173056E+01 -0.19323902053E+02  0.17496060494E+02  0.26115748317E+02  0.10566000000E+00 0.  1.
        994    1    1    2    0    0 -0.90402832439E+00  0.10071529681E+02  0.92314184730E+01  0.17174665081E+03  0.17120000000E+03 0.  0.
        998    1    1    2    0    0  0.24838456299E+01  0.92523723724E+01  0.14732725173E+04  0.14733376009E+04  0.10000000000E+02 0.  1.
</event>
<event>
 5    1  0.1129619E-008  0.3811310E+03  0.7957747E-01  0.3446249E+00
         13   -1    0    0    0    0  0.00000000000E+00  0.00000000000E+00  0.14999999963E+04  0.15000000000E+04  0.10566000000E+00 0. -1.
        994   -1    0    0    0    0 -0.00000000000E+00 -0.00000000000E+00  0.11368683772E-12  0.17120000000E+03  0.17120000000E+03 0.  0.
         13    1    1    2    0    0 -0.93613854065E+01 -0.44972278688E+01  0.13554710794E+02  0.17076356285E+02  0.10566000000E+00 0. -1.
        994    1    1    2    0    0  0.79989534056E+01  0.48224512823E+01  0.38539347818E+01  0.17149790700E+03  0.17120000000E+03 0.  0.
        998    1    1    2    0    0  0.13624320009E+01 -0.32522341352E+00  0.14825913507E+04  0.14826257367E+04  0.10000000000E+02 0. -1.
</event>
<event>
 5    1  0.1129619E-008  0.3758034E+03  0.7957747E-01  0.3469637E+00
         13   -1    0    0    0    0  0.00000000000E+00  0.00000000000E+00  0.14999999963E+04  0.15000000000E+04  0.10566000000E+00 0. -1.
        994   -1    0    0    0    0 -0.00000000000E+00 -0.00000000000E+00  0.11368683772E-12  0.17120000000E+03  0.17120000000E+03 0.  0.
         13    1    1    2    0    0  0.46326240176E+02  0.96903378932E+01  0.16727209367E+03  0.17383897049E+03  0.10566000000E+00 0. -1.
        994    1    1    2    0    0 -0.36584626885E+02 -0.81521654740E+01  0.11044193677E+02  0.17560269628E+03  0.17120000000E+03 0.  0.
        998    1    1    2    0    0 -0.97416132908E+01 -0.15381724191E+01  0.13216837089E+04  0.13217583332E+04  0.10000000000E+02 0. -1.
</event>
<event>
 5    1  0.1129619E-008  0.3838269E+03  0.7957747E-01  0.3434663E+00
         13   -1    0    0    0    0  0.00000000000E+00  0.00000000000E+00  0.14999999963E+04  0.15000000000E+04  0.10566000000E+00 0.  1.
        994   -1    0    0    0    0 -0.00000000000E+00 -0.00000000000E+00  0.11368683772E-12  0.17120000000E+03  0.17120000000E+03 0.  0.
         13    1    1    2    0    0  0.91548016096E+01 -0.60102864171E+01  0.26091126261E+02  0.28296501002E+02  0.10566000000E+00 0.  1.
        994    1    1    2    0    0 -0.11585220499E+02  0.21755574655E+01  0.26725025973E+01  0.17162614211E+03  0.17120000000E+03 0.  0.
        998    1    1    2    0    0  0.24304188895E+01  0.38347289516E+01  0.14712363674E+04  0.14712773569E+04  0.10000000000E+02 0.  1.
</event>
<event>
 5    1  0.1129619E-008  0.3760053E+03  0.7957747E-01  0.3468739E+00
         13   -1    0    0    0    0  0.00000000000E+00  0.00000000000E+00  0.14999999963E+04  0.15000000000E+04  0.10566000000E+00 0. -1.
        994   -1    0    0    0    0 -0.00000000000E+00 -0.00000000000E+00  0.11368683772E-12  0.17120000000E+03  0.17120000000E+03 0.  0.
         13    1    1    2    0    0 -0.19182236315E+02 -0.91186188477E+01  0.33246392194E+02  0.39451757346E+02  0.10566000000E+00 0. -1.
        994    1    1    2    0    0  0.25266553666E+02  0.10372844739E+01  0.83327685907E+01  0.17325804375E+03  0.17120000000E+03 0.  0.
        998    1    1    2    0    0 -0.60843173510E+01  0.80813343738E+01  0.14584208355E+04  0.14584901989E+04  0.10000000000E+02 0. -1.
</event>
<event>
 5    1  0.1129619E-008  0.3836608E+03  0.7957747E-01  0.3435372E+00
         13   -1    0    0    0    0  0.00000000000E+00  0.00000000000E+00  0.14999999963E+04  0.15000000000E+04  0.10566000000E+00 0.  1.
        994   -1    0    0    0    0 -0.00000000000E+00 -0.00000000000E+00  0.11368683772E-12  0.17120000000E+03  0.17120000000E+03 0.  0.
         13    1    1    2    0    0 -0.25787587428E+02  0.28274675286E+01  0.15191217620E+03  0.15411137103E+03  0.10566000000E+00 0.  1.
        994    1    1    2    0    0  0.10162919084E+02 -0.75870418392E+01  0.28279234550E+01  0.17169241474E+03  0.17120000000E+03 0.  0.
        998    1    1    2    0    0  0.15624668345E+02  0.47595743107E+01  0.13452598966E+04  0.13453962142E+04  0.10000000000E+02 0.  1.
</event>
<event>
 5    1  0.1129619E-008  0.3807386E+03  0.7957747E-01  0.3447949E+00
         13   -1    0    0    0    0  0.00000000000E+00  0.00000000000E+00  0.14999999963E+04  0.15000000000E+04  0.10566000000E+00 0. -1.
        994   -1    0    0    0    0 -0.00000000000E+00 -0.00000000000E+00  0.11368683772E-12  0.17120000000E+03  0.17120000000E+03 0.  0.
         13    1    1    2    0    0 -0.87832357729E+01 -0.87625951374E+01  0.19000159835E+02  0.22692411551E+02  0.10566000000E+00 0. -1.
        994    1    1    2    0    0  0.10469999664E+02 -0.65318148191E+00  0.41278429653E+01  0.17157076274E+03  0.17120000000E+03 0.  0.
        998    1    1    2    0    0 -0.16867638911E+01  0.94157766193E+01  0.14768719935E+04  0.14769368257E+04  0.10000000000E+02 0. -1.
</event>
<event>
 5    1  0.1129619E-008  0.3843070E+03  0.7957747E-01  0.3432617E+00
         13   -1    0    0    0    0  0.00000000000E+00  0.00000000000E+00  0.14999999963E+04  0.15000000000E+04  0.10566000000E+00 0. -1.
        994   -1    0    0    0    0 -0.00000000000E+00 -0.00000000000E+00  0.11368683772E-12  0.17120000000E+03  0.17120000000E+03 0.  0.
         13    1    1    2    0    0 -0.13183037245E+02 -0.13091524215E+00  0.45294486196E+02  0.47174264738E+02  0.10566000000E+00 0. -1.
        994    1    1    2    0    0  0.11638035320E+01  0.97414265787E+01  0.22919119180E+01  0.17149618856E+03  0.17120000000E+03 0.  0.
        998    1    1    2    0    0  0.12019233713E+02 -0.96105113366E+01  0.14524135982E+04  0.14525295467E+04  0.10000000000E+02 0. -1.
</event>
<event>
 5    1  0.1129619E-008  0.3799681E+03  0.7957747E-01  0.3451297E+00
         13   -1    0    0    0    0  0.00000000000E+00  0.00000000000E+00  0.14999999963E+04  0.15000000000E+04  0.10566000000E+00 0.  1.
        994   -1    0    0    0    0 -0.00000000000E+00 -0.00000000000E+00  0.11368683772E-12  0.17120000000E+03  0.17120000000E+03 0.  0.
         13    1    1    2    0    0 -0.65283265650E+01  0.26287131889E+02  0.84611872730E+02  0.88841502247E+02  0.10566000000E+00 0.  1.
        994    1    1    2    0    0  0.18239423804E+02 -0.18765547837E+02  0.64421480521E+01  0.17330829074E+03  0.17120000000E+03 0.  0.
        998    1    1    2    0    0 -0.11711097239E+02 -0.75215840526E+01  0.14089459755E+04  0.14090502070E+04  0.10000000000E+02 0.  1.
</event>
<event>
 5    1  0.1357766E-008  0.3857052E+03  0.7957747E-01  0.3426687E+00
         13   -1    0    0    0    0  0.00000000000E+00  0.00000000000E+00  0.14999999963E+04  0.15000000000E+04  0.10566000000E+00 0.  1.
        994   -1    0    0    0    0 -0.00000000000E+00 -0.00000000000E+00  0.11368683772E-12  0.17120000000E+03  0.17120000000E+03 0.  0.
         13    1    1    2    0    0 -0.88385763931E+01  0.59148169931E+01  0.43956250528E+02  0.45224646126E+02  0.10566000000E+00 0.  1.
        994    1    1    2    0    0  0.82517673985E+01 -0.40568047876E+01  0.15579046453E+01  0.17145383168E+03  0.17120000000E+03 0.  0.
        998    1    1    2    0    0  0.58680899453E+00 -0.18580122056E+01  0.14544858411E+04  0.14545215222E+04  0.10000000000E+02 0.  1.
</event>
<event>
 5    1  0.1129619E-008  0.3721978E+03  0.7957747E-01  0.3485851E+00
         13   -1    0    0    0    0  0.00000000000E+00  0.00000000000E+00  0.14999999963E+04  0.15000000000E+04  0.10566000000E+00 0.  1.
        994   -1    0    0    0    0 -0.00000000000E+00 -0.00000000000E+00  0.11368683772E-12  0.17120000000E+03  0.17120000000E+03 0.  0.
         13    1    1    2    0    0 -0.51359016747E+02 -0.49553863057E+02  0.24533560873E+03  0.25550519764E+03  0.10566000000E+00 0.  1.
        994    1    1    2    0    0  0.72367873872E+02  0.41466710406E+02  0.32388882983E+02  0.19317110804E+03  0.17120000000E+03 0.  0.
        998    1    1    2    0    0 -0.21008857126E+02  0.80871526502E+01  0.12222755046E+04  0.12225236943E+04  0.10000000000E+02 0. -1.
</event>
<event>
 5    1  0.1129619E-008  0.3851510E+03  0.7957747E-01  0.3429032E+00
         13   -1    0    0    0    0  0.00000000000E+00  0.00000000000E+00  0.14999999963E+04  0.15000000000E+04  0.10566000000E+00 0. -1.
        994   -1    0    0    0    0 -0.00000000000E+00 -0.00000000000E+00  0.11368683772E-12  0.17120000000E+03  0.17120000000E+03 0.  0.
         13    1    1    2    0    0 -0.16036558701E+02  0.73069825135E+01  0.98148627931E+02  0.99718240745E+02  0.10566000000E+00 0. -1.
        994    1    1    2    0    0  0.13018386799E+02 -0.43713987372E+01  0.21753372867E+01  0.17176367373E+03  0.17120000000E+03 0.  0.
        998    1    1    2    0    0  0.30181719021E+01 -0.29355837763E+01  0.13996760311E+04  0.13997180855E+04  0.10000000000E+02 0. -1.
</event>
<event>
 5    1  0.1129619E-008  0.3484704E+03  0.7957747E-01  0.3601093E+00
         13   -1    0    0    0    0  0.00000000000E+00  0.00000000000E+00  0.14999999963E+04  0.15000000000E+04  0.10566000000E+00 0.  1.
        994   -1    0    0    0    0 -0.00000000000E+00 -0.00000000000E+00  0.11368683772E-12  0.17120000000E+03  0.17120000000E+03 0.  0.
         13    1    1    2    0    0 -0.15494687502E+03  0.13646027136E+03  0.10551470280E+04  0.10751582216E+04  0.10566000000E+00 0.  1.
        994    1    1    2    0    0  0.13910362678E+03 -0.10180606724E+03  0.12396974401E+03  0.27274939366E+03  0.17120000000E+03 0.  0.
        998    1    1    2    0    0  0.15843248236E+02 -0.34654204123E+02  0.32088322428E+03  0.32329238470E+03  0.10000000000E+02 0.  1.
</event>
<event>
 5    1  0.1129619E-008  0.4012502E+03  0.7957747E-01  0.3363548E+00
         13   -1    0    0    0    0  0.00000000000E+00  0.00000000000E+00  0.14999999963E+04  0.15000000000E+04  0.10566000000E+00 0. -1.
        994   -1    0    0    0    0 -0.00000000000E+00 -0.00000000000E+00  0.11368683772E-12  0.17120000000E+03  0.17120000000E+03 0.  0.
         13    1    1    2    0    0 -0.12231236732E+03 -0.36803515520E+02  0.23589224668E+03  0.26825356878E+03  0.10566000000E+00 0. -1.
        994    1    1    2    0    0  0.11180281264E+03  0.50543570902E+02  0.90629702914E+02  0.22929828722E+03  0.17120000000E+03 0.  0.
        998    1    1    2    0    0  0.10509554684E+02 -0.13740055382E+02  0.11734780467E+04  0.11736481440E+04  0.10000000000E+02 0.  0.
</event>
<event>
 5    1  0.1129619E-008  0.3689963E+03  0.7957747E-01  0.3500516E+00
         13   -1    0    0    0    0  0.00000000000E+00  0.00000000000E+00  0.14999999963E+04  0.15000000000E+04  0.10566000000E+00 0.  1.
        994   -1    0    0    0    0 -0.00000000000E+00 -0.00000000000E+00  0.11368683772E-12  0.17120000000E+03  0.17120000000E+03 0.  0.
         13    1    1    2    0    0  0.19751302164E+02 -0.26874009109E+02  0.50976567463E+02  0.60917549992E+02  0.10566000000E+00 0.  1.
        994    1    1    2    0    0  0.11360365740E+02  0.22465179889E+02  0.12620001327E+02  0.17350056672E+03  0.17120000000E+03 0.  0.
        998    1    1    2    0    0 -0.31111667904E+02  0.44088292199E+01  0.14364034275E+04  0.14367818833E+04  0.10000000000E+02 0.  1.
</event>
<event>
 5    1  0.1129619E-008  0.3761750E+03  0.7957747E-01  0.3467984E+00
         13   -1    0    0    0    0  0.00000000000E+00  0.00000000000E+00  0.14999999963E+04  0.15000000000E+04  0.10566000000E+00 0. -1.
        994   -1    0    0    0    0 -0.00000000000E+00 -0.00000000000E+00  0.11368683772E-12  0.17120000000E+03  0.17120000000E+03 0.  0.
         13    1    1    2    0    0 -0.93377810466E+01 -0.42886876767E+02  0.14374158155E+03  0.15029348550E+03  0.10566000000E+00 0. -1.
        994    1    1    2    0    0 -0.11212677172E+02  0.45993893567E+02  0.13702651121E+02  0.17815264529E+03  0.17120000000E+03 0.  0.
        998    1    1    2    0    0  0.20550458218E+02 -0.31070168002E+01  0.13425557636E+04  0.13427538692E+04  0.10000000000E+02 0. -1.
</event>
<event>
 5    1  0.1129619E-008  0.3774951E+03  0.7957747E-01  0.3462138E+00
         13   -1    0    0    0    0  0.00000000000E+00  0.00000000000E+00  0.14999999963E+04  0.15000000000E+04  0.10566000000E+00 0.  1.
        994   -1    0    0    0    0 -0.00000000000E+00 -0.00000000000E+00  0.11368683772E-12  0.17120000000E+03  0.17120000000E+03 0.  0.
         13    1    1    2    0    0 -0.13286889740E+01  0.10430668433E+03  0.47896270625E+03  0.49019071284E+03  0.10566000000E+00 0.  1.
        994    1    1    2    0    0  0.74675836183E+02 -0.14470421124E+03  0.10073565308E+03  0.25685190492E+03  0.17120000000E+03 0.  0.
        998    1    1    2    0    0 -0.73347147209E+02  0.40397526912E+02  0.92030163695E+03  0.92415738224E+03  0.10000000000E+02 0.  1.
</event>
<event>
 5    1  0.1129619E-008  0.3742305E+03  0.7957747E-01  0.3476671E+00
         13   -1    0    0    0    0  0.00000000000E+00  0.00000000000E+00  0.14999999963E+04  0.15000000000E+04  0.10566000000E+00 0. -1.
        994   -1    0    0    0    0 -0.00000000000E+00 -0.00000000000E+00  0.11368683772E-12  0.17120000000E+03  0.17120000000E+03 0.  0.
         13    1    1    2    0    0  0.77661030415E+02 -0.22498223495E+02  0.35801075014E+03  0.36702740237E+03  0.10566000000E+00 0. -1.
        994    1    1    2    0    0 -0.75554516479E+02  0.18520161784E+02  0.27986868639E+02  0.19011624383E+03  0.17120000000E+03 0.  0.
        998    1    1    2    0    0 -0.21065139364E+01  0.39780617113E+01  0.11140023775E+04  0.11140563538E+04  0.10000000000E+02 0.  0.
</event>
<event>
 5    1  0.1129619E-008  0.3703671E+03  0.7957747E-01  0.3494205E+00
         13   -1    0    0    0    0  0.00000000000E+00  0.00000000000E+00  0.14999999963E+04  0.15000000000E+04  0.10566000000E+00 0.  1.
        994   -1    0    0    0    0 -0.00000000000E+00 -0.00000000000E+00  0.11368683772E-12  0.17120000000E+03  0.17120000000E+03 0.  0.
         13    1    1    2    0    0 -0.26673397603E+01 -0.21577069208E+02  0.20362820738E+02  0.29788256906E+02  0.10566000000E+00 0.  1.
        994    1    1    2    0    0 -0.24162765158E+02  0.52888332612E+02  0.20844998125E+02  0.18200266178E+03  0.17120000000E+03 0.  0.
        998    1    1    2    0    0  0.26830104919E+02 -0.31311263404E+02  0.14587921774E+04  0.14594090813E+04  0.10000000000E+02 0.  1.
</event>
<event>
 5    1  0.1129619E-008  0.3824179E+03  0.7957747E-01  0.3440697E+00
         13   -1    0    0    0    0  0.00000000000E+00  0.00000000000E+00  0.14999999963E+04  0.15000000000E+04  0.10566000000E+00 0.  1.
        994   -1    0    0    0    0 -0.00000000000E+00 -0.00000000000E+00  0.11368683772E-12  0.17120000000E+03  0.17120000000E+03 0.  0.
         13    1    1    2    0    0  0.31578148742E+01  0.14334954272E+02  0.35984632757E+02  0.38863448991E+02  0.10566000000E+00 0.  1.
        994    1    1    2    0    0 -0.28033580419E+01 -0.89933976802E+01  0.32119045902E+01  0.17148905606E+03  0.17120000000E+03 0.  0.
        998    1    1    2    0    0 -0.35445683232E+00 -0.53415565914E+01  0.14608034589E+04  0.14608474949E+04  0.10000000000E+02 0.  1.
</event>
<event>
 5    1  0.1129619E-008  0.3998146E+03  0.7957747E-01  0.3369173E+00
         13   -1    0    0    0    0  0.00000000000E+00  0.00000000000E+00  0.14999999963E+04  0.15000000000E+04  0.10566000000E+00 0. -1.
        994   -1    0    0    0    0 -0.00000000000E+00 -0.00000000000E+00  0.11368683772E-12  0.17120000000E+03  0.17120000000E+03 0.  0.
         13    1    1    2    0    0  0.63414463688E+01 -0.11043968023E+03  0.26429089805E+03  0.28650798744E+03  0.10566000000E+00 0. -1.
        994    1    1    2    0    0  0.22816154188E+01  0.20697473307E+02  0.29366681984E+02  0.17494408587E+03  0.17120000000E+03 0.  0.
        998    1    1    2    0    0 -0.86230617875E+01  0.89742206921E+02  0.12063424162E+04  0.12097479267E+04  0.10000000000E+02 0.  1.
</event>
<event>
 5    1  0.1129619E-008  0.3851423E+03  0.7957747E-01  0.3429069E+00
         13   -1    0    0    0    0  0.00000000000E+00  0.00000000000E+00  0.14999999963E+04  0.15000000000E+04  0.10566000000E+00 0. -1.
        994   -1    0    0    0    0 -0.00000000000E+00 -0.00000000000E+00  0.11368683772E-12  0.17120000000E+03  0.17120000000E+03 0.  0.
         13    1    1    2    0    0 -0.19719899752E+02  0.29546168646E+01  0.11971606287E+03  0.12136536194E+03  0.10566000000E+00 0. -1.
        994    1    1    2    0    0  0.20677791955E+02  0.33277794617E+01  0.30027276342E+01  0.17250246830E+03  0.17120000000E+03 0.  0.
        998    1    1    2    0    0 -0.95789220287E+00 -0.62823963263E+01  0.13772812058E+04  0.13773321698E+04  0.10000000000E+02 0. -1.
</event>
<event>
 5    1  0.1129619E-008  0.3855253E+03  0.7957747E-01  0.3427447E+00
         13   -1    0    0    0    0  0.00000000000E+00  0.00000000000E+00  0.14999999963E+04  0.15000000000E+04  0.10566000000E+00 0. -1.
        994   -1    0    0    0    0 -0.00000000000E+00 -0.00000000000E+00  0.11368683772E-12  0.17120000000E+03  0.17120000000E+03 0.  0.
         13    1    1    2    0    0  0.68905179508E+02 -0.61069440036E+02  0.21311994980E+03  0.23215840376E+03  0.10566000000E+00 0. -1.
        994    1    1    2    0    0 -0.32390895969E+02  0.50006582006E+02  0.32645943334E+02  0.18418747515E+03  0.17120000000E+03 0.  0.
        998    1    1    2    0    0 -0.36514283539E+02  0.11062858031E+02  0.12542341031E+04  0.12548541211E+04  0.10000000000E+02 0. -1.
</event>
<event>
 5    1  0.1129619E-008  0.3772068E+03  0.7957747E-01  0.3463411E+00
         13   -1    0    0    0    0  0.00000000000E+00  0.00000000000E+00  0.14999999963E+04  0.15000000000E+04  0.10566000000E+00 0. -1.
        994   -1    0    0    0    0 -0.00000000000E+00 -0.00000000000E+00  0.11368683772E-12  0.17120000000E+03  0.17120000000E+03 0.  0.
         13    1    1    2    0    0  0.92220997609E+01  0.10482477815E+03  0.45844198017E+03  0.47036405219E+03  0.10566000000E+00 0. -1.
        994    1    1    2    0    0  0.80753148900E+01 -0.14270834621E+03  0.77918066441E+02  0.23624467797E+03  0.17120000000E+03 0.  0.
        998    1    1    2    0    0 -0.17297414651E+02  0.37883568060E+02  0.96363994966E+03  0.96459126985E+03  0.10000000000E+02 0. -1.
</event>
<event>
 5    1  0.1129619E-008  0.3781705E+03  0.7957747E-01  0.3459164E+00
         13   -1    0    0    0    0  0.00000000000E+00  0.00000000000E+00  0.14999999963E+04  0.15000000000E+04  0.10566000000E+00 0.  1.
        994   -1    0    0    0    0 -0.00000000000E+00 -0.00000000000E+00  0.11368683772E-12  0.17120000000E+03  0.17120000000E+03 0.  0.
         13    1    1    2    0    0  0.32582761726E+02 -0.11899738917E+00  0.95076544832E+02  0.10050478130E+03  0.10566000000E+00 0.  1.
        994    1    1    2    0    0 -0.37662618305E+02 -0.89482576103E+01  0.10116109738E+02  0.17581330953E+03  0.17120000000E+03 0.  0.
        998    1    1    2    0    0  0.50798565792E+01  0.90672549995E+01  0.13948073417E+04  0.13948819092E+04  0.10000000000E+02 0.  1.
</event>
<event>
 5    1  0.1129619E-008  0.3980813E+03  0.7957747E-01  0.3376019E+00
         13   -1    0    0    0    0  0.00000000000E+00  0.00000000000E+00  0.14999999963E+04  0.15000000000E+04  0.10566000000E+00 0. -1.
        994   -1    0    0    0    0 -0.00000000000E+00 -0.00000000000E+00  0.11368683772E-12  0.17120000000E+03  0.17120000000E+03 0.  0.
         13    1    1    2    0    0  0.58163910965E+02  0.93903701444E+02  0.20386586128E+03  0.23186687181E+03  0.10566000000E+00 0. -1.
        994    1    1    2    0    0 -0.47019420175E+02 -0.80992613797E+02  0.61588878467E+02  0.20462956608E+03  0.17120000000E+03 0.  0.
        998    1    1    2    0    0 -0.11144490790E+02 -0.12911087647E+02  0.12345452565E+04  0.12347035621E+04  0.10000000000E+02 0. -1.
</event>
<event>
 5    1  0.1129619E-008  0.3819875E+03  0.7957747E-01  0.3442550E+00
         13   -1    0    0    0    0  0.00000000000E+00  0.00000000000E+00  0.14999999963E+04  0.15000000000E+04  0.10566000000E+00 0.  1.
        994   -1    0    0    0    0 -0.00000000000E+00 -0.00000000000E+00  0.11368683772E-12  0.17120000000E+03  0.17120000000E+03 0.  0.
         13    1    1    2    0    0 -0.57624928685E+01 -0.90435460380E+01  0.17090633794E+02  0.20176545208E+02  0.10566000000E+00 0.  1.
        994    1    1    2    0    0  0.13980131975E+01  0.79237965702E+01  0.33482399789E+01  0.17142167805E+03  0.17120000000E+03 0.  0.
        998    1    1    2    0    0  0.43644796710E+01  0.11197494678E+01  0.14795611225E+04  0.14796017767E+04  0.10000000000E+02 0.  1.
</event>
<event>
 5    1  0.1129619E-008  0.3817723E+03  0.7957747E-01  0.3443478E+00
         13   -1    0    0    0    0  0.00000000000E+00  0.00000000000E+00  0.14999999963E+04  0.15000000000E+04  0.10566000000E+00 0.  1.
        994   -1    0    0    0    0 -0.00000000000E+00 -0.00000000000E+00  0.11368683772E-12  0.17120000000E+03  0.17120000000E+03 0.  0.
         13    1    1    2    0    0  0.12363214207E+02 -0.25198300147E+02  0.11911079048E+03  0.12237317913E+03  0.10566000000E+00 0.  1.
        994    1    1    2    0    0 -0.10068208208E+02  0.15947948284E+02  0.44242456468E+01  0.17229254140E+03  0.17120000000E+03 0.  0.
        998    1    1    2    0    0 -0.22950059993E+01  0.92503518628E+01  0.13764649601E+04  0.13765342795E+04  0.10000000000E+02 0.  1.
</event>
<event>
 5    1  0.1129619E-008  0.3814286E+03  0.7957747E-01  0.3444961E+00
         13   -1    0    0    0    0  0.00000000000E+00  0.00000000000E+00  0.14999999963E+04  0.15000000000E+04  0.10566000000E+00 0.  1.
        994   -1    0    0    0    0 -0.00000000000E+00 -0.00000000000E+00  0.11368683772E-12  0.17120000000E+03  0.17120000000E+03 0.  0.
         13    1    1    2    0    0  0.16561025282E+02  0.10104636703E+02  0.55302894563E+02  0.58607103259E+02  0.10566000000E+00 0.  1.
        994    1    1    2    0    0 -0.46684300739E+01 -0.51972102955E+01  0.35761177783E+01  0.17137979418E+03  0.17120000000E+03 0.  0.
        998    1    1    2    0    0 -0.11892595208E+02 -0.49074264079E+01  0.14411209839E+04  0.14412131026E+04  0.10000000000E+02 0.  1.
</event>
<event>
 5    1  0.1129619E-008  0.3801617E+03  0.7957747E-01  0.3450455E+00
         13   -1    0    0    0    0  0.00000000000E+00  0.00000000000E+00  0.14999999963E+04  0.15000000000E+04  0.10566000000E+00 0.  1.
        994   -1    0    0    0    0 -0.00000000000E+00 -0.00000000000E+00  0.11368683772E-12  0.17120000000E+03  0.17120000000E+03 0.  0.
         13    1    1    2    0    0 -0.95943487282E+02  0.10429828851E+03  0.85220621399E+03  0.86390898136E+03  0.10566000000E+00 0.  1.
        994    1    1    2    0    0  0.10092019812E+03 -0.10734603521E+03  0.80361192281E+02  0.23974031552E+03  0.17120000000E+03 0.  0.
        998    1    1    2    0    0 -0.49767108362E+01  0.30477466938E+01  0.56743259001E+03  0.56755070312E+03  0.10000000000E+02 0.  0.
</event>
<event>
 5    1  0.1129619E-008  0.3772304E+03  0.7957747E-01  0.3463308E+00
         13   -1    0    0    0    0  0.00000000000E+00  0.00000000000E+00  0.14999999963E+04  0.15000000000E+04  0.10566000000E+00 0. -1.
        994   -1    0    0    0    0 -0.00000000000E+00 -0.00000000000E+00  0.11368683772E-12  0.17120000000E+03  0.17120000000E+03 0.  0.
         13    1    1    2    0    0 -0.79935524542E+02 -0.13393849201E+03  0.79759701935E+03  0.81270549657E+03  0.10566000000E+00 0. -1.
        994    1    1    2    0    0  0.89006367459E+02  0.13675251793E+03  0.10138187789E+03  0.25731519538E+03  0.17120000000E+03 0.  0.
        998    1    1    2    0    0 -0.90708429165E+01 -0.28140259232E+01  0.60102109904E+03  0.60117930805E+03  0.10000000000E+02 0. -1.
</event>
<event>
 5    1  0.1129619E-008  0.3844403E+03  0.7957747E-01  0.3432049E+00
         13   -1    0    0    0    0  0.00000000000E+00  0.00000000000E+00  0.14999999963E+04  0.15000000000E+04  0.10566000000E+00 0. -1.
        994   -1    0    0    0    0 -0.00000000000E+00 -0.00000000000E+00  0.11368683772E-12  0.17120000000E+03  0.17120000000E+03 0.  0.
         13    1    1    2    0    0  0.19545269834E+01  0.12853395402E+02  0.42842087111E+02  0.44771481337E+02  0.10566000000E+00 0. -1.
        994    1    1    2    0    0  0.14117908069E+01 -0.14418606862E+02  0.26000760552E+01  0.17183157385E+03  0.17120000000E+03 0.  0.
        998    1    1    2    0    0 -0.33663177903E+01  0.15652114607E+01  0.14545578331E+04  0.14545969448E+04  0.10000000000E+02 0. -1.
</event>
<event>
 5    1  0.1129619E-008  0.3829064E+03  0.7957747E-01  0.3438600E+00
         13   -1    0    0    0    0  0.00000000000E+00  0.00000000000E+00  0.14999999963E+04  0.15000000000E+04  0.10566000000E+00 0. -1.
        994   -1    0    0    0    0 -0.00000000000E+00 -0.00000000000E+00  0.11368683772E-12  0.17120000000E+03  0.17120000000E+03 0.  0.
         13    1    1    2    0    0  0.11856795886E+02  0.30464488059E+01  0.28024972435E+02  0.30582261248E+02  0.10566000000E+00 0. -1.
        994    1    1    2    0    0  0.49013591849E+01 -0.14408701517E+02  0.34404970267E+01  0.17190960131E+03  0.17120000000E+03 0.  0.
        998    1    1    2    0    0 -0.16758155071E+02  0.11362252711E+02  0.14685345268E+04  0.14687081374E+04  0.10000000000E+02 0. -1.
</event>
<event>
 5    1  0.1129619E-008  0.3764763E+03  0.7957747E-01  0.3466646E+00
         13   -1    0    0    0    0  0.00000000000E+00  0.00000000000E+00  0.14999999963E+04  0.15000000000E+04  0.10566000000E+00 0. -1.
        994   -1    0    0    0    0 -0.00000000000E+00 -0.00000000000E+00  0.11368683772E-12  0.17120000000E+03  0.17120000000E+03 0.  0.
         13    1    1    2    0    0  0.12130824541E+02  0.89953748642E+00  0.97927346825E+01  0.15616494111E+02  0.10566000000E+00 0. -1.
        994    1    1    2    0    0 -0.11178595389E+02  0.10845305050E+02  0.67434858022E+01  0.17203922877E+03  0.17120000000E+03 0.  0.
        998    1    1    2    0    0 -0.95222915198E+00 -0.11744842537E+02  0.14834637758E+04  0.14835442771E+04  0.10000000000E+02 0. -1.
</event>
<event>
 5    1  0.1129619E-008  0.3765962E+03  0.7957747E-01  0.3466114E+00
         13   -1    0    0    0    0  0.00000000000E+00  0.00000000000E+00  0.14999999963E+04  0.15000000000E+04  0.10566000000E+00 0. -1.
        994   -1    0    0    0    0 -0.00000000000E+00 -0.00000000000E+00  0.11368683772E-12  0.17120000000E+03  0.17120000000E+03 0.  0.
         13    1    1    2    0    0 -0.10340958737E+03 -0.82617146749E+02  0.70680111038E+03  0.71908758611E+03  0.10566000000E+00 0. -1.
        994    1    1    2    0    0  0.10143866464E+03  0.89688742430E+02  0.70600246468E+02  0.22940729719E+03  0.17120000000E+03 0.  0.
        998    1    1    2    0    0  0.19709227321E+01 -0.70715956811E+01  0.72259863943E+03  0.72270511670E+03  0.10000000000E+02 0. -1.
</event>
<event>
 5    1  0.1129619E-008  0.3841446E+03  0.7957747E-01  0.3433308E+00
         13   -1    0    0    0    0  0.00000000000E+00  0.00000000000E+00  0.14999999963E+04  0.15000000000E+04  0.10566000000E+00 0.  1.
        994   -1    0    0    0    0 -0.00000000000E+00 -0.00000000000E+00  0.11368683772E-12  0.17120000000E+03  0.17120000000E+03 0.  0.
         13    1    1    2    0    0 -0.16905322886E+02 -0.87413169838E+01  0.82569232809E+02  0.84734231189E+02  0.10566000000E+00 0.  1.
        994    1    1    2    0    0  0.18741649546E+02  0.11093541848E+02  0.36212056314E+01  0.17261769674E+03  0.17120000000E+03 0.  0.
        998    1    1    2    0    0 -0.18363266601E+01 -0.23522248643E+01  0.14138095578E+04  0.14138480721E+04  0.10000000000E+02 0.  1.
</event>
<event>
 5    1  0.1129619E-008  0.3854305E+03  0.7957747E-01  0.3427848E+00
         13   -1    0    0    0    0  0.00000000000E+00  0.00000000000E+00  0.14999999963E+04  0.15000000000E+04  0.10566000000E+00 0. -1.
        994   -1    0    0    0    0 -0.00000000000E+00 -0.00000000000E+00  0.11368683772E-12  0.17120000000E+03  0.17120000000E+03 0.  0.
         13    1    1    2    0    0 -0.11485564979E-01  0.12355691309E+02  0.53276851993E+02  0.54690925774E+02  0.10566000000E+00 0. -1.
        994    1    1    2    0    0  0.43437248515E+01 -0.10767628692E+02  0.18593846363E+01  0.17160334229E+03  0.17120000000E+03 0.  0.
        998    1    1    2    0    0 -0.43322392865E+01 -0.15880626170E+01  0.14448637596E+04  0.14449057319E+04  0.10000000000E+02 0. -1.
</event>
<event>
 5    1  0.1129619E-008  0.3747110E+03  0.7957747E-01  0.3474516E+00
         13   -1    0    0    0    0  0.00000000000E+00  0.00000000000E+00  0.14999999963E+04  0.15000000000E+04  0.10566000000E+00 0.  1.
        994   -1    0    0    0    0 -0.00000000000E+00 -0.00000000000E+00  0.11368683772E-12  0.17120000000E+03  0.17120000000E+03 0.  0.
         13    1    1    2    0    0 -0.16159912622E+02 -0.13074966713E+02  0.28405416740E+02  0.35199096504E+02  0.10566000000E+00 0.  1.
        994    1    1    2    0    0  0.16278682424E+02  0.11385095646E+02  0.81710552289E+01  0.17254223265E+03  0.17120000000E+03 0.  0.
        998    1    1    2    0    0 -0.11876980203E+00  0.16898710675E+01  0.14634235243E+04  0.14634586708E+04  0.10000000000E+02 0.  1.
</event>
<event>
 5    1  0.1129619E-008  0.3750743E+03  0.7957747E-01  0.3472890E+00
         13   -1    0    0    0    0  0.00000000000E+00  0.00000000000E+00  0.14999999963E+04  0.15000000000E+04  0.10566000000E+00 0.  1.
        994   -1    0    0    0    0 -0.00000000000E+00 -0.00000000000E+00  0.11368683772E-12  0.17120000000E+03  0.17120000000E+03 0.  0.
         13    1    1    2    0    0 -0.43706263613E+02 -0.18828000546E+03  0.90226620050E+03  0.92273718125E+03  0.10566000000E+00 0.  1.
        994    1    1    2    0    0  0.31477147589E+02  0.19014857805E+03  0.14563632796E+03  0.29608558320E+03  0.17120000000E+03 0.  0.
        998    1    1    2    0    0  0.12229116025E+02 -0.18685725863E+01  0.45209746781E+03  0.45237723555E+03  0.10000000000E+02 0.  1.
</event>
<event>
 5    1  0.1129619E-008  0.3734025E+03  0.7957747E-01  0.3480398E+00
         13   -1    0    0    0    0  0.00000000000E+00  0.00000000000E+00  0.14999999963E+04  0.15000000000E+04  0.10566000000E+00 0. -1.
        994   -1    0    0    0    0 -0.00000000000E+00 -0.00000000000E+00  0.11368683772E-12  0.17120000000E+03  0.17120000000E+03 0.  0.
         13    1    1    2    0    0 -0.11037394040E+02  0.89362492903E+01  0.10063114587E+02  0.17405690385E+02  0.10566000000E+00 0. -1.
        994    1    1    2    0    0  0.19959607488E+02  0.78471027535E+01  0.90749239939E+01  0.17277661068E+03  0.17120000000E+03 0.  0.
        998    1    1    2    0    0 -0.89222134483E+01 -0.16783352044E+02  0.14808619577E+04  0.14810176989E+04  0.10000000000E+02 0. -1.
</event>
<event>
 5    1  0.1129619E-008  0.3830875E+03  0.7957747E-01  0.3437824E+00
         13   -1    0    0    0    0  0.00000000000E+00  0.00000000000E+00  0.14999999963E+04  0.15000000000E+04  0.10566000000E+00 0.  1.
        994   -1    0    0    0    0 -0.00000000000E+00 -0.00000000000E+00  0.11368683772E-12  0.17120000000E+03  0.17120000000E+03 0.  0.
         13    1    1    2    0    0 -0.17094846375E+02 -0.24306678940E+02  0.15314051506E+03  0.15599704142E+03  0.10566000000E+00 0.  1.
        994    1    1    2    0    0  0.16737600829E+02  0.26424655072E+02  0.58271000479E+01  0.17413157316E+03  0.17120000000E+03 0.  0.
        998    1    1    2    0    0  0.35724554542E+00 -0.21179761322E+01  0.13410323812E+04  0.13410713854E+04  0.10000000000E+02 0.  1.
</event>
<event>
 5    1  0.1129619E-008  0.3732926E+03  0.7957747E-01  0.3480894E+00
         13   -1    0    0    0    0  0.00000000000E+00  0.00000000000E+00  0.14999999963E+04  0.15000000000E+04  0.10566000000E+00 0. -1.
        994   -1    0    0    0    0 -0.00000000000E+00 -0.00000000000E+00  0.11368683772E-12  0.17120000000E+03  0.17120000000E+03 0.  0.
         13    1    1    2    0    0  0.77784586564E+01  0.13542579021E+02  0.12725284504E+02  0.20145716551E+02  0.10566000000E+00 0. -1.
        994    1    1    2    0    0 -0.86240481306E+01 -0.10663416251E+02  0.82014125728E+01  0.17194413575E+03  0.17120000000E+03 0.  0.
        998    1    1    2    0    0  0.84558947422E+00 -0.28791627698E+01  0.14790732992E+04  0.14791101477E+04  0.10000000000E+02 0. -1.
</event>
<event>
 5    1  0.1129619E-008  0.3849457E+03  0.7957747E-01  0.3429903E+00
         13   -1    0    0    0    0  0.00000000000E+00  0.00000000000E+00  0.14999999963E+04  0.15000000000E+04  0.10566000000E+00 0. -1.
        994   -1    0    0    0    0 -0.00000000000E+00 -0.00000000000E+00  0.11368683772E-12  0.17120000000E+03  0.17120000000E+03 0.  0.
         13    1    1    2    0    0  0.13984408859E+02 -0.13816014207E+02  0.11509037197E+03  0.11675723029E+03  0.10566000000E+00 0. -1.
        994    1    1    2    0    0 -0.55567915283E+01  0.14338694184E+02  0.24353126661E+01  0.17190650607E+03  0.17120000000E+03 0.  0.
        998    1    1    2    0    0 -0.84276173305E+01 -0.52267997621E+00  0.13824743116E+04  0.13825362636E+04  0.10000000000E+02 0. -1.
</event>
<event>
 5    1  0.1129619E-008  0.3840408E+03  0.7957747E-01  0.3433751E+00
         13   -1    0    0    0    0  0.00000000000E+00  0.00000000000E+00  0.14999999963E+04  0.15000000000E+04  0.10566000000E+00 0.  1.
        994   -1    0    0    0    0 -0.00000000000E+00 -0.00000000000E+00  0.11368683772E-12  0.17120000000E+03  0.17120000000E+03 0.  0.
         13    1    1    2    0    0  0.13057323534E+02  0.82548186759E+01  0.55743703096E+02  0.57844682799E+02  0.10566000000E+00 0.  1.
        994    1    1    2    0    0 -0.13341590623E+02 -0.87302944127E+00  0.26970527212E+01  0.17174246509E+03  0.17120000000E+03 0.  0.
        998    1    1    2    0    0  0.28426708935E+00 -0.73817892346E+01  0.14415592405E+04  0.14416128521E+04  0.10000000000E+02 0.  1.
</event>
<event>
 5    1  0.1129619E-008  0.3831880E+03  0.7957747E-01  0.3437393E+00
         13   -1    0    0    0    0  0.00000000000E+00  0.00000000000E+00  0.14999999963E+04  0.15000000000E+04  0.10566000000E+00 0. -1.
        994   -1    0    0    0    0 -0.00000000000E+00 -0.00000000000E+00  0.11368683772E-12  0.17120000000E+03  0.17120000000E+03 0.  0.
         13    1    1    2    0    0  0.25101047340E+02 -0.95381868853E+01  0.15092302460E+03  0.15329321610E+03  0.10566000000E+00 0. -1.
        994    1    1    2    0    0 -0.35722689357E+01  0.14395542600E+02  0.32605146510E+01  0.17187223076E+03  0.17120000000E+03 0.  0.
        998    1    1    2    0    0 -0.21528778405E+02 -0.48573557143E+01  0.13458164570E+04  0.13460345531E+04  0.10000000000E+02 0. -1.
</event>
<event>
 5    1  0.1129619E-008  0.3833108E+03  0.7957747E-01  0.3436868E+00
         13   -1    0    0    0    0  0.00000000000E+00  0.00000000000E+00  0.14999999963E+04  0.15000000000E+04  0.10566000000E+00 0. -1.
        994   -1    0    0    0    0 -0.00000000000E+00 -0.00000000000E+00  0.11368683772E-12  0.17120000000E+03  0.17120000000E+03 0.  0.
         13    1    1    2    0    0  0.17160131976E+01  0.12126074565E+02  0.29578121376E+02  0.32013478628E+02  0.10566000000E+00 0. -1.
        994    1    1    2    0    0  0.15588780797E+01 -0.83722000683E+01  0.27109898301E+01  0.17143311611E+03  0.17120000000E+03 0.  0.
        998    1    1    2    0    0 -0.32748912772E+01 -0.37538744969E+01  0.14677108851E+04  0.14677534053E+04  0.10000000000E+02 0. -1.
</event>
<event>
 5    1  0.1129619E-008  0.3746636E+03  0.7957747E-01  0.3474729E+00
         13   -1    0    0    0    0  0.00000000000E+00  0.00000000000E+00  0.14999999963E+04  0.15000000000E+04  0.10566000000E+00 0. -1.
        994   -1    0    0    0    0 -0.00000000000E+00 -0.00000000000E+00  0.11368683772E-12  0.17120000000E+03  0.17120000000E+03 0.  0.
         13    1    1    2    0    0 -0.96044049001E+02 -0.16709725129E+02  0.45003309425E+03  0.46047092346E+03  0.10566000000E+00 0. -1.
        994    1    1    2    0    0  0.10646402482E+03 -0.52626961984E+01  0.46559311485E+02  0.20697703747E+03  0.17120000000E+03 0.  0.
        998    1    1    2    0    0 -0.10419975820E+02  0.21972421327E+02  0.10034075905E+04  0.10037520391E+04  0.10000000000E+02 0. -1.
</event>
<event>
 5    1  0.1129619E-008  0.3738275E+03  0.7957747E-01  0.3478483E+00
         13   -1    0    0    0    0  0.00000000000E+00  0.00000000000E+00  0.14999999963E+04  0.15000000000E+04  0.10566000000E+00 0.  1.
        994   -1    0    0    0    0 -0.00000000000E+00 -0.00000000000E+00  0.11368683772E-12  0.17120000000E+03  0.17120000000E+03 0.  0.
         13    1    1    2    0    0 -0.25468885756E+02 -0.39327308640E+02  0.81217194526E+02  0.93763240117E+02  0.10566000000E+00 0.  1.
        994    1    1    2    0    0  0.21633743421E+02  0.17113779829E+02  0.15678051962E+02  0.17411531130E+03  0.17120000000E+03 0.  0.
        998    1    1    2    0    0  0.38351423348E+01  0.22213528811E+02  0.14031047498E+04  0.14033214486E+04  0.10000000000E+02 0.  1.
</event>
<event>
 5    1  0.1129619E-008  0.3856699E+03  0.7957747E-01  0.3426836E+00
         13   -1    0    0    0    0  0.00000000000E+00  0.00000000000E+00  0.14999999963E+04  0.15000000000E+04  0.10566000000E+00 0.  1.
        994   -1    0    0    0    0 -0.00000000000E+00 -0.00000000000E+00  0.11368683772E-12  0.17120000000E+03  0.17120000000E+03 0.  0.
         13    1    1    2    0    0  0.10994308960E+02  0.83960327106E+01  0.77682164354E+02  0.78904359940E+02  0.10566000000E+00 0.  1.
        994    1    1    2    0    0 -0.79395061471E+01  0.47947959028E+01  0.15802424346E+01  0.17145834186E+03  0.17120000000E+03 0.  0.
        998    1    1    2    0    0 -0.30548028124E+01 -0.13190828613E+02  0.14207375895E+04  0.14208372982E+04  0.10000000000E+02 0.  1.
</event>
<event>
 5    1  0.1129619E-008  0.3690765E+03  0.7957747E-01  0.3500146E+00
         13   -1    0    0    0    0  0.00000000000E+00  0.00000000000E+00  0.14999999963E+04  0.15000000000E+04  0.10566000000E+00 0. -1.
        994   -1    0    0    0    0 -0.00000000000E+00 -0.00000000000E+00  0.11368683772E-12  0.17120000000E+03  0.17120000000E+03 0.  0.
         13    1    1    2    0    0 -0.72337354691E+01  0.60453011068E+02  0.17501684931E+03  0.18530461997E+03  0.10566000000E+00 0. -1.
        994    1    1    2    0    0  0.41504618061E+00 -0.50387550541E+02  0.18612055538E+02  0.17942944609E+03  0.17120000000E+03 0.  0.
        998    1    1    2    0    0  0.68186892885E+01 -0.10065460526E+02  0.13063710914E+04  0.13064659339E+04  0.10000000000E+02 0. -1.
</event>
<event>
 5    1  0.1129619E-008  0.3698888E+03  0.7957747E-01  0.3496402E+00
         13   -1    0    0    0    0  0.00000000000E+00  0.00000000000E+00  0.14999999963E+04  0.15000000000E+04  0.10566000000E+00 0. -1.
        994   -1    0    0    0    0 -0.00000000000E+00 -0.00000000000E+00  0.11368683772E-12  0.17120000000E+03  0.17120000000E+03 0.  0.
         13    1    1    2    0    0  0.28814381206E+02  0.24507951675E+01  0.41102354395E+02  0.50256240032E+02  0.10566000000E+00 0. -1.
        994    1    1    2    0    0 -0.20092712118E+02 -0.12391829046E+00  0.10724955937E+02  0.17270841646E+03  0.17120000000E+03 0.  0.
        998    1    1    2    0    0 -0.87216690884E+01 -0.23268768771E+01  0.14481726859E+04  0.14482353435E+04  0.10000000000E+02 0. -1.
</event>
<event>
 5    1  0.1129619E-008  0.3851672E+03  0.7957747E-01  0.3428963E+00
         13   -1    0    0    0    0  0.00000000000E+00  0.00000000000E+00  0.14999999963E+04  0.15000000000E+04  0.10566000000E+00 0. -1.
        994   -1    0    0    0    0 -0.00000000000E+00 -0.00000000000E+00  0.11368683772E-12  0.17120000000E+03  0.17120000000E+03 0.  0.
         13    1    1    2    0    0  0.17868800589E+02  0.35234734633E+01  0.10787036524E+03  0.10939714695E+03  0.10566000000E+00 0. -1.
        994    1    1    2    0    0 -0.10345764152E+02 -0.46871672820E+01  0.19712620988E+01  0.17158767510E+03  0.17120000000E+03 0.  0.
        998    1    1    2    0    0 -0.75230364369E+01  0.11636938187E+01  0.13901583689E+04  0.13902151779E+04  0.10000000000E+02 0. -1.
</event>
<event>
 5    1  0.1129619E-008  0.3780185E+03  0.7957747E-01  0.3459832E+00
         13   -1    0    0    0    0  0.00000000000E+00  0.00000000000E+00  0.14999999963E+04  0.15000000000E+04  0.10566000000E+00 0. -1.
        994   -1    0    0    0    0 -0.00000000000E+00 -0.00000000000E+00  0.11368683772E-12  0.17120000000E+03  0.17120000000E+03 0.  0.
         13    1    1    2    0    0  0.11232651101E+02 -0.91245271087E+01  0.18196391685E+02  0.23249715700E+02  0.10566000000E+00 0. -1.
        994    1    1    2    0    0 -0.93071610530E+01  0.43569314847E+01  0.54922095032E+01  0.17159606774E+03  0.17120000000E+03 0.  0.
        998    1    1    2    0    0 -0.19254900484E+01  0.47675956240E+01  0.14763113951E+04  0.14763542166E+04  0.10000000000E+02 0. -1.
</event>
<event>
 5    1  0.1129619E-008  0.3761224E+03  0.7957747E-01  0.3468218E+00
         13   -1    0    0    0    0  0.00000000000E+00  0.00000000000E+00  0.14999999963E+04  0.15000000000E+04  0.10566000000E+00 0.  1.
        994   -1    0    0    0    0 -0.00000000000E+00 -0.00000000000E+00  0.11368683772E-12  0.17120000000E+03  0.17120000000E+03 0.  0.
         13    1    1    2    0    0 -0.11264302609E+01 -0.18978782189E+02  0.26823058491E+02  0.32877813938E+02  0.10566000000E+00 0.  1.
        994    1    1    2    0    0 -0.73844963122E+01  0.17069750769E+02  0.72757191181E+01  0.17236090991E+03  0.17120000000E+03 0.  0.
        998    1    1    2    0    0  0.85109265730E+01  0.19090314209E+01  0.14659012187E+04  0.14659612761E+04  0.10000000000E+02 0.  1.
</event>
<event>
 5    1  0.1129619E-008  0.3794169E+03  0.7957747E-01  0.3453702E+00
         13   -1    0    0    0    0  0.00000000000E+00  0.00000000000E+00  0.14999999963E+04  0.15000000000E+04  0.10566000000E+00 0. -1.
        994   -1    0    0    0    0 -0.00000000000E+00 -0.00000000000E+00  0.11368683772E-12  0.17120000000E+03  0.17120000000E+03 0.  0.
         13    1    1    2    0    0 -0.14198490277E+02 -0.12927116529E+02  0.40302349114E+02  0.44643005902E+02  0.10566000000E+00 0. -1.
        994    1    1    2    0    0  0.12373447626E+02  0.11820933753E+01  0.49454367702E+01  0.17172185911E+03  0.17120000000E+03 0.  0.
        998    1    1    2    0    0  0.18250426505E+01  0.11745023153E+02  0.14547522104E+04  0.14548351350E+04  0.10000000000E+02 0. -1.
</event>
<event>
 5    1  0.1129619E-008  0.3695629E+03  0.7957747E-01  0.3497902E+00
         13   -1    0    0    0    0  0.00000000000E+00  0.00000000000E+00  0.14999999963E+04  0.15000000000E+04  0.10566000000E+00 0. -1.
        994   -1    0    0    0    0 -0.00000000000E+00 -0.00000000000E+00  0.11368683772E-12  0.17120000000E+03  0.17120000000E+03 0.  0.
         13    1    1    2    0    0 -0.22102756333E+01  0.14697163350E+02  0.55170610776E+01  0.15853739492E+02  0.10566000000E+00 0. -1.
        994    1    1    2    0    0 -0.16145415721E+02 -0.89350319543E+01  0.11897350796E+02  0.17260213267E+03  0.17120000000E+03 0.  0.
        998    1    1    2    0    0  0.18355691354E+02 -0.57621313961E+01  0.14825855844E+04  0.14827441278E+04  0.10000000000E+02 0. -1.
</event>
<event>
 5    1  0.1129619E-008  0.3847738E+03  0.7957747E-01  0.3430632E+00
         13   -1    0    0    0    0  0.00000000000E+00  0.00000000000E+00  0.14999999963E+04  0.15000000000E+04  0.10566000000E+00 0.  1.
        994   -1    0    0    0    0 -0.00000000000E+00 -0.00000000000E+00  0.11368683772E-12  0.17120000000E+03  0.17120000000E+03 0.  0.
         13    1    1    2    0    0 -0.58159561540E+01 -0.17436397917E+02  0.90476081609E+02  0.92324351207E+02  0.10566000000E+00 0.  1.
        994    1    1    2    0    0  0.27664667865E+01  0.21566877249E+02  0.33000120565E+01  0.17260681798E+03  0.17120000000E+03 0.  0.
        998    1    1    2    0    0  0.30494893675E+01 -0.41304793320E+01  0.14062239026E+04  0.14062688308E+04  0.10000000000E+02 0.  1.
</event>
<event>
 5    1  0.1129619E-008  0.3755580E+03  0.7957747E-01  0.3470731E+00
         13   -1    0    0    0    0  0.00000000000E+00  0.00000000000E+00  0.14999999963E+04  0.15000000000E+04  0.10566000000E+00 0. -1.
        994   -1    0    0    0    0 -0.00000000000E+00 -0.00000000000E+00  0.11368683772E-12  0.17120000000E+03  0.17120000000E+03 0.  0.
         13    1    1    2    0    0  0.15099591118E+02  0.63045159782E+01  0.18081920610E+02  0.24386709303E+02  0.10566000000E+00 0. -1.
        994    1    1    2    0    0 -0.94154289832E+01 -0.13456569413E+02  0.73081494428E+01  0.17214115897E+03  0.17120000000E+03 0.  0.
        998    1    1    2    0    0 -0.56841621351E+01  0.71520534352E+01  0.14746099262E+04  0.14746721317E+04  0.10000000000E+02 0. -1.
</event>
<event>
 5    1  0.1129619E-008  0.3822288E+03  0.7957747E-01  0.3441511E+00
         13   -1    0    0    0    0  0.00000000000E+00  0.00000000000E+00  0.14999999963E+04  0.15000000000E+04  0.10566000000E+00 0.  1.
        994   -1    0    0    0    0 -0.00000000000E+00 -0.00000000000E+00  0.11368683772E-12  0.17120000000E+03  0.17120000000E+03 0.  0.
         13    1    1    2    0    0 -0.20006514819E+02 -0.53624045632E+01  0.72708687633E+02  0.75601457918E+02  0.10566000000E+00 0.  1.
        994    1    1    2    0    0  0.71093135102E+01 -0.17454124877E+01  0.31901416702E+01  0.17138613073E+03  0.17120000000E+03 0.  0.
        998    1    1    2    0    0  0.12897201309E+02  0.71078170509E+01  0.14241011670E+04  0.14242124114E+04  0.10000000000E+02 0.  1.
</event>
<event>
 5    1  0.1129619E-008  0.3850348E+03  0.7957747E-01  0.3429525E+00
         13   -1    0    0    0    0  0.00000000000E+00  0.00000000000E+00  0.14999999963E+04  0.15000000000E+04  0.10566000000E+00 0. -1.
        994   -1    0    0    0    0 -0.00000000000E+00 -0.00000000000E+00  0.11368683772E-12  0.17120000000E+03  0.17120000000E+03 0.  0.
         13    1    1    2    0    0  0.33209013438E+00 -0.14402646349E+02  0.62698470173E+02  0.64332385559E+02  0.10566000000E+00 0. -1.
        994    1    1    2    0    0 -0.35702186865E+01  0.13674437774E+02  0.22699413848E+01  0.17179734964E+03  0.17120000000E+03 0.  0.
        998    1    1    2    0    0  0.32381285521E+01  0.72820857433E+00  0.14350315847E+04  0.14350702648E+04  0.10000000000E+02 0. -1.
</event>
<event>
 5    1  0.1129619E-008  0.3777164E+03  0.7957747E-01  0.3461162E+00
         13   -1    0    0    0    0  0.00000000000E+00  0.00000000000E+00  0.14999999963E+04  0.15000000000E+04  0.10566000000E+00 0.  1.
        994   -1    0    0    0    0 -0.00000000000E+00 -0.00000000000E+00  0.11368683772E-12  0.17120000000E+03  0.17120000000E+03 0.  0.
         13    1    1    2    0    0 -0.53454604121E+02  0.63451743965E+02  0.44135681525E+03  0.44908726106E+03  0.10566000000E+00 0.  1.
        994    1    1    2    0    0  0.62492505999E+02 -0.59609665387E+02  0.30840289475E+02  0.19421428621E+03  0.17120000000E+03 0.  0.
        998    1    1    2    0    0 -0.90379018783E+01 -0.38420785783E+01  0.10278028915E+04  0.10278984527E+04  0.10000000000E+02 0.  1.
</event>
<event>
 5    1  0.1129619E-008  0.3849386E+03  0.7957747E-01  0.3429933E+00
         13   -1    0    0    0    0  0.00000000000E+00  0.00000000000E+00  0.14999999963E+04  0.15000000000E+04  0.10566000000E+00 0.  1.
        994   -1    0    0    0    0 -0.00000000000E+00 -0.00000000000E+00  0.11368683772E-12  0.17120000000E+03  0.17120000000E+03 0.  0.
         13    1    1    2    0    0 -0.12842139498E+02 -0.31438136461E+01  0.73472043890E+02  0.74652237130E+02  0.10566000000E+00 0.  1.
        994    1    1    2    0    0 -0.35039955968E+02 -0.17006455281E+02  0.66665822811E+01  0.17570117061E+03  0.17120000000E+03 0.  0.
        998    1    1    2    0    0  0.47882095466E+02  0.20150268927E+02  0.14198613701E+04  0.14208465923E+04  0.10000000000E+02 0.  1.
</event>
<event>
 5    1  0.1129619E-008  0.2746916E+03  0.7957747E-01  0.4095095E+00
         13   -1    0    0    0    0  0.00000000000E+00  0.00000000000E+00  0.14999999963E+04  0.15000000000E+04  0.10566000000E+00 0.  1.
        994   -1    0    0    0    0 -0.00000000000E+00 -0.00000000000E+00  0.11368683772E-12  0.17120000000E+03  0.17120000000E+03 0.  0.
         13    1    1    2    0    0 -0.81861915364E+02  0.12209577110E+03  0.62136542034E+03  0.63851683397E+03  0.10566000000E+00 0.  1.
        994    1    1    2    0    0 -0.39714641600E+02 -0.11920905331E+03  0.83415789652E+02  0.22815715004E+03  0.17120000000E+03 0.  0.
        998    1    1    2    0    0  0.12157655696E+03 -0.28867177911E+01  0.79521878629E+03  0.80452601599E+03  0.10000000000E+02 0.  1.
</event>
<event>
 5    1  0.1129619E-008  0.3734628E+03  0.7957747E-01  0.3480127E+00
         13   -1    0    0    0    0  0.00000000000E+00  0.00000000000E+00  0.14999999963E+04  0.15000000000E+04  0.10566000000E+00 0.  1.
        994   -1    0    0    0    0 -0.00000000000E+00 -0.00000000000E+00  0.11368683772E-12  0.17120000000E+03  0.17120000000E+03 0.  0.
         13    1    1    2    0    0 -0.13633176644E+02  0.27349373884E+02  0.58162144625E+02  0.65701582847E+02  0.10566000000E+00 0.  1.
        994    1    1    2    0    0  0.10589062176E+02 -0.25714279000E+02  0.10117272026E+02  0.17373874518E+03  0.17120000000E+03 0.  0.
        998    1    1    2    0    0  0.30441144673E+01 -0.16350948838E+01  0.14317205796E+04  0.14317596720E+04  0.10000000000E+02 0.  1.
</event>
<event>
 5    1  0.1129619E-008  0.3856962E+03  0.7957747E-01  0.3426725E+00
         13   -1    0    0    0    0  0.00000000000E+00  0.00000000000E+00  0.14999999963E+04  0.15000000000E+04  0.10566000000E+00 0. -1.
        994   -1    0    0    0    0 -0.00000000000E+00 -0.00000000000E+00  0.11368683772E-12  0.17120000000E+03  0.17120000000E+03 0.  0.
         13    1    1    2    0    0  0.77227865314E+01 -0.92684409047E+01  0.55877758032E+02  0.57165377943E+02  0.10566000000E+00 0. -1.
        994    1    1    2    0    0 -0.36932608502E+01  0.11588218396E+02  0.17703919496E+01  0.17164061661E+03  0.17120000000E+03 0.  0.
        998    1    1    2    0    0 -0.40295256812E+01 -0.23197774911E+01  0.14423518463E+04  0.14423940055E+04  0.10000000000E+02 0. -1.
</event>
<event>
 5    1  0.1129619E-008  0.3823354E+03  0.7957747E-01  0.3441052E+00
         13   -1    0    0    0    0  0.00000000000E+00  0.00000000000E+00  0.14999999963E+04  0.15000000000E+04  0.10566000000E+00 0. -1.
        994   -1    0    0    0    0 -0.00000000000E+00 -0.00000000000E+00  0.11368683772E-12  0.17120000000E+03  0.17120000000E+03 0.  0.
         13    1    1    2    0    0  0.27298571556E+02  0.16195997817E+01  0.13319848749E+03  0.13597677502E+03  0.10566000000E+00 0. -1.
        994    1    1    2    0    0 -0.75394498946E+01 -0.63263615738E+01  0.32802726896E+01  0.17151404125E+03  0.17120000000E+03 0.  0.
        998    1    1    2    0    0 -0.19759121662E+02  0.47067617921E+01  0.13635212361E+04  0.13637091837E+04  0.10000000000E+02 0. -1.
</event>
<event>
 5    1  0.1129619E-008  0.3831956E+03  0.7957747E-01  0.3437361E+00
         13   -1    0    0    0    0  0.00000000000E+00  0.00000000000E+00  0.14999999963E+04  0.15000000000E+04  0.10566000000E+00 0.  1.
        994   -1    0    0    0    0 -0.00000000000E+00 -0.00000000000E+00  0.11368683772E-12  0.17120000000E+03  0.17120000000E+03 0.  0.
         13    1    1    2    0    0  0.13087276818E+02  0.47679271398E+01  0.39368467469E+02  0.41759996871E+02  0.10566000000E+00 0.  1.
        994    1    1    2    0    0  0.84270516643E+01 -0.18263420501E+02  0.38681147752E+01  0.17242090952E+03  0.17120000000E+03 0.  0.
        998    1    1    2    0    0 -0.21514328482E+02  0.13495493361E+02  0.14567634140E+04  0.14570190936E+04  0.10000000000E+02 0.  1.
</event>
<event>
 5    1  0.1129619E-008  0.3842932E+03  0.7957747E-01  0.3432675E+00
         13   -1    0    0    0    0  0.00000000000E+00  0.00000000000E+00  0.14999999963E+04  0.15000000000E+04  0.10566000000E+00 0. -1.
        994   -1    0    0    0    0 -0.00000000000E+00 -0.00000000000E+00  0.11368683772E-12  0.17120000000E+03  0.17120000000E+03 0.  0.
         13    1    1    2    0    0 -0.30858360712E+02  0.34415947656E+02  0.52664116787E+02  0.70072935146E+02  0.10566000000E+00 0. -1.
        994    1    1    2    0    0  0.74584755928E+01 -0.13975263384E+02  0.19630194635E+02  0.17304832096E+03  0.17120000000E+03 0.  0.
        998    1    1    2    0    0  0.23399885119E+02 -0.20440684272E+02  0.14277056849E+04  0.14280787439E+04  0.10000000000E+02 0. -1.
</event>
<event>
 5    1  0.1129619E-008  0.3854711E+03  0.7957747E-01  0.3427676E+00
         13   -1    0    0    0    0  0.00000000000E+00  0.00000000000E+00  0.14999999963E+04  0.15000000000E+04  0.10566000000E+00 0. -1.
        994   -1    0    0    0    0 -0.00000000000E+00 -0.00000000000E+00  0.11368683772E-12  0.17120000000E+03  0.17120000000E+03 0.  0.
         13    1    1    2    0    0 -0.38658547543E+01  0.11940503256E+02  0.57796353332E+02  0.59143470253E+02  0.10566000000E+00 0. -1.
        994    1    1    2    0    0  0.68614546714E+01 -0.33773527276E+01  0.15884725843E+01  0.17137808879E+03  0.17120000000E+03 0.  0.
        998    1    1    2    0    0 -0.29955999171E+01 -0.85631505286E+01  0.14406151704E+04  0.14406784410E+04  0.10000000000E+02 0. -1.
</event>
<event>
 5    1  0.1129619E-008  0.3759421E+03  0.7957747E-01  0.3469020E+00
         13   -1    0    0    0    0  0.00000000000E+00  0.00000000000E+00  0.14999999963E+04  0.15000000000E+04  0.10566000000E+00 0.  1.
        994   -1    0    0    0    0 -0.00000000000E+00 -0.00000000000E+00  0.11368683772E-12  0.17120000000E+03  0.17120000000E+03 0.  0.
         13    1    1    2    0    0  0.19569912492E+03  0.73771251259E+02  0.93498114466E+03  0.95808668555E+03  0.10566000000E+00 0.  1.
        994    1    1    2    0    0 -0.19661765929E+03 -0.72845750946E+02  0.17362581319E+03  0.32159037669E+03  0.17120000000E+03 0.  0.
        998    1    1    2    0    0  0.91853436204E+00 -0.92550031259E+00  0.39139303843E+03  0.39152293776E+03  0.10000000000E+02 0.  0.
</event>
<event>
 5    1  0.1129619E-008  0.4321596E+03  0.7957747E-01  0.3251378E+00
         13   -1    0    0    0    0  0.00000000000E+00  0.00000000000E+00  0.14999999963E+04  0.15000000000E+04  0.10566000000E+00 0. -1.
        994   -1    0    0    0    0 -0.00000000000E+00 -0.00000000000E+00  0.11368683772E-12  0.17120000000E+03  0.17120000000E+03 0.  0.
         13    1    1    2    0    0 -0.10785029946E+03  0.22485439324E+02  0.92022643081E+02  0.14354602077E+03  0.10566000000E+00 0. -1.
        994    1    1    2    0    0  0.14612634113E+03  0.25981185611E+02  0.15826986070E+03  0.27638147258E+03  0.17120000000E+03 0.  0.
        998    1    1    2    0    0 -0.38276041674E+02 -0.48466624935E+02  0.12497074925E+04  0.12512725067E+04  0.10000000000E+02 0. -1.
</event>
<event>
 5    1  0.1129619E-008  0.3859402E+03  0.7957747E-01  0.3425694E+00
         13   -1    0    0    0    0  0.00000000000E+00  0.00000000000E+00  0.14999999963E+04  0.15000000000E+04  0.10566000000E+00 0. -1.
        994   -1    0    0    0    0 -0.00000000000E+00 -0.00000000000E+00  0.11368683772E-12  0.17120000000E+03  0.17120000000E+03 0.  0.
         13    1    1    2    0    0 -0.12087274615E+02 -0.21029673465E+01  0.65486434535E+02  0.66625887997E+02  0.10566000000E+00 0. -1.
        994    1    1    2    0    0  0.10279952729E+02 -0.11480803077E+02  0.19430654432E+01  0.17190317557E+03  0.17120000000E+03 0.  0.
        998    1    1    2    0    0  0.18073218868E+01  0.13583770424E+02  0.14325704963E+04  0.14326709364E+04  0.10000000000E+02 0. -1.
</event>
<event>
 5    1  0.1129619E-008  0.3730494E+03  0.7957747E-01  0.3481993E+00
         13   -1    0    0    0    0  0.00000000000E+00  0.00000000000E+00  0.14999999963E+04  0.15000000000E+04  0.10566000000E+00 0. -1.
        994   -1    0    0    0    0 -0.00000000000E+00 -0.00000000000E+00  0.11368683772E-12  0.17120000000E+03  0.17120000000E+03 0.  0.
         13    1    1    2    0    0  0.42014272777E+02  0.39711932753E+02  0.12132744343E+03  0.13439715925E+03  0.10566000000E+00 0. -1.
        994    1    1    2    0    0 -0.39292226148E+02 -0.35280393256E+02  0.22480685004E+02  0.18056413371E+03  0.17120000000E+03 0.  0.
        998    1    1    2    0    0 -0.27220466288E+01 -0.44315394967E+01  0.13561918678E+04  0.13562387070E+04  0.10000000000E+02 0. -1.
</event>
<event>
 5    1  0.1129619E-008  0.4061387E+03  0.7957747E-01  0.3344687E+00
         13   -1    0    0    0    0  0.00000000000E+00  0.00000000000E+00  0.14999999963E+04  0.15000000000E+04  0.10566000000E+00 0. -1.
        994   -1    0    0    0    0 -0.00000000000E+00 -0.00000000000E+00  0.11368683772E-12  0.17120000000E+03  0.17120000000E+03 0.  0.
         13    1    1    2    0    0 -0.24856823081E+01  0.46625672457E+02  0.20482765814E+02  0.50987123943E+02  0.10566000000E+00 0. -1.
        994    1    1    2    0    0 -0.35668608454E+01 -0.71496244479E+02  0.52385066706E+02  0.19281615774E+03  0.17120000000E+03 0.  0.
        998    1    1    2    0    0  0.60525431536E+01  0.24870572022E+02  0.14271321638E+04  0.14273967183E+04  0.10000000000E+02 0. -1.
</event>
<event>
 5    1  0.1129619E-008  0.3852766E+03  0.7957747E-01  0.3428500E+00
         13   -1    0    0    0    0  0.00000000000E+00  0.00000000000E+00  0.14999999963E+04  0.15000000000E+04  0.10566000000E+00 0.  1.
        994   -1    0    0    0    0 -0.00000000000E+00 -0.00000000000E+00  0.11368683772E-12  0.17120000000E+03  0.17120000000E+03 0.  0.
         13    1    1    2    0    0 -0.75670654283E+01 -0.11741469235E+02  0.64653582616E+02  0.66145441930E+02  0.10566000000E+00 0.  1.
        994    1    1    2    0    0  0.91930981898E+01  0.75247201856E+01  0.19567136455E+01  0.17162285162E+03  0.17120000000E+03 0.  0.
        998    1    1    2    0    0 -0.16260327616E+01  0.42167490496E+01  0.14333897000E+04  0.14334317065E+04  0.10000000000E+02 0.  1.
</event>
<event>
 5    1  0.1129619E-008  0.3760300E+03  0.7957747E-01  0.3468629E+00
         13   -1    0    0    0    0  0.00000000000E+00  0.00000000000E+00  0.14999999963E+04  0.15000000000E+04  0.10566000000E+00 0. -1.
        994   -1    0    0    0    0 -0.00000000000E+00 -0.00000000000E+00  0.11368683772E-12  0.17120000000E+03  0.17120000000E+03 0.  0.
         13    1    1    2    0    0 -0.44038103584E+02  0.22164974682E+02  0.16327227443E+03  0.17055347381E+03  0.10566000000E+00 0. -1.
        994    1    1    2    0    0  0.53505106442E+02 -0.31270466813E+02  0.19273529586E+02  0.18308890587E+03  0.17120000000E+03 0.  0.
        998    1    1    2    0    0 -0.94670028586E+01  0.91054921313E+01  0.13174541923E+04  0.13175576203E+04  0.10000000000E+02 0. -1.
</event>
<event>
 5    1  0.1129619E-008  0.3127862E+03  0.7957747E-01  0.3808764E+00
         13   -1    0    0    0    0  0.00000000000E+00  0.00000000000E+00  0.14999999963E+04  0.15000000000E+04  0.10566000000E+00 0.  1.
        994   -1    0    0    0    0 -0.00000000000E+00 -0.00000000000E+00  0.11368683772E-12  0.17120000000E+03  0.17120000000E+03 0.  0.
         13    1    1    2    0    0 -0.53095510625E+02 -0.21033797846E+03  0.72189572586E+03  0.75378687214E+03  0.10566000000E+00 0.  1.
        994    1    1    2    0    0 -0.14659336553E+02  0.20432823826E+03  0.19583203495E+03  0.33109598459E+03  0.17120000000E+03 0.  0.
        998    1    1    2    0    0  0.67754847178E+02  0.60097401984E+01  0.58227223547E+03  0.58631714327E+03  0.10000000000E+02 0.  1.
</event>
<event>
 5    1  0.1129619E-008  0.3849898E+03  0.7957747E-01  0.3429716E+00
         13   -1    0    0    0    0  0.00000000000E+00  0.00000000000E+00  0.14999999963E+04  0.15000000000E+04  0.10566000000E+00 0.  1.
        994   -1    0    0    0    0 -0.00000000000E+00 -0.00000000000E+00  0.11368683772E-12  0.17120000000E+03  0.17120000000E+03 0.  0.
         13    1    1    2    0    0 -0.13629565488E+02 -0.27355167562E+01  0.58422635013E+02  0.60053838788E+02  0.10566000000E+00 0.  1.
        994    1    1    2    0    0  0.11905897669E+02 -0.29080986350E+01  0.21293676756E+01  0.17165133744E+03  0.17120000000E+03 0.  0.
        998    1    1    2    0    0  0.17236678196E+01  0.56436153911E+01  0.14394479936E+04  0.14394948238E+04  0.10000000000E+02 0.  1.
</event>
<event>
 5    1  0.1129619E-008  0.3764645E+03  0.7957747E-01  0.3466699E+00
         13   -1    0    0    0    0  0.00000000000E+00  0.00000000000E+00  0.14999999963E+04  0.15000000000E+04  0.10566000000E+00 0. -1.
        994   -1    0    0    0    0 -0.00000000000E+00 -0.00000000000E+00  0.11368683772E-12  0.17120000000E+03  0.17120000000E+03 0.  0.
         13    1    1    2    0    0 -0.41721957729E+02  0.11209005162E+02  0.20985894069E+03  0.21425953819E+03  0.10566000000E+00 0. -1.
        994    1    1    2    0    0 -0.20467628193E+02 -0.27618447978E+01  0.73727276123E+01  0.17259880852E+03  0.17120000000E+03 0.  0.
        998    1    1    2    0    0  0.62189585922E+02 -0.84471603646E+01  0.12827683280E+04  0.12843416533E+04  0.10000000000E+02 0. -1.
</event>
<event>
 5    1  0.1129619E-008  0.3782578E+03  0.7957747E-01  0.3458780E+00
         13   -1    0    0    0    0  0.00000000000E+00  0.00000000000E+00  0.14999999963E+04  0.15000000000E+04  0.10566000000E+00 0. -1.
        994   -1    0    0    0    0 -0.00000000000E+00 -0.00000000000E+00  0.11368683772E-12  0.17120000000E+03  0.17120000000E+03 0.  0.
         13    1    1    2    0    0  0.20088719209E+02 -0.39211781407E+02  0.25670356543E+03  0.26045700626E+03  0.10566000000E+00 0. -1.
        994    1    1    2    0    0  0.13265458461E+02 -0.43384903980E+01  0.56704245538E+01  0.17186153904E+03  0.17120000000E+03 0.  0.
        998    1    1    2    0    0 -0.33354177670E+02  0.43550271805E+02  0.12376260063E+04  0.12388814547E+04  0.10000000000E+02 0. -1.
</event>
<event>
 5    1  0.1129619E-008  0.3845380E+03  0.7957747E-01  0.3431634E+00
         13   -1    0    0    0    0  0.00000000000E+00  0.00000000000E+00  0.14999999963E+04  0.15000000000E+04  0.10566000000E+00 0.  1.
        994   -1    0    0    0    0 -0.00000000000E+00 -0.00000000000E+00  0.11368683772E-12  0.17120000000E+03  0.17120000000E+03 0.  0.
         13    1    1    2    0    0 -0.14520313970E+02  0.36805052822E+01  0.58352809489E+02  0.60244893362E+02  0.10566000000E+00 0.  1.
        994    1    1    2    0    0  0.15180153751E+02 -0.16928960287E+01  0.26284711994E+01  0.17190012166E+03  0.17120000000E+03 0.  0.
        998    1    1    2    0    0 -0.65983978097E+00 -0.19876092535E+01  0.14390187156E+04  0.14390549850E+04  0.10000000000E+02 0.  1.
</event>
<event>
 5    1  0.1129619E-008  0.3761717E+03  0.7957747E-01  0.3467999E+00
         13   -1    0    0    0    0  0.00000000000E+00  0.00000000000E+00  0.14999999963E+04  0.15000000000E+04  0.10566000000E+00 0. -1.
        994   -1    0    0    0    0 -0.00000000000E+00 -0.00000000000E+00  0.11368683772E-12  0.17120000000E+03  0.17120000000E+03 0.  0.
         13    1    1    2    0    0  0.17545318616E+02  0.30137587809E+01  0.46430312095E+01  0.18398093656E+02  0.10566000000E+00 0. -1.
        994    1    1    2    0    0 -0.18875781627E+02 -0.58867483182E+01  0.15638315827E+02  0.17304608016E+03  0.17120000000E+03 0.  0.
        998    1    1    2    0    0  0.13304630106E+01  0.28729895372E+01  0.14797186492E+04  0.14797558262E+04  0.10000000000E+02 0. -1.
</event>
<event>
 5    1  0.1129619E-008  0.3684376E+03  0.7957747E-01  0.3503102E+00
         13   -1    0    0    0    0  0.00000000000E+00  0.00000000000E+00  0.14999999963E+04  0.15000000000E+04  0.10566000000E+00 0.  1.
        994   -1    0    0    0    0 -0.00000000000E+00 -0.00000000000E+00  0.11368683772E-12  0.17120000000E+03  0.17120000000E+03 0.  0.
         13    1    1    2    0    0  0.35238317294E+02  0.81522986565E+02  0.43463800416E+03  0.44361914090E+03  0.10566000000E+00 0.  1.
        994    1    1    2    0    0 -0.11744977421E+02 -0.35619452199E+02  0.14994102745E+02  0.17590040644E+03  0.17120000000E+03 0.  0.
        998    1    1    2    0    0 -0.23493339873E+02 -0.45903534365E+02  0.10503678894E+04  0.10516804527E+04  0.10000000000E+02 0.  1.
</event>
<event>
 5    1  0.1129619E-008  0.3727275E+03  0.7957747E-01  0.3483449E+00
         13   -1    0    0    0    0  0.00000000000E+00  0.00000000000E+00  0.14999999963E+04  0.15000000000E+04  0.10566000000E+00 0. -1.
        994   -1    0    0    0    0 -0.00000000000E+00 -0.00000000000E+00  0.11368683772E-12  0.17120000000E+03  0.17120000000E+03 0.  0.
         13    1    1    2    0    0  0.32365949863E+02 -0.12836134115E+02  0.44409938665E+02  0.56432037583E+02  0.10566000000E+00 0. -1.
        994    1    1    2    0    0 -0.38870826102E+02 -0.43661042178E+02  0.24549914298E+02  0.18256332057E+03  0.17120000000E+03 0.  0.
        998    1    1    2    0    0  0.65048762390E+01  0.56497176293E+02  0.14310401433E+04  0.14322046418E+04  0.10000000000E+02 0. -1.
</event>
<event>
 5    1  0.1129619E-008  0.3857194E+03  0.7957747E-01  0.3426627E+00
         13   -1    0    0    0    0  0.00000000000E+00  0.00000000000E+00  0.14999999963E+04  0.15000000000E+04  0.10566000000E+00 0.  1.
        994   -1    0    0    0    0 -0.00000000000E+00 -0.00000000000E+00  0.11368683772E-12  0.17120000000E+03  0.17120000000E+03 0.  0.
         13    1    1    2    0    0  0.97687104579E+01 -0.49497371533E+01  0.47626617806E+02  0.48869555856E+02  0.10566000000E+00 0.  1.
        994    1    1    2    0    0 -0.88783418652E+01 -0.26273860974E+01  0.15546962878E+01  0.17145724013E+03  0.17120000000E+03 0.  0.
        998    1    1    2    0    0 -0.89036859279E+00  0.75771232507E+01  0.14508186822E+04  0.14508732040E+04  0.10000000000E+02 0.  1.
</event>
<event>
 5    1  0.1129619E-008  0.3750759E+03  0.7957747E-01  0.3472883E+00
         13   -1    0    0    0    0  0.00000000000E+00  0.00000000000E+00  0.14999999963E+04  0.15000000000E+04  0.10566000000E+00 0. -1.
        994   -1    0    0    0    0 -0.00000000000E+00 -0.00000000000E+00  0.11368683772E-12  0.17120000000E+03  0.17120000000E+03 0.  0.
         13    1    1    2    0    0 -0.42657327172E+02  0.14536144651E+02  0.11462749977E+03  0.12316826674E+03  0.10566000000E+00 0. -1.
        994    1    1    2    0    0  0.84067864632E+02 -0.26506042270E+02  0.33520840575E+02  0.19545603826E+03  0.17120000000E+03 0.  0.
        998    1    1    2    0    0 -0.41410537460E+02  0.11969897619E+02  0.13518516559E+04  0.13525756950E+04  0.10000000000E+02 0. -1.
</event>
<event>
 5    1  0.1129619E-008  0.3816218E+03  0.7957747E-01  0.3444127E+00
         13   -1    0    0    0    0  0.00000000000E+00  0.00000000000E+00  0.14999999963E+04  0.15000000000E+04  0.10566000000E+00 0. -1.
        994   -1    0    0    0    0 -0.00000000000E+00 -0.00000000000E+00  0.11368683772E-12  0.17120000000E+03  0.17120000000E+03 0.  0.
         13    1    1    2    0    0  0.11287797876E+03  0.11793661516E+03  0.45477926033E+03  0.48319216682E+03  0.10566000000E+00 0. -1.
        994    1    1    2    0    0 -0.12402744761E+03 -0.12043163111E+03  0.13614179596E+03  0.27880210570E+03  0.17120000000E+03 0.  0.
        998    1    1    2    0    0  0.11149468855E+02  0.24950159527E+01  0.90907893999E+03  0.90920572748E+03  0.10000000000E+02 0. -1.
</event>
<event>
 5    1  0.1129619E-008  0.3824582E+03  0.7957747E-01  0.3440524E+00
         13   -1    0    0    0    0  0.00000000000E+00  0.00000000000E+00  0.14999999963E+04  0.15000000000E+04  0.10566000000E+00 0. -1.
        994   -1    0    0    0    0 -0.00000000000E+00 -0.00000000000E+00  0.11368683772E-12  0.17120000000E+03  0.17120000000E+03 0.  0.
         13    1    1    2    0    0  0.16623399959E+02 -0.22518023764E+02  0.13001239010E+03  0.13299109581E+03  0.10566000000E+00 0. -1.
        994    1    1    2    0    0 -0.14085929315E+02  0.16374045988E+02  0.44458889739E+01  0.17261439313E+03  0.17120000000E+03 0.  0.
        998    1    1    2    0    0 -0.25374706446E+01  0.61439777766E+01  0.13655417172E+04  0.13655945111E+04  0.10000000000E+02 0. -1.
</event>
<event>
 5    1  0.1129619E-008  0.3733729E+03  0.7957747E-01  0.3480532E+00
         13   -1    0    0    0    0  0.00000000000E+00  0.00000000000E+00  0.14999999963E+04  0.15000000000E+04  0.10566000000E+00 0. -1.
        994   -1    0    0    0    0 -0.00000000000E+00 -0.00000000000E+00  0.11368683772E-12  0.17120000000E+03  0.17120000000E+03 0.  0.
         13    1    1    2    0    0  0.35705646552E+02 -0.38471106542E+02  0.21003268895E+03  0.21649171076E+03  0.10566000000E+00 0. -1.
        994    1    1    2    0    0  0.75796566715E+01  0.14754766635E+02  0.84576689024E+01  0.17220954241E+03  0.17120000000E+03 0.  0.
        998    1    1    2    0    0 -0.43285303223E+02  0.23716339906E+02  0.12815096384E+04  0.12824987468E+04  0.10000000000E+02 0. -1.
</event>
<event>
 5    1  0.1129619E-008  0.3767939E+03  0.7957747E-01  0.3465238E+00
         13   -1    0    0    0    0  0.00000000000E+00  0.00000000000E+00  0.14999999963E+04  0.15000000000E+04  0.10566000000E+00 0.  1.
        994   -1    0    0    0    0 -0.00000000000E+00 -0.00000000000E+00  0.11368683772E-12  0.17120000000E+03  0.17120000000E+03 0.  0.
         13    1    1    2    0    0  0.12502199947E+02  0.30038253041E+01  0.11719259637E+02  0.17397706184E+02  0.10566000000E+00 0.  1.
        994    1    1    2    0    0 -0.12008839554E+02 -0.91880171164E+00  0.62506406787E+01  0.17173691197E+03  0.17120000000E+03 0.  0.
        998    1    1    2    0    0 -0.49336039327E+00 -0.20850235925E+01  0.14820300960E+04  0.14820653818E+04  0.10000000000E+02 0.  1.
</event>
<event>
 5    1  0.1129619E-008  0.3801549E+03  0.7957747E-01  0.3450484E+00
         13   -1    0    0    0    0  0.00000000000E+00  0.00000000000E+00  0.14999999963E+04  0.15000000000E+04  0.10566000000E+00 0. -1.
        994   -1    0    0    0    0 -0.00000000000E+00 -0.00000000000E+00  0.11368683772E-12  0.17120000000E+03  0.17120000000E+03 0.  0.
         13    1    1    2    0    0  0.10487630095E+02 -0.10230586408E+02  0.25644496951E+02  0.29534838262E+02  0.10566000000E+00 0. -1.
        994    1    1    2    0    0 -0.56259998317E+01 -0.71776398950E+01  0.43329353516E+01  0.17149747729E+03  0.17120000000E+03 0.  0.
        998    1    1    2    0    0 -0.48616302634E+01  0.17408226303E+02  0.14700225640E+04  0.14701676844E+04  0.10000000000E+02 0. -1.
</event>
<event>
 5    1  0.1129619E-008  0.3836032E+03  0.7957747E-01  0.3435618E+00
         13   -1    0    0    0    0  0.00000000000E+00  0.00000000000E+00  0.14999999963E+04  0.15000000000E+04  0.10566000000E+00 0.  1.
        994   -1    0    0    0    0 -0.00000000000E+00 -0.00000000000E+00  0.11368683772E-12  0.17120000000E+03  0.17120000000E+03 0.  0.
         13    1    1    2    0    0 -0.12419255200E+02  0.76313406530E+01  0.45730334419E+02  0.47997394825E+02  0.10566000000E+00 0.  1.
        994    1    1    2    0    0 -0.34596246286E+00 -0.13173578112E+02  0.28991390914E+01  0.17173091701E+03  0.17120000000E+03 0.  0.
        998    1    1    2    0    0  0.12765217663E+02  0.55422374592E+01  0.14513705228E+04  0.14514716882E+04  0.10000000000E+02 0.  1.
</event>
<event>
 5    1  0.1129619E-008  0.3774907E+03  0.7957747E-01  0.3462158E+00
         13   -1    0    0    0    0  0.00000000000E+00  0.00000000000E+00  0.14999999963E+04  0.15000000000E+04  0.10566000000E+00 0.  1.
        994   -1    0    0    0    0 -0.00000000000E+00 -0.00000000000E+00  0.11368683772E-12  0.17120000000E+03  0.17120000000E+03 0.  0.
         13    1    1    2    0    0 -0.27312201744E+02 -0.52245174411E+00  0.64151599806E+02  0.69725664153E+02  0.10566000000E+00 0.  1.
        994    1    1    2    0    0  0.28890855776E+02  0.39066482537E+01  0.82756065308E+01  0.17386163784E+03  0.17120000000E+03 0.  0.
        998    1    1    2    0    0 -0.15786540323E+01 -0.33841965096E+01  0.14275727899E+04  0.14276126980E+04  0.10000000000E+02 0.  1.
</event>
<event>
 5    1  0.1129619E-008  0.3762472E+03  0.7957747E-01  0.3467663E+00
         13   -1    0    0    0    0  0.00000000000E+00  0.00000000000E+00  0.14999999963E+04  0.15000000000E+04  0.10566000000E+00 0.  1.
        994   -1    0    0    0    0 -0.00000000000E+00 -0.00000000000E+00  0.11368683772E-12  0.17120000000E+03  0.17120000000E+03 0.  0.
         13    1    1    2    0    0  0.22089300057E+02  0.16337192065E+02  0.60035721237E+02  0.66023783670E+02  0.10566000000E+00 0.  1.
        994    1    1    2    0    0 -0.12735839811E+02 -0.13818327072E+02  0.72359398861E+01  0.17238023844E+03  0.17120000000E+03 0.  0.
        998    1    1    2    0    0 -0.93534602458E+01 -0.25188649935E+01  0.14327283352E+04  0.14327959779E+04  0.10000000000E+02 0.  1.
</event>
<event>
 5    1  0.1129619E-008  0.3715709E+03  0.7957747E-01  0.3488702E+00
         13   -1    0    0    0    0  0.00000000000E+00  0.00000000000E+00  0.14999999963E+04  0.15000000000E+04  0.10566000000E+00 0. -1.
        994   -1    0    0    0    0 -0.00000000000E+00 -0.00000000000E+00  0.11368683772E-12  0.17120000000E+03  0.17120000000E+03 0.  0.
         13    1    1    2    0    0 -0.12813064907E+02  0.21610634190E+02  0.33578656789E+02  0.41937232839E+02  0.10566000000E+00 0. -1.
        994    1    1    2    0    0  0.14029966651E+02 -0.16176150679E+02  0.10028670576E+02  0.17282511984E+03  0.17120000000E+03 0.  0.
        998    1    1    2    0    0 -0.12169017441E+01 -0.54344835117E+01  0.14563926689E+04  0.14564376473E+04  0.10000000000E+02 0.  0.
</event>
<event>
 5    1  0.1129619E-008  0.3709031E+03  0.7957747E-01  0.3491751E+00
         13   -1    0    0    0    0  0.00000000000E+00  0.00000000000E+00  0.14999999963E+04  0.15000000000E+04  0.10566000000E+00 0. -1.
        994   -1    0    0    0    0 -0.00000000000E+00 -0.00000000000E+00  0.11368683772E-12  0.17120000000E+03  0.17120000000E+03 0.  0.
         13    1    1    2    0    0 -0.73556825165E+02  0.25367593693E+02  0.26606016763E+03  0.27720415816E+03  0.10566000000E+00 0. -1.
        994    1    1    2    0    0  0.69082602562E+02 -0.67404192453E+02  0.41628307040E+02  0.20089322309E+03  0.17120000000E+03 0.  0.
        998    1    1    2    0    0  0.44742226025E+01  0.42036598760E+02  0.11923115216E+04  0.11931026187E+04  0.10000000000E+02 0. -1.
</event>
<event>
 5    1  0.1129619E-008  0.3830754E+03  0.7957747E-01  0.3437876E+00
         13   -1    0    0    0    0  0.00000000000E+00  0.00000000000E+00  0.14999999963E+04  0.15000000000E+04  0.10566000000E+00 0. -1.
        994   -1    0    0    0    0 -0.00000000000E+00 -0.00000000000E+00  0.11368683772E-12  0.17120000000E+03  0.17120000000E+03 0.  0.
         13    1    1    2    0    0 -0.17988378273E+01 -0.10465082386E+02  0.20712682986E+02  0.23276171666E+02  0.10566000000E+00 0. -1.
        994    1    1    2    0    0  0.21224940439E+01  0.90026854243E+01  0.28718421985E+01  0.17147373211E+03  0.17120000000E+03 0.  0.
        998    1    1    2    0    0 -0.32365621661E+00  0.14623969621E+01  0.14764154711E+04  0.14764500962E+04  0.10000000000E+02 0.  0.
</event>
<event>
 5    1  0.1129619E-008  0.3785798E+03  0.7957747E-01  0.3457366E+00
         13   -1    0    0    0    0  0.00000000000E+00  0.00000000000E+00  0.14999999963E+04  0.15000000000E+04  0.10566000000E+00 0.  1.
        994   -1    0    0    0    0 -0.00000000000E+00 -0.00000000000E+00  0.11368683772E-12  0.17120000000E+03  0.17120000000E+03 0.  0.
         13    1    1    2    0    0  0.70638962219E+01  0.26341666850E+02  0.75197817727E+02  0.79990655687E+02  0.10566000000E+00 0.  1.
        994    1    1    2    0    0 -0.49587103311E+01 -0.15327490951E+02  0.57238854473E+01  0.17205151453E+03  0.17120000000E+03 0.  0.
        998    1    1    2    0    0 -0.21051858908E+01 -0.11014175899E+02  0.14190782931E+04  0.14191578298E+04  0.10000000000E+02 0.  1.
</event>
<event>
 5    1  0.1129619E-008  0.3827354E+03  0.7957747E-01  0.3439334E+00
         13   -1    0    0    0    0  0.00000000000E+00  0.00000000000E+00  0.14999999963E+04  0.15000000000E+04  0.10566000000E+00 0.  1.
        994   -1    0    0    0    0 -0.00000000000E+00 -0.00000000000E+00  0.11368683772E-12  0.17120000000E+03  0.17120000000E+03 0.  0.
         13    1    1    2    0    0  0.12865194598E+01 -0.11606473495E+02  0.24909129801E+02  0.27510748278E+02  0.10566000000E+00 0.  1.
        994    1    1    2    0    0  0.88234371602E+01 -0.59363817930E+01  0.31334272130E+01  0.17155859652E+03  0.17120000000E+03 0.  0.
        998    1    1    2    0    0 -0.10109956620E+02  0.17542855288E+02  0.14719574393E+04  0.14721306552E+04  0.10000000000E+02 0.  1.
</event>
<event>
 5    1  0.1129619E-008  0.3837553E+03  0.7957747E-01  0.3434968E+00
         13   -1    0    0    0    0  0.00000000000E+00  0.00000000000E+00  0.14999999963E+04  0.15000000000E+04  0.10566000000E+00 0. -1.
        994   -1    0    0    0    0 -0.00000000000E+00 -0.00000000000E+00  0.11368683772E-12  0.17120000000E+03  0.17120000000E+03 0.  0.
         13    1    1    2    0    0  0.15460041528E+02  0.62471905535E+01  0.58288465102E+02  0.60626698754E+02  0.10566000000E+00 0. -1.
        994    1    1    2    0    0 -0.15041139273E+02 -0.18042521368E+02  0.40734193873E+01  0.17285196323E+03  0.17120000000E+03 0.  0.
        998    1    1    2    0    0 -0.41890225519E+00  0.11795330815E+02  0.14376381118E+04  0.14377213380E+04  0.10000000000E+02 0. -1.
</event>
<event>
 5    1  0.1129619E-008  0.3843011E+03  0.7957747E-01  0.3432642E+00
         13   -1    0    0    0    0  0.00000000000E+00  0.00000000000E+00  0.14999999963E+04  0.15000000000E+04  0.10566000000E+00 0. -1.
        994   -1    0    0    0    0 -0.00000000000E+00 -0.00000000000E+00  0.11368683772E-12  0.17120000000E+03  0.17120000000E+03 0.  0.
         13    1    1    2    0    0  0.10495558850E+02 -0.17113911600E+02  0.10146026297E+03  0.10342745696E+03  0.10566000000E+00 0. -1.
        994    1    1    2    0    0 -0.51725421383E+01  0.11890712741E+02  0.25319673283E+01  0.17170904199E+03  0.17120000000E+03 0.  0.
        998    1    1    2    0    0 -0.53230167114E+01  0.52231988593E+01  0.13960077660E+04  0.13960635011E+04  0.10000000000E+02 0. -1.
</event>
<event>
 5    1  0.1129619E-008  0.3811447E+03  0.7957747E-01  0.3446189E+00
         13   -1    0    0    0    0  0.00000000000E+00  0.00000000000E+00  0.14999999963E+04  0.15000000000E+04  0.10566000000E+00 0. -1.
        994   -1    0    0    0    0 -0.00000000000E+00 -0.00000000000E+00  0.11368683772E-12  0.17120000000E+03  0.17120000000E+03 0.  0.
         13    1    1    2    0    0  0.26049024466E+02 -0.80848775458E+01  0.12430292767E+03  0.12726015052E+03  0.10566000000E+00 0. -1.
        994    1    1    2    0    0  0.16635878941E+02  0.12099875432E+02  0.49669605890E+01  0.17250295693E+03  0.17120000000E+03 0.  0.
        998    1    1    2    0    0 -0.42684903407E+02 -0.40149978863E+01  0.13707301080E+04  0.13714368925E+04  0.10000000000E+02 0. -1.
</event>
<event>
 5    1  0.1129619E-008  0.3806664E+03  0.7957747E-01  0.3448262E+00
         13   -1    0    0    0    0  0.00000000000E+00  0.00000000000E+00  0.14999999963E+04  0.15000000000E+04  0.10566000000E+00 0.  1.
        994   -1    0    0    0    0 -0.00000000000E+00 -0.00000000000E+00  0.11368683772E-12  0.17120000000E+03  0.17120000000E+03 0.  0.
         13    1    1    2    0    0 -0.18040036696E+02 -0.67803483618E+02  0.17488459949E+03  0.18843404580E+03  0.10566000000E+00 0.  1.
        994    1    1    2    0    0 -0.22155460389E+02 -0.19669192249E+01  0.18492822237E+02  0.17362648897E+03  0.17120000000E+03 0.  0.
        998    1    1    2    0    0  0.40195497085E+02  0.69770402843E+02  0.13066225746E+04  0.13091394652E+04  0.10000000000E+02 0.  1.
</event>
<event>
 5    1  0.1129619E-008  0.3786775E+03  0.7957747E-01  0.3456937E+00
         13   -1    0    0    0    0  0.00000000000E+00  0.00000000000E+00  0.14999999963E+04  0.15000000000E+04  0.10566000000E+00 0. -1.
        994   -1    0    0    0    0 -0.00000000000E+00 -0.00000000000E+00  0.11368683772E-12  0.17120000000E+03  0.17120000000E+03 0.  0.
         13    1    1    2    0    0  0.34244021357E+00  0.10388733073E+02  0.89189828676E+01  0.13696804722E+02  0.10566000000E+00 0. -1.
        994    1    1    2    0    0 -0.60120004460E+01 -0.15646683480E+02  0.57461649112E+01  0.17211455855E+03  0.17120000000E+03 0.  0.
        998    1    1    2    0    0  0.56695602325E+01  0.52579504070E+01  0.14853348485E+04  0.14853886367E+04  0.10000000000E+02 0. -1.
</event>
<event>
 5    1  0.1129619E-008  0.4548260E+03  0.7957747E-01  0.3178596E+00
         13   -1    0    0    0    0  0.00000000000E+00  0.00000000000E+00  0.14999999963E+04  0.15000000000E+04  0.10566000000E+00 0.  1.
        994   -1    0    0    0    0 -0.00000000000E+00 -0.00000000000E+00  0.11368683772E-12  0.17120000000E+03  0.17120000000E+03 0.  0.
         13    1    1    2    0    0  0.54291899979E+02 -0.45824632467E+02  0.17620074749E+02  0.73198261881E+02  0.10566000000E+00 0.  1.
        994    1    1    2    0    0 -0.51304568159E+02  0.35147867305E+02  0.85800026348E+02  0.20134203687E+03  0.17120000000E+03 0.  0.
        998    1    1    2    0    0 -0.29873318201E+01  0.10676765163E+02  0.13965798952E+04  0.13966597012E+04  0.10000000000E+02 0.  1.
</event>
<event>
 5    1  0.1129619E-008  0.3831818E+03  0.7957747E-01  0.3437420E+00
         13   -1    0    0    0    0  0.00000000000E+00  0.00000000000E+00  0.14999999963E+04  0.15000000000E+04  0.10566000000E+00 0.  1.
        994   -1    0    0    0    0 -0.00000000000E+00 -0.00000000000E+00  0.11368683772E-12  0.17120000000E+03  0.17120000000E+03 0.  0.
         13    1    1    2    0    0 -0.66214156850E+01  0.10419240156E+02  0.27202819178E+02  0.29873202814E+02  0.10566000000E+00 0.  1.
        994    1    1    2    0    0  0.16344658509E+02 -0.23499032144E+02  0.52508205515E+01  0.17365587664E+03  0.17120000000E+03 0.  0.
        998    1    1    2    0    0 -0.97232428237E+01  0.13079791988E+02  0.14675463565E+04  0.14676709206E+04  0.10000000000E+02 0.  1.
</event>
<event>
 5    1  0.1129619E-008  0.3753577E+03  0.7957747E-01  0.3471625E+00
         13   -1    0    0    0    0  0.00000000000E+00  0.00000000000E+00  0.14999999963E+04  0.15000000000E+04  0.10566000000E+00 0. -1.
        994   -1    0    0    0    0 -0.00000000000E+00 -0.00000000000E+00  0.11368683772E-12  0.17120000000E+03  0.17120000000E+03 0.  0.
         13    1    1    2    0    0 -0.42789709227E+02  0.54642294534E+02  0.14597739962E+03  0.16163586215E+03  0.10566000000E+00 0. -1.
        994    1    1    2    0    0  0.45564884695E+02 -0.68856541875E+02  0.38508444060E+02  0.19393226225E+03  0.17120000000E+03 0.  0.
        998    1    1    2    0    0 -0.27751754679E+01  0.14214247342E+02  0.13155141526E+04  0.13156318756E+04  0.10000000000E+02 0. -1.
</event>
<event>
 5    1  0.1129619E-008  0.3790178E+03  0.7957747E-01  0.3455447E+00
         13   -1    0    0    0    0  0.00000000000E+00  0.00000000000E+00  0.14999999963E+04  0.15000000000E+04  0.10566000000E+00 0. -1.
        994   -1    0    0    0    0 -0.00000000000E+00 -0.00000000000E+00  0.11368683772E-12  0.17120000000E+03  0.17120000000E+03 0.  0.
         13    1    1    2    0    0 -0.94936749841E+01  0.42788045026E+02  0.20745810526E+03  0.21203731573E+03  0.10566000000E+00 0. -1.
        994    1    1    2    0    0 -0.44942988402E+01 -0.25904222228E+02  0.69514940072E+01  0.17334644709E+03  0.17120000000E+03 0.  0.
        998    1    1    2    0    0  0.13987973824E+02 -0.16883822798E+02  0.12855903970E+04  0.12858162372E+04  0.10000000000E+02 0. -1.
</event>
<event>
 5    1  0.1129619E-008  0.3778126E+03  0.7957747E-01  0.3460739E+00
         13   -1    0    0    0    0  0.00000000000E+00  0.00000000000E+00  0.14999999963E+04  0.15000000000E+04  0.10566000000E+00 0.  1.
        994   -1    0    0    0    0 -0.00000000000E+00 -0.00000000000E+00  0.11368683772E-12  0.17120000000E+03  0.17120000000E+03 0.  0.
         13    1    1    2    0    0 -0.18747392734E+01 -0.13991862875E+02  0.16766506097E+02  0.21918343112E+02  0.10566000000E+00 0.  1.
        994    1    1    2    0    0  0.65289587295E+01  0.87438822410E+01  0.56425287832E+01  0.17164020773E+03  0.17120000000E+03 0.  0.
        998    1    1    2    0    0 -0.46542194562E+01  0.52479806343E+01  0.14775909614E+04  0.14776414492E+04  0.10000000000E+02 0.  1.
</event>
<event>
 5    1  0.1129619E-008  0.3716486E+03  0.7957747E-01  0.3488348E+00
         13   -1    0    0    0    0  0.00000000000E+00  0.00000000000E+00  0.14999999963E+04  0.15000000000E+04  0.10566000000E+00 0.  1.
        994   -1    0    0    0    0 -0.00000000000E+00 -0.00000000000E+00  0.11368683772E-12  0.17120000000E+03  0.17120000000E+03 0.  0.
         13    1    1    2    0    0  0.92129280709E+01 -0.11259914229E+02  0.35469498107E+01  0.14975170419E+02  0.10566000000E+00 0.  1.
        994    1    1    2    0    0 -0.86271727147E+01  0.91978835391E+01  0.12372577390E+02  0.17210912190E+03  0.17120000000E+03 0.  0.
        998    1    1    2    0    0 -0.58575535622E+00  0.20620306899E+01  0.14840804691E+04  0.14841157077E+04  0.10000000000E+02 0.  1.
</event>
<event>
 5    1  0.1129619E-008  0.3810857E+03  0.7957747E-01  0.3446445E+00
         13   -1    0    0    0    0  0.00000000000E+00  0.00000000000E+00  0.14999999963E+04  0.15000000000E+04  0.10566000000E+00 0.  1.
        994   -1    0    0    0    0 -0.00000000000E+00 -0.00000000000E+00  0.11368683772E-12  0.17120000000E+03  0.17120000000E+03 0.  0.
         13    1    1    2    0    0 -0.10106809912E+02 -0.20256884767E+02  0.68687511470E+02  0.72322018660E+02  0.10566000000E+00 0.  1.
        994    1    1    2    0    0  0.67058084607E+01  0.18060458219E+02  0.48233563307E+01  0.17234805710E+03  0.17120000000E+03 0.  0.
        998    1    1    2    0    0  0.34010014515E+01  0.21964265478E+01  0.14264891285E+04  0.14265299242E+04  0.10000000000E+02 0.  1.
</event>
<event>
 5    1  0.1129619E-008  0.3830088E+03  0.7957747E-01  0.3438161E+00
         13   -1    0    0    0    0  0.00000000000E+00  0.00000000000E+00  0.14999999963E+04  0.15000000000E+04  0.10566000000E+00 0.  1.
        994   -1    0    0    0    0 -0.00000000000E+00 -0.00000000000E+00  0.11368683772E-12  0.17120000000E+03  0.17120000000E+03 0.  0.
         13    1    1    2    0    0  0.12129527661E+02 -0.72213596049E+01  0.37203180128E+02  0.39791472095E+02  0.10566000000E+00 0.  1.
        994    1    1    2    0    0  0.22014795009E+02  0.57563485624E+02  0.15297331462E+02  0.18259697266E+03  0.17120000000E+03 0.  0.
        998    1    1    2    0    0 -0.34144322670E+02 -0.50342126019E+02  0.14474994847E+04  0.14488115552E+04  0.10000000000E+02 0.  1.
</event>
<event>
 5    1  0.1241494E-008  0.3861112E+03  0.7957747E-01  0.3424973E+00
         13   -1    0    0    0    0  0.00000000000E+00  0.00000000000E+00  0.14999999963E+04  0.15000000000E+04  0.10566000000E+00 0.  1.
        994   -1    0    0    0    0 -0.00000000000E+00 -0.00000000000E+00  0.11368683772E-12  0.17120000000E+03  0.17120000000E+03 0.  0.
         13    1    1    2    0    0  0.96673088925E+01 -0.54277127729E+01  0.52689528398E+02  0.53843425727E+02  0.10566000000E+00 0.  1.
        994    1    1    2    0    0 -0.30639271968E+02 -0.10526960161E+02  0.45263475547E+01  0.17429718787E+03  0.17120000000E+03 0.  0.
        998    1    1    2    0    0  0.20971963075E+02  0.15954672933E+02  0.14427841203E+04  0.14430593864E+04  0.10000000000E+02 0.  1.
</event>
<event>
 5    1  0.1129619E-008  0.3802450E+03  0.7957747E-01  0.3450093E+00
         13   -1    0    0    0    0  0.00000000000E+00  0.00000000000E+00  0.14999999963E+04  0.15000000000E+04  0.10566000000E+00 0. -1.
        994   -1    0    0    0    0 -0.00000000000E+00 -0.00000000000E+00  0.11368683772E-12  0.17120000000E+03  0.17120000000E+03 0.  0.
         13    1    1    2    0    0  0.53625830349E+01 -0.91954878993E+01  0.12328016315E+02  0.16288199557E+02  0.10566000000E+00 0. -1.
        994    1    1    2    0    0 -0.66234940868E+01  0.72651990064E+01  0.43324500094E+01  0.17153677132E+03  0.17120000000E+03 0.  0.
        998    1    1    2    0    0  0.12609110519E+01  0.19302888929E+01  0.14833395300E+04  0.14833750291E+04  0.10000000000E+02 0. -1.
</event>
<event>
 5    1  0.1129619E-008  0.3849322E+03  0.7957747E-01  0.3429960E+00
         13   -1    0    0    0    0  0.00000000000E+00  0.00000000000E+00  0.14999999963E+04  0.15000000000E+04  0.10566000000E+00 0. -1.
        994   -1    0    0    0    0 -0.00000000000E+00 -0.00000000000E+00  0.11368683772E-12  0.17120000000E+03  0.17120000000E+03 0.  0.
         13    1    1    2    0    0 -0.19203027880E+02 -0.44910272618E+01  0.11776193090E+03  0.11940188080E+03  0.10566000000E+00 0. -1.
        994    1    1    2    0    0  0.10345607578E+02  0.65128574733E+01  0.21555334431E+01  0.17164945451E+03  0.17120000000E+03 0.  0.
        998    1    1    2    0    0  0.88574203020E+01 -0.20218302115E+01  0.13800825319E+04  0.13801486647E+04  0.10000000000E+02 0. -1.
</event>
<event>
 5    1  0.1129619E-008  0.3755986E+03  0.7957747E-01  0.3470550E+00
         13   -1    0    0    0    0  0.00000000000E+00  0.00000000000E+00  0.14999999963E+04  0.15000000000E+04  0.10566000000E+00 0. -1.
        994   -1    0    0    0    0 -0.00000000000E+00 -0.00000000000E+00  0.11368683772E-12  0.17120000000E+03  0.17120000000E+03 0.  0.
         13    1    1    2    0    0 -0.87991902563E+01 -0.60974499926E+01  0.62480845357E+01  0.12395739993E+02  0.10566000000E+00 0. -1.
        994    1    1    2    0    0 -0.20878511289E+02  0.19750775387E+02  0.91788350527E+01  0.17383813268E+03  0.17120000000E+03 0.  0.
        998    1    1    2    0    0  0.29677701545E+02 -0.13653325394E+02  0.14845730767E+04  0.14849661273E+04  0.10000000000E+02 0. -1.
</event>
<event>
 5    1  0.1129619E-008  0.3773774E+03  0.7957747E-01  0.3462658E+00
         13   -1    0    0    0    0  0.00000000000E+00  0.00000000000E+00  0.14999999963E+04  0.15000000000E+04  0.10566000000E+00 0. -1.
        994   -1    0    0    0    0 -0.00000000000E+00 -0.00000000000E+00  0.11368683772E-12  0.17120000000E+03  0.17120000000E+03 0.  0.
         13    1    1    2    0    0 -0.48715312513E+02  0.18305747986E+03  0.10062253865E+04  0.10239007580E+04  0.10566000000E+00 0. -1.
        994    1    1    2    0    0  0.37740526181E+02 -0.17933106432E+03  0.12865860015E+03  0.28186247238E+03  0.17120000000E+03 0.  0.
        998    1    1    2    0    0  0.10974786332E+02 -0.37264155353E+01  0.36511600958E+03  0.36543676958E+03  0.10000000000E+02 0.  0.
</event>
<event>
 5    1  0.1129619E-008  0.3812758E+03  0.7957747E-01  0.3445622E+00
         13   -1    0    0    0    0  0.00000000000E+00  0.00000000000E+00  0.14999999963E+04  0.15000000000E+04  0.10566000000E+00 0.  1.
        994   -1    0    0    0    0 -0.00000000000E+00 -0.00000000000E+00  0.11368683772E-12  0.17120000000E+03  0.17120000000E+03 0.  0.
         13    1    1    2    0    0  0.78714205152E+01 -0.22320800407E+02  0.78878956136E+02  0.82353374411E+02  0.10566000000E+00 0.  1.
        994    1    1    2    0    0 -0.90043240239E+00  0.15895624289E+02  0.43347713183E+01  0.17199334840E+03  0.17120000000E+03 0.  0.
        998    1    1    2    0    0 -0.69709881128E+01  0.64251761186E+01  0.14167862688E+04  0.14168532772E+04  0.10000000000E+02 0.  1.
</event>
<event>
 5    1  0.1129619E-008  0.3841735E+03  0.7957747E-01  0.3433185E+00
         13   -1    0    0    0    0  0.00000000000E+00  0.00000000000E+00  0.14999999963E+04  0.15000000000E+04  0.10566000000E+00 0. -1.
        994   -1    0    0    0    0 -0.00000000000E+00 -0.00000000000E+00  0.11368683772E-12  0.17120000000E+03  0.17120000000E+03 0.  0.
         13    1    1    2    0    0 -0.37614979262E+01 -0.14332620324E+02  0.52899430560E+02  0.54935724166E+02  0.10566000000E+00 0. -1.
        994    1    1    2    0    0 -0.41998927477E+01  0.13153779160E+02  0.26700126032E+01  0.17177668635E+03  0.17120000000E+03 0.  0.
        998    1    1    2    0    0  0.79613906739E+01  0.11788411639E+01  0.14444305531E+04  0.14444875895E+04  0.10000000000E+02 0. -1.
</event>
<event>
 5    1  0.1129619E-008  0.3843011E+03  0.7957747E-01  0.3432642E+00
         13   -1    0    0    0    0  0.00000000000E+00  0.00000000000E+00  0.14999999963E+04  0.15000000000E+04  0.10566000000E+00 0. -1.
        994   -1    0    0    0    0 -0.00000000000E+00 -0.00000000000E+00  0.11368683772E-12  0.17120000000E+03  0.17120000000E+03 0.  0.
         13    1    1    2    0    0  0.19001439147E+02  0.17599101198E+01  0.78305348193E+02  0.80597088613E+02  0.10566000000E+00 0. -1.
        994    1    1    2    0    0 -0.36804382380E+02 -0.14762802891E+02  0.71779910927E+01  0.17587912459E+03  0.17120000000E+03 0.  0.
        998    1    1    2    0    0  0.17802943233E+02  0.13002892771E+02  0.14145166570E+04  0.14147237868E+04  0.10000000000E+02 0. -1.
</event>
<event>
 5    1  0.1129619E-008  0.3705047E+03  0.7957747E-01  0.3493575E+00
         13   -1    0    0    0    0  0.00000000000E+00  0.00000000000E+00  0.14999999963E+04  0.15000000000E+04  0.10566000000E+00 0.  1.
        994   -1    0    0    0    0 -0.00000000000E+00 -0.00000000000E+00  0.11368683772E-12  0.17120000000E+03  0.17120000000E+03 0.  0.
         13    1    1    2    0    0  0.32141553258E+01  0.95636799705E+01  0.15039199769E+01  0.10201358163E+02  0.10566000000E+00 0.  1.
        994    1    1    2    0    0  0.43595751571E+01 -0.83729204657E+00  0.90735673722E+01  0.17149774511E+03  0.17120000000E+03 0.  0.
        998    1    1    2    0    0 -0.75737304829E+01 -0.87263879239E+01  0.14894225089E+04  0.14895008967E+04  0.10000000000E+02 0.  1.
</event>
<event>
 5    1  0.1129619E-008  0.3828786E+03  0.7957747E-01  0.3438719E+00
         13   -1    0    0    0    0  0.00000000000E+00  0.00000000000E+00  0.14999999963E+04  0.15000000000E+04  0.10566000000E+00 0. -1.
        994   -1    0    0    0    0 -0.00000000000E+00 -0.00000000000E+00  0.11368683772E-12  0.17120000000E+03  0.17120000000E+03 0.  0.
         13    1    1    2    0    0  0.22057137623E+02  0.51121732184E+01  0.11909831875E+03  0.12123148241E+03  0.10566000000E+00 0. -1.
        994    1    1    2    0    0  0.17723000449E+02  0.50134978954E+01  0.38112026188E+01  0.17223009369E+03  0.17120000000E+03 0.  0.
        998    1    1    2    0    0 -0.39780138072E+02 -0.10125671114E+02  0.13770904749E+04  0.13777384239E+04  0.10000000000E+02 0. -1.
</event>
<event>
 5    1  0.1129619E-008  0.3865900E+03  0.7957747E-01  0.3422957E+00
         13   -1    0    0    0    0  0.00000000000E+00  0.00000000000E+00  0.14999999963E+04  0.15000000000E+04  0.10566000000E+00 0. -1.
        994   -1    0    0    0    0 -0.00000000000E+00 -0.00000000000E+00  0.11368683772E-12  0.17120000000E+03  0.17120000000E+03 0.  0.
         13    1    1    2    0    0  0.21177814647E+02  0.12473727837E+03  0.31435307696E+03  0.33885949390E+03  0.10566000000E+00 0. -1.
        994    1    1    2    0    0 -0.31940637646E+02 -0.11667585663E+03  0.76623732174E+02  0.22319071707E+03  0.17120000000E+03 0.  0.
        998    1    1    2    0    0  0.10762822999E+02 -0.80614217465E+01  0.11090231871E+04  0.11091497890E+04  0.10000000000E+02 0. -1.
</event>
<event>
 5    1  0.1129619E-008  0.3822685E+03  0.7957747E-01  0.3441340E+00
         13   -1    0    0    0    0  0.00000000000E+00  0.00000000000E+00  0.14999999963E+04  0.15000000000E+04  0.10566000000E+00 0. -1.
        994   -1    0    0    0    0 -0.00000000000E+00 -0.00000000000E+00  0.11368683772E-12  0.17120000000E+03  0.17120000000E+03 0.  0.
         13    1    1    2    0    0 -0.11121887080E+02  0.16397707736E+02  0.63318236687E+02  0.66345998014E+02  0.10566000000E+00 0. -1.
        994    1    1    2    0    0  0.10330171789E+02 -0.13616683774E+02  0.39622497900E+01  0.17209667617E+03  0.17120000000E+03 0.  0.
        998    1    1    2    0    0  0.79171529149E+00 -0.27810239624E+01  0.14327195098E+04  0.14327573258E+04  0.10000000000E+02 0. -1.
</event>
<event>
 5    1  0.1129619E-008  0.3765174E+03  0.7957747E-01  0.3466464E+00
         13   -1    0    0    0    0  0.00000000000E+00  0.00000000000E+00  0.14999999963E+04  0.15000000000E+04  0.10566000000E+00 0. -1.
        994   -1    0    0    0    0 -0.00000000000E+00 -0.00000000000E+00  0.11368683772E-12  0.17120000000E+03  0.17120000000E+03 0.  0.
         13    1    1    2    0    0 -0.15196093173E+02 -0.87406663453E+01  0.23535939165E+02  0.29347437576E+02  0.10566000000E+00 0. -1.
        994    1    1    2    0    0  0.96412641363E+01  0.83179359979E+01  0.64500841662E+01  0.17179402091E+03  0.17120000000E+03 0.  0.
        998    1    1    2    0    0  0.55548290371E+01  0.42273034737E+00  0.14700139729E+04  0.14700585415E+04  0.10000000000E+02 0. -1.
</event>
<event>
 5    1  0.1129619E-008  0.3830496E+03  0.7957747E-01  0.3437986E+00
         13   -1    0    0    0    0  0.00000000000E+00  0.00000000000E+00  0.14999999963E+04  0.15000000000E+04  0.10566000000E+00 0.  1.
        994   -1    0    0    0    0 -0.00000000000E+00 -0.00000000000E+00  0.11368683772E-12  0.17120000000E+03  0.17120000000E+03 0.  0.
         13    1    1    2    0    0  0.23332499193E+02 -0.75136927858E+01  0.10709430657E+03  0.10986383737E+03  0.10566000000E+00 0.  1.
        994    1    1    2    0    0 -0.24721234032E+02  0.70778992634E+01  0.47930571873E+01  0.17318674738E+03  0.17120000000E+03 0.  0.
        998    1    1    2    0    0  0.13887348384E+01  0.43579352234E+00  0.13881126325E+04  0.13881494153E+04  0.10000000000E+02 0.  1.
</event>
<event>
 5    1  0.1129619E-008  0.4248593E+03  0.7957747E-01  0.3276424E+00
         13   -1    0    0    0    0  0.00000000000E+00  0.00000000000E+00  0.14999999963E+04  0.15000000000E+04  0.10566000000E+00 0. -1.
        994   -1    0    0    0    0 -0.00000000000E+00 -0.00000000000E+00  0.11368683772E-12  0.17120000000E+03  0.17120000000E+03 0.  0.
         13    1    1    2    0    0 -0.78875661616E+02  0.80217065121E+02  0.12677604466E+03  0.16949431906E+03  0.10566000000E+00 0. -1.
        994    1    1    2    0    0  0.86443223938E+02 -0.55475131711E+02  0.91389181473E+02  0.21957081704E+03  0.17120000000E+03 0.  0.
        998    1    1    2    0    0 -0.75675623220E+01 -0.24741933409E+02  0.12818347701E+04  0.12821348639E+04  0.10000000000E+02 0. -1.
</event>
<event>
 5    1  0.1129619E-008  0.3852916E+03  0.7957747E-01  0.3428437E+00
         13   -1    0    0    0    0  0.00000000000E+00  0.00000000000E+00  0.14999999963E+04  0.15000000000E+04  0.10566000000E+00 0. -1.
        994   -1    0    0    0    0 -0.00000000000E+00 -0.00000000000E+00  0.11368683772E-12  0.17120000000E+03  0.17120000000E+03 0.  0.
         13    1    1    2    0    0  0.10591877368E+02  0.43316053074E+01  0.43268201179E+02  0.44755994772E+02  0.10566000000E+00 0. -1.
        994    1    1    2    0    0 -0.11034966733E+02 -0.29342272680E+01  0.19139316551E+01  0.17159103507E+03  0.17120000000E+03 0.  0.
        998    1    1    2    0    0  0.44308936442E+00 -0.13973780394E+01  0.14548178634E+04  0.14548529702E+04  0.10000000000E+02 0. -1.
</event>
<event>
 5    1  0.1129619E-008  0.3857262E+03  0.7957747E-01  0.3426598E+00
         13   -1    0    0    0    0  0.00000000000E+00  0.00000000000E+00  0.14999999963E+04  0.15000000000E+04  0.10566000000E+00 0.  1.
        994   -1    0    0    0    0 -0.00000000000E+00 -0.00000000000E+00  0.11368683772E-12  0.17120000000E+03  0.17120000000E+03 0.  0.
         13    1    1    2    0    0  0.14858200950E+01  0.11910413698E+02  0.54857606296E+02  0.56155442731E+02  0.10566000000E+00 0.  1.
        994    1    1    2    0    0  0.24309586428E+01 -0.14767198079E+02  0.20052212730E+01  0.17186459965E+03  0.17120000000E+03 0.  0.
        998    1    1    2    0    0 -0.39167787378E+01  0.28567843817E+01  0.14431371687E+04  0.14431799576E+04  0.10000000000E+02 0.  1.
</event>
<event>
 5    1  0.1129619E-008  0.3806723E+03  0.7957747E-01  0.3448236E+00
         13   -1    0    0    0    0  0.00000000000E+00  0.00000000000E+00  0.14999999963E+04  0.15000000000E+04  0.10566000000E+00 0. -1.
        994   -1    0    0    0    0 -0.00000000000E+00 -0.00000000000E+00  0.11368683772E-12  0.17120000000E+03  0.17120000000E+03 0.  0.
         13    1    1    2    0    0 -0.17211332587E+02  0.10565790802E+02  0.51319335375E+02  0.55150260671E+02  0.10566000000E+00 0. -1.
        994    1    1    2    0    0  0.13159419257E+02 -0.13575958684E+02  0.49874411888E+01  0.17231306259E+03  0.17120000000E+03 0.  0.
        998    1    1    2    0    0  0.40519133303E+01  0.30101678829E+01  0.14436932197E+04  0.14437366767E+04  0.10000000000E+02 0. -1.
</event>
<event>
 5    1  0.1129619E-008  0.3812177E+03  0.7957747E-01  0.3445873E+00
         13   -1    0    0    0    0  0.00000000000E+00  0.00000000000E+00  0.14999999963E+04  0.15000000000E+04  0.10566000000E+00 0. -1.
        994   -1    0    0    0    0 -0.00000000000E+00 -0.00000000000E+00  0.11368683772E-12  0.17120000000E+03  0.17120000000E+03 0.  0.
         13    1    1    2    0    0 -0.21548907896E+02  0.99382454747E+01  0.78205057584E+02  0.81726166865E+02  0.10566000000E+00 0. -1.
        994    1    1    2    0    0  0.15473408935E+02 -0.56120875246E+01  0.44222726417E+01  0.17204626821E+03  0.17120000000E+03 0.  0.
        998    1    1    2    0    0  0.60754989610E+01 -0.43261579500E+01  0.14173726661E+04  0.14174275649E+04  0.10000000000E+02 0. -1.
</event>
<event>
 5    1  0.1129619E-008  0.2955310E+03  0.7957747E-01  0.3928449E+00
         13   -1    0    0    0    0  0.00000000000E+00  0.00000000000E+00  0.14999999963E+04  0.15000000000E+04  0.10566000000E+00 0.  1.
        994   -1    0    0    0    0 -0.00000000000E+00 -0.00000000000E+00  0.11368683772E-12  0.17120000000E+03  0.17120000000E+03 0.  0.
         13    1    1    2    0    0  0.17316359043E+03  0.11649243445E+03  0.65935470222E+03  0.69159580019E+03  0.10566000000E+00 0.  1.
        994    1    1    2    0    0 -0.95208503570E+02 -0.13112210237E+03  0.13948999341E+03  0.27390612104E+03  0.17120000000E+03 0.  0.
        998    1    1    2    0    0 -0.77955086861E+02  0.14629667916E+02  0.70115530065E+03  0.70569807877E+03  0.10000000000E+02 0.  1.
</event>
<event>
 5    1  0.1129619E-008  0.3780738E+03  0.7957747E-01  0.3459589E+00
         13   -1    0    0    0    0  0.00000000000E+00  0.00000000000E+00  0.14999999963E+04  0.15000000000E+04  0.10566000000E+00 0.  1.
        994   -1    0    0    0    0 -0.00000000000E+00 -0.00000000000E+00  0.11368683772E-12  0.17120000000E+03  0.17120000000E+03 0.  0.
         13    1    1    2    0    0 -0.38679146388E+02  0.10723633528E+02  0.14770915536E+03  0.15306560169E+03  0.10566000000E+00 0.  1.
        994    1    1    2    0    0  0.32351646477E+02 -0.73623652333E+01  0.88211430184E+01  0.17460837900E+03  0.17120000000E+03 0.  0.
        998    1    1    2    0    0  0.63274999109E+01 -0.33612682948E+01  0.13434696979E+04  0.13435260193E+04  0.10000000000E+02 0.  1.
</event>
<event>
 5    1  0.1129619E-008  0.3827933E+03  0.7957747E-01  0.3439085E+00
         13   -1    0    0    0    0  0.00000000000E+00  0.00000000000E+00  0.14999999963E+04  0.15000000000E+04  0.10566000000E+00 0.  1.
        994   -1    0    0    0    0 -0.00000000000E+00 -0.00000000000E+00  0.11368683772E-12  0.17120000000E+03  0.17120000000E+03 0.  0.
         13    1    1    2    0    0  0.99573542671E+01  0.15218846004E+02  0.55659240557E+02  0.58555310614E+02  0.10566000000E+00 0.  1.
        994    1    1    2    0    0 -0.27491684980E+02 -0.14642164035E+02  0.59499210929E+01  0.17411211121E+03  0.17120000000E+03 0.  0.
        998    1    1    2    0    0  0.17534330713E+02 -0.57668196906E+00  0.14383908346E+04  0.14385325782E+04  0.10000000000E+02 0.  1.
</event>
<event>
 5    1  0.1129619E-008  0.3745573E+03  0.7957747E-01  0.3475205E+00
         13   -1    0    0    0    0  0.00000000000E+00  0.00000000000E+00  0.14999999963E+04  0.15000000000E+04  0.10566000000E+00 0.  1.
        994   -1    0    0    0    0 -0.00000000000E+00 -0.00000000000E+00  0.11368683772E-12  0.17120000000E+03  0.17120000000E+03 0.  0.
         13    1    1    2    0    0  0.77779674539E+01 -0.71105975288E+01  0.48324210125E+01  0.11593999819E+02  0.10566000000E+00 0.  1.
        994    1    1    2    0    0 -0.65330679737E+01  0.63334675053E+01  0.71881602598E+01  0.17159225925E+03  0.17120000000E+03 0.  0.
        998    1    1    2    0    0 -0.12448994802E+01  0.77713002357E+00  0.14879794150E+04  0.14880137409E+04  0.10000000000E+02 0.  1.
</event>
<event>
 5    1  0.1129619E-008  0.3843637E+03  0.7957747E-01  0.3432375E+00
         13   -1    0    0    0    0  0.00000000000E+00  0.00000000000E+00  0.14999999963E+04  0.15000000000E+04  0.10566000000E+00 0. -1.
        994   -1    0    0    0    0 -0.00000000000E+00 -0.00000000000E+00  0.11368683772E-12  0.17120000000E+03  0.17120000000E+03 0.  0.
         13    1    1    2    0    0 -0.67654880046E+01 -0.10383044643E+02  0.39054579449E+02  0.40973781666E+02  0.10566000000E+00 0. -1.
        994    1    1    2    0    0  0.43840577934E+01  0.71376481667E+01  0.21776617198E+01  0.17141863433E+03  0.17120000000E+03 0.  0.
        998    1    1    2    0    0  0.23814302112E+01  0.32453964766E+01  0.14587677551E+04  0.14588075840E+04  0.10000000000E+02 0. -1.
</event>
<event>
 5    1  0.1129619E-008  0.3727527E+03  0.7957747E-01  0.3483335E+00
         13   -1    0    0    0    0  0.00000000000E+00  0.00000000000E+00  0.14999999963E+04  0.15000000000E+04  0.10566000000E+00 0. -1.
        994   -1    0    0    0    0 -0.00000000000E+00 -0.00000000000E+00  0.11368683772E-12  0.17120000000E+03  0.17120000000E+03 0.  0.
         13    1    1    2    0    0  0.95187566187E+01 -0.40662408258E+01  0.31786574249E+01  0.10828484154E+02  0.10566000000E+00 0. -1.
        994    1    1    2    0    0 -0.10282067601E+02 -0.22188770157E+01  0.82163945939E+01  0.17171951977E+03  0.17120000000E+03 0.  0.
        998    1    1    2    0    0  0.76331098253E+00  0.62851178415E+01  0.14886049443E+04  0.14886519961E+04  0.10000000000E+02 0. -1.
</event>
<event>
 5    1  0.1129619E-008  0.3789294E+03  0.7957747E-01  0.3455833E+00
         13   -1    0    0    0    0  0.00000000000E+00  0.00000000000E+00  0.14999999963E+04  0.15000000000E+04  0.10566000000E+00 0.  1.
        994   -1    0    0    0    0 -0.00000000000E+00 -0.00000000000E+00  0.11368683772E-12  0.17120000000E+03  0.17120000000E+03 0.  0.
         13    1    1    2    0    0  0.30385737055E+00  0.32903145070E+02  0.29101857655E+02  0.43927651517E+02  0.10566000000E+00 0.  1.
        994    1    1    2    0    0  0.58614963789E+02 -0.60207968903E+01  0.28380614648E+02  0.18326719091E+03  0.17120000000E+03 0.  0.
        998    1    1    2    0    0 -0.58918821159E+02 -0.26882348179E+02  0.14425175240E+04  0.14440051576E+04  0.10000000000E+02 0.  1.
</event>
<event>
 5    1  0.1129619E-008  0.3838650E+03  0.7957747E-01  0.3434500E+00
         13   -1    0    0    0    0  0.00000000000E+00  0.00000000000E+00  0.14999999963E+04  0.15000000000E+04  0.10566000000E+00 0. -1.
        994   -1    0    0    0    0 -0.00000000000E+00 -0.00000000000E+00  0.11368683772E-12  0.17120000000E+03  0.17120000000E+03 0.  0.
         13    1    1    2    0    0 -0.10001667877E+02 -0.22925519804E+02  0.12151648550E+03  0.12406401667E+03  0.10566000000E+00 0. -1.
        994    1    1    2    0    0 -0.15851602994E+02  0.48609045592E+02  0.10871597532E+02  0.17900207894E+03  0.17120000000E+03 0.  0.
        998    1    1    2    0    0  0.25853270870E+02 -0.25683525788E+02  0.13676119132E+04  0.13681339044E+04  0.10000000000E+02 0. -1.
</event>
<event>
 5    1  0.1129619E-008  0.3852472E+03  0.7957747E-01  0.3428624E+00
         13   -1    0    0    0    0  0.00000000000E+00  0.00000000000E+00  0.14999999963E+04  0.15000000000E+04  0.10566000000E+00 0. -1.
        994   -1    0    0    0    0 -0.00000000000E+00 -0.00000000000E+00  0.11368683772E-12  0.17120000000E+03  0.17120000000E+03 0.  0.
         13    1    1    2    0    0  0.12808508589E+02  0.40114690293E+01  0.60662683206E+02  0.62129880684E+02  0.10566000000E+00 0. -1.
        994    1    1    2    0    0 -0.72827060275E+01  0.17144427756E+00  0.16818457373E+01  0.17136316934E+03  0.17120000000E+03 0.  0.
        998    1    1    2    0    0 -0.55258025610E+01 -0.41829133068E+01  0.14376554673E+04  0.14377069500E+04  0.10000000000E+02 0. -1.
</event>
<event>
 5    1  0.1265427E-008  0.3861548E+03  0.7957747E-01  0.3424789E+00
         13   -1    0    0    0    0  0.00000000000E+00  0.00000000000E+00  0.14999999963E+04  0.15000000000E+04  0.10566000000E+00 0. -1.
        994   -1    0    0    0    0 -0.00000000000E+00 -0.00000000000E+00  0.11368683772E-12  0.17120000000E+03  0.17120000000E+03 0.  0.
         13    1    1    2    0    0 -0.71911344441E+01  0.94730266541E+01  0.62885465662E+02  0.64000340656E+02  0.10566000000E+00 0. -1.
        994    1    1    2    0    0  0.12825005439E+02 -0.12758411033E+02  0.21308445275E+01  0.17216631005E+03  0.17120000000E+03 0.  0.
        998    1    1    2    0    0 -0.56338709953E+01  0.32853843788E+01  0.14349836861E+04  0.14350333493E+04  0.10000000000E+02 0. -1.
</event>
<event>
 5    1  0.1129619E-008  0.3812829E+03  0.7957747E-01  0.3445592E+00
         13   -1    0    0    0    0  0.00000000000E+00  0.00000000000E+00  0.14999999963E+04  0.15000000000E+04  0.10566000000E+00 0.  1.
        994   -1    0    0    0    0 -0.00000000000E+00 -0.00000000000E+00  0.11368683772E-12  0.17120000000E+03  0.17120000000E+03 0.  0.
         13    1    1    2    0    0 -0.55570379048E+01 -0.10142947300E+02  0.17528461658E+02  0.21000432908E+02  0.10566000000E+00 0.  1.
        994    1    1    2    0    0 -0.10163410653E+01  0.14972909036E+02  0.42370320930E+01  0.17190873566E+03  0.17120000000E+03 0.  0.
        998    1    1    2    0    0  0.65733789701E+01 -0.48299617361E+01  0.14782345025E+04  0.14782908314E+04  0.10000000000E+02 0.  1.
</event>
<event>
 5    1  0.1129619E-008  0.3764618E+03  0.7957747E-01  0.3466711E+00
         13   -1    0    0    0    0  0.00000000000E+00  0.00000000000E+00  0.14999999963E+04  0.15000000000E+04  0.10566000000E+00 0. -1.
        994   -1    0    0    0    0 -0.00000000000E+00 -0.00000000000E+00  0.11368683772E-12  0.17120000000E+03  0.17120000000E+03 0.  0.
         13    1    1    2    0    0  0.85732179571E+01 -0.37244471436E+02  0.14053414973E+03  0.14563828179E+03  0.10566000000E+00 0. -1.
        994    1    1    2    0    0 -0.18143209558E+01 -0.57225612043E+01  0.60518795428E+01  0.17141209034E+03  0.17120000000E+03 0.  0.
        998    1    1    2    0    0 -0.67588970013E+01  0.42967032640E+02  0.13534139670E+04  0.13541496279E+04  0.10000000000E+02 0. -1.
</event>
<event>
 5    1  0.1129619E-008  0.4083552E+03  0.7957747E-01  0.3336282E+00
         13   -1    0    0    0    0  0.00000000000E+00  0.00000000000E+00  0.14999999963E+04  0.15000000000E+04  0.10566000000E+00 0.  1.
        994   -1    0    0    0    0 -0.00000000000E+00 -0.00000000000E+00  0.11368683772E-12  0.17120000000E+03  0.17120000000E+03 0.  0.
         13    1    1    2    0    0  0.85444121105E+01  0.22563399719E+02 -0.53610584246E+01  0.24715705466E+02  0.10566000000E+00 0.  1.
        994    1    1    2    0    0 -0.11443535972E+02 -0.27788476819E+02  0.36539826065E+02  0.17761687096E+03  0.17120000000E+03 0.  0.
        998    1    1    2    0    0  0.28991238619E+01  0.52250770996E+01  0.14688212286E+04  0.14688674236E+04  0.10000000000E+02 0.  1.
</event>
<event>
 5    1  0.1129619E-008  0.3842656E+03  0.7957747E-01  0.3432793E+00
         13   -1    0    0    0    0  0.00000000000E+00  0.00000000000E+00  0.14999999963E+04  0.15000000000E+04  0.10566000000E+00 0. -1.
        994   -1    0    0    0    0 -0.00000000000E+00 -0.00000000000E+00  0.11368683772E-12  0.17120000000E+03  0.17120000000E+03 0.  0.
         13    1    1    2    0    0 -0.11128726291E+02 -0.10475118001E+02  0.56561713470E+02  0.58590231615E+02  0.10566000000E+00 0. -1.
        994    1    1    2    0    0  0.15602613964E+02  0.58781287506E+01  0.29121371011E+01  0.17203463170E+03  0.17120000000E+03 0.  0.
        998    1    1    2    0    0 -0.44738876725E+01  0.45969892504E+01  0.14405261457E+04  0.14405751367E+04  0.10000000000E+02 0. -1.
</event>
<event>
 5    1  0.1129619E-008  0.3744071E+03  0.7957747E-01  0.3475879E+00
         13   -1    0    0    0    0  0.00000000000E+00  0.00000000000E+00  0.14999999963E+04  0.15000000000E+04  0.10566000000E+00 0. -1.
        994   -1    0    0    0    0 -0.00000000000E+00 -0.00000000000E+00  0.11368683772E-12  0.17120000000E+03  0.17120000000E+03 0.  0.
         13    1    1    2    0    0 -0.30255057716E+02 -0.29200348056E+02  0.13218134415E+03  0.13870813873E+03  0.10566000000E+00 0. -1.
        994    1    1    2    0    0  0.22778852475E+02 -0.57724997301E+01  0.88665941268E+01  0.17303252401E+03  0.17120000000E+03 0.  0.
        998    1    1    2    0    0  0.74762052407E+01  0.34972847786E+02  0.13589520580E+04  0.13594593373E+04  0.10000000000E+02 0. -1.
</event>
<event>
 5    1  0.1129619E-008  0.3826298E+03  0.7957747E-01  0.3439787E+00
         13   -1    0    0    0    0  0.00000000000E+00  0.00000000000E+00  0.14999999963E+04  0.15000000000E+04  0.10566000000E+00 0. -1.
        994   -1    0    0    0    0 -0.00000000000E+00 -0.00000000000E+00  0.11368683772E-12  0.17120000000E+03  0.17120000000E+03 0.  0.
         13    1    1    2    0    0  0.19654618426E+02 -0.10582650527E+02  0.84560526751E+02  0.87457363132E+02  0.10566000000E+00 0. -1.
        994    1    1    2    0    0 -0.18238626936E+02  0.96756836056E+01  0.42254700302E+01  0.17249220551E+03  0.17120000000E+03 0.  0.
        998    1    1    2    0    0 -0.14159914898E+01  0.90696692170E+00  0.14112139995E+04  0.14112504314E+04  0.10000000000E+02 0. -1.
</event>
<event>
 5    1  0.1129619E-008  0.3777190E+03  0.7957747E-01  0.3461151E+00
         13   -1    0    0    0    0  0.00000000000E+00  0.00000000000E+00  0.14999999963E+04  0.15000000000E+04  0.10566000000E+00 0.  1.
        994   -1    0    0    0    0 -0.00000000000E+00 -0.00000000000E+00  0.11368683772E-12  0.17120000000E+03  0.17120000000E+03 0.  0.
         13    1    1    2    0    0 -0.13469490484E+02  0.46279577777E+02  0.25030770010E+03  0.25490622273E+03  0.10566000000E+00 0.  1.
        994    1    1    2    0    0  0.99050271927E+01 -0.71564015779E+01  0.57921588423E+01  0.17173326047E+03  0.17120000000E+03 0.  0.
        998    1    1    2    0    0  0.35644632915E+01 -0.39123176199E+02  0.12439001373E+04  0.12445605168E+04  0.10000000000E+02 0.  1.
</event>
<event>
 5    1  0.1129619E-008  0.3777229E+03  0.7957747E-01  0.3461134E+00
         13   -1    0    0    0    0  0.00000000000E+00  0.00000000000E+00  0.14999999963E+04  0.15000000000E+04  0.10566000000E+00 0. -1.
        994   -1    0    0    0    0 -0.00000000000E+00 -0.00000000000E+00  0.11368683772E-12  0.17120000000E+03  0.17120000000E+03 0.  0.
         13    1    1    2    0    0 -0.10448511477E+03  0.75304804735E+01  0.59320588819E+03  0.60238449871E+03  0.10566000000E+00 0. -1.
        994    1    1    2    0    0  0.10852866102E+03  0.94295450336E+01  0.46363222520E+02  0.20814988586E+03  0.17120000000E+03 0.  0.
        998    1    1    2    0    0 -0.40435462427E+01 -0.16960025507E+02  0.86043088557E+03  0.86066561543E+03  0.10000000000E+02 0.  1.
</event>
<event>
 5    1  0.1129619E-008  0.3780479E+03  0.7957747E-01  0.3459703E+00
         13   -1    0    0    0    0  0.00000000000E+00  0.00000000000E+00  0.14999999963E+04  0.15000000000E+04  0.10566000000E+00 0. -1.
        994   -1    0    0    0    0 -0.00000000000E+00 -0.00000000000E+00  0.11368683772E-12  0.17120000000E+03  0.17120000000E+03 0.  0.
         13    1    1    2    0    0 -0.87179281427E+01 -0.27343123615E+02  0.80568495537E+02  0.85527436050E+02  0.10566000000E+00 0. -1.
        994    1    1    2    0    0 -0.93430890420E+01  0.15560383607E+02  0.62309562737E+01  0.17227212098E+03  0.17120000000E+03 0.  0.
        998    1    1    2    0    0  0.18061017185E+02  0.11782740008E+02  0.14132005445E+04  0.14134004430E+04  0.10000000000E+02 0. -1.
</event>
<event>
 5    1  0.1129619E-008  0.3736974E+03  0.7957747E-01  0.3479069E+00
         13   -1    0    0    0    0  0.00000000000E+00  0.00000000000E+00  0.14999999963E+04  0.15000000000E+04  0.10566000000E+00 0. -1.
        994   -1    0    0    0    0 -0.00000000000E+00 -0.00000000000E+00  0.11368683772E-12  0.17120000000E+03  0.17120000000E+03 0.  0.
         13    1    1    2    0    0 -0.61448639727E+01 -0.18751766855E+02  0.23775941850E+02  0.30898134059E+02  0.10566000000E+00 0. -1.
        994    1    1    2    0    0 -0.68701969694E+01  0.97662234737E+01  0.78361201070E+01  0.17179471326E+03  0.17120000000E+03 0.  0.
        998    1    1    2    0    0  0.13015060942E+02  0.89855433812E+01  0.14683879343E+04  0.14685071527E+04  0.10000000000E+02 0. -1.
</event>
<event>
 5    1  0.1129619E-008  0.3718122E+03  0.7957747E-01  0.3487604E+00
         13   -1    0    0    0    0  0.00000000000E+00  0.00000000000E+00  0.14999999963E+04  0.15000000000E+04  0.10566000000E+00 0.  1.
        994   -1    0    0    0    0 -0.00000000000E+00 -0.00000000000E+00  0.11368683772E-12  0.17120000000E+03  0.17120000000E+03 0.  0.
         13    1    1    2    0    0  0.45555038188E+02 -0.12476604256E+01  0.12875734571E+03  0.13658434537E+03  0.10566000000E+00 0.  1.
        994    1    1    2    0    0 -0.15970205995E+02 -0.21518496318E+02  0.10796355442E+02  0.17362054733E+03  0.17120000000E+03 0.  0.
        998    1    1    2    0    0 -0.29584832192E+02  0.22766156743E+02  0.13604462951E+04  0.13609951073E+04  0.10000000000E+02 0.  1.
</event>
<event>
 5    1  0.1129619E-008  0.3849512E+03  0.7957747E-01  0.3429879E+00
         13   -1    0    0    0    0  0.00000000000E+00  0.00000000000E+00  0.14999999963E+04  0.15000000000E+04  0.10566000000E+00 0. -1.
        994   -1    0    0    0    0 -0.00000000000E+00 -0.00000000000E+00  0.11368683772E-12  0.17120000000E+03  0.17120000000E+03 0.  0.
         13    1    1    2    0    0  0.13845799409E+02  0.48301290480E+01  0.67225475462E+02  0.68806337085E+02  0.10566000000E+00 0. -1.
        994    1    1    2    0    0 -0.21304108573E+01 -0.73114615938E+01  0.18451380843E+01  0.17137923053E+03  0.17120000000E+03 0.  0.
        998    1    1    2    0    0 -0.11715388552E+02  0.24813325458E+01  0.14309293827E+04  0.14310144324E+04  0.10000000000E+02 0. -1.
</event>
<event>
 5    1  0.1129619E-008  0.3755306E+03  0.7957747E-01  0.3470853E+00
         13   -1    0    0    0    0  0.00000000000E+00  0.00000000000E+00  0.14999999963E+04  0.15000000000E+04  0.10566000000E+00 0.  1.
        994   -1    0    0    0    0 -0.00000000000E+00 -0.00000000000E+00  0.11368683772E-12  0.17120000000E+03  0.17120000000E+03 0.  0.
         13    1    1    2    0    0 -0.54616311432E+01 -0.42731904673E+02  0.15119100421E+03  0.15720870208E+03  0.10566000000E+00 0.  1.
        994    1    1    2    0    0 -0.18643854144E+02  0.17336389173E+02  0.86088632761E+01  0.17329655569E+03  0.17120000000E+03 0.  0.
        998    1    1    2    0    0  0.24105485287E+02  0.25395515500E+02  0.13402001288E+04  0.13406947422E+04  0.10000000000E+02 0.  1.
</event>
<event>
 5    1  0.1129619E-008  0.3844866E+03  0.7957747E-01  0.3431853E+00
         13   -1    0    0    0    0  0.00000000000E+00  0.00000000000E+00  0.14999999963E+04  0.15000000000E+04  0.10566000000E+00 0.  1.
        994   -1    0    0    0    0 -0.00000000000E+00 -0.00000000000E+00  0.11368683772E-12  0.17120000000E+03  0.17120000000E+03 0.  0.
         13    1    1    2    0    0 -0.18249697212E+02 -0.15958528222E+02  0.13892061715E+03  0.14102012304E+03  0.10566000000E+00 0.  1.
        994    1    1    2    0    0  0.22627787267E+02  0.16830765297E+02  0.45094454833E+01  0.17356574119E+03  0.17120000000E+03 0.  0.
        998    1    1    2    0    0 -0.43780900551E+01 -0.87223707471E+00  0.13565699337E+04  0.13566141358E+04  0.10000000000E+02 0.  1.
</event>
<event>
 5    1  0.1129619E-008  0.3852199E+03  0.7957747E-01  0.3428740E+00
         13   -1    0    0    0    0  0.00000000000E+00  0.00000000000E+00  0.14999999963E+04  0.15000000000E+04  0.10566000000E+00 0. -1.
        994   -1    0    0    0    0 -0.00000000000E+00 -0.00000000000E+00  0.11368683772E-12  0.17120000000E+03  0.17120000000E+03 0.  0.
         13    1    1    2    0    0  0.19635837544E+01  0.10386270738E+02  0.35701626768E+02  0.37233689032E+02  0.10566000000E+00 0. -1.
        994    1    1    2    0    0  0.13669615580E+01 -0.13083594379E+02  0.20899083826E+01  0.17171737461E+03  0.17120000000E+03 0.  0.
        998    1    1    2    0    0 -0.33305453125E+01  0.26973236412E+01  0.14622084611E+04  0.14622489364E+04  0.10000000000E+02 0. -1.
</event>
<event>
 5    1  0.1129619E-008  0.3802374E+03  0.7957747E-01  0.3450125E+00
         13   -1    0    0    0    0  0.00000000000E+00  0.00000000000E+00  0.14999999963E+04  0.15000000000E+04  0.10566000000E+00 0. -1.
        994   -1    0    0    0    0 -0.00000000000E+00 -0.00000000000E+00  0.11368683772E-12  0.17120000000E+03  0.17120000000E+03 0.  0.
         13    1    1    2    0    0  0.98588716153E+02 -0.76927982269E+02  0.36355581991E+03  0.38446130463E+03  0.10566000000E+00 0. -1.
        994    1    1    2    0    0 -0.85038417766E+02  0.81987327345E+02  0.68991027998E+02  0.21914072256E+03  0.17120000000E+03 0.  0.
        998    1    1    2    0    0 -0.13550298387E+02 -0.50593450760E+01  0.10674531484E+04  0.10675979728E+04  0.10000000000E+02 0. -1.
</event>
<event>
 5    1  0.1129619E-008  0.3717214E+03  0.7957747E-01  0.3488017E+00
         13   -1    0    0    0    0  0.00000000000E+00  0.00000000000E+00  0.14999999963E+04  0.15000000000E+04  0.10566000000E+00 0. -1.
        994   -1    0    0    0    0 -0.00000000000E+00 -0.00000000000E+00  0.11368683772E-12  0.17120000000E+03  0.17120000000E+03 0.  0.
         13    1    1    2    0    0 -0.39354918579E+02  0.28243164254E+02  0.12990847160E+03  0.13864598119E+03  0.10566000000E+00 0. -1.
        994    1    1    2    0    0  0.33025160630E+02 -0.25946746825E+02  0.14459453408E+02  0.17686834284E+03  0.17120000000E+03 0.  0.
        998    1    1    2    0    0  0.63297579491E+01 -0.22964174291E+01  0.13556320713E+04  0.13556856760E+04  0.10000000000E+02 0. -1.
</event>
<event>
 5    1  0.1129619E-008  0.3913938E+03  0.7957747E-01  0.3403000E+00
         13   -1    0    0    0    0  0.00000000000E+00  0.00000000000E+00  0.14999999963E+04  0.15000000000E+04  0.10566000000E+00 0.  1.
        994   -1    0    0    0    0 -0.00000000000E+00 -0.00000000000E+00  0.11368683772E-12  0.17120000000E+03  0.17120000000E+03 0.  0.
         13    1    1    2    0    0 -0.13154682967E+03 -0.81358608758E+01  0.50408421094E+03  0.52102942672E+03  0.10566000000E+00 0.  1.
        994    1    1    2    0    0  0.36160334560E+02 -0.23753195923E+01  0.27715186372E+02  0.17717444368E+03  0.17120000000E+03 0.  0.
        998    1    1    2    0    0  0.95386495112E+02  0.10511180468E+02  0.96820059897E+03  0.97299612959E+03  0.10000000000E+02 0.  1.
</event>
<event>
 5    1  0.1129619E-008  0.3939437E+03  0.7957747E-01  0.3392604E+00
         13   -1    0    0    0    0  0.00000000000E+00  0.00000000000E+00  0.14999999963E+04  0.15000000000E+04  0.10566000000E+00 0.  1.
        994   -1    0    0    0    0 -0.00000000000E+00 -0.00000000000E+00  0.11368683772E-12  0.17120000000E+03  0.17120000000E+03 0.  0.
         13    1    1    2    0    0 -0.12229832777E+03 -0.29668191439E+02  0.27210525545E+03  0.29979720440E+03  0.10566000000E+00 0.  1.
        994    1    1    2    0    0  0.11843109962E+03 -0.39601016626E+01  0.80130968319E+02  0.22309643620E+03  0.17120000000E+03 0.  0.
        998    1    1    2    0    0  0.38672281436E+01  0.33628293102E+02  0.11477637725E+04  0.11483063594E+04  0.10000000000E+02 0.  1.
</event>
<event>
 5    1  0.1129619E-008  0.3793191E+03  0.7957747E-01  0.3454128E+00
         13   -1    0    0    0    0  0.00000000000E+00  0.00000000000E+00  0.14999999963E+04  0.15000000000E+04  0.10566000000E+00 0. -1.
        994   -1    0    0    0    0 -0.00000000000E+00 -0.00000000000E+00  0.11368683772E-12  0.17120000000E+03  0.17120000000E+03 0.  0.
         13    1    1    2    0    0 -0.16978281996E+02  0.74739020171E+01  0.36718757273E+02  0.41138784263E+02  0.10566000000E+00 0. -1.
        994    1    1    2    0    0  0.15010978090E+02  0.41536566601E+01  0.52904102167E+01  0.17198840300E+03  0.17120000000E+03 0.  0.
        998    1    1    2    0    0  0.19673039066E+01 -0.11627558677E+02  0.14579908288E+04  0.14580728127E+04  0.10000000000E+02 0. -1.
</event>
<event>
 5    1  0.1129619E-008  0.3833242E+03  0.7957747E-01  0.3436811E+00
         13   -1    0    0    0    0  0.00000000000E+00  0.00000000000E+00  0.14999999963E+04  0.15000000000E+04  0.10566000000E+00 0. -1.
        994   -1    0    0    0    0 -0.00000000000E+00 -0.00000000000E+00  0.11368683772E-12  0.17120000000E+03  0.17120000000E+03 0.  0.
         13    1    1    2    0    0  0.21862760928E+02 -0.15015682701E+02  0.15092750986E+03  0.15324025397E+03  0.10566000000E+00 0. -1.
        994    1    1    2    0    0 -0.41018761705E+01  0.90571640878E+01  0.27914046232E+01  0.17151119366E+03  0.17120000000E+03 0.  0.
        998    1    1    2    0    0 -0.17760884758E+02  0.59585186133E+01  0.13462810818E+04  0.13464485524E+04  0.10000000000E+02 0. -1.
</event>
<event>
 5    1  0.1129619E-008  0.3848136E+03  0.7957747E-01  0.3430463E+00
         13   -1    0    0    0    0  0.00000000000E+00  0.00000000000E+00  0.14999999963E+04  0.15000000000E+04  0.10566000000E+00 0. -1.
        994   -1    0    0    0    0 -0.00000000000E+00 -0.00000000000E+00  0.11368683772E-12  0.17120000000E+03  0.17120000000E+03 0.  0.
         13    1    1    2    0    0  0.13780394226E+02  0.17446341760E+02  0.12095056065E+03  0.12297692219E+03  0.10566000000E+00 0. -1.
        994    1    1    2    0    0 -0.99280476357E+01 -0.36739340433E+02  0.65032858058E+01  0.17549950995E+03  0.17120000000E+03 0.  0.
        998    1    1    2    0    0 -0.38523465906E+01  0.19292998673E+02  0.13725461498E+04  0.13727235679E+04  0.10000000000E+02 0. -1.
</event>
<event>
 5    1  0.1129619E-008  0.3943130E+03  0.7957747E-01  0.3391110E+00
         13   -1    0    0    0    0  0.00000000000E+00  0.00000000000E+00  0.14999999963E+04  0.15000000000E+04  0.10566000000E+00 0. -1.
        994   -1    0    0    0    0 -0.00000000000E+00 -0.00000000000E+00  0.11368683772E-12  0.17120000000E+03  0.17120000000E+03 0.  0.
         13    1    1    2    0    0  0.61094369547E+02  0.92713332166E+02  0.21778708923E+03  0.24445758600E+03  0.10566000000E+00 0. -1.
        994    1    1    2    0    0 -0.17914222391E+02 -0.10828860745E+03  0.72173114872E+02  0.21579096454E+03  0.17120000000E+03 0.  0.
        998    1    1    2    0    0 -0.43180147156E+02  0.15575275280E+02  0.12100397922E+04  0.12109514495E+04  0.10000000000E+02 0. -1.
</event>
<event>
 5    1  0.1129619E-008  0.3758019E+03  0.7957747E-01  0.3469644E+00
         13   -1    0    0    0    0  0.00000000000E+00  0.00000000000E+00  0.14999999963E+04  0.15000000000E+04  0.10566000000E+00 0. -1.
        994   -1    0    0    0    0 -0.00000000000E+00 -0.00000000000E+00  0.11368683772E-12  0.17120000000E+03  0.17120000000E+03 0.  0.
         13    1    1    2    0    0  0.16643714944E+02  0.77619412457E+02  0.38242058762E+03  0.39057304494E+03  0.10566000000E+00 0. -1.
        994    1    1    2    0    0 -0.14142741616E+02 -0.75028566221E+02  0.26292445244E+02  0.18928823409E+03  0.17120000000E+03 0.  0.
        998    1    1    2    0    0 -0.25009733280E+01 -0.25908462359E+01  0.10912869634E+04  0.10913387210E+04  0.10000000000E+02 0.  0.
</event>
<event>
 5    1  0.1129619E-008  0.3823988E+03  0.7957747E-01  0.3440780E+00
         13   -1    0    0    0    0  0.00000000000E+00  0.00000000000E+00  0.14999999963E+04  0.15000000000E+04  0.10566000000E+00 0. -1.
        994   -1    0    0    0    0 -0.00000000000E+00 -0.00000000000E+00  0.11368683772E-12  0.17120000000E+03  0.17120000000E+03 0.  0.
         13    1    1    2    0    0 -0.74281654154E+01 -0.11557762112E+02  0.30732714746E+02  0.33664082137E+02  0.10566000000E+00 0. -1.
        994    1    1    2    0    0  0.79326142409E+01  0.11135730600E+02  0.35473294573E+01  0.17178170569E+03  0.17120000000E+03 0.  0.
        998    1    1    2    0    0 -0.50444882545E+00  0.42203151185E+00  0.14657199521E+04  0.14657542122E+04  0.10000000000E+02 0. -1.
</event>
<event>
 5    1  0.1129619E-008  0.3851156E+03  0.7957747E-01  0.3429182E+00
         13   -1    0    0    0    0  0.00000000000E+00  0.00000000000E+00  0.14999999963E+04  0.15000000000E+04  0.10566000000E+00 0. -1.
        994   -1    0    0    0    0 -0.00000000000E+00 -0.00000000000E+00  0.11368683772E-12  0.17120000000E+03  0.17120000000E+03 0.  0.
         13    1    1    2    0    0 -0.78877917892E+01 -0.11772872665E+02  0.63987354828E+02  0.65537855717E+02  0.10566000000E+00 0. -1.
        994    1    1    2    0    0  0.76741038233E+01  0.59367396850E+01  0.18822940422E+01  0.17148504243E+03  0.17120000000E+03 0.  0.
        998    1    1    2    0    0  0.21368796594E+00  0.58361329799E+01  0.14341303474E+04  0.14341771018E+04  0.10000000000E+02 0. -1.
</event>
<event>
 5    1  0.1129619E-008  0.3777030E+03  0.7957747E-01  0.3461222E+00
         13   -1    0    0    0    0  0.00000000000E+00  0.00000000000E+00  0.14999999963E+04  0.15000000000E+04  0.10566000000E+00 0.  1.
        994   -1    0    0    0    0 -0.00000000000E+00 -0.00000000000E+00  0.11368683772E-12  0.17120000000E+03  0.17120000000E+03 0.  0.
         13    1    1    2    0    0  0.96785877961E+01  0.99679972502E+01  0.15986384222E+02  0.21180455034E+02  0.10566000000E+00 0.  1.
        994    1    1    2    0    0 -0.24698192302E+01 -0.90665310491E+01  0.55946866811E+01  0.17154895077E+03  0.17120000000E+03 0.  0.
        998    1    1    2    0    0 -0.72087685659E+01 -0.90146620115E+00  0.14784189254E+04  0.14784705942E+04  0.10000000000E+02 0.  1.
</event>
<event>
 5    1  0.1129619E-008  0.3797681E+03  0.7957747E-01  0.3452169E+00
         13   -1    0    0    0    0  0.00000000000E+00  0.00000000000E+00  0.14999999963E+04  0.15000000000E+04  0.10566000000E+00 0.  1.
        994   -1    0    0    0    0 -0.00000000000E+00 -0.00000000000E+00  0.11368683772E-12  0.17120000000E+03  0.17120000000E+03 0.  0.
         13    1    1    2    0    0 -0.10016724294E+02  0.26661693000E+02  0.86281058145E+02  0.90860402805E+02  0.10566000000E+00 0.  1.
        994    1    1    2    0    0  0.39451828731E+02 -0.23711740153E+02  0.11371100158E+02  0.17764412552E+03  0.17120000000E+03 0.  0.
        998    1    1    2    0    0 -0.29435104437E+02 -0.29499528469E+01  0.14023478380E+04  0.14026954717E+04  0.10000000000E+02 0.  1.
</event>
<event>
 5    1  0.1129619E-008  0.3760323E+03  0.7957747E-01  0.3468619E+00
         13   -1    0    0    0    0  0.00000000000E+00  0.00000000000E+00  0.14999999963E+04  0.15000000000E+04  0.10566000000E+00 0. -1.
        994   -1    0    0    0    0 -0.00000000000E+00 -0.00000000000E+00  0.11368683772E-12  0.17120000000E+03  0.17120000000E+03 0.  0.
         13    1    1    2    0    0 -0.39790325019E+02  0.24945503235E+02  0.17693142005E+03  0.18305815104E+03  0.10566000000E+00 0. -1.
        994    1    1    2    0    0  0.34126739033E+02  0.15955044437E+01  0.10113488908E+02  0.17486824357E+03  0.17120000000E+03 0.  0.
        998    1    1    2    0    0  0.56635859859E+01 -0.26541007679E+02  0.13129550873E+04  0.13132736054E+04  0.10000000000E+02 0.  1.
</event>
<event>
 5    1  0.1129619E-008  0.3783757E+03  0.7957747E-01  0.3458262E+00
         13   -1    0    0    0    0  0.00000000000E+00  0.00000000000E+00  0.14999999963E+04  0.15000000000E+04  0.10566000000E+00 0.  1.
        994   -1    0    0    0    0 -0.00000000000E+00 -0.00000000000E+00  0.11368683772E-12  0.17120000000E+03  0.17120000000E+03 0.  0.
         13    1    1    2    0    0  0.12156511254E+03 -0.28750854030E+02  0.70382544504E+03  0.71482512298E+03  0.10566000000E+00 0.  1.
        994    1    1    2    0    0 -0.12858679087E+03  0.28464310949E+02  0.65656070666E+02  0.22575415699E+03  0.17120000000E+03 0.  0.
        998    1    1    2    0    0  0.70216783378E+01  0.28654308104E+00  0.73051848057E+03  0.73062072002E+03  0.10000000000E+02 0.  1.
</event>
<event>
 5    1  0.1129619E-008  0.3695394E+03  0.7957747E-01  0.3498010E+00
         13   -1    0    0    0    0  0.00000000000E+00  0.00000000000E+00  0.14999999963E+04  0.15000000000E+04  0.10566000000E+00 0. -1.
        994   -1    0    0    0    0 -0.00000000000E+00 -0.00000000000E+00  0.11368683772E-12  0.17120000000E+03  0.17120000000E+03 0.  0.
         13    1    1    2    0    0  0.29882840616E+02  0.49977752528E+02  0.14437308709E+03  0.15567388782E+03  0.10566000000E+00 0. -1.
        994    1    1    2    0    0 -0.22092857031E+02 -0.47883578367E+02  0.20465739717E+02  0.18030312785E+03  0.17120000000E+03 0.  0.
        998    1    1    2    0    0 -0.77899835846E+01 -0.20941741612E+01  0.13351611695E+04  0.13352229843E+04  0.10000000000E+02 0. -1.
</event>
<event>
 5    1  0.1129619E-008  0.3773008E+03  0.7957747E-01  0.3462996E+00
         13   -1    0    0    0    0  0.00000000000E+00  0.00000000000E+00  0.14999999963E+04  0.15000000000E+04  0.10566000000E+00 0.  1.
        994   -1    0    0    0    0 -0.00000000000E+00 -0.00000000000E+00  0.11368683772E-12  0.17120000000E+03  0.17120000000E+03 0.  0.
         13    1    1    2    0    0  0.64431023066E+02 -0.48275925252E+02  0.43949046744E+03  0.44680398815E+03  0.10566000000E+00 0.  1.
        994    1    1    2    0    0 -0.59603068166E+02  0.45374767049E+02  0.24669604568E+02  0.18849250545E+03  0.17120000000E+03 0.  0.
        998    1    1    2    0    0 -0.48279549001E+01  0.29011582032E+01  0.10358399243E+04  0.10359035064E+04  0.10000000000E+02 0.  1.
</event>
<event>
 5    1  0.1129619E-008  0.3795802E+03  0.7957747E-01  0.3452988E+00
         13   -1    0    0    0    0  0.00000000000E+00  0.00000000000E+00  0.14999999963E+04  0.15000000000E+04  0.10566000000E+00 0.  1.
        994   -1    0    0    0    0 -0.00000000000E+00 -0.00000000000E+00  0.11368683772E-12  0.17120000000E+03  0.17120000000E+03 0.  0.
         13    1    1    2    0    0  0.25778116067E+02  0.22224289236E+02  0.97211382540E+02  0.10299754540E+03  0.10566000000E+00 0.  1.
        994    1    1    2    0    0 -0.41595663785E+02 -0.80109864532E+02  0.32121777400E+02  0.19618623352E+03  0.17120000000E+03 0.  0.
        998    1    1    2    0    0  0.15817547718E+02  0.57885575296E+02  0.13706668363E+04  0.13720162211E+04  0.10000000000E+02 0.  1.
</event>
<event>
 5    1  0.1129619E-008  0.3785632E+03  0.7957747E-01  0.3457439E+00
         13   -1    0    0    0    0  0.00000000000E+00  0.00000000000E+00  0.14999999963E+04  0.15000000000E+04  0.10566000000E+00 0.  1.
        994   -1    0    0    0    0 -0.00000000000E+00 -0.00000000000E+00  0.11368683772E-12  0.17120000000E+03  0.17120000000E+03 0.  0.
         13    1    1    2    0    0  0.58596458310E+01 -0.27134769925E+02  0.74335159947E+02  0.79349595819E+02  0.10566000000E+00 0.  1.
        994    1    1    2    0    0 -0.18694983958E+02  0.24050150040E+02  0.79832229860E+01  0.17407206551E+03  0.17120000000E+03 0.  0.
        998    1    1    2    0    0  0.12835338127E+02  0.30846198856E+01  0.14176816133E+04  0.14177783387E+04  0.10000000000E+02 0.  1.
</event>
<event>
 5    1  0.1129619E-008  0.3829502E+03  0.7957747E-01  0.3438412E+00
         13   -1    0    0    0    0  0.00000000000E+00  0.00000000000E+00  0.14999999963E+04  0.15000000000E+04  0.10566000000E+00 0. -1.
        994   -1    0    0    0    0 -0.00000000000E+00 -0.00000000000E+00  0.11368683772E-12  0.17120000000E+03  0.17120000000E+03 0.  0.
         13    1    1    2    0    0 -0.18561624798E+02 -0.13028809926E+02  0.99005869129E+02  0.10156996155E+03  0.10566000000E+00 0. -1.
        994    1    1    2    0    0  0.87567233851E+01  0.41342318013E+01  0.29617516549E+01  0.17149922463E+03  0.17120000000E+03 0.  0.
        998    1    1    2    0    0  0.98049014129E+01  0.88945781251E+01  0.13980323755E+04  0.13981308138E+04  0.10000000000E+02 0. -1.
</event>
<event>
 5    1  0.1129619E-008  0.3859223E+03  0.7957747E-01  0.3425770E+00
         13   -1    0    0    0    0  0.00000000000E+00  0.00000000000E+00  0.14999999963E+04  0.15000000000E+04  0.10566000000E+00 0. -1.
        994   -1    0    0    0    0 -0.00000000000E+00 -0.00000000000E+00  0.11368683772E-12  0.17120000000E+03  0.17120000000E+03 0.  0.
         13    1    1    2    0    0  0.59059653156E+00  0.10096443059E+02  0.42600355747E+02  0.43784568520E+02  0.10566000000E+00 0. -1.
        994    1    1    2    0    0 -0.79578627002E+01 -0.11979279460E+02  0.18513968914E+01  0.17181297502E+03  0.17120000000E+03 0.  0.
        998    1    1    2    0    0  0.73672661687E+01  0.18828364010E+01  0.14555482436E+04  0.14556024565E+04  0.10000000000E+02 0. -1.
</event>
<event>
 5    1  0.1129619E-008  0.3859442E+03  0.7957747E-01  0.3425678E+00
         13   -1    0    0    0    0  0.00000000000E+00  0.00000000000E+00  0.14999999963E+04  0.15000000000E+04  0.10566000000E+00 0.  1.
        994   -1    0    0    0    0 -0.00000000000E+00 -0.00000000000E+00  0.11368683772E-12  0.17120000000E+03  0.17120000000E+03 0.  0.
         13    1    1    2    0    0  0.83300234750E+01  0.10092789846E+02  0.73055269628E+02  0.74218173532E+02  0.10566000000E+00 0.  1.
        994    1    1    2    0    0  0.43314800420E+00 -0.14933045932E+02  0.18941724393E+01  0.17186102341E+03  0.17120000000E+03 0.  0.
        998    1    1    2    0    0 -0.87631714792E+01  0.48402560861E+01  0.14250505542E+04  0.14251208031E+04  0.10000000000E+02 0.  1.
</event>
<event>
 5    1  0.1129619E-008  0.3763834E+03  0.7957747E-01  0.3467059E+00
         13   -1    0    0    0    0  0.00000000000E+00  0.00000000000E+00  0.14999999963E+04  0.15000000000E+04  0.10566000000E+00 0. -1.
        994   -1    0    0    0    0 -0.00000000000E+00 -0.00000000000E+00  0.11368683772E-12  0.17120000000E+03  0.17120000000E+03 0.  0.
         13    1    1    2    0    0  0.73923755366E+01  0.15291827472E+03  0.92001424532E+03  0.93266546452E+03  0.10566000000E+00 0. -1.
        994    1    1    2    0    0 -0.12264858086E+02 -0.13922620731E+03  0.75213670806E+02  0.23345427780E+03  0.17120000000E+03 0.  0.
        998    1    1    2    0    0  0.48724825496E+01 -0.13692067416E+02  0.50477208015E+03  0.50508025768E+03  0.10000000000E+02 0. -1.
</event>
<event>
 5    1  0.1129619E-008  0.3842427E+03  0.7957747E-01  0.3432890E+00
         13   -1    0    0    0    0  0.00000000000E+00  0.00000000000E+00  0.14999999963E+04  0.15000000000E+04  0.10566000000E+00 0.  1.
        994   -1    0    0    0    0 -0.00000000000E+00 -0.00000000000E+00  0.11368683772E-12  0.17120000000E+03  0.17120000000E+03 0.  0.
         13    1    1    2    0    0  0.14781194054E+02 -0.10939164713E+02  0.79888387641E+02  0.81977525372E+02  0.10566000000E+00 0.  1.
        994    1    1    2    0    0 -0.15308499558E+02  0.12300386089E+02  0.32790020622E+01  0.17235382651E+03  0.17120000000E+03 0.  0.
        998    1    1    2    0    0  0.52730550392E+00 -0.13612213765E+01  0.14168326066E+04  0.14168686481E+04  0.10000000000E+02 0.  0.
</event>
<event>
 5    1  0.1129619E-008  0.4079254E+03  0.7957747E-01  0.3337905E+00
         13   -1    0    0    0    0  0.00000000000E+00  0.00000000000E+00  0.14999999963E+04  0.15000000000E+04  0.10566000000E+00 0.  1.
        994   -1    0    0    0    0 -0.00000000000E+00 -0.00000000000E+00  0.11368683772E-12  0.17120000000E+03  0.17120000000E+03 0.  0.
         13    1    1    2    0    0  0.65288635732E+01  0.75568576616E+02  0.76842973043E+02  0.10797263311E+03  0.10566000000E+00 0.  1.
        994    1    1    2    0    0 -0.10094018391E+02 -0.62856867765E+02  0.49190950037E+02  0.18916147757E+03  0.17120000000E+03 0.  0.
        998    1    1    2    0    0  0.35651548182E+01 -0.12711708851E+02  0.13739660732E+04  0.13740658893E+04  0.10000000000E+02 0.  1.
</event>
<event>
 5    1  0.1129619E-008  0.3753368E+03  0.7957747E-01  0.3471718E+00
         13   -1    0    0    0    0  0.00000000000E+00  0.00000000000E+00  0.14999999963E+04  0.15000000000E+04  0.10566000000E+00 0.  1.
        994   -1    0    0    0    0 -0.00000000000E+00 -0.00000000000E+00  0.11368683772E-12  0.17120000000E+03  0.17120000000E+03 0.  0.
         13    1    1    2    0    0  0.28382145175E+02 -0.33228458316E+02  0.15451216247E+03  0.16057302426E+03  0.10566000000E+00 0.  1.
        994    1    1    2    0    0 -0.27157559068E+02 -0.50999873910E+01  0.91027239689E+01  0.17365437648E+03  0.17120000000E+03 0.  0.
        998    1    1    2    0    0 -0.12245861071E+01  0.38328445707E+02  0.13363851098E+04  0.13369725993E+04  0.10000000000E+02 0.  1.
</event>
<event>
 5    1  0.1129619E-008  0.3847027E+03  0.7957747E-01  0.3430934E+00
         13   -1    0    0    0    0  0.00000000000E+00  0.00000000000E+00  0.14999999963E+04  0.15000000000E+04  0.10566000000E+00 0. -1.
        994   -1    0    0    0    0 -0.00000000000E+00 -0.00000000000E+00  0.11368683772E-12  0.17120000000E+03  0.17120000000E+03 0.  0.
         13    1    1    2    0    0  0.92659238651E+01 -0.14249568783E+02  0.84891033531E+02  0.86576014540E+02  0.10566000000E+00 0. -1.
        994    1    1    2    0    0  0.13785857549E+02  0.15009493996E+02  0.31461956471E+01  0.17243744757E+03  0.17120000000E+03 0.  0.
        998    1    1    2    0    0 -0.23051781414E+02 -0.75992521370E+00  0.14119627671E+04  0.14121865379E+04  0.10000000000E+02 0. -1.
</event>
<event>
 5    1  0.1129619E-008  0.3829306E+03  0.7957747E-01  0.3438497E+00
         13   -1    0    0    0    0  0.00000000000E+00  0.00000000000E+00  0.14999999963E+04  0.15000000000E+04  0.10566000000E+00 0.  1.
        994   -1    0    0    0    0 -0.00000000000E+00 -0.00000000000E+00  0.11368683772E-12  0.17120000000E+03  0.17120000000E+03 0.  0.
         13    1    1    2    0    0 -0.27493347457E+02 -0.18512698922E+02  0.18622641535E+03  0.18915309438E+03  0.10566000000E+00 0.  1.
        994    1    1    2    0    0  0.27452709484E+02  0.14737084702E+02  0.58820169743E+01  0.17411166258E+03  0.17120000000E+03 0.  0.
        998    1    1    2    0    0  0.40637972855E-01  0.37756142202E+01  0.13078915640E+04  0.13079352430E+04  0.10000000000E+02 0.  1.
</event>
<event>
 5    1  0.1129619E-008  0.3847847E+03  0.7957747E-01  0.3430586E+00
         13   -1    0    0    0    0  0.00000000000E+00  0.00000000000E+00  0.14999999963E+04  0.15000000000E+04  0.10566000000E+00 0.  1.
        994   -1    0    0    0    0 -0.00000000000E+00 -0.00000000000E+00  0.11368683772E-12  0.17120000000E+03  0.17120000000E+03 0.  0.
         13    1    1    2    0    0  0.17824720219E+02  0.71355466715E+01  0.10661739927E+03  0.10833244052E+03  0.10566000000E+00 0.  1.
        994    1    1    2    0    0 -0.10602574866E+02 -0.43407117571E+01  0.21691541690E+01  0.17159662468E+03  0.17120000000E+03 0.  0.
        998    1    1    2    0    0 -0.72221453525E+01 -0.27948349144E+01  0.13912134428E+04  0.13912709348E+04  0.10000000000E+02 0.  1.
</event>
<event>
 5    1  0.1129619E-008  0.3771115E+03  0.7957747E-01  0.3463833E+00
         13   -1    0    0    0    0  0.00000000000E+00  0.00000000000E+00  0.14999999963E+04  0.15000000000E+04  0.10566000000E+00 0. -1.
        994   -1    0    0    0    0 -0.00000000000E+00 -0.00000000000E+00  0.11368683772E-12  0.17120000000E+03  0.17120000000E+03 0.  0.
         13    1    1    2    0    0 -0.60649318104E+01 -0.33132220884E+02  0.88089935020E+02  0.94309995623E+02  0.10566000000E+00 0. -1.
        994    1    1    2    0    0  0.13610599042E+02  0.47254981910E+02  0.13804391578E+02  0.17865688609E+03  0.17120000000E+03 0.  0.
        998    1    1    2    0    0 -0.75456672318E+01 -0.14122761025E+02  0.13981056697E+04  0.13982331183E+04  0.10000000000E+02 0. -1.
</event>
<event>
 5    1  0.1129619E-008  0.3825867E+03  0.7957747E-01  0.3439972E+00
         13   -1    0    0    0    0  0.00000000000E+00  0.00000000000E+00  0.14999999963E+04  0.15000000000E+04  0.10566000000E+00 0.  1.
        994   -1    0    0    0    0 -0.00000000000E+00 -0.00000000000E+00  0.11368683772E-12  0.17120000000E+03  0.17120000000E+03 0.  0.
         13    1    1    2    0    0 -0.13003908450E+02  0.29394560625E+02  0.17493415797E+03  0.17786262288E+03  0.10566000000E+00 0.  1.
        994    1    1    2    0    0  0.97890088190E+01 -0.21232778844E+02  0.46471099726E+01  0.17285164512E+03  0.17120000000E+03 0.  0.
        998    1    1    2    0    0  0.32148996313E+01 -0.81617817810E+01  0.13204187283E+04  0.13204857320E+04  0.10000000000E+02 0.  1.
</event>
<event>
 5    1  0.1693075E-008  0.3863059E+03  0.7957747E-01  0.3424153E+00
         13   -1    0    0    0    0  0.00000000000E+00  0.00000000000E+00  0.14999999963E+04  0.15000000000E+04  0.10566000000E+00 0. -1.
        994   -1    0    0    0    0 -0.00000000000E+00 -0.00000000000E+00  0.11368683772E-12  0.17120000000E+03  0.17120000000E+03 0.  0.
         13    1    1    2    0    0 -0.98643104458E+01  0.69632298674E+01  0.67834271842E+02  0.68900586290E+02  0.10566000000E+00 0. -1.
        994    1    1    2    0    0  0.19214331383E+02 -0.93852287402E+01  0.24820858366E+01  0.17254817820E+03  0.17120000000E+03 0.  0.
        998    1    1    2    0    0 -0.93500209367E+01  0.24219988728E+01  0.14296836386E+04  0.14297512355E+04  0.10000000000E+02 0. -1.
</event>
<event>
 5    1  0.1129619E-008  0.3715063E+03  0.7957747E-01  0.3488997E+00
         13   -1    0    0    0    0  0.00000000000E+00  0.00000000000E+00  0.14999999963E+04  0.15000000000E+04  0.10566000000E+00 0.  1.
        994   -1    0    0    0    0 -0.00000000000E+00 -0.00000000000E+00  0.11368683772E-12  0.17120000000E+03  0.17120000000E+03 0.  0.
         13    1    1    2    0    0  0.22626523545E+03  0.77226409985E+01  0.91328423990E+03  0.94092704817E+03  0.10566000000E+00 0.  1.
        994    1    1    2    0    0 -0.22008939568E+03 -0.33544677398E+01  0.19953932142E+03  0.34289353353E+03  0.17120000000E+03 0.  0.
        998    1    1    2    0    0 -0.61758397677E+01 -0.43681732587E+01  0.38717643496E+03  0.38737941830E+03  0.10000000000E+02 0.  0.
</event>
<event>
 5    1  0.1129619E-008  0.3828927E+03  0.7957747E-01  0.3438659E+00
         13   -1    0    0    0    0  0.00000000000E+00  0.00000000000E+00  0.14999999963E+04  0.15000000000E+04  0.10566000000E+00 0. -1.
        994   -1    0    0    0    0 -0.00000000000E+00 -0.00000000000E+00  0.11368683772E-12  0.17120000000E+03  0.17120000000E+03 0.  0.
         13    1    1    2    0    0 -0.11458813840E+02 -0.40695735765E+01  0.26346074434E+02  0.29017109536E+02  0.10566000000E+00 0. -1.
        994    1    1    2    0    0  0.11434842392E+02  0.26305780531E+01  0.31360084106E+01  0.17163027154E+03  0.17120000000E+03 0.  0.
        998    1    1    2    0    0  0.23971448244E-01  0.14389955235E+01  0.14705179134E+04  0.14705526189E+04  0.10000000000E+02 0. -1.
</event>
<event>
 5    1  0.1129619E-008  0.3708979E+03  0.7957747E-01  0.3491774E+00
         13   -1    0    0    0    0  0.00000000000E+00  0.00000000000E+00  0.14999999963E+04  0.15000000000E+04  0.10566000000E+00 0.  1.
        994   -1    0    0    0    0 -0.00000000000E+00 -0.00000000000E+00  0.11368683772E-12  0.17120000000E+03  0.17120000000E+03 0.  0.
         13    1    1    2    0    0 -0.23985261141E+02 -0.24354960270E+02  0.62026577505E+02  0.70822060989E+02  0.10566000000E+00 0.  1.
        994    1    1    2    0    0  0.13128058701E+02  0.25896964791E+02  0.11711781436E+02  0.17403908910E+03  0.17120000000E+03 0.  0.
        998    1    1    2    0    0  0.10857202440E+02 -0.15420045214E+01  0.14262616373E+04  0.14263388499E+04  0.10000000000E+02 0.  1.
</event>
<event>
 5    1  0.1129619E-008  0.3772713E+03  0.7957747E-01  0.3463126E+00
         13   -1    0    0    0    0  0.00000000000E+00  0.00000000000E+00  0.14999999963E+04  0.15000000000E+04  0.10566000000E+00 0.  1.
        994   -1    0    0    0    0 -0.00000000000E+00 -0.00000000000E+00  0.11368683772E-12  0.17120000000E+03  0.17120000000E+03 0.  0.
         13    1    1    2    0    0 -0.39288612754E+02  0.53121672003E+02  0.22479503788E+03  0.23430392090E+03  0.10566000000E+00 0.  1.
        994    1    1    2    0    0  0.54355743652E+02 -0.11457968804E+03  0.61850045910E+02  0.22185112116E+03  0.17120000000E+03 0.  0.
        998    1    1    2    0    0 -0.15067130898E+02  0.61458016037E+02  0.12133549125E+04  0.12150449579E+04  0.10000000000E+02 0.  1.
</event>
<event>
 5    1  0.1129619E-008  0.3696449E+03  0.7957747E-01  0.3497524E+00
         13   -1    0    0    0    0  0.00000000000E+00  0.00000000000E+00  0.14999999963E+04  0.15000000000E+04  0.10566000000E+00 0.  1.
        994   -1    0    0    0    0 -0.00000000000E+00 -0.00000000000E+00  0.11368683772E-12  0.17120000000E+03  0.17120000000E+03 0.  0.
         13    1    1    2    0    0  0.83306776554E+02 -0.16461062198E+02  0.32217514070E+03  0.33317835770E+03  0.10566000000E+00 0.  1.
        994    1    1    2    0    0 -0.49684637839E+02  0.28654750602E+02  0.22327306107E+02  0.18192747612E+03  0.17120000000E+03 0.  0.
        998    1    1    2    0    0 -0.33622138714E+02 -0.12193688404E+02  0.11554975495E+04  0.11560941662E+04  0.10000000000E+02 0.  1.
</event>
<event>
 5    1  0.1129619E-008  0.3771049E+03  0.7957747E-01  0.3463862E+00
         13   -1    0    0    0    0  0.00000000000E+00  0.00000000000E+00  0.14999999963E+04  0.15000000000E+04  0.10566000000E+00 0.  1.
        994   -1    0    0    0    0 -0.00000000000E+00 -0.00000000000E+00  0.11368683772E-12  0.17120000000E+03  0.17120000000E+03 0.  0.
         13    1    1    2    0    0  0.72375705991E+01 -0.32793512514E+02  0.12269596319E+03  0.12720891258E+03  0.10566000000E+00 0.  1.
        994    1    1    2    0    0  0.12362710525E+02 -0.19798838081E+02  0.74428440302E+01  0.17294411389E+03  0.17120000000E+03 0.  0.
        998    1    1    2    0    0 -0.19600281124E+02  0.52592350595E+02  0.13698611891E+04  0.13710469735E+04  0.10000000000E+02 0.  1.
</event>
<event>
 5    1  0.1129619E-008  0.3819350E+03  0.7957747E-01  0.3442776E+00
         13   -1    0    0    0    0  0.00000000000E+00  0.00000000000E+00  0.14999999963E+04  0.15000000000E+04  0.10566000000E+00 0. -1.
        994   -1    0    0    0    0 -0.00000000000E+00 -0.00000000000E+00  0.11368683772E-12  0.17120000000E+03  0.17120000000E+03 0.  0.
         13    1    1    2    0    0 -0.26772649031E+02  0.13385809091E+01  0.12829781629E+03  0.13106833089E+03  0.10566000000E+00 0. -1.
        994    1    1    2    0    0 -0.24621842725E+01  0.10105686743E+02  0.35189728038E+01  0.17155177185E+03  0.17120000000E+03 0.  0.
        998    1    1    2    0    0  0.29234833303E+02 -0.11444267652E+02  0.13681832072E+04  0.13685798973E+04  0.10000000000E+02 0. -1.
</event>
<event>
 5    1  0.1129619E-008  0.3832253E+03  0.7957747E-01  0.3437234E+00
         13   -1    0    0    0    0  0.00000000000E+00  0.00000000000E+00  0.14999999963E+04  0.15000000000E+04  0.10566000000E+00 0. -1.
        994   -1    0    0    0    0 -0.00000000000E+00 -0.00000000000E+00  0.11368683772E-12  0.17120000000E+03  0.17120000000E+03 0.  0.
         13    1    1    2    0    0 -0.19849361973E+02 -0.54827045414E+00  0.75497400648E+02  0.78065142284E+02  0.10566000000E+00 0. -1.
        994    1    1    2    0    0  0.18145248504E+02 -0.63016358599E+01  0.37351527368E+01  0.17231468894E+03  0.17120000000E+03 0.  0.
        998    1    1    2    0    0  0.17041134686E+01  0.68499063141E+01  0.14207674429E+04  0.14208201688E+04  0.10000000000E+02 0. -1.
</event>
<event>
 5    1  0.1129619E-008  0.3845213E+03  0.7957747E-01  0.3431705E+00
         13   -1    0    0    0    0  0.00000000000E+00  0.00000000000E+00  0.14999999963E+04  0.15000000000E+04  0.10566000000E+00 0.  1.
        994   -1    0    0    0    0 -0.00000000000E+00 -0.00000000000E+00  0.11368683772E-12  0.17120000000E+03  0.17120000000E+03 0.  0.
         13    1    1    2    0    0 -0.14260282772E+02  0.10292015766E+02  0.77998434417E+02  0.79956539375E+02  0.10566000000E+00 0.  1.
        994    1    1    2    0    0  0.13866293319E+02 -0.15367357823E+02  0.32803903037E+01  0.17247791377E+03  0.17120000000E+03 0.  0.
        998    1    1    2    0    0  0.39398945267E+00  0.50753420569E+01  0.14187211716E+04  0.14187655469E+04  0.10000000000E+02 0.  1.
</event>
<event>
 5    1  0.1129619E-008  0.3823167E+03  0.7957747E-01  0.3441133E+00
         13   -1    0    0    0    0  0.00000000000E+00  0.00000000000E+00  0.14999999963E+04  0.15000000000E+04  0.10566000000E+00 0. -1.
        994   -1    0    0    0    0 -0.00000000000E+00 -0.00000000000E+00  0.11368683772E-12  0.17120000000E+03  0.17120000000E+03 0.  0.
         13    1    1    2    0    0  0.90087279187E+01  0.44657765076E+01  0.15916850133E+02  0.18827044928E+02  0.10566000000E+00 0. -1.
        994    1    1    2    0    0 -0.83350454806E+01  0.50871280191E+01  0.32846323614E+01  0.17150971012E+03  0.17120000000E+03 0.  0.
        998    1    1    2    0    0 -0.67368243812E+00 -0.95529045267E+01  0.14807985138E+04  0.14808632450E+04  0.10000000000E+02 0. -1.
</event>
<event>
 5    1  0.1129619E-008  0.3828302E+03  0.7957747E-01  0.3438927E+00
         13   -1    0    0    0    0  0.00000000000E+00  0.00000000000E+00  0.14999999963E+04  0.15000000000E+04  0.10566000000E+00 0.  1.
        994   -1    0    0    0    0 -0.00000000000E+00 -0.00000000000E+00  0.11368683772E-12  0.17120000000E+03  0.17120000000E+03 0.  0.
         13    1    1    2    0    0  0.26038209596E+02 -0.28480149233E+02  0.18626677431E+03  0.19022205349E+03  0.10566000000E+00 0.  1.
        994    1    1    2    0    0 -0.69254029050E+02  0.33654276890E+02  0.22601429668E+02  0.18907404771E+03  0.17120000000E+03 0.  0.
        998    1    1    2    0    0  0.43215819454E+02 -0.51741276570E+01  0.12911317923E+04  0.12919038988E+04  0.10000000000E+02 0.  1.
</event>
<event>
 5    1  0.1129619E-008  0.3831265E+03  0.7957747E-01  0.3437657E+00
         13   -1    0    0    0    0  0.00000000000E+00  0.00000000000E+00  0.14999999963E+04  0.15000000000E+04  0.10566000000E+00 0.  1.
        994   -1    0    0    0    0 -0.00000000000E+00 -0.00000000000E+00  0.11368683772E-12  0.17120000000E+03  0.17120000000E+03 0.  0.
         13    1    1    2    0    0  0.15139345709E+02 -0.18553060782E+02  0.10102351797E+03  0.10382282119E+03  0.10566000000E+00 0.  1.
        994    1    1    2    0    0 -0.11920227784E+02  0.29014644938E+02  0.58255917395E+01  0.17414740587E+03  0.17120000000E+03 0.  0.
        998    1    1    2    0    0 -0.32191179251E+01 -0.10461584156E+02  0.13931508866E+04  0.13932297729E+04  0.10000000000E+02 0.  1.
</event>
<event>
 5    1  0.1129619E-008  0.3804303E+03  0.7957747E-01  0.3449287E+00
         13   -1    0    0    0    0  0.00000000000E+00  0.00000000000E+00  0.14999999963E+04  0.15000000000E+04  0.10566000000E+00 0.  1.
        994   -1    0    0    0    0 -0.00000000000E+00 -0.00000000000E+00  0.11368683772E-12  0.17120000000E+03  0.17120000000E+03 0.  0.
         13    1    1    2    0    0  0.27488132300E+02 -0.85074349182E+01  0.93872367113E+02  0.98183533944E+02  0.10566000000E+00 0.  1.
        994    1    1    2    0    0 -0.34230399893E+02  0.19979899194E+02  0.91779157103E+01  0.17596758447E+03  0.17120000000E+03 0.  0.
        998    1    1    2    0    0  0.67422675924E+01 -0.11472464276E+02  0.13969497135E+04  0.13970488816E+04  0.10000000000E+02 0.  1.
</event>
<event>
 5    1  0.1129619E-008  0.3736358E+03  0.7957747E-01  0.3479346E+00
         13   -1    0    0    0    0  0.00000000000E+00  0.00000000000E+00  0.14999999963E+04  0.15000000000E+04  0.10566000000E+00 0.  1.
        994   -1    0    0    0    0 -0.00000000000E+00 -0.00000000000E+00  0.11368683772E-12  0.17120000000E+03  0.17120000000E+03 0.  0.
         13    1    1    2    0    0 -0.36092010831E+02  0.14589552623E+01  0.81053529485E+02  0.88738084283E+02  0.10566000000E+00 0.  1.
        994    1    1    2    0    0  0.37801256360E+02  0.14327581496E+01  0.12283340049E+02  0.17575923367E+03  0.17120000000E+03 0.  0.
        998    1    1    2    0    0 -0.17092455295E+01 -0.28917134119E+01  0.14066631267E+04  0.14067026820E+04  0.10000000000E+02 0.  0.
</event>
<event>
 5    1  0.1129619E-008  0.3704738E+03  0.7957747E-01  0.3493716E+00
         13   -1    0    0    0    0  0.00000000000E+00  0.00000000000E+00  0.14999999963E+04  0.15000000000E+04  0.10566000000E+00 0.  1.
        994   -1    0    0    0    0 -0.00000000000E+00 -0.00000000000E+00  0.11368683772E-12  0.17120000000E+03  0.17120000000E+03 0.  0.
         13    1    1    2    0    0  0.17089929794E+02 -0.10464639590E+02  0.18847387107E+02  0.27510171699E+02  0.10566000000E+00 0.  1.
        994    1    1    2    0    0  0.81773732487E+00  0.81011013404E+01  0.92505464624E+01  0.17164296999E+03  0.17120000000E+03 0.  0.
        998    1    1    2    0    0 -0.17907667119E+02  0.23635382492E+01  0.14719020627E+04  0.14720468583E+04  0.10000000000E+02 0.  1.
</event>
<event>
 5    1  0.1129619E-008  0.3823279E+03  0.7957747E-01  0.3441085E+00
         13   -1    0    0    0    0  0.00000000000E+00  0.00000000000E+00  0.14999999963E+04  0.15000000000E+04  0.10566000000E+00 0.  1.
        994   -1    0    0    0    0 -0.00000000000E+00 -0.00000000000E+00  0.11368683772E-12  0.17120000000E+03  0.17120000000E+03 0.  0.
         13    1    1    2    0    0  0.32945247636E+02  0.74369913759E+01  0.18963794772E+03  0.19262206666E+03  0.10566000000E+00 0.  1.
        994    1    1    2    0    0 -0.21319103296E+02 -0.65722475148E+00  0.44732865783E+01  0.17258153552E+03  0.17120000000E+03 0.  0.
        998    1    1    2    0    0 -0.11626144341E+02 -0.67797666244E+01  0.13058887620E+04  0.13059963978E+04  0.10000000000E+02 0.  1.
</event>
<event>
 5    1  0.1129619E-008  0.2102546E+03  0.7957747E-01  0.4860411E+00
         13   -1    0    0    0    0  0.00000000000E+00  0.00000000000E+00  0.14999999963E+04  0.15000000000E+04  0.10566000000E+00 0.  1.
        994   -1    0    0    0    0 -0.00000000000E+00 -0.00000000000E+00  0.11368683772E-12  0.17120000000E+03  0.17120000000E+03 0.  0.
         13    1    1    2    0    0  0.39007574533E+02  0.12192716868E+03  0.81307400504E+02  0.15165332134E+03  0.10566000000E+00 0.  1.
        994    1    1    2    0    0 -0.71252863641E+02 -0.10514156598E+03  0.17642568848E+03  0.27670775744E+03  0.17120000000E+03 0.  0.
        998    1    1    2    0    0  0.32245289108E+02 -0.16785602704E+02  0.12422669073E+04  0.12428389212E+04  0.10000000000E+02 0.  1.
</event>
<event>
 5    1  0.1129619E-008  0.3698595E+03  0.7957747E-01  0.3496537E+00
         13   -1    0    0    0    0  0.00000000000E+00  0.00000000000E+00  0.14999999963E+04  0.15000000000E+04  0.10566000000E+00 0. -1.
        994   -1    0    0    0    0 -0.00000000000E+00 -0.00000000000E+00  0.11368683772E-12  0.17120000000E+03  0.17120000000E+03 0.  0.
         13    1    1    2    0    0 -0.19978856731E+02  0.50292177602E+02  0.15577970725E+03  0.16491144957E+03  0.10566000000E+00 0. -1.
        994    1    1    2    0    0  0.12772442972E+01  0.71997547696E+01  0.11051410407E+02  0.17171208896E+03  0.17120000000E+03 0.  0.
        998    1    1    2    0    0  0.18701612434E+02 -0.57491932371E+02  0.13331688786E+04  0.13345764615E+04  0.10000000000E+02 0. -1.
</event>
<event>
 5    1  0.1129619E-008  0.3840742E+03  0.7957747E-01  0.3433608E+00
         13   -1    0    0    0    0  0.00000000000E+00  0.00000000000E+00  0.14999999963E+04  0.15000000000E+04  0.10566000000E+00 0.  1.
        994   -1    0    0    0    0 -0.00000000000E+00 -0.00000000000E+00  0.11368683772E-12  0.17120000000E+03  0.17120000000E+03 0.  0.
         13    1    1    2    0    0 -0.82665880391E+01 -0.15678594616E+02  0.86099731559E+02  0.87905231616E+02  0.10566000000E+00 0.  1.
        994    1    1    2    0    0 -0.99740829726E+01 -0.58454717111E+01  0.25314522280E+01  0.17160856657E+03  0.17120000000E+03 0.  0.
        998    1    1    2    0    0  0.18240671012E+02  0.21524066327E+02  0.14113688125E+04  0.14116862018E+04  0.10000000000E+02 0.  1.
</event>
<event>
 5    1  0.1129619E-008  0.3831558E+03  0.7957747E-01  0.3437532E+00
         13   -1    0    0    0    0  0.00000000000E+00  0.00000000000E+00  0.14999999963E+04  0.15000000000E+04  0.10566000000E+00 0. -1.
        994   -1    0    0    0    0 -0.00000000000E+00 -0.00000000000E+00  0.11368683772E-12  0.17120000000E+03  0.17120000000E+03 0.  0.
         13    1    1    2    0    0 -0.15168908507E+02 -0.27556667140E+02  0.18783310253E+03  0.19044881533E+03  0.10566000000E+00 0. -1.
        994    1    1    2    0    0  0.98875724269E+01  0.19379870016E+02  0.41161218833E+01  0.17262597113E+03  0.17120000000E+03 0.  0.
        998    1    1    2    0    0  0.52813360806E+01  0.81767971240E+01  0.13080507719E+04  0.13081252135E+04  0.10000000000E+02 0. -1.
</event>
<event>
 5    1  0.1129619E-008  0.3694373E+03  0.7957747E-01  0.3498481E+00
         13   -1    0    0    0    0  0.00000000000E+00  0.00000000000E+00  0.14999999963E+04  0.15000000000E+04  0.10566000000E+00 0.  1.
        994   -1    0    0    0    0 -0.00000000000E+00 -0.00000000000E+00  0.11368683772E-12  0.17120000000E+03  0.17120000000E+03 0.  0.
         13    1    1    2    0    0  0.83741031857E+02 -0.60453648359E+02  0.49386984922E+03  0.50455390509E+03  0.10566000000E+00 0.  1.
        994    1    1    2    0    0 -0.54560355573E+02  0.49170197318E+02  0.28491932652E+02  0.18845628387E+03  0.17120000000E+03 0.  0.
        998    1    1    2    0    0 -0.29180676285E+02  0.11283451042E+02  0.97763821441E+03  0.97818981103E+03  0.10000000000E+02 0.  1.
</event>
<event>
 5    1  0.1129619E-008  0.3021496E+03  0.7957747E-01  0.3880792E+00
         13   -1    0    0    0    0  0.00000000000E+00  0.00000000000E+00  0.14999999963E+04  0.15000000000E+04  0.10566000000E+00 0.  1.
        994   -1    0    0    0    0 -0.00000000000E+00 -0.00000000000E+00  0.11368683772E-12  0.17120000000E+03  0.17120000000E+03 0.  0.
         13    1    1    2    0    0 -0.89531873172E+02 -0.17209173423E+03  0.65054054068E+03  0.67884794140E+03  0.10566000000E+00 0.  1.
        994    1    1    2    0    0  0.77877873396E+02  0.16876368003E+03  0.15235852019E+03  0.29507406110E+03  0.17120000000E+03 0.  0.
        998    1    1    2    0    0  0.11653999776E+02  0.33280542062E+01  0.69710093541E+03  0.69727799750E+03  0.10000000000E+02 0.  1.
</event>
<event>
 5    1  0.1129619E-008  0.3684667E+03  0.7957747E-01  0.3502967E+00
         13   -1    0    0    0    0  0.00000000000E+00  0.00000000000E+00  0.14999999963E+04  0.15000000000E+04  0.10566000000E+00 0.  1.
        994   -1    0    0    0    0 -0.00000000000E+00 -0.00000000000E+00  0.11368683772E-12  0.17120000000E+03  0.17120000000E+03 0.  0.
         13    1    1    2    0    0 -0.13036724891E+03  0.38081393578E+02  0.57122664521E+03  0.58715049475E+03  0.10566000000E+00 0.  1.
        994    1    1    2    0    0  0.11356163559E+03 -0.93950495864E+02  0.89970345797E+02  0.24316053108E+03  0.17120000000E+03 0.  0.
        998    1    1    2    0    0  0.16805613325E+02  0.55869102286E+02  0.83880300528E+03  0.84088897417E+03  0.10000000000E+02 0.  1.
</event>
<event>
 5    1  0.1129619E-008  0.3720752E+03  0.7957747E-01  0.3486408E+00
         13   -1    0    0    0    0  0.00000000000E+00  0.00000000000E+00  0.14999999963E+04  0.15000000000E+04  0.10566000000E+00 0.  1.
        994   -1    0    0    0    0 -0.00000000000E+00 -0.00000000000E+00  0.11368683772E-12  0.17120000000E+03  0.17120000000E+03 0.  0.
         13    1    1    2    0    0  0.63123867280E+02  0.27248929077E+02  0.29719162499E+03  0.30504098066E+03  0.10566000000E+00 0.  1.
        994    1    1    2    0    0 -0.23175407979E+02 -0.33516263524E+02  0.13910384229E+02  0.17653152196E+03  0.17120000000E+03 0.  0.
        998    1    1    2    0    0 -0.39948459301E+02  0.62673344467E+01  0.11888979871E+04  0.11896274974E+04  0.10000000000E+02 0.  1.
</event>
<event>
 5    1  0.1129619E-008  0.3803498E+03  0.7957747E-01  0.3449637E+00
         13   -1    0    0    0    0  0.00000000000E+00  0.00000000000E+00  0.14999999963E+04  0.15000000000E+04  0.10566000000E+00 0.  1.
        994   -1    0    0    0    0 -0.00000000000E+00 -0.00000000000E+00  0.11368683772E-12  0.17120000000E+03  0.17120000000E+03 0.  0.
         13    1    1    2    0    0  0.85771837786E+01 -0.23946552604E+02  0.82084804683E+02  0.85935625832E+02  0.10566000000E+00 0.  1.
        994    1    1    2    0    0 -0.62691974384E+01  0.98938007051E+01  0.44149138938E+01  0.17165698819E+03  0.17120000000E+03 0.  0.
        998    1    1    2    0    0 -0.23079863402E+01  0.14052751899E+02  0.14135002777E+04  0.14136073860E+04  0.10000000000E+02 0.  1.
</event>
<event>
 5    1  0.1129619E-008  0.3841650E+03  0.7957747E-01  0.3433221E+00
         13   -1    0    0    0    0  0.00000000000E+00  0.00000000000E+00  0.14999999963E+04  0.15000000000E+04  0.10566000000E+00 0.  1.
        994   -1    0    0    0    0 -0.00000000000E+00 -0.00000000000E+00  0.11368683772E-12  0.17120000000E+03  0.17120000000E+03 0.  0.
         13    1    1    2    0    0  0.20907463036E+00 -0.17888567151E+02  0.79156595920E+02  0.81153079970E+02  0.10566000000E+00 0.  1.
        994    1    1    2    0    0 -0.14971286648E+01  0.89163368984E+01  0.23148816989E+01  0.17145419544E+03  0.17120000000E+03 0.  0.
        998    1    1    2    0    0  0.12880540344E+01  0.89722302524E+01  0.14185285187E+04  0.14185927246E+04  0.10000000000E+02 0.  1.
</event>
<event>
 5    1  0.1129619E-008  0.3774713E+03  0.7957747E-01  0.3462243E+00
         13   -1    0    0    0    0  0.00000000000E+00  0.00000000000E+00  0.14999999963E+04  0.15000000000E+04  0.10566000000E+00 0.  1.
        994   -1    0    0    0    0 -0.00000000000E+00 -0.00000000000E+00  0.11368683772E-12  0.17120000000E+03  0.17120000000E+03 0.  0.
         13    1    1    2    0    0 -0.94041528316E+01  0.44803813779E+02  0.21077572040E+03  0.21569013722E+03  0.10566000000E+00 0.  1.
        994    1    1    2    0    0 -0.22409295746E+00 -0.12871493963E+02  0.59739445713E+01  0.17178723348E+03  0.17120000000E+03 0.  0.
        998    1    1    2    0    0  0.96282457891E+01 -0.31932319816E+02  0.12832503313E+04  0.12837226293E+04  0.10000000000E+02 0.  1.
</event>
<event>
 5    1  0.1129619E-008  0.3716757E+03  0.7957747E-01  0.3488225E+00
         13   -1    0    0    0    0  0.00000000000E+00  0.00000000000E+00  0.14999999963E+04  0.15000000000E+04  0.10566000000E+00 0.  1.
        994   -1    0    0    0    0 -0.00000000000E+00 -0.00000000000E+00  0.11368683772E-12  0.17120000000E+03  0.17120000000E+03 0.  0.
         13    1    1    2    0    0  0.10897577632E+02  0.36455215949E+02  0.81459025096E+02  0.89907307276E+02  0.10566000000E+00 0.  1.
        994    1    1    2    0    0 -0.10260729145E+02 -0.28211536267E+02  0.11500145946E+02  0.17419203971E+03  0.17120000000E+03 0.  0.
        998    1    1    2    0    0 -0.63684848646E+00 -0.82436796819E+01  0.14070408252E+04  0.14071006530E+04  0.10000000000E+02 0.  1.
</event>
<event>
 5    1  0.1129619E-008  0.3793981E+03  0.7957747E-01  0.3453784E+00
         13   -1    0    0    0    0  0.00000000000E+00  0.00000000000E+00  0.14999999963E+04  0.15000000000E+04  0.10566000000E+00 0.  1.
        994   -1    0    0    0    0 -0.00000000000E+00 -0.00000000000E+00  0.11368683772E-12  0.17120000000E+03  0.17120000000E+03 0.  0.
         13    1    1    2    0    0  0.94562772133E+01 -0.30004631594E+02  0.10227906814E+03  0.10700802792E+03  0.10566000000E+00 0.  1.
        994    1    1    2    0    0  0.10148600238E+02  0.38684422478E+02  0.98135781448E+01  0.17608300584E+03  0.17120000000E+03 0.  0.
        998    1    1    2    0    0 -0.19604877452E+02 -0.86797908845E+01  0.13879073500E+04  0.13881089662E+04  0.10000000000E+02 0.  1.
</event>
<event>
 5    1  0.1129619E-008  0.4012607E+03  0.7957747E-01  0.3363507E+00
         13   -1    0    0    0    0  0.00000000000E+00  0.00000000000E+00  0.14999999963E+04  0.15000000000E+04  0.10566000000E+00 0. -1.
        994   -1    0    0    0    0 -0.00000000000E+00 -0.00000000000E+00  0.11368683772E-12  0.17120000000E+03  0.17120000000E+03 0.  0.
         13    1    1    2    0    0 -0.25833434950E+02  0.12641143292E+03  0.52636561156E+03  0.54194832312E+03  0.10566000000E+00 0. -1.
        994    1    1    2    0    0  0.66543434322E+02  0.20866951612E+02  0.47935422465E+02  0.19097304273E+03  0.17120000000E+03 0.  0.
        998    1    1    2    0    0 -0.40709999371E+02 -0.14727838453E+03  0.92569896225E+03  0.93827863416E+03  0.10000000000E+02 0. -1.
</event>
<event>
 5    1  0.1129619E-008  0.3926790E+03  0.7957747E-01  0.3397744E+00
         13   -1    0    0    0    0  0.00000000000E+00  0.00000000000E+00  0.14999999963E+04  0.15000000000E+04  0.10566000000E+00 0. -1.
        994   -1    0    0    0    0 -0.00000000000E+00 -0.00000000000E+00  0.11368683772E-12  0.17120000000E+03  0.17120000000E+03 0.  0.
         13    1    1    2    0    0  0.19254036350E+02 -0.95507254648E+01 -0.55308084302E+00  0.21500031049E+02  0.10566000000E+00 0. -1.
        994    1    1    2    0    0 -0.17170444497E+02  0.17814345485E+02  0.25804409903E+02  0.17489277469E+03  0.17120000000E+03 0.  0.
        998    1    1    2    0    0 -0.20835918535E+01 -0.82636200201E+01  0.14747486672E+04  0.14748071943E+04  0.10000000000E+02 0. -1.
</event>
<event>
 5    1  0.1494184E-008  0.3864416E+03  0.7957747E-01  0.3423581E+00
         13   -1    0    0    0    0  0.00000000000E+00  0.00000000000E+00  0.14999999963E+04  0.15000000000E+04  0.10566000000E+00 0. -1.
        994   -1    0    0    0    0 -0.00000000000E+00 -0.00000000000E+00  0.11368683772E-12  0.17120000000E+03  0.17120000000E+03 0.  0.
         13    1    1    2    0    0  0.56015776983E+00  0.10690965357E+02  0.63676468923E+02  0.64570228244E+02  0.10566000000E+00 0. -1.
        994    1    1    2    0    0 -0.57971044241E+01 -0.72121866071E+01  0.11964228072E+01  0.17145405648E+03  0.17120000000E+03 0.  0.
        998    1    1    2    0    0  0.52369466543E+01 -0.34787787499E+01  0.14351271045E+04  0.14351757153E+04  0.10000000000E+02 0. -1.
</event>
<event>
 5    1  0.1129619E-008  0.3731985E+03  0.7957747E-01  0.3481319E+00
         13   -1    0    0    0    0  0.00000000000E+00  0.00000000000E+00  0.14999999963E+04  0.15000000000E+04  0.10566000000E+00 0.  1.
        994   -1    0    0    0    0 -0.00000000000E+00 -0.00000000000E+00  0.11368683772E-12  0.17120000000E+03  0.17120000000E+03 0.  0.
         13    1    1    2    0    0 -0.15285260262E+02  0.45631469370E+01  0.13065544604E+02  0.20619920249E+02  0.10566000000E+00 0.  1.
        994    1    1    2    0    0  0.19780435717E+02 -0.84670959565E+01  0.91916460768E+01  0.17279144570E+03  0.17120000000E+03 0.  0.
        998    1    1    2    0    0 -0.44951754550E+01  0.39039490196E+01  0.14777428056E+04  0.14777886340E+04  0.10000000000E+02 0.  1.
</event>
<event>
 5    1  0.1129619E-008  0.3840880E+03  0.7957747E-01  0.3433549E+00
         13   -1    0    0    0    0  0.00000000000E+00  0.00000000000E+00  0.14999999963E+04  0.15000000000E+04  0.10566000000E+00 0. -1.
        994   -1    0    0    0    0 -0.00000000000E+00 -0.00000000000E+00  0.11368683772E-12  0.17120000000E+03  0.17120000000E+03 0.  0.
         13    1    1    2    0    0  0.12551720015E+02  0.76813300236E+01  0.57292076764E+02  0.59151853143E+02  0.10566000000E+00 0. -1.
        994    1    1    2    0    0  0.74333841744E+01  0.66703901774E+01  0.24126712493E+01  0.17150804730E+03  0.17120000000E+03 0.  0.
        998    1    1    2    0    0 -0.19985104189E+02 -0.14351720201E+02  0.14402952483E+04  0.14405400996E+04  0.10000000000E+02 0. -1.
</event>
<event>
 5    1  0.1129619E-008  0.3818170E+03  0.7957747E-01  0.3443285E+00
         13   -1    0    0    0    0  0.00000000000E+00  0.00000000000E+00  0.14999999963E+04  0.15000000000E+04  0.10566000000E+00 0. -1.
        994   -1    0    0    0    0 -0.00000000000E+00 -0.00000000000E+00  0.11368683772E-12  0.17120000000E+03  0.17120000000E+03 0.  0.
         13    1    1    2    0    0 -0.12662741200E+02  0.46645288179E+02  0.59724770827E+02  0.76832202483E+02  0.10566000000E+00 0. -1.
        994    1    1    2    0    0  0.16346250466E+02 -0.40223271634E+02  0.24237130393E+02  0.17827504025E+03  0.17120000000E+03 0.  0.
        998    1    1    2    0    0 -0.36835092654E+01 -0.64220165456E+01  0.14160380951E+04  0.14160927573E+04  0.10000000000E+02 0. -1.
</event>
<event>
 5    1  0.1129619E-008  0.3742877E+03  0.7957747E-01  0.3476414E+00
         13   -1    0    0    0    0  0.00000000000E+00  0.00000000000E+00  0.14999999963E+04  0.15000000000E+04  0.10566000000E+00 0. -1.
        994   -1    0    0    0    0 -0.00000000000E+00 -0.00000000000E+00  0.11368683772E-12  0.17120000000E+03  0.17120000000E+03 0.  0.
         13    1    1    2    0    0  0.22858143774E+02  0.51035067298E+02  0.24903510378E+03  0.25523629622E+03  0.10566000000E+00 0. -1.
        994    1    1    2    0    0 -0.14137893051E+02 -0.86097731348E+01  0.79791505087E+01  0.17218337625E+03  0.17120000000E+03 0.  0.
        998    1    1    2    0    0 -0.87202507228E+01 -0.42425294163E+02  0.12429857420E+04  0.12437803275E+04  0.10000000000E+02 0. -1.
</event>
<event>
 5    1  0.1129619E-008  0.3742766E+03  0.7957747E-01  0.3476464E+00
         13   -1    0    0    0    0  0.00000000000E+00  0.00000000000E+00  0.14999999963E+04  0.15000000000E+04  0.10566000000E+00 0. -1.
        994   -1    0    0    0    0 -0.00000000000E+00 -0.00000000000E+00  0.11368683772E-12  0.17120000000E+03  0.17120000000E+03 0.  0.
         13    1    1    2    0    0  0.48012404553E+02 -0.94808004584E+02  0.37080143331E+03  0.38572977955E+03  0.10566000000E+00 0. -1.
        994    1    1    2    0    0  0.35398904961E+02  0.11884298477E+03  0.70008752100E+02  0.22268229133E+03  0.17120000000E+03 0.  0.
        998    1    1    2    0    0 -0.83411309513E+02 -0.24034980190E+02  0.10591898109E+04  0.10627879291E+04  0.10000000000E+02 0. -1.
</event>
<event>
 5    1  0.1129619E-008  0.3850515E+03  0.7957747E-01  0.3429454E+00
         13   -1    0    0    0    0  0.00000000000E+00  0.00000000000E+00  0.14999999963E+04  0.15000000000E+04  0.10566000000E+00 0.  1.
        994   -1    0    0    0    0 -0.00000000000E+00 -0.00000000000E+00  0.11368683772E-12  0.17120000000E+03  0.17120000000E+03 0.  0.
         13    1    1    2    0    0 -0.13568344057E+02  0.59103767342E+01  0.66544875204E+02  0.68170844894E+02  0.10566000000E+00 0.  1.
        994    1    1    2    0    0  0.10357253443E+02 -0.10890015235E+02  0.23475893188E+01  0.17187442016E+03  0.17120000000E+03 0.  0.
        998    1    1    2    0    0  0.32110906135E+01  0.49796385008E+01  0.14311075318E+04  0.14311547349E+04  0.10000000000E+02 0.  1.
</event>
<event>
 5    1  0.1129619E-008  0.3769656E+03  0.7957747E-01  0.3464478E+00
         13   -1    0    0    0    0  0.00000000000E+00  0.00000000000E+00  0.14999999963E+04  0.15000000000E+04  0.10566000000E+00 0.  1.
        994   -1    0    0    0    0 -0.00000000000E+00 -0.00000000000E+00  0.11368683772E-12  0.17120000000E+03  0.17120000000E+03 0.  0.
         13    1    1    2    0    0 -0.13565687925E+02  0.12963917877E+02  0.28422329855E+02  0.34057760555E+02  0.10566000000E+00 0.  1.
        994    1    1    2    0    0  0.13413534345E+02 -0.96467539602E+01  0.65951331260E+01  0.17212181310E+03  0.17120000000E+03 0.  0.
        998    1    1    2    0    0  0.15215357994E+00 -0.33171639164E+01  0.14649825333E+04  0.14650204263E+04  0.10000000000E+02 0.  1.
</event>
<event>
 5    1  0.1129619E-008  0.3795379E+03  0.7957747E-01  0.3453173E+00
         13   -1    0    0    0    0  0.00000000000E+00  0.00000000000E+00  0.14999999963E+04  0.15000000000E+04  0.10566000000E+00 0.  1.
        994   -1    0    0    0    0 -0.00000000000E+00 -0.00000000000E+00  0.11368683772E-12  0.17120000000E+03  0.17120000000E+03 0.  0.
         13    1    1    2    0    0 -0.68070622226E+02  0.96222840386E+02  0.32518108269E+03  0.34588320619E+03  0.10566000000E+00 0.  1.
        994    1    1    2    0    0  0.10670868643E+03 -0.71416369041E+02  0.78428780688E+02  0.22792006311E+03  0.17120000000E+03 0.  0.
        998    1    1    2    0    0 -0.38638064208E+02 -0.24806471345E+02  0.10963901329E+04  0.10973967307E+04  0.10000000000E+02 0.  1.
</event>
<event>
 5    1  0.1129619E-008  0.3849272E+03  0.7957747E-01  0.3429981E+00
         13   -1    0    0    0    0  0.00000000000E+00  0.00000000000E+00  0.14999999963E+04  0.15000000000E+04  0.10566000000E+00 0.  1.
        994   -1    0    0    0    0 -0.00000000000E+00 -0.00000000000E+00  0.11368683772E-12  0.17120000000E+03  0.17120000000E+03 0.  0.
         13    1    1    2    0    0 -0.21948866589E-01 -0.12796338352E+02  0.47982012694E+02  0.49659152864E+02  0.10566000000E+00 0.  1.
        994    1    1    2    0    0 -0.92301019858E+01  0.12687830369E+02  0.24764632915E+01  0.17193530380E+03  0.17120000000E+03 0.  0.
        998    1    1    2    0    0  0.92520508524E+01  0.10850798309E+00  0.14495415203E+04  0.14496055433E+04  0.10000000000E+02 0.  1.
</event>
<event>
 5    1  0.1129619E-008  0.3822816E+03  0.7957747E-01  0.3441284E+00
         13   -1    0    0    0    0  0.00000000000E+00  0.00000000000E+00  0.14999999963E+04  0.15000000000E+04  0.10566000000E+00 0.  1.
        994   -1    0    0    0    0 -0.00000000000E+00 -0.00000000000E+00  0.11368683772E-12  0.17120000000E+03  0.17120000000E+03 0.  0.
         13    1    1    2    0    0 -0.81556862576E+01 -0.21854578291E+02  0.93744992653E+02  0.96603688450E+02  0.10566000000E+00 0.  1.
        994    1    1    2    0    0  0.13127814613E+02  0.35446116439E+01  0.35995405450E+01  0.17177689158E+03  0.17120000000E+03 0.  0.
        998    1    1    2    0    0 -0.49721283558E+01  0.18309966647E+02  0.14026554631E+04  0.14028194200E+04  0.10000000000E+02 0.  1.
</event>
<event>
 5    1  0.1129619E-008  0.3739285E+03  0.7957747E-01  0.3478029E+00
         13   -1    0    0    0    0  0.00000000000E+00  0.00000000000E+00  0.14999999963E+04  0.15000000000E+04  0.10566000000E+00 0.  1.
        994   -1    0    0    0    0 -0.00000000000E+00 -0.00000000000E+00  0.11368683772E-12  0.17120000000E+03  0.17120000000E+03 0.  0.
         13    1    1    2    0    0 -0.53396307025E+02 -0.31418905351E+02  0.13034531623E+03  0.14431987335E+03  0.10566000000E+00 0.  1.
        994    1    1    2    0    0  0.55685383222E+02  0.30484598200E+02  0.27458566449E+02  0.18464448409E+03  0.17120000000E+03 0.  0.
        998    1    1    2    0    0 -0.22890761969E+01  0.93430715095E+00  0.13421961136E+04  0.13422356426E+04  0.10000000000E+02 0.  1.
</event>
<event>
 5    1  0.1129619E-008  0.3686183E+03  0.7957747E-01  0.3502265E+00
         13   -1    0    0    0    0  0.00000000000E+00  0.00000000000E+00  0.14999999963E+04  0.15000000000E+04  0.10566000000E+00 0.  1.
        994   -1    0    0    0    0 -0.00000000000E+00 -0.00000000000E+00  0.11368683772E-12  0.17120000000E+03  0.17120000000E+03 0.  0.
         13    1    1    2    0    0 -0.96995036007E+02 -0.11163455308E+03  0.83254150220E+03  0.84557416854E+03  0.10566000000E+00 0.  1.
        994    1    1    2    0    0  0.50137074568E+02  0.10807153218E+03  0.61059779295E+02  0.21732675620E+03  0.17120000000E+03 0.  0.
        998    1    1    2    0    0  0.46857961439E+02  0.35630208969E+01  0.60639871479E+03  0.60829907526E+03  0.10000000000E+02 0. -1.
</event>
<event>
 5    1  0.1129619E-008  0.3804020E+03  0.7957747E-01  0.3449410E+00
         13   -1    0    0    0    0  0.00000000000E+00  0.00000000000E+00  0.14999999963E+04  0.15000000000E+04  0.10566000000E+00 0. -1.
        994   -1    0    0    0    0 -0.00000000000E+00 -0.00000000000E+00  0.11368683772E-12  0.17120000000E+03  0.17120000000E+03 0.  0.
         13    1    1    2    0    0  0.18039408798E+02 -0.14392692044E+02  0.62498725059E+02  0.66623356656E+02  0.10566000000E+00 0. -1.
        994    1    1    2    0    0 -0.24256790468E+02  0.15939715267E+02  0.67480319129E+01  0.17377411298E+03  0.17120000000E+03 0.  0.
        998    1    1    2    0    0  0.62173816701E+01 -0.15470232226E+01  0.14307532393E+04  0.14308025304E+04  0.10000000000E+02 0. -1.
</event>
<event>
 5    1  0.1129619E-008  0.3820235E+03  0.7957747E-01  0.3442395E+00
         13   -1    0    0    0    0  0.00000000000E+00  0.00000000000E+00  0.14999999963E+04  0.15000000000E+04  0.10566000000E+00 0.  1.
        994   -1    0    0    0    0 -0.00000000000E+00 -0.00000000000E+00  0.11368683772E-12  0.17120000000E+03  0.17120000000E+03 0.  0.
         13    1    1    2    0    0 -0.27972168164E+02  0.91701675569E+01  0.17544431250E+03  0.17789674566E+03  0.10566000000E+00 0.  1.
        994    1    1    2    0    0 -0.12153223133E+02  0.82290100482E+00  0.36080512305E+01  0.17167071979E+03  0.17120000000E+03 0.  0.
        998    1    1    2    0    0  0.40125391297E+02 -0.99930685617E+01  0.13209476326E+04  0.13216325346E+04  0.10000000000E+02 0.  1.
</event>
<event>
 5    1  0.1129619E-008  0.3757384E+03  0.7957747E-01  0.3469927E+00
         13   -1    0    0    0    0  0.00000000000E+00  0.00000000000E+00  0.14999999963E+04  0.15000000000E+04  0.10566000000E+00 0.  1.
        994   -1    0    0    0    0 -0.00000000000E+00 -0.00000000000E+00  0.11368683772E-12  0.17120000000E+03  0.17120000000E+03 0.  0.
         13    1    1    2    0    0  0.85002371936E+02  0.67815999367E+02  0.61799652548E+03  0.62749034230E+03  0.10566000000E+00 0.  1.
        994    1    1    2    0    0 -0.87402074724E+02 -0.49236659239E+02  0.41224993554E+02  0.20266304886E+03  0.17120000000E+03 0.  0.
        998    1    1    2    0    0  0.23997027882E+01 -0.18579340129E+02  0.84077847725E+03  0.84104660885E+03  0.10000000000E+02 0.  1.
</event>
<event>
 5    1  0.1129619E-008  0.3827101E+03  0.7957747E-01  0.3439442E+00
         13   -1    0    0    0    0  0.00000000000E+00  0.00000000000E+00  0.14999999963E+04  0.15000000000E+04  0.10566000000E+00 0. -1.
        994   -1    0    0    0    0 -0.00000000000E+00 -0.00000000000E+00  0.11368683772E-12  0.17120000000E+03  0.17120000000E+03 0.  0.
         13    1    1    2    0    0  0.19018857322E+03 -0.13957502878E+02  0.99718464636E+03  0.10152555025E+04  0.10566000000E+00 0. -1.
        994    1    1    2    0    0 -0.20368875880E+03  0.18372919465E+02  0.15659054877E+03  0.30928419713E+03  0.17120000000E+03 0.  0.
        998    1    1    2    0    0  0.13500185588E+02 -0.44154165868E+01  0.34622480115E+03  0.34666030036E+03  0.10000000000E+02 0. -1.
</event>
<event>
 5    1  0.1139638E-008  0.3861397E+03  0.7957747E-01  0.3424853E+00
         13   -1    0    0    0    0  0.00000000000E+00  0.00000000000E+00  0.14999999963E+04  0.15000000000E+04  0.10566000000E+00 0.  1.
        994   -1    0    0    0    0 -0.00000000000E+00 -0.00000000000E+00  0.11368683772E-12  0.17120000000E+03  0.17120000000E+03 0.  0.
         13    1    1    2    0    0 -0.11866644568E+02 -0.32875823959E+01  0.68755887697E+02  0.69849901277E+02  0.10566000000E+00 0.  1.
        994    1    1    2    0    0  0.14786701643E+02  0.12957579065E+00  0.17821322277E+01  0.17184667390E+03  0.17120000000E+03 0.  0.
        998    1    1    2    0    0 -0.29200570747E+01  0.31580066053E+01  0.14294619764E+04  0.14295034248E+04  0.10000000000E+02 0.  1.
</event>
<event>
 5    1  0.1129619E-008  0.3830825E+03  0.7957747E-01  0.3437845E+00
         13   -1    0    0    0    0  0.00000000000E+00  0.00000000000E+00  0.14999999963E+04  0.15000000000E+04  0.10566000000E+00 0. -1.
        994   -1    0    0    0    0 -0.00000000000E+00 -0.00000000000E+00  0.11368683772E-12  0.17120000000E+03  0.17120000000E+03 0.  0.
         13    1    1    2    0    0  0.22057161375E+02 -0.15243322106E+02  0.12727193919E+03  0.13006550236E+03  0.10566000000E+00 0. -1.
        994    1    1    2    0    0 -0.29792263717E+02  0.63624733207E+01  0.56623610137E+01  0.17398150010E+03  0.17120000000E+03 0.  0.
        998    1    1    2    0    0  0.77351023424E+01  0.88808487854E+01  0.13670656961E+04  0.13671529975E+04  0.10000000000E+02 0. -1.
</event>
<event>
 5    1  0.1129619E-008  0.3823975E+03  0.7957747E-01  0.3440785E+00
         13   -1    0    0    0    0  0.00000000000E+00  0.00000000000E+00  0.14999999963E+04  0.15000000000E+04  0.10566000000E+00 0. -1.
        994   -1    0    0    0    0 -0.00000000000E+00 -0.00000000000E+00  0.11368683772E-12  0.17120000000E+03  0.17120000000E+03 0.  0.
         13    1    1    2    0    0 -0.26213237736E+02  0.85426149336E+01  0.15468892140E+03  0.15712664850E+03  0.10566000000E+00 0. -1.
        994    1    1    2    0    0 -0.62745218585E+01  0.32251291177E+01  0.30928595532E+01  0.17137320929E+03  0.17120000000E+03 0.  0.
        998    1    1    2    0    0  0.32487759595E+02 -0.11767744051E+02  0.13422182153E+04  0.13427001422E+04  0.10000000000E+02 0. -1.
</event>
<event>
 5    1  0.1129619E-008  0.3811656E+03  0.7957747E-01  0.3446099E+00
         13   -1    0    0    0    0  0.00000000000E+00  0.00000000000E+00  0.14999999963E+04  0.15000000000E+04  0.10566000000E+00 0.  1.
        994   -1    0    0    0    0 -0.00000000000E+00 -0.00000000000E+00  0.11368683772E-12  0.17120000000E+03  0.17120000000E+03 0.  0.
         13    1    1    2    0    0 -0.30641151355E+01  0.19207635193E+02  0.55207165426E+02  0.58533446248E+02  0.10566000000E+00 0.  1.
        994    1    1    2    0    0  0.88692424451E+01  0.26496660028E+01  0.38312914571E+01  0.17149286570E+03  0.17120000000E+03 0.  0.
        998    1    1    2    0    0 -0.58051273096E+01 -0.21857301196E+02  0.14409615394E+04  0.14411736881E+04  0.10000000000E+02 0.  1.
</event>
<event>
 5    1  0.1129619E-008  0.3742580E+03  0.7957747E-01  0.3476548E+00
         13   -1    0    0    0    0  0.00000000000E+00  0.00000000000E+00  0.14999999963E+04  0.15000000000E+04  0.10566000000E+00 0.  1.
        994   -1    0    0    0    0 -0.00000000000E+00 -0.00000000000E+00  0.11368683772E-12  0.17120000000E+03  0.17120000000E+03 0.  0.
         13    1    1    2    0    0  0.49646772533E+02  0.11620171525E+02  0.21897123523E+03  0.22482936514E+03  0.10566000000E+00 0.  1.
        994    1    1    2    0    0 -0.20586739172E+01  0.81593112727E+01  0.73016091421E+01  0.17156213450E+03  0.17120000000E+03 0.  0.
        998    1    1    2    0    0 -0.47588098616E+02 -0.19779482798E+02  0.12737271519E+04  0.12748085004E+04  0.10000000000E+02 0.  1.
</event>
<event>
 5    1  0.1129619E-008  0.3829947E+03  0.7957747E-01  0.3438222E+00
         13   -1    0    0    0    0  0.00000000000E+00  0.00000000000E+00  0.14999999963E+04  0.15000000000E+04  0.10566000000E+00 0.  1.
        994   -1    0    0    0    0 -0.00000000000E+00 -0.00000000000E+00  0.11368683772E-12  0.17120000000E+03  0.17120000000E+03 0.  0.
         13    1    1    2    0    0 -0.25737083118E+02  0.24386008927E+02  0.20303620359E+03  0.20610867524E+03  0.10566000000E+00 0.  1.
        994    1    1    2    0    0  0.27902669571E+02 -0.26636602892E+02  0.75704261715E+01  0.17565539825E+03  0.17120000000E+03 0.  0.
        998    1    1    2    0    0 -0.21655864531E+01  0.22505939648E+01  0.12893933665E+04  0.12894359265E+04  0.10000000000E+02 0.  1.
</event>
<event>
 5    1  0.1129619E-008  0.3817007E+03  0.7957747E-01  0.3443787E+00
         13   -1    0    0    0    0  0.00000000000E+00  0.00000000000E+00  0.14999999963E+04  0.15000000000E+04  0.10566000000E+00 0.  1.
        994   -1    0    0    0    0 -0.00000000000E+00 -0.00000000000E+00  0.11368683772E-12  0.17120000000E+03  0.17120000000E+03 0.  0.
         13    1    1    2    0    0 -0.12979469521E+02  0.83016142137E+01  0.34380373166E+02  0.37674987069E+02  0.10566000000E+00 0.  1.
        994    1    1    2    0    0  0.12733829453E+02 -0.90752605635E+01  0.40903250679E+01  0.17196127915E+03  0.17120000000E+03 0.  0.
        998    1    1    2    0    0  0.24564006830E+00  0.77364634982E+00  0.14615292980E+04  0.14615637338E+04  0.10000000000E+02 0.  1.
</event>
<event>
 5    1  0.1129619E-008  0.3853149E+03  0.7957747E-01  0.3428338E+00
         13   -1    0    0    0    0  0.00000000000E+00  0.00000000000E+00  0.14999999963E+04  0.15000000000E+04  0.10566000000E+00 0. -1.
        994   -1    0    0    0    0 -0.00000000000E+00 -0.00000000000E+00  0.11368683772E-12  0.17120000000E+03  0.17120000000E+03 0.  0.
         13    1    1    2    0    0  0.59197812396E+02  0.14803353566E+03  0.94886292371E+03  0.96216379470E+03  0.10566000000E+00 0. -1.
        994    1    1    2    0    0 -0.66615519638E+02 -0.17562302722E+03  0.12753005357E+03  0.28434913348E+03  0.17120000000E+03 0.  0.
        998    1    1    2    0    0  0.74177072415E+01  0.27589491563E+02  0.42360701900E+03  0.42468707182E+03  0.10000000000E+02 0. -1.
</event>
<event>
 5    1  0.1868715E-008  0.3862460E+03  0.7957747E-01  0.3424405E+00
         13   -1    0    0    0    0  0.00000000000E+00  0.00000000000E+00  0.14999999963E+04  0.15000000000E+04  0.10566000000E+00 0. -1.
        994   -1    0    0    0    0 -0.00000000000E+00 -0.00000000000E+00  0.11368683772E-12  0.17120000000E+03  0.17120000000E+03 0.  0.
         13    1    1    2    0    0 -0.14557109394E+01  0.11199676694E+02  0.61924966882E+02  0.62946521268E+02  0.10566000000E+00 0. -1.
        994    1    1    2    0    0  0.22879899598E+01 -0.11594334054E+02  0.14703597527E+01  0.17161370994E+03  0.17120000000E+03 0.  0.
        998    1    1    2    0    0 -0.83227902043E+00  0.39465736071E+00  0.14366046696E+04  0.14366397688E+04  0.10000000000E+02 0. -1.
</event>
<event>
 5    1  0.1129619E-008  0.3773916E+03  0.7957747E-01  0.3462595E+00
         13   -1    0    0    0    0  0.00000000000E+00  0.00000000000E+00  0.14999999963E+04  0.15000000000E+04  0.10566000000E+00 0. -1.
        994   -1    0    0    0    0 -0.00000000000E+00 -0.00000000000E+00  0.11368683772E-12  0.17120000000E+03  0.17120000000E+03 0.  0.
         13    1    1    2    0    0  0.40415234747E+02  0.41809476761E+02  0.26645878177E+03  0.27273011769E+03  0.10566000000E+00 0. -1.
        994    1    1    2    0    0 -0.32469026328E+02 -0.41653771928E+02  0.14919554294E+02  0.17978127680E+03  0.17120000000E+03 0.  0.
        998    1    1    2    0    0 -0.79462084184E+01 -0.15570483350E+00  0.12186216602E+04  0.12186886055E+04  0.10000000000E+02 0. -1.
</event>
<event>
 5    1  0.1129619E-008  0.3798455E+03  0.7957747E-01  0.3451832E+00
         13   -1    0    0    0    0  0.00000000000E+00  0.00000000000E+00  0.14999999963E+04  0.15000000000E+04  0.10566000000E+00 0. -1.
        994   -1    0    0    0    0 -0.00000000000E+00 -0.00000000000E+00  0.11368683772E-12  0.17120000000E+03  0.17120000000E+03 0.  0.
         13    1    1    2    0    0  0.30812940265E+01  0.27353920790E+02  0.89754192433E+02  0.93880549523E+02  0.10566000000E+00 0. -1.
        994    1    1    2    0    0  0.41841149406E+01 -0.14607261365E+02  0.49837350938E+01  0.17194521371E+03  0.17120000000E+03 0.  0.
        998    1    1    2    0    0 -0.72654089672E+01 -0.12746659425E+02  0.14052620688E+04  0.14053742368E+04  0.10000000000E+02 0. -1.
</event>
<event>
 5    1  0.1129619E-008  0.3775777E+03  0.7957747E-01  0.3461774E+00
         13   -1    0    0    0    0  0.00000000000E+00  0.00000000000E+00  0.14999999963E+04  0.15000000000E+04  0.10566000000E+00 0. -1.
        994   -1    0    0    0    0 -0.00000000000E+00 -0.00000000000E+00  0.11368683772E-12  0.17120000000E+03  0.17120000000E+03 0.  0.
         13    1    1    2    0    0 -0.71700700164E+01 -0.13180591645E+02  0.18507913293E+02  0.23826286296E+02  0.10566000000E+00 0. -1.
        994    1    1    2    0    0  0.57312003955E+01  0.13685022974E+02  0.61030798168E+01  0.17195003372E+03  0.17120000000E+03 0.  0.
        998    1    1    2    0    0  0.14388696209E+01 -0.50443132825E+00  0.14753890032E+04  0.14754236800E+04  0.10000000000E+02 0.  0.
</event>
<event>
 5    1  0.1129619E-008  0.3846644E+03  0.7957747E-01  0.3431097E+00
         13   -1    0    0    0    0  0.00000000000E+00  0.00000000000E+00  0.14999999963E+04  0.15000000000E+04  0.10566000000E+00 0. -1.
        994   -1    0    0    0    0 -0.00000000000E+00 -0.00000000000E+00  0.11368683772E-12  0.17120000000E+03  0.17120000000E+03 0.  0.
         13    1    1    2    0    0  0.14555534610E+02 -0.65273938464E+01  0.87882926261E+02  0.89319036887E+02  0.10566000000E+00 0. -1.
        994    1    1    2    0    0  0.12800573168E+02 -0.18276021256E+02  0.34376429887E+01  0.17268215025E+03  0.17120000000E+03 0.  0.
        998    1    1    2    0    0 -0.27356107778E+02  0.24803415103E+02  0.14086794270E+04  0.14091988129E+04  0.10000000000E+02 0. -1.
</event>
<event>
 5    1  0.1129619E-008  0.3764100E+03  0.7957747E-01  0.3466941E+00
         13   -1    0    0    0    0  0.00000000000E+00  0.00000000000E+00  0.14999999963E+04  0.15000000000E+04  0.10566000000E+00 0.  1.
        994   -1    0    0    0    0 -0.00000000000E+00 -0.00000000000E+00  0.11368683772E-12  0.17120000000E+03  0.17120000000E+03 0.  0.
         13    1    1    2    0    0 -0.22598064790E+02  0.15894967682E+02  0.61861096840E+02  0.67750490745E+02  0.10566000000E+00 0.  1.
        994    1    1    2    0    0  0.11005123236E+02 -0.14876729237E+02  0.71157932557E+01  0.17234414502E+03  0.17120000000E+03 0.  0.
        998    1    1    2    0    0  0.11592941554E+02 -0.10182384448E+01  0.14310231062E+04  0.14311053642E+04  0.10000000000E+02 0.  1.
</event>
<event>
 5    1  0.1129619E-008  0.3817013E+03  0.7957747E-01  0.3443784E+00
         13   -1    0    0    0    0  0.00000000000E+00  0.00000000000E+00  0.14999999963E+04  0.15000000000E+04  0.10566000000E+00 0.  1.
        994   -1    0    0    0    0 -0.00000000000E+00 -0.00000000000E+00  0.11368683772E-12  0.17120000000E+03  0.17120000000E+03 0.  0.
         13    1    1    2    0    0  0.84204841433E+01  0.12622619409E+02  0.33426186732E+02  0.36709075137E+02  0.10566000000E+00 0.  1.
        994    1    1    2    0    0 -0.95099991610E+01 -0.11106669679E+02  0.39878076044E+01  0.17186954589E+03  0.17120000000E+03 0.  0.
        998    1    1    2    0    0  0.10895150177E+01 -0.15159497305E+01  0.14625860019E+04  0.14626213790E+04  0.10000000000E+02 0.  1.
</event>
<event>
 5    1  0.1129619E-008  0.3850173E+03  0.7957747E-01  0.3429599E+00
         13   -1    0    0    0    0  0.00000000000E+00  0.00000000000E+00  0.14999999963E+04  0.15000000000E+04  0.10566000000E+00 0.  1.
        994   -1    0    0    0    0 -0.00000000000E+00 -0.00000000000E+00  0.11368683772E-12  0.17120000000E+03  0.17120000000E+03 0.  0.
         13    1    1    2    0    0 -0.52830554217E+01 -0.19011823523E+02  0.10341523885E+03  0.10528097121E+03  0.10566000000E+00 0.  1.
        994    1    1    2    0    0 -0.13925459214E+02  0.37720325297E+02  0.69563136737E+01  0.17599594215E+03  0.17120000000E+03 0.  0.
        998    1    1    2    0    0  0.19208514636E+02 -0.18708501774E+02  0.13896284438E+04  0.13899230866E+04  0.10000000000E+02 0.  1.
</event>
<event>
 5    1  0.1129619E-008  0.3696655E+03  0.7957747E-01  0.3497430E+00
         13   -1    0    0    0    0  0.00000000000E+00  0.00000000000E+00  0.14999999963E+04  0.15000000000E+04  0.10566000000E+00 0. -1.
        994   -1    0    0    0    0 -0.00000000000E+00 -0.00000000000E+00  0.11368683772E-12  0.17120000000E+03  0.17120000000E+03 0.  0.
         13    1    1    2    0    0  0.13762341199E+02 -0.23926130262E+01  0.60262834649E+01  0.15213608672E+02  0.10566000000E+00 0. -1.
        994    1    1    2    0    0 -0.10805364265E+02  0.44297217561E+00  0.98489674891E+01  0.17182373026E+03  0.17120000000E+03 0.  0.
        998    1    1    2    0    0 -0.29569769345E+01  0.19496408506E+01  0.14841247453E+04  0.14841626611E+04  0.10000000000E+02 0. -1.
</event>
<event>
 5    1  0.1129619E-008  0.4033077E+03  0.7957747E-01  0.3355554E+00
         13   -1    0    0    0    0  0.00000000000E+00  0.00000000000E+00  0.14999999963E+04  0.15000000000E+04  0.10566000000E+00 0. -1.
        994   -1    0    0    0    0 -0.00000000000E+00 -0.00000000000E+00  0.11368683772E-12  0.17120000000E+03  0.17120000000E+03 0.  0.
         13    1    1    2    0    0  0.35411563459E+02  0.54646192026E+02  0.57685863447E+02  0.86993420069E+02  0.10566000000E+00 0. -1.
        994    1    1    2    0    0 -0.38975788825E+02 -0.60914843956E+02  0.50836932165E+02  0.19267476223E+03  0.17120000000E+03 0.  0.
        998    1    1    2    0    0  0.35642253662E+01  0.62686519303E+01  0.13914772007E+04  0.13915318177E+04  0.10000000000E+02 0. -1.
</event>
<event>
 5    1  0.1129619E-008  0.3841562E+03  0.7957747E-01  0.3433259E+00
         13   -1    0    0    0    0  0.00000000000E+00  0.00000000000E+00  0.14999999963E+04  0.15000000000E+04  0.10566000000E+00 0.  1.
        994   -1    0    0    0    0 -0.00000000000E+00 -0.00000000000E+00  0.11368683772E-12  0.17120000000E+03  0.17120000000E+03 0.  0.
         13    1    1    2    0    0 -0.13043944783E+02 -0.63812111040E+01  0.49444658233E+02  0.51532996638E+02  0.10566000000E+00 0.  1.
        994    1    1    2    0    0  0.12496372617E+02  0.10832043514E+02  0.29520482740E+01  0.17202222846E+03  0.17120000000E+03 0.  0.
        998    1    1    2    0    0  0.54757216567E+00 -0.44508324104E+01  0.14476032898E+04  0.14476447749E+04  0.10000000000E+02 0.  1.
</event>
<event>
 5    1  0.1129619E-008  0.3823787E+03  0.7957747E-01  0.3440866E+00
         13   -1    0    0    0    0  0.00000000000E+00  0.00000000000E+00  0.14999999963E+04  0.15000000000E+04  0.10566000000E+00 0.  1.
        994   -1    0    0    0    0 -0.00000000000E+00 -0.00000000000E+00  0.11368683772E-12  0.17120000000E+03  0.17120000000E+03 0.  0.
         13    1    1    2    0    0  0.18100196157E+02  0.30428722063E+02  0.20956122311E+03  0.21253103684E+03  0.10566000000E+00 0.  1.
        994    1    1    2    0    0  0.14001423485E+01 -0.27023680186E+02  0.53696851070E+01  0.17340851538E+03  0.17120000000E+03 0.  0.
        998    1    1    2    0    0 -0.19500338505E+02 -0.34050418765E+01  0.12850690881E+04  0.12852604478E+04  0.10000000000E+02 0.  1.
</event>
<event>
 5    1  0.1129619E-008  0.3787138E+03  0.7957747E-01  0.3456778E+00
         13   -1    0    0    0    0  0.00000000000E+00  0.00000000000E+00  0.14999999963E+04  0.15000000000E+04  0.10566000000E+00 0.  1.
        994   -1    0    0    0    0 -0.00000000000E+00 -0.00000000000E+00  0.11368683772E-12  0.17120000000E+03  0.17120000000E+03 0.  0.
         13    1    1    2    0    0 -0.41868131927E+02  0.20104636578E+02  0.19901538507E+03  0.20436308752E+03  0.10566000000E+00 0.  1.
        994    1    1    2    0    0  0.43064107727E+02 -0.12354881484E+02  0.11551930004E+02  0.17734161259E+03  0.17120000000E+03 0.  0.
        998    1    1    2    0    0 -0.11959758001E+01 -0.77497550941E+01  0.12894326812E+04  0.12894952999E+04  0.10000000000E+02 0.  1.
</event>
<event>
 5    1  0.1129619E-008  0.3691645E+03  0.7957747E-01  0.3499740E+00
         13   -1    0    0    0    0  0.00000000000E+00  0.00000000000E+00  0.14999999963E+04  0.15000000000E+04  0.10566000000E+00 0. -1.
        994   -1    0    0    0    0 -0.00000000000E+00 -0.00000000000E+00  0.11368683772E-12  0.17120000000E+03  0.17120000000E+03 0.  0.
         13    1    1    2    0    0  0.77449709497E+01  0.17178740572E+02  0.12204294559E+02  0.22451050585E+02  0.10566000000E+00 0. -1.
        994    1    1    2    0    0 -0.85780450330E+01 -0.14968920200E+02  0.11535890000E+02  0.17245337975E+03  0.17120000000E+03 0.  0.
        998    1    1    2    0    0  0.83307408337E+00 -0.22098203720E+01  0.14762598117E+04  0.14762955697E+04  0.10000000000E+02 0. -1.
</event>
<event>
 5    1  0.1129619E-008  0.3809854E+03  0.7957747E-01  0.3446879E+00
         13   -1    0    0    0    0  0.00000000000E+00  0.00000000000E+00  0.14999999963E+04  0.15000000000E+04  0.10566000000E+00 0. -1.
        994   -1    0    0    0    0 -0.00000000000E+00 -0.00000000000E+00  0.11368683772E-12  0.17120000000E+03  0.17120000000E+03 0.  0.
         13    1    1    2    0    0 -0.44392967255E+01 -0.16513440944E+02  0.41546969125E+02  0.44928419678E+02  0.10566000000E+00 0. -1.
        994    1    1    2    0    0 -0.13940394663E+02 -0.33951521142E+01  0.43228002430E+01  0.17185455555E+03  0.17120000000E+03 0.  0.
        998    1    1    2    0    0  0.18379691389E+02  0.19908593058E+02  0.14541302269E+04  0.14544170248E+04  0.10000000000E+02 0. -1.
</event>
<event>
 5    1  0.1129619E-008  0.3852016E+03  0.7957747E-01  0.3428817E+00
         13   -1    0    0    0    0  0.00000000000E+00  0.00000000000E+00  0.14999999963E+04  0.15000000000E+04  0.10566000000E+00 0. -1.
        994   -1    0    0    0    0 -0.00000000000E+00 -0.00000000000E+00  0.11368683772E-12  0.17120000000E+03  0.17120000000E+03 0.  0.
         13    1    1    2    0    0  0.80240621114E+01 -0.12608810069E+02  0.76170713506E+02  0.77623169377E+02  0.10566000000E+00 0. -1.
        994    1    1    2    0    0 -0.89432093325E+01 -0.71565576131E+00  0.17946491109E+01  0.17144431726E+03  0.17120000000E+03 0.  0.
        998    1    1    2    0    0  0.91914722109E+00  0.13324465831E+02  0.14220346337E+04  0.14221325134E+04  0.10000000000E+02 0. -1.
</event>
<event>
 5    1  0.1129619E-008  0.3684162E+03  0.7957747E-01  0.3503201E+00
         13   -1    0    0    0    0  0.00000000000E+00  0.00000000000E+00  0.14999999963E+04  0.15000000000E+04  0.10566000000E+00 0. -1.
        994   -1    0    0    0    0 -0.00000000000E+00 -0.00000000000E+00  0.11368683772E-12  0.17120000000E+03  0.17120000000E+03 0.  0.
         13    1    1    2    0    0 -0.15242618161E+01 -0.74388485592E+02  0.27661515315E+03  0.28644707064E+03  0.10566000000E+00 0. -1.
        994    1    1    2    0    0 -0.26396857399E+02  0.41104434091E+02  0.18442137657E+02  0.17898581235E+03  0.17120000000E+03 0.  0.
        998    1    1    2    0    0  0.27921119215E+02  0.33284051501E+02  0.12049427055E+04  0.12057671170E+04  0.10000000000E+02 0. -1.
</event>
<event>
 5    1  0.1129619E-008  0.3833508E+03  0.7957747E-01  0.3436697E+00
         13   -1    0    0    0    0  0.00000000000E+00  0.00000000000E+00  0.14999999963E+04  0.15000000000E+04  0.10566000000E+00 0.  1.
        994   -1    0    0    0    0 -0.00000000000E+00 -0.00000000000E+00  0.11368683772E-12  0.17120000000E+03  0.17120000000E+03 0.  0.
         13    1    1    2    0    0  0.87394303164E+00  0.22105675294E+02  0.95527604948E+02  0.98055897975E+02  0.10566000000E+00 0.  1.
        994    1    1    2    0    0  0.34804741601E+01 -0.19936262192E+02  0.38064725725E+01  0.17243403807E+03  0.17120000000E+03 0.  0.
        998    1    1    2    0    0 -0.43544171918E+01 -0.21694131019E+01  0.14006659188E+04  0.14007100640E+04  0.10000000000E+02 0.  1.
</event>
<event>
 5    1  0.1129619E-008  0.3763066E+03  0.7957747E-01  0.3467400E+00
         13   -1    0    0    0    0  0.00000000000E+00  0.00000000000E+00  0.14999999963E+04  0.15000000000E+04  0.10566000000E+00 0.  1.
        994   -1    0    0    0    0 -0.00000000000E+00 -0.00000000000E+00  0.11368683772E-12  0.17120000000E+03  0.17120000000E+03 0.  0.
         13    1    1    2    0    0 -0.25944462242E+02  0.12748714903E+01  0.54770702899E+02  0.60618326258E+02  0.10566000000E+00 0.  1.
        994    1    1    2    0    0  0.13311234611E+02  0.29538509941E+02  0.95700395616E+01  0.17450139883E+03  0.17120000000E+03 0.  0.
        998    1    1    2    0    0  0.12633227631E+02 -0.30813381432E+02  0.14356592538E+04  0.14360802749E+04  0.10000000000E+02 0.  1.
</event>
<event>
 5    1  0.1129619E-008  0.3820471E+03  0.7957747E-01  0.3442293E+00
         13   -1    0    0    0    0  0.00000000000E+00  0.00000000000E+00  0.14999999963E+04  0.15000000000E+04  0.10566000000E+00 0. -1.
        994   -1    0    0    0    0 -0.00000000000E+00 -0.00000000000E+00  0.11368683772E-12  0.17120000000E+03  0.17120000000E+03 0.  0.
         13    1    1    2    0    0 -0.16062404338E+02 -0.10408193414E+02  0.56313546722E+02  0.59477374116E+02  0.10566000000E+00 0. -1.
        994    1    1    2    0    0  0.16143159303E+02  0.10091111527E+02  0.43077049146E+01  0.17230910726E+03  0.17120000000E+03 0.  0.
        998    1    1    2    0    0 -0.80754964562E-01  0.31708188687E+00  0.14393787446E+04  0.14394135186E+04  0.10000000000E+02 0. -1.
</event>
<event>
 5    1  0.1129619E-008  0.3845764E+03  0.7957747E-01  0.3431471E+00
         13   -1    0    0    0    0  0.00000000000E+00  0.00000000000E+00  0.14999999963E+04  0.15000000000E+04  0.10566000000E+00 0. -1.
        994   -1    0    0    0    0 -0.00000000000E+00 -0.00000000000E+00  0.11368683772E-12  0.17120000000E+03  0.17120000000E+03 0.  0.
         13    1    1    2    0    0  0.22689839718E+02 -0.42187698074E+00  0.13371994901E+03  0.13563201220E+03  0.10566000000E+00 0. -1.
        994    1    1    2    0    0 -0.19254117472E+02 -0.57586827847E+01  0.31717900526E+01  0.17240470910E+03  0.17120000000E+03 0.  0.
        998    1    1    2    0    0 -0.34357222455E+01  0.61805597654E+01  0.13631082572E+04  0.13631632787E+04  0.10000000000E+02 0. -1.
</event>
<event>
 5    1  0.1129619E-008  0.3810047E+03  0.7957747E-01  0.3446795E+00
         13   -1    0    0    0    0  0.00000000000E+00  0.00000000000E+00  0.14999999963E+04  0.15000000000E+04  0.10566000000E+00 0.  1.
        994   -1    0    0    0    0 -0.00000000000E+00 -0.00000000000E+00  0.11368683772E-12  0.17120000000E+03  0.17120000000E+03 0.  0.
         13    1    1    2    0    0 -0.21089676690E+02  0.12727785048E+02  0.85017123575E+02  0.88513803670E+02  0.10566000000E+00 0.  1.
        994    1    1    2    0    0  0.34218916859E+01 -0.12154580454E+02  0.41582394989E+01  0.17171538698E+03  0.17120000000E+03 0.  0.
        998    1    1    2    0    0  0.17667785004E+02 -0.57320459390E+00  0.14108246332E+04  0.14109708094E+04  0.10000000000E+02 0.  1.
</event>
<event>
 5    1  0.1129619E-008  0.3817779E+03  0.7957747E-01  0.3443453E+00
         13   -1    0    0    0    0  0.00000000000E+00  0.00000000000E+00  0.14999999963E+04  0.15000000000E+04  0.10566000000E+00 0.  1.
        994   -1    0    0    0    0 -0.00000000000E+00 -0.00000000000E+00  0.11368683772E-12  0.17120000000E+03  0.17120000000E+03 0.  0.
         13    1    1    2    0    0  0.14463888284E+02 -0.32967906989E+02  0.34958866957E+02  0.50181874203E+02  0.10566000000E+00 0.  1.
        994    1    1    2    0    0  0.79065903541E+02 -0.44933465751E+01  0.40556829173E+02  0.19294015564E+03  0.17120000000E+03 0.  0.
        998    1    1    2    0    0 -0.93529791825E+02  0.37461253564E+02  0.14244843001E+04  0.14280779702E+04  0.10000000000E+02 0.  1.
</event>
<event>
 5    1  0.1129619E-008  0.3745891E+03  0.7957747E-01  0.3475063E+00
         13   -1    0    0    0    0  0.00000000000E+00  0.00000000000E+00  0.14999999963E+04  0.15000000000E+04  0.10566000000E+00 0. -1.
        994   -1    0    0    0    0 -0.00000000000E+00 -0.00000000000E+00  0.11368683772E-12  0.17120000000E+03  0.17120000000E+03 0.  0.
         13    1    1    2    0    0  0.21787644084E+02 -0.61448625507E+02  0.26044836590E+03  0.26848463173E+03  0.10566000000E+00 0. -1.
        994    1    1    2    0    0 -0.24511735137E+02  0.56611477146E+02  0.19956511575E+02  0.18306661863E+03  0.17120000000E+03 0.  0.
        998    1    1    2    0    0  0.27240910530E+01  0.48371483616E+01  0.12195951188E+04  0.12196487496E+04  0.10000000000E+02 0. -1.
</event>
<event>
 5    1  0.1129619E-008  0.3818564E+03  0.7957747E-01  0.3443115E+00
         13   -1    0    0    0    0  0.00000000000E+00  0.00000000000E+00  0.14999999963E+04  0.15000000000E+04  0.10566000000E+00 0.  1.
        994   -1    0    0    0    0 -0.00000000000E+00 -0.00000000000E+00  0.11368683772E-12  0.17120000000E+03  0.17120000000E+03 0.  0.
         13    1    1    2    0    0 -0.11029354220E+02 -0.41220089201E+01  0.19914373680E+02  0.23135061166E+02  0.10566000000E+00 0.  1.
        994    1    1    2    0    0  0.13843996731E+02  0.10190806265E+02  0.41814089926E+01  0.17211168746E+03  0.17120000000E+03 0.  0.
        998    1    1    2    0    0 -0.28146425115E+01 -0.60687973450E+01  0.14759042136E+04  0.14759532514E+04  0.10000000000E+02 0.  1.
</event>
<event>
 5    1  0.1129619E-008  0.3761400E+03  0.7957747E-01  0.3468140E+00
         13   -1    0    0    0    0  0.00000000000E+00  0.00000000000E+00  0.14999999963E+04  0.15000000000E+04  0.10566000000E+00 0.  1.
        994   -1    0    0    0    0 -0.00000000000E+00 -0.00000000000E+00  0.11368683772E-12  0.17120000000E+03  0.17120000000E+03 0.  0.
         13    1    1    2    0    0  0.11834568067E+02 -0.18072851638E+02  0.37954824361E+02  0.43672243176E+02  0.10566000000E+00 0.  1.
        994    1    1    2    0    0 -0.16290080251E+02 -0.16760584810E+02  0.79465003353E+01  0.17297072234E+03  0.17120000000E+03 0.  0.
        998    1    1    2    0    0  0.44555121841E+01  0.34833436448E+02  0.14540986716E+04  0.14545570345E+04  0.10000000000E+02 0.  1.
</event>
<event>
 5    1  0.1129619E-008  0.3831139E+03  0.7957747E-01  0.3437711E+00
         13   -1    0    0    0    0  0.00000000000E+00  0.00000000000E+00  0.14999999963E+04  0.15000000000E+04  0.10566000000E+00 0.  1.
        994   -1    0    0    0    0 -0.00000000000E+00 -0.00000000000E+00  0.11368683772E-12  0.17120000000E+03  0.17120000000E+03 0.  0.
         13    1    1    2    0    0  0.19487522107E+02 -0.40545402176E+01  0.72503965638E+02  0.75186694378E+02  0.10566000000E+00 0.  1.
        994    1    1    2    0    0 -0.18750221449E+02  0.20877600282E+02  0.51793911278E+01  0.17356183650E+03  0.17120000000E+03 0.  0.
        998    1    1    2    0    0 -0.73730065807E+00 -0.16823060064E+02  0.14223166395E+04  0.14224514691E+04  0.10000000000E+02 0.  1.
</event>
<event>
 5    1  0.1129619E-008  0.3825503E+03  0.7957747E-01  0.3440128E+00
         13   -1    0    0    0    0  0.00000000000E+00  0.00000000000E+00  0.14999999963E+04  0.15000000000E+04  0.10566000000E+00 0.  1.
        994   -1    0    0    0    0 -0.00000000000E+00 -0.00000000000E+00  0.11368683772E-12  0.17120000000E+03  0.17120000000E+03 0.  0.
         13    1    1    2    0    0 -0.51348906194E+01  0.20533756592E+02  0.94251171846E+02  0.96598637775E+02  0.10566000000E+00 0.  1.
        994    1    1    2    0    0  0.84344624485E+01  0.20947518645E+02  0.45435319144E+01  0.17274264782E+03  0.17120000000E+03 0.  0.
        998    1    1    2    0    0 -0.32995718292E+01 -0.41481275237E+02  0.14012052925E+04  0.14018587144E+04  0.10000000000E+02 0.  1.
</event>
<event>
 5    1  0.1129619E-008  0.3852587E+03  0.7957747E-01  0.3428576E+00
         13   -1    0    0    0    0  0.00000000000E+00  0.00000000000E+00  0.14999999963E+04  0.15000000000E+04  0.10566000000E+00 0. -1.
        994   -1    0    0    0    0 -0.00000000000E+00 -0.00000000000E+00  0.11368683772E-12  0.17120000000E+03  0.17120000000E+03 0.  0.
         13    1    1    2    0    0  0.46569233352E+01 -0.88526688453E+01  0.32122739890E+02  0.33644290195E+02  0.10566000000E+00 0. -1.
        994    1    1    2    0    0 -0.71618897427E+00  0.15462422376E+02  0.22894503701E+01  0.17191358590E+03  0.17120000000E+03 0.  0.
        998    1    1    2    0    0 -0.39407343610E+01 -0.66097535306E+01  0.14655878060E+04  0.14656421239E+04  0.10000000000E+02 0. -1.
</event>
<event>
 5    1  0.1129619E-008  0.3699132E+03  0.7957747E-01  0.3496290E+00
         13   -1    0    0    0    0  0.00000000000E+00  0.00000000000E+00  0.14999999963E+04  0.15000000000E+04  0.10566000000E+00 0.  1.
        994   -1    0    0    0    0 -0.00000000000E+00 -0.00000000000E+00  0.11368683772E-12  0.17120000000E+03  0.17120000000E+03 0.  0.
         13    1    1    2    0    0 -0.32244153410E+02  0.27750314420E+02  0.82993383344E+02  0.93261343667E+02  0.10566000000E+00 0.  1.
        994    1    1    2    0    0  0.67912319088E+01 -0.12372931649E+02  0.11589423664E+02  0.17217132458E+03  0.17120000000E+03 0.  0.
        998    1    1    2    0    0  0.25452921501E+02 -0.15377382771E+02  0.14054171893E+04  0.14057673317E+04  0.10000000000E+02 0.  1.
</event>
<event>
 5    1  0.1129619E-008  0.3856889E+03  0.7957747E-01  0.3426756E+00
         13   -1    0    0    0    0  0.00000000000E+00  0.00000000000E+00  0.14999999963E+04  0.15000000000E+04  0.10566000000E+00 0. -1.
        994   -1    0    0    0    0 -0.00000000000E+00 -0.00000000000E+00  0.11368683772E-12  0.17120000000E+03  0.17120000000E+03 0.  0.
         13    1    1    2    0    0  0.13104026260E+01 -0.11325787695E+02  0.50365973696E+02  0.51640421109E+02  0.10566000000E+00 0. -1.
        994    1    1    2    0    0  0.67760041410E+01  0.99262838480E+01  0.17626279478E+01  0.17163039416E+03  0.17120000000E+03 0.  0.
        998    1    1    2    0    0 -0.80864067670E+01  0.13995038472E+01  0.14478713946E+04  0.14479291847E+04  0.10000000000E+02 0. -1.
</event>
<event>
 5    1  0.1129619E-008  0.3828769E+03  0.7957747E-01  0.3438727E+00
         13   -1    0    0    0    0  0.00000000000E+00  0.00000000000E+00  0.14999999963E+04  0.15000000000E+04  0.10566000000E+00 0.  1.
        994   -1    0    0    0    0 -0.00000000000E+00 -0.00000000000E+00  0.11368683772E-12  0.17120000000E+03  0.17120000000E+03 0.  0.
         13    1    1    2    0    0 -0.13327998785E+02 -0.28224298544E+01  0.33448956845E+02  0.36117108687E+02  0.10566000000E+00 0.  1.
        994    1    1    2    0    0  0.10919319237E+02 -0.12590304486E+00  0.30828797070E+01  0.17157561462E+03  0.17120000000E+03 0.  0.
        998    1    1    2    0    0  0.24086795479E+01  0.29483328993E+01  0.14634681597E+04  0.14635072767E+04  0.10000000000E+02 0.  1.
</event>
<event>
 5    1  0.1129619E-008  0.3786189E+03  0.7957747E-01  0.3457194E+00
         13   -1    0    0    0    0  0.00000000000E+00  0.00000000000E+00  0.14999999963E+04  0.15000000000E+04  0.10566000000E+00 0. -1.
        994   -1    0    0    0    0 -0.00000000000E+00 -0.00000000000E+00  0.11368683772E-12  0.17120000000E+03  0.17120000000E+03 0.  0.
         13    1    1    2    0    0  0.28553852857E+02  0.86099932430E+02  0.48499212155E+03  0.49340236117E+03  0.10566000000E+00 0. -1.
        994    1    1    2    0    0 -0.39145335957E+02 -0.96283532116E+02  0.42012058101E+02  0.20463950965E+03  0.17120000000E+03 0.  0.
        998    1    1    2    0    0  0.10591483100E+02  0.10183599687E+02  0.97299581662E+03  0.97315812918E+03  0.10000000000E+02 0. -1.
</event>
<event>
 5    1  0.1129619E-008  0.3810645E+03  0.7957747E-01  0.3446536E+00
         13   -1    0    0    0    0  0.00000000000E+00  0.00000000000E+00  0.14999999963E+04  0.15000000000E+04  0.10566000000E+00 0. -1.
        994   -1    0    0    0    0 -0.00000000000E+00 -0.00000000000E+00  0.11368683772E-12  0.17120000000E+03  0.17120000000E+03 0.  0.
         13    1    1    2    0    0  0.14769897169E+02 -0.29766333003E+02  0.13325762681E+03  0.13733823469E+03  0.10566000000E+00 0. -1.
        994    1    1    2    0    0 -0.29789173660E+02  0.31434189506E+02  0.98697854031E+01  0.17686818765E+03  0.17120000000E+03 0.  0.
        998    1    1    2    0    0  0.15019276491E+02 -0.16678565023E+01  0.13568725841E+04  0.13569935777E+04  0.10000000000E+02 0. -1.
</event>
<event>
 5    1  0.1129619E-008  0.3842064E+03  0.7957747E-01  0.3433045E+00
         13   -1    0    0    0    0  0.00000000000E+00  0.00000000000E+00  0.14999999963E+04  0.15000000000E+04  0.10566000000E+00 0. -1.
        994   -1    0    0    0    0 -0.00000000000E+00 -0.00000000000E+00  0.11368683772E-12  0.17120000000E+03  0.17120000000E+03 0.  0.
         13    1    1    2    0    0 -0.38529489874E+01  0.12802724608E+02  0.43549442850E+02  0.45555681422E+02  0.10566000000E+00 0. -1.
        994    1    1    2    0    0  0.15267583463E+01 -0.97616929181E+01  0.23465877702E+01  0.17150092744E+03  0.17120000000E+03 0.  0.
        998    1    1    2    0    0  0.23261906411E+01 -0.30410316896E+01  0.14541039657E+04  0.14541433911E+04  0.10000000000E+02 0. -1.
</event>
<event>
 5    1  0.1129619E-008  0.3830522E+03  0.7957747E-01  0.3437975E+00
         13   -1    0    0    0    0  0.00000000000E+00  0.00000000000E+00  0.14999999963E+04  0.15000000000E+04  0.10566000000E+00 0.  1.
        994   -1    0    0    0    0 -0.00000000000E+00 -0.00000000000E+00  0.11368683772E-12  0.17120000000E+03  0.17120000000E+03 0.  0.
         13    1    1    2    0    0  0.22050401765E+02 -0.34910573217E+01  0.10917856224E+03  0.11143777329E+03  0.10566000000E+00 0.  1.
        994    1    1    2    0    0  0.60528613914E+01 -0.34421124082E+01  0.27607842302E+01  0.17136378613E+03  0.17120000000E+03 0.  0.
        998    1    1    2    0    0 -0.28103263156E+02  0.69331697299E+01  0.13880606498E+04  0.13883984406E+04  0.10000000000E+02 0.  1.
</event>
<event>
 5    1  0.1129619E-008  0.3843597E+03  0.7957747E-01  0.3432393E+00
         13   -1    0    0    0    0  0.00000000000E+00  0.00000000000E+00  0.14999999963E+04  0.15000000000E+04  0.10566000000E+00 0. -1.
        994   -1    0    0    0    0 -0.00000000000E+00 -0.00000000000E+00  0.11368683772E-12  0.17120000000E+03  0.17120000000E+03 0.  0.
         13    1    1    2    0    0  0.24433903768E+01 -0.19945643571E+02  0.11309833343E+03  0.11486967851E+03  0.10566000000E+00 0. -1.
        994    1    1    2    0    0 -0.91136423509E+01  0.12552119578E+00  0.22222074464E+01  0.17145685299E+03  0.17120000000E+03 0.  0.
        998    1    1    2    0    0  0.66702519741E+01  0.19820122375E+02  0.13846794554E+04  0.13848734685E+04  0.10000000000E+02 0. -1.
</event>
<event>
 5    1  0.1129619E-008  0.3748477E+03  0.7957747E-01  0.3473904E+00
         13   -1    0    0    0    0  0.00000000000E+00  0.00000000000E+00  0.14999999963E+04  0.15000000000E+04  0.10566000000E+00 0.  1.
        994   -1    0    0    0    0 -0.00000000000E+00 -0.00000000000E+00  0.11368683772E-12  0.17120000000E+03  0.17120000000E+03 0.  0.
         13    1    1    2    0    0  0.16353416961E+02 -0.66123344927E+02  0.26127907323E+03  0.27001202985E+03  0.10566000000E+00 0.  1.
        994    1    1    2    0    0 -0.10366432891E+02  0.78776197972E+02  0.28540380630E+02  0.19088516345E+03  0.17120000000E+03 0.  0.
        998    1    1    2    0    0 -0.59869840693E+01 -0.12652853045E+02  0.12101805424E+04  0.12103028067E+04  0.10000000000E+02 0.  1.
</event>
<event>
 5    1  0.1129619E-008  0.3794241E+03  0.7957747E-01  0.3453670E+00
         13   -1    0    0    0    0  0.00000000000E+00  0.00000000000E+00  0.14999999963E+04  0.15000000000E+04  0.10566000000E+00 0.  1.
        994   -1    0    0    0    0 -0.00000000000E+00 -0.00000000000E+00  0.11368683772E-12  0.17120000000E+03  0.17120000000E+03 0.  0.
         13    1    1    2    0    0 -0.19136993698E+02 -0.22588813724E+02  0.93182977631E+02  0.97772989713E+02  0.10566000000E+00 0.  1.
        994    1    1    2    0    0 -0.94749340146E+00  0.37391545535E+02  0.91241314233E+01  0.17547568263E+03  0.17120000000E+03 0.  0.
        998    1    1    2    0    0  0.20084487100E+02 -0.14802731812E+02  0.13976928872E+04  0.13979513277E+04  0.10000000000E+02 0.  1.
</event>
<event>
 5    1  0.1129619E-008  0.3854470E+03  0.7957747E-01  0.3427779E+00
         13   -1    0    0    0    0  0.00000000000E+00  0.00000000000E+00  0.14999999963E+04  0.15000000000E+04  0.10566000000E+00 0. -1.
        994   -1    0    0    0    0 -0.00000000000E+00 -0.00000000000E+00  0.11368683772E-12  0.17120000000E+03  0.17120000000E+03 0.  0.
         13    1    1    2    0    0 -0.31793016200E+01 -0.16467666451E+02  0.97158310376E+02  0.98595336788E+02  0.10566000000E+00 0. -1.
        994    1    1    2    0    0  0.30655385442E+02  0.10405115677E+02  0.48575258855E+01  0.17430161975E+03  0.17120000000E+03 0.  0.
        998    1    1    2    0    0 -0.27476083822E+02  0.60625507739E+01  0.13979841600E+04  0.13983030435E+04  0.10000000000E+02 0. -1.
</event>
<event>
 5    1  0.1129619E-008  0.3810052E+03  0.7957747E-01  0.3446793E+00
         13   -1    0    0    0    0  0.00000000000E+00  0.00000000000E+00  0.14999999963E+04  0.15000000000E+04  0.10566000000E+00 0.  1.
        994   -1    0    0    0    0 -0.00000000000E+00 -0.00000000000E+00  0.11368683772E-12  0.17120000000E+03  0.17120000000E+03 0.  0.
         13    1    1    2    0    0 -0.16085295661E+02 -0.27011380509E+02  0.12196655604E+03  0.12595317928E+03  0.10566000000E+00 0.  1.
        994    1    1    2    0    0  0.14400025263E+02  0.33293756814E+02  0.80231612444E+01  0.17518460574E+03  0.17120000000E+03 0.  0.
        998    1    1    2    0    0  0.16852703989E+01 -0.62823763043E+01  0.13700102790E+04  0.13700622150E+04  0.10000000000E+02 0.  0.
</event>
<event>
 5    1  0.1159762E-008  0.3860989E+03  0.7957747E-01  0.3425025E+00
         13   -1    0    0    0    0  0.00000000000E+00  0.00000000000E+00  0.14999999963E+04  0.15000000000E+04  0.10566000000E+00 0.  1.
        994   -1    0    0    0    0 -0.00000000000E+00 -0.00000000000E+00  0.11368683772E-12  0.17120000000E+03  0.17120000000E+03 0.  0.
         13    1    1    2    0    0 -0.11529777828E+02 -0.31928913493E+01  0.67715944960E+02  0.68764748947E+02  0.10566000000E+00 0.  1.
        994    1    1    2    0    0  0.45314382119E+01  0.72263273662E+01  0.13240017240E+01  0.17141746329E+03  0.17120000000E+03 0.  0.
        998    1    1    2    0    0  0.69983396158E+01 -0.40334360169E+01  0.14309600496E+04  0.14310177878E+04  0.10000000000E+02 0.  1.
</event>
<event>
 5    1  0.1129619E-008  0.3857716E+03  0.7957747E-01  0.3426407E+00
         13   -1    0    0    0    0  0.00000000000E+00  0.00000000000E+00  0.14999999963E+04  0.15000000000E+04  0.10566000000E+00 0.  1.
        994   -1    0    0    0    0 -0.00000000000E+00 -0.00000000000E+00  0.11368683772E-12  0.17120000000E+03  0.17120000000E+03 0.  0.
         13    1    1    2    0    0  0.12417085206E+02 -0.94686990593E+01  0.93165111792E+02  0.94464752612E+02  0.10566000000E+00 0.  1.
        994    1    1    2    0    0 -0.60112260228E+01  0.19939029249E+02  0.26715775145E+01  0.17248268624E+03  0.17120000000E+03 0.  0.
        998    1    1    2    0    0 -0.64058591828E+01 -0.10470330190E+02  0.14041633070E+04  0.14042525611E+04  0.10000000000E+02 0.  1.
</event>
<event>
 5    1  0.1129619E-008  0.3757389E+03  0.7957747E-01  0.3469925E+00
         13   -1    0    0    0    0  0.00000000000E+00  0.00000000000E+00  0.14999999963E+04  0.15000000000E+04  0.10566000000E+00 0. -1.
        994   -1    0    0    0    0 -0.00000000000E+00 -0.00000000000E+00  0.11368683772E-12  0.17120000000E+03  0.17120000000E+03 0.  0.
         13    1    1    2    0    0  0.44909468729E+02 -0.12056135705E+02  0.13181410179E+03  0.13977546059E+03  0.10566000000E+00 0. -1.
        994    1    1    2    0    0 -0.71540595456E+02  0.40211357446E+02  0.29489989346E+02  0.19213044927E+03  0.17120000000E+03 0.  0.
        998    1    1    2    0    0  0.26631126727E+02 -0.28155221740E+02  0.13386959051E+04  0.13392940901E+04  0.10000000000E+02 0. -1.
</event>
<event>
 5    1  0.1129619E-008  0.3770446E+03  0.7957747E-01  0.3464129E+00
         13   -1    0    0    0    0  0.00000000000E+00  0.00000000000E+00  0.14999999963E+04  0.15000000000E+04  0.10566000000E+00 0.  1.
        994   -1    0    0    0    0 -0.00000000000E+00 -0.00000000000E+00  0.11368683772E-12  0.17120000000E+03  0.17120000000E+03 0.  0.
         13    1    1    2    0    0  0.28393024467E+02 -0.16970037032E+02  0.96192763043E+02  0.10172121126E+03  0.10566000000E+00 0.  1.
        994    1    1    2    0    0 -0.18907098006E+02  0.29638782577E+01  0.68699566424E+01  0.17240330401E+03  0.17120000000E+03 0.  0.
        998    1    1    2    0    0 -0.94859264615E+01  0.14006158775E+02  0.13969372766E+04  0.13970754847E+04  0.10000000000E+02 0.  1.
</event>
<event>
 5    1  0.1129619E-008  0.3811894E+03  0.7957747E-01  0.3445996E+00
         13   -1    0    0    0    0  0.00000000000E+00  0.00000000000E+00  0.14999999963E+04  0.15000000000E+04  0.10566000000E+00 0.  1.
        994   -1    0    0    0    0 -0.00000000000E+00 -0.00000000000E+00  0.11368683772E-12  0.17120000000E+03  0.17120000000E+03 0.  0.
         13    1    1    2    0    0 -0.99907718279E+01  0.30972024523E+01  0.14342811567E+02  0.17752058822E+02  0.10566000000E+00 0.  1.
        994    1    1    2    0    0 -0.51902875514E+01 -0.81710131293E+01  0.38460095721E+01  0.17151657742E+03  0.17120000000E+03 0.  0.
        998    1    1    2    0    0  0.15181059379E+02  0.50738106770E+01  0.14818111751E+04  0.14819313638E+04  0.10000000000E+02 0.  1.
</event>
<event>
 5    1  0.1129619E-008  0.3684964E+03  0.7957747E-01  0.3502830E+00
         13   -1    0    0    0    0  0.00000000000E+00  0.00000000000E+00  0.14999999963E+04  0.15000000000E+04  0.10566000000E+00 0.  1.
        994   -1    0    0    0    0 -0.00000000000E+00 -0.00000000000E+00  0.11368683772E-12  0.17120000000E+03  0.17120000000E+03 0.  0.
         13    1    1    2    0    0  0.26585140960E+02 -0.98421871871E+02  0.43314507538E+03  0.44498123789E+03  0.10566000000E+00 0.  1.
        994    1    1    2    0    0 -0.65052853363E+02  0.67854186922E+02  0.41538600913E+02  0.19967713885E+03  0.17120000000E+03 0.  0.
        998    1    1    2    0    0  0.38467712403E+02  0.30567684949E+02  0.10253163200E+04  0.10265416233E+04  0.10000000000E+02 0.  1.
</event>
<event>
 5    1  0.1129619E-008  0.3700130E+03  0.7957747E-01  0.3495831E+00
         13   -1    0    0    0    0  0.00000000000E+00  0.00000000000E+00  0.14999999963E+04  0.15000000000E+04  0.10566000000E+00 0.  1.
        994   -1    0    0    0    0 -0.00000000000E+00 -0.00000000000E+00  0.11368683772E-12  0.17120000000E+03  0.17120000000E+03 0.  0.
         13    1    1    2    0    0 -0.29875675317E+02 -0.84003485985E+02  0.33268363811E+03  0.34442351236E+03  0.10566000000E+00 0.  1.
        994    1    1    2    0    0  0.24644212043E+02  0.84325033749E+02  0.36441817434E+02  0.19584558857E+03  0.17120000000E+03 0.  0.
        998    1    1    2    0    0  0.52314632736E+01 -0.32154776333E+00  0.11308745407E+04  0.11309308991E+04  0.10000000000E+02 0.  0.
</event>
<event>
 5    1  0.1129619E-008  0.3713845E+03  0.7957747E-01  0.3489552E+00
         13   -1    0    0    0    0  0.00000000000E+00  0.00000000000E+00  0.14999999963E+04  0.15000000000E+04  0.10566000000E+00 0.  1.
        994   -1    0    0    0    0 -0.00000000000E+00 -0.00000000000E+00  0.11368683772E-12  0.17120000000E+03  0.17120000000E+03 0.  0.
         13    1    1    2    0    0  0.40863145897E+02 -0.54446104012E+02  0.22847332996E+03  0.23839934690E+03  0.10566000000E+00 0.  1.
        994    1    1    2    0    0 -0.59322162907E+00  0.11924388846E+02  0.12173686729E+02  0.17204703313E+03  0.17120000000E+03 0.  0.
        998    1    1    2    0    0 -0.40269924268E+02  0.42521715166E+02  0.12593529796E+04  0.12607536200E+04  0.10000000000E+02 0.  1.
</event>
<event>
 5    1  0.1129619E-008  0.3786679E+03  0.7957747E-01  0.3456979E+00
         13   -1    0    0    0    0  0.00000000000E+00  0.00000000000E+00  0.14999999963E+04  0.15000000000E+04  0.10566000000E+00 0.  1.
        994   -1    0    0    0    0 -0.00000000000E+00 -0.00000000000E+00  0.11368683772E-12  0.17120000000E+03  0.17120000000E+03 0.  0.
         13    1    1    2    0    0  0.21997970518E+02  0.19958664243E+02  0.89984220762E+02  0.94759855084E+02  0.10566000000E+00 0.  1.
        994    1    1    2    0    0 -0.16971561758E+02 -0.87392914958E+01  0.60316216404E+01  0.17236655587E+03  0.17120000000E+03 0.  0.
        998    1    1    2    0    0 -0.50264087602E+01 -0.11219372748E+02  0.14039841539E+04  0.14040735890E+04  0.10000000000E+02 0.  1.
</event>
<event>
 5    1  0.1129619E-008  0.3826182E+03  0.7957747E-01  0.3439837E+00
         13   -1    0    0    0    0  0.00000000000E+00  0.00000000000E+00  0.14999999963E+04  0.15000000000E+04  0.10566000000E+00 0. -1.
        994   -1    0    0    0    0 -0.00000000000E+00 -0.00000000000E+00  0.11368683772E-12  0.17120000000E+03  0.17120000000E+03 0.  0.
         13    1    1    2    0    0 -0.29185033539E+00 -0.19029554356E+02  0.60309799455E+02  0.63241538485E+02  0.10566000000E+00 0. -1.
        994    1    1    2    0    0  0.14662118523E+02  0.22762586224E+02  0.52508198261E+01  0.17340739361E+03  0.17120000000E+03 0.  0.
        998    1    1    2    0    0 -0.14370268188E+02 -0.37330318678E+01  0.14344393770E+04  0.14345510679E+04  0.10000000000E+02 0. -1.
</event>
<event>
 5    1  0.1129619E-008  0.3807560E+03  0.7957747E-01  0.3447873E+00
         13   -1    0    0    0    0  0.00000000000E+00  0.00000000000E+00  0.14999999963E+04  0.15000000000E+04  0.10566000000E+00 0.  1.
        994   -1    0    0    0    0 -0.00000000000E+00 -0.00000000000E+00  0.11368683772E-12  0.17120000000E+03  0.17120000000E+03 0.  0.
         13    1    1    2    0    0 -0.37094706240E+02 -0.16800936630E+02  0.20170292628E+03  0.20577261804E+03  0.10566000000E+00 0.  1.
        994    1    1    2    0    0  0.31073896980E+02  0.15436019164E+02  0.77767823410E+01  0.17485358476E+03  0.17120000000E+03 0.  0.
        998    1    1    2    0    0  0.60208092602E+01  0.13649174659E+01  0.12905202877E+04  0.12905737972E+04  0.10000000000E+02 0.  1.
</event>
<event>
 5    1  0.1129619E-008  0.3825735E+03  0.7957747E-01  0.3440029E+00
         13   -1    0    0    0    0  0.00000000000E+00  0.00000000000E+00  0.14999999963E+04  0.15000000000E+04  0.10566000000E+00 0. -1.
        994   -1    0    0    0    0 -0.00000000000E+00 -0.00000000000E+00  0.11368683772E-12  0.17120000000E+03  0.17120000000E+03 0.  0.
         13    1    1    2    0    0  0.15877906903E+02  0.11728845034E+02  0.58223262594E+02  0.61478721559E+02  0.10566000000E+00 0. -1.
        994    1    1    2    0    0 -0.12829026743E+02 -0.60738891423E+02  0.15720743374E+02  0.18278506129E+03  0.17120000000E+03 0.  0.
        998    1    1    2    0    0 -0.30488801596E+01  0.49010046389E+02  0.14260559903E+04  0.14269362172E+04  0.10000000000E+02 0. -1.
</event>
<event>
 5    1  0.1129619E-008  0.3809590E+03  0.7957747E-01  0.3446994E+00
         13   -1    0    0    0    0  0.00000000000E+00  0.00000000000E+00  0.14999999963E+04  0.15000000000E+04  0.10566000000E+00 0.  1.
        994   -1    0    0    0    0 -0.00000000000E+00 -0.00000000000E+00  0.11368683772E-12  0.17120000000E+03  0.17120000000E+03 0.  0.
         13    1    1    2    0    0  0.11693694471E+02 -0.51294872307E+02  0.29920677419E+03  0.30379699027E+03  0.10566000000E+00 0.  1.
        994    1    1    2    0    0 -0.99102828645E+01  0.53717148196E+02  0.13657423762E+02  0.18022128326E+03  0.17120000000E+03 0.  0.
        998    1    1    2    0    0 -0.17834116069E+01 -0.24222758894E+01  0.11871357983E+04  0.11871817265E+04  0.10000000000E+02 0.  0.
</event>
<event>
 5    1  0.1129619E-008  0.3820989E+03  0.7957747E-01  0.3442070E+00
         13   -1    0    0    0    0  0.00000000000E+00  0.00000000000E+00  0.14999999963E+04  0.15000000000E+04  0.10566000000E+00 0. -1.
        994   -1    0    0    0    0 -0.00000000000E+00 -0.00000000000E+00  0.11368683772E-12  0.17120000000E+03  0.17120000000E+03 0.  0.
         13    1    1    2    0    0  0.25336787987E+02  0.16965758460E+02  0.16110989010E+03  0.16397011203E+03  0.10566000000E+00 0. -1.
        994    1    1    2    0    0  0.69649148416E+00 -0.17284125165E+02  0.40713980400E+01  0.17211984884E+03  0.17120000000E+03 0.  0.
        998    1    1    2    0    0 -0.26033279471E+02  0.31836670530E+00  0.13348187081E+04  0.13351100391E+04  0.10000000000E+02 0. -1.
</event>
<event>
 5    1  0.1129619E-008  0.3696939E+03  0.7957747E-01  0.3497299E+00
         13   -1    0    0    0    0  0.00000000000E+00  0.00000000000E+00  0.14999999963E+04  0.15000000000E+04  0.10566000000E+00 0.  1.
        994   -1    0    0    0    0 -0.00000000000E+00 -0.00000000000E+00  0.11368683772E-12  0.17120000000E+03  0.17120000000E+03 0.  0.
         13    1    1    2    0    0  0.41941389537E+02  0.28423549615E+02  0.15785078574E+03  0.16578256860E+03  0.10566000000E+00 0.  1.
        994    1    1    2    0    0  0.10330189627E+02 -0.42256670111E+01  0.98604131748E+01  0.17184655023E+03  0.17120000000E+03 0.  0.
        998    1    1    2    0    0 -0.52271579163E+02 -0.24197882604E+02  0.13322887974E+04  0.13335708812E+04  0.10000000000E+02 0.  1.
</event>
<event>
 5    1  0.1129619E-008  0.3727548E+03  0.7957747E-01  0.3483325E+00
         13   -1    0    0    0    0  0.00000000000E+00  0.00000000000E+00  0.14999999963E+04  0.15000000000E+04  0.10566000000E+00 0. -1.
        994   -1    0    0    0    0 -0.00000000000E+00 -0.00000000000E+00  0.11368683772E-12  0.17120000000E+03  0.17120000000E+03 0.  0.
         13    1    1    2    0    0 -0.70472960282E+02  0.21046093191E+01  0.20918999124E+03  0.22075174090E+03  0.10566000000E+00 0. -1.
        994    1    1    2    0    0  0.11375467835E+03 -0.31734730048E+02  0.57229322539E+02  0.21571243658E+03  0.17120000000E+03 0.  0.
        998    1    1    2    0    0 -0.43281718069E+02  0.29630120728E+02  0.12335806825E+04  0.12347358225E+04  0.10000000000E+02 0. -1.
</event>
<event>
 5    1  0.1129619E-008  0.3844023E+03  0.7957747E-01  0.3432211E+00
         13   -1    0    0    0    0  0.00000000000E+00  0.00000000000E+00  0.14999999963E+04  0.15000000000E+04  0.10566000000E+00 0. -1.
        994   -1    0    0    0    0 -0.00000000000E+00 -0.00000000000E+00  0.11368683772E-12  0.17120000000E+03  0.17120000000E+03 0.  0.
         13    1    1    2    0    0 -0.11424821775E+02  0.13778532950E+02  0.85053852800E+02  0.86916877319E+02  0.10566000000E+00 0. -1.
        994    1    1    2    0    0  0.10004423808E+02 -0.16638640301E+01  0.22661802191E+01  0.17151510870E+03  0.17120000000E+03 0.  0.
        998    1    1    2    0    0  0.14203979667E+01 -0.12114668920E+02  0.14126799633E+04  0.14127680140E+04  0.10000000000E+02 0. -1.
</event>
<event>
 5    1  0.1129619E-008  0.3844705E+03  0.7957747E-01  0.3431921E+00
         13   -1    0    0    0    0  0.00000000000E+00  0.00000000000E+00  0.14999999963E+04  0.15000000000E+04  0.10566000000E+00 0. -1.
        994   -1    0    0    0    0 -0.00000000000E+00 -0.00000000000E+00  0.11368683772E-12  0.17120000000E+03  0.17120000000E+03 0.  0.
         13    1    1    2    0    0  0.10446689430E+01  0.10073348447E+02  0.25929883057E+02  0.27837630674E+02  0.10566000000E+00 0. -1.
        994    1    1    2    0    0  0.43004280917E+01 -0.14212579719E+02  0.26199756406E+01  0.17186272247E+03  0.17120000000E+03 0.  0.
        998    1    1    2    0    0 -0.53450970347E+01  0.41392312722E+01  0.14714501376E+04  0.14714996469E+04  0.10000000000E+02 0. -1.
</event>
<event>
 5    1  0.1129619E-008  0.3840575E+03  0.7957747E-01  0.3433679E+00
         13   -1    0    0    0    0  0.00000000000E+00  0.00000000000E+00  0.14999999963E+04  0.15000000000E+04  0.10566000000E+00 0.  1.
        994   -1    0    0    0    0 -0.00000000000E+00 -0.00000000000E+00  0.11368683772E-12  0.17120000000E+03  0.17120000000E+03 0.  0.
         13    1    1    2    0    0 -0.19485071854E+01  0.13160220573E+02  0.40823900685E+02  0.42937048303E+02  0.10566000000E+00 0.  1.
        994    1    1    2    0    0  0.11674172635E+00 -0.13624548047E+02  0.27114242423E+01  0.17176272518E+03  0.17120000000E+03 0.  0.
        998    1    1    2    0    0  0.18317654591E+01  0.46432747455E+00  0.14564646714E+04  0.14565002265E+04  0.10000000000E+02 0.  1.
</event>
<event>
 5    1  0.1129619E-008  0.3789790E+03  0.7957747E-01  0.3455616E+00
         13   -1    0    0    0    0  0.00000000000E+00  0.00000000000E+00  0.14999999963E+04  0.15000000000E+04  0.10566000000E+00 0.  1.
        994   -1    0    0    0    0 -0.00000000000E+00 -0.00000000000E+00  0.11368683772E-12  0.17120000000E+03  0.17120000000E+03 0.  0.
         13    1    1    2    0    0  0.14561179939E+02  0.58015051913E+00  0.21148163908E+02  0.25683078799E+02  0.10566000000E+00 0.  1.
        994    1    1    2    0    0 -0.56122747768E+01  0.26534548217E+01  0.47786937130E+01  0.17137915382E+03  0.17120000000E+03 0.  0.
        998    1    1    2    0    0 -0.89489051624E+01 -0.32336053408E+01  0.14740731387E+04  0.14741377674E+04  0.10000000000E+02 0.  1.
</event>
<event>
 5    1  0.1129619E-008  0.3723694E+03  0.7957747E-01  0.3485072E+00
         13   -1    0    0    0    0  0.00000000000E+00  0.00000000000E+00  0.14999999963E+04  0.15000000000E+04  0.10566000000E+00 0. -1.
        994   -1    0    0    0    0 -0.00000000000E+00 -0.00000000000E+00  0.11368683772E-12  0.17120000000E+03  0.17120000000E+03 0.  0.
         13    1    1    2    0    0 -0.11043802170E+02 -0.49257526515E+02  0.14462967478E+03  0.15318623788E+03  0.10566000000E+00 0. -1.
        994    1    1    2    0    0  0.11153834050E+02  0.44840649193E+02  0.15394168619E+02  0.17799301183E+03  0.17120000000E+03 0.  0.
        998    1    1    2    0    0 -0.11003188063E+00  0.44168773211E+01  0.13399761529E+04  0.13400207503E+04  0.10000000000E+02 0. -1.
</event>
<event>
 5    1  0.1129619E-008  0.3846262E+03  0.7957747E-01  0.3431259E+00
         13   -1    0    0    0    0  0.00000000000E+00  0.00000000000E+00  0.14999999963E+04  0.15000000000E+04  0.10566000000E+00 0.  1.
        994   -1    0    0    0    0 -0.00000000000E+00 -0.00000000000E+00  0.11368683772E-12  0.17120000000E+03  0.17120000000E+03 0.  0.
         13    1    1    2    0    0  0.15991977882E+02 -0.22179441724E+01  0.75508414896E+02  0.77215247957E+02  0.10566000000E+00 0.  1.
        994    1    1    2    0    0 -0.14926177133E+01  0.73154483679E+01  0.19993920975E+01  0.17137438916E+03  0.17120000000E+03 0.  0.
        998    1    1    2    0    0 -0.14499360168E+02 -0.50975041955E+01  0.14224921893E+04  0.14226103629E+04  0.10000000000E+02 0.  1.
</event>
<event>
 5    1  0.1129619E-008  0.3862600E+03  0.7957747E-01  0.3424346E+00
         13   -1    0    0    0    0  0.00000000000E+00  0.00000000000E+00  0.14999999963E+04  0.15000000000E+04  0.10566000000E+00 0. -1.
        994   -1    0    0    0    0 -0.00000000000E+00 -0.00000000000E+00  0.11368683772E-12  0.17120000000E+03  0.17120000000E+03 0.  0.
         13    1    1    2    0    0  0.12170940653E+02 -0.41663973594E-01  0.72416943087E+02  0.73432678981E+02  0.10566000000E+00 0. -1.
        994    1    1    2    0    0 -0.12333110728E+02  0.15462799433E+02  0.22881791295E+01  0.17235393686E+03  0.17120000000E+03 0.  0.
        998    1    1    2    0    0  0.16217007420E+00 -0.15421135460E+02  0.14252948741E+04  0.14254133842E+04  0.10000000000E+02 0. -1.
</event>
<event>
 5    1  0.1129619E-008  0.3789361E+03  0.7957747E-01  0.3455804E+00
         13   -1    0    0    0    0  0.00000000000E+00  0.00000000000E+00  0.14999999963E+04  0.15000000000E+04  0.10566000000E+00 0.  1.
        994   -1    0    0    0    0 -0.00000000000E+00 -0.00000000000E+00  0.11368683772E-12  0.17120000000E+03  0.17120000000E+03 0.  0.
         13    1    1    2    0    0  0.13221469267E+02 -0.80030446595E+01  0.23114609076E+02  0.27805616162E+02  0.10566000000E+00 0.  1.
        994    1    1    2    0    0 -0.17418452320E+02  0.74861138674E+01  0.58779141344E+01  0.17234684290E+03  0.17120000000E+03 0.  0.
        998    1    1    2    0    0  0.41969830528E+01  0.51693079216E+00  0.14710074731E+04  0.14710475409E+04  0.10000000000E+02 0.  1.
</event>
<event>
 5    1  0.1129619E-008  0.3851355E+03  0.7957747E-01  0.3429098E+00
         13   -1    0    0    0    0  0.00000000000E+00  0.00000000000E+00  0.14999999963E+04  0.15000000000E+04  0.10566000000E+00 0. -1.
        994   -1    0    0    0    0 -0.00000000000E+00 -0.00000000000E+00  0.11368683772E-12  0.17120000000E+03  0.17120000000E+03 0.  0.
         13    1    1    2    0    0 -0.52625778561E+01 -0.12246050354E+02  0.59434139697E+02  0.60910496636E+02  0.10566000000E+00 0. -1.
        994    1    1    2    0    0  0.13782332081E+02 -0.36543748102E+01  0.22314650423E+01  0.17180723666E+03  0.17120000000E+03 0.  0.
        998    1    1    2    0    0 -0.85197542249E+01  0.15900425164E+02  0.14383343915E+04  0.14384822667E+04  0.10000000000E+02 0. -1.
</event>
<event>
 5    1  0.1129619E-008  0.3843290E+03  0.7957747E-01  0.3432523E+00
         13   -1    0    0    0    0  0.00000000000E+00  0.00000000000E+00  0.14999999963E+04  0.15000000000E+04  0.10566000000E+00 0. -1.
        994   -1    0    0    0    0 -0.00000000000E+00 -0.00000000000E+00  0.11368683772E-12  0.17120000000E+03  0.17120000000E+03 0.  0.
         13    1    1    2    0    0  0.70602841971E+01 -0.76514808589E+01  0.26708188521E+02  0.28665855480E+02  0.10566000000E+00 0. -1.
        994    1    1    2    0    0 -0.70889639671E+01  0.81390771028E+01  0.23477023603E+01  0.17155596665E+03  0.17120000000E+03 0.  0.
        998    1    1    2    0    0  0.28679769971E-01 -0.48759624390E+00  0.14709441054E+04  0.14709781779E+04  0.10000000000E+02 0. -1.
</event>
<event>
 5    1  0.1129619E-008  0.3854758E+03  0.7957747E-01  0.3427657E+00
         13   -1    0    0    0    0  0.00000000000E+00  0.00000000000E+00  0.14999999963E+04  0.15000000000E+04  0.10566000000E+00 0.  1.
        994   -1    0    0    0    0 -0.00000000000E+00 -0.00000000000E+00  0.11368683772E-12  0.17120000000E+03  0.17120000000E+03 0.  0.
         13    1    1    2    0    0  0.90051572919E+01 -0.72474301357E+01  0.46737983811E+02  0.48146322769E+02  0.10566000000E+00 0.  1.
        994    1    1    2    0    0 -0.10787893001E+02  0.69623404400E+01  0.19356076395E+01  0.17169169868E+03  0.17120000000E+03 0.  0.
        998    1    1    2    0    0  0.17827357089E+01  0.28508969564E+00  0.14513264048E+04  0.14513619785E+04  0.10000000000E+02 0.  1.
</event>
<event>
 5    1  0.1129619E-008  0.3848628E+03  0.7957747E-01  0.3430254E+00
         13   -1    0    0    0    0  0.00000000000E+00  0.00000000000E+00  0.14999999963E+04  0.15000000000E+04  0.10566000000E+00 0.  1.
        994   -1    0    0    0    0 -0.00000000000E+00 -0.00000000000E+00  0.11368683772E-12  0.17120000000E+03  0.17120000000E+03 0.  0.
         13    1    1    2    0    0 -0.73083411604E+01  0.10285337547E+02  0.45600545526E+02  0.47314066992E+02  0.10566000000E+00 0.  1.
        994    1    1    2    0    0  0.45800307894E+00 -0.15869968335E+02  0.25280378539E+01  0.17195318153E+03  0.17120000000E+03 0.  0.
        998    1    1    2    0    0  0.68503380815E+01  0.55846307887E+01  0.14518714129E+04  0.14519327515E+04  0.10000000000E+02 0.  1.
</event>
<event>
 5    1  0.1129619E-008  0.3848747E+03  0.7957747E-01  0.3430204E+00
         13   -1    0    0    0    0  0.00000000000E+00  0.00000000000E+00  0.14999999963E+04  0.15000000000E+04  0.10566000000E+00 0. -1.
        994   -1    0    0    0    0 -0.00000000000E+00 -0.00000000000E+00  0.11368683772E-12  0.17120000000E+03  0.17120000000E+03 0.  0.
         13    1    1    2    0    0 -0.97541832018E+01 -0.12758082399E+02  0.76512019525E+02  0.78179364620E+02  0.10566000000E+00 0. -1.
        994    1    1    2    0    0 -0.10962415794E+02  0.21507825507E+02  0.36119684587E+01  0.17293133734E+03  0.17120000000E+03 0.  0.
        998    1    1    2    0    0  0.20716598995E+02 -0.87497431077E+01  0.14198760083E+04  0.14200892980E+04  0.10000000000E+02 0. -1.
</event>
<event>
 5    1  0.1129619E-008  0.3853953E+03  0.7957747E-01  0.3427998E+00
         13   -1    0    0    0    0  0.00000000000E+00  0.00000000000E+00  0.14999999963E+04  0.15000000000E+04  0.10566000000E+00 0.  1.
        994   -1    0    0    0    0 -0.00000000000E+00 -0.00000000000E+00  0.11368683772E-12  0.17120000000E+03  0.17120000000E+03 0.  0.
         13    1    1    2    0    0 -0.94721863364E+01 -0.13705425071E+02  0.94728133114E+02  0.96182073993E+02  0.10566000000E+00 0.  1.
        994    1    1    2    0    0  0.71155343074E+01  0.11898336154E+02  0.20655494505E+01  0.17177283757E+03  0.17120000000E+03 0.  0.
        998    1    1    2    0    0  0.23566520290E+01  0.18070889163E+01  0.14032063137E+04  0.14032450884E+04  0.10000000000E+02 0.  1.
</event>
<event>
 5    1  0.1129619E-008  0.3840007E+03  0.7957747E-01  0.3433922E+00
         13   -1    0    0    0    0  0.00000000000E+00  0.00000000000E+00  0.14999999963E+04  0.15000000000E+04  0.10566000000E+00 0. -1.
        994   -1    0    0    0    0 -0.00000000000E+00 -0.00000000000E+00  0.11368683772E-12  0.17120000000E+03  0.17120000000E+03 0.  0.
         13    1    1    2    0    0 -0.76892401854E+01  0.93380618749E+01  0.30606781701E+02  0.32910637556E+02  0.10566000000E+00 0. -1.
        994    1    1    2    0    0  0.14385695092E+02 -0.31647288345E+02  0.61245644348E+01  0.17480117097E+03  0.17120000000E+03 0.  0.
        998    1    1    2    0    0 -0.66964549063E+01  0.22309226471E+02  0.14632686501E+04  0.14634881915E+04  0.10000000000E+02 0. -1.
</event>
<event>
 5    1  0.1129619E-008  0.3792393E+03  0.7957747E-01  0.3454477E+00
         13   -1    0    0    0    0  0.00000000000E+00  0.00000000000E+00  0.14999999963E+04  0.15000000000E+04  0.10566000000E+00 0. -1.
        994   -1    0    0    0    0 -0.00000000000E+00 -0.00000000000E+00  0.11368683772E-12  0.17120000000E+03  0.17120000000E+03 0.  0.
         13    1    1    2    0    0 -0.16111191141E+02  0.22765654319E+02  0.80488242622E+02  0.85183413062E+02  0.10566000000E+00 0. -1.
        994    1    1    2    0    0  0.15674217000E+02 -0.23396289234E+02  0.71800216834E+01  0.17364924457E+03  0.17120000000E+03 0.  0.
        998    1    1    2    0    0  0.43697414047E+00  0.63063491459E+00  0.14123317320E+04  0.14123673424E+04  0.10000000000E+02 0. -1.
</event>
<event>
 5    1  0.1129619E-008  0.3847021E+03  0.7957747E-01  0.3430937E+00
         13   -1    0    0    0    0  0.00000000000E+00  0.00000000000E+00  0.14999999963E+04  0.15000000000E+04  0.10566000000E+00 0. -1.
        994   -1    0    0    0    0 -0.00000000000E+00 -0.00000000000E+00  0.11368683772E-12  0.17120000000E+03  0.17120000000E+03 0.  0.
         13    1    1    2    0    0 -0.14959118995E+01  0.12080575492E+02  0.41374110280E+02  0.43127789442E+02  0.10566000000E+00 0. -1.
        994    1    1    2    0    0 -0.23561223981E+01 -0.87875510899E+01  0.20506528683E+01  0.17145383502E+03  0.17120000000E+03 0.  0.
        998    1    1    2    0    0  0.38520342976E+01 -0.32930244025E+01  0.14565752331E+04  0.14566183755E+04  0.10000000000E+02 0. -1.
</event>
<event>
 5    1  0.1129619E-008  0.3686514E+03  0.7957747E-01  0.3502112E+00
         13   -1    0    0    0    0  0.00000000000E+00  0.00000000000E+00  0.14999999963E+04  0.15000000000E+04  0.10566000000E+00 0. -1.
        994   -1    0    0    0    0 -0.00000000000E+00 -0.00000000000E+00  0.11368683772E-12  0.17120000000E+03  0.17120000000E+03 0.  0.
         13    1    1    2    0    0 -0.61802130996E+01 -0.73162313920E+02  0.23013278991E+03  0.24156165128E+03  0.10566000000E+00 0. -1.
        994    1    1    2    0    0 -0.21204752744E+01  0.70930344186E+02  0.27678546594E+02  0.18737970030E+03  0.17120000000E+03 0.  0.
        998    1    1    2    0    0  0.83006883740E+01  0.22319697337E+01  0.12421886598E+04  0.12422586484E+04  0.10000000000E+02 0. -1.
</event>
<event>
 5    1  0.1129619E-008  0.3765343E+03  0.7957747E-01  0.3466389E+00
         13   -1    0    0    0    0  0.00000000000E+00  0.00000000000E+00  0.14999999963E+04  0.15000000000E+04  0.10566000000E+00 0. -1.
        994   -1    0    0    0    0 -0.00000000000E+00 -0.00000000000E+00  0.11368683772E-12  0.17120000000E+03  0.17120000000E+03 0.  0.
         13    1    1    2    0    0  0.12041788570E+02  0.38547952866E+01  0.10911695980E+02  0.16701508671E+02  0.10566000000E+00 0. -1.
        994    1    1    2    0    0 -0.93691766252E+01 -0.34107418444E+01  0.62292001372E+01  0.17160319800E+03  0.17120000000E+03 0.  0.
        998    1    1    2    0    0 -0.26726119450E+01 -0.44405344213E+00  0.14828591002E+04  0.14828952933E+04  0.10000000000E+02 0. -1.
</event>
<event>
 5    1  0.1129619E-008  0.3786722E+03  0.7957747E-01  0.3456961E+00
         13   -1    0    0    0    0  0.00000000000E+00  0.00000000000E+00  0.14999999963E+04  0.15000000000E+04  0.10566000000E+00 0. -1.
        994   -1    0    0    0    0 -0.00000000000E+00 -0.00000000000E+00  0.11368683772E-12  0.17120000000E+03  0.17120000000E+03 0.  0.
         13    1    1    2    0    0  0.43651160002E+02  0.40065929340E+02  0.30678008008E+03  0.31244956579E+03  0.10566000000E+00 0. -1.
        994    1    1    2    0    0 -0.55553357664E+02 -0.19914058953E+02  0.16589104532E+02  0.18184439414E+03  0.17120000000E+03 0.  0.
        998    1    1    2    0    0  0.11902197662E+02 -0.20151870387E+02  0.11766308117E+04  0.11769060401E+04  0.10000000000E+02 0. -1.
</event>
<event>
 5    1  0.1129619E-008  0.3741779E+03  0.7957747E-01  0.3476907E+00
         13   -1    0    0    0    0  0.00000000000E+00  0.00000000000E+00  0.14999999963E+04  0.15000000000E+04  0.10566000000E+00 0. -1.
        994   -1    0    0    0    0 -0.00000000000E+00 -0.00000000000E+00  0.11368683772E-12  0.17120000000E+03  0.17120000000E+03 0.  0.
         13    1    1    2    0    0  0.32755721010E+02 -0.24069122183E+02  0.11592415728E+03  0.12284413420E+03  0.10566000000E+00 0. -1.
        994    1    1    2    0    0 -0.14578048360E+02  0.14949450205E+02  0.85890755214E+01  0.17268241883E+03  0.17120000000E+03 0.  0.
        998    1    1    2    0    0 -0.18177672650E+02  0.91196719782E+01  0.13754867635E+04  0.13756734470E+04  0.10000000000E+02 0. -1.
</event>
<event>
 5    1  0.1129619E-008  0.3803514E+03  0.7957747E-01  0.3449630E+00
         13   -1    0    0    0    0  0.00000000000E+00  0.00000000000E+00  0.14999999963E+04  0.15000000000E+04  0.10566000000E+00 0.  1.
        994   -1    0    0    0    0 -0.00000000000E+00 -0.00000000000E+00  0.11368683772E-12  0.17120000000E+03  0.17120000000E+03 0.  0.
         13    1    1    2    0    0 -0.27767612896E+02  0.11462200194E+03  0.28523346938E+03  0.30865415415E+03  0.10566000000E+00 0.  1.
        994    1    1    2    0    0  0.55729632573E+02 -0.13355718816E+03  0.97054732267E+02  0.24427929816E+03  0.17120000000E+03 0.  0.
        998    1    1    2    0    0 -0.27962019677E+02  0.18935186221E+02  0.11177117946E+04  0.11182665477E+04  0.10000000000E+02 0.  1.
</event>
<event>
 5    1  0.1308655E-008  0.3858098E+03  0.7957747E-01  0.3426245E+00
         13   -1    0    0    0    0  0.00000000000E+00  0.00000000000E+00  0.14999999963E+04  0.15000000000E+04  0.10566000000E+00 0.  1.
        994   -1    0    0    0    0 -0.00000000000E+00 -0.00000000000E+00  0.11368683772E-12  0.17120000000E+03  0.17120000000E+03 0.  0.
         13    1    1    2    0    0  0.92799201571E+01  0.64639905644E+01  0.51974363306E+02  0.53190654228E+02  0.10566000000E+00 0.  1.
        994    1    1    2    0    0 -0.65784699442E+01 -0.66028341745E+01  0.15135948969E+01  0.17146021304E+03  0.17120000000E+03 0.  0.
        998    1    1    2    0    0 -0.27014502129E+01  0.13884361012E+00  0.14465120381E+04  0.14465491327E+04  0.10000000000E+02 0.  1.
</event>
<event>
 5    1  0.1129619E-008  0.3780233E+03  0.7957747E-01  0.3459811E+00
         13   -1    0    0    0    0  0.00000000000E+00  0.00000000000E+00  0.14999999963E+04  0.15000000000E+04  0.10566000000E+00 0.  1.
        994   -1    0    0    0    0 -0.00000000000E+00 -0.00000000000E+00  0.11368683772E-12  0.17120000000E+03  0.17120000000E+03 0.  0.
         13    1    1    2    0    0  0.26301847421E+02 -0.54955616973E+02  0.36154341498E+03  0.36664091301E+03  0.10566000000E+00 0.  1.
        994    1    1    2    0    0 -0.56561171025E+02  0.15316049664E+02  0.16776910072E+02  0.18172686141E+03  0.17120000000E+03 0.  0.
        998    1    1    2    0    0  0.30259323604E+02  0.39639567310E+02  0.11216796712E+04  0.11228322256E+04  0.10000000000E+02 0.  1.
</event>
<event>
 5    1  0.1129619E-008  0.3784437E+03  0.7957747E-01  0.3457963E+00
         13   -1    0    0    0    0  0.00000000000E+00  0.00000000000E+00  0.14999999963E+04  0.15000000000E+04  0.10566000000E+00 0.  1.
        994   -1    0    0    0    0 -0.00000000000E+00 -0.00000000000E+00  0.11368683772E-12  0.17120000000E+03  0.17120000000E+03 0.  0.
         13    1    1    2    0    0  0.60669128536E+02  0.10236337892E+03  0.36052727594E+03  0.37965633455E+03  0.10566000000E+00 0.  1.
        994    1    1    2    0    0 -0.75308225910E+01 -0.12407953655E+03  0.73490974668E+02  0.22397055172E+03  0.17120000000E+03 0.  0.
        998    1    1    2    0    0 -0.53138305945E+02  0.21716157632E+02  0.10659817457E+04  0.10675731137E+04  0.10000000000E+02 0.  1.
</event>
<event>
 5    1  0.1129619E-008  0.3781053E+03  0.7957747E-01  0.3459450E+00
         13   -1    0    0    0    0  0.00000000000E+00  0.00000000000E+00  0.14999999963E+04  0.15000000000E+04  0.10566000000E+00 0.  1.
        994   -1    0    0    0    0 -0.00000000000E+00 -0.00000000000E+00  0.11368683772E-12  0.17120000000E+03  0.17120000000E+03 0.  0.
         13    1    1    2    0    0  0.30944366131E+02 -0.10346874741E+03  0.35825262925E+03  0.37417682052E+03  0.10566000000E+00 0.  1.
        994    1    1    2    0    0 -0.82371429607E+01  0.72947292795E+02  0.34948649508E+02  0.18952574008E+03  0.17120000000E+03 0.  0.
        998    1    1    2    0    0 -0.22707223170E+02  0.30521454611E+02  0.11067987175E+04  0.11074974394E+04  0.10000000000E+02 0.  1.
</event>
<event>
 5    1  0.1129619E-008  0.3730643E+03  0.7957747E-01  0.3481925E+00
         13   -1    0    0    0    0  0.00000000000E+00  0.00000000000E+00  0.14999999963E+04  0.15000000000E+04  0.10566000000E+00 0.  1.
        994   -1    0    0    0    0 -0.00000000000E+00 -0.00000000000E+00  0.11368683772E-12  0.17120000000E+03  0.17120000000E+03 0.  0.
         13    1    1    2    0    0  0.16931004585E+02  0.50983273726E+02  0.17179074066E+03  0.17999450785E+03  0.10566000000E+00 0.  1.
        994    1    1    2    0    0 -0.82890589893E+01 -0.46166174179E+02  0.15241297111E+02  0.17816217689E+03  0.17120000000E+03 0.  0.
        998    1    1    2    0    0 -0.86419455955E+01 -0.48170995469E+01  0.13129679585E+04  0.13130433153E+04  0.10000000000E+02 0.  0.
</event>
<event>
 5    1  0.1129619E-008  0.3792852E+03  0.7957747E-01  0.3454277E+00
         13   -1    0    0    0    0  0.00000000000E+00  0.00000000000E+00  0.14999999963E+04  0.15000000000E+04  0.10566000000E+00 0. -1.
        994   -1    0    0    0    0 -0.00000000000E+00 -0.00000000000E+00  0.11368683772E-12  0.17120000000E+03  0.17120000000E+03 0.  0.
         13    1    1    2    0    0  0.46002102701E+02  0.72695548358E+02  0.28789500413E+03  0.30047359413E+03  0.10566000000E+00 0. -1.
        994    1    1    2    0    0 -0.19449334543E+01 -0.73066903283E+01  0.16141996660E+02  0.17212546164E+03  0.17120000000E+03 0.  0.
        998    1    1    2    0    0 -0.44057169246E+02 -0.65388858030E+02  0.11959629955E+04  0.11986009442E+04  0.10000000000E+02 0. -1.
</event>
<event>
 5    1  0.1129619E-008  0.2818424E+03  0.7957747E-01  0.4034830E+00
         13   -1    0    0    0    0  0.00000000000E+00  0.00000000000E+00  0.14999999963E+04  0.15000000000E+04  0.10566000000E+00 0. -1.
        994   -1    0    0    0    0 -0.00000000000E+00 -0.00000000000E+00  0.11368683772E-12  0.17120000000E+03  0.17120000000E+03 0.  0.
         13    1    1    2    0    0  0.13075928018E+03 -0.20111388921E+03  0.41530818338E+03  0.47960992914E+03  0.10566000000E+00 0. -1.
        994    1    1    2    0    0 -0.13773894418E+03  0.13807515960E+03  0.27044470844E+03  0.37481535023E+03  0.17120000000E+03 0.  0.
        998    1    1    2    0    0  0.69796640057E+01  0.63038729605E+02  0.81424710446E+03  0.81677472063E+03  0.10000000000E+02 0.  1.
</event>
<event>
 5    1  0.1129619E-008  0.3736997E+03  0.7957747E-01  0.3479059E+00
         13   -1    0    0    0    0  0.00000000000E+00  0.00000000000E+00  0.14999999963E+04  0.15000000000E+04  0.10566000000E+00 0. -1.
        994   -1    0    0    0    0 -0.00000000000E+00 -0.00000000000E+00  0.11368683772E-12  0.17120000000E+03  0.17120000000E+03 0.  0.
         13    1    1    2    0    0  0.16976924419E+02 -0.16189143617E+02  0.15444372390E+02  0.28086369227E+02  0.10566000000E+00 0. -1.
        994    1    1    2    0    0 -0.17421252814E+02  0.20224164906E+02  0.15436333973E+02  0.17395469899E+03  0.17120000000E+03 0.  0.
        998    1    1    2    0    0  0.44432839516E+00 -0.40350212890E+01  0.14691192899E+04  0.14691589318E+04  0.10000000000E+02 0. -1.
</event>
<event>
 5    1  0.1129619E-008  0.3714616E+03  0.7957747E-01  0.3489201E+00
         13   -1    0    0    0    0  0.00000000000E+00  0.00000000000E+00  0.14999999963E+04  0.15000000000E+04  0.10566000000E+00 0. -1.
        994   -1    0    0    0    0 -0.00000000000E+00 -0.00000000000E+00  0.11368683772E-12  0.17120000000E+03  0.17120000000E+03 0.  0.
         13    1    1    2    0    0  0.50563478098E+02  0.94178375803E+01  0.94273479275E+02  0.10739115904E+03  0.10566000000E+00 0. -1.
        994    1    1    2    0    0 -0.78600960925E+02  0.14494429661E+02  0.34513877206E+02  0.19206469553E+03  0.17120000000E+03 0.  0.
        998    1    1    2    0    0  0.28037482827E+02 -0.23912267241E+02  0.13712126398E+04  0.13717441454E+04  0.10000000000E+02 0. -1.
</event>
<event>
 5    1  0.1129619E-008  0.3814902E+03  0.7957747E-01  0.3444695E+00
         13   -1    0    0    0    0  0.00000000000E+00  0.00000000000E+00  0.14999999963E+04  0.15000000000E+04  0.10566000000E+00 0. -1.
        994   -1    0    0    0    0 -0.00000000000E+00 -0.00000000000E+00  0.11368683772E-12  0.17120000000E+03  0.17120000000E+03 0.  0.
         13    1    1    2    0    0  0.12351119639E+02 -0.10081787456E+00  0.20646240732E+02  0.24059067750E+02  0.10566000000E+00 0. -1.
        994    1    1    2    0    0 -0.17719357330E+02  0.67670127902E+00  0.44294643755E+01  0.17217285995E+03  0.17120000000E+03 0.  0.
        998    1    1    2    0    0  0.53682376903E+01 -0.57588340447E+00  0.14749242912E+04  0.14749680723E+04  0.10000000000E+02 0. -1.
</event>
<event>
 5    1  0.1129619E-008  0.3793459E+03  0.7957747E-01  0.3454011E+00
         13   -1    0    0    0    0  0.00000000000E+00  0.00000000000E+00  0.14999999963E+04  0.15000000000E+04  0.10566000000E+00 0.  1.
        994   -1    0    0    0    0 -0.00000000000E+00 -0.00000000000E+00  0.11368683772E-12  0.17120000000E+03  0.17120000000E+03 0.  0.
         13    1    1    2    0    0 -0.91512895117E+01  0.47541256543E+02  0.22152917034E+03  0.22675780395E+03  0.10566000000E+00 0.  1.
        994    1    1    2    0    0  0.53041548558E+01 -0.49951338906E+02  0.12963878708E+02  0.17888759730E+03  0.17120000000E+03 0.  0.
        998    1    1    2    0    0  0.38471346559E+01  0.24100823627E+01  0.12655069472E+04  0.12655545988E+04  0.10000000000E+02 0.  1.
</event>
<event>
 5    1  0.1129619E-008  0.3694693E+03  0.7957747E-01  0.3498334E+00
         13   -1    0    0    0    0  0.00000000000E+00  0.00000000000E+00  0.14999999963E+04  0.15000000000E+04  0.10566000000E+00 0.  1.
        994   -1    0    0    0    0 -0.00000000000E+00 -0.00000000000E+00  0.11368683772E-12  0.17120000000E+03  0.17120000000E+03 0.  0.
         13    1    1    2    0    0  0.62777570101E+02 -0.77828188790E+02  0.58003229814E+03  0.58858791045E+03  0.10566000000E+00 0.  1.
        994    1    1    2    0    0  0.18201575094E+02  0.71703723842E+02  0.30007603103E+02  0.18889843195E+03  0.17120000000E+03 0.  0.
        998    1    1    2    0    0 -0.80979145195E+02  0.61244649482E+01  0.88996009504E+03  0.89371365761E+03  0.10000000000E+02 0.  1.
</event>
<event>
 5    1  0.1129619E-008  0.3757083E+03  0.7957747E-01  0.3470061E+00
         13   -1    0    0    0    0  0.00000000000E+00  0.00000000000E+00  0.14999999963E+04  0.15000000000E+04  0.10566000000E+00 0.  1.
        994   -1    0    0    0    0 -0.00000000000E+00 -0.00000000000E+00  0.11368683772E-12  0.17120000000E+03  0.17120000000E+03 0.  0.
         13    1    1    2    0    0  0.31165923009E+02 -0.63618562757E+02  0.31817177745E+03  0.32596307677E+03  0.10566000000E+00 0.  1.
        994    1    1    2    0    0 -0.35231706104E+02  0.58862062830E+02  0.22444807263E+02  0.18579350077E+03  0.17120000000E+03 0.  0.
        998    1    1    2    0    0  0.40657830947E+01  0.47564999273E+01  0.11593834116E+04  0.11594434225E+04  0.10000000000E+02 0.  0.
</event>
<event>
 5    1  0.1400448E-008  0.3855056E+03  0.7957747E-01  0.3427531E+00
         13   -1    0    0    0    0  0.00000000000E+00  0.00000000000E+00  0.14999999963E+04  0.15000000000E+04  0.10566000000E+00 0. -1.
        994   -1    0    0    0    0 -0.00000000000E+00 -0.00000000000E+00  0.11368683772E-12  0.17120000000E+03  0.17120000000E+03 0.  0.
         13    1    1    2    0    0  0.10247880579E+02 -0.84838444816E+00  0.38145694979E+02  0.39507518551E+02  0.10566000000E+00 0. -1.
        994    1    1    2    0    0 -0.84346183189E+01 -0.48955877945E+00  0.16137453470E+01  0.17141594625E+03  0.17120000000E+03 0.  0.
        998    1    1    2    0    0 -0.18132622605E+01  0.13379432276E+01  0.14602405560E+04  0.14602765352E+04  0.10000000000E+02 0. -1.
</event>
<event>
 5    1  0.1129619E-008  0.3825597E+03  0.7957747E-01  0.3440088E+00
         13   -1    0    0    0    0  0.00000000000E+00  0.00000000000E+00  0.14999999963E+04  0.15000000000E+04  0.10566000000E+00 0.  1.
        994   -1    0    0    0    0 -0.00000000000E+00 -0.00000000000E+00  0.11368683772E-12  0.17120000000E+03  0.17120000000E+03 0.  0.
         13    1    1    2    0    0  0.63311212917E+01  0.14429503908E+02  0.38241297868E+02  0.41360629909E+02  0.10566000000E+00 0.  1.
        994    1    1    2    0    0 -0.41217720028E+02 -0.24542867805E+02  0.10512752447E+02  0.17810449396E+03  0.17120000000E+03 0.  0.
        998    1    1    2    0    0  0.34886598736E+02  0.10113363898E+02  0.14512459460E+04  0.14517348761E+04  0.10000000000E+02 0.  1.
</event>
<event>
 5    1  0.1129619E-008  0.3825919E+03  0.7957747E-01  0.3439950E+00
         13   -1    0    0    0    0  0.00000000000E+00  0.00000000000E+00  0.14999999963E+04  0.15000000000E+04  0.10566000000E+00 0.  1.
        994   -1    0    0    0    0 -0.00000000000E+00 -0.00000000000E+00  0.11368683772E-12  0.17120000000E+03  0.17120000000E+03 0.  0.
         13    1    1    2    0    0 -0.21059822672E+02  0.20494221976E+02  0.13806803008E+03  0.14116062255E+03  0.10566000000E+00 0.  1.
        994    1    1    2    0    0  0.26473723911E+02 -0.17063891275E+02  0.61255460009E+01  0.17418093109E+03  0.17120000000E+03 0.  0.
        998    1    1    2    0    0 -0.54139012387E+01 -0.34303307009E+01  0.13558064202E+04  0.13558584464E+04  0.10000000000E+02 0.  1.
</event>
<event>
 5    1  0.1129619E-008  0.3710079E+03  0.7957747E-01  0.3491272E+00
         13   -1    0    0    0    0  0.00000000000E+00  0.00000000000E+00  0.14999999963E+04  0.15000000000E+04  0.10566000000E+00 0. -1.
        994   -1    0    0    0    0 -0.00000000000E+00 -0.00000000000E+00  0.11368683772E-12  0.17120000000E+03  0.17120000000E+03 0.  0.
         13    1    1    2    0    0 -0.52284004314E+02 -0.36430749422E+02  0.19609922617E+03  0.20619343898E+03  0.10566000000E+00 0. -1.
        994    1    1    2    0    0  0.55698103951E+02  0.37879874927E+02  0.24542981287E+02  0.18560431471E+03  0.17120000000E+03 0.  0.
        998    1    1    2    0    0 -0.34140996377E+01 -0.14491255049E+01  0.12793577888E+04  0.12794022463E+04  0.10000000000E+02 0. -1.
</event>
<event>
 5    1  0.1129619E-008  0.3829328E+03  0.7957747E-01  0.3438487E+00
         13   -1    0    0    0    0  0.00000000000E+00  0.00000000000E+00  0.14999999963E+04  0.15000000000E+04  0.10566000000E+00 0. -1.
        994   -1    0    0    0    0 -0.00000000000E+00 -0.00000000000E+00  0.11368683772E-12  0.17120000000E+03  0.17120000000E+03 0.  0.
         13    1    1    2    0    0 -0.18551420261E+02  0.58089143674E+01  0.69431113466E+02  0.72101243824E+02  0.10566000000E+00 0. -1.
        994    1    1    2    0    0  0.15314053526E+02 -0.43325341617E+00  0.34374378774E+01  0.17191848046E+03  0.17120000000E+03 0.  0.
        998    1    1    2    0    0  0.32373667352E+01 -0.53756609512E+01  0.14271314449E+04  0.14271802757E+04  0.10000000000E+02 0. -1.
</event>
<event>
 5    1  0.1129619E-008  0.3849569E+03  0.7957747E-01  0.3429855E+00
         13   -1    0    0    0    0  0.00000000000E+00  0.00000000000E+00  0.14999999963E+04  0.15000000000E+04  0.10566000000E+00 0. -1.
        994   -1    0    0    0    0 -0.00000000000E+00 -0.00000000000E+00  0.11368683772E-12  0.17120000000E+03  0.17120000000E+03 0.  0.
         13    1    1    2    0    0  0.20945347207E+01 -0.10410264742E+02  0.32994691033E+02  0.34661527492E+02  0.10566000000E+00 0. -1.
        994    1    1    2    0    0  0.22909320807E+01  0.14077494495E+02  0.23208874917E+01  0.17180876212E+03  0.17120000000E+03 0.  0.
        998    1    1    2    0    0 -0.43854668014E+01 -0.36672297532E+01  0.14646844178E+04  0.14647297104E+04  0.10000000000E+02 0. -1.
</event>
<event>
 5    1  0.1129619E-008  0.3816297E+03  0.7957747E-01  0.3444093E+00
         13   -1    0    0    0    0  0.00000000000E+00  0.00000000000E+00  0.14999999963E+04  0.15000000000E+04  0.10566000000E+00 0. -1.
        994   -1    0    0    0    0 -0.00000000000E+00 -0.00000000000E+00  0.11368683772E-12  0.17120000000E+03  0.17120000000E+03 0.  0.
         13    1    1    2    0    0 -0.44335687737E+02 -0.41025442876E+02  0.35915817210E+03  0.36420233925E+03  0.10566000000E+00 0. -1.
        994    1    1    2    0    0  0.58361205015E+02  0.46121143961E+02  0.21934490291E+02  0.18794614132E+03  0.17120000000E+03 0.  0.
        998    1    1    2    0    0 -0.14025517277E+02 -0.50957010848E+01  0.11189073339E+04  0.11190515194E+04  0.10000000000E+02 0. -1.
</event>
<event>
 5    1  0.1129619E-008  0.3838158E+03  0.7957747E-01  0.3434710E+00
         13   -1    0    0    0    0  0.00000000000E+00  0.00000000000E+00  0.14999999963E+04  0.15000000000E+04  0.10566000000E+00 0.  1.
        994   -1    0    0    0    0 -0.00000000000E+00 -0.00000000000E+00  0.11368683772E-12  0.17120000000E+03  0.17120000000E+03 0.  0.
         13    1    1    2    0    0 -0.15800002924E+02 -0.18902530474E+02  0.12160835104E+03  0.12407879737E+03  0.10566000000E+00 0.  1.
        994    1    1    2    0    0  0.21228849888E+02  0.21962469511E+02  0.53054864610E+01  0.17398448874E+03  0.17120000000E+03 0.  0.
        998    1    1    2    0    0 -0.54288469637E+01 -0.30599390368E+01  0.13730861588E+04  0.13731367139E+04  0.10000000000E+02 0.  1.
</event>
<event>
 5    1  0.1129619E-008  0.3837326E+03  0.7957747E-01  0.3435065E+00
         13   -1    0    0    0    0  0.00000000000E+00  0.00000000000E+00  0.14999999963E+04  0.15000000000E+04  0.10566000000E+00 0. -1.
        994   -1    0    0    0    0 -0.00000000000E+00 -0.00000000000E+00  0.11368683772E-12  0.17120000000E+03  0.17120000000E+03 0.  0.
         13    1    1    2    0    0 -0.12537132610E+02  0.97920592741E+01  0.53108694082E+02  0.55440135913E+02  0.10566000000E+00 0. -1.
        994    1    1    2    0    0  0.16608056248E+02 -0.98274625913E+01  0.34913955291E+01  0.17231957636E+03  0.17120000000E+03 0.  0.
        998    1    1    2    0    0 -0.40709236376E+01  0.35403317157E-01  0.14433999067E+04  0.14434402877E+04  0.10000000000E+02 0. -1.
</event>
<event>
 5    1  0.1129619E-008  0.3795817E+03  0.7957747E-01  0.3452982E+00
         13   -1    0    0    0    0  0.00000000000E+00  0.00000000000E+00  0.14999999963E+04  0.15000000000E+04  0.10566000000E+00 0.  1.
        994   -1    0    0    0    0 -0.00000000000E+00 -0.00000000000E+00  0.11368683772E-12  0.17120000000E+03  0.17120000000E+03 0.  0.
         13    1    1    2    0    0  0.26147474064E+02 -0.48560931424E+01  0.75913071000E+02  0.80436792285E+02  0.10566000000E+00 0.  1.
        994    1    1    2    0    0 -0.27008181645E+02  0.82638862617E+01  0.70194764397E+01  0.17365611634E+03  0.17120000000E+03 0.  0.
        998    1    1    2    0    0  0.86070758031E+00 -0.34077931193E+01  0.14170674488E+04  0.14171070914E+04  0.10000000000E+02 0.  1.
</event>
<event>
 5    1  0.1129619E-008  0.3768151E+03  0.7957747E-01  0.3465145E+00
         13   -1    0    0    0    0  0.00000000000E+00  0.00000000000E+00  0.14999999963E+04  0.15000000000E+04  0.10566000000E+00 0.  1.
        994   -1    0    0    0    0 -0.00000000000E+00 -0.00000000000E+00  0.11368683772E-12  0.17120000000E+03  0.17120000000E+03 0.  0.
         13    1    1    2    0    0  0.21813060807E+02  0.12261019344E+02  0.43846768450E+02  0.50484576701E+02  0.10566000000E+00 0.  1.
        994    1    1    2    0    0 -0.78849207984E+02 -0.32316915942E+01  0.27088074088E+02  0.19044906192E+03  0.17120000000E+03 0.  0.
        998    1    1    2    0    0  0.57036147177E+02 -0.90293277493E+01  0.14290651537E+04  0.14302663614E+04  0.10000000000E+02 0.  1.
</event>
<event>
 5    1  0.1129619E-008  0.3755858E+03  0.7957747E-01  0.3470607E+00
         13   -1    0    0    0    0  0.00000000000E+00  0.00000000000E+00  0.14999999963E+04  0.15000000000E+04  0.10566000000E+00 0.  1.
        994   -1    0    0    0    0 -0.00000000000E+00 -0.00000000000E+00  0.11368683772E-12  0.17120000000E+03  0.17120000000E+03 0.  0.
         13    1    1    2    0    0 -0.36608434287E+02 -0.32796371046E+02  0.22419629272E+03  0.22952073599E+03  0.10566000000E+00 0.  1.
        994    1    1    2    0    0  0.41629431728E+01 -0.24527058575E+01  0.64574302875E+01  0.17138986046E+03  0.17120000000E+03 0.  0.
        998    1    1    2    0    0  0.32445491115E+02  0.35249076903E+02  0.12693462733E+04  0.12702894036E+04  0.10000000000E+02 0.  1.
</event>
<event>
 5    1  0.1129619E-008  0.3764816E+03  0.7957747E-01  0.3466623E+00
         13   -1    0    0    0    0  0.00000000000E+00  0.00000000000E+00  0.14999999963E+04  0.15000000000E+04  0.10566000000E+00 0. -1.
        994   -1    0    0    0    0 -0.00000000000E+00 -0.00000000000E+00  0.11368683772E-12  0.17120000000E+03  0.17120000000E+03 0.  0.
         13    1    1    2    0    0  0.35224680388E+02 -0.22332171174E+02  0.13828075211E+03  0.14443365794E+03  0.10566000000E+00 0. -1.
        994    1    1    2    0    0 -0.89273913845E+01  0.50989253238E+02  0.15037402307E+02  0.17948583713E+03  0.17120000000E+03 0.  0.
        998    1    1    2    0    0 -0.26297289003E+02 -0.28657082064E+02  0.13466818419E+04  0.13472805049E+04  0.10000000000E+02 0. -1.
</event>
<event>
 5    1  0.1129619E-008  0.3756247E+03  0.7957747E-01  0.3470433E+00
         13   -1    0    0    0    0  0.00000000000E+00  0.00000000000E+00  0.14999999963E+04  0.15000000000E+04  0.10566000000E+00 0. -1.
        994   -1    0    0    0    0 -0.00000000000E+00 -0.00000000000E+00  0.11368683772E-12  0.17120000000E+03  0.17120000000E+03 0.  0.
         13    1    1    2    0    0  0.65832969392E+02  0.44229255324E+01  0.32369944696E+03  0.33035569505E+03  0.10566000000E+00 0. -1.
        994    1    1    2    0    0 -0.44118228631E+02  0.23254631194E+01  0.13007846605E+02  0.17728640656E+03  0.17120000000E+03 0.  0.
        998    1    1    2    0    0 -0.21714740760E+02 -0.67483886518E+01  0.11632927027E+04  0.11635578984E+04  0.10000000000E+02 0. -1.
</event>
<event>
 5    1  0.1129619E-008  0.3804274E+03  0.7957747E-01  0.3449300E+00
         13   -1    0    0    0    0  0.00000000000E+00  0.00000000000E+00  0.14999999963E+04  0.15000000000E+04  0.10566000000E+00 0. -1.
        994   -1    0    0    0    0 -0.00000000000E+00 -0.00000000000E+00  0.11368683772E-12  0.17120000000E+03  0.17120000000E+03 0.  0.
         13    1    1    2    0    0 -0.56423108328E+01  0.50348987656E+02  0.27787815183E+03  0.28245908493E+03  0.10566000000E+00 0. -1.
        994    1    1    2    0    0  0.63439757105E+01 -0.46471626998E+02  0.11296293796E+02  0.17786765978E+03  0.17120000000E+03 0.  0.
        998    1    1    2    0    0 -0.70166487774E+00 -0.38773606577E+01  0.12108255506E+04  0.12108732553E+04  0.10000000000E+02 0.  0.
</event>
<event>
 5    1  0.1129619E-008  0.3834699E+03  0.7957747E-01  0.3436188E+00
         13   -1    0    0    0    0  0.00000000000E+00  0.00000000000E+00  0.14999999963E+04  0.15000000000E+04  0.10566000000E+00 0.  1.
        994   -1    0    0    0    0 -0.00000000000E+00 -0.00000000000E+00  0.11368683772E-12  0.17120000000E+03  0.17120000000E+03 0.  0.
         13    1    1    2    0    0 -0.10304068936E+02 -0.83599406533E+01  0.43771554029E+02  0.45738633020E+02  0.10566000000E+00 0.  1.
        994    1    1    2    0    0 -0.14586252041E+02 -0.34922128833E+02  0.71400388614E+01  0.17547858555E+03  0.17120000000E+03 0.  0.
        998    1    1    2    0    0  0.24890320977E+02  0.43282069486E+02  0.14490884034E+04  0.14499827814E+04  0.10000000000E+02 0.  1.
</event>
<event>
 5    1  0.1129619E-008  0.3817700E+03  0.7957747E-01  0.3443488E+00
         13   -1    0    0    0    0  0.00000000000E+00  0.00000000000E+00  0.14999999963E+04  0.15000000000E+04  0.10566000000E+00 0.  1.
        994   -1    0    0    0    0 -0.00000000000E+00 -0.00000000000E+00  0.11368683772E-12  0.17120000000E+03  0.17120000000E+03 0.  0.
         13    1    1    2    0    0  0.22289764090E+02 -0.23626076760E+02  0.17059720065E+03  0.17366185857E+03  0.10566000000E+00 0.  1.
        994    1    1    2    0    0 -0.16224849388E+02  0.14357743985E+01  0.41245687927E+01  0.17202255449E+03  0.17120000000E+03 0.  0.
        998    1    1    2    0    0 -0.60649147019E+01  0.22190302362E+02  0.13252782268E+04  0.13255155869E+04  0.10000000000E+02 0.  1.
</event>
<event>
 5    1  0.1129619E-008  0.3779516E+03  0.7957747E-01  0.3460126E+00
         13   -1    0    0    0    0  0.00000000000E+00  0.00000000000E+00  0.14999999963E+04  0.15000000000E+04  0.10566000000E+00 0. -1.
        994   -1    0    0    0    0 -0.00000000000E+00 -0.00000000000E+00  0.11368683772E-12  0.17120000000E+03  0.17120000000E+03 0.  0.
         13    1    1    2    0    0  0.89776654074E+02 -0.22220371440E+02  0.22825223942E+03  0.24627766543E+03  0.10566000000E+00 0. -1.
        994    1    1    2    0    0 -0.95645098637E+02  0.16785365107E+02  0.49956002683E+02  0.20306347672E+03  0.17120000000E+03 0.  0.
        998    1    1    2    0    0  0.58684445634E+01  0.54350063330E+01  0.12217917542E+04  0.12218588578E+04  0.10000000000E+02 0. -1.
</event>
<event>
 5    1  0.1129619E-008  0.3713219E+03  0.7957747E-01  0.3489838E+00
         13   -1    0    0    0    0  0.00000000000E+00  0.00000000000E+00  0.14999999963E+04  0.15000000000E+04  0.10566000000E+00 0.  1.
        994   -1    0    0    0    0 -0.00000000000E+00 -0.00000000000E+00  0.11368683772E-12  0.17120000000E+03  0.17120000000E+03 0.  0.
         13    1    1    2    0    0  0.44377350410E+02 -0.10826228011E+03  0.40351001080E+03  0.42013142051E+03  0.10566000000E+00 0.  1.
        994    1    1    2    0    0 -0.50594973223E+02  0.10966734252E+03  0.64794137076E+02  0.21930457709E+03  0.17120000000E+03 0.  0.
        998    1    1    2    0    0  0.62176228133E+01 -0.14050624110E+01  0.10316958484E+04  0.10317640024E+04  0.10000000000E+02 0.  0.
</event>
<event>
 5    1  0.1129619E-008  0.3782839E+03  0.7957747E-01  0.3458665E+00
         13   -1    0    0    0    0  0.00000000000E+00  0.00000000000E+00  0.14999999963E+04  0.15000000000E+04  0.10566000000E+00 0. -1.
        994   -1    0    0    0    0 -0.00000000000E+00 -0.00000000000E+00  0.11368683772E-12  0.17120000000E+03  0.17120000000E+03 0.  0.
         13    1    1    2    0    0  0.21741820184E+02  0.11501506563E+01  0.45715835577E+02  0.50635742100E+02  0.10566000000E+00 0. -1.
        994    1    1    2    0    0 -0.12816207955E+02  0.38974475514E+01  0.56054494428E+01  0.17181474427E+03  0.17120000000E+03 0.  0.
        998    1    1    2    0    0 -0.89256122289E+01 -0.50475982077E+01  0.14486787113E+04  0.14487495136E+04  0.10000000000E+02 0. -1.
</event>
<event>
 5    1  0.1129619E-008  0.3740938E+03  0.7957747E-01  0.3477286E+00
         13   -1    0    0    0    0  0.00000000000E+00  0.00000000000E+00  0.14999999963E+04  0.15000000000E+04  0.10566000000E+00 0. -1.
        994   -1    0    0    0    0 -0.00000000000E+00 -0.00000000000E+00  0.11368683772E-12  0.17120000000E+03  0.17120000000E+03 0.  0.
         13    1    1    2    0    0 -0.23943608735E+02  0.36572393072E+02  0.11502436923E+03  0.12305061160E+03  0.10566000000E+00 0. -1.
        994    1    1    2    0    0  0.24859424442E+02 -0.51425476122E+02  0.18351652489E+02  0.18140781055E+03  0.17120000000E+03 0.  0.
        998    1    1    2    0    0 -0.91581570697E+00  0.14853083050E+02  0.13666239746E+04  0.13667415779E+04  0.10000000000E+02 0. -1.
</event>
<event>
 5    1  0.1129619E-008  0.3708302E+03  0.7957747E-01  0.3492084E+00
         13   -1    0    0    0    0  0.00000000000E+00  0.00000000000E+00  0.14999999963E+04  0.15000000000E+04  0.10566000000E+00 0. -1.
        994   -1    0    0    0    0 -0.00000000000E+00 -0.00000000000E+00  0.11368683772E-12  0.17120000000E+03  0.17120000000E+03 0.  0.
         13    1    1    2    0    0  0.16145155007E+02  0.16622601480E+03  0.66576730801E+03  0.68639483798E+03  0.10566000000E+00 0. -1.
        994    1    1    2    0    0 -0.11877962326E+02 -0.15885563191E+03  0.10650850651E+03  0.25696244811E+03  0.17120000000E+03 0.  0.
        998    1    1    2    0    0 -0.42671926808E+01 -0.73703828852E+01  0.72772418176E+03  0.72784271391E+03  0.10000000000E+02 0. -1.
</event>
<event>
 5    1  0.1129619E-008  0.3766660E+03  0.7957747E-01  0.3465805E+00
         13   -1    0    0    0    0  0.00000000000E+00  0.00000000000E+00  0.14999999963E+04  0.15000000000E+04  0.10566000000E+00 0.  1.
        994   -1    0    0    0    0 -0.00000000000E+00 -0.00000000000E+00  0.11368683772E-12  0.17120000000E+03  0.17120000000E+03 0.  0.
         13    1    1    2    0    0  0.21140431190E+02 -0.15455002562E+02  0.60578689265E+02  0.65996694554E+02  0.10566000000E+00 0.  1.
        994    1    1    2    0    0 -0.40048442810E+01 -0.86593390073E+01  0.61334286235E+01  0.17157529506E+03  0.17120000000E+03 0.  0.
        998    1    1    2    0    0 -0.17135586909E+02  0.24114341569E+02  0.14332878784E+04  0.14336280104E+04  0.10000000000E+02 0.  1.
</event>
<event>
 5    1  0.1129619E-008  0.3755893E+03  0.7957747E-01  0.3470591E+00
         13   -1    0    0    0    0  0.00000000000E+00  0.00000000000E+00  0.14999999963E+04  0.15000000000E+04  0.10566000000E+00 0.  1.
        994   -1    0    0    0    0 -0.00000000000E+00 -0.00000000000E+00  0.11368683772E-12  0.17120000000E+03  0.17120000000E+03 0.  0.
         13    1    1    2    0    0 -0.28407393281E+02  0.14437616020E+02  0.72245162459E+02  0.78960746021E+02  0.10566000000E+00 0.  1.
        994    1    1    2    0    0  0.34373327890E+02 -0.16537427111E+02  0.11328436249E+02  0.17576343657E+03  0.17120000000E+03 0.  0.
        998    1    1    2    0    0 -0.59659346088E+01  0.20998110911E+01  0.14164263976E+04  0.14164758174E+04  0.10000000000E+02 0.  1.
</event>
<event>
 5    1  0.1129619E-008  0.3749608E+03  0.7957747E-01  0.3473398E+00
         13   -1    0    0    0    0  0.00000000000E+00  0.00000000000E+00  0.14999999963E+04  0.15000000000E+04  0.10566000000E+00 0.  1.
        994   -1    0    0    0    0 -0.00000000000E+00 -0.00000000000E+00  0.11368683772E-12  0.17120000000E+03  0.17120000000E+03 0.  0.
         13    1    1    2    0    0  0.11488065524E+03 -0.25446406084E+02  0.57202532234E+03  0.58400176805E+03  0.10566000000E+00 0.  1.
        994    1    1    2    0    0 -0.12125657260E+03  0.22671959674E+02  0.60330277564E+02  0.21946834976E+03  0.17120000000E+03 0.  0.
        998    1    1    2    0    0  0.63759173586E+01  0.27744464095E+01  0.86764439638E+03  0.86772988219E+03  0.10000000000E+02 0.  1.
</event>
<event>
 5    1  0.1129619E-008  0.3851165E+03  0.7957747E-01  0.3429178E+00
         13   -1    0    0    0    0  0.00000000000E+00  0.00000000000E+00  0.14999999963E+04  0.15000000000E+04  0.10566000000E+00 0. -1.
        994   -1    0    0    0    0 -0.00000000000E+00 -0.00000000000E+00  0.11368683772E-12  0.17120000000E+03  0.17120000000E+03 0.  0.
         13    1    1    2    0    0 -0.13311870311E+01 -0.18361531878E+02  0.10147346914E+03  0.10312998601E+03  0.10566000000E+00 0. -1.
        994    1    1    2    0    0  0.44642733036E+00  0.19482664683E+02  0.28217529848E+01  0.17232868540E+03  0.17120000000E+03 0.  0.
        998    1    1    2    0    0  0.88475970070E+00 -0.11211328049E+01  0.13957047742E+04  0.13957413286E+04  0.10000000000E+02 0. -1.
</event>
<event>
 5    1  0.1129619E-008  0.3765546E+03  0.7957747E-01  0.3466299E+00
         13   -1    0    0    0    0  0.00000000000E+00  0.00000000000E+00  0.14999999963E+04  0.15000000000E+04  0.10566000000E+00 0.  1.
        994   -1    0    0    0    0 -0.00000000000E+00 -0.00000000000E+00  0.11368683772E-12  0.17120000000E+03  0.17120000000E+03 0.  0.
         13    1    1    2    0    0  0.14397209047E+02 -0.81157091712E+02  0.42242326591E+03  0.43038956761E+03  0.10566000000E+00 0.  1.
        994    1    1    2    0    0 -0.79722316127E+01  0.79667930565E+02  0.27876762113E+02  0.19104211448E+03  0.17120000000E+03 0.  0.
        998    1    1    2    0    0 -0.64249774346E+01  0.14891611471E+01  0.10496999683E+04  0.10497683179E+04  0.10000000000E+02 0.  1.
</event>
<event>
 5    1  0.1129619E-008  0.3772161E+03  0.7957747E-01  0.3463371E+00
         13   -1    0    0    0    0  0.00000000000E+00  0.00000000000E+00  0.14999999963E+04  0.15000000000E+04  0.10566000000E+00 0.  1.
        994   -1    0    0    0    0 -0.00000000000E+00 -0.00000000000E+00  0.11368683772E-12  0.17120000000E+03  0.17120000000E+03 0.  0.
         13    1    1    2    0    0 -0.55843999814E+02 -0.79342847203E+02  0.37690871465E+03  0.38919664703E+03  0.10566000000E+00 0.  1.
        994    1    1    2    0    0  0.83391170099E+02  0.12523888677E+03  0.86191293236E+02  0.24367446530E+03  0.17120000000E+03 0.  0.
        998    1    1    2    0    0 -0.27547170285E+02 -0.45896039565E+02  0.10368999884E+04  0.10383288877E+04  0.10000000000E+02 0.  1.
</event>
<event>
 5    1  0.1129619E-008  0.3804839E+03  0.7957747E-01  0.3449054E+00
         13   -1    0    0    0    0  0.00000000000E+00  0.00000000000E+00  0.14999999963E+04  0.15000000000E+04  0.10566000000E+00 0.  1.
        994   -1    0    0    0    0 -0.00000000000E+00 -0.00000000000E+00  0.11368683772E-12  0.17120000000E+03  0.17120000000E+03 0.  0.
         13    1    1    2    0    0  0.96659844328E+01 -0.31996538093E+02  0.18335336268E+03  0.18637509617E+03  0.10566000000E+00 0.  1.
        994    1    1    2    0    0  0.12520187589E+02 -0.10531752793E+02  0.47829510389E+01  0.17204647493E+03  0.17120000000E+03 0.  0.
        998    1    1    2    0    0 -0.22186172021E+02  0.42528290886E+02  0.13118636826E+04  0.13127784289E+04  0.10000000000E+02 0.  1.
</event>
<event>
 5    1  0.1129619E-008  0.3753365E+03  0.7957747E-01  0.3471719E+00
         13   -1    0    0    0    0  0.00000000000E+00  0.00000000000E+00  0.14999999963E+04  0.15000000000E+04  0.10566000000E+00 0. -1.
        994   -1    0    0    0    0 -0.00000000000E+00 -0.00000000000E+00  0.11368683772E-12  0.17120000000E+03  0.17120000000E+03 0.  0.
         13    1    1    2    0    0  0.39142165457E+02  0.33365871163E+02  0.85759252878E+02  0.10000025547E+03  0.10566000000E+00 0. -1.
        994    1    1    2    0    0 -0.37225034874E+02 -0.38468533963E+02  0.24069126150E+02  0.18098147463E+03  0.17120000000E+03 0.  0.
        998    1    1    2    0    0 -0.19171305833E+01  0.51026628007E+01  0.13901716172E+04  0.13902182699E+04  0.10000000000E+02 0. -1.
</event>
<event>
 5    1  0.1129619E-008  0.3711536E+03  0.7957747E-01  0.3490606E+00
         13   -1    0    0    0    0  0.00000000000E+00  0.00000000000E+00  0.14999999963E+04  0.15000000000E+04  0.10566000000E+00 0. -1.
        994   -1    0    0    0    0 -0.00000000000E+00 -0.00000000000E+00  0.11368683772E-12  0.17120000000E+03  0.17120000000E+03 0.  0.
         13    1    1    2    0    0  0.66258027226E+02  0.12949870498E+03  0.60207831477E+03  0.61940160562E+03  0.10566000000E+00 0. -1.
        994    1    1    2    0    0 -0.76339720544E+02 -0.13503258528E+03  0.96718884344E+02  0.25045066302E+03  0.17120000000E+03 0.  0.
        998    1    1    2    0    0  0.10081693317E+02  0.55338802987E+01  0.80120279717E+03  0.80134773136E+03  0.10000000000E+02 0. -1.
</event>
<event>
 5    1  0.1129619E-008  0.3843579E+03  0.7957747E-01  0.3432400E+00
         13   -1    0    0    0    0  0.00000000000E+00  0.00000000000E+00  0.14999999963E+04  0.15000000000E+04  0.10566000000E+00 0.  1.
        994   -1    0    0    0    0 -0.00000000000E+00 -0.00000000000E+00  0.11368683772E-12  0.17120000000E+03  0.17120000000E+03 0.  0.
         13    1    1    2    0    0  0.29953168124E+01 -0.30081104740E+02  0.17388477654E+03  0.17649297851E+03  0.10566000000E+00 0.  1.
        994    1    1    2    0    0  0.66222404627E+01  0.51614923691E+02  0.10924897702E+02  0.17926725246E+03  0.17120000000E+03 0.  0.
        998    1    1    2    0    0 -0.96175572751E+01 -0.21533818952E+02  0.13151903220E+04  0.13154397690E+04  0.10000000000E+02 0.  1.
</event>
<event>
 5    1  0.1129619E-008  0.3725211E+03  0.7957747E-01  0.3484384E+00
         13   -1    0    0    0    0  0.00000000000E+00  0.00000000000E+00  0.14999999963E+04  0.15000000000E+04  0.10566000000E+00 0.  1.
        994   -1    0    0    0    0 -0.00000000000E+00 -0.00000000000E+00  0.11368683772E-12  0.17120000000E+03  0.17120000000E+03 0.  0.
         13    1    1    2    0    0 -0.23025202920E+02 -0.19040057488E+02  0.31028758668E+02  0.43075268857E+02  0.10566000000E+00 0.  1.
        994    1    1    2    0    0  0.23166427630E+02  0.12968119791E+02  0.14768228367E+02  0.17387465620E+03  0.17120000000E+03 0.  0.
        998    1    1    2    0    0 -0.14122471037E+00  0.60719376969E+01  0.14542030092E+04  0.14542500749E+04  0.10000000000E+02 0.  1.
</event>
<event>
 5    1  0.1129619E-008  0.3830049E+03  0.7957747E-01  0.3438178E+00
         13   -1    0    0    0    0  0.00000000000E+00  0.00000000000E+00  0.14999999963E+04  0.15000000000E+04  0.10566000000E+00 0. -1.
        994   -1    0    0    0    0 -0.00000000000E+00 -0.00000000000E+00  0.11368683772E-12  0.17120000000E+03  0.17120000000E+03 0.  0.
         13    1    1    2    0    0  0.17386327804E+02  0.98416479028E+01  0.73803992522E+02  0.76460335496E+02  0.10566000000E+00 0. -1.
        994    1    1    2    0    0 -0.12827975794E+02 -0.10780527880E+02  0.35538755192E+01  0.17205477842E+03  0.17120000000E+03 0.  0.
        998    1    1    2    0    0 -0.45583520101E+01  0.93887997691E+00  0.14226421282E+04  0.14226848861E+04  0.10000000000E+02 0. -1.
</event>
<event>
 5    1  0.1129619E-008  0.3737822E+03  0.7957747E-01  0.3478687E+00
         13   -1    0    0    0    0  0.00000000000E+00  0.00000000000E+00  0.14999999963E+04  0.15000000000E+04  0.10566000000E+00 0.  1.
        994   -1    0    0    0    0 -0.00000000000E+00 -0.00000000000E+00  0.11368683772E-12  0.17120000000E+03  0.17120000000E+03 0.  0.
         13    1    1    2    0    0  0.29892061719E+01  0.21545493976E+02  0.29354606561E+02  0.36535568349E+02  0.10566000000E+00 0.  1.
        994    1    1    2    0    0 -0.97829654526E+01 -0.13914249166E+02  0.82935037308E+01  0.17224266297E+03  0.17120000000E+03 0.  0.
        998    1    1    2    0    0  0.67937592807E+01 -0.76312448102E+01  0.14623518860E+04  0.14624217687E+04  0.10000000000E+02 0.  1.
</event>
<event>
 5    1  0.1129619E-008  0.3843144E+03  0.7957747E-01  0.3432585E+00
         13   -1    0    0    0    0  0.00000000000E+00  0.00000000000E+00  0.14999999963E+04  0.15000000000E+04  0.10566000000E+00 0.  1.
        994   -1    0    0    0    0 -0.00000000000E+00 -0.00000000000E+00  0.11368683772E-12  0.17120000000E+03  0.17120000000E+03 0.  0.
         13    1    1    2    0    0  0.18787917443E+02  0.24968521636E+02  0.15028649380E+03  0.15350066546E+03  0.10566000000E+00 0.  1.
        994    1    1    2    0    0 -0.56029033263E+02 -0.57969222908E+02  0.23695954499E+02  0.19071083250E+03  0.17120000000E+03 0.  0.
        998    1    1    2    0    0  0.37241115820E+02  0.33000701272E+02  0.13260175480E+04  0.13269885020E+04  0.10000000000E+02 0.  1.
</event>
<event>
 5    1  0.1129619E-008  0.3841679E+03  0.7957747E-01  0.3433209E+00
         13   -1    0    0    0    0  0.00000000000E+00  0.00000000000E+00  0.14999999963E+04  0.15000000000E+04  0.10566000000E+00 0.  1.
        994   -1    0    0    0    0 -0.00000000000E+00 -0.00000000000E+00  0.11368683772E-12  0.17120000000E+03  0.17120000000E+03 0.  0.
         13    1    1    2    0    0  0.10556574508E+02  0.41116979992E+00  0.26672643385E+02  0.28688872322E+02  0.10566000000E+00 0.  1.
        994    1    1    2    0    0 -0.79239966038E+01  0.81640572991E+00  0.22531185851E+01  0.17140003729E+03  0.17120000000E+03 0.  0.
        998    1    1    2    0    0 -0.26325779040E+01 -0.12275755298E+01  0.14710742343E+04  0.14711110904E+04  0.10000000000E+02 0.  1.
</event>
<event>
 5    1  0.1129619E-008  0.3782804E+03  0.7957747E-01  0.3458680E+00
         13   -1    0    0    0    0  0.00000000000E+00  0.00000000000E+00  0.14999999963E+04  0.15000000000E+04  0.10566000000E+00 0. -1.
        994   -1    0    0    0    0 -0.00000000000E+00 -0.00000000000E+00  0.11368683772E-12  0.17120000000E+03  0.17120000000E+03 0.  0.
         13    1    1    2    0    0  0.27792619944E+02 -0.29528158337E+02  0.14891831909E+03  0.15434059343E+03  0.10566000000E+00 0. -1.
        994    1    1    2    0    0 -0.48888811869E+01  0.50394562223E+02  0.13671151142E+02  0.17905265548E+03  0.17120000000E+03 0.  0.
        998    1    1    2    0    0 -0.22903738757E+02 -0.20866403886E+02  0.13374105261E+04  0.13378067511E+04  0.10000000000E+02 0. -1.
</event>
<event>
 5    1  0.1129619E-008  0.3691789E+03  0.7957747E-01  0.3499673E+00
         13   -1    0    0    0    0  0.00000000000E+00  0.00000000000E+00  0.14999999963E+04  0.15000000000E+04  0.10566000000E+00 0. -1.
        994   -1    0    0    0    0 -0.00000000000E+00 -0.00000000000E+00  0.11368683772E-12  0.17120000000E+03  0.17120000000E+03 0.  0.
         13    1    1    2    0    0 -0.57491755491E+02 -0.11813917570E+02  0.14215459054E+03  0.15379469878E+03  0.10566000000E+00 0. -1.
        994    1    1    2    0    0  0.64026399207E+02  0.96448804077E+01  0.25266138190E+02  0.18477072618E+03  0.17120000000E+03 0.  0.
        998    1    1    2    0    0 -0.65346437165E+01  0.21690371626E+01  0.13325792675E+04  0.13326345750E+04  0.10000000000E+02 0. -1.
</event>
<event>
 5    1  0.1129619E-008  0.3819940E+03  0.7957747E-01  0.3442522E+00
         13   -1    0    0    0    0  0.00000000000E+00  0.00000000000E+00  0.14999999963E+04  0.15000000000E+04  0.10566000000E+00 0.  1.
        994   -1    0    0    0    0 -0.00000000000E+00 -0.00000000000E+00  0.11368683772E-12  0.17120000000E+03  0.17120000000E+03 0.  0.
         13    1    1    2    0    0 -0.23394215792E+02  0.30044480621E+02  0.22150665713E+03  0.22475580185E+03  0.10566000000E+00 0.  1.
        994    1    1    2    0    0  0.19921702477E+02 -0.18144667073E+02  0.55451156588E+01  0.17339634218E+03  0.17120000000E+03 0.  0.
        998    1    1    2    0    0  0.34725133152E+01 -0.11899813548E+02  0.12729482235E+04  0.12730478560E+04  0.10000000000E+02 0.  1.
</event>
<event>
 5    1  0.1129619E-008  0.3738904E+03  0.7957747E-01  0.3478200E+00
         13   -1    0    0    0    0  0.00000000000E+00  0.00000000000E+00  0.14999999963E+04  0.15000000000E+04  0.10566000000E+00 0. -1.
        994   -1    0    0    0    0 -0.00000000000E+00 -0.00000000000E+00  0.11368683772E-12  0.17120000000E+03  0.17120000000E+03 0.  0.
         13    1    1    2    0    0 -0.21722885684E+02  0.15250749045E+02  0.45365571046E+02  0.52559635741E+02  0.10566000000E+00 0. -1.
        994    1    1    2    0    0  0.21265280824E+02 -0.51758662002E+01  0.88856853222E+01  0.17282186541E+03  0.17120000000E+03 0.  0.
        998    1    1    2    0    0  0.45760486028E+00 -0.10074882844E+02  0.14457487399E+04  0.14458184989E+04  0.10000000000E+02 0. -1.
</event>
<event>
 5    1  0.1129619E-008  0.3699638E+03  0.7957747E-01  0.3496057E+00
         13   -1    0    0    0    0  0.00000000000E+00  0.00000000000E+00  0.14999999963E+04  0.15000000000E+04  0.10566000000E+00 0.  1.
        994   -1    0    0    0    0 -0.00000000000E+00 -0.00000000000E+00  0.11368683772E-12  0.17120000000E+03  0.17120000000E+03 0.  0.
         13    1    1    2    0    0  0.22142484035E+01  0.92560418562E+02  0.34834577327E+03  0.36044017936E+03  0.10566000000E+00 0.  1.
        994    1    1    2    0    0 -0.24223739862E+02 -0.92657622634E+02  0.41710439401E+02  0.20055279943E+03  0.17120000000E+03 0.  0.
        998    1    1    2    0    0  0.22009491458E+02  0.97204071054E-01  0.11099437836E+04  0.11102070212E+04  0.10000000000E+02 0.  1.
</event>
<event>
 5    1  0.1129619E-008  0.3785908E+03  0.7957747E-01  0.3457317E+00
         13   -1    0    0    0    0  0.00000000000E+00  0.00000000000E+00  0.14999999963E+04  0.15000000000E+04  0.10566000000E+00 0. -1.
        994   -1    0    0    0    0 -0.00000000000E+00 -0.00000000000E+00  0.11368683772E-12  0.17120000000E+03  0.17120000000E+03 0.  0.
         13    1    1    2    0    0  0.28247579760E+02  0.15362256884E+02  0.10037124884E+03  0.10539603150E+03  0.10566000000E+00 0. -1.
        994    1    1    2    0    0 -0.25087667789E+02 -0.14268423150E+02  0.76488447197E+01  0.17378412988E+03  0.17120000000E+03 0.  0.
        998    1    1    2    0    0 -0.31599119709E+01 -0.10938337343E+01  0.13919799027E+04  0.13920198386E+04  0.10000000000E+02 0. -1.
</event>
<event>
 5    1  0.1129619E-008  0.3852023E+03  0.7957747E-01  0.3428815E+00
         13   -1    0    0    0    0  0.00000000000E+00  0.00000000000E+00  0.14999999963E+04  0.15000000000E+04  0.10566000000E+00 0. -1.
        994   -1    0    0    0    0 -0.00000000000E+00 -0.00000000000E+00  0.11368683772E-12  0.17120000000E+03  0.17120000000E+03 0.  0.
         13    1    1    2    0    0 -0.15862956248E+02 -0.27456765189E+01  0.87911876004E+02  0.89373828535E+02  0.10566000000E+00 0. -1.
        994    1    1    2    0    0  0.67020252451E+01 -0.40581558702E+01  0.17314960506E+01  0.17138793379E+03  0.17120000000E+03 0.  0.
        998    1    1    2    0    0  0.91609310032E+01  0.68038323892E+01  0.14103566242E+04  0.14104382377E+04  0.10000000000E+02 0. -1.
</event>
<event>
 5    1  0.1129619E-008  0.3461864E+03  0.7957747E-01  0.3613044E+00
         13   -1    0    0    0    0  0.00000000000E+00  0.00000000000E+00  0.14999999963E+04  0.15000000000E+04  0.10566000000E+00 0. -1.
        994   -1    0    0    0    0 -0.00000000000E+00 -0.00000000000E+00  0.11368683772E-12  0.17120000000E+03  0.17120000000E+03 0.  0.
         13    1    1    2    0    0 -0.24505872965E+03 -0.89571136882E+02  0.88872589266E+03  0.92623457773E+03  0.10566000000E+00 0. -1.
        994    1    1    2    0    0  0.22847582764E+03  0.69183902606E+02  0.25919140143E+03  0.39176171172E+03  0.17120000000E+03 0.  0.
        998    1    1    2    0    0  0.16582902005E+02  0.20387234277E+02  0.35208270219E+03  0.35320371055E+03  0.10000000000E+02 0. -1.
</event>
<event>
 5    1  0.1129619E-008  0.3766071E+03  0.7957747E-01  0.3466066E+00
         13   -1    0    0    0    0  0.00000000000E+00  0.00000000000E+00  0.14999999963E+04  0.15000000000E+04  0.10566000000E+00 0. -1.
        994   -1    0    0    0    0 -0.00000000000E+00 -0.00000000000E+00  0.11368683772E-12  0.17120000000E+03  0.17120000000E+03 0.  0.
         13    1    1    2    0    0 -0.29524852657E+00  0.15906465670E+02  0.22261499269E+01  0.16064548837E+02  0.10566000000E+00 0. -1.
        994    1    1    2    0    0  0.77267473218E+01 -0.81194684945E+01  0.14925713336E+02  0.17221453281E+03  0.17120000000E+03 0.  0.
        998    1    1    2    0    0 -0.74314987952E+01 -0.77869971751E+01  0.14828481330E+04  0.14829209184E+04  0.10000000000E+02 0. -1.
</event>
<event>
 5    1  0.1129619E-008  0.2851822E+03  0.7957747E-01  0.4007834E+00
         13   -1    0    0    0    0  0.00000000000E+00  0.00000000000E+00  0.14999999963E+04  0.15000000000E+04  0.10566000000E+00 0. -1.
        994   -1    0    0    0    0 -0.00000000000E+00 -0.00000000000E+00  0.11368683772E-12  0.17120000000E+03  0.17120000000E+03 0.  0.
         13    1    1    2    0    0  0.18763032992E+03 -0.97373453793E+02  0.21264854412E+03  0.29984353368E+03  0.10566000000E+00 0. -1.
        994    1    1    2    0    0 -0.23848304241E+03  0.41237763645E+02  0.50727504999E+03  0.58754755638E+03  0.17120000000E+03 0.  0.
        998    1    1    2    0    0  0.50852712486E+02  0.56135690148E+02  0.78007640217E+03  0.78380890994E+03  0.10000000000E+02 0. -1.
</event>
<event>
 5    1  0.1129619E-008  0.3780634E+03  0.7957747E-01  0.3459635E+00
         13   -1    0    0    0    0  0.00000000000E+00  0.00000000000E+00  0.14999999963E+04  0.15000000000E+04  0.10566000000E+00 0. -1.
        994   -1    0    0    0    0 -0.00000000000E+00 -0.00000000000E+00  0.11368683772E-12  0.17120000000E+03  0.17120000000E+03 0.  0.
         13    1    1    2    0    0  0.15991251757E+02  0.15767213134E+02  0.43533551239E+02  0.48984756714E+02  0.10566000000E+00 0. -1.
        994    1    1    2    0    0 -0.22284891284E+02 -0.34472595420E+02  0.10804002025E+02  0.17638351021E+03  0.17120000000E+03 0.  0.
        998    1    1    2    0    0  0.62936395268E+01  0.18705382286E+02  0.14456624430E+04  0.14458317331E+04  0.10000000000E+02 0. -1.
</event>
<event>
 5    1  0.1129619E-008  0.3849539E+03  0.7957747E-01  0.3429868E+00
         13   -1    0    0    0    0  0.00000000000E+00  0.00000000000E+00  0.14999999963E+04  0.15000000000E+04  0.10566000000E+00 0. -1.
        994   -1    0    0    0    0 -0.00000000000E+00 -0.00000000000E+00  0.11368683772E-12  0.17120000000E+03  0.17120000000E+03 0.  0.
         13    1    1    2    0    0 -0.62193553854E+01  0.19766848183E+02  0.11891390192E+03  0.12070598951E+03  0.10566000000E+00 0. -1.
        994    1    1    2    0    0  0.39944184805E+01 -0.23386479768E+02  0.35066149428E+01  0.17287168410E+03  0.17120000000E+03 0.  0.
        998    1    1    2    0    0  0.22249369050E+01  0.36196315846E+01  0.13775794794E+04  0.13776223264E+04  0.10000000000E+02 0. -1.
</event>
<event>
 5    1  0.1129619E-008  0.3872643E+03  0.7957747E-01  0.3420126E+00
         13   -1    0    0    0    0  0.00000000000E+00  0.00000000000E+00  0.14999999963E+04  0.15000000000E+04  0.10566000000E+00 0. -1.
        994   -1    0    0    0    0 -0.00000000000E+00 -0.00000000000E+00  0.11368683772E-12  0.17120000000E+03  0.17120000000E+03 0.  0.
         13    1    1    2    0    0  0.26269208748E+02  0.85630910416E+02  0.24367175392E+03  0.25961251698E+03  0.10566000000E+00 0. -1.
        994    1    1    2    0    0 -0.71805304608E+02  0.18657256804E+02  0.41170542847E+02  0.19107210314E+03  0.17120000000E+03 0.  0.
        998    1    1    2    0    0  0.45536095860E+02 -0.10428816722E+03  0.12151576995E+04  0.12205153799E+04  0.10000000000E+02 0. -1.
</event>
<event>
 5    1  0.1129619E-008  0.3688925E+03  0.7957747E-01  0.3500996E+00
         13   -1    0    0    0    0  0.00000000000E+00  0.00000000000E+00  0.14999999963E+04  0.15000000000E+04  0.10566000000E+00 0. -1.
        994   -1    0    0    0    0 -0.00000000000E+00 -0.00000000000E+00  0.11368683772E-12  0.17120000000E+03  0.17120000000E+03 0.  0.
         13    1    1    2    0    0  0.29127787898E+02 -0.57765853117E+01  0.39464903954E+02  0.49389136192E+02  0.10566000000E+00 0. -1.
        994    1    1    2    0    0 -0.27638698045E+02  0.30564150909E+02  0.15766095866E+02  0.17679387639E+03  0.17120000000E+03 0.  0.
        998    1    1    2    0    0 -0.14890898528E+01 -0.24787565597E+02  0.14447689965E+04  0.14450169874E+04  0.10000000000E+02 0. -1.
</event>
<event>
 5    1  0.1129619E-008  0.3792926E+03  0.7957747E-01  0.3454244E+00
         13   -1    0    0    0    0  0.00000000000E+00  0.00000000000E+00  0.14999999963E+04  0.15000000000E+04  0.10566000000E+00 0. -1.
        994   -1    0    0    0    0 -0.00000000000E+00 -0.00000000000E+00  0.11368683772E-12  0.17120000000E+03  0.17120000000E+03 0.  0.
         13    1    1    2    0    0 -0.29757443846E+02  0.28232610100E+02  0.17269051530E+03  0.17749538297E+03  0.10566000000E+00 0. -1.
        994    1    1    2    0    0  0.32448017424E+02 -0.16983315048E+02  0.89981608479E+01  0.17530463121E+03  0.17120000000E+03 0.  0.
        998    1    1    2    0    0 -0.26905735778E+01 -0.11249295052E+02  0.13183113201E+04  0.13183999858E+04  0.10000000000E+02 0. -1.
</event>
<event>
 5    1  0.1129619E-008  0.3822319E+03  0.7957747E-01  0.3441498E+00
         13   -1    0    0    0    0  0.00000000000E+00  0.00000000000E+00  0.14999999963E+04  0.15000000000E+04  0.10566000000E+00 0.  1.
        994   -1    0    0    0    0 -0.00000000000E+00 -0.00000000000E+00  0.11368683772E-12  0.17120000000E+03  0.17120000000E+03 0.  0.
         13    1    1    2    0    0  0.27350616713E+02 -0.15907096420E+02  0.15083619287E+03  0.15411898065E+03  0.10566000000E+00 0.  1.
        994    1    1    2    0    0 -0.26725013083E+02  0.16497423962E+02  0.62909186656E+01  0.17417062605E+03  0.17120000000E+03 0.  0.
        998    1    1    2    0    0 -0.62560362991E+00 -0.59032754168E+00  0.13428728847E+04  0.13429103933E+04  0.10000000000E+02 0.  0.
</event>
<event>
 5    1  0.1129619E-008  0.3878966E+03  0.7957747E-01  0.3417480E+00
         13   -1    0    0    0    0  0.00000000000E+00  0.00000000000E+00  0.14999999963E+04  0.15000000000E+04  0.10566000000E+00 0. -1.
        994   -1    0    0    0    0 -0.00000000000E+00 -0.00000000000E+00  0.11368683772E-12  0.17120000000E+03  0.17120000000E+03 0.  0.
         13    1    1    2    0    0 -0.78983683043E+02  0.37094840160E+02  0.16605883970E+03  0.18758997511E+03  0.10566000000E+00 0. -1.
        994    1    1    2    0    0  0.77852864039E+02 -0.91843789138E+01  0.44051109780E+02  0.19337880320E+03  0.17120000000E+03 0.  0.
        998    1    1    2    0    0  0.11308190034E+01 -0.27910461247E+02  0.12898900468E+04  0.12902312217E+04  0.10000000000E+02 0. -1.
</event>
<event>
 5    1  0.1129619E-008  0.3831530E+03  0.7957747E-01  0.3437543E+00
         13   -1    0    0    0    0  0.00000000000E+00  0.00000000000E+00  0.14999999963E+04  0.15000000000E+04  0.10566000000E+00 0. -1.
        994   -1    0    0    0    0 -0.00000000000E+00 -0.00000000000E+00  0.11368683772E-12  0.17120000000E+03  0.17120000000E+03 0.  0.
         13    1    1    2    0    0 -0.18319813596E+02 -0.26988358552E+02  0.17719585907E+03  0.18017316865E+03  0.10566000000E+00 0. -1.
        994    1    1    2    0    0  0.15780978786E+02  0.35567656553E+02  0.75754448321E+01  0.17572969256E+03  0.17120000000E+03 0.  0.
        998    1    1    2    0    0  0.25388348094E+01 -0.85792980014E+01  0.13152286924E+04  0.13152971388E+04  0.10000000000E+02 0. -1.
</event>
<event>
 5    1  0.1129619E-008  0.3835189E+03  0.7957747E-01  0.3435978E+00
         13   -1    0    0    0    0  0.00000000000E+00  0.00000000000E+00  0.14999999963E+04  0.15000000000E+04  0.10566000000E+00 0.  1.
        994   -1    0    0    0    0 -0.00000000000E+00 -0.00000000000E+00  0.11368683772E-12  0.17120000000E+03  0.17120000000E+03 0.  0.
         13    1    1    2    0    0 -0.17856316867E+02  0.30070440683E+01  0.65073404782E+02  0.67545906908E+02  0.10566000000E+00 0.  1.
        994    1    1    2    0    0  0.25427669252E+02  0.17297158801E+02  0.54988307527E+01  0.17402711055E+03  0.17120000000E+03 0.  0.
        998    1    1    2    0    0 -0.75713523850E+01 -0.20304202869E+02  0.14294277607E+04  0.14296269825E+04  0.10000000000E+02 0.  1.
</event>
<event>
 5    1  0.1129619E-008  0.3840620E+03  0.7957747E-01  0.3433660E+00
         13   -1    0    0    0    0  0.00000000000E+00  0.00000000000E+00  0.14999999963E+04  0.15000000000E+04  0.10566000000E+00 0. -1.
        994   -1    0    0    0    0 -0.00000000000E+00 -0.00000000000E+00  0.11368683772E-12  0.17120000000E+03  0.17120000000E+03 0.  0.
         13    1    1    2    0    0  0.22957610802E+02  0.63474152551E+02  0.12701222403E+03  0.14383371007E+03  0.10566000000E+00 0. -1.
        994    1    1    2    0    0 -0.12956195789E+02 -0.15918968401E+02  0.20127701634E+02  0.17359677686E+03  0.17120000000E+03 0.  0.
        998    1    1    2    0    0 -0.10001415013E+02 -0.47555184149E+02  0.13528600706E+04  0.13537695131E+04  0.10000000000E+02 0. -1.
</event>
<event>
 5    1  0.1129619E-008  0.3736255E+03  0.7957747E-01  0.3479393E+00
         13   -1    0    0    0    0  0.00000000000E+00  0.00000000000E+00  0.14999999963E+04  0.15000000000E+04  0.10566000000E+00 0.  1.
        994   -1    0    0    0    0 -0.00000000000E+00 -0.00000000000E+00  0.11368683772E-12  0.17120000000E+03  0.17120000000E+03 0.  0.
         13    1    1    2    0    0 -0.89129809037E+01 -0.21304443468E+02  0.31924012751E+02  0.39401450408E+02  0.10566000000E+00 0.  1.
        994    1    1    2    0    0  0.10046994811E+02  0.27358505855E+02  0.10292577434E+02  0.17396783351E+03  0.17120000000E+03 0.  0.
        998    1    1    2    0    0 -0.11340139069E+01 -0.60540623866E+01  0.14577834061E+04  0.14578307161E+04  0.10000000000E+02 0.  1.
</event>
<event>
 5    1  0.1129619E-008  0.3801441E+03  0.7957747E-01  0.3450531E+00
         13   -1    0    0    0    0  0.00000000000E+00  0.00000000000E+00  0.14999999963E+04  0.15000000000E+04  0.10566000000E+00 0. -1.
        994   -1    0    0    0    0 -0.00000000000E+00 -0.00000000000E+00  0.11368683772E-12  0.17120000000E+03  0.17120000000E+03 0.  0.
         13    1    1    2    0    0 -0.14542852709E+02  0.11190923119E+02  0.44162456419E+02  0.47823268878E+02  0.10566000000E+00 0. -1.
        994    1    1    2    0    0 -0.83959536281E+01  0.15071103342E+02  0.50555507204E+01  0.17214130471E+03  0.17120000000E+03 0.  0.
        998    1    1    2    0    0  0.22938806337E+02 -0.26262026461E+02  0.14507819891E+04  0.14512354264E+04  0.10000000000E+02 0. -1.
</event>
<event>
 5    1  0.1129619E-008  0.3832298E+03  0.7957747E-01  0.3437215E+00
         13   -1    0    0    0    0  0.00000000000E+00  0.00000000000E+00  0.14999999963E+04  0.15000000000E+04  0.10566000000E+00 0.  1.
        994   -1    0    0    0    0 -0.00000000000E+00 -0.00000000000E+00  0.11368683772E-12  0.17120000000E+03  0.17120000000E+03 0.  0.
         13    1    1    2    0    0 -0.11191640177E+02 -0.19870972631E+02  0.10720659370E+03  0.10960553480E+03  0.10566000000E+00 0.  1.
        994    1    1    2    0    0 -0.92133790901E+01  0.14641843174E+02  0.35020518487E+01  0.17210744985E+03  0.17120000000E+03 0.  0.
        998    1    1    2    0    0  0.20405019267E+02  0.52291294569E+01  0.13892913507E+04  0.13894870153E+04  0.10000000000E+02 0.  1.
</event>
<event>
 5    1  0.1129619E-008  0.3822940E+03  0.7957747E-01  0.3441230E+00
         13   -1    0    0    0    0  0.00000000000E+00  0.00000000000E+00  0.14999999963E+04  0.15000000000E+04  0.10566000000E+00 0.  1.
        994   -1    0    0    0    0 -0.00000000000E+00 -0.00000000000E+00  0.11368683772E-12  0.17120000000E+03  0.17120000000E+03 0.  0.
         13    1    1    2    0    0 -0.70556953026E+01 -0.10893880118E+02  0.27201930161E+02  0.30139934119E+02  0.10566000000E+00 0.  1.
        994    1    1    2    0    0  0.48364698957E+01  0.70796238298E+01  0.32235190994E+01  0.17144487041E+03  0.17120000000E+03 0.  0.
        998    1    1    2    0    0  0.22192254069E+01  0.38142562878E+01  0.14695745470E+04  0.14696151955E+04  0.10000000000E+02 0.  1.
</event>
<event>
 5    1  0.1129619E-008  0.3789573E+03  0.7957747E-01  0.3455711E+00
         13   -1    0    0    0    0  0.00000000000E+00  0.00000000000E+00  0.14999999963E+04  0.15000000000E+04  0.10566000000E+00 0.  1.
        994   -1    0    0    0    0 -0.00000000000E+00 -0.00000000000E+00  0.11368683772E-12  0.17120000000E+03  0.17120000000E+03 0.  0.
         13    1    1    2    0    0  0.93371180303E+01 -0.76904303198E+01  0.13672928384E+02  0.18256084636E+02  0.10566000000E+00 0.  1.
        994    1    1    2    0    0 -0.97505545310E+01  0.13941583219E+01  0.49859216479E+01  0.17155557818E+03  0.17120000000E+03 0.  0.
        998    1    1    2    0    0  0.41343650072E+00  0.62962719979E+01  0.14813411462E+04  0.14813883372E+04  0.10000000000E+02 0.  1.
</event>
<event>
 5    1  0.1129619E-008  0.3828215E+03  0.7957747E-01  0.3438964E+00
         13   -1    0    0    0    0  0.00000000000E+00  0.00000000000E+00  0.14999999963E+04  0.15000000000E+04  0.10566000000E+00 0.  1.
        994   -1    0    0    0    0 -0.00000000000E+00 -0.00000000000E+00  0.11368683772E-12  0.17120000000E+03  0.17120000000E+03 0.  0.
         13    1    1    2    0    0 -0.25309565608E+02 -0.12193001592E+02  0.14328897343E+03  0.14601706910E+03  0.10566000000E+00 0.  1.
        994    1    1    2    0    0  0.13092071689E+02  0.14318108921E+02  0.39632918982E+01  0.17234140033E+03  0.17120000000E+03 0.  0.
        998    1    1    2    0    0  0.12217493920E+02 -0.21251073285E+01  0.13527477310E+04  0.13528415306E+04  0.10000000000E+02 0.  1.
</event>
<event>
 5    1  0.1129619E-008  0.3855768E+03  0.7957747E-01  0.3427230E+00
         13   -1    0    0    0    0  0.00000000000E+00  0.00000000000E+00  0.14999999963E+04  0.15000000000E+04  0.10566000000E+00 0. -1.
        994   -1    0    0    0    0 -0.00000000000E+00 -0.00000000000E+00  0.11368683772E-12  0.17120000000E+03  0.17120000000E+03 0.  0.
         13    1    1    2    0    0 -0.11895455119E+02 -0.13592459351E+01  0.53677090799E+02  0.54996278444E+02  0.10566000000E+00 0. -1.
        994    1    1    2    0    0  0.77593817176E+01  0.14297500687E+01  0.15484225594E+01  0.17138870967E+03  0.17120000000E+03 0.  0.
        998    1    1    2    0    0  0.41360734016E+01 -0.70504133628E-01  0.14447744829E+04  0.14448150119E+04  0.10000000000E+02 0. -1.
</event>
<event>
 5    1  0.1129619E-008  0.3724565E+03  0.7957747E-01  0.3484677E+00
         13   -1    0    0    0    0  0.00000000000E+00  0.00000000000E+00  0.14999999963E+04  0.15000000000E+04  0.10566000000E+00 0.  1.
        994   -1    0    0    0    0 -0.00000000000E+00 -0.00000000000E+00  0.11368683772E-12  0.17120000000E+03  0.17120000000E+03 0.  0.
         13    1    1    2    0    0  0.10898842474E+03 -0.47401463705E+02  0.44582402792E+03  0.46139402958E+03  0.10566000000E+00 0.  1.
        994    1    1    2    0    0 -0.96902764154E+02  0.35639502044E+02  0.50851789070E+02  0.20629024276E+03  0.17120000000E+03 0.  0.
        998    1    1    2    0    0 -0.12085660587E+02  0.11761961660E+02  0.10033241793E+04  0.10035157277E+04  0.10000000000E+02 0.  1.
</event>
<event>
 5    1  0.1129619E-008  0.3857071E+03  0.7957747E-01  0.3426679E+00
         13   -1    0    0    0    0  0.00000000000E+00  0.00000000000E+00  0.14999999963E+04  0.15000000000E+04  0.10566000000E+00 0. -1.
        994   -1    0    0    0    0 -0.00000000000E+00 -0.00000000000E+00  0.11368683772E-12  0.17120000000E+03  0.17120000000E+03 0.  0.
         13    1    1    2    0    0 -0.50556922540E+01  0.11526241968E+02  0.62324832568E+02  0.63583096785E+02  0.10566000000E+00 0. -1.
        994    1    1    2    0    0 -0.32678657523E+00 -0.94402416872E+01  0.15722754238E+01  0.17146759753E+03  0.17120000000E+03 0.  0.
        998    1    1    2    0    0  0.53824788292E+01 -0.20860002807E+01  0.14361028883E+04  0.14361493057E+04  0.10000000000E+02 0. -1.
</event>
<event>
 5    1  0.1129619E-008  0.3800130E+03  0.7957747E-01  0.3451102E+00
         13   -1    0    0    0    0  0.00000000000E+00  0.00000000000E+00  0.14999999963E+04  0.15000000000E+04  0.10566000000E+00 0.  1.
        994   -1    0    0    0    0 -0.00000000000E+00 -0.00000000000E+00  0.11368683772E-12  0.17120000000E+03  0.17120000000E+03 0.  0.
         13    1    1    2    0    0  0.13381545082E+02 -0.95179819172E+01  0.31080703095E+02  0.35152226067E+02  0.10566000000E+00 0.  1.
        994    1    1    2    0    0 -0.49853543589E+01  0.11564211964E+02  0.46568522737E+01  0.17172568541E+03  0.17120000000E+03 0.  0.
        998    1    1    2    0    0 -0.83961907235E+01 -0.20462300465E+01  0.14642624409E+04  0.14643220885E+04  0.10000000000E+02 0.  1.
</event>
<event>
 5    1  0.1129619E-008  0.3806520E+03  0.7957747E-01  0.3448325E+00
         13   -1    0    0    0    0  0.00000000000E+00  0.00000000000E+00  0.14999999963E+04  0.15000000000E+04  0.10566000000E+00 0. -1.
        994   -1    0    0    0    0 -0.00000000000E+00 -0.00000000000E+00  0.11368683772E-12  0.17120000000E+03  0.17120000000E+03 0.  0.
         13    1    1    2    0    0  0.16537858256E+02  0.53592903694E+01  0.35946701364E+02  0.39929929276E+02  0.10566000000E+00 0. -1.
        994    1    1    2    0    0 -0.26263747395E+02 -0.16781930615E+02  0.70515482971E+01  0.17415677407E+03  0.17120000000E+03 0.  0.
        998    1    1    2    0    0  0.97258891385E+01  0.11422640246E+02  0.14570017466E+04  0.14571132967E+04  0.10000000000E+02 0. -1.
</event>
<event>
 5    1  0.1129619E-008  0.3745222E+03  0.7957747E-01  0.3475362E+00
         13   -1    0    0    0    0  0.00000000000E+00  0.00000000000E+00  0.14999999963E+04  0.15000000000E+04  0.10566000000E+00 0.  1.
        994   -1    0    0    0    0 -0.00000000000E+00 -0.00000000000E+00  0.11368683772E-12  0.17120000000E+03  0.17120000000E+03 0.  0.
         13    1    1    2    0    0  0.37333837404E+02  0.12007787779E+02  0.12523774657E+03  0.13123454847E+03  0.10566000000E+00 0.  1.
        994    1    1    2    0    0  0.65195507118E+01  0.11644177268E+01  0.70736170160E+01  0.17147401106E+03  0.17120000000E+03 0.  0.
        998    1    1    2    0    0 -0.43853388116E+02 -0.13172205506E+02  0.13676886327E+04  0.13684914405E+04  0.10000000000E+02 0.  1.
</event>
<event>
 5    1  0.1129619E-008  0.3710051E+03  0.7957747E-01  0.3491284E+00
         13   -1    0    0    0    0  0.00000000000E+00  0.00000000000E+00  0.14999999963E+04  0.15000000000E+04  0.10566000000E+00 0.  1.
        994   -1    0    0    0    0 -0.00000000000E+00 -0.00000000000E+00  0.11368683772E-12  0.17120000000E+03  0.17120000000E+03 0.  0.
         13    1    1    2    0    0 -0.98944529281E+02 -0.48522689670E+01  0.32304218249E+03  0.33789025914E+03  0.10566000000E+00 0.  1.
        994    1    1    2    0    0  0.10160896957E+03  0.29145461065E+01  0.48661158005E+02  0.20496396165E+03  0.17120000000E+03 0.  0.
        998    1    1    2    0    0 -0.26644402929E+01  0.19377228605E+01  0.11282966558E+04  0.11283457792E+04  0.10000000000E+02 0.  1.
</event>
<event>
 5    1  0.1129619E-008  0.3754765E+03  0.7957747E-01  0.3471094E+00
         13   -1    0    0    0    0  0.00000000000E+00  0.00000000000E+00  0.14999999963E+04  0.15000000000E+04  0.10566000000E+00 0. -1.
        994   -1    0    0    0    0 -0.00000000000E+00 -0.00000000000E+00  0.11368683772E-12  0.17120000000E+03  0.17120000000E+03 0.  0.
         13    1    1    2    0    0 -0.20943402175E+03  0.12664696397E+03  0.61359720585E+03  0.66060851126E+03  0.10566000000E+00 0. -1.
        994    1    1    2    0    0  0.27643881638E+03 -0.12924002974E+03  0.45545375086E+03  0.57434220084E+03  0.17120000000E+03 0.  0.
        998    1    1    2    0    0 -0.67004794630E+02  0.25930657711E+01  0.43094903957E+03  0.43624928791E+03  0.10000000000E+02 0. -1.
</event>
<event>
 5    1  0.1170506E-008  0.3843969E+03  0.7957747E-01  0.3432234E+00
         13   -1    0    0    0    0  0.00000000000E+00  0.00000000000E+00  0.14999999963E+04  0.15000000000E+04  0.10566000000E+00 0.  1.
        994   -1    0    0    0    0 -0.00000000000E+00 -0.00000000000E+00  0.11368683772E-12  0.17120000000E+03  0.17120000000E+03 0.  0.
         13    1    1    2    0    0 -0.68945555583E+00  0.10737058354E+02  0.28953708495E+02  0.30888317707E+02  0.10566000000E+00 0.  1.
        994    1    1    2    0    0  0.55174661102E+00 -0.12204955350E+02  0.24218615019E+01  0.17165247092E+03  0.17120000000E+03 0.  0.
        998    1    1    2    0    0  0.13770894481E+00  0.14678969957E+01  0.14686244263E+04  0.14686592114E+04  0.10000000000E+02 0.  1.
</event>
<event>
 5    1  0.1129619E-008  0.4407803E+03  0.7957747E-01  0.3222843E+00
         13   -1    0    0    0    0  0.00000000000E+00  0.00000000000E+00  0.14999999963E+04  0.15000000000E+04  0.10566000000E+00 0.  1.
        994   -1    0    0    0    0 -0.00000000000E+00 -0.00000000000E+00  0.11368683772E-12  0.17120000000E+03  0.17120000000E+03 0.  0.
         13    1    1    2    0    0 -0.55818717971E+02  0.74474376762E+02  0.62232734933E+02  0.11196020066E+03  0.10566000000E+00 0.  1.
        994    1    1    2    0    0  0.68303736522E+02 -0.52681504014E+02  0.91007477876E+02  0.21220872347E+03  0.17120000000E+03 0.  0.
        998    1    1    2    0    0 -0.12485018551E+02 -0.21792872748E+02  0.13467597835E+04  0.13470310759E+04  0.10000000000E+02 0.  1.
</event>
<event>
 5    1  0.1129619E-008  0.3825141E+03  0.7957747E-01  0.3440284E+00
         13   -1    0    0    0    0  0.00000000000E+00  0.00000000000E+00  0.14999999963E+04  0.15000000000E+04  0.10566000000E+00 0.  1.
        994   -1    0    0    0    0 -0.00000000000E+00 -0.00000000000E+00  0.11368683772E-12  0.17120000000E+03  0.17120000000E+03 0.  0.
         13    1    1    2    0    0 -0.18132797263E+02  0.17012087743E+02  0.10681710348E+03  0.10967275972E+03  0.10566000000E+00 0.  1.
        994    1    1    2    0    0  0.77338225401E+01 -0.14129854272E+02  0.37301045516E+01  0.17199656529E+03  0.17120000000E+03 0.  0.
        998    1    1    2    0    0  0.10398974722E+02 -0.28822334710E+01  0.13894527883E+04  0.13895306750E+04  0.10000000000E+02 0.  1.
</event>
<event>
 5    1  0.1129619E-008  0.3763744E+03  0.7957747E-01  0.3467099E+00
         13   -1    0    0    0    0  0.00000000000E+00  0.00000000000E+00  0.14999999963E+04  0.15000000000E+04  0.10566000000E+00 0.  1.
        994   -1    0    0    0    0 -0.00000000000E+00 -0.00000000000E+00  0.11368683772E-12  0.17120000000E+03  0.17120000000E+03 0.  0.
         13    1    1    2    0    0 -0.34642348799E-01  0.36428103439E+02  0.10578287421E+03  0.11187955828E+03  0.10566000000E+00 0.  1.
        994    1    1    2    0    0 -0.16409027371E+01 -0.28620359025E+02  0.87602690903E+01  0.17380448736E+03  0.17120000000E+03 0.  0.
        998    1    1    2    0    0  0.16755450859E+01 -0.78077444137E+01  0.13854568530E+04  0.13855159544E+04  0.10000000000E+02 0.  1.
</event>
<event>
 5    1  0.1129619E-008  0.3714635E+03  0.7957747E-01  0.3489192E+00
         13   -1    0    0    0    0  0.00000000000E+00  0.00000000000E+00  0.14999999963E+04  0.15000000000E+04  0.10566000000E+00 0.  1.
        994   -1    0    0    0    0 -0.00000000000E+00 -0.00000000000E+00  0.11368683772E-12  0.17120000000E+03  0.17120000000E+03 0.  0.
         13    1    1    2    0    0  0.60692404435E+02  0.11123772150E+02  0.18801520421E+03  0.19788136456E+03  0.10566000000E+00 0.  1.
        994    1    1    2    0    0 -0.67372071172E+02 -0.69658230585E+01  0.24457696663E+02  0.18572866658E+03  0.17120000000E+03 0.  0.
        998    1    1    2    0    0  0.66796667369E+01 -0.41579490913E+01  0.12875270954E+04  0.12875899689E+04  0.10000000000E+02 0.  1.
</event>
<event>
 5    1  0.1129619E-008  0.3733787E+03  0.7957747E-01  0.3480506E+00
         13   -1    0    0    0    0  0.00000000000E+00  0.00000000000E+00  0.14999999963E+04  0.15000000000E+04  0.10566000000E+00 0.  1.
        994   -1    0    0    0    0 -0.00000000000E+00 -0.00000000000E+00  0.11368683772E-12  0.17120000000E+03  0.17120000000E+03 0.  0.
         13    1    1    2    0    0 -0.90441344059E+01 -0.63045300556E+01  0.46615367140E+01  0.11970152670E+02  0.10566000000E+00 0.  1.
        994    1    1    2    0    0  0.34126985161E+01  0.31073474993E+01  0.75864632774E+01  0.17143015063E+03  0.17120000000E+03 0.  0.
        998    1    1    2    0    0  0.56314358898E+01  0.31971825563E+01  0.14877519963E+04  0.14877996967E+04  0.10000000000E+02 0.  1.
</event>
<event>
 5    1  0.1129619E-008  0.4327997E+03  0.7957747E-01  0.3249221E+00
         13   -1    0    0    0    0  0.00000000000E+00  0.00000000000E+00  0.14999999963E+04  0.15000000000E+04  0.10566000000E+00 0.  1.
        994   -1    0    0    0    0 -0.00000000000E+00 -0.00000000000E+00  0.11368683772E-12  0.17120000000E+03  0.17120000000E+03 0.  0.
         13    1    1    2    0    0 -0.74357302346E+02 -0.17158905589E+02  0.43478727033E+02  0.87828510870E+02  0.10566000000E+00 0.  1.
        994    1    1    2    0    0  0.64538897788E+02  0.24938497447E+02  0.71116797635E+02  0.19787429567E+03  0.17120000000E+03 0.  0.
        998    1    1    2    0    0  0.98184045583E+01 -0.77795918579E+01  0.13854044716E+04  0.13854971935E+04  0.10000000000E+02 0.  1.
</event>
<event>
 5    1  0.1129619E-008  0.3822899E+03  0.7957747E-01  0.3441248E+00
         13   -1    0    0    0    0  0.00000000000E+00  0.00000000000E+00  0.14999999963E+04  0.15000000000E+04  0.10566000000E+00 0. -1.
        994   -1    0    0    0    0 -0.00000000000E+00 -0.00000000000E+00  0.11368683772E-12  0.17120000000E+03  0.17120000000E+03 0.  0.
         13    1    1    2    0    0 -0.16739606646E+02  0.21562852931E+01  0.46201289805E+02  0.49187745838E+02  0.10566000000E+00 0. -1.
        994    1    1    2    0    0  0.14083205704E+02 -0.12178526465E+01  0.36449274566E+01  0.17182125987E+03  0.17120000000E+03 0.  0.
        998    1    1    2    0    0  0.26564009420E+01 -0.93843264658E+00  0.14501537790E+04  0.14501909943E+04  0.10000000000E+02 0. -1.
</event>
<event>
 5    1  0.1129619E-008  0.3732042E+03  0.7957747E-01  0.3481293E+00
         13   -1    0    0    0    0  0.00000000000E+00  0.00000000000E+00  0.14999999963E+04  0.15000000000E+04  0.10566000000E+00 0.  1.
        994   -1    0    0    0    0 -0.00000000000E+00 -0.00000000000E+00  0.11368683772E-12  0.17120000000E+03  0.17120000000E+03 0.  0.
         13    1    1    2    0    0  0.18812955657E+02 -0.52265447125E+02  0.23026574703E+03  0.23687112463E+03  0.10566000000E+00 0.  1.
        994    1    1    2    0    0 -0.56291448025E+01  0.85276020266E+01  0.79609641691E+01  0.17168932471E+03  0.17120000000E+03 0.  0.
        998    1    1    2    0    0 -0.13183810855E+02  0.43737845098E+02  0.12617732851E+04  0.12626395507E+04  0.10000000000E+02 0.  1.
</event>
<event>
 5    1  0.1264292E-008  0.3857103E+03  0.7957747E-01  0.3426665E+00
         13   -1    0    0    0    0  0.00000000000E+00  0.00000000000E+00  0.14999999963E+04  0.15000000000E+04  0.10566000000E+00 0.  1.
        994   -1    0    0    0    0 -0.00000000000E+00 -0.00000000000E+00  0.11368683772E-12  0.17120000000E+03  0.17120000000E+03 0.  0.
         13    1    1    2    0    0 -0.33615909345E+01  0.10368319214E+02  0.46441801288E+02  0.47703819636E+02  0.10566000000E+00 0.  1.
        994    1    1    2    0    0  0.31734085981E+01 -0.80541043090E+01  0.15238021845E+01  0.17142549720E+03  0.17120000000E+03 0.  0.
        998    1    1    2    0    0  0.18818233646E+00 -0.23142149048E+01  0.14520343928E+04  0.14520706832E+04  0.10000000000E+02 0.  0.
</event>
<event>
 5    1  0.1129619E-008  0.3835111E+03  0.7957747E-01  0.3436011E+00
         13   -1    0    0    0    0  0.00000000000E+00  0.00000000000E+00  0.14999999963E+04  0.15000000000E+04  0.10566000000E+00 0.  1.
        994   -1    0    0    0    0 -0.00000000000E+00 -0.00000000000E+00  0.11368683772E-12  0.17120000000E+03  0.17120000000E+03 0.  0.
         13    1    1    2    0    0 -0.15478550890E+02 -0.91637620819E+01  0.65333218573E+02  0.67764302449E+02  0.10566000000E+00 0.  1.
        994    1    1    2    0    0  0.14264911011E+02  0.11496386638E+02  0.34811277544E+01  0.17221269652E+03  0.17120000000E+03 0.  0.
        998    1    1    2    0    0  0.12136398790E+01 -0.23326245560E+01  0.14311856500E+04  0.14312230010E+04  0.10000000000E+02 0.  1.
</event>
<event>
 5    1  0.1129619E-008  0.3823804E+03  0.7957747E-01  0.3440859E+00
         13   -1    0    0    0    0  0.00000000000E+00  0.00000000000E+00  0.14999999963E+04  0.15000000000E+04  0.10566000000E+00 0. -1.
        994   -1    0    0    0    0 -0.00000000000E+00 -0.00000000000E+00  0.11368683772E-12  0.17120000000E+03  0.17120000000E+03 0.  0.
         13    1    1    2    0    0 -0.13200719578E+02  0.80476084170E+01  0.39678292202E+02  0.42584046716E+02  0.10566000000E+00 0. -1.
        994    1    1    2    0    0 -0.58095755965E+00 -0.21308160836E+02  0.44448830445E+01  0.17257917666E+03  0.17120000000E+03 0.  0.
        998    1    1    2    0    0  0.13781677137E+02  0.13260552419E+02  0.14558768210E+04  0.14560367766E+04  0.10000000000E+02 0. -1.
</event>
<event>
 5    1  0.1129619E-008  0.3849414E+03  0.7957747E-01  0.3429921E+00
         13   -1    0    0    0    0  0.00000000000E+00  0.00000000000E+00  0.14999999963E+04  0.15000000000E+04  0.10566000000E+00 0.  1.
        994   -1    0    0    0    0 -0.00000000000E+00 -0.00000000000E+00  0.11368683772E-12  0.17120000000E+03  0.17120000000E+03 0.  0.
         13    1    1    2    0    0 -0.78809661504E+01 -0.10215591037E+02  0.52238415546E+02  0.53808281430E+02  0.10566000000E+00 0.  1.
        994    1    1    2    0    0  0.26761247651E+02 -0.17804719563E+02  0.50650377395E+01  0.17426493343E+03  0.17120000000E+03 0.  0.
        998    1    1    2    0    0 -0.18880281500E+02  0.28020310600E+02  0.14426965430E+04  0.14431267851E+04  0.10000000000E+02 0.  1.
</event>
<event>
 5    1  0.1129619E-008  0.4105849E+03  0.7957747E-01  0.3327919E+00
         13   -1    0    0    0    0  0.00000000000E+00  0.00000000000E+00  0.14999999963E+04  0.15000000000E+04  0.10566000000E+00 0.  1.
        994   -1    0    0    0    0 -0.00000000000E+00 -0.00000000000E+00  0.11368683772E-12  0.17120000000E+03  0.17120000000E+03 0.  0.
         13    1    1    2    0    0  0.10820007314E+02 -0.34851947027E+01 -0.13545329848E+02  0.17683502626E+02  0.10566000000E+00 0.  1.
        994    1    1    2    0    0 -0.40347300793E+02 -0.30525771694E+02  0.44810829364E+02  0.18405753950E+03  0.17120000000E+03 0.  0.
        998    1    1    2    0    0  0.29527293478E+02  0.34010966397E+02  0.14687344968E+04  0.14694589579E+04  0.10000000000E+02 0.  1.
</event>
<event>
 5    1  0.1129619E-008  0.3781988E+03  0.7957747E-01  0.3459039E+00
         13   -1    0    0    0    0  0.00000000000E+00  0.00000000000E+00  0.14999999963E+04  0.15000000000E+04  0.10566000000E+00 0.  1.
        994   -1    0    0    0    0 -0.00000000000E+00 -0.00000000000E+00  0.11368683772E-12  0.17120000000E+03  0.17120000000E+03 0.  0.
         13    1    1    2    0    0  0.53573831338E+02  0.10085579166E+02  0.22817934370E+03  0.23460114741E+03  0.10566000000E+00 0.  1.
        994    1    1    2    0    0 -0.68258390487E+02  0.50797159965E+00  0.20878117113E+02  0.18548531392E+03  0.17120000000E+03 0.  0.
        998    1    1    2    0    0  0.14684559150E+02 -0.10593550766E+02  0.12509425355E+04  0.12511135387E+04  0.10000000000E+02 0.  1.
</event>
<event>
 5    1  0.1129619E-008  0.3813844E+03  0.7957747E-01  0.3445152E+00
         13   -1    0    0    0    0  0.00000000000E+00  0.00000000000E+00  0.14999999963E+04  0.15000000000E+04  0.10566000000E+00 0. -1.
        994   -1    0    0    0    0 -0.00000000000E+00 -0.00000000000E+00  0.11368683772E-12  0.17120000000E+03  0.17120000000E+03 0.  0.
         13    1    1    2    0    0 -0.13206458762E+02  0.16465107994E+02  0.63329146099E+02  0.66754042904E+02  0.10566000000E+00 0. -1.
        994    1    1    2    0    0 -0.62288325534E+00 -0.19365470289E+02  0.46861558130E+01  0.17235663457E+03  0.17120000000E+03 0.  0.
        998    1    1    2    0    0  0.13829342018E+02  0.29003622955E+01  0.14319846944E+04  0.14320893225E+04  0.10000000000E+02 0. -1.
</event>
<event>
 5    1  0.1129619E-008  0.2952678E+03  0.7957747E-01  0.3930393E+00
         13   -1    0    0    0    0  0.00000000000E+00  0.00000000000E+00  0.14999999963E+04  0.15000000000E+04  0.10566000000E+00 0. -1.
        994   -1    0    0    0    0 -0.00000000000E+00 -0.00000000000E+00  0.11368683772E-12  0.17120000000E+03  0.17120000000E+03 0.  0.
         13    1    1    2    0    0 -0.13396316448E+03  0.18450849571E+02  0.81076913348E+03  0.82196907622E+03  0.10566000000E+00 0. -1.
        994    1    1    2    0    0  0.31192063663E+02  0.66842842877E+01  0.24267787259E+02  0.17582943437E+03  0.17120000000E+03 0.  0.
        998    1    1    2    0    0  0.10277110081E+03 -0.25135133859E+02  0.66496307554E+03  0.67340148942E+03  0.10000000000E+02 0. -1.
</event>
<event>
 5    1  0.1129619E-008  0.3710615E+03  0.7957747E-01  0.3491027E+00
         13   -1    0    0    0    0  0.00000000000E+00  0.00000000000E+00  0.14999999963E+04  0.15000000000E+04  0.10566000000E+00 0.  1.
        994   -1    0    0    0    0 -0.00000000000E+00 -0.00000000000E+00  0.11368683772E-12  0.17120000000E+03  0.17120000000E+03 0.  0.
         13    1    1    2    0    0 -0.50106114325E+01  0.46629757700E+02  0.11674769488E+03  0.12581524531E+03  0.10566000000E+00 0.  1.
        994    1    1    2    0    0 -0.15139475905E+02 -0.43806867057E+02  0.16152668858E+02  0.17809714777E+03  0.17120000000E+03 0.  0.
        998    1    1    2    0    0  0.20150087337E+02 -0.28228906428E+01  0.13670996325E+04  0.13672876069E+04  0.10000000000E+02 0.  1.
</event>
<event>
 5    1  0.1129619E-008  0.3836237E+03  0.7957747E-01  0.3435530E+00
         13   -1    0    0    0    0  0.00000000000E+00  0.00000000000E+00  0.14999999963E+04  0.15000000000E+04  0.10566000000E+00 0. -1.
        994   -1    0    0    0    0 -0.00000000000E+00 -0.00000000000E+00  0.11368683772E-12  0.17120000000E+03  0.17120000000E+03 0.  0.
         13    1    1    2    0    0 -0.11735182401E+02  0.13601588725E+02  0.66700861542E+02  0.69077737487E+02  0.10566000000E+00 0. -1.
        994    1    1    2    0    0  0.84700715498E+01 -0.16792622367E+02  0.34843766154E+01  0.17226524652E+03  0.17120000000E+03 0.  0.
        998    1    1    2    0    0  0.32651108516E+01  0.31910336424E+01  0.14298147581E+04  0.14298570160E+04  0.10000000000E+02 0. -1.
</event>
<event>
 5    1  0.1129619E-008  0.3788344E+03  0.7957747E-01  0.3456249E+00
         13   -1    0    0    0    0  0.00000000000E+00  0.00000000000E+00  0.14999999963E+04  0.15000000000E+04  0.10566000000E+00 0.  1.
        994   -1    0    0    0    0 -0.00000000000E+00 -0.00000000000E+00  0.11368683772E-12  0.17120000000E+03  0.17120000000E+03 0.  0.
         13    1    1    2    0    0 -0.69286376861E+01 -0.31537848914E+02  0.10273829188E+03  0.10769312753E+03  0.10566000000E+00 0.  1.
        994    1    1    2    0    0  0.34138411823E+01  0.31125419411E+02  0.80199118126E+01  0.17422458217E+03  0.17120000000E+03 0.  0.
        998    1    1    2    0    0  0.35147965038E+01  0.41242950337E+00  0.13892417926E+04  0.13892822903E+04  0.10000000000E+02 0.  1.
</event>
<event>
 5    1  0.1129619E-008  0.3828614E+03  0.7957747E-01  0.3438793E+00
         13   -1    0    0    0    0  0.00000000000E+00  0.00000000000E+00  0.14999999963E+04  0.15000000000E+04  0.10566000000E+00 0. -1.
        994   -1    0    0    0    0 -0.00000000000E+00 -0.00000000000E+00  0.11368683772E-12  0.17120000000E+03  0.17120000000E+03 0.  0.
         13    1    1    2    0    0 -0.21310030464E+01 -0.10742687348E+02  0.22060850863E+02  0.24630038780E+02  0.10566000000E+00 0. -1.
        994    1    1    2    0    0 -0.11675050914E+02 -0.18999527856E+01  0.31591157211E+01  0.17163722395E+03  0.17120000000E+03 0.  0.
        998    1    1    2    0    0  0.13806053960E+02  0.12642640134E+02  0.14747800297E+04  0.14749327373E+04  0.10000000000E+02 0. -1.
</event>
<event>
 5    1  0.1129619E-008  0.4128141E+03  0.7957747E-01  0.3319646E+00
         13   -1    0    0    0    0  0.00000000000E+00  0.00000000000E+00  0.14999999963E+04  0.15000000000E+04  0.10566000000E+00 0. -1.
        994   -1    0    0    0    0 -0.00000000000E+00 -0.00000000000E+00  0.11368683772E-12  0.17120000000E+03  0.17120000000E+03 0.  0.
         13    1    1    2    0    0  0.67894669671E+02  0.82006646076E+02  0.14492458068E+03  0.17982747682E+03  0.10566000000E+00 0. -1.
        994    1    1    2    0    0 -0.45309236119E+02 -0.72623624822E+02  0.66654174173E+02  0.20268038064E+03  0.17120000000E+03 0.  0.
        998    1    1    2    0    0 -0.22585433552E+02 -0.93830212542E+01  0.12884212414E+04  0.12886921425E+04  0.10000000000E+02 0. -1.
</event>
<event>
 5    1  0.1129619E-008  0.3855989E+03  0.7957747E-01  0.3427136E+00
         13   -1    0    0    0    0  0.00000000000E+00  0.00000000000E+00  0.14999999963E+04  0.15000000000E+04  0.10566000000E+00 0. -1.
        994   -1    0    0    0    0 -0.00000000000E+00 -0.00000000000E+00  0.11368683772E-12  0.17120000000E+03  0.17120000000E+03 0.  0.
         13    1    1    2    0    0  0.53599627855E+01  0.14234702489E+02  0.88113703086E+02  0.89416954721E+02  0.10566000000E+00 0. -1.
        994    1    1    2    0    0  0.41302833929E+01 -0.11000867110E+02  0.17864390663E+01  0.17161209072E+03  0.17120000000E+03 0.  0.
        998    1    1    2    0    0 -0.94902461784E+01 -0.32338353792E+01  0.14100998541E+04  0.14101709546E+04  0.10000000000E+02 0. -1.
</event>
<event>
 5    1  0.1129619E-008  0.3848688E+03  0.7957747E-01  0.3430229E+00
         13   -1    0    0    0    0  0.00000000000E+00  0.00000000000E+00  0.14999999963E+04  0.15000000000E+04  0.10566000000E+00 0. -1.
        994   -1    0    0    0    0 -0.00000000000E+00 -0.00000000000E+00  0.11368683772E-12  0.17120000000E+03  0.17120000000E+03 0.  0.
         13    1    1    2    0    0  0.25156821918E+01 -0.19522467589E+02  0.10325799508E+03  0.10511745864E+03  0.10566000000E+00 0. -1.
        994    1    1    2    0    0 -0.19407543970E+02  0.23726164123E+02  0.47927025480E+01  0.17398848705E+03  0.17120000000E+03 0.  0.
        998    1    1    2    0    0  0.16891861778E+02 -0.42036965340E+01  0.13919492986E+04  0.13920940543E+04  0.10000000000E+02 0. -1.
</event>
<event>
 5    1  0.1129619E-008  0.3810324E+03  0.7957747E-01  0.3446676E+00
         13   -1    0    0    0    0  0.00000000000E+00  0.00000000000E+00  0.14999999963E+04  0.15000000000E+04  0.10566000000E+00 0.  1.
        994   -1    0    0    0    0 -0.00000000000E+00 -0.00000000000E+00  0.11368683772E-12  0.17120000000E+03  0.17120000000E+03 0.  0.
         13    1    1    2    0    0 -0.74972589835E+01 -0.43545669852E+02  0.21389327820E+03  0.21840966068E+03  0.10566000000E+00 0.  1.
        994    1    1    2    0    0 -0.93283575093E+01  0.57575359393E+02  0.15030868492E+02  0.18148638316E+03  0.17120000000E+03 0.  0.
        998    1    1    2    0    0  0.16825616493E+02 -0.14029689541E+02  0.12710758496E+04  0.12713039562E+04  0.10000000000E+02 0.  1.
</event>
<event>
 5    1  0.1129619E-008  0.3851222E+03  0.7957747E-01  0.3429154E+00
         13   -1    0    0    0    0  0.00000000000E+00  0.00000000000E+00  0.14999999963E+04  0.15000000000E+04  0.10566000000E+00 0. -1.
        994   -1    0    0    0    0 -0.00000000000E+00 -0.00000000000E+00  0.11368683772E-12  0.17120000000E+03  0.17120000000E+03 0.  0.
         13    1    1    2    0    0  0.76990922956E+01  0.12147354254E+02  0.68772720498E+02  0.70260461757E+02  0.10566000000E+00 0. -1.
        994    1    1    2    0    0 -0.10327748220E+02  0.25130773660E+01  0.19409426849E+01  0.17154062259E+03  0.17120000000E+03 0.  0.
        998    1    1    2    0    0  0.26286559241E+01 -0.14660431620E+02  0.14292863331E+04  0.14293989157E+04  0.10000000000E+02 0. -1.
</event>
<event>
 5    1  0.1129619E-008  0.3784602E+03  0.7957747E-01  0.3457891E+00
         13   -1    0    0    0    0  0.00000000000E+00  0.00000000000E+00  0.14999999963E+04  0.15000000000E+04  0.10566000000E+00 0.  1.
        994   -1    0    0    0    0 -0.00000000000E+00 -0.00000000000E+00  0.11368683772E-12  0.17120000000E+03  0.17120000000E+03 0.  0.
         13    1    1    2    0    0  0.47323550512E+02 -0.36400731315E+02  0.31584484750E+03  0.32143819083E+03  0.10566000000E+00 0.  1.
        994    1    1    2    0    0 -0.42206453910E+02  0.26036754176E+02  0.13220589045E+02  0.17872750570E+03  0.17120000000E+03 0.  0.
        998    1    1    2    0    0 -0.51170966021E+01  0.10363977139E+02  0.11709345597E+04  0.11710343035E+04  0.10000000000E+02 0.  1.
</event>
<event>
 5    1  0.1129619E-008  0.3847658E+03  0.7957747E-01  0.3430666E+00
         13   -1    0    0    0    0  0.00000000000E+00  0.00000000000E+00  0.14999999963E+04  0.15000000000E+04  0.10566000000E+00 0.  1.
        994   -1    0    0    0    0 -0.00000000000E+00 -0.00000000000E+00  0.11368683772E-12  0.17120000000E+03  0.17120000000E+03 0.  0.
         13    1    1    2    0    0 -0.62136511503E+01 -0.12690045823E+02  0.59512684602E+02  0.61167127742E+02  0.10566000000E+00 0.  1.
        994    1    1    2    0    0  0.13291595955E+02 -0.38968880982E+01  0.23781380693E+01  0.17177586501E+03  0.17120000000E+03 0.  0.
        998    1    1    2    0    0 -0.70779448050E+01  0.16586933921E+02  0.14381091736E+04  0.14382570072E+04  0.10000000000E+02 0.  1.
</event>
<event>
 5    1  0.1129619E-008  0.3791455E+03  0.7957747E-01  0.3454888E+00
         13   -1    0    0    0    0  0.00000000000E+00  0.00000000000E+00  0.14999999963E+04  0.15000000000E+04  0.10566000000E+00 0. -1.
        994   -1    0    0    0    0 -0.00000000000E+00 -0.00000000000E+00  0.11368683772E-12  0.17120000000E+03  0.17120000000E+03 0.  0.
         13    1    1    2    0    0  0.56247353690E+02 -0.29254357158E+02  0.28285828817E+03  0.28987653330E+03  0.10566000000E+00 0. -1.
        994    1    1    2    0    0 -0.93362205016E+02  0.19080551604E+02  0.35634951757E+02  0.19914783092E+03  0.17120000000E+03 0.  0.
        998    1    1    2    0    0  0.37114851326E+02  0.10173805554E+02  0.11815067564E+04  0.11821756358E+04  0.10000000000E+02 0. -1.
</event>
<event>
 5    1  0.1129619E-008  0.3726539E+03  0.7957747E-01  0.3483782E+00
         13   -1    0    0    0    0  0.00000000000E+00  0.00000000000E+00  0.14999999963E+04  0.15000000000E+04  0.10566000000E+00 0.  1.
        994   -1    0    0    0    0 -0.00000000000E+00 -0.00000000000E+00  0.11368683772E-12  0.17120000000E+03  0.17120000000E+03 0.  0.
         13    1    1    2    0    0 -0.62715530188E+02 -0.65445094631E+01  0.30937810470E+03  0.31573864376E+03  0.10566000000E+00 0.  1.
        994    1    1    2    0    0  0.54772909556E+01  0.49747384725E+02  0.16519928143E+02  0.17912886710E+03  0.17120000000E+03 0.  0.
        998    1    1    2    0    0  0.57238239233E+02 -0.43202875262E+02  0.11741019634E+04  0.11763324891E+04  0.10000000000E+02 0.  1.
</event>
<event>
 5    1  0.1129619E-008  0.3774082E+03  0.7957747E-01  0.3462522E+00
         13   -1    0    0    0    0  0.00000000000E+00  0.00000000000E+00  0.14999999963E+04  0.15000000000E+04  0.10566000000E+00 0. -1.
        994   -1    0    0    0    0 -0.00000000000E+00 -0.00000000000E+00  0.11368683772E-12  0.17120000000E+03  0.17120000000E+03 0.  0.
         13    1    1    2    0    0 -0.65119231117E+01  0.51094338686E+02  0.22199291118E+03  0.22789010590E+03  0.10566000000E+00 0. -1.
        994    1    1    2    0    0  0.47527756702E+01 -0.41736838674E+02  0.11420160744E+02  0.17664770774E+03  0.17120000000E+03 0.  0.
        998    1    1    2    0    0  0.17591474416E+01 -0.93575000120E+01  0.12665869244E+04  0.12666621864E+04  0.10000000000E+02 0. -1.
</event>
<event>
 5    1  0.1129619E-008  0.3790436E+03  0.7957747E-01  0.3455334E+00
         13   -1    0    0    0    0  0.00000000000E+00  0.00000000000E+00  0.14999999963E+04  0.15000000000E+04  0.10566000000E+00 0. -1.
        994   -1    0    0    0    0 -0.00000000000E+00 -0.00000000000E+00  0.11368683772E-12  0.17120000000E+03  0.17120000000E+03 0.  0.
         13    1    1    2    0    0  0.14576905908E+02 -0.39289624534E+01  0.22982166572E+02  0.27497528547E+02  0.10566000000E+00 0. -1.
        994    1    1    2    0    0 -0.60167911032E+01  0.46581886155E+01  0.48109213811E+01  0.17143653479E+03  0.17120000000E+03 0.  0.
        998    1    1    2    0    0 -0.85601148047E+01 -0.72922616207E+00  0.14722069083E+04  0.14722659367E+04  0.10000000000E+02 0. -1.
</event>
<event>
 5    1  0.1129619E-008  0.3770748E+03  0.7957747E-01  0.3463995E+00
         13   -1    0    0    0    0  0.00000000000E+00  0.00000000000E+00  0.14999999963E+04  0.15000000000E+04  0.10566000000E+00 0.  1.
        994   -1    0    0    0    0 -0.00000000000E+00 -0.00000000000E+00  0.11368683772E-12  0.17120000000E+03  0.17120000000E+03 0.  0.
         13    1    1    2    0    0 -0.56341042379E+01 -0.42179667066E+02  0.13687751558E+03  0.14333992075E+03  0.10566000000E+00 0.  1.
        994    1    1    2    0    0  0.11090525242E+02  0.53291271196E+02  0.15685010592E+02  0.18032864136E+03  0.17120000000E+03 0.  0.
        998    1    1    2    0    0 -0.54564210043E+01 -0.11111604129E+02  0.13474374701E+04  0.13475314379E+04  0.10000000000E+02 0.  1.
</event>
<event>
 5    1  0.1129619E-008  0.3825529E+03  0.7957747E-01  0.3440118E+00
         13   -1    0    0    0    0  0.00000000000E+00  0.00000000000E+00  0.14999999963E+04  0.15000000000E+04  0.10566000000E+00 0.  1.
        994   -1    0    0    0    0 -0.00000000000E+00 -0.00000000000E+00  0.11368683772E-12  0.17120000000E+03  0.17120000000E+03 0.  0.
         13    1    1    2    0    0  0.20055870512E+03 -0.21686728946E+02  0.10931343103E+04  0.11115919844E+04  0.10566000000E+00 0.  1.
        994    1    1    2    0    0 -0.21776875804E+03 -0.61253694458E+01  0.18051924591E+03  0.33069228941E+03  0.17120000000E+03 0.  0.
        998    1    1    2    0    0  0.17210052918E+02  0.27812098391E+02  0.22634644011E+03  0.22891572617E+03  0.10000000000E+02 0.  1.
</event>
<event>
 5    1  0.1129619E-008  0.3847241E+03  0.7957747E-01  0.3430843E+00
         13   -1    0    0    0    0  0.00000000000E+00  0.00000000000E+00  0.14999999963E+04  0.15000000000E+04  0.10566000000E+00 0. -1.
        994   -1    0    0    0    0 -0.00000000000E+00 -0.00000000000E+00  0.11368683772E-12  0.17120000000E+03  0.17120000000E+03 0.  0.
         13    1    1    2    0    0 -0.10695517090E+02 -0.71592298191E+01  0.46812574659E+02  0.48549737050E+02  0.10566000000E+00 0. -1.
        994    1    1    2    0    0  0.10646710483E+02 -0.14146500816E+01  0.21469485322E+01  0.17155000165E+03  0.17120000000E+03 0.  0.
        998    1    1    2    0    0  0.48806607014E-01  0.85738799008E+01  0.14510404731E+04  0.14511002613E+04  0.10000000000E+02 0. -1.
</event>
<event>
 5    1  0.1129619E-008  0.3844316E+03  0.7957747E-01  0.3432086E+00
         13   -1    0    0    0    0  0.00000000000E+00  0.00000000000E+00  0.14999999963E+04  0.15000000000E+04  0.10566000000E+00 0.  1.
        994   -1    0    0    0    0 -0.00000000000E+00 -0.00000000000E+00  0.11368683772E-12  0.17120000000E+03  0.17120000000E+03 0.  0.
         13    1    1    2    0    0  0.13121240461E+02  0.32525964957E+00  0.47209117042E+02  0.48999843275E+02  0.10566000000E+00 0.  1.
        994    1    1    2    0    0  0.21034839972E+01 -0.16215734768E+02  0.27939970803E+01  0.17200180557E+03  0.17120000000E+03 0.  0.
        998    1    1    2    0    0 -0.15224724458E+02  0.15890475119E+02  0.14499968822E+04  0.14501983512E+04  0.10000000000E+02 0.  1.
</event>
<event>
 5    1  0.1129619E-008  0.3854767E+03  0.7957747E-01  0.3427653E+00
         13   -1    0    0    0    0  0.00000000000E+00  0.00000000000E+00  0.14999999963E+04  0.15000000000E+04  0.10566000000E+00 0. -1.
        994   -1    0    0    0    0 -0.00000000000E+00 -0.00000000000E+00  0.11368683772E-12  0.17120000000E+03  0.17120000000E+03 0.  0.
         13    1    1    2    0    0  0.17080222669E+03  0.65272110585E+02  0.10820193944E+04  0.10973603921E+04  0.10566000000E+00 0. -1.
        994    1    1    2    0    0 -0.18560321402E+03 -0.70475718647E+02  0.14375218373E+03  0.29898078584E+03  0.17120000000E+03 0.  0.
        998    1    1    2    0    0  0.14800987334E+02  0.52036080620E+01  0.27422841812E+03  0.27485882207E+03  0.10000000000E+02 0.  1.
</event>
<event>
 5    1  0.1129619E-008  0.3752974E+03  0.7957747E-01  0.3471894E+00
         13   -1    0    0    0    0  0.00000000000E+00  0.00000000000E+00  0.14999999963E+04  0.15000000000E+04  0.10566000000E+00 0. -1.
        994   -1    0    0    0    0 -0.00000000000E+00 -0.00000000000E+00  0.11368683772E-12  0.17120000000E+03  0.17120000000E+03 0.  0.
         13    1    1    2    0    0  0.33462647526E+02 -0.10468243707E+02  0.89535340104E+02  0.96155713285E+02  0.10566000000E+00 0. -1.
        994    1    1    2    0    0 -0.21739009284E+02  0.24444686689E+02  0.10168616890E+02  0.17459372269E+03  0.17120000000E+03 0.  0.
        998    1    1    2    0    0 -0.11723638242E+02 -0.13976442983E+02  0.14002960393E+04  0.14004505640E+04  0.10000000000E+02 0. -1.
</event>
<event>
 5    1  0.1129619E-008  0.3848201E+03  0.7957747E-01  0.3430435E+00
         13   -1    0    0    0    0  0.00000000000E+00  0.00000000000E+00  0.14999999963E+04  0.15000000000E+04  0.10566000000E+00 0. -1.
        994   -1    0    0    0    0 -0.00000000000E+00 -0.00000000000E+00  0.11368683772E-12  0.17120000000E+03  0.17120000000E+03 0.  0.
         13    1    1    2    0    0  0.10329241933E+02 -0.59645491736E+01  0.40072425201E+02  0.41810040795E+02  0.10566000000E+00 0. -1.
        994    1    1    2    0    0 -0.12597916765E+02  0.53025811069E+01  0.23344620626E+01  0.17176063165E+03  0.17120000000E+03 0.  0.
        998    1    1    2    0    0  0.22686748317E+01  0.66196806669E+00  0.14575931090E+04  0.14576293276E+04  0.10000000000E+02 0. -1.
</event>
<event>
 5    1  0.1129619E-008  0.3774326E+03  0.7957747E-01  0.3462414E+00
         13   -1    0    0    0    0  0.00000000000E+00  0.00000000000E+00  0.14999999963E+04  0.15000000000E+04  0.10566000000E+00 0.  1.
        994   -1    0    0    0    0 -0.00000000000E+00 -0.00000000000E+00  0.11368683772E-12  0.17120000000E+03  0.17120000000E+03 0.  0.
         13    1    1    2    0    0  0.15056998739E+03 -0.15608155980E+02  0.84087299857E+03  0.85439004356E+03  0.10566000000E+00 0.  1.
        994    1    1    2    0    0 -0.15073548033E+03  0.77436532551E+01  0.86552457761E+02  0.24409407437E+03  0.17120000000E+03 0.  0.
        998    1    1    2    0    0  0.16549293600E+00  0.78645027247E+01  0.57257453994E+03  0.57271588208E+03  0.10000000000E+02 0.  1.
</event>
<event>
 5    1  0.1771565E-008  0.3862937E+03  0.7957747E-01  0.3424204E+00
         13   -1    0    0    0    0  0.00000000000E+00  0.00000000000E+00  0.14999999963E+04  0.15000000000E+04  0.10566000000E+00 0. -1.
        994   -1    0    0    0    0 -0.00000000000E+00 -0.00000000000E+00  0.11368683772E-12  0.17120000000E+03  0.17120000000E+03 0.  0.
         13    1    1    2    0    0 -0.12358646399E+02  0.11850835942E+01  0.75077193479E+02  0.76096890269E+02  0.10566000000E+00 0. -1.
        994    1    1    2    0    0  0.14509679023E+02  0.61984335520E-01  0.16789777133E+01  0.17182198228E+03  0.17120000000E+03 0.  0.
        998    1    1    2    0    0 -0.21510326238E+01 -0.12470679298E+01  0.14232438251E+04  0.14232811275E+04  0.10000000000E+02 0. -1.
</event>
<event>
 5    1  0.1129619E-008  0.3812821E+03  0.7957747E-01  0.3445595E+00
         13   -1    0    0    0    0  0.00000000000E+00  0.00000000000E+00  0.14999999963E+04  0.15000000000E+04  0.10566000000E+00 0.  1.
        994   -1    0    0    0    0 -0.00000000000E+00 -0.00000000000E+00  0.11368683772E-12  0.17120000000E+03  0.17120000000E+03 0.  0.
         13    1    1    2    0    0  0.28682590981E+02  0.24605985668E+01  0.17998536007E+02  0.33951495300E+02  0.10566000000E+00 0.  1.
        994    1    1    2    0    0 -0.32953865500E+01 -0.86032474910E+01  0.17342575829E+02  0.17232260553E+03  0.17120000000E+03 0.  0.
        998    1    1    2    0    0 -0.25387204431E+02  0.61426489243E+01  0.14646588844E+04  0.14649258992E+04  0.10000000000E+02 0.  1.
</event>
<event>
 5    1  0.1129619E-008  0.3790181E+03  0.7957747E-01  0.3455445E+00
         13   -1    0    0    0    0  0.00000000000E+00  0.00000000000E+00  0.14999999963E+04  0.15000000000E+04  0.10566000000E+00 0.  1.
        994   -1    0    0    0    0 -0.00000000000E+00 -0.00000000000E+00  0.11368683772E-12  0.17120000000E+03  0.17120000000E+03 0.  0.
         13    1    1    2    0    0 -0.18212816456E+02 -0.12108868687E+02  0.50283794692E+02  0.54834319152E+02  0.10566000000E+00 0.  1.
        994    1    1    2    0    0  0.62921350523E+01  0.12501467605E+02  0.52868381849E+01  0.17185246089E+03  0.17120000000E+03 0.  0.
        998    1    1    2    0    0  0.11920681404E+02 -0.39259891797E+00  0.14444293634E+04  0.14445132200E+04  0.10000000000E+02 0.  1.
</event>
<event>
 5    1  0.1129619E-008  0.3811071E+03  0.7957747E-01  0.3446352E+00
         13   -1    0    0    0    0  0.00000000000E+00  0.00000000000E+00  0.14999999963E+04  0.15000000000E+04  0.10566000000E+00 0. -1.
        994   -1    0    0    0    0 -0.00000000000E+00 -0.00000000000E+00  0.11368683772E-12  0.17120000000E+03  0.17120000000E+03 0.  0.
         13    1    1    2    0    0 -0.12684128660E+01  0.29418105649E+02  0.11565044030E+03  0.11934014126E+03  0.10566000000E+00 0. -1.
        994    1    1    2    0    0 -0.47903090067E+00 -0.24139659700E+02  0.55194133353E+01  0.17298224350E+03  0.17120000000E+03 0.  0.
        998    1    1    2    0    0  0.17474437666E+01 -0.52784459492E+01  0.13788301426E+04  0.13788776152E+04  0.10000000000E+02 0. -1.
</event>
<event>
 5    1  0.1129619E-008  0.3838083E+03  0.7957747E-01  0.3434742E+00
         13   -1    0    0    0    0  0.00000000000E+00  0.00000000000E+00  0.14999999963E+04  0.15000000000E+04  0.10566000000E+00 0.  1.
        994   -1    0    0    0    0 -0.00000000000E+00 -0.00000000000E+00  0.11368683772E-12  0.17120000000E+03  0.17120000000E+03 0.  0.
         13    1    1    2    0    0 -0.96904366753E+01  0.69712185821E+01  0.32631295120E+02  0.34746439195E+02  0.10566000000E+00 0.  1.
        994    1    1    2    0    0 -0.57998308427E+01 -0.58761674575E+01  0.24480272251E+01  0.17141645259E+03  0.17120000000E+03 0.  0.
        998    1    1    2    0    0  0.15490267518E+02 -0.10950511246E+01  0.14649206739E+04  0.14650371082E+04  0.10000000000E+02 0.  1.
</event>
<event>
 5    1  0.1129619E-008  0.3949770E+03  0.7957747E-01  0.3388430E+00
         13   -1    0    0    0    0  0.00000000000E+00  0.00000000000E+00  0.14999999963E+04  0.15000000000E+04  0.10566000000E+00 0. -1.
        994   -1    0    0    0    0 -0.00000000000E+00 -0.00000000000E+00  0.11368683772E-12  0.17120000000E+03  0.17120000000E+03 0.  0.
         13    1    1    2    0    0 -0.93043038592E+02 -0.30277190174E+02  0.16138113589E+03  0.18872625006E+03  0.10566000000E+00 0. -1.
        994    1    1    2    0    0  0.96435415284E+02  0.39276671595E+02  0.67740834566E+02  0.21151999177E+03  0.17120000000E+03 0.  0.
        998    1    1    2    0    0 -0.33923766923E+01 -0.89994814211E+01  0.12708780258E+04  0.12709537582E+04  0.10000000000E+02 0. -1.
</event>
<event>
 5    1  0.1129619E-008  0.3850700E+03  0.7957747E-01  0.3429376E+00
         13   -1    0    0    0    0  0.00000000000E+00  0.00000000000E+00  0.14999999963E+04  0.15000000000E+04  0.10566000000E+00 0.  1.
        994   -1    0    0    0    0 -0.00000000000E+00 -0.00000000000E+00  0.11368683772E-12  0.17120000000E+03  0.17120000000E+03 0.  0.
         13    1    1    2    0    0 -0.54756606771E+01 -0.94052339826E+01  0.41344792563E+02  0.42753296040E+02  0.10566000000E+00 0.  1.
        994    1    1    2    0    0 -0.11225442250E+02 -0.94350904044E+01  0.23027319511E+01  0.17184229415E+03  0.17120000000E+03 0.  0.
        998    1    1    2    0    0  0.16701102927E+02  0.18840324387E+02  0.14563524718E+04  0.14566044098E+04  0.10000000000E+02 0.  1.
</event>
<event>
 5    1  0.1129619E-008  0.3740116E+03  0.7957747E-01  0.3477655E+00
         13   -1    0    0    0    0  0.00000000000E+00  0.00000000000E+00  0.14999999963E+04  0.15000000000E+04  0.10566000000E+00 0.  1.
        994   -1    0    0    0    0 -0.00000000000E+00 -0.00000000000E+00  0.11368683772E-12  0.17120000000E+03  0.17120000000E+03 0.  0.
         13    1    1    2    0    0  0.73723343497E+02  0.42719678593E+02  0.36316955828E+03  0.37303115358E+03  0.10566000000E+00 0.  1.
        994    1    1    2    0    0 -0.75326327495E+02 -0.49503990148E+02  0.35424297453E+02  0.19669525034E+03  0.17120000000E+03 0.  0.
        998    1    1    2    0    0  0.16029839982E+01  0.67843115544E+01  0.11014061405E+04  0.11014735961E+04  0.10000000000E+02 0.  1.
</event>
<event>
 5    1  0.1129619E-008  0.3836005E+03  0.7957747E-01  0.3435629E+00
         13   -1    0    0    0    0  0.00000000000E+00  0.00000000000E+00  0.14999999963E+04  0.15000000000E+04  0.10566000000E+00 0.  1.
        994   -1    0    0    0    0 -0.00000000000E+00 -0.00000000000E+00  0.11368683772E-12  0.17120000000E+03  0.17120000000E+03 0.  0.
         13    1    1    2    0    0 -0.61945787942E+01 -0.84011875706E+01  0.22351539105E+02  0.24668912085E+02  0.10566000000E+00 0.  1.
        994    1    1    2    0    0  0.66959981396E+01  0.86688880077E+01  0.27230574623E+01  0.17157167905E+03  0.17120000000E+03 0.  0.
        998    1    1    2    0    0 -0.50141934542E+00 -0.26770043710E+00  0.14749253997E+04  0.14749594089E+04  0.10000000000E+02 0.  1.
</event>
<event>
 5    1  0.1129619E-008  0.2748380E+03  0.7957747E-01  0.4093826E+00
         13   -1    0    0    0    0  0.00000000000E+00  0.00000000000E+00  0.14999999963E+04  0.15000000000E+04  0.10566000000E+00 0.  1.
        994   -1    0    0    0    0 -0.00000000000E+00 -0.00000000000E+00  0.11368683772E-12  0.17120000000E+03  0.17120000000E+03 0.  0.
         13    1    1    2    0    0 -0.10620033450E+03 -0.78849486725E+02  0.66787381362E+03  0.68084594049E+03  0.10566000000E+00 0.  1.
        994    1    1    2    0    0  0.19621387947E+02  0.69425449341E+01  0.23713145850E+02  0.17408317288E+03  0.17120000000E+03 0.  0.
        998    1    1    2    0    0  0.86578946552E+02  0.71906941791E+02  0.80841303681E+03  0.81627088662E+03  0.10000000000E+02 0.  1.
</event>
<event>
 5    1  0.1129619E-008  0.3813522E+03  0.7957747E-01  0.3445292E+00
         13   -1    0    0    0    0  0.00000000000E+00  0.00000000000E+00  0.14999999963E+04  0.15000000000E+04  0.10566000000E+00 0. -1.
        994   -1    0    0    0    0 -0.00000000000E+00 -0.00000000000E+00  0.11368683772E-12  0.17120000000E+03  0.17120000000E+03 0.  0.
         13    1    1    2    0    0 -0.20672573320E+02  0.10827790288E+02  0.74074053986E+02  0.77663202150E+02  0.10566000000E+00 0. -1.
        994    1    1    2    0    0  0.13167408879E+02 -0.28528460963E+02  0.67446781353E+01  0.17419008130E+03  0.17120000000E+03 0.  0.
        998    1    1    2    0    0  0.75051644415E+01  0.17700670675E+02  0.14191812642E+04  0.14193467165E+04  0.10000000000E+02 0. -1.
</event>
<event>
 5    1  0.1129619E-008  0.3763927E+03  0.7957747E-01  0.3467018E+00
         13   -1    0    0    0    0  0.00000000000E+00  0.00000000000E+00  0.14999999963E+04  0.15000000000E+04  0.10566000000E+00 0. -1.
        994   -1    0    0    0    0 -0.00000000000E+00 -0.00000000000E+00  0.11368683772E-12  0.17120000000E+03  0.17120000000E+03 0.  0.
         13    1    1    2    0    0 -0.51759536220E+02 -0.36055215632E+02  0.29017591644E+03  0.29695302964E+03  0.10566000000E+00 0. -1.
        994    1    1    2    0    0  0.51496302720E+02  0.20022569237E+02  0.16364498213E+02  0.18063778474E+03  0.17120000000E+03 0.  0.
        998    1    1    2    0    0  0.26323349941E+00  0.16032646395E+02  0.11934595816E+04  0.11936091856E+04  0.10000000000E+02 0. -1.
</event>
<event>
 5    1  0.1129619E-008  0.3808780E+03  0.7957747E-01  0.3447344E+00
         13   -1    0    0    0    0  0.00000000000E+00  0.00000000000E+00  0.14999999963E+04  0.15000000000E+04  0.10566000000E+00 0. -1.
        994   -1    0    0    0    0 -0.00000000000E+00 -0.00000000000E+00  0.11368683772E-12  0.17120000000E+03  0.17120000000E+03 0.  0.
         13    1    1    2    0    0  0.40741978697E+01 -0.53008829981E+02  0.29106901917E+03  0.29588464006E+03  0.10566000000E+00 0. -1.
        994    1    1    2    0    0 -0.53222334296E+01  0.59414628277E+02  0.15644042615E+02  0.18196867942E+03  0.17120000000E+03 0.  0.
        998    1    1    2    0    0  0.12480355598E+01 -0.64057982958E+01  0.11932869345E+04  0.11933466805E+04  0.10000000000E+02 0. -1.
</event>
<event>
 5    1  0.1129619E-008  0.3855905E+03  0.7957747E-01  0.3427172E+00
         13   -1    0    0    0    0  0.00000000000E+00  0.00000000000E+00  0.14999999963E+04  0.15000000000E+04  0.10566000000E+00 0. -1.
        994   -1    0    0    0    0 -0.00000000000E+00 -0.00000000000E+00  0.11368683772E-12  0.17120000000E+03  0.17120000000E+03 0.  0.
         13    1    1    2    0    0 -0.12244035406E+02  0.25097659794E+01  0.61313447552E+02  0.62574478368E+02  0.10566000000E+00 0. -1.
        994    1    1    2    0    0  0.57266165442E+00 -0.80146403252E+01  0.15492080262E+01  0.17139545632E+03  0.17120000000E+03 0.  0.
        998    1    1    2    0    0  0.11671373751E+02  0.55048743458E+01  0.14371373407E+04  0.14372300653E+04  0.10000000000E+02 0. -1.
</event>
<event>
 5    1  0.1129619E-008  0.3810013E+03  0.7957747E-01  0.3446810E+00
         13   -1    0    0    0    0  0.00000000000E+00  0.00000000000E+00  0.14999999963E+04  0.15000000000E+04  0.10566000000E+00 0. -1.
        994   -1    0    0    0    0 -0.00000000000E+00 -0.00000000000E+00  0.11368683772E-12  0.17120000000E+03  0.17120000000E+03 0.  0.
         13    1    1    2    0    0  0.19347271349E+02 -0.17106210109E+02  0.88149721263E+02  0.91854906541E+02  0.10566000000E+00 0. -1.
        994    1    1    2    0    0 -0.21977092443E+02  0.76349322004E+01  0.54341414207E+01  0.17285906015E+03  0.17120000000E+03 0.  0.
        998    1    1    2    0    0  0.26298210943E+01  0.94712779082E+01  0.14064161336E+04  0.14064860333E+04  0.10000000000E+02 0. -1.
</event>
<event>
 5    1  0.1129619E-008  0.3855559E+03  0.7957747E-01  0.3427318E+00
         13   -1    0    0    0    0  0.00000000000E+00  0.00000000000E+00  0.14999999963E+04  0.15000000000E+04  0.10566000000E+00 0. -1.
        994   -1    0    0    0    0 -0.00000000000E+00 -0.00000000000E+00  0.11368683772E-12  0.17120000000E+03  0.17120000000E+03 0.  0.
         13    1    1    2    0    0  0.10272347111E+02  0.11666341458E+02  0.92886952680E+02  0.94178669455E+02  0.10566000000E+00 0. -1.
        994    1    1    2    0    0  0.53644903926E+01 -0.12917547097E+02  0.19968936424E+01  0.17178203737E+03  0.17120000000E+03 0.  0.
        998    1    1    2    0    0 -0.15636837503E+02  0.12512056394E+01  0.14051161500E+04  0.14052392932E+04  0.10000000000E+02 0. -1.
</event>
<event>
 5    1  0.1129619E-008  0.3823369E+03  0.7957747E-01  0.3441046E+00
         13   -1    0    0    0    0  0.00000000000E+00  0.00000000000E+00  0.14999999963E+04  0.15000000000E+04  0.10566000000E+00 0.  1.
        994   -1    0    0    0    0 -0.00000000000E+00 -0.00000000000E+00  0.11368683772E-12  0.17120000000E+03  0.17120000000E+03 0.  0.
         13    1    1    2    0    0  0.99963158551E+01 -0.10458647956E+02  0.33475977933E+02  0.36468642837E+02  0.10566000000E+00 0.  1.
        994    1    1    2    0    0 -0.12979952353E+02  0.10860627378E+02  0.39088552910E+01  0.17207891079E+03  0.17120000000E+03 0.  0.
        998    1    1    2    0    0  0.29836364983E+01 -0.40197942164E+00  0.14626151631E+04  0.14626524464E+04  0.10000000000E+02 0.  1.
</event>
<event>
 5    1  0.1129619E-008  0.3820663E+03  0.7957747E-01  0.3442210E+00
         13   -1    0    0    0    0  0.00000000000E+00  0.00000000000E+00  0.14999999963E+04  0.15000000000E+04  0.10566000000E+00 0. -1.
        994   -1    0    0    0    0 -0.00000000000E+00 -0.00000000000E+00  0.11368683772E-12  0.17120000000E+03  0.17120000000E+03 0.  0.
         13    1    1    2    0    0  0.10757871129E+02  0.24362973008E+02  0.10564853853E+03  0.10895371082E+03  0.10566000000E+00 0. -1.
        994    1    1    2    0    0 -0.13679505564E+02 -0.25117008832E+02  0.58143721879E+01  0.17366991659E+03  0.17120000000E+03 0.  0.
        998    1    1    2    0    0  0.29216344347E+01  0.75403582386E+00  0.13885370856E+04  0.13885763726E+04  0.10000000000E+02 0. -1.
</event>
<event>
 5    1  0.1129619E-008  0.3860062E+03  0.7957747E-01  0.3425416E+00
         13   -1    0    0    0    0  0.00000000000E+00  0.00000000000E+00  0.14999999963E+04  0.15000000000E+04  0.10566000000E+00 0. -1.
        994   -1    0    0    0    0 -0.00000000000E+00 -0.00000000000E+00  0.11368683772E-12  0.17120000000E+03  0.17120000000E+03 0.  0.
         13    1    1    2    0    0 -0.10320101602E+02 -0.19725268323E+01  0.52407838058E+02  0.53450799930E+02  0.10566000000E+00 0. -1.
        994    1    1    2    0    0 -0.34548401872E+01  0.10125981258E+02  0.15067349110E+01  0.17154061230E+03  0.17120000000E+03 0.  0.
        998    1    1    2    0    0  0.13774941789E+02 -0.81534544254E+01  0.14460854233E+04  0.14462085878E+04  0.10000000000E+02 0. -1.
</event>
<event>
 5    1  0.1129619E-008  0.3685122E+03  0.7957747E-01  0.3502756E+00
         13   -1    0    0    0    0  0.00000000000E+00  0.00000000000E+00  0.14999999963E+04  0.15000000000E+04  0.10566000000E+00 0.  1.
        994   -1    0    0    0    0 -0.00000000000E+00 -0.00000000000E+00  0.11368683772E-12  0.17120000000E+03  0.17120000000E+03 0.  0.
         13    1    1    2    0    0  0.87514285052E+02  0.14987612361E+02  0.32106895755E+03  0.33311959606E+03  0.10566000000E+00 0.  1.
        994    1    1    2    0    0 -0.76407958654E+02 -0.24980310704E+02  0.32979322323E+02  0.19198767609E+03  0.17120000000E+03 0.  0.
        998    1    1    2    0    0 -0.11106326398E+02  0.99926983435E+01  0.11459517164E+04  0.11460927279E+04  0.10000000000E+02 0.  1.
</event>
<event>
 5    1  0.1129619E-008  0.3781738E+03  0.7957747E-01  0.3459149E+00
         13   -1    0    0    0    0  0.00000000000E+00  0.00000000000E+00  0.14999999963E+04  0.15000000000E+04  0.10566000000E+00 0.  1.
        994   -1    0    0    0    0 -0.00000000000E+00 -0.00000000000E+00  0.11368683772E-12  0.17120000000E+03  0.17120000000E+03 0.  0.
         13    1    1    2    0    0  0.60115826837E+01  0.13614192940E+02  0.19993504338E+02  0.24924621472E+02  0.10566000000E+00 0.  1.
        994    1    1    2    0    0  0.46138099761E+01 -0.81545804539E+01  0.53531382976E+01  0.17153973451E+03  0.17120000000E+03 0.  0.
        998    1    1    2    0    0 -0.10625392660E+02 -0.54596124860E+01  0.14746533536E+04  0.14747356440E+04  0.10000000000E+02 0.  1.
</event>
<event>
 5    1  0.1129619E-008  0.3731680E+03  0.7957747E-01  0.3481457E+00
         13   -1    0    0    0    0  0.00000000000E+00  0.00000000000E+00  0.14999999963E+04  0.15000000000E+04  0.10566000000E+00 0.  1.
        994   -1    0    0    0    0 -0.00000000000E+00 -0.00000000000E+00  0.11368683772E-12  0.17120000000E+03  0.17120000000E+03 0.  0.
         13    1    1    2    0    0  0.70291174132E+02 -0.81513278703E+02  0.47783179073E+03  0.48980454792E+03  0.10566000000E+00 0.  1.
        994    1    1    2    0    0 -0.90149007660E+02  0.72124814581E+02  0.54681690487E+02  0.21360795803E+03  0.17120000000E+03 0.  0.
        998    1    1    2    0    0  0.19857833528E+02  0.93884641224E+01  0.96748651506E+03  0.96778749404E+03  0.10000000000E+02 0.  1.
</event>
<event>
 5    1  0.1129619E-008  0.3804344E+03  0.7957747E-01  0.3449269E+00
         13   -1    0    0    0    0  0.00000000000E+00  0.00000000000E+00  0.14999999963E+04  0.15000000000E+04  0.10566000000E+00 0. -1.
        994   -1    0    0    0    0 -0.00000000000E+00 -0.00000000000E+00  0.11368683772E-12  0.17120000000E+03  0.17120000000E+03 0.  0.
         13    1    1    2    0    0 -0.25301656284E+02  0.75646834493E+01  0.79659823580E+02  0.83923160709E+02  0.10566000000E+00 0. -1.
        994    1    1    2    0    0  0.34192174560E+02 -0.14776976641E+02  0.85594381721E+01  0.17541427485E+03  0.17120000000E+03 0.  0.
        998    1    1    2    0    0 -0.88905182752E+01  0.72122931919E+01  0.14117807345E+04  0.14118625644E+04  0.10000000000E+02 0. -1.
</event>
<event>
 5    1  0.1129619E-008  0.3834755E+03  0.7957747E-01  0.3436164E+00
         13   -1    0    0    0    0  0.00000000000E+00  0.00000000000E+00  0.14999999963E+04  0.15000000000E+04  0.10566000000E+00 0. -1.
        994   -1    0    0    0    0 -0.00000000000E+00 -0.00000000000E+00  0.11368683772E-12  0.17120000000E+03  0.17120000000E+03 0.  0.
         13    1    1    2    0    0 -0.34251461848E+02 -0.11485522489E+03  0.33702928390E+03  0.35770607304E+03  0.10566000000E+00 0. -1.
        994    1    1    2    0    0  0.20781863070E+02  0.95586357031E+02  0.54281699111E+02  0.20451058736E+03  0.17120000000E+03 0.  0.
        998    1    1    2    0    0  0.13469598778E+02  0.19268867862E+02  0.11086890133E+04  0.11089833396E+04  0.10000000000E+02 0. -1.
</event>
<event>
 5    1  0.1129619E-008  0.3853967E+03  0.7957747E-01  0.3427991E+00
         13   -1    0    0    0    0  0.00000000000E+00  0.00000000000E+00  0.14999999963E+04  0.15000000000E+04  0.10566000000E+00 0. -1.
        994   -1    0    0    0    0 -0.00000000000E+00 -0.00000000000E+00  0.11368683772E-12  0.17120000000E+03  0.17120000000E+03 0.  0.
         13    1    1    2    0    0  0.13880389586E+02 -0.27913130021E+01  0.67527070477E+02  0.68995456768E+02  0.10566000000E+00 0. -1.
        994    1    1    2    0    0 -0.14057953379E+02  0.65678121711E+01  0.22244522434E+01  0.17191611442E+03  0.17120000000E+03 0.  0.
        998    1    1    2    0    0  0.17756379208E+00 -0.37764991690E+01  0.14302484736E+04  0.14302884288E+04  0.10000000000E+02 0. -1.
</event>
<event>
 5    1  0.1129619E-008  0.3713670E+03  0.7957747E-01  0.3489632E+00
         13   -1    0    0    0    0  0.00000000000E+00  0.00000000000E+00  0.14999999963E+04  0.15000000000E+04  0.10566000000E+00 0. -1.
        994   -1    0    0    0    0 -0.00000000000E+00 -0.00000000000E+00  0.11368683772E-12  0.17120000000E+03  0.17120000000E+03 0.  0.
         13    1    1    2    0    0  0.48353679816E+02  0.60838640164E+02  0.44996400226E+03  0.45662570338E+03  0.10566000000E+00 0. -1.
        994    1    1    2    0    0  0.20618829968E+02  0.10675853904E+02  0.13559504183E+02  0.17329861557E+03  0.17120000000E+03 0.  0.
        998    1    1    2    0    0 -0.68972509784E+02 -0.71514494068E+02  0.10364764898E+04  0.10412756810E+04  0.10000000000E+02 0. -1.
</event>
<event>
 5    1  0.1129619E-008  0.3823354E+03  0.7957747E-01  0.3441052E+00
         13   -1    0    0    0    0  0.00000000000E+00  0.00000000000E+00  0.14999999963E+04  0.15000000000E+04  0.10566000000E+00 0.  1.
        994   -1    0    0    0    0 -0.00000000000E+00 -0.00000000000E+00  0.11368683772E-12  0.17120000000E+03  0.17120000000E+03 0.  0.
         13    1    1    2    0    0 -0.40252752803E+01  0.23273766215E+02  0.87655042473E+02  0.90781543663E+02  0.10566000000E+00 0.  1.
        994    1    1    2    0    0 -0.27699934615E+01 -0.26957410709E+02  0.53988434726E+01  0.17341557706E+03  0.17120000000E+03 0.  0.
        998    1    1    2    0    0  0.67952687418E+01  0.36836444945E+01  0.14069461103E+04  0.14070028793E+04  0.10000000000E+02 0.  1.
</event>
<event>
 5    1  0.1129619E-008  0.3716196E+03  0.7957747E-01  0.3488481E+00
         13   -1    0    0    0    0  0.00000000000E+00  0.00000000000E+00  0.14999999963E+04  0.15000000000E+04  0.10566000000E+00 0. -1.
        994   -1    0    0    0    0 -0.00000000000E+00 -0.00000000000E+00  0.11368683772E-12  0.17120000000E+03  0.17120000000E+03 0.  0.
         13    1    1    2    0    0 -0.45917277439E+02  0.70334266192E+02  0.37619935432E+03  0.38546241156E+03  0.10566000000E+00 0. -1.
        994    1    1    2    0    0  0.21492852230E+02 -0.59343215056E+02  0.22249189157E+02  0.18381519602E+03  0.17120000000E+03 0.  0.
        998    1    1    2    0    0  0.24424425209E+02 -0.10991051137E+02  0.11015514528E+04  0.11019223924E+04  0.10000000000E+02 0. -1.
</event>
<event>
 5    1  0.1129619E-008  0.3870052E+03  0.7957747E-01  0.3421212E+00
         13   -1    0    0    0    0  0.00000000000E+00  0.00000000000E+00  0.14999999963E+04  0.15000000000E+04  0.10566000000E+00 0.  1.
        994   -1    0    0    0    0 -0.00000000000E+00 -0.00000000000E+00  0.11368683772E-12  0.17120000000E+03  0.17120000000E+03 0.  0.
         13    1    1    2    0    0  0.11718007604E+03 -0.64009735689E+02  0.43248770081E+03  0.45263013488E+03  0.10566000000E+00 0.  1.
        994    1    1    2    0    0 -0.77462290923E+02  0.26696433967E+02  0.45652830250E+02  0.19520944396E+03  0.17120000000E+03 0.  0.
        998    1    1    2    0    0 -0.39717785121E+02  0.37313301722E+02  0.10218594652E+04  0.10233604212E+04  0.10000000000E+02 0.  1.
</event>
<event>
 5    1  0.1129619E-008  0.3710027E+03  0.7957747E-01  0.3491296E+00
         13   -1    0    0    0    0  0.00000000000E+00  0.00000000000E+00  0.14999999963E+04  0.15000000000E+04  0.10566000000E+00 0. -1.
        994   -1    0    0    0    0 -0.00000000000E+00 -0.00000000000E+00  0.11368683772E-12  0.17120000000E+03  0.17120000000E+03 0.  0.
         13    1    1    2    0    0  0.24656418066E+02 -0.99843465270E+01  0.36109570389E+02  0.44850176869E+02  0.10566000000E+00 0. -1.
        994    1    1    2    0    0 -0.25525376486E+02  0.81369221412E+01  0.11223086088E+02  0.17364662971E+03  0.17120000000E+03 0.  0.
        998    1    1    2    0    0  0.86895842036E+00  0.18474243858E+01  0.14526673398E+04  0.14527031934E+04  0.10000000000E+02 0. -1.
</event>
<event>
 5    1  0.1129619E-008  0.3750490E+03  0.7957747E-01  0.3473004E+00
         13   -1    0    0    0    0  0.00000000000E+00  0.00000000000E+00  0.14999999963E+04  0.15000000000E+04  0.10566000000E+00 0.  1.
        994   -1    0    0    0    0 -0.00000000000E+00 -0.00000000000E+00  0.11368683772E-12  0.17120000000E+03  0.17120000000E+03 0.  0.
         13    1    1    2    0    0 -0.10180827133E+02  0.28948119032E+02  0.79010018984E+02  0.84759879074E+02  0.10566000000E+00 0.  1.
        994    1    1    2    0    0 -0.23135802220E+02  0.11491613468E+02  0.89248812450E+01  0.17336786331E+03  0.17120000000E+03 0.  0.
        998    1    1    2    0    0  0.33316629353E+02 -0.40439732500E+02  0.14120650960E+04  0.14130722576E+04  0.10000000000E+02 0.  1.
</event>
<event>
 5    1  0.1129619E-008  0.3811740E+03  0.7957747E-01  0.3446063E+00
         13   -1    0    0    0    0  0.00000000000E+00  0.00000000000E+00  0.14999999963E+04  0.15000000000E+04  0.10566000000E+00 0. -1.
        994   -1    0    0    0    0 -0.00000000000E+00 -0.00000000000E+00  0.11368683772E-12  0.17120000000E+03  0.17120000000E+03 0.  0.
         13    1    1    2    0    0  0.18849655863E+02 -0.11638238146E+02  0.67478336442E+02  0.71021793601E+02  0.10566000000E+00 0. -1.
        994    1    1    2    0    0 -0.11930031415E+02  0.11053829855E+02  0.44230076129E+01  0.17202765999E+03  0.17120000000E+03 0.  0.
        998    1    1    2    0    0 -0.69196244479E+01  0.58440829111E+00  0.14280986522E+04  0.14281505464E+04  0.10000000000E+02 0. -1.
</event>
<event>
 5    1  0.1129619E-008  0.3688038E+03  0.7957747E-01  0.3501407E+00
         13   -1    0    0    0    0  0.00000000000E+00  0.00000000000E+00  0.14999999963E+04  0.15000000000E+04  0.10566000000E+00 0. -1.
        994   -1    0    0    0    0 -0.00000000000E+00 -0.00000000000E+00  0.11368683772E-12  0.17120000000E+03  0.17120000000E+03 0.  0.
         13    1    1    2    0    0 -0.45507737228E+02 -0.70133592992E+02  0.36266299405E+03  0.37217486943E+03  0.10566000000E+00 0. -1.
        994    1    1    2    0    0  0.59895328340E+01  0.41337543411E+02  0.16406223650E+02  0.17698381613E+03  0.17120000000E+03 0.  0.
        998    1    1    2    0    0  0.39518204394E+02  0.28796049581E+02  0.11209307786E+04  0.11220413144E+04  0.10000000000E+02 0. -1.
</event>
<event>
 5    1  0.1129619E-008  0.3842101E+03  0.7957747E-01  0.3433029E+00
         13   -1    0    0    0    0  0.00000000000E+00  0.00000000000E+00  0.14999999963E+04  0.15000000000E+04  0.10566000000E+00 0. -1.
        994   -1    0    0    0    0 -0.00000000000E+00 -0.00000000000E+00  0.11368683772E-12  0.17120000000E+03  0.17120000000E+03 0.  0.
         13    1    1    2    0    0  0.11503010253E+02 -0.56847246222E+01  0.40281944595E+02  0.42276252948E+02  0.10566000000E+00 0. -1.
        994    1    1    2    0    0 -0.57823068223E+01  0.74468300860E+01  0.23159580459E+01  0.17147505361E+03  0.17120000000E+03 0.  0.
        998    1    1    2    0    0 -0.57207034302E+01 -0.17621054639E+01  0.14574020936E+04  0.14574486934E+04  0.10000000000E+02 0. -1.
</event>
<event>
 5    1  0.1129619E-008  0.3857061E+03  0.7957747E-01  0.3426683E+00
         13   -1    0    0    0    0  0.00000000000E+00  0.00000000000E+00  0.14999999963E+04  0.15000000000E+04  0.10566000000E+00 0.  1.
        994   -1    0    0    0    0 -0.00000000000E+00 -0.00000000000E+00  0.11368683772E-12  0.17120000000E+03  0.17120000000E+03 0.  0.
         13    1    1    2    0    0 -0.24666383942E+01  0.15461632530E+02  0.89905488218E+02  0.91258722110E+02  0.10566000000E+00 0.  1.
        994    1    1    2    0    0  0.22073749571E+01 -0.18511355984E+02  0.24211237670E+01  0.17222904704E+03  0.17120000000E+03 0.  0.
        998    1    1    2    0    0  0.25926343710E+00  0.30497234548E+01  0.14076733843E+04  0.14077122308E+04  0.10000000000E+02 0.  1.
</event>
<event>
 5    1  0.1129619E-008  0.3773582E+03  0.7957747E-01  0.3462743E+00
         13   -1    0    0    0    0  0.00000000000E+00  0.00000000000E+00  0.14999999963E+04  0.15000000000E+04  0.10566000000E+00 0. -1.
        994   -1    0    0    0    0 -0.00000000000E+00 -0.00000000000E+00  0.11368683772E-12  0.17120000000E+03  0.17120000000E+03 0.  0.
         13    1    1    2    0    0  0.30631133295E+02 -0.45877743760E+02  0.32187237889E+03  0.32656526630E+03  0.10566000000E+00 0. -1.
        994    1    1    2    0    0 -0.10643516591E+01  0.16413920495E+02  0.63856057890E+01  0.17210684354E+03  0.17120000000E+03 0.  0.
        998    1    1    2    0    0 -0.29566781636E+02  0.29463823265E+02  0.11717420116E+04  0.11725278902E+04  0.10000000000E+02 0. -1.
</event>
<event>
 5    1  0.1129619E-008  0.4110241E+03  0.7957747E-01  0.3326282E+00
         13   -1    0    0    0    0  0.00000000000E+00  0.00000000000E+00  0.14999999963E+04  0.15000000000E+04  0.10566000000E+00 0.  1.
        994   -1    0    0    0    0 -0.00000000000E+00 -0.00000000000E+00  0.11368683772E-12  0.17120000000E+03  0.17120000000E+03 0.  0.
         13    1    1    2    0    0  0.27753446286E+02 -0.11253045181E+03  0.16904525877E+03  0.20496259913E+03  0.10566000000E+00 0.  1.
        994    1    1    2    0    0 -0.19316016363E+02  0.10445205602E+03  0.82540609100E+02  0.21772857563E+03  0.17120000000E+03 0.  0.
        998    1    1    2    0    0 -0.84374299231E+01  0.80783957916E+01  0.12484141284E+04  0.12485088252E+04  0.10000000000E+02 0.  1.
</event>
<event>
 5    1  0.1129619E-008  0.3848888E+03  0.7957747E-01  0.3430144E+00
         13   -1    0    0    0    0  0.00000000000E+00  0.00000000000E+00  0.14999999963E+04  0.15000000000E+04  0.10566000000E+00 0. -1.
        994   -1    0    0    0    0 -0.00000000000E+00 -0.00000000000E+00  0.11368683772E-12  0.17120000000E+03  0.17120000000E+03 0.  0.
         13    1    1    2    0    0  0.19310235470E+02  0.40359885333E+01  0.10062456959E+03  0.10254018513E+03  0.10566000000E+00 0. -1.
        994    1    1    2    0    0 -0.25224378872E+02 -0.36222863175E+02  0.81215938869E+01  0.17698521236E+03  0.17120000000E+03 0.  0.
        998    1    1    2    0    0  0.59141434023E+01  0.32186874642E+02  0.13912538328E+04  0.13916746025E+04  0.10000000000E+02 0. -1.
</event>
<event>
 5    1  0.1129619E-008  0.3832272E+03  0.7957747E-01  0.3437226E+00
         13   -1    0    0    0    0  0.00000000000E+00  0.00000000000E+00  0.14999999963E+04  0.15000000000E+04  0.10566000000E+00 0. -1.
        994   -1    0    0    0    0 -0.00000000000E+00 -0.00000000000E+00  0.11368683772E-12  0.17120000000E+03  0.17120000000E+03 0.  0.
         13    1    1    2    0    0  0.14497421254E+02  0.48152875544E+01  0.47214880889E+02  0.49624775653E+02  0.10566000000E+00 0. -1.
        994    1    1    2    0    0 -0.39183028598E+00 -0.80893383267E+01  0.27298657440E+01  0.17141319404E+03  0.17120000000E+03 0.  0.
        998    1    1    2    0    0 -0.14105590968E+02  0.32740507723E+01  0.14500552496E+04  0.14501620303E+04  0.10000000000E+02 0. -1.
</event>
<event>
 5    1  0.1129619E-008  0.3849030E+03  0.7957747E-01  0.3430084E+00
         13   -1    0    0    0    0  0.00000000000E+00  0.00000000000E+00  0.14999999963E+04  0.15000000000E+04  0.10566000000E+00 0. -1.
        994   -1    0    0    0    0 -0.00000000000E+00 -0.00000000000E+00  0.11368683772E-12  0.17120000000E+03  0.17120000000E+03 0.  0.
         13    1    1    2    0    0 -0.31356154611E+01 -0.11373292917E+02  0.41523642488E+02  0.43167208917E+02  0.10566000000E+00 0. -1.
        994    1    1    2    0    0 -0.22614401895E+01  0.77967194915E+01  0.18951212794E+01  0.17140284254E+03  0.17120000000E+03 0.  0.
        998    1    1    2    0    0  0.53970556506E+01  0.35765734258E+01  0.14565812325E+04  0.14566299485E+04  0.10000000000E+02 0. -1.
</event>
<event>
 5    1  0.1129619E-008  0.3815177E+03  0.7957747E-01  0.3444576E+00
         13   -1    0    0    0    0  0.00000000000E+00  0.00000000000E+00  0.14999999963E+04  0.15000000000E+04  0.10566000000E+00 0. -1.
        994   -1    0    0    0    0 -0.00000000000E+00 -0.00000000000E+00  0.11368683772E-12  0.17120000000E+03  0.17120000000E+03 0.  0.
         13    1    1    2    0    0  0.22903052697E+02 -0.18945333379E+01  0.84300104237E+02  0.87376528988E+02  0.10566000000E+00 0. -1.
        994    1    1    2    0    0  0.91558519780E+00 -0.14402275872E+02  0.40620012615E+01  0.17185518235E+03  0.17120000000E+03 0.  0.
        998    1    1    2    0    0 -0.23818637895E+02  0.16296809209E+02  0.14116378908E+04  0.14119682887E+04  0.10000000000E+02 0. -1.
</event>
<event>
 5    1  0.1129619E-008  0.3699806E+03  0.7957747E-01  0.3495980E+00
         13   -1    0    0    0    0  0.00000000000E+00  0.00000000000E+00  0.14999999963E+04  0.15000000000E+04  0.10566000000E+00 0. -1.
        994   -1    0    0    0    0 -0.00000000000E+00 -0.00000000000E+00  0.11368683772E-12  0.17120000000E+03  0.17120000000E+03 0.  0.
         13    1    1    2    0    0 -0.19950040758E+02 -0.27790761900E+02  0.46957143967E+02  0.58097462137E+02  0.10566000000E+00 0. -1.
        994    1    1    2    0    0  0.29743738605E+02  0.29420681264E+02  0.17072046586E+02  0.17706259133E+03  0.17120000000E+03 0.  0.
        998    1    1    2    0    0 -0.97936978472E+01 -0.16299193647E+01  0.14359708057E+04  0.14360399465E+04  0.10000000000E+02 0. -1.
</event>
<event>
 5    1  0.1129619E-008  0.3805953E+03  0.7957747E-01  0.3448571E+00
         13   -1    0    0    0    0  0.00000000000E+00  0.00000000000E+00  0.14999999963E+04  0.15000000000E+04  0.10566000000E+00 0. -1.
        994   -1    0    0    0    0 -0.00000000000E+00 -0.00000000000E+00  0.11368683772E-12  0.17120000000E+03  0.17120000000E+03 0.  0.
         13    1    1    2    0    0 -0.36841339643E+02  0.32081716344E+02  0.27566981440E+03  0.27996495953E+03  0.10566000000E+00 0. -1.
        994    1    1    2    0    0  0.37429038877E+01 -0.64273639637E+02  0.17788497013E+02  0.18376882409E+03  0.17120000000E+03 0.  0.
        998    1    1    2    0    0  0.33098435756E+02  0.32191923293E+02  0.12065416849E+04  0.12074662164E+04  0.10000000000E+02 0. -1.
</event>
<event>
 5    1  0.1129619E-008  0.3821294E+03  0.7957747E-01  0.3441939E+00
         13   -1    0    0    0    0  0.00000000000E+00  0.00000000000E+00  0.14999999963E+04  0.15000000000E+04  0.10566000000E+00 0.  1.
        994   -1    0    0    0    0 -0.00000000000E+00 -0.00000000000E+00  0.11368683772E-12  0.17120000000E+03  0.17120000000E+03 0.  0.
         13    1    1    2    0    0  0.37142426778E-01 -0.16138348798E+02  0.40929649856E+02  0.43996534896E+02  0.10566000000E+00 0.  1.
        994    1    1    2    0    0  0.19219897422E+01  0.14133633509E+02  0.37377649050E+01  0.17183382824E+03  0.17120000000E+03 0.  0.
        998    1    1    2    0    0 -0.19591321690E+01  0.20047152883E+01  0.14553325815E+04  0.14553696369E+04  0.10000000000E+02 0.  1.
</event>
<event>
 5    1  0.1129619E-008  0.3716437E+03  0.7957747E-01  0.3488371E+00
         13   -1    0    0    0    0  0.00000000000E+00  0.00000000000E+00  0.14999999963E+04  0.15000000000E+04  0.10566000000E+00 0. -1.
        994   -1    0    0    0    0 -0.00000000000E+00 -0.00000000000E+00  0.11368683772E-12  0.17120000000E+03  0.17120000000E+03 0.  0.
         13    1    1    2    0    0  0.25007037498E+02 -0.45886261945E+02  0.10333168337E+03  0.11579442522E+03  0.10566000000E+00 0. -1.
        994    1    1    2    0    0 -0.35807943815E+02  0.43135515682E+02  0.22944993291E+02  0.18160064502E+03  0.17120000000E+03 0.  0.
        998    1    1    2    0    0  0.10800906317E+02  0.27507462629E+01  0.13737233196E+04  0.13738049298E+04  0.10000000000E+02 0. -1.
</event>
<event>
 5    1  0.1129619E-008  0.2683674E+03  0.7957747E-01  0.4151406E+00
         13   -1    0    0    0    0  0.00000000000E+00  0.00000000000E+00  0.14999999963E+04  0.15000000000E+04  0.10566000000E+00 0.  1.
        994   -1    0    0    0    0 -0.00000000000E+00 -0.00000000000E+00  0.11368683772E-12  0.17120000000E+03  0.17120000000E+03 0.  0.
         13    1    1    2    0    0 -0.77159932061E+02 -0.13910067168E+03  0.55137923746E+03  0.57386559981E+03  0.10566000000E+00 0.  1.
        994    1    1    2    0    0  0.49604102868E+02  0.69347091829E+02  0.52918979356E+02  0.19844254721E+03  0.17120000000E+03 0.  0.
        998    1    1    2    0    0  0.27555829193E+02  0.69753579856E+02  0.89570177946E+03  0.89889185298E+03  0.10000000000E+02 0. -1.
</event>
<event>
 5    1  0.1129619E-008  0.3840641E+03  0.7957747E-01  0.3433651E+00
         13   -1    0    0    0    0  0.00000000000E+00  0.00000000000E+00  0.14999999963E+04  0.15000000000E+04  0.10566000000E+00 0. -1.
        994   -1    0    0    0    0 -0.00000000000E+00 -0.00000000000E+00  0.11368683772E-12  0.17120000000E+03  0.17120000000E+03 0.  0.
         13    1    1    2    0    0 -0.12504261292E+02 -0.71613493473E+01  0.49651360111E+02  0.51700195355E+02  0.10566000000E+00 0. -1.
        994    1    1    2    0    0  0.84714113301E+01 -0.51894050193E-01  0.23322820906E+01  0.17142533956E+03  0.17120000000E+03 0.  0.
        998    1    1    2    0    0  0.40328499615E+01  0.72132433975E+01  0.14480163541E+04  0.14480744651E+04  0.10000000000E+02 0. -1.
</event>
<event>
 5    1  0.1129619E-008  0.3766921E+03  0.7957747E-01  0.3465690E+00
         13   -1    0    0    0    0  0.00000000000E+00  0.00000000000E+00  0.14999999963E+04  0.15000000000E+04  0.10566000000E+00 0. -1.
        994   -1    0    0    0    0 -0.00000000000E+00 -0.00000000000E+00  0.11368683772E-12  0.17120000000E+03  0.17120000000E+03 0.  0.
         13    1    1    2    0    0  0.16971419008E+02  0.41822706425E+02  0.23410037140E+03  0.23841175074E+03  0.10566000000E+00 0. -1.
        994    1    1    2    0    0  0.10749626402E+02  0.11942923424E+02  0.66854850323E+01  0.17208231634E+03  0.17120000000E+03 0.  0.
        998    1    1    2    0    0 -0.27721045410E+02 -0.53765629849E+02  0.12592141398E+04  0.12607059329E+04  0.10000000000E+02 0. -1.
</event>
<event>
 5    1  0.1129619E-008  0.3806142E+03  0.7957747E-01  0.3448488E+00
         13   -1    0    0    0    0  0.00000000000E+00  0.00000000000E+00  0.14999999963E+04  0.15000000000E+04  0.10566000000E+00 0.  1.
        994   -1    0    0    0    0 -0.00000000000E+00 -0.00000000000E+00  0.11368683772E-12  0.17120000000E+03  0.17120000000E+03 0.  0.
         13    1    1    2    0    0  0.23032155529E+02  0.22030567014E+02  0.15858681205E+03  0.16175788757E+03  0.10566000000E+00 0.  1.
        994    1    1    2    0    0  0.68953382722E+01  0.43561984793E+01  0.40453832970E+01  0.17144190643E+03  0.17120000000E+03 0.  0.
        998    1    1    2    0    0 -0.29927493801E+02 -0.26386765493E+02  0.13373678009E+04  0.13380002060E+04  0.10000000000E+02 0.  1.
</event>
<event>
 5    1  0.1129619E-008  0.3742821E+03  0.7957747E-01  0.3476440E+00
         13   -1    0    0    0    0  0.00000000000E+00  0.00000000000E+00  0.14999999963E+04  0.15000000000E+04  0.10566000000E+00 0. -1.
        994   -1    0    0    0    0 -0.00000000000E+00 -0.00000000000E+00  0.11368683772E-12  0.17120000000E+03  0.17120000000E+03 0.  0.
         13    1    1    2    0    0  0.27834805206E+02  0.49335366531E+01  0.54470435535E+02  0.61369012345E+02  0.10566000000E+00 0. -1.
        994    1    1    2    0    0 -0.16576937441E+02  0.37675704554E+01  0.80331539489E+01  0.17222938485E+03  0.17120000000E+03 0.  0.
        998    1    1    2    0    0 -0.11257867765E+02 -0.87011071085E+01  0.14374964068E+04  0.14376016028E+04  0.10000000000E+02 0. -1.
</event>
<event>
 5    1  0.1129619E-008  0.3753416E+03  0.7957747E-01  0.3471696E+00
         13   -1    0    0    0    0  0.00000000000E+00  0.00000000000E+00  0.14999999963E+04  0.15000000000E+04  0.10566000000E+00 0. -1.
        994   -1    0    0    0    0 -0.00000000000E+00 -0.00000000000E+00  0.11368683772E-12  0.17120000000E+03  0.17120000000E+03 0.  0.
         13    1    1    2    0    0  0.23415694731E+02  0.11287726267E+02  0.52416043263E+02  0.58507779648E+02  0.10566000000E+00 0. -1.
        994    1    1    2    0    0  0.48392607498E+01 -0.76007638385E+01  0.67791021362E+01  0.17157093659E+03  0.17120000000E+03 0.  0.
        998    1    1    2    0    0 -0.28254955481E+02 -0.36869624282E+01  0.14408048509E+04  0.14411212838E+04  0.10000000000E+02 0. -1.
</event>
<event>
 5    1  0.1129619E-008  0.3860046E+03  0.7957747E-01  0.3425423E+00
         13   -1    0    0    0    0  0.00000000000E+00  0.00000000000E+00  0.14999999963E+04  0.15000000000E+04  0.10566000000E+00 0.  1.
        994   -1    0    0    0    0 -0.00000000000E+00 -0.00000000000E+00  0.11368683772E-12  0.17120000000E+03  0.17120000000E+03 0.  0.
         13    1    1    2    0    0  0.11236390419E+02  0.51241137008E+01  0.65915345085E+02  0.67062335872E+02  0.10566000000E+00 0.  1.
        994    1    1    2    0    0 -0.13410712730E+02 -0.10868310612E+01  0.17257961830E+01  0.17173656218E+03  0.17120000000E+03 0.  0.
        998    1    1    2    0    0  0.21743223112E+01 -0.40372826396E+01  0.14323588550E+04  0.14324011019E+04  0.10000000000E+02 0.  1.
</event>
<event>
 5    1  0.1129619E-008  0.3800663E+03  0.7957747E-01  0.3450870E+00
         13   -1    0    0    0    0  0.00000000000E+00  0.00000000000E+00  0.14999999963E+04  0.15000000000E+04  0.10566000000E+00 0.  1.
        994   -1    0    0    0    0 -0.00000000000E+00 -0.00000000000E+00  0.11368683772E-12  0.17120000000E+03  0.17120000000E+03 0.  0.
         13    1    1    2    0    0  0.10265188430E+02  0.65865943493E+01  0.16383080197E+02  0.20424832910E+02  0.10566000000E+00 0.  1.
        994    1    1    2    0    0 -0.85745698372E+01 -0.34457136103E+01  0.43851439211E+01  0.17150529344E+03  0.17120000000E+03 0.  0.
        998    1    1    2    0    0 -0.16906185931E+01 -0.31408807390E+01  0.14792317722E+04  0.14792698737E+04  0.10000000000E+02 0.  1.
</event>
<event>
 5    1  0.1129619E-008  0.3846375E+03  0.7957747E-01  0.3431211E+00
         13   -1    0    0    0    0  0.00000000000E+00  0.00000000000E+00  0.14999999963E+04  0.15000000000E+04  0.10566000000E+00 0.  1.
        994   -1    0    0    0    0 -0.00000000000E+00 -0.00000000000E+00  0.11368683772E-12  0.17120000000E+03  0.17120000000E+03 0.  0.
         13    1    1    2    0    0  0.11885510206E+02 -0.39090266023E+01  0.47262033050E+02  0.48890252340E+02  0.10566000000E+00 0.  1.
        994    1    1    2    0    0  0.24687579080E+02  0.53977055683E+02  0.13497100811E+02  0.18169923179E+03  0.17120000000E+03 0.  0.
        998    1    1    2    0    0 -0.36573089286E+02 -0.50068029080E+02  0.14392408624E+04  0.14406105159E+04  0.10000000000E+02 0.  1.
</event>
<event>
 5    1  0.1129619E-008  0.3827163E+03  0.7957747E-01  0.3439416E+00
         13   -1    0    0    0    0  0.00000000000E+00  0.00000000000E+00  0.14999999963E+04  0.15000000000E+04  0.10566000000E+00 0. -1.
        994   -1    0    0    0    0 -0.00000000000E+00 -0.00000000000E+00  0.11368683772E-12  0.17120000000E+03  0.17120000000E+03 0.  0.
         13    1    1    2    0    0  0.15614627684E+02 -0.84200550700E+01  0.55017289225E+02  0.57806809311E+02  0.10566000000E+00 0. -1.
        994    1    1    2    0    0 -0.15117924574E+02  0.43801381725E+01  0.35894271279E+01  0.17195947558E+03  0.17120000000E+03 0.  0.
        998    1    1    2    0    0 -0.49670311001E+00  0.40399168975E+01  0.14413932799E+04  0.14414337151E+04  0.10000000000E+02 0. -1.
</event>
<event>
 5    1  0.1129619E-008  0.3853055E+03  0.7957747E-01  0.3428378E+00
         13   -1    0    0    0    0  0.00000000000E+00  0.00000000000E+00  0.14999999963E+04  0.15000000000E+04  0.10566000000E+00 0. -1.
        994   -1    0    0    0    0 -0.00000000000E+00 -0.00000000000E+00  0.11368683772E-12  0.17120000000E+03  0.17120000000E+03 0.  0.
         13    1    1    2    0    0 -0.11574917598E+02 -0.35065540328E+01  0.50076458583E+02  0.51516380956E+02  0.10566000000E+00 0. -1.
        994    1    1    2    0    0  0.11392243136E+02 -0.14570771378E+02  0.26032385209E+01  0.17221587451E+03  0.17120000000E+03 0.  0.
        998    1    1    2    0    0  0.18267446201E+00  0.18077325411E+02  0.14473202992E+04  0.14474677445E+04  0.10000000000E+02 0. -1.
</event>
<event>
 5    1  0.1129619E-008  0.3806821E+03  0.7957747E-01  0.3448194E+00
         13   -1    0    0    0    0  0.00000000000E+00  0.00000000000E+00  0.14999999963E+04  0.15000000000E+04  0.10566000000E+00 0.  1.
        994   -1    0    0    0    0 -0.00000000000E+00 -0.00000000000E+00  0.11368683772E-12  0.17120000000E+03  0.17120000000E+03 0.  0.
         13    1    1    2    0    0  0.36372259525E+02 -0.20461482596E+02  0.22834244952E+03  0.23212474868E+03  0.10566000000E+00 0.  1.
        994    1    1    2    0    0 -0.95833513549E+01  0.34274793570E+02  0.80253967066E+01  0.17504413469E+03  0.17120000000E+03 0.  0.
        998    1    1    2    0    0 -0.26788908170E+02 -0.13813310974E+02  0.12636321500E+04  0.12640311166E+04  0.10000000000E+02 0.  1.
</event>
<event>
 5    1  0.1908757E-008  0.3862883E+03  0.7957747E-01  0.3424227E+00
         13   -1    0    0    0    0  0.00000000000E+00  0.00000000000E+00  0.14999999963E+04  0.15000000000E+04  0.10566000000E+00 0. -1.
        994   -1    0    0    0    0 -0.00000000000E+00 -0.00000000000E+00  0.11368683772E-12  0.17120000000E+03  0.17120000000E+03 0.  0.
         13    1    1    2    0    0 -0.10253984768E+02 -0.55533877602E+01  0.64300942795E+02  0.65349879323E+02  0.10566000000E+00 0. -1.
        994    1    1    2    0    0  0.17473240286E+02  0.55888477819E+01  0.20948368120E+01  0.17219285028E+03  0.17120000000E+03 0.  0.
        998    1    1    2    0    0 -0.72192555183E+01 -0.35460021692E-01  0.14336042167E+04  0.14336572704E+04  0.10000000000E+02 0. -1.
</event>
<event>
 5    1  0.1129619E-008  0.3780474E+03  0.7957747E-01  0.3459705E+00
         13   -1    0    0    0    0  0.00000000000E+00  0.00000000000E+00  0.14999999963E+04  0.15000000000E+04  0.10566000000E+00 0. -1.
        994   -1    0    0    0    0 -0.00000000000E+00 -0.00000000000E+00  0.11368683772E-12  0.17120000000E+03  0.17120000000E+03 0.  0.
         13    1    1    2    0    0  0.33625283937E+02 -0.74032014238E+02  0.43256749285E+03  0.44014321065E+03  0.10566000000E+00 0. -1.
        994    1    1    2    0    0 -0.38789522704E+02  0.76809942527E+02  0.30454140028E+02  0.19401363093E+03  0.17120000000E+03 0.  0.
        998    1    1    2    0    0  0.51642387670E+01 -0.27779282888E+01  0.10369783634E+04  0.10370431584E+04  0.10000000000E+02 0.  0.
</event>
<event>
 5    1  0.1129619E-008  0.3753361E+03  0.7957747E-01  0.3471721E+00
         13   -1    0    0    0    0  0.00000000000E+00  0.00000000000E+00  0.14999999963E+04  0.15000000000E+04  0.10566000000E+00 0.  1.
        994   -1    0    0    0    0 -0.00000000000E+00 -0.00000000000E+00  0.11368683772E-12  0.17120000000E+03  0.17120000000E+03 0.  0.
         13    1    1    2    0    0 -0.40780546680E+02 -0.34937331603E+02  0.24895251239E+03  0.25467829652E+03  0.10566000000E+00 0.  1.
        994    1    1    2    0    0  0.21328219593E+02 -0.46571942827E+01  0.81260917524E+01  0.17277747474E+03  0.17120000000E+03 0.  0.
        998    1    1    2    0    0  0.19452327088E+02  0.39594525886E+02  0.12429213921E+04  0.12437442287E+04  0.10000000000E+02 0.  1.
</event>
<event>
 5    1  0.1129619E-008  0.3837029E+03  0.7957747E-01  0.3435192E+00
         13   -1    0    0    0    0  0.00000000000E+00  0.00000000000E+00  0.14999999963E+04  0.15000000000E+04  0.10566000000E+00 0.  1.
        994   -1    0    0    0    0 -0.00000000000E+00 -0.00000000000E+00  0.11368683772E-12  0.17120000000E+03  0.17120000000E+03 0.  0.
         13    1    1    2    0    0  0.19836423625E+02 -0.69183556333E+01  0.99794776065E+02  0.10198213491E+03  0.10566000000E+00 0.  1.
        994    1    1    2    0    0 -0.93568344516E+01 -0.20951474709E+01  0.25791823036E+01  0.17148770269E+03  0.17120000000E+03 0.  0.
        998    1    1    2    0    0 -0.10479589174E+02  0.90135031042E+01  0.13976260379E+04  0.13977301624E+04  0.10000000000E+02 0.  1.
</event>
<event>
 5    1  0.1129619E-008  0.3823451E+03  0.7957747E-01  0.3441011E+00
         13   -1    0    0    0    0  0.00000000000E+00  0.00000000000E+00  0.14999999963E+04  0.15000000000E+04  0.10566000000E+00 0. -1.
        994   -1    0    0    0    0 -0.00000000000E+00 -0.00000000000E+00  0.11368683772E-12  0.17120000000E+03  0.17120000000E+03 0.  0.
         13    1    1    2    0    0  0.70803649552E+01  0.74501504500E+01  0.16589670090E+02  0.19515753313E+02  0.10566000000E+00 0. -1.
        994    1    1    2    0    0 -0.10656578607E+02 -0.31328167853E+01  0.33633974234E+01  0.17159291842E+03  0.17120000000E+03 0.  0.
        998    1    1    2    0    0  0.35762136519E+01 -0.43173336647E+01  0.14800469288E+04  0.14800913283E+04  0.10000000000E+02 0. -1.
</event>
<event>
 5    1  0.1129619E-008  0.3792916E+03  0.7957747E-01  0.3454249E+00
         13   -1    0    0    0    0  0.00000000000E+00  0.00000000000E+00  0.14999999963E+04  0.15000000000E+04  0.10566000000E+00 0.  1.
        994   -1    0    0    0    0 -0.00000000000E+00 -0.00000000000E+00  0.11368683772E-12  0.17120000000E+03  0.17120000000E+03 0.  0.
         13    1    1    2    0    0 -0.14483549467E+02  0.20272178863E+02  0.65737189542E+02  0.70300239644E+02  0.10566000000E+00 0.  1.
        994    1    1    2    0    0  0.11955930462E+02 -0.18670432224E+02  0.61399192393E+01  0.17273872733E+03  0.17120000000E+03 0.  0.
        998    1    1    2    0    0  0.25276190053E+01 -0.16017466396E+01  0.14281228875E+04  0.14281610330E+04  0.10000000000E+02 0.  0.
</event>
<event>
 5    1  0.1129619E-008  0.3796838E+03  0.7957747E-01  0.3452536E+00
         13   -1    0    0    0    0  0.00000000000E+00  0.00000000000E+00  0.14999999963E+04  0.15000000000E+04  0.10566000000E+00 0.  1.
        994   -1    0    0    0    0 -0.00000000000E+00 -0.00000000000E+00  0.11368683772E-12  0.17120000000E+03  0.17120000000E+03 0.  0.
         13    1    1    2    0    0 -0.24644815720E+02  0.52377052634E+02  0.30328382227E+03  0.30875849883E+03  0.10566000000E+00 0.  1.
        994    1    1    2    0    0  0.56957364406E+02 -0.42841764550E+02  0.21482915844E+02  0.18668292322E+03  0.17120000000E+03 0.  0.
        998    1    1    2    0    0 -0.32312548686E+02 -0.95352880843E+01  0.11752332582E+04  0.11757585779E+04  0.10000000000E+02 0.  1.
</event>
<event>
 5    1  0.1129619E-008  0.3848993E+03  0.7957747E-01  0.3430100E+00
         13   -1    0    0    0    0  0.00000000000E+00  0.00000000000E+00  0.14999999963E+04  0.15000000000E+04  0.10566000000E+00 0.  1.
        994   -1    0    0    0    0 -0.00000000000E+00 -0.00000000000E+00  0.11368683772E-12  0.17120000000E+03  0.17120000000E+03 0.  0.
         13    1    1    2    0    0  0.74774136496E+01 -0.72416895541E+01  0.32204975875E+02  0.33845611497E+02  0.10566000000E+00 0.  1.
        994    1    1    2    0    0  0.14613900950E+01  0.96382435759E+01  0.19928563161E+01  0.17148890016E+03  0.17120000000E+03 0.  0.
        998    1    1    2    0    0 -0.89388037446E+01 -0.23965540218E+01  0.14658021641E+04  0.14658654883E+04  0.10000000000E+02 0.  1.
</event>
<event>
 5    1  0.1129619E-008  0.3857423E+03  0.7957747E-01  0.3426530E+00
         13   -1    0    0    0    0  0.00000000000E+00  0.00000000000E+00  0.14999999963E+04  0.15000000000E+04  0.10566000000E+00 0.  1.
        994   -1    0    0    0    0 -0.00000000000E+00 -0.00000000000E+00  0.11368683772E-12  0.17120000000E+03  0.17120000000E+03 0.  0.
         13    1    1    2    0    0  0.10290778308E+02 -0.55572668451E+01  0.61811911416E+02  0.62908718711E+02  0.10566000000E+00 0.  1.
        994    1    1    2    0    0  0.37680437753E+01 -0.12693439838E+02  0.18374544728E+01  0.17172110472E+03  0.17120000000E+03 0.  0.
        998    1    1    2    0    0 -0.14058822083E+02  0.18250706683E+02  0.14363506304E+04  0.14365701766E+04  0.10000000000E+02 0.  1.
</event>
<event>
 5    1  0.1129619E-008  0.3774119E+03  0.7957747E-01  0.3462506E+00
         13   -1    0    0    0    0  0.00000000000E+00  0.00000000000E+00  0.14999999963E+04  0.15000000000E+04  0.10566000000E+00 0. -1.
        994   -1    0    0    0    0 -0.00000000000E+00 -0.00000000000E+00  0.11368683772E-12  0.17120000000E+03  0.17120000000E+03 0.  0.
         13    1    1    2    0    0  0.60313379647E+01  0.60068240867E+02  0.25708419470E+03  0.26407738436E+03  0.10566000000E+00 0. -1.
        994    1    1    2    0    0 -0.77705019569E+01 -0.69624658513E+02  0.22176918370E+02  0.18630413168E+03  0.17120000000E+03 0.  0.
        998    1    1    2    0    0  0.17391639922E+01  0.95564176452E+01  0.12207388832E+04  0.12208184840E+04  0.10000000000E+02 0.  1.
</event>
<event>
 5    1  0.1129619E-008  0.3790365E+03  0.7957747E-01  0.3455365E+00
         13   -1    0    0    0    0  0.00000000000E+00  0.00000000000E+00  0.14999999963E+04  0.15000000000E+04  0.10566000000E+00 0. -1.
        994   -1    0    0    0    0 -0.00000000000E+00 -0.00000000000E+00  0.11368683772E-12  0.17120000000E+03  0.17120000000E+03 0.  0.
         13    1    1    2    0    0  0.23342983185E+02 -0.25412233527E+02  0.12158712803E+03  0.12638875481E+03  0.10566000000E+00 0. -1.
        994    1    1    2    0    0 -0.31274247119E+02  0.11021901169E+02  0.83166112122E+01  0.17457997268E+03  0.17120000000E+03 0.  0.
        998    1    1    2    0    0  0.79312639341E+01  0.14390332358E+02  0.13700962570E+04  0.13702312725E+04  0.10000000000E+02 0. -1.
</event>
<event>
 5    1  0.1129619E-008  0.3839399E+03  0.7957747E-01  0.3434181E+00
         13   -1    0    0    0    0  0.00000000000E+00  0.00000000000E+00  0.14999999963E+04  0.15000000000E+04  0.10566000000E+00 0. -1.
        994   -1    0    0    0    0 -0.00000000000E+00 -0.00000000000E+00  0.11368683772E-12  0.17120000000E+03  0.17120000000E+03 0.  0.
         13    1    1    2    0    0  0.12570058560E+02  0.56736528605E+01  0.43810804549E+02  0.45930321883E+02  0.10566000000E+00 0. -1.
        994    1    1    2    0    0 -0.63661557368E+01 -0.53487926030E+01  0.23855807291E+01  0.17141840192E+03  0.17120000000E+03 0.  0.
        998    1    1    2    0    0 -0.62039028229E+01 -0.32486025750E+00  0.14538036110E+04  0.14538512762E+04  0.10000000000E+02 0. -1.
</event>
<event>
 5    1  0.1129619E-008  0.3835349E+03  0.7957747E-01  0.3435910E+00
         13   -1    0    0    0    0  0.00000000000E+00  0.00000000000E+00  0.14999999963E+04  0.15000000000E+04  0.10566000000E+00 0. -1.
        994   -1    0    0    0    0 -0.00000000000E+00 -0.00000000000E+00  0.11368683772E-12  0.17120000000E+03  0.17120000000E+03 0.  0.
         13    1    1    2    0    0 -0.59272008663E+01  0.17121859670E+02  0.74200549354E+02  0.76380772955E+02  0.10566000000E+00 0. -1.
        994    1    1    2    0    0  0.78085924918E+01  0.36497038925E+01  0.26047978644E+01  0.17143663385E+03  0.17120000000E+03 0.  0.
        998    1    1    2    0    0 -0.18813916254E+01 -0.20771563562E+02  0.14231946491E+04  0.14233825932E+04  0.10000000000E+02 0. -1.
</event>
<event>
 5    1  0.1129619E-008  0.3810159E+03  0.7957747E-01  0.3446747E+00
         13   -1    0    0    0    0  0.00000000000E+00  0.00000000000E+00  0.14999999963E+04  0.15000000000E+04  0.10566000000E+00 0.  1.
        994   -1    0    0    0    0 -0.00000000000E+00 -0.00000000000E+00  0.11368683772E-12  0.17120000000E+03  0.17120000000E+03 0.  0.
         13    1    1    2    0    0 -0.15157821534E+00  0.23597397464E+02  0.77374390542E+02  0.80892939239E+02  0.10566000000E+00 0.  1.
        994    1    1    2    0    0 -0.10582476136E+02 -0.10261589171E+02  0.43454801206E+01  0.17188837137E+03  0.17120000000E+03 0.  0.
        998    1    1    2    0    0  0.10734054351E+02 -0.13335808293E+02  0.14182801256E+04  0.14184186894E+04  0.10000000000E+02 0.  1.
</event>
<event>
 5    1  0.1129619E-008  0.3700691E+03  0.7957747E-01  0.3495574E+00
         13   -1    0    0    0    0  0.00000000000E+00  0.00000000000E+00  0.14999999963E+04  0.15000000000E+04  0.10566000000E+00 0.  1.
        994   -1    0    0    0    0 -0.00000000000E+00 -0.00000000000E+00  0.11368683772E-12  0.17120000000E+03  0.17120000000E+03 0.  0.
         13    1    1    2    0    0  0.81989980187E+01  0.19073957234E+02  0.16127396456E+02  0.26289608091E+02  0.10566000000E+00 0.  1.
        994    1    1    2    0    0 -0.27002000086E+02  0.36146513174E+02  0.18127790836E+02  0.17797116402E+03  0.17120000000E+03 0.  0.
        998    1    1    2    0    0  0.18803002068E+02 -0.55220470409E+02  0.14657448090E+04  0.14669392279E+04  0.10000000000E+02 0.  1.
</event>
<event>
 5    1  0.1129619E-008  0.3838826E+03  0.7957747E-01  0.3434425E+00
         13   -1    0    0    0    0  0.00000000000E+00  0.00000000000E+00  0.14999999963E+04  0.15000000000E+04  0.10566000000E+00 0.  1.
        994   -1    0    0    0    0 -0.00000000000E+00 -0.00000000000E+00  0.11368683772E-12  0.17120000000E+03  0.17120000000E+03 0.  0.
         13    1    1    2    0    0 -0.16870457616E+01 -0.13607003726E+02  0.39011965669E+02  0.41351436531E+02  0.10566000000E+00 0.  1.
        994    1    1    2    0    0  0.68811596363E+01  0.28073229580E+02  0.49482866258E+01  0.17369335657E+03  0.17120000000E+03 0.  0.
        998    1    1    2    0    0 -0.51941138747E+01 -0.14466225854E+02  0.14560397440E+04  0.14561552069E+04  0.10000000000E+02 0.  1.
</event>
<event>
 5    1  0.1129619E-008  0.4165825E+03  0.7957747E-01  0.3305860E+00
         13   -1    0    0    0    0  0.00000000000E+00  0.00000000000E+00  0.14999999963E+04  0.15000000000E+04  0.10566000000E+00 0. -1.
        994   -1    0    0    0    0 -0.00000000000E+00 -0.00000000000E+00  0.11368683772E-12  0.17120000000E+03  0.17120000000E+03 0.  0.
         13    1    1    2    0    0 -0.19860553894E+02  0.37652332000E+02  0.99617200707E+01  0.43719409155E+02  0.10566000000E+00 0. -1.
        994    1    1    2    0    0  0.51628993658E+01 -0.15887791613E+02  0.39268240158E+02  0.17643840891E+03  0.17120000000E+03 0.  0.
        998    1    1    2    0    0  0.14697654528E+02 -0.21764540387E+02  0.14507700360E+04  0.14510421819E+04  0.10000000000E+02 0. -1.
</event>
<event>
 5    1  0.1129619E-008  0.3744190E+03  0.7957747E-01  0.3475825E+00
         13   -1    0    0    0    0  0.00000000000E+00  0.00000000000E+00  0.14999999963E+04  0.15000000000E+04  0.10566000000E+00 0. -1.
        994   -1    0    0    0    0 -0.00000000000E+00 -0.00000000000E+00  0.11368683772E-12  0.17120000000E+03  0.17120000000E+03 0.  0.
         13    1    1    2    0    0 -0.10252006054E+02 -0.77132911800E+00  0.43160854089E+01  0.11150710024E+02  0.10566000000E+00 0. -1.
        994    1    1    2    0    0  0.95691026031E+01  0.24121307202E+01  0.73091596580E+01  0.17163988439E+03  0.17120000000E+03 0.  0.
        998    1    1    2    0    0  0.68290345083E+00 -0.16408016022E+01  0.14883747512E+04  0.14884094056E+04  0.10000000000E+02 0. -1.
</event>
<event>
 5    1  0.1129619E-008  0.3846974E+03  0.7957747E-01  0.3430957E+00
         13   -1    0    0    0    0  0.00000000000E+00  0.00000000000E+00  0.14999999963E+04  0.15000000000E+04  0.10566000000E+00 0.  1.
        994   -1    0    0    0    0 -0.00000000000E+00 -0.00000000000E+00  0.11368683772E-12  0.17120000000E+03  0.17120000000E+03 0.  0.
         13    1    1    2    0    0  0.31842409741E+01  0.18921084043E+02  0.99083503343E+02  0.10092422212E+03  0.10566000000E+00 0.  1.
        994    1    1    2    0    0 -0.71426126618E+01 -0.16802560322E+02  0.28785453488E+01  0.17219485757E+03  0.17120000000E+03 0.  0.
        998    1    1    2    0    0  0.39583716877E+01 -0.21185237208E+01  0.13980379476E+04  0.13980809203E+04  0.10000000000E+02 0.  1.
</event>
<event>
 5    1  0.1129619E-008  0.3782029E+03  0.7957747E-01  0.3459021E+00
         13   -1    0    0    0    0  0.00000000000E+00  0.00000000000E+00  0.14999999963E+04  0.15000000000E+04  0.10566000000E+00 0. -1.
        994   -1    0    0    0    0 -0.00000000000E+00 -0.00000000000E+00  0.11368683772E-12  0.17120000000E+03  0.17120000000E+03 0.  0.
         13    1    1    2    0    0  0.10376103294E+02  0.11242305070E+02  0.20871717674E+02  0.25878421620E+02  0.10566000000E+00 0. -1.
        994    1    1    2    0    0 -0.99024971971E+01 -0.10536757877E+02  0.57465088286E+01  0.17190562842E+03  0.17120000000E+03 0.  0.
        998    1    1    2    0    0 -0.47360609697E+00 -0.70554719344E+00  0.14733817698E+04  0.14734159500E+04  0.10000000000E+02 0. -1.
</event>
<event>
 5    1  0.1129619E-008  0.3717930E+03  0.7957747E-01  0.3487691E+00
         13   -1    0    0    0    0  0.00000000000E+00  0.00000000000E+00  0.14999999963E+04  0.15000000000E+04  0.10566000000E+00 0.  1.
        994   -1    0    0    0    0 -0.00000000000E+00 -0.00000000000E+00  0.11368683772E-12  0.17120000000E+03  0.17120000000E+03 0.  0.
         13    1    1    2    0    0  0.33931572035E+02 -0.31048125547E+02  0.10950964426E+03  0.11877588573E+03  0.10566000000E+00 0.  1.
        994    1    1    2    0    0 -0.84776745007E+02 -0.41543404059E+01  0.33514033710E+02  0.19400253992E+03  0.17120000000E+03 0.  0.
        998    1    1    2    0    0  0.50845172971E+02  0.35202465953E+02  0.13569763183E+04  0.13584215744E+04  0.10000000000E+02 0.  1.
</event>
<event>
 5    1  0.1129619E-008  0.3717276E+03  0.7957747E-01  0.3487988E+00
         13   -1    0    0    0    0  0.00000000000E+00  0.00000000000E+00  0.14999999963E+04  0.15000000000E+04  0.10566000000E+00 0.  1.
        994   -1    0    0    0    0 -0.00000000000E+00 -0.00000000000E+00  0.11368683772E-12  0.17120000000E+03  0.17120000000E+03 0.  0.
         13    1    1    2    0    0  0.26254923041E+02  0.14673890706E+01  0.38216308364E+02  0.46389347954E+02  0.10566000000E+00 0.  1.
        994    1    1    2    0    0 -0.14635024963E+02 -0.13247152548E+02  0.97093332574E+01  0.17260759589E+03  0.17120000000E+03 0.  0.
        998    1    1    2    0    0 -0.11619898079E+02  0.11779763477E+02  0.14520743547E+04  0.14522030562E+04  0.10000000000E+02 0.  1.
</event>
<event>
 5    1  0.1129619E-008  0.3837028E+03  0.7957747E-01  0.3435192E+00
         13   -1    0    0    0    0  0.00000000000E+00  0.00000000000E+00  0.14999999963E+04  0.15000000000E+04  0.10566000000E+00 0. -1.
        994   -1    0    0    0    0 -0.00000000000E+00 -0.00000000000E+00  0.11368683772E-12  0.17120000000E+03  0.17120000000E+03 0.  0.
         13    1    1    2    0    0  0.73837656273E+01 -0.85040172665E+01  0.27740309201E+02  0.29939509400E+02  0.10566000000E+00 0. -1.
        994    1    1    2    0    0 -0.16343491847E+02 -0.11301649044E+02  0.35805778027E+01  0.17238647724E+03  0.17120000000E+03 0.  0.
        998    1    1    2    0    0  0.89597262197E+01  0.19805666310E+02  0.14686791093E+04  0.14688740134E+04  0.10000000000E+02 0. -1.
</event>
<event>
 5    1  0.1129619E-008  0.3798483E+03  0.7957747E-01  0.3451819E+00
         13   -1    0    0    0    0  0.00000000000E+00  0.00000000000E+00  0.14999999963E+04  0.15000000000E+04  0.10566000000E+00 0.  1.
        994   -1    0    0    0    0 -0.00000000000E+00 -0.00000000000E+00  0.11368683772E-12  0.17120000000E+03  0.17120000000E+03 0.  0.
         13    1    1    2    0    0  0.88706067403E+01 -0.39792888751E+02  0.22671307084E+03  0.23034971090E+03  0.10566000000E+00 0.  1.
        994    1    1    2    0    0 -0.81001404092E+01  0.38402319310E+01  0.44785551346E+01  0.17149302351E+03  0.17120000000E+03 0.  0.
        998    1    1    2    0    0 -0.77046633113E+00  0.35952656820E+02  0.12688083703E+04  0.12693572656E+04  0.10000000000E+02 0.  1.
</event>
<event>
 5    1  0.1129619E-008  0.3706149E+03  0.7957747E-01  0.3493069E+00
         13   -1    0    0    0    0  0.00000000000E+00  0.00000000000E+00  0.14999999963E+04  0.15000000000E+04  0.10566000000E+00 0.  1.
        994   -1    0    0    0    0 -0.00000000000E+00 -0.00000000000E+00  0.11368683772E-12  0.17120000000E+03  0.17120000000E+03 0.  0.
         13    1    1    2    0    0  0.12149859216E+03 -0.26775658876E+02  0.44372038851E+03  0.46083254892E+03  0.10566000000E+00 0.  1.
        994    1    1    2    0    0 -0.12957755350E+03  0.14835300772E+02  0.73490742248E+02  0.22742198160E+03  0.17120000000E+03 0.  0.
        998    1    1    2    0    0  0.80789613380E+01  0.11940358104E+02  0.98278886552E+03  0.98294546948E+03  0.10000000000E+02 0.  1.
</event>
<event>
 5    1  0.1129619E-008  0.3774103E+03  0.7957747E-01  0.3462513E+00
         13   -1    0    0    0    0  0.00000000000E+00  0.00000000000E+00  0.14999999963E+04  0.15000000000E+04  0.10566000000E+00 0.  1.
        994   -1    0    0    0    0 -0.00000000000E+00 -0.00000000000E+00  0.11368683772E-12  0.17120000000E+03  0.17120000000E+03 0.  0.
         13    1    1    2    0    0 -0.82734556909E+01 -0.13970802854E+02  0.20751767869E+01  0.16369206584E+02  0.10566000000E+00 0.  1.
        994    1    1    2    0    0  0.70439854112E+01  0.11450033370E+02  0.15560990110E+02  0.17243058142E+03  0.17120000000E+03 0.  0.
        998    1    1    2    0    0  0.12294702796E+01  0.25207694837E+01  0.14823638294E+04  0.14824002120E+04  0.10000000000E+02 0.  1.
</event>
<event>
 5    1  0.1129619E-008  0.3810402E+03  0.7957747E-01  0.3446642E+00
         13   -1    0    0    0    0  0.00000000000E+00  0.00000000000E+00  0.14999999963E+04  0.15000000000E+04  0.10566000000E+00 0.  1.
        994   -1    0    0    0    0 -0.00000000000E+00 -0.00000000000E+00  0.11368683772E-12  0.17120000000E+03  0.17120000000E+03 0.  0.
         13    1    1    2    0    0  0.15646619855E+02 -0.52415491016E+01  0.36544759740E+02  0.40097645546E+02  0.10566000000E+00 0.  1.
        994    1    1    2    0    0 -0.86587365255E+01  0.46672079547E+01  0.39313901651E+01  0.17152740999E+03  0.17120000000E+03 0.  0.
        998    1    1    2    0    0 -0.69878833293E+01  0.57434114691E+00  0.14595238464E+04  0.14595749445E+04  0.10000000000E+02 0.  1.
</event>
<event>
 5    1  0.1129619E-008  0.3808648E+03  0.7957747E-01  0.3447401E+00
         13   -1    0    0    0    0  0.00000000000E+00  0.00000000000E+00  0.14999999963E+04  0.15000000000E+04  0.10566000000E+00 0. -1.
        994   -1    0    0    0    0 -0.00000000000E+00 -0.00000000000E+00  0.11368683772E-12  0.17120000000E+03  0.17120000000E+03 0.  0.
         13    1    1    2    0    0  0.39741156972E+01  0.43047007670E+02  0.24112912578E+03  0.24497368211E+03  0.10566000000E+00 0. -1.
        994    1    1    2    0    0 -0.12688623344E+02 -0.28788398409E+02  0.70035450474E+01  0.17420752765E+03  0.17120000000E+03 0.  0.
        998    1    1    2    0    0  0.87145076471E+01 -0.14258609261E+02  0.12518673255E+04  0.12520187902E+04  0.10000000000E+02 0. -1.
</event>
<event>
 5    1  0.1129619E-008  0.3818681E+03  0.7957747E-01  0.3443065E+00
         13   -1    0    0    0    0  0.00000000000E+00  0.00000000000E+00  0.14999999963E+04  0.15000000000E+04  0.10566000000E+00 0.  1.
        994   -1    0    0    0    0 -0.00000000000E+00 -0.00000000000E+00  0.11368683772E-12  0.17120000000E+03  0.17120000000E+03 0.  0.
         13    1    1    2    0    0 -0.14712059564E+03 -0.85900576984E+02  0.97071377515E+03  0.98554990904E+03  0.10566000000E+00 0.  1.
        994    1    1    2    0    0  0.15763397056E+03  0.87009664764E+02  0.11966163973E+03  0.27576710910E+03  0.17120000000E+03 0.  0.
        998    1    1    2    0    0 -0.10513374926E+02 -0.11090877801E+01  0.40962458141E+03  0.40988298186E+03  0.10000000000E+02 0. -1.
</event>
<event>
 5    1  0.1129619E-008  0.3822841E+03  0.7957747E-01  0.3441273E+00
         13   -1    0    0    0    0  0.00000000000E+00  0.00000000000E+00  0.14999999963E+04  0.15000000000E+04  0.10566000000E+00 0. -1.
        994   -1    0    0    0    0 -0.00000000000E+00 -0.00000000000E+00  0.11368683772E-12  0.17120000000E+03  0.17120000000E+03 0.  0.
         13    1    1    2    0    0 -0.87152560711E+01 -0.79490659355E+01  0.22180591210E+02  0.25122363107E+02  0.10566000000E+00 0. -1.
        994    1    1    2    0    0  0.76402739034E+01  0.35364850768E+01  0.32197933145E+01  0.17143712428E+03  0.17120000000E+03 0.  0.
        998    1    1    2    0    0  0.10749821677E+01  0.44125808587E+01  0.14745996118E+04  0.14746405126E+04  0.10000000000E+02 0. -1.
</event>
<event>
 5    1  0.1129619E-008  0.3767704E+03  0.7957747E-01  0.3465343E+00
         13   -1    0    0    0    0  0.00000000000E+00  0.00000000000E+00  0.14999999963E+04  0.15000000000E+04  0.10566000000E+00 0. -1.
        994   -1    0    0    0    0 -0.00000000000E+00 -0.00000000000E+00  0.11368683772E-12  0.17120000000E+03  0.17120000000E+03 0.  0.
         13    1    1    2    0    0 -0.40765240145E+02 -0.55651670818E+02  0.33860548053E+03  0.34556127659E+03  0.10566000000E+00 0. -1.
        994    1    1    2    0    0  0.46866157422E+02  0.42946002536E+02  0.19550548547E+02  0.18366398611E+03  0.17120000000E+03 0.  0.
        998    1    1    2    0    0 -0.61009172769E+01  0.12705668282E+02  0.11418439672E+04  0.11419747373E+04  0.10000000000E+02 0. -1.
</event>
<event>
 5    1  0.1129619E-008  0.3781717E+03  0.7957747E-01  0.3459158E+00
         13   -1    0    0    0    0  0.00000000000E+00  0.00000000000E+00  0.14999999963E+04  0.15000000000E+04  0.10566000000E+00 0.  1.
        994   -1    0    0    0    0 -0.00000000000E+00 -0.00000000000E+00  0.11368683772E-12  0.17120000000E+03  0.17120000000E+03 0.  0.
         13    1    1    2    0    0 -0.17231069968E+02  0.45070750514E+01  0.29008983379E+02  0.34040502030E+02  0.10566000000E+00 0.  1.
        994    1    1    2    0    0  0.14908161930E+02 -0.43987086561E+01  0.58719090382E+01  0.17200442217E+03  0.17120000000E+03 0.  0.
        998    1    1    2    0    0  0.23229080377E+01 -0.10836639534E+00  0.14651191039E+04  0.14651550758E+04  0.10000000000E+02 0.  1.
</event>
<event>
 5    1  0.1129619E-008  0.3757189E+03  0.7957747E-01  0.3470014E+00
         13   -1    0    0    0    0  0.00000000000E+00  0.00000000000E+00  0.14999999963E+04  0.15000000000E+04  0.10566000000E+00 0. -1.
        994   -1    0    0    0    0 -0.00000000000E+00 -0.00000000000E+00  0.11368683772E-12  0.17120000000E+03  0.17120000000E+03 0.  0.
         13    1    1    2    0    0  0.13283290299E+02  0.47425071894E+01  0.13222890966E+02  0.19333731795E+02  0.10566000000E+00 0. -1.
        994    1    1    2    0    0 -0.55098046421E+00 -0.40255815610E+01  0.63660285357E+01  0.17136649382E+03  0.17120000000E+03 0.  0.
        998    1    1    2    0    0 -0.12732309834E+02 -0.71692562840E+00  0.14804110768E+04  0.14804997744E+04  0.10000000000E+02 0. -1.
</event>
<event>
 5    1  0.1129619E-008  0.3853204E+03  0.7957747E-01  0.3428314E+00
         13   -1    0    0    0    0  0.00000000000E+00  0.00000000000E+00  0.14999999963E+04  0.15000000000E+04  0.10566000000E+00 0.  1.
        994   -1    0    0    0    0 -0.00000000000E+00 -0.00000000000E+00  0.11368683772E-12  0.17120000000E+03  0.17120000000E+03 0.  0.
         13    1    1    2    0    0 -0.48591720763E+01 -0.11420691663E+02  0.51701319729E+02  0.53170305407E+02  0.10566000000E+00 0.  1.
        994    1    1    2    0    0 -0.13067249393E+01  0.12384108014E+02  0.19807481163E+01  0.17166373241E+03  0.17120000000E+03 0.  0.
        998    1    1    2    0    0  0.61658970157E+01 -0.96341635080E+00  0.14463179284E+04  0.14463659622E+04  0.10000000000E+02 0.  1.
</event>
<event>
 5    1  0.1129619E-008  0.3708849E+03  0.7957747E-01  0.3491834E+00
         13   -1    0    0    0    0  0.00000000000E+00  0.00000000000E+00  0.14999999963E+04  0.15000000000E+04  0.10566000000E+00 0. -1.
        994   -1    0    0    0    0 -0.00000000000E+00 -0.00000000000E+00  0.11368683772E-12  0.17120000000E+03  0.17120000000E+03 0.  0.
         13    1    1    2    0    0  0.97296596815E+01 -0.60624708597E+02  0.21467896741E+03  0.22328701660E+03  0.10566000000E+00 0. -1.
        994    1    1    2    0    0 -0.87552082498E+01  0.31978558537E+02  0.12606057492E+02  0.17483602193E+03  0.17120000000E+03 0.  0.
        998    1    1    2    0    0 -0.97445143178E+00  0.28646150059E+02  0.12727149714E+04  0.12730769615E+04  0.10000000000E+02 0. -1.
</event>
<event>
 5    1  0.1129619E-008  0.3832869E+03  0.7957747E-01  0.3436970E+00
         13   -1    0    0    0    0  0.00000000000E+00  0.00000000000E+00  0.14999999963E+04  0.15000000000E+04  0.10566000000E+00 0.  1.
        994   -1    0    0    0    0 -0.00000000000E+00 -0.00000000000E+00  0.11368683772E-12  0.17120000000E+03  0.17120000000E+03 0.  0.
         13    1    1    2    0    0 -0.36252835590E+01 -0.16034599678E+02  0.52409048771E+02  0.54926957178E+02  0.10566000000E+00 0.  1.
        994    1    1    2    0    0  0.23046572886E+01  0.15955244952E+02  0.33429456375E+01  0.17198981532E+03  0.17120000000E+03 0.  0.
        998    1    1    2    0    0  0.13206262704E+01  0.79354725922E-01  0.14442480019E+04  0.14442832275E+04  0.10000000000E+02 0.  1.
</event>
<event>
 5    1  0.1129619E-008  0.3854122E+03  0.7957747E-01  0.3427926E+00
         13   -1    0    0    0    0  0.00000000000E+00  0.00000000000E+00  0.14999999963E+04  0.15000000000E+04  0.10566000000E+00 0.  1.
        994   -1    0    0    0    0 -0.00000000000E+00 -0.00000000000E+00  0.11368683772E-12  0.17120000000E+03  0.17120000000E+03 0.  0.
         13    1    1    2    0    0 -0.10390802484E+02  0.72109167671E+01  0.52906625805E+02  0.54397502838E+02  0.10566000000E+00 0.  1.
        994    1    1    2    0    0  0.15094531480E+02 -0.11204402554E+02  0.25870800612E+01  0.17224841509E+03  0.17120000000E+03 0.  0.
        998    1    1    2    0    0 -0.47037289956E+01  0.39934857866E+01  0.14445062904E+04  0.14445540821E+04  0.10000000000E+02 0.  1.
</event>
<event>
 5    1  0.1129619E-008  0.3701477E+03  0.7957747E-01  0.3495212E+00
         13   -1    0    0    0    0  0.00000000000E+00  0.00000000000E+00  0.14999999963E+04  0.15000000000E+04  0.10566000000E+00 0.  1.
        994   -1    0    0    0    0 -0.00000000000E+00 -0.00000000000E+00  0.11368683772E-12  0.17120000000E+03  0.17120000000E+03 0.  0.
         13    1    1    2    0    0 -0.26798950815E+00  0.53962275692E+02  0.15949992442E+03  0.16838122244E+03  0.10566000000E+00 0.  1.
        994    1    1    2    0    0 -0.33681812187E+02 -0.27514137523E+02  0.15757150817E+02  0.17733927946E+03  0.17120000000E+03 0.  0.
        998    1    1    2    0    0  0.33949801695E+02 -0.26448138170E+02  0.13247429210E+04  0.13254794981E+04  0.10000000000E+02 0.  1.
</event>
<event>
 5    1  0.1179676E-008  0.3859125E+03  0.7957747E-01  0.3425811E+00
         13   -1    0    0    0    0  0.00000000000E+00  0.00000000000E+00  0.14999999963E+04  0.15000000000E+04  0.10566000000E+00 0.  1.
        994   -1    0    0    0    0 -0.00000000000E+00 -0.00000000000E+00  0.11368683772E-12  0.17120000000E+03  0.17120000000E+03 0.  0.
         13    1    1    2    0    0 -0.85741998669E+01 -0.71129013521E+01  0.51497945647E+02  0.52689276318E+02  0.10566000000E+00 0.  1.
        994    1    1    2    0    0  0.11177262954E+02  0.61780447537E+01  0.17127540853E+01  0.17168422458E+03  0.17120000000E+03 0.  0.
        998    1    1    2    0    0 -0.26030630875E+01  0.93485659837E+00  0.14467892965E+04  0.14468264991E+04  0.10000000000E+02 0.  1.
</event>
<event>
 5    1  0.1129619E-008  0.3772875E+03  0.7957747E-01  0.3463055E+00
         13   -1    0    0    0    0  0.00000000000E+00  0.00000000000E+00  0.14999999963E+04  0.15000000000E+04  0.10566000000E+00 0.  1.
        994   -1    0    0    0    0 -0.00000000000E+00 -0.00000000000E+00  0.11368683772E-12  0.17120000000E+03  0.17120000000E+03 0.  0.
         13    1    1    2    0    0  0.29245250859E+01  0.23379058159E+02  0.47159649140E+02  0.52717899032E+02  0.10566000000E+00 0.  1.
        994    1    1    2    0    0 -0.58336559284E+01 -0.21819949089E+02  0.72314215799E+01  0.17283482050E+03  0.17120000000E+03 0.  0.
        998    1    1    2    0    0  0.29091308425E+01 -0.15591090695E+01  0.14456089256E+04  0.14456472805E+04  0.10000000000E+02 0.  1.
</event>
<event>
 5    1  0.1129619E-008  0.3773882E+03  0.7957747E-01  0.3462610E+00
         13   -1    0    0    0    0  0.00000000000E+00  0.00000000000E+00  0.14999999963E+04  0.15000000000E+04  0.10566000000E+00 0.  1.
        994   -1    0    0    0    0 -0.00000000000E+00 -0.00000000000E+00  0.11368683772E-12  0.17120000000E+03  0.17120000000E+03 0.  0.
         13    1    1    2    0    0 -0.11371846325E+02 -0.38384333695E+01  0.10714127005E+02  0.16089006840E+02  0.10566000000E+00 0.  1.
        994    1    1    2    0    0  0.10302941672E+02  0.26013158677E+01  0.58382758876E+01  0.17162879396E+03  0.17120000000E+03 0.  0.
        998    1    1    2    0    0  0.10689046535E+01  0.12371175019E+01  0.14834475934E+04  0.14834821992E+04  0.10000000000E+02 0.  1.
</event>
<event>
 5    1  0.1129619E-008  0.3689795E+03  0.7957747E-01  0.3500594E+00
         13   -1    0    0    0    0  0.00000000000E+00  0.00000000000E+00  0.14999999963E+04  0.15000000000E+04  0.10566000000E+00 0.  1.
        994   -1    0    0    0    0 -0.00000000000E+00 -0.00000000000E+00  0.11368683772E-12  0.17120000000E+03  0.17120000000E+03 0.  0.
         13    1    1    2    0    0  0.52222436997E+01 -0.20524157378E+02  0.18274109253E+02  0.27972613364E+02  0.10566000000E+00 0.  1.
        994    1    1    2    0    0 -0.67998134827E+01  0.23521798577E+02  0.11886473102E+02  0.17335005254E+03  0.17120000000E+03 0.  0.
        998    1    1    2    0    0  0.15775697830E+01 -0.29976411991E+01  0.14698394139E+04  0.14698773341E+04  0.10000000000E+02 0.  1.
</event>
<event>
 5    1  0.1129619E-008  0.3689521E+03  0.7957747E-01  0.3500721E+00
         13   -1    0    0    0    0  0.00000000000E+00  0.00000000000E+00  0.14999999963E+04  0.15000000000E+04  0.10566000000E+00 0.  1.
        994   -1    0    0    0    0 -0.00000000000E+00 -0.00000000000E+00  0.11368683772E-12  0.17120000000E+03  0.17120000000E+03 0.  0.
         13    1    1    2    0    0 -0.12414197168E+02  0.81571426753E+02  0.28105725134E+03  0.29291841807E+03  0.10566000000E+00 0.  1.
        994    1    1    2    0    0  0.43110191512E+01 -0.72306039932E+02  0.28891548746E+02  0.18812471897E+03  0.17120000000E+03 0.  0.
        998    1    1    2    0    0  0.81031780164E+01 -0.92653868210E+01  0.11900511962E+04  0.11901568630E+04  0.10000000000E+02 0.  1.
</event>
<event>
 5    1  0.1129619E-008  0.3748880E+03  0.7957747E-01  0.3473724E+00
         13   -1    0    0    0    0  0.00000000000E+00  0.00000000000E+00  0.14999999963E+04  0.15000000000E+04  0.10566000000E+00 0. -1.
        994   -1    0    0    0    0 -0.00000000000E+00 -0.00000000000E+00  0.11368683772E-12  0.17120000000E+03  0.17120000000E+03 0.  0.
         13    1    1    2    0    0  0.47127456517E+02  0.47345397259E+02  0.26664890551E+03  0.27488949375E+03  0.10566000000E+00 0. -1.
        994    1    1    2    0    0 -0.48688161084E+02 -0.48998886417E+02  0.23138481668E+02  0.18605444696E+03  0.17120000000E+03 0.  0.
        998    1    1    2    0    0  0.15607045670E+01  0.16534891582E+01  0.12102126091E+04  0.12102560593E+04  0.10000000000E+02 0.  0.
</event>
<event>
 5    1  0.1129619E-008  0.3821261E+03  0.7957747E-01  0.3441953E+00
         13   -1    0    0    0    0  0.00000000000E+00  0.00000000000E+00  0.14999999963E+04  0.15000000000E+04  0.10566000000E+00 0.  1.
        994   -1    0    0    0    0 -0.00000000000E+00 -0.00000000000E+00  0.11368683772E-12  0.17120000000E+03  0.17120000000E+03 0.  0.
         13    1    1    2    0    0 -0.29397194277E+01  0.26432204707E+02  0.11999517942E+03  0.12290710982E+03  0.10566000000E+00 0.  1.
        994    1    1    2    0    0 -0.14322909417E+02 -0.10773079925E+02  0.41307498346E+01  0.17218509831E+03  0.17120000000E+03 0.  0.
        998    1    1    2    0    0  0.17262628844E+02 -0.15659124782E+02  0.13758740670E+04  0.13761077919E+04  0.10000000000E+02 0.  1.
</event>
<event>
 5    1  0.1129619E-008  0.3833113E+03  0.7957747E-01  0.3436866E+00
         13   -1    0    0    0    0  0.00000000000E+00  0.00000000000E+00  0.14999999963E+04  0.15000000000E+04  0.10566000000E+00 0. -1.
        994   -1    0    0    0    0 -0.00000000000E+00 -0.00000000000E+00  0.11368683772E-12  0.17120000000E+03  0.17120000000E+03 0.  0.
         13    1    1    2    0    0  0.16646941640E+02  0.23874119271E+02  0.14873327422E+03  0.15155425517E+03  0.10566000000E+00 0. -1.
        994    1    1    2    0    0 -0.21633123088E+02 -0.27715151327E+02  0.65691899632E+01  0.17489630037E+03  0.17120000000E+03 0.  0.
        998    1    1    2    0    0  0.49861814483E+01  0.38410320559E+01  0.13446975321E+04  0.13447494445E+04  0.10000000000E+02 0.  0.
</event>
<event>
 5    1  0.1129619E-008  0.3699708E+03  0.7957747E-01  0.3496025E+00
         13   -1    0    0    0    0  0.00000000000E+00  0.00000000000E+00  0.14999999963E+04  0.15000000000E+04  0.10566000000E+00 0. -1.
        994   -1    0    0    0    0 -0.00000000000E+00 -0.00000000000E+00  0.11368683772E-12  0.17120000000E+03  0.17120000000E+03 0.  0.
         13    1    1    2    0    0 -0.23776629751E+02  0.38733765478E+01  0.22242352787E+02  0.32788177591E+02  0.10566000000E+00 0. -1.
        994    1    1    2    0    0  0.10046070684E+02 -0.13203673988E+02  0.11886167452E+02  0.17241224295E+03  0.17120000000E+03 0.  0.
        998    1    1    2    0    0  0.13730559067E+02  0.93302974407E+01  0.14658714760E+04  0.14659995795E+04  0.10000000000E+02 0. -1.
</event>
<event>
 5    1  0.1129619E-008  0.3824250E+03  0.7957747E-01  0.3440667E+00
         13   -1    0    0    0    0  0.00000000000E+00  0.00000000000E+00  0.14999999963E+04  0.15000000000E+04  0.10566000000E+00 0.  1.
        994   -1    0    0    0    0 -0.00000000000E+00 -0.00000000000E+00  0.11368683772E-12  0.17120000000E+03  0.17120000000E+03 0.  0.
         13    1    1    2    0    0  0.17505887576E+02 -0.14286981573E+01  0.50936405812E+02  0.53879735331E+02  0.10566000000E+00 0.  1.
        994    1    1    2    0    0 -0.16016254426E+02  0.30912702706E+01  0.37968904458E+01  0.17201724546E+03  0.17120000000E+03 0.  0.
        998    1    1    2    0    0 -0.14896331500E+01 -0.16625721133E+01  0.14452667000E+04  0.14453030192E+04  0.10000000000E+02 0.  1.
</event>
<event>
 5    1  0.1129619E-008  0.3790662E+03  0.7957747E-01  0.3455235E+00
         13   -1    0    0    0    0  0.00000000000E+00  0.00000000000E+00  0.14999999963E+04  0.15000000000E+04  0.10566000000E+00 0. -1.
        994   -1    0    0    0    0 -0.00000000000E+00 -0.00000000000E+00  0.11368683772E-12  0.17120000000E+03  0.17120000000E+03 0.  0.
         13    1    1    2    0    0 -0.11454909213E+02 -0.12897442653E+02  0.30065647612E+02  0.34662851909E+02  0.10566000000E+00 0. -1.
        994    1    1    2    0    0  0.94029534039E+01  0.13108695877E+02  0.54784486860E+01  0.17204565336E+03  0.17120000000E+03 0.  0.
        998    1    1    2    0    0  0.20519558093E+01 -0.21125322409E+00  0.14644559000E+04  0.14644914947E+04  0.10000000000E+02 0. -1.
</event>
