<LesHouchesEvents version="3.0">
<header>
<!--
#*********************************************************************
#                                                                    *
#                        MadGraph5_aMC@NLO                           *
#                                                                    *
#                           Going Beyond                             *
#                                                                    *
#                   http://madgraph.hep.uiuc.edu                     *
#                   http://madgraph.phys.ucl.ac.be                   *
#                   http://amcatnlo.cern.ch                          *
#                                                                    *
#                     The MadGraph5_aMC@NLO team                     *
#                                                                    *
#....................................................................*
#                                                                    *
# This file contains all the information necessary to reproduce      *
# the events generated:                                              *
#                                                                    *
# 1. software version                                                *
# 2. proc_card          : code generation info including model       *
# 3. param_card         : model primary parameters in the LH format  *
# 4. run_card           : running parameters (collider and cuts)     *
# 5. pythia_card        : present only if pythia has been run        *
# 6. pgs_card           : present only if pgs has been run           *
# 7. delphes_cards      : present only if delphes has been run       *
#                                                                    *
#                                                                    *
#*********************************************************************
-->
<MGVersion>
#3.5.0
</MGVersion>
<MG5ProcCard>
<![CDATA[
#************************************************************
#*                     MadGraph5_aMC@NLO                    *
#*                                                          *
#*                *                       *                 *
#*                  *        * *        *                   *
#*                    * * * * 5 * * * *                     *
#*                  *        * *        *                   *
#*                *                       *                 *
#*                                                          *
#*                                                          *
#*         VERSION 3.5.0                 2023-05-12         *
#*                                                          *
#*    The MadGraph5_aMC@NLO Development Team - Find us at   *
#*    https://server06.fynu.ucl.ac.be/projects/madgraph     *
#*                                                          *
#************************************************************
#*                                                          *
#*               Command File for MadGraph5_aMC@NLO         *
#*                                                          *
#*     run as ./bin/mg5_aMC  filename                       *
#*                                                          *
#************************************************************
set group_subprocesses Auto
set ignore_six_quark_processes False
set low_mem_multicore_nlo_generation False
set complex_mass_scheme False
set include_lepton_initiated_processes False
set gauge unitary
set loop_optimized_output True
set loop_color_flows False
set max_npoint_for_channel 0
set default_unset_couplings 99
set max_t_for_channel 99
set zerowidth_tchannel True
set nlo_mixed_expansion True
import model combined_beamdump
define l+ = e+ mu+
define l- = e- mu-
generate mu- ns > mu- ns phi
output /Users/sam/Documents/Research/BeamDumpBSM/calculations/madgraph\
/processes/test_madgraph_generation
]]>
</MG5ProcCard>
<MGProcCard>
#*********************************************************************
#                        MadGraph/MadEvent                           *
#                   http://madgraph.hep.uiuc.edu                     *
#                                                                    *
#                          proc_card.dat                             *
#*********************************************************************
#                                                                    *
#            This Files is generated by MADGRAPH 5                   *
#                                                                    *
# WARNING: This Files is generated for MADEVENT (compatibility issue)*
#          This files is NOT a valid MG4 proc_card.dat               *
#          Running this in MG4 will NEVER reproduce the result of MG5*
#                                                                    *
#*********************************************************************
#*********************************************************************
# Process(es) requested : mg2 input                                  *
#*********************************************************************
# Begin PROCESS # This is TAG. Do not modify this line
mu- ns > mu- ns phi           #Process
# Be carefull the coupling are here in MG5 convention
          
end_coup           # End the couplings input

done               # this tells MG there are no more procs
# End PROCESS  # This is TAG. Do not modify this line
#*********************************************************************
# Model information                                                  *
#*********************************************************************
# Begin MODEL  # This is TAG. Do not modify this line
combined_beamdump
# End   MODEL  # This is TAG. Do not modify this line
#*********************************************************************
# Start multiparticle definitions                                    *
#*********************************************************************
# Begin MULTIPARTICLES # This is TAG. Do not modify this line

# End  MULTIPARTICLES # This is TAG. Do not modify this line
</MGProcCard>
<MGRunCard>
<![CDATA[
#*********************************************************************
#                       MadGraph5_aMC@NLO                            *
#                                                                    *
#                     run_card.dat MadEvent                          *
#                                                                    *
#  This file is used to set the parameters of the run.               *
#                                                                    *
#  Some notation/conventions:                                        *
#                                                                    *
#   Lines starting with a '# ' are info or comments                  *
#                                                                    *
#   mind the format:   value    = variable     ! comment             *
#                                                                    *
#   To display more options, you can type the command:               *
#      update to_full                                                *
#*********************************************************************
#                                                                    
#*********************************************************************
# Tag name for the run (one word)                                    *
#*********************************************************************
  tag_1	= run_tag ! name of the run 
#*********************************************************************
# Number of events and rnd seed                                      *
# Warning: Do not generate more than 1M events in a single run       *
#*********************************************************************
  1000	= nevents ! Number of unweighted events requested 
 30 = iseed ! rnd seed (0=assigned automatically=default))
#*********************************************************************
# Collider type and energy                                           *
# lpp: 0=No PDF, 1=proton, -1=antiproton,                            *
#                2=elastic photon of proton/ion beam                 *
#             +/-3=PDF of electron/positron beam                     *
#             +/-4=PDF of muon/antimuon beam                         *
#*********************************************************************
  0	= lpp1 ! beam 1 type 
  0	= lpp2 ! beam 2 type
  500.0	= ebeam1 ! beam 1 total energy in GeV
  0.0	= ebeam2 ! beam 2 total energy in GeV
#*********************************************************************
# Beam polarization from -100 (left-handed) to 100 (right-handed)    *
#*********************************************************************
  0.0	= polbeam1 ! beam polarization for beam 1
  0.0	= polbeam2 ! beam polarization for beam 2


#*********************************************************************
# PDF CHOICE: this automatically fixes alpha_s and its evol.         *
# pdlabel: lhapdf=LHAPDF (installation needed) [1412.7420]           *
#          iww=Improved Weizsaecker-Williams Approx.[hep-ph/9310350] *
#          eva=Effective W/Z/A Approx.       [2111.02442]            *
#          edff=EDFF in gamma-UPC            [eq.(11) in 2207.03012] *
#          chff=ChFF in gamma-UPC            [eq.(13) in 2207.03012] *
#          none=No PDF, same as lhapdf with lppx=0                   *
#*********************************************************************
  none	= pdlabel1 ! PDF type for beam #1
  none	= pdlabel2 ! PDF type for beam #2
  230000	= lhaid ! if pdlabel=lhapdf, this is the lhapdf number
# To see heavy ion options: type "update ion_pdf"
#*********************************************************************
# Renormalization and factorization scales                           *
#*********************************************************************
  False	= fixed_ren_scale ! if .true. use fixed ren scale
  False	= fixed_fac_scale1 ! if .true. use fixed fac scale for beam 1
  False	= fixed_fac_scale2 ! if .true. use fixed fac scale for beam 2
  91.188	= scale ! fixed ren scale
  91.188	= dsqrt_q2fact1 ! fixed fact scale for pdf1
  91.188	= dsqrt_q2fact2 ! fixed fact scale for pdf2
  -1	= dynamical_scale_choice ! Choose one of the preselected dynamical choices
  1.0	= scalefact ! scale factor for event-by-event scales

 
#*********************************************************************
# Type and output format
#*********************************************************************
  False	= gridpack !True = setting up the grid pack
  -1.0	= time_of_flight ! threshold (in mm) below which the invariant livetime is not written (-1 means not written)
  average	= event_norm ! average/sum. Normalization of the weight in the LHEF
# To see MLM/CKKW  merging options: type "update MLM" or "update CKKW"

#*********************************************************************
#
#*********************************************************************
# Phase-Space Optimization strategy (basic options)
#*********************************************************************
  0	= nhel ! using helicities importance sampling or not.
                             ! 0: sum over helicity, 1: importance sampling
  2	= sde_strategy ! default integration strategy (hep-ph/2021.00773)
                             ! 1 is old strategy (using amp square)
			     ! 2 is new strategy (using only the denominator)
# To see advanced option for Phase-Space optimization: type "update psoptim"			     
#*********************************************************************
# Customization (custom cuts/scale/bias/...)                         *
# list of files containing fortran function that overwrite default   *
#*********************************************************************
  	= custom_fcts ! List of files containing user hook function
#*******************************                                                 
# Parton level cuts definition *
#*******************************
  0.0	= dsqrt_shat ! minimal shat for full process
#                                                                    
#
#*********************************************************************
# BW cutoff (M+/-bwcutoff*Gamma) ! Define on/off-shell for "$" and decay  
#*********************************************************************
  15.0	= bwcutoff ! (M+/-bwcutoff*Gamma)
#*********************************************************************
# Standard Cuts                                                      *
#*********************************************************************
# Minimum and maximum pt's (for max, -1 means no cut)                *
#*********************************************************************
  10.0	= ptl ! minimum pt for the charged leptons 
  -1.0	= ptlmax ! maximum pt for the charged leptons
  {}	= pt_min_pdg ! pt cut for other particles (use pdg code). Applied on particle and anti-particle
  {}	= pt_max_pdg ! pt cut for other particles (syntax e.g. {6: 100, 25: 50}) 
#
# For display option for energy cut in the partonic center of mass frame type 'update ecut'
#
#*********************************************************************
# Maximum and minimum absolute rapidity (for max, -1 means no cut)   *
#*********************************************************************
  2.5	= etal ! max rap for the charged leptons 
  0.0	= etalmin ! main rap for the charged leptons
  {}	= eta_min_pdg ! rap cut for other particles (use pdg code). Applied on particle and anti-particle
  {}	= eta_max_pdg ! rap cut for other particles (syntax e.g. {6: 2.5, 23: 5})
#*********************************************************************
# Minimum and maximum DeltaR distance                                *
#*********************************************************************
#*********************************************************************
# Minimum and maximum invariant mass for pairs                       *
#*********************************************************************
  {}	= mxx_min_pdg ! min invariant mass of a pair of particles X/X~ (e.g. {6:250})
  {'default': False}	= mxx_only_part_antipart ! if True the invariant mass is applied only 
                       ! to pairs of particle/antiparticle and not to pairs of the same pdg codes.  
#*********************************************************************
# Inclusive cuts                                                     *
#*********************************************************************
  0.0	= ptheavy ! minimum pt for at least one heavy final state
#*********************************************************************
# maximal pdg code for quark to be considered as a light jet         *
# (otherwise b cuts are applied)                                     *
#*********************************************************************
  4	= maxjetflavor ! Maximum jet pdg code
#*********************************************************************
#
#*********************************************************************
# Store info for systematics studies                                 *
# WARNING: Do not use for interference type of computation           *
#*********************************************************************
  False	= use_syst ! Enable systematics studies
#
  systematics	= systematics_program ! none, systematics [python], SysCalc [depreceted, C++]
  ['--mur=0.5,1,2', '--muf=0.5,1,2', '--pdf=errorset']	= systematics_arguments ! see: https://cp3.irmp.ucl.ac.be/projects/madgraph/wiki/Systematics#Systematicspythonmodule
]]>
</MGRunCard>
<slha>
######################################################################
## PARAM_CARD AUTOMATICALY GENERATED BY MG5                       ####
######################################################################
###################################
## INFORMATION FOR FRBLOCK
###################################
BLOCK FRBLOCK # 
      1 1.000000e+00 # alphaem
      2 1.000000e+00 # yse
      3 1.000000e+00 # ysmu
      4 1.000000e+00 # yphie
      5 1.000000e+00 # yphimu
      6 1.000000e+00 # gprimakoff
      7 1.000000e+00 # gvel
      8 1.000000e+00 # gvmu
      9 1.000000e+00 # guel
      10 1.000000e+00 # gumu
###################################
## INFORMATION FOR MASS
###################################
BLOCK MASS # 
      11 5.110000e-04 # mel
      13 1.056600e-01 # mmu
      994 1.310000e+02 # mns
      995 1.270000e+02 # mnf
      996 1.033000e+03 # ms
      997 20 # mphi
      998 1.181000e+03 # mv
      999 1.103000e+03 # mu
      22 0.000000e+00 # a : 0.0
###################################
## INFORMATION FOR DECAY
###################################
DECAY 11 0.000000e+00 # e- : 0.0
DECAY 13 0.000000e+00 # mu- : 0.0
DECAY 22 0.000000e+00 # a : 0.0
DECAY 994 0.000000e+00 # ns : 0.0
DECAY 995 0.000000e+00 # nf : 0.0
DECAY 996 0.000000e+00 # s : 0.0
DECAY 997 0.000000e+00 # phi : 0.0
DECAY 998 0.000000e+00 # v : 0.0
DECAY 999 0.000000e+00 # u : 0.0
###################################
## INFORMATION FOR QNUMBERS 994
###################################
BLOCK QNUMBERS 994 #    ns
      1 3 # 3 times electric charge
      2 1 # number of spin states (2s+1)
      3 1 # colour rep (1: singlet, 3: triplet, 8: octet)
      4 1 # particle/antiparticle distinction (0=own anti)
###################################
## INFORMATION FOR QNUMBERS 995
###################################
BLOCK QNUMBERS 995 #    nf
      1 3 # 3 times electric charge
      2 2 # number of spin states (2s+1)
      3 1 # colour rep (1: singlet, 3: triplet, 8: octet)
      4 1 # particle/antiparticle distinction (0=own anti)
###################################
## INFORMATION FOR QNUMBERS 996
###################################
BLOCK QNUMBERS 996 #    s
      1 0 # 3 times electric charge
      2 1 # number of spin states (2s+1)
      3 1 # colour rep (1: singlet, 3: triplet, 8: octet)
      4 0 # particle/antiparticle distinction (0=own anti)
###################################
## INFORMATION FOR QNUMBERS 997
###################################
BLOCK QNUMBERS 997 #    phi
      1 0 # 3 times electric charge
      2 1 # number of spin states (2s+1)
      3 1 # colour rep (1: singlet, 3: triplet, 8: octet)
      4 0 # particle/antiparticle distinction (0=own anti)
###################################
## INFORMATION FOR QNUMBERS 998
###################################
BLOCK QNUMBERS 998 #    v
      1 0 # 3 times electric charge
      2 3 # number of spin states (2s+1)
      3 1 # colour rep (1: singlet, 3: triplet, 8: octet)
      4 0 # particle/antiparticle distinction (0=own anti)
###################################
## INFORMATION FOR QNUMBERS 999
###################################
BLOCK QNUMBERS 999 #    u
      1 0 # 3 times electric charge
      2 3 # number of spin states (2s+1)
      3 1 # colour rep (1: singlet, 3: triplet, 8: octet)
      4 0 # particle/antiparticle distinction (0=own anti)
</slha>
<MGGenerationInfo>
#  Number of Events        :       1000
#  Integrated weight (pb)  :       2.33752e-06
</MGGenerationInfo>
</header>
<init>
13 994 5.000000e+02 0.000000e+00 0 0 0 0 -4 1
2.337520e-06 2.551322e-08 2.337520e-06 1
<generator name='MadGraph5_aMC@NLO' version='3.5.0'>please cite 1405.0301 </generator>
</init>
<event>
 5      1 +2.3375200e-06 2.12602800e+02 7.95774700e-02 4.82247400e-01
       13 -1    0    0    0    0 +0.0000000000e+00 +0.0000000000e+00 +4.9999998884e+02 5.0000000000e+02 1.0566000000e-01 0.0000e+00 -1.0000e+00
      994 -1    0    0    0    0 -0.0000000000e+00 -0.0000000000e+00 +0.0000000000e+00 1.3100000000e+02 1.3100000000e+02 0.0000e+00 0.0000e+00
       13  1    1    2    0    0 -3.3818141247e+00 +1.1362626788e+01 +4.6791851054e+01 4.8270430321e+01 1.0566000000e-01 0.0000e+00 1.0000e+00
      994  1    1    2    0    0 +6.3923033186e+00 -1.5918892204e+01 +3.1108145020e+00 1.3215502199e+02 1.3100000000e+02 0.0000e+00 0.0000e+00
      997  1    1    2    0    0 -3.0104891939e+00 +4.5562654158e+00 +4.5009732328e+02 4.5057454769e+02 2.0000000000e+01 0.0000e+00 0.0000e+00
</event>
<event>
 5      1 +2.3375200e-06 2.09605600e+02 7.95774700e-02 4.87108600e-01
       13 -1    0    0    0    0 +0.0000000000e+00 +0.0000000000e+00 +4.9999998884e+02 5.0000000000e+02 1.0566000000e-01 0.0000e+00 -1.0000e+00
      994 -1    0    0    0    0 -0.0000000000e+00 -0.0000000000e+00 +0.0000000000e+00 1.3100000000e+02 1.3100000000e+02 0.0000e+00 0.0000e+00
       13  1    1    2    0    0 +9.7500770007e+00 +6.7249353044e+00 +1.6906197395e+01 2.0642660458e+01 1.0566000000e-01 0.0000e+00 1.0000e+00
      994  1    1    2    0    0 -1.4795794432e+01 -1.6797605271e+00 +5.1521819599e+00 1.3194423863e+02 1.3100000000e+02 0.0000e+00 0.0000e+00
      997  1    1    2    0    0 +5.0457174311e+00 -5.0451747773e+00 +4.7794160948e+02 4.7841310091e+02 2.0000000000e+01 0.0000e+00 0.0000e+00
</event>
<event>
 5      1 +2.3375200e-06 2.06929100e+02 7.95774700e-02 4.91601100e-01
       13 -1    0    0    0    0 +0.0000000000e+00 +0.0000000000e+00 +4.9999998884e+02 5.0000000000e+02 1.0566000000e-01 0.0000e+00 1.0000e+00
      994 -1    0    0    0    0 -0.0000000000e+00 -0.0000000000e+00 +0.0000000000e+00 1.3100000000e+02 1.3100000000e+02 0.0000e+00 0.0000e+00
       13  1    1    2    0    0 +1.4310245611e+01 +1.8818292061e+01 +5.4282911555e+01 5.9207743552e+01 1.0566000000e-01 0.0000e+00 -1.0000e+00
      994  1    1    2    0    0 -8.7542209389e+00 +7.4488906427e+00 +6.8833727647e+00 1.3168334434e+02 1.3100000000e+02 0.0000e+00 0.0000e+00
      997  1    1    2    0    0 -5.5560246722e+00 -2.6267182704e+01 +4.3883370452e+02 4.4010891211e+02 2.0000000000e+01 0.0000e+00 0.0000e+00
</event>
<event>
 5      1 +2.3375200e-06 2.10242400e+02 7.95774700e-02 4.86061100e-01
       13 -1    0    0    0    0 +0.0000000000e+00 +0.0000000000e+00 +4.9999998884e+02 5.0000000000e+02 1.0566000000e-01 0.0000e+00 -1.0000e+00
      994 -1    0    0    0    0 -0.0000000000e+00 -0.0000000000e+00 +0.0000000000e+00 1.3100000000e+02 1.3100000000e+02 0.0000e+00 0.0000e+00
       13  1    1    2    0    0 +2.4645636599e+01 +8.8611395943e+00 +1.4507484201e+02 1.4741997200e+02 1.0566000000e-01 0.0000e+00 1.0000e+00
      994  1    1    2    0    0 -1.5345211097e+00 -1.5867703827e+01 +4.8001072528e+00 1.3205370048e+02 1.3100000000e+02 0.0000e+00 0.0000e+00
      997  1    1    2    0    0 -2.3111115489e+01 +7.0065642322e+00 +3.5012503958e+02 3.5152632752e+02 2.0000000000e+01 0.0000e+00 0.0000e+00
</event>
<event>
 5      1 +2.3375200e-06 2.09249600e+02 7.95774700e-02 4.87697800e-01
       13 -1    0    0    0    0 +0.0000000000e+00 +0.0000000000e+00 +4.9999998884e+02 5.0000000000e+02 1.0566000000e-01 0.0000e+00 1.0000e+00
      994 -1    0    0    0    0 -0.0000000000e+00 -0.0000000000e+00 +0.0000000000e+00 1.3100000000e+02 1.3100000000e+02 0.0000e+00 0.0000e+00
       13  1    1    2    0    0 -9.4476064568e+00 -1.3823610515e+01 +4.7373455449e+01 5.0245446765e+01 1.0566000000e-01 0.0000e+00 -1.0000e+00
      994  1    1    2    0    0 -1.2021776323e+01 -1.1292269639e+01 +5.6947294763e+00 1.3215698394e+02 1.3100000000e+02 0.0000e+00 0.0000e+00
      997  1    1    2    0    0 +2.1469382780e+01 +2.5115880153e+01 +4.4693180391e+02 4.4859756930e+02 2.0000000000e+01 0.0000e+00 0.0000e+00
</event>
<event>
 5      1 +2.3375200e-06 2.09390200e+02 7.95774700e-02 4.87464800e-01
       13 -1    0    0    0    0 +0.0000000000e+00 +0.0000000000e+00 +4.9999998884e+02 5.0000000000e+02 1.0566000000e-01 0.0000e+00 1.0000e+00
      994 -1    0    0    0    0 -0.0000000000e+00 -0.0000000000e+00 +0.0000000000e+00 1.3100000000e+02 1.3100000000e+02 0.0000e+00 0.0000e+00
       13  1    1    2    0    0 +2.4572847218e+01 -1.5538704981e+01 +8.1061180546e+01 8.6117375299e+01 1.0566000000e-01 0.0000e+00 -1.0000e+00
      994  1    1    2    0    0 -3.6682358842e+01 +1.2708466193e+01 +1.1884024527e+01 1.3714711299e+02 1.3100000000e+02 0.0000e+00 0.0000e+00
      997  1    1    2    0    0 +1.2109511624e+01 +2.8302387882e+00 +4.0705478376e+02 4.0773551171e+02 2.0000000000e+01 0.0000e+00 0.0000e+00
</event>
<event>
 5      1 +2.3375200e-06 2.10958700e+02 7.95774700e-02 4.84892400e-01
       13 -1    0    0    0    0 +0.0000000000e+00 +0.0000000000e+00 +4.9999998884e+02 5.0000000000e+02 1.0566000000e-01 0.0000e+00 1.0000e+00
      994 -1    0    0    0    0 -0.0000000000e+00 -0.0000000000e+00 +0.0000000000e+00 1.3100000000e+02 1.3100000000e+02 0.0000e+00 0.0000e+00
       13  1    1    2    0    0 -1.9611637204e+01 -2.9055264389e+01 +1.0251420038e+02 1.0834203776e+02 1.0566000000e-01 0.0000e+00 -1.0000e+00
      994  1    1    2    0    0 +4.5974083198e+01 +4.9935779572e+01 +2.6851436113e+01 1.4996398911e+02 1.3100000000e+02 0.0000e+00 0.0000e+00
      997  1    1    2    0    0 -2.6362445994e+01 -2.0880515184e+01 +3.7063435234e+02 3.7269397313e+02 2.0000000000e+01 0.0000e+00 0.0000e+00
</event>
<event>
 5      1 +2.3375200e-06 2.10896900e+02 7.95774700e-02 4.84992800e-01
       13 -1    0    0    0    0 +0.0000000000e+00 +0.0000000000e+00 +4.9999998884e+02 5.0000000000e+02 1.0566000000e-01 0.0000e+00 -1.0000e+00
      994 -1    0    0    0    0 -0.0000000000e+00 -0.0000000000e+00 +0.0000000000e+00 1.3100000000e+02 1.3100000000e+02 0.0000e+00 0.0000e+00
       13  1    1    2    0    0 -1.5065028929e+01 -1.0652554942e+01 +7.1963329501e+01 7.4291076047e+01 1.0566000000e-01 0.0000e+00 1.0000e+00
      994  1    1    2    0    0 +9.3990083360e+00 -3.7773783376e+00 +3.5194334998e+00 1.3143818455e+02 1.3100000000e+02 0.0000e+00 0.0000e+00
      997  1    1    2    0    0 +5.6660205925e+00 +1.4429933279e+01 +4.2451722584e+02 4.2527073941e+02 2.0000000000e+01 0.0000e+00 0.0000e+00
</event>
<event>
 5      1 +2.3375200e-06 2.10132200e+02 7.95774700e-02 4.86241800e-01
       13 -1    0    0    0    0 +0.0000000000e+00 +0.0000000000e+00 +4.9999998884e+02 5.0000000000e+02 1.0566000000e-01 0.0000e+00 1.0000e+00
      994 -1    0    0    0    0 -0.0000000000e+00 -0.0000000000e+00 +0.0000000000e+00 1.3100000000e+02 1.3100000000e+02 0.0000e+00 0.0000e+00
       13  1    1    2    0    0 +1.1130517058e+01 +1.1712649392e+00 +1.3939895211e+01 1.7877139426e+01 1.0566000000e-01 0.0000e+00 -1.0000e+00
      994  1    1    2    0    0 -3.4123293470e+01 -4.8400860424e+01 +2.1722507820e+01 1.4539570074e+02 1.3100000000e+02 0.0000e+00 0.0000e+00
      997  1    1    2    0    0 +2.2992776412e+01 +4.7229595485e+01 +4.6433758581e+02 4.6772715984e+02 2.0000000000e+01 0.0000e+00 0.0000e+00
</event>
<event>
 5      1 +2.3375200e-06 2.12665600e+02 7.95774700e-02 4.82147400e-01
       13 -1    0    0    0    0 +0.0000000000e+00 +0.0000000000e+00 +4.9999998884e+02 5.0000000000e+02 1.0566000000e-01 0.0000e+00 1.0000e+00
      994 -1    0    0    0    0 -0.0000000000e+00 -0.0000000000e+00 +0.0000000000e+00 1.3100000000e+02 1.3100000000e+02 0.0000e+00 0.0000e+00
       13  1    1    2    0    0 -1.5373166308e+01 -3.9851289760e+00 +7.3356159466e+01 7.5055664616e+01 1.0566000000e-01 0.0000e+00 -1.0000e+00
      994  1    1    2    0    0 +2.4952560778e+01 +6.8715229591e+00 +4.9145971496e+00 1.3362260805e+02 1.3100000000e+02 0.0000e+00 0.0000e+00
      997  1    1    2    0    0 -9.5793944697e+00 -2.8863939830e+00 +4.2172923222e+02 4.2232172733e+02 2.0000000000e+01 0.0000e+00 0.0000e+00
</event>
<event>
 5      1 +2.3375200e-06 2.09937100e+02 7.95774700e-02 4.86562200e-01
       13 -1    0    0    0    0 +0.0000000000e+00 +0.0000000000e+00 +4.9999998884e+02 5.0000000000e+02 1.0566000000e-01 0.0000e+00 -1.0000e+00
      994 -1    0    0    0    0 -0.0000000000e+00 -0.0000000000e+00 +0.0000000000e+00 1.3100000000e+02 1.3100000000e+02 0.0000e+00 0.0000e+00
       13  1    1    2    0    0 -1.7548012338e+01 +8.1557339538e+00 +7.7925921038e+01 8.0292646406e+01 1.0566000000e-01 0.0000e+00 1.0000e+00
      994  1    1    2    0    0 -6.5810353940e+00 +7.0437874619e+00 +4.2385764326e+00 1.3142256465e+02 1.3100000000e+02 0.0000e+00 0.0000e+00
      997  1    1    2    0    0 +2.4129047732e+01 -1.5199521416e+01 +4.1783549137e+02 4.1928478895e+02 2.0000000000e+01 0.0000e+00 0.0000e+00
</event>
<event>
 5      1 +2.3375200e-06 2.11830300e+02 7.95774700e-02 4.83483800e-01
       13 -1    0    0    0    0 +0.0000000000e+00 +0.0000000000e+00 +4.9999998884e+02 5.0000000000e+02 1.0566000000e-01 0.0000e+00 1.0000e+00
      994 -1    0    0    0    0 -0.0000000000e+00 -0.0000000000e+00 +0.0000000000e+00 1.3100000000e+02 1.3100000000e+02 0.0000e+00 0.0000e+00
       13  1    1    2    0    0 +2.1339592980e+01 -3.8334616033e-01 +6.6859687772e+01 7.0183717455e+01 1.0566000000e-01 0.0000e+00 -1.0000e+00
      994  1    1    2    0    0 -4.7944044453e+01 +1.2665846783e+01 +1.4662072261e+01 1.4083689657e+02 1.3100000000e+02 0.0000e+00 0.0000e+00
      997  1    1    2    0    0 +2.6604451473e+01 -1.2282500623e+01 +4.1847822880e+02 4.1997938597e+02 2.0000000000e+01 0.0000e+00 0.0000e+00
</event>
<event>
 5      1 +2.3375200e-06 2.10409400e+02 7.95774700e-02 4.85787600e-01
       13 -1    0    0    0    0 +0.0000000000e+00 +0.0000000000e+00 +4.9999998884e+02 5.0000000000e+02 1.0566000000e-01 0.0000e+00 1.0000e+00
      994 -1    0    0    0    0 -0.0000000000e+00 -0.0000000000e+00 +0.0000000000e+00 1.3100000000e+02 1.3100000000e+02 0.0000e+00 0.0000e+00
       13  1    1    2    0    0 +5.8119904601e+00 +8.2782662625e+00 +1.6466792612e+01 1.9325510301e+01 1.0566000000e-01 0.0000e+00 -1.0000e+00
      994  1    1    2    0    0 +5.3467573643e+00 -5.4355367308e+00 +3.6868303238e+00 1.3127347634e+02 1.3100000000e+02 0.0000e+00 0.0000e+00
      997  1    1    2    0    0 -1.1158747824e+01 -2.8427295317e+00 +4.7984636590e+02 4.8040101335e+02 2.0000000000e+01 0.0000e+00 0.0000e+00
</event>
<event>
 5      1 +2.3375200e-06 2.09924200e+02 7.95774700e-02 4.86583500e-01
       13 -1    0    0    0    0 +0.0000000000e+00 +0.0000000000e+00 +4.9999998884e+02 5.0000000000e+02 1.0566000000e-01 0.0000e+00 1.0000e+00
      994 -1    0    0    0    0 -0.0000000000e+00 -0.0000000000e+00 +0.0000000000e+00 1.3100000000e+02 1.3100000000e+02 0.0000e+00 0.0000e+00
       13  1    1    2    0    0 -1.0235466562e+01 -4.9909216547e+00 +1.7766334254e+01 2.1102792980e+01 1.0566000000e-01 0.0000e+00 -1.0000e+00
      994  1    1    2    0    0 +1.4049706100e+00 +1.2648136701e+01 +4.5947011617e+00 1.3169685108e+02 1.3100000000e+02 0.0000e+00 0.0000e+00
      997  1    1    2    0    0 +8.8304959519e+00 -7.6572150464e+00 +4.7763895342e+02 4.7820035594e+02 2.0000000000e+01 0.0000e+00 0.0000e+00
</event>
<event>
 5      1 +2.3375200e-06 2.08987400e+02 7.95774700e-02 4.88133200e-01
       13 -1    0    0    0    0 +0.0000000000e+00 +0.0000000000e+00 +4.9999998884e+02 5.0000000000e+02 1.0566000000e-01 0.0000e+00 1.0000e+00
      994 -1    0    0    0    0 -0.0000000000e+00 -0.0000000000e+00 +0.0000000000e+00 1.3100000000e+02 1.3100000000e+02 0.0000e+00 0.0000e+00
       13  1    1    2    0    0 -1.0422833361e+01 -1.1943573025e+01 +3.3051987320e+01 3.6656915060e+01 1.0566000000e-01 0.0000e+00 -1.0000e+00
      994  1    1    2    0    0 -6.7144297578e+00 +1.8186363061e-01 +4.7626611027e+00 1.3125852194e+02 1.3100000000e+02 0.0000e+00 0.0000e+00
      997  1    1    2    0    0 +1.7137263119e+01 +1.1761709394e+01 +4.6218534041e+02 4.6308456300e+02 2.0000000000e+01 0.0000e+00 0.0000e+00
</event>
<event>
 5      1 +2.3375200e-06 2.02056600e+02 7.95774700e-02 5.00173000e-01
       13 -1    0    0    0    0 +0.0000000000e+00 +0.0000000000e+00 +4.9999998884e+02 5.0000000000e+02 1.0566000000e-01 0.0000e+00 -1.0000e+00
      994 -1    0    0    0    0 -0.0000000000e+00 -0.0000000000e+00 +0.0000000000e+00 1.3100000000e+02 1.3100000000e+02 0.0000e+00 0.0000e+00
       13  1    1    2    0    0 +6.2922662462e+00 -2.2455149872e+01 +1.5827964837e+01 2.8184428417e+01 1.0566000000e-01 0.0000e+00 1.0000e+00
      994  1    1    2    0    0 +2.7569496124e+00 +6.6724129986e+01 +3.5281236007e+01 1.5121334567e+02 1.3100000000e+02 0.0000e+00 0.0000e+00
      997  1    1    2    0    0 -9.0492158586e+00 -4.4268980114e+01 +4.4889078799e+02 4.5160222592e+02 2.0000000000e+01 0.0000e+00 0.0000e+00
</event>
<event>
 5      1 +2.3375200e-06 2.03279400e+02 7.95774700e-02 4.97972000e-01
       13 -1    0    0    0    0 +0.0000000000e+00 +0.0000000000e+00 +4.9999998884e+02 5.0000000000e+02 1.0566000000e-01 0.0000e+00 1.0000e+00
      994 -1    0    0    0    0 -0.0000000000e+00 -0.0000000000e+00 +0.0000000000e+00 1.3100000000e+02 1.3100000000e+02 0.0000e+00 0.0000e+00
       13  1    1    2    0    0 -1.1747753300e+01 +2.0517685791e+01 +2.3004014343e+01 3.2987588237e+01 1.0566000000e-01 0.0000e+00 -1.0000e+00
      994  1    1    2    0    0 +5.6144864447e-01 -4.5643556625e+01 +2.0476565679e+01 1.4022816845e+02 1.3100000000e+02 0.0000e+00 0.0000e+00
      997  1    1    2    0    0 +1.1186304655e+01 +2.5125870835e+01 +4.5651940881e+02 4.5778424331e+02 2.0000000000e+01 0.0000e+00 0.0000e+00
</event>
<event>
 5      1 +2.3375200e-06 2.11256900e+02 7.95774700e-02 4.84408800e-01
       13 -1    0    0    0    0 +0.0000000000e+00 +0.0000000000e+00 +4.9999998884e+02 5.0000000000e+02 1.0566000000e-01 0.0000e+00 1.0000e+00
      994 -1    0    0    0    0 -0.0000000000e+00 -0.0000000000e+00 +0.0000000000e+00 1.3100000000e+02 1.3100000000e+02 0.0000e+00 0.0000e+00
       13  1    1    2    0    0 -1.1140898951e+01 +1.9944482595e+01 +1.3380185073e+02 1.3573816132e+02 1.0566000000e-01 0.0000e+00 -1.0000e+00
      994  1    1    2    0    0 -4.2446331498e+00 -1.2793796969e+01 +3.6251911212e+00 1.3174156581e+02 1.3100000000e+02 0.0000e+00 0.0000e+00
      997  1    1    2    0    0 +1.5385532100e+01 -7.1506856263e+00 +3.6257294699e+02 3.6352027287e+02 2.0000000000e+01 0.0000e+00 0.0000e+00
</event>
<event>
 5      1 +2.3375200e-06 2.00636000e+02 7.95774700e-02 5.02773700e-01
       13 -1    0    0    0    0 +0.0000000000e+00 +0.0000000000e+00 +4.9999998884e+02 5.0000000000e+02 1.0566000000e-01 0.0000e+00 -1.0000e+00
      994 -1    0    0    0    0 -0.0000000000e+00 -0.0000000000e+00 +0.0000000000e+00 1.3100000000e+02 1.3100000000e+02 0.0000e+00 0.0000e+00
       13  1    1    2    0    0 +3.7795509500e+01 +3.4496722949e+00 +7.2602799543e+01 8.1924223785e+01 1.0566000000e-01 0.0000e+00 1.0000e+00
      994  1    1    2    0    0 -4.0876145887e+00 -3.2591144132e+01 +1.7390374109e+01 1.3617017434e+02 1.3100000000e+02 0.0000e+00 0.0000e+00
      997  1    1    2    0    0 -3.3707894912e+01 +2.9141471837e+01 +4.1000681518e+02 4.1290560187e+02 2.0000000000e+01 0.0000e+00 0.0000e+00
</event>
<event>
 5      1 +2.3375200e-06 2.07401100e+02 7.95774700e-02 4.90798200e-01
       13 -1    0    0    0    0 +0.0000000000e+00 +0.0000000000e+00 +4.9999998884e+02 5.0000000000e+02 1.0566000000e-01 0.0000e+00 1.0000e+00
      994 -1    0    0    0    0 -0.0000000000e+00 -0.0000000000e+00 +0.0000000000e+00 1.3100000000e+02 1.3100000000e+02 0.0000e+00 0.0000e+00
       13  1    1    2    0    0 +7.7937335660e+00 -3.3189315226e+01 +1.8742632674e+02 1.9050173765e+02 1.0566000000e-01 0.0000e+00 -1.0000e+00
      994  1    1    2    0    0 +4.5682213539e+00 +4.4401642093e-01 +5.9281696662e+00 1.3121436275e+02 1.3100000000e+02 0.0000e+00 0.0000e+00
      997  1    1    2    0    0 -1.2361954920e+01 +3.2745298805e+01 +3.0664549243e+02 3.0928389960e+02 2.0000000000e+01 0.0000e+00 0.0000e+00
</event>
<event>
 5      1 +2.3375200e-06 2.12203600e+02 7.95774700e-02 4.82884800e-01
       13 -1    0    0    0    0 +0.0000000000e+00 +0.0000000000e+00 +4.9999998884e+02 5.0000000000e+02 1.0566000000e-01 0.0000e+00 1.0000e+00
      994 -1    0    0    0    0 -0.0000000000e+00 -0.0000000000e+00 +0.0000000000e+00 1.3100000000e+02 1.3100000000e+02 0.0000e+00 0.0000e+00
       13  1    1    2    0    0 -1.5002346873e+01 +1.5993251027e+01 +1.3118651537e+02 1.3300664446e+02 1.0566000000e-01 0.0000e+00 -1.0000e+00
      994  1    1    2    0    0 +2.3466994171e+01 -6.9886915885e+00 +4.9390084034e+00 1.3336017183e+02 1.3100000000e+02 0.0000e+00 0.0000e+00
      997  1    1    2    0    0 -8.4646472987e+00 -9.0045594384e+00 +3.6387446506e+02 3.6463318372e+02 2.0000000000e+01 0.0000e+00 0.0000e+00
</event>
<event>
 5      1 +2.3375200e-06 2.06861800e+02 7.95774700e-02 4.91715900e-01
       13 -1    0    0    0    0 +0.0000000000e+00 +0.0000000000e+00 +4.9999998884e+02 5.0000000000e+02 1.0566000000e-01 0.0000e+00 1.0000e+00
      994 -1    0    0    0    0 -0.0000000000e+00 -0.0000000000e+00 +0.0000000000e+00 1.3100000000e+02 1.3100000000e+02 0.0000e+00 0.0000e+00
       13  1    1    2    0    0 +1.3537908891e+01 +1.8762940187e+01 +4.0494448785e+01 4.6638336678e+01 1.0566000000e-01 0.0000e+00 -1.0000e+00
      994  1    1    2    0    0 -4.7298156225e+01 +6.1828698390e+00 +1.8181456901e+01 1.4059483930e+02 1.3100000000e+02 0.0000e+00 0.0000e+00
      997  1    1    2    0    0 +3.3760247333e+01 -2.4945810026e+01 +4.4132408315e+02 4.4376682403e+02 2.0000000000e+01 0.0000e+00 0.0000e+00
</event>
<event>
 5      1 +2.3375200e-06 2.06596900e+02 7.95774700e-02 4.92169100e-01
       13 -1    0    0    0    0 +0.0000000000e+00 +0.0000000000e+00 +4.9999998884e+02 5.0000000000e+02 1.0566000000e-01 0.0000e+00 -1.0000e+00
      994 -1    0    0    0    0 -0.0000000000e+00 -0.0000000000e+00 +0.0000000000e+00 1.3100000000e+02 1.3100000000e+02 0.0000e+00 0.0000e+00
       13  1    1    2    0    0 +7.6325749209e-01 +1.1921898631e+01 +1.0844326594e+01 1.6134584354e+01 1.0566000000e-01 0.0000e+00 1.0000e+00
      994  1    1    2    0    0 +1.5491520567e+01 +1.8414934908e+01 +9.4670290264e+00 1.3352798087e+02 1.3100000000e+02 0.0000e+00 0.0000e+00
      997  1    1    2    0    0 -1.6254778059e+01 -3.0336833538e+01 +4.7968863322e+02 4.8133743477e+02 2.0000000000e+01 0.0000e+00 0.0000e+00
</event>
<event>
 5      1 +2.3375200e-06 1.93819100e+02 7.95774700e-02 5.15951500e-01
       13 -1    0    0    0    0 +0.0000000000e+00 +0.0000000000e+00 +4.9999998884e+02 5.0000000000e+02 1.0566000000e-01 0.0000e+00 1.0000e+00
      994 -1    0    0    0    0 -0.0000000000e+00 -0.0000000000e+00 +0.0000000000e+00 1.3100000000e+02 1.3100000000e+02 0.0000e+00 0.0000e+00
       13  1    1    2    0    0 +1.8448935375e+01 +5.6621115647e+00 +5.9741898068e-01 1.9307791104e+01 1.0566000000e-01 0.0000e+00 -1.0000e+00
      994  1    1    2    0    0 -2.3734382593e+01 +1.1595456786e+01 +2.4301969523e+01 1.3582842581e+02 1.3100000000e+02 0.0000e+00 0.0000e+00
      997  1    1    2    0    0 +5.2854472181e+00 -1.7257568351e+01 +4.7510060033e+02 4.7586378309e+02 2.0000000000e+01 0.0000e+00 0.0000e+00
</event>
<event>
 5      1 +2.3375200e-06 2.12035400e+02 7.95774700e-02 4.83154300e-01
       13 -1    0    0    0    0 +0.0000000000e+00 +0.0000000000e+00 +4.9999998884e+02 5.0000000000e+02 1.0566000000e-01 0.0000e+00 1.0000e+00
      994 -1    0    0    0    0 -0.0000000000e+00 -0.0000000000e+00 +0.0000000000e+00 1.3100000000e+02 1.3100000000e+02 0.0000e+00 0.0000e+00
       13  1    1    2    0    0 +7.0143798488e+00 +1.1281178836e+01 +5.0406227161e+01 5.2127396072e+01 1.0566000000e-01 0.0000e+00 -1.0000e+00
      994  1    1    2    0    0 -2.5687611201e+00 -9.5273628638e+00 +2.5905305852e+00 1.3139665150e+02 1.3100000000e+02 0.0000e+00 0.0000e+00
      997  1    1    2    0    0 -4.4456187288e+00 -1.7538159721e+00 +4.4700323109e+02 4.4747595243e+02 2.0000000000e+01 0.0000e+00 0.0000e+00
</event>
<event>
 5      1 +2.3375200e-06 2.06813100e+02 7.95774700e-02 4.91799200e-01
       13 -1    0    0    0    0 +0.0000000000e+00 +0.0000000000e+00 +4.9999998884e+02 5.0000000000e+02 1.0566000000e-01 0.0000e+00 1.0000e+00
      994 -1    0    0    0    0 -0.0000000000e+00 -0.0000000000e+00 +0.0000000000e+00 1.3100000000e+02 1.3100000000e+02 0.0000e+00 0.0000e+00
       13  1    1    2    0    0 +9.5569892073e+00 -4.6549194711e+00 +6.4341718514e+00 1.2426344975e+01 1.0566000000e-01 0.0000e+00 -1.0000e+00
      994  1    1    2    0    0 -1.9793591182e+01 -3.5809315534e+00 +8.3820102042e+00 1.3280010323e+02 1.3100000000e+02 0.0000e+00 0.0000e+00
      997  1    1    2    0    0 +1.0236601975e+01 +8.2358510245e+00 +4.8518380678e+02 4.8577355180e+02 2.0000000000e+01 0.0000e+00 0.0000e+00
</event>
<event>
 5      1 +2.3375200e-06 2.12343000e+02 7.95774700e-02 4.82662000e-01
       13 -1    0    0    0    0 +0.0000000000e+00 +0.0000000000e+00 +4.9999998884e+02 5.0000000000e+02 1.0566000000e-01 0.0000e+00 -1.0000e+00
      994 -1    0    0    0    0 -0.0000000000e+00 -0.0000000000e+00 +0.0000000000e+00 1.3100000000e+02 1.3100000000e+02 0.0000e+00 0.0000e+00
       13  1    1    2    0    0 +1.1548850498e+01 -1.0668804171e+01 +6.3652802457e+01 6.5565919157e+01 1.0566000000e-01 0.0000e+00 1.0000e+00
      994  1    1    2    0    0 -3.2742466825e+01 +3.0581652104e+00 +7.2264150003e+00 1.3525768955e+02 1.3100000000e+02 0.0000e+00 0.0000e+00
      997  1    1    2    0    0 +2.1193616327e+01 +7.6106389602e+00 +4.2912077138e+02 4.3017639129e+02 2.0000000000e+01 0.0000e+00 0.0000e+00
</event>
<event>
 5      1 +2.3375200e-06 2.07771700e+02 7.95774700e-02 4.90170800e-01
       13 -1    0    0    0    0 +0.0000000000e+00 +0.0000000000e+00 +4.9999998884e+02 5.0000000000e+02 1.0566000000e-01 0.0000e+00 -1.0000e+00
      994 -1    0    0    0    0 -0.0000000000e+00 -0.0000000000e+00 +0.0000000000e+00 1.3100000000e+02 1.3100000000e+02 0.0000e+00 0.0000e+00
       13  1    1    2    0    0 +1.3563133504e+01 +1.3765937404e+01 +3.3482996849e+01 3.8659822362e+01 1.0566000000e-01 0.0000e+00 1.0000e+00
      994  1    1    2    0    0 -1.1564977359e+01 -9.3642788752e+00 +6.6468142972e+00 1.3200991842e+02 1.3100000000e+02 0.0000e+00 0.0000e+00
      997  1    1    2    0    0 -1.9981561453e+00 -4.4016585287e+00 +4.5987017769e+02 4.6033025922e+02 2.0000000000e+01 0.0000e+00 0.0000e+00
</event>
<event>
 5      1 +2.3375200e-06 2.10016000e+02 7.95774700e-02 4.86432500e-01
       13 -1    0    0    0    0 +0.0000000000e+00 +0.0000000000e+00 +4.9999998884e+02 5.0000000000e+02 1.0566000000e-01 0.0000e+00 -1.0000e+00
      994 -1    0    0    0    0 -0.0000000000e+00 -0.0000000000e+00 +0.0000000000e+00 1.3100000000e+02 1.3100000000e+02 0.0000e+00 0.0000e+00
       13  1    1    2    0    0 -2.8049570645e+00 +3.8985173239e+01 +1.1401991087e+02 1.2053324336e+02 1.0566000000e-01 0.0000e+00 1.0000e+00
      994  1    1    2    0    0 -6.7486762082e+00 -6.3001083461e+01 +2.4565475799e+01 1.4757758552e+02 1.3100000000e+02 0.0000e+00 0.0000e+00
      997  1    1    2    0    0 +9.5536332727e+00 +2.4015910222e+01 +3.6141460217e+02 3.6288917111e+02 2.0000000000e+01 0.0000e+00 0.0000e+00
</event>
<event>
 5      1 +2.3375200e-06 2.10152000e+02 7.95774700e-02 4.86209200e-01
       13 -1    0    0    0    0 +0.0000000000e+00 +0.0000000000e+00 +4.9999998884e+02 5.0000000000e+02 1.0566000000e-01 0.0000e+00 -1.0000e+00
      994 -1    0    0    0    0 -0.0000000000e+00 -0.0000000000e+00 +0.0000000000e+00 1.3100000000e+02 1.3100000000e+02 0.0000e+00 0.0000e+00
       13  1    1    2    0    0 +1.5702724591e+01 -3.1734978218e+00 +4.1651378489e+01 4.4626171044e+01 1.0566000000e-01 0.0000e+00 1.0000e+00
      994  1    1    2    0    0 -2.9023066206e+00 +6.7437656165e+00 +3.8713643611e+00 1.3126267261e+02 1.3100000000e+02 0.0000e+00 0.0000e+00
      997  1    1    2    0    0 -1.2800417971e+01 -3.5702677947e+00 +4.5447724599e+02 4.5511115635e+02 2.0000000000e+01 0.0000e+00 0.0000e+00
</event>
<event>
 5      1 +2.3375200e-06 2.04143800e+02 7.95774700e-02 4.96436700e-01
       13 -1    0    0    0    0 +0.0000000000e+00 +0.0000000000e+00 +4.9999998884e+02 5.0000000000e+02 1.0566000000e-01 0.0000e+00 -1.0000e+00
      994 -1    0    0    0    0 -0.0000000000e+00 -0.0000000000e+00 +0.0000000000e+00 1.3100000000e+02 1.3100000000e+02 0.0000e+00 0.0000e+00
       13  1    1    2    0    0 -5.9596738010e+00 -2.8198751854e+01 +7.9208938142e+01 8.4289704968e+01 1.0566000000e-01 0.0000e+00 1.0000e+00
      994  1    1    2    0    0 -1.8663385717e+01 -1.8924716514e+01 +1.2239499175e+01 1.3422843291e+02 1.3100000000e+02 0.0000e+00 0.0000e+00
      997  1    1    2    0    0 +2.4623059518e+01 +4.7123468368e+01 +4.0855155152e+02 4.1248186212e+02 2.0000000000e+01 0.0000e+00 0.0000e+00
</event>
<event>
 5      1 +2.3375200e-06 2.08129000e+02 7.95774700e-02 4.89569000e-01
       13 -1    0    0    0    0 +0.0000000000e+00 +0.0000000000e+00 +4.9999998884e+02 5.0000000000e+02 1.0566000000e-01 0.0000e+00 -1.0000e+00
      994 -1    0    0    0    0 -0.0000000000e+00 -0.0000000000e+00 +0.0000000000e+00 1.3100000000e+02 1.3100000000e+02 0.0000e+00 0.0000e+00
       13  1    1    2    0    0 +3.0945440374e+01 +7.2711188874e+01 +2.8001575738e+02 2.9095252673e+02 1.0566000000e-01 0.0000e+00 1.0000e+00
      994  1    1    2    0    0 -7.1564267304e+00 -9.1228623789e+01 +5.1749592948e+01 1.6796695095e+02 1.3100000000e+02 0.0000e+00 0.0000e+00
      997  1    1    2    0    0 -2.3789013644e+01 +1.8517434916e+01 +1.6823463851e+02 1.7208052231e+02 2.0000000000e+01 0.0000e+00 0.0000e+00
</event>
<event>
 5      1 +2.3375200e-06 2.06914400e+02 7.95774700e-02 4.91626200e-01
       13 -1    0    0    0    0 +0.0000000000e+00 +0.0000000000e+00 +4.9999998884e+02 5.0000000000e+02 1.0566000000e-01 0.0000e+00 1.0000e+00
      994 -1    0    0    0    0 -0.0000000000e+00 -0.0000000000e+00 +0.0000000000e+00 1.3100000000e+02 1.3100000000e+02 0.0000e+00 0.0000e+00
       13  1    1    2    0    0 -6.8484036573e+00 +2.5384463044e+01 +5.4392158047e+01 6.0413488707e+01 1.0566000000e-01 0.0000e+00 -1.0000e+00
      994  1    1    2    0    0 -5.0691335772e+00 -2.2719290407e+01 +9.0063111474e+00 1.3335657431e+02 1.3100000000e+02 0.0000e+00 0.0000e+00
      997  1    1    2    0    0 +1.1917537235e+01 -2.6651726372e+00 +4.3660151964e+02 4.3722993698e+02 2.0000000000e+01 0.0000e+00 0.0000e+00
</event>
<event>
 5      1 +2.3375200e-06 2.04373900e+02 7.95774700e-02 4.96030800e-01
       13 -1    0    0    0    0 +0.0000000000e+00 +0.0000000000e+00 +4.9999998884e+02 5.0000000000e+02 1.0566000000e-01 0.0000e+00 -1.0000e+00
      994 -1    0    0    0    0 -0.0000000000e+00 -0.0000000000e+00 +0.0000000000e+00 1.3100000000e+02 1.3100000000e+02 0.0000e+00 0.0000e+00
       13  1    1    2    0    0 -2.0468157641e+01 +2.4328798238e+00 +2.5076649436e+01 3.2460959512e+01 1.0566000000e-01 0.0000e+00 1.0000e+00
      994  1    1    2    0    0 +3.3044989615e+00 -1.2342365259e+01 +9.1756895076e+00 1.3194107386e+02 1.3100000000e+02 0.0000e+00 0.0000e+00
      997  1    1    2    0    0 +1.7163658679e+01 +9.9094854354e+00 +4.6574764989e+02 4.6659796663e+02 2.0000000000e+01 0.0000e+00 0.0000e+00
</event>
<event>
 5      1 +2.3375200e-06 1.54882200e+02 7.95774700e-02 6.24089100e-01
       13 -1    0    0    0    0 +0.0000000000e+00 +0.0000000000e+00 +4.9999998884e+02 5.0000000000e+02 1.0566000000e-01 0.0000e+00 1.0000e+00
      994 -1    0    0    0    0 -0.0000000000e+00 -0.0000000000e+00 +0.0000000000e+00 1.3100000000e+02 1.3100000000e+02 0.0000e+00 0.0000e+00
       13  1    1    2    0    0 -4.6793022334e+01 -5.4479371345e+01 +1.7782595201e+02 1.9178026283e+02 1.0566000000e-01 0.0000e+00 -1.0000e+00
      994  1    1    2    0    0 -3.8524682299e+01 +2.3356801868e+01 +4.3131439276e+01 1.4508967018e+02 1.3100000000e+02 0.0000e+00 0.0000e+00
      997  1    1    2    0    0 +8.5317704633e+01 +3.1122569477e+01 +2.7904259755e+02 2.9413006698e+02 2.0000000000e+01 0.0000e+00 0.0000e+00
</event>
<event>
 5      1 +2.3375200e-06 2.11106900e+02 7.95774700e-02 4.84651800e-01
       13 -1    0    0    0    0 +0.0000000000e+00 +0.0000000000e+00 +4.9999998884e+02 5.0000000000e+02 1.0566000000e-01 0.0000e+00 1.0000e+00
      994 -1    0    0    0    0 -0.0000000000e+00 -0.0000000000e+00 +0.0000000000e+00 1.3100000000e+02 1.3100000000e+02 0.0000e+00 0.0000e+00
       13  1    1    2    0    0 +1.0327090179e+01 -1.7141655645e+01 +7.9049803383e+01 8.1543655355e+01 1.0566000000e-01 0.0000e+00 -1.0000e+00
      994  1    1    2    0    0 -4.1909311516e+00 +1.3922648975e+01 +3.8924891706e+00 1.3186188051e+02 1.3100000000e+02 0.0000e+00 0.0000e+00
      997  1    1    2    0    0 -6.1361590272e+00 +3.2190066694e+00 +4.1705769628e+02 4.1759446414e+02 2.0000000000e+01 0.0000e+00 0.0000e+00
</event>
<event>
 5      1 +2.3375200e-06 2.09172800e+02 7.95774700e-02 4.87825200e-01
       13 -1    0    0    0    0 +0.0000000000e+00 +0.0000000000e+00 +4.9999998884e+02 5.0000000000e+02 1.0566000000e-01 0.0000e+00 -1.0000e+00
      994 -1    0    0    0    0 -0.0000000000e+00 -0.0000000000e+00 +0.0000000000e+00 1.3100000000e+02 1.3100000000e+02 0.0000e+00 0.0000e+00
       13  1    1    2    0    0 +1.1672352842e+01 +1.5829266829e+01 +3.9015513566e+01 4.3692458984e+01 1.0566000000e-01 0.0000e+00 1.0000e+00
      994  1    1    2    0    0 -2.1495228570e+01 -2.0753517662e+01 +8.9119976957e+00 1.3465948555e+02 1.3100000000e+02 0.0000e+00 0.0000e+00
      997  1    1    2    0    0 +9.8228757278e+00 +4.9242508338e+00 +4.5207247757e+02 4.5264805546e+02 2.0000000000e+01 0.0000e+00 0.0000e+00
</event>
<event>
 5      1 +2.3375200e-06 2.08655000e+02 7.95774700e-02 4.88687400e-01
       13 -1    0    0    0    0 +0.0000000000e+00 +0.0000000000e+00 +4.9999998884e+02 5.0000000000e+02 1.0566000000e-01 0.0000e+00 1.0000e+00
      994 -1    0    0    0    0 -0.0000000000e+00 -0.0000000000e+00 +0.0000000000e+00 1.3100000000e+02 1.3100000000e+02 0.0000e+00 0.0000e+00
       13  1    1    2    0    0 +6.8955409323e+00 -1.8677941153e+01 +5.0314146765e+01 5.4110428747e+01 1.0566000000e-01 0.0000e+00 -1.0000e+00
      994  1    1    2    0    0 -5.5369438500e+00 -2.5646897925e+00 +4.9914295444e+00 1.3123699840e+02 1.3100000000e+02 0.0000e+00 0.0000e+00
      997  1    1    2    0    0 -1.3585970823e+00 +2.1242630945e+01 +4.4469441253e+02 4.4565257285e+02 2.0000000000e+01 0.0000e+00 0.0000e+00
</event>
<event>
 5      1 +2.3375200e-06 2.07434100e+02 7.95774700e-02 4.90742200e-01
       13 -1    0    0    0    0 +0.0000000000e+00 +0.0000000000e+00 +4.9999998884e+02 5.0000000000e+02 1.0566000000e-01 0.0000e+00 1.0000e+00
      994 -1    0    0    0    0 -0.0000000000e+00 -0.0000000000e+00 +0.0000000000e+00 1.3100000000e+02 1.3100000000e+02 0.0000e+00 0.0000e+00
       13  1    1    2    0    0 +1.2982938697e+01 -1.8829059751e+01 +5.1280908576e+01 5.6150092936e+01 1.0566000000e-01 0.0000e+00 -1.0000e+00
      994  1    1    2    0    0 -7.9666685028e+00 +3.8038990980e-01 +6.1182257691e+00 1.3138510262e+02 1.3100000000e+02 0.0000e+00 0.0000e+00
      997  1    1    2    0    0 -5.0162701945e+00 +1.8448669841e+01 +4.4260085449e+02 4.4346480445e+02 2.0000000000e+01 0.0000e+00 0.0000e+00
</event>
<event>
 5      1 +2.3375200e-06 2.02946600e+02 7.95774700e-02 4.98567700e-01
       13 -1    0    0    0    0 +0.0000000000e+00 +0.0000000000e+00 +4.9999998884e+02 5.0000000000e+02 1.0566000000e-01 0.0000e+00 1.0000e+00
      994 -1    0    0    0    0 -0.0000000000e+00 -0.0000000000e+00 +0.0000000000e+00 1.3100000000e+02 1.3100000000e+02 0.0000e+00 0.0000e+00
       13  1    1    2    0    0 +9.0248684128e+00 +1.3455374661e+01 +1.0394018244e+01 1.9249471069e+01 1.0566000000e-01 0.0000e+00 -1.0000e+00
      994  1    1    2    0    0 +1.6766718356e+01 -2.2827728978e+01 +1.3801261469e+01 1.3473567780e+02 1.3100000000e+02 0.0000e+00 0.0000e+00
      997  1    1    2    0    0 -2.5791586769e+01 +9.3723543172e+00 +4.7580470912e+02 4.7701485113e+02 2.0000000000e+01 0.0000e+00 0.0000e+00
</event>
<event>
 5      1 +2.3375200e-06 2.12186100e+02 7.95774700e-02 4.82912900e-01
       13 -1    0    0    0    0 +0.0000000000e+00 +0.0000000000e+00 +4.9999998884e+02 5.0000000000e+02 1.0566000000e-01 0.0000e+00 1.0000e+00
      994 -1    0    0    0    0 -0.0000000000e+00 -0.0000000000e+00 +0.0000000000e+00 1.3100000000e+02 1.3100000000e+02 0.0000e+00 0.0000e+00
       13  1    1    2    0    0 +1.3373854734e+00 +1.8841762351e+01 +9.1583316851e+01 9.3511045860e+01 1.0566000000e-01 0.0000e+00 -1.0000e+00
      994  1    1    2    0    0 +1.0250881401e+01 -2.2536226615e+01 +5.0197949882e+00 1.3341349415e+02 1.3100000000e+02 0.0000e+00 0.0000e+00
      997  1    1    2    0    0 -1.1588266874e+01 +3.6944642641e+00 +4.0339687700e+02 4.0407545999e+02 2.0000000000e+01 0.0000e+00 0.0000e+00
</event>
<event>
 5      1 +2.3375200e-06 2.08741100e+02 7.95774700e-02 4.88543600e-01
       13 -1    0    0    0    0 +0.0000000000e+00 +0.0000000000e+00 +4.9999998884e+02 5.0000000000e+02 1.0566000000e-01 0.0000e+00 -1.0000e+00
      994 -1    0    0    0    0 -0.0000000000e+00 -0.0000000000e+00 +0.0000000000e+00 1.3100000000e+02 1.3100000000e+02 0.0000e+00 0.0000e+00
       13  1    1    2    0    0 -1.1301210583e+01 +2.7627413642e+00 +1.3983516623e+01 1.8190656988e+01 1.0566000000e-01 0.0000e+00 1.0000e+00
      994  1    1    2    0    0 +4.1156063576e+00 -3.1142439608e+00 +4.8683443478e+00 1.3119198721e+02 1.3100000000e+02 0.0000e+00 0.0000e+00
      997  1    1    2    0    0 +7.1856042254e+00 +3.5150259663e-01 +4.8114812787e+02 4.8161735580e+02 2.0000000000e+01 0.0000e+00 0.0000e+00
</event>
<event>
 5      1 +2.3375200e-06 1.95755100e+02 7.95774700e-02 5.12086200e-01
       13 -1    0    0    0    0 +0.0000000000e+00 +0.0000000000e+00 +4.9999998884e+02 5.0000000000e+02 1.0566000000e-01 0.0000e+00 1.0000e+00
      994 -1    0    0    0    0 -0.0000000000e+00 -0.0000000000e+00 +0.0000000000e+00 1.3100000000e+02 1.3100000000e+02 0.0000e+00 0.0000e+00
       13  1    1    2    0    0 +2.9339865051e+01 +1.3318969246e+01 +2.5961559463e+01 4.1379177816e+01 1.0566000000e-01 0.0000e+00 -1.0000e+00
      994  1    1    2    0    0 -2.5552549864e+01 -1.3966566044e+01 +2.0652217731e+01 1.3577743505e+02 1.3100000000e+02 0.0000e+00 0.0000e+00
      997  1    1    2    0    0 -3.7873151866e+00 +6.4759679773e-01 +4.5338621164e+02 4.5384338713e+02 2.0000000000e+01 0.0000e+00 0.0000e+00
</event>
<event>
 5      1 +2.3375200e-06 2.08264400e+02 7.95774700e-02 4.89341400e-01
       13 -1    0    0    0    0 +0.0000000000e+00 +0.0000000000e+00 +4.9999998884e+02 5.0000000000e+02 1.0566000000e-01 0.0000e+00 1.0000e+00
      994 -1    0    0    0    0 -0.0000000000e+00 -0.0000000000e+00 +0.0000000000e+00 1.3100000000e+02 1.3100000000e+02 0.0000e+00 0.0000e+00
       13  1    1    2    0    0 -2.1437485330e+01 -2.0494289075e+00 +5.7657748760e+01 6.1548298858e+01 1.0566000000e-01 0.0000e+00 -1.0000e+00
      994  1    1    2    0    0 -1.9149524742e+00 -8.6259184609e+00 +5.5147696897e+00 1.3141341711e+02 1.3100000000e+02 0.0000e+00 0.0000e+00
      997  1    1    2    0    0 +2.3352437804e+01 +1.0675347368e+01 +4.3682747039e+02 4.3803828403e+02 2.0000000000e+01 0.0000e+00 0.0000e+00
</event>
<event>
 5      1 +2.3375200e-06 2.09301800e+02 7.95774700e-02 4.87611200e-01
       13 -1    0    0    0    0 +0.0000000000e+00 +0.0000000000e+00 +4.9999998884e+02 5.0000000000e+02 1.0566000000e-01 0.0000e+00 1.0000e+00
      994 -1    0    0    0    0 -0.0000000000e+00 -0.0000000000e+00 +0.0000000000e+00 1.3100000000e+02 1.3100000000e+02 0.0000e+00 0.0000e+00
       13  1    1    2    0    0 +1.1628265073e+01 +2.5394257330e+00 +1.5955381222e+01 1.9906043947e+01 1.0566000000e-01 0.0000e+00 -1.0000e+00
      994  1    1    2    0    0 -1.4430266498e+01 +8.8516895297e+00 +5.7256416649e+00 1.3221334264e+02 1.3100000000e+02 0.0000e+00 0.0000e+00
      997  1    1    2    0    0 +2.8020014248e+00 -1.1391115263e+01 +4.7831896595e+02 4.7888061342e+02 2.0000000000e+01 0.0000e+00 0.0000e+00
</event>
<event>
 5      1 +2.3375200e-06 2.06096100e+02 7.95774700e-02 4.93029800e-01
       13 -1    0    0    0    0 +0.0000000000e+00 +0.0000000000e+00 +4.9999998884e+02 5.0000000000e+02 1.0566000000e-01 0.0000e+00 -1.0000e+00
      994 -1    0    0    0    0 -0.0000000000e+00 -0.0000000000e+00 +0.0000000000e+00 1.3100000000e+02 1.3100000000e+02 0.0000e+00 0.0000e+00
       13  1    1    2    0    0 -1.3368969139e+01 +2.2325781191e+01 +4.4240599544e+01 5.1326519985e+01 1.0566000000e-01 0.0000e+00 1.0000e+00
      994  1    1    2    0    0 +4.0992139096e+00 -2.9991139747e+01 +1.1654657067e+01 1.3495593003e+02 1.3100000000e+02 0.0000e+00 0.0000e+00
      997  1    1    2    0    0 +9.2697552298e+00 +7.6653585565e+00 +4.4410473222e+02 4.4471754999e+02 2.0000000000e+01 0.0000e+00 0.0000e+00
</event>
<event>
 5      1 +2.3375200e-06 2.06963100e+02 7.95774700e-02 4.91543200e-01
       13 -1    0    0    0    0 +0.0000000000e+00 +0.0000000000e+00 +4.9999998884e+02 5.0000000000e+02 1.0566000000e-01 0.0000e+00 -1.0000e+00
      994 -1    0    0    0    0 -0.0000000000e+00 -0.0000000000e+00 +0.0000000000e+00 1.3100000000e+02 1.3100000000e+02 0.0000e+00 0.0000e+00
       13  1    1    2    0    0 -5.8066265423e+01 +1.1824357854e+01 +1.3719873594e+02 1.4944902451e+02 1.0566000000e-01 0.0000e+00 1.0000e+00
      994  1    1    2    0    0 +7.9454629185e+01 -1.9607599854e+01 +4.3024714661e+01 1.6034220325e+02 1.3100000000e+02 0.0000e+00 0.0000e+00
      997  1    1    2    0    0 -2.1388363763e+01 +7.7832420001e+00 +3.1977653824e+02 3.2120877224e+02 2.0000000000e+01 0.0000e+00 0.0000e+00
</event>
<event>
 5      1 +2.3375200e-06 2.06004900e+02 7.95774700e-02 4.93187000e-01
       13 -1    0    0    0    0 +0.0000000000e+00 +0.0000000000e+00 +4.9999998884e+02 5.0000000000e+02 1.0566000000e-01 0.0000e+00 1.0000e+00
      994 -1    0    0    0    0 -0.0000000000e+00 -0.0000000000e+00 +0.0000000000e+00 1.3100000000e+02 1.3100000000e+02 0.0000e+00 0.0000e+00
       13  1    1    2    0    0 -1.9789996994e+01 +9.7657245739e+00 +3.0478694533e+01 3.7629447803e+01 1.0566000000e-01 0.0000e+00 -1.0000e+00
      994  1    1    2    0    0 +2.7795848975e+01 -6.8851009296e+00 +1.1228427434e+01 1.3456259294e+02 1.3100000000e+02 0.0000e+00 0.0000e+00
      997  1    1    2    0    0 -8.0058519815e+00 -2.8806236442e+00 +4.5829286687e+02 4.5880795926e+02 2.0000000000e+01 0.0000e+00 0.0000e+00
</event>
<event>
 5      1 +2.3375200e-06 2.05154100e+02 7.95774700e-02 4.94663200e-01
       13 -1    0    0    0    0 +0.0000000000e+00 +0.0000000000e+00 +4.9999998884e+02 5.0000000000e+02 1.0566000000e-01 0.0000e+00 1.0000e+00
      994 -1    0    0    0    0 -0.0000000000e+00 -0.0000000000e+00 +0.0000000000e+00 1.3100000000e+02 1.3100000000e+02 0.0000e+00 0.0000e+00
       13  1    1    2    0    0 +2.3141504832e+01 +1.3423740849e+00 +4.1703124156e+01 4.7712607794e+01 1.0566000000e-01 0.0000e+00 -1.0000e+00
      994  1    1    2    0    0 +7.1359162254e+00 +8.9454136979e+00 +8.3512678787e+00 1.3176374844e+02 1.3100000000e+02 0.0000e+00 0.0000e+00
      997  1    1    2    0    0 -3.0277421057e+01 -1.0287787783e+01 +4.4994559680e+02 4.5152364377e+02 2.0000000000e+01 0.0000e+00 0.0000e+00
</event>
<event>
 5      1 +2.3375200e-06 2.06103000e+02 7.95774700e-02 4.93017800e-01
       13 -1    0    0    0    0 +0.0000000000e+00 +0.0000000000e+00 +4.9999998884e+02 5.0000000000e+02 1.0566000000e-01 0.0000e+00 1.0000e+00
      994 -1    0    0    0    0 -0.0000000000e+00 -0.0000000000e+00 +0.0000000000e+00 1.3100000000e+02 1.3100000000e+02 0.0000e+00 0.0000e+00
       13  1    1    2    0    0 +1.8672098768e+01 +3.0127422393e+01 +1.8136099121e+02 1.8479212416e+02 1.0566000000e-01 0.0000e+00 -1.0000e+00
      994  1    1    2    0    0 +6.3536724186e+00 +2.3476579883e+00 +7.1215539926e+00 1.3136817416e+02 1.3100000000e+02 0.0000e+00 0.0000e+00
      997  1    1    2    0    0 -2.5025771186e+01 -3.2475080382e+01 +3.1151744363e+02 3.1483970168e+02 2.0000000000e+01 0.0000e+00 0.0000e+00
</event>
<event>
 5      1 +2.3375200e-06 2.10041100e+02 7.95774700e-02 4.86391300e-01
       13 -1    0    0    0    0 +0.0000000000e+00 +0.0000000000e+00 +4.9999998884e+02 5.0000000000e+02 1.0566000000e-01 0.0000e+00 -1.0000e+00
      994 -1    0    0    0    0 -0.0000000000e+00 -0.0000000000e+00 +0.0000000000e+00 1.3100000000e+02 1.3100000000e+02 0.0000e+00 0.0000e+00
       13  1    1    2    0    0 +1.1362755167e+01 -2.2221084042e+01 +4.0112952219e+01 4.7243506229e+01 1.0566000000e-01 0.0000e+00 1.0000e+00
      994  1    1    2    0    0 -2.0357633778e+01 +8.9565732185e+01 +4.9749205470e+01 1.6754831267e+02 1.3100000000e+02 0.0000e+00 0.0000e+00
      997  1    1    2    0    0 +8.9948786110e+00 -6.7344648143e+01 +4.1013783115e+02 4.1620818110e+02 2.0000000000e+01 0.0000e+00 0.0000e+00
</event>
<event>
 5      1 +2.3375200e-06 2.09170100e+02 7.95774700e-02 4.87829700e-01
       13 -1    0    0    0    0 +0.0000000000e+00 +0.0000000000e+00 +4.9999998884e+02 5.0000000000e+02 1.0566000000e-01 0.0000e+00 1.0000e+00
      994 -1    0    0    0    0 -0.0000000000e+00 -0.0000000000e+00 +0.0000000000e+00 1.3100000000e+02 1.3100000000e+02 0.0000e+00 0.0000e+00
       13  1    1    2    0    0 +6.4029223797e-01 +1.0121116040e+01 +1.1917995793e+01 1.5649177352e+01 1.0566000000e-01 0.0000e+00 -1.0000e+00
      994  1    1    2    0    0 +4.5881431784e+00 +2.7968385664e+00 +4.5337284483e+00 1.3118852106e+02 1.3100000000e+02 0.0000e+00 0.0000e+00
      997  1    1    2    0    0 -5.2284354164e+00 -1.2917954606e+01 +4.8354826459e+02 4.8416230159e+02 2.0000000000e+01 0.0000e+00 0.0000e+00
</event>
<event>
 5      1 +2.3375200e-06 2.09703100e+02 7.95774700e-02 4.86947600e-01
       13 -1    0    0    0    0 +0.0000000000e+00 +0.0000000000e+00 +4.9999998884e+02 5.0000000000e+02 1.0566000000e-01 0.0000e+00 1.0000e+00
      994 -1    0    0    0    0 -0.0000000000e+00 -0.0000000000e+00 +0.0000000000e+00 1.3100000000e+02 1.3100000000e+02 0.0000e+00 0.0000e+00
       13  1    1    2    0    0 +9.4534721354e+00 -1.1865170332e+01 +3.2217064115e+01 3.5610402787e+01 1.0566000000e-01 0.0000e+00 -1.0000e+00
      994  1    1    2    0    0 -9.1857839366e+00 -4.8212322701e-01 +4.3848439393e+00 1.3139573024e+02 1.3100000000e+02 0.0000e+00 0.0000e+00
      997  1    1    2    0    0 -2.6768819881e-01 +1.2347293559e+01 +4.6339808078e+02 4.6399386697e+02 2.0000000000e+01 0.0000e+00 0.0000e+00
</event>
<event>
 5      1 +2.3375200e-06 2.06959100e+02 7.95774700e-02 4.91550000e-01
       13 -1    0    0    0    0 +0.0000000000e+00 +0.0000000000e+00 +4.9999998884e+02 5.0000000000e+02 1.0566000000e-01 0.0000e+00 -1.0000e+00
      994 -1    0    0    0    0 -0.0000000000e+00 -0.0000000000e+00 +0.0000000000e+00 1.3100000000e+02 1.3100000000e+02 0.0000e+00 0.0000e+00
       13  1    1    2    0    0 +1.1412715006e+01 -4.2382685667e+00 +1.0824071307e+01 1.6290631293e+01 1.0566000000e-01 0.0000e+00 1.0000e+00
      994  1    1    2    0    0 +3.2228083338e+00 +8.2111202091e+00 +6.5802436681e+00 1.3146143387e+02 1.3100000000e+02 0.0000e+00 0.0000e+00
      997  1    1    2    0    0 -1.4635523340e+01 -3.9728516424e+00 +4.8259567386e+02 4.8324793484e+02 2.0000000000e+01 0.0000e+00 0.0000e+00
</event>
<event>
 5      1 +2.3375200e-06 2.09969300e+02 7.95774700e-02 4.86509400e-01
       13 -1    0    0    0    0 +0.0000000000e+00 +0.0000000000e+00 +4.9999998884e+02 5.0000000000e+02 1.0566000000e-01 0.0000e+00 -1.0000e+00
      994 -1    0    0    0    0 -0.0000000000e+00 -0.0000000000e+00 +0.0000000000e+00 1.3100000000e+02 1.3100000000e+02 0.0000e+00 0.0000e+00
       13  1    1    2    0    0 +1.9622831031e+01 -1.2335100168e+01 +5.2395150247e+01 5.7292871522e+01 1.0566000000e-01 0.0000e+00 1.0000e+00
      994  1    1    2    0    0 -3.2785277362e+01 +3.5922959453e+01 +1.5834876281e+01 1.4063099493e+02 1.3100000000e+02 0.0000e+00 0.0000e+00
      997  1    1    2    0    0 +1.3162446331e+01 -2.3587859285e+01 +4.3176996231e+02 4.3307613355e+02 2.0000000000e+01 0.0000e+00 0.0000e+00
</event>
<event>
 5      1 +2.3375200e-06 2.12313000e+02 7.95774700e-02 4.82709800e-01
       13 -1    0    0    0    0 +0.0000000000e+00 +0.0000000000e+00 +4.9999998884e+02 5.0000000000e+02 1.0566000000e-01 0.0000e+00 1.0000e+00
      994 -1    0    0    0    0 -0.0000000000e+00 -0.0000000000e+00 +0.0000000000e+00 1.3100000000e+02 1.3100000000e+02 0.0000e+00 0.0000e+00
       13  1    1    2    0    0 -2.4363991603e+01 +8.1115037669e+00 +1.4588250524e+02 1.4812534246e+02 1.0566000000e-01 0.0000e+00 -1.0000e+00
      994  1    1    2    0    0 +3.0021054392e+01 -7.5502853052e+00 +6.6356379716e+00 1.3477129593e+02 1.3100000000e+02 0.0000e+00 0.0000e+00
      997  1    1    2    0    0 -5.6570627886e+00 -5.6121846175e-01 +3.4748184562e+02 3.4810336161e+02 2.0000000000e+01 0.0000e+00 0.0000e+00
</event>
<event>
 5      1 +2.3375200e-06 2.11422700e+02 7.95774700e-02 4.84140600e-01
       13 -1    0    0    0    0 +0.0000000000e+00 +0.0000000000e+00 +4.9999998884e+02 5.0000000000e+02 1.0566000000e-01 0.0000e+00 -1.0000e+00
      994 -1    0    0    0    0 -0.0000000000e+00 -0.0000000000e+00 +0.0000000000e+00 1.3100000000e+02 1.3100000000e+02 0.0000e+00 0.0000e+00
       13  1    1    2    0    0 +4.8402088022e-01 -1.4753551474e+01 +5.8993808581e+01 6.0812681015e+01 1.0566000000e-01 0.0000e+00 1.0000e+00
      994  1    1    2    0    0 -1.1671599776e+01 -1.2352642601e+00 +3.2753280982e+00 1.3156549659e+02 1.3100000000e+02 0.0000e+00 0.0000e+00
      997  1    1    2    0    0 +1.1187578895e+01 +1.5988815735e+01 +4.3773085216e+02 4.3862182239e+02 2.0000000000e+01 0.0000e+00 0.0000e+00
</event>
<event>
 5      1 +2.3375200e-06 2.12021800e+02 7.95774700e-02 4.83176100e-01
       13 -1    0    0    0    0 +0.0000000000e+00 +0.0000000000e+00 +4.9999998884e+02 5.0000000000e+02 1.0566000000e-01 0.0000e+00 1.0000e+00
      994 -1    0    0    0    0 -0.0000000000e+00 -0.0000000000e+00 +0.0000000000e+00 1.3100000000e+02 1.3100000000e+02 0.0000e+00 0.0000e+00
       13  1    1    2    0    0 +1.7010229696e+00 +1.0422645506e+01 +3.0621831451e+01 3.2391862310e+01 1.0566000000e-01 0.0000e+00 -1.0000e+00
      994  1    1    2    0    0 -9.4528343582e+00 -8.3489561545e+00 +2.9052902447e+00 1.3163776760e+02 1.3100000000e+02 0.0000e+00 0.0000e+00
      997  1    1    2    0    0 +7.7518113886e+00 -2.0736893510e+00 +4.6647286714e+02 4.6697037009e+02 2.0000000000e+01 0.0000e+00 0.0000e+00
</event>
<event>
 5      1 +2.3375200e-06 2.09943500e+02 7.95774700e-02 4.86551700e-01
       13 -1    0    0    0    0 +0.0000000000e+00 +0.0000000000e+00 +4.9999998884e+02 5.0000000000e+02 1.0566000000e-01 0.0000e+00 1.0000e+00
      994 -1    0    0    0    0 -0.0000000000e+00 -0.0000000000e+00 +0.0000000000e+00 1.3100000000e+02 1.3100000000e+02 0.0000e+00 0.0000e+00
       13  1    1    2    0    0 -1.3317748103e+01 -9.8875152712e+00 +4.2574139054e+01 4.5691288590e+01 1.0566000000e-01 0.0000e+00 -1.0000e+00
      994  1    1    2    0    0 -8.0830221604e-01 +8.0069169912e+00 +4.0925654579e+00 1.3131075038e+02 1.3100000000e+02 0.0000e+00 0.0000e+00
      997  1    1    2    0    0 +1.4126050319e+01 +1.8805982801e+00 +4.5333328432e+02 4.5399796103e+02 2.0000000000e+01 0.0000e+00 0.0000e+00
</event>
<event>
 5      1 +2.3375200e-06 2.07672200e+02 7.95774700e-02 4.90339000e-01
       13 -1    0    0    0    0 +0.0000000000e+00 +0.0000000000e+00 +4.9999998884e+02 5.0000000000e+02 1.0566000000e-01 0.0000e+00 1.0000e+00
      994 -1    0    0    0    0 -0.0000000000e+00 -0.0000000000e+00 +0.0000000000e+00 1.3100000000e+02 1.3100000000e+02 0.0000e+00 0.0000e+00
       13  1    1    2    0    0 +3.0843952781e+01 +2.6121604927e+01 +2.1621607802e+02 2.1996156761e+02 1.0566000000e-01 0.0000e+00 -1.0000e+00
      994  1    1    2    0    0 -4.4560356480e+00 -1.7928244070e+01 +7.3415872660e+00 1.3249972488e+02 1.3100000000e+02 0.0000e+00 0.0000e+00
      997  1    1    2    0    0 -2.6387917133e+01 -8.1933608567e+00 +2.7644232355e+02 2.7853870751e+02 2.0000000000e+01 0.0000e+00 0.0000e+00
</event>
<event>
 5      1 +2.3375200e-06 2.06683000e+02 7.95774700e-02 4.92021600e-01
       13 -1    0    0    0    0 +0.0000000000e+00 +0.0000000000e+00 +4.9999998884e+02 5.0000000000e+02 1.0566000000e-01 0.0000e+00 -1.0000e+00
      994 -1    0    0    0    0 -0.0000000000e+00 -0.0000000000e+00 +0.0000000000e+00 1.3100000000e+02 1.3100000000e+02 0.0000e+00 0.0000e+00
       13  1    1    2    0    0 -1.5754855965e+01 -1.4800720389e+01 +4.4412352141e+01 4.9393774883e+01 1.0566000000e-01 0.0000e+00 1.0000e+00
      994  1    1    2    0    0 +3.2763949025e+00 -1.2483207438e+01 +7.2635136123e+00 1.3183445628e+02 1.3100000000e+02 0.0000e+00 0.0000e+00
      997  1    1    2    0    0 +1.2478461063e+01 +2.7283927828e+01 +4.4832412308e+02 4.4977176884e+02 2.0000000000e+01 0.0000e+00 0.0000e+00
</event>
<event>
 5      1 +2.3375200e-06 2.11153100e+02 7.95774700e-02 4.84577000e-01
       13 -1    0    0    0    0 +0.0000000000e+00 +0.0000000000e+00 +4.9999998884e+02 5.0000000000e+02 1.0566000000e-01 0.0000e+00 1.0000e+00
      994 -1    0    0    0    0 -0.0000000000e+00 -0.0000000000e+00 +0.0000000000e+00 1.3100000000e+02 1.3100000000e+02 0.0000e+00 0.0000e+00
       13  1    1    2    0    0 +1.7022255383e+00 -1.6769642272e+01 +6.1828133651e+01 6.4084691998e+01 1.0566000000e-01 0.0000e+00 -1.0000e+00
      994  1    1    2    0    0 -1.8433673163e+01 +6.2428229905e+00 +4.6884547040e+00 1.3252077102e+02 1.3100000000e+02 0.0000e+00 0.0000e+00
      997  1    1    2    0    0 +1.6731447625e+01 +1.0526819282e+01 +4.3348340048e+02 4.3439453698e+02 2.0000000000e+01 0.0000e+00 0.0000e+00
</event>
<event>
 5      1 +2.3375200e-06 1.97133400e+02 7.95774700e-02 5.09395200e-01
       13 -1    0    0    0    0 +0.0000000000e+00 +0.0000000000e+00 +4.9999998884e+02 5.0000000000e+02 1.0566000000e-01 0.0000e+00 1.0000e+00
      994 -1    0    0    0    0 -0.0000000000e+00 -0.0000000000e+00 +0.0000000000e+00 1.3100000000e+02 1.3100000000e+02 0.0000e+00 0.0000e+00
       13  1    1    2    0    0 -7.7916093287e+00 -3.4383670258e+01 +3.9878683331e+01 5.3228436991e+01 1.0566000000e-01 0.0000e+00 -1.0000e+00
      994  1    1    2    0    0 +1.5190740335e+01 +1.4780483267e+01 +1.7095851742e+01 1.3380018469e+02 1.3100000000e+02 0.0000e+00 0.0000e+00
      997  1    1    2    0    0 -7.3991310061e+00 +1.9603186991e+01 +4.4302545376e+02 4.4397137831e+02 2.0000000000e+01 0.0000e+00 0.0000e+00
</event>
<event>
 5      1 +2.3375200e-06 2.08929700e+02 7.95774700e-02 4.88229300e-01
       13 -1    0    0    0    0 +0.0000000000e+00 +0.0000000000e+00 +4.9999998884e+02 5.0000000000e+02 1.0566000000e-01 0.0000e+00 1.0000e+00
      994 -1    0    0    0    0 -0.0000000000e+00 -0.0000000000e+00 +0.0000000000e+00 1.3100000000e+02 1.3100000000e+02 0.0000e+00 0.0000e+00
       13  1    1    2    0    0 +3.2199349356e+01 +5.3510527591e+00 +1.2340429066e+02 1.2764819616e+02 1.0566000000e-01 0.0000e+00 -1.0000e+00
      994  1    1    2    0    0 -1.9104404700e+01 -2.5456920962e+01 +9.7333321993e+00 1.3516201707e+02 1.3100000000e+02 0.0000e+00 0.0000e+00
      997  1    1    2    0    0 -1.3094944655e+01 +2.0105868203e+01 +3.6686236597e+02 3.6818978677e+02 2.0000000000e+01 0.0000e+00 0.0000e+00
</event>
<event>
 5      1 +2.3375200e-06 2.00103400e+02 7.95774700e-02 5.03761200e-01
       13 -1    0    0    0    0 +0.0000000000e+00 +0.0000000000e+00 +4.9999998884e+02 5.0000000000e+02 1.0566000000e-01 0.0000e+00 1.0000e+00
      994 -1    0    0    0    0 -0.0000000000e+00 -0.0000000000e+00 +0.0000000000e+00 1.3100000000e+02 1.3100000000e+02 0.0000e+00 0.0000e+00
       13  1    1    2    0    0 +3.5630401215e+00 -1.4006690140e+01 +1.7607843174e+00 1.4560018854e+01 1.0566000000e-01 0.0000e+00 -1.0000e+00
      994  1    1    2    0    0 -1.7987280687e+01 +5.2820117292e+01 +2.9451740277e+01 1.4540258616e+02 1.3100000000e+02 0.0000e+00 0.0000e+00
      997  1    1    2    0    0 +1.4424240566e+01 -3.8813427152e+01 +4.6878746424e+02 4.7103739498e+02 2.0000000000e+01 0.0000e+00 0.0000e+00
</event>
<event>
 5      1 +2.3375200e-06 1.97826200e+02 7.95774700e-02 5.08061200e-01
       13 -1    0    0    0    0 +0.0000000000e+00 +0.0000000000e+00 +4.9999998884e+02 5.0000000000e+02 1.0566000000e-01 0.0000e+00 1.0000e+00
      994 -1    0    0    0    0 -0.0000000000e+00 -0.0000000000e+00 +0.0000000000e+00 1.3100000000e+02 1.3100000000e+02 0.0000e+00 0.0000e+00
       13  1    1    2    0    0 -2.1334265969e+00 +4.2686002459e+01 +6.7354417016e+01 7.9770138338e+01 1.0566000000e-01 0.0000e+00 -1.0000e+00
      994  1    1    2    0    0 +1.5150474470e+01 -1.7689953495e+01 +1.6983756244e+01 1.3413396031e+02 1.3100000000e+02 0.0000e+00 0.0000e+00
      997  1    1    2    0    0 -1.3017047873e+01 -2.4996048963e+01 +4.1566181558e+02 4.1709590136e+02 2.0000000000e+01 0.0000e+00 0.0000e+00
</event>
<event>
 5      1 +2.3375200e-06 2.00086300e+02 7.95774700e-02 5.03793000e-01
       13 -1    0    0    0    0 +0.0000000000e+00 +0.0000000000e+00 +4.9999998884e+02 5.0000000000e+02 1.0566000000e-01 0.0000e+00 1.0000e+00
      994 -1    0    0    0    0 -0.0000000000e+00 -0.0000000000e+00 +0.0000000000e+00 1.3100000000e+02 1.3100000000e+02 0.0000e+00 0.0000e+00
       13  1    1    2    0    0 -6.6044235912e+00 +2.7022835447e+01 +2.5180581604e+01 3.7522325361e+01 1.0566000000e-01 0.0000e+00 -1.0000e+00
      994  1    1    2    0    0 -2.9830128850e+00 -3.6754490382e+01 +1.9460932836e+01 1.3747552086e+02 1.3100000000e+02 0.0000e+00 0.0000e+00
      997  1    1    2    0    0 +9.5874364762e+00 +9.7316549354e+00 +4.5535847440e+02 4.5600215378e+02 2.0000000000e+01 0.0000e+00 0.0000e+00
</event>
<event>
 5      1 +2.3375200e-06 2.04509700e+02 7.95774700e-02 4.95791800e-01
       13 -1    0    0    0    0 +0.0000000000e+00 +0.0000000000e+00 +4.9999998884e+02 5.0000000000e+02 1.0566000000e-01 0.0000e+00 -1.0000e+00
      994 -1    0    0    0    0 -0.0000000000e+00 -0.0000000000e+00 +0.0000000000e+00 1.3100000000e+02 1.3100000000e+02 0.0000e+00 0.0000e+00
       13  1    1    2    0    0 -1.6626882925e+01 -1.1282216059e+01 +2.6475719249e+01 3.3237275893e+01 1.0566000000e-01 0.0000e+00 1.0000e+00
      994  1    1    2    0    0 +2.3888437617e-01 -1.3832912429e+01 +9.2086510354e+00 1.3205001244e+02 1.3100000000e+02 0.0000e+00 0.0000e+00
      997  1    1    2    0    0 +1.6387998549e+01 +2.5115128488e+01 +4.6431561855e+02 4.6571271167e+02 2.0000000000e+01 0.0000e+00 0.0000e+00
</event>
<event>
 5      1 +2.3375200e-06 2.10632800e+02 7.95774700e-02 4.85422800e-01
       13 -1    0    0    0    0 +0.0000000000e+00 +0.0000000000e+00 +4.9999998884e+02 5.0000000000e+02 1.0566000000e-01 0.0000e+00 1.0000e+00
      994 -1    0    0    0    0 -0.0000000000e+00 -0.0000000000e+00 +0.0000000000e+00 1.3100000000e+02 1.3100000000e+02 0.0000e+00 0.0000e+00
       13  1    1    2    0    0 +8.1087007441e+00 +8.5856742583e+00 +3.5388387864e+01 3.7307023332e+01 1.0566000000e-01 0.0000e+00 -1.0000e+00
      994  1    1    2    0    0 +1.9657883413e+01 +1.5749534913e+01 +6.3912699269e+00 1.3355271829e+02 1.3100000000e+02 0.0000e+00 0.0000e+00
      997  1    1    2    0    0 -2.7766584157e+01 -2.4335209172e+01 +4.5822033104e+02 4.6014025838e+02 2.0000000000e+01 0.0000e+00 0.0000e+00
</event>
<event>
 5      1 +2.3375200e-06 2.00339500e+02 7.95774700e-02 5.03322500e-01
       13 -1    0    0    0    0 +0.0000000000e+00 +0.0000000000e+00 +4.9999998884e+02 5.0000000000e+02 1.0566000000e-01 0.0000e+00 -1.0000e+00
      994 -1    0    0    0    0 -0.0000000000e+00 -0.0000000000e+00 +0.0000000000e+00 1.3100000000e+02 1.3100000000e+02 0.0000e+00 0.0000e+00
       13  1    1    2    0    0 +3.2004275208e+01 -2.8129336283e+01 +7.2580946382e+01 8.4163757836e+01 1.0566000000e-01 0.0000e+00 1.0000e+00
      994  1    1    2    0    0 -2.6844850119e+01 +1.5107887926e+01 +1.6943863054e+01 1.3563549960e+02 1.3100000000e+02 0.0000e+00 0.0000e+00
      997  1    1    2    0    0 -5.1594250896e+00 +1.3021448357e+01 +4.1047517940e+02 4.1120074257e+02 2.0000000000e+01 0.0000e+00 0.0000e+00
</event>
<event>
 5      1 +2.3375200e-06 1.97883900e+02 7.95774700e-02 5.07950600e-01
       13 -1    0    0    0    0 +0.0000000000e+00 +0.0000000000e+00 +4.9999998884e+02 5.0000000000e+02 1.0566000000e-01 0.0000e+00 -1.0000e+00
      994 -1    0    0    0    0 -0.0000000000e+00 -0.0000000000e+00 +0.0000000000e+00 1.3100000000e+02 1.3100000000e+02 0.0000e+00 0.0000e+00
       13  1    1    2    0    0 +1.4860390001e+01 -2.4176740507e+01 +3.0476802896e+01 4.1643638786e+01 1.0566000000e-01 0.0000e+00 1.0000e+00
      994  1    1    2    0    0 +8.7236445130e+00 -7.7601210590e+00 +1.4668751125e+01 1.3233477892e+02 1.3100000000e+02 0.0000e+00 0.0000e+00
      997  1    1    2    0    0 -2.3584034514e+01 +3.1936861566e+01 +4.5485443482e+02 4.5702158229e+02 2.0000000000e+01 0.0000e+00 0.0000e+00
</event>
<event>
 5      1 +2.3375200e-06 2.10865700e+02 7.95774700e-02 4.85043500e-01
       13 -1    0    0    0    0 +0.0000000000e+00 +0.0000000000e+00 +4.9999998884e+02 5.0000000000e+02 1.0566000000e-01 0.0000e+00 -1.0000e+00
      994 -1    0    0    0    0 -0.0000000000e+00 -0.0000000000e+00 +0.0000000000e+00 1.3100000000e+02 1.3100000000e+02 0.0000e+00 0.0000e+00
       13  1    1    2    0    0 -1.1593479003e+01 +9.1821036407e-01 +2.4488133595e+01 2.7109624060e+01 1.0566000000e-01 0.0000e+00 1.0000e+00
      994  1    1    2    0    0 +8.0858807817e+00 +3.9765592367e+00 +3.4378559252e+00 1.3135453302e+02 1.3100000000e+02 0.0000e+00 0.0000e+00
      997  1    1    2    0    0 +3.5075982216e+00 -4.8947696007e+00 +4.7207399932e+02 4.7253584292e+02 2.0000000000e+01 0.0000e+00 0.0000e+00
</event>
<event>
 5      1 +2.3375200e-06 2.11054400e+02 7.95774700e-02 4.84736900e-01
       13 -1    0    0    0    0 +0.0000000000e+00 +0.0000000000e+00 +4.9999998884e+02 5.0000000000e+02 1.0566000000e-01 0.0000e+00 1.0000e+00
      994 -1    0    0    0    0 -0.0000000000e+00 -0.0000000000e+00 +0.0000000000e+00 1.3100000000e+02 1.3100000000e+02 0.0000e+00 0.0000e+00
       13  1    1    2    0    0 +1.5047913944e+01 +1.4620258388e+00 +4.4786523500e+01 4.7269663473e+01 1.0566000000e-01 0.0000e+00 -1.0000e+00
      994  1    1    2    0    0 -9.3688026233e+00 -7.4745369841e+00 +3.5977189097e+00 1.3159630218e+02 1.3100000000e+02 0.0000e+00 0.0000e+00
      997  1    1    2    0    0 -5.6791113212e+00 +6.0125111453e+00 +4.5161574643e+02 4.5213403435e+02 2.0000000000e+01 0.0000e+00 0.0000e+00
</event>
<event>
 5      1 +2.3375200e-06 1.98611800e+02 7.95774700e-02 5.06563300e-01
       13 -1    0    0    0    0 +0.0000000000e+00 +0.0000000000e+00 +4.9999998884e+02 5.0000000000e+02 1.0566000000e-01 0.0000e+00 -1.0000e+00
      994 -1    0    0    0    0 -0.0000000000e+00 -0.0000000000e+00 +0.0000000000e+00 1.3100000000e+02 1.3100000000e+02 0.0000e+00 0.0000e+00
       13  1    1    2    0    0 +1.4591546761e+01 +1.4741491259e+01 -2.2404912540e+00 2.0862784247e+01 1.0566000000e-01 0.0000e+00 1.0000e+00
      994  1    1    2    0    0 -1.3623947981e+01 -2.6705183279e+01 +3.0479272631e+01 1.3779972726e+02 1.3100000000e+02 0.0000e+00 0.0000e+00
      997  1    1    2    0    0 -9.6759877960e-01 +1.1963692020e+01 +4.7176120746e+02 4.7233748849e+02 2.0000000000e+01 0.0000e+00 0.0000e+00
</event>
<event>
 5      1 +2.3375200e-06 2.06350600e+02 7.95774700e-02 4.92591700e-01
       13 -1    0    0    0    0 +0.0000000000e+00 +0.0000000000e+00 +4.9999998884e+02 5.0000000000e+02 1.0566000000e-01 0.0000e+00 -1.0000e+00
      994 -1    0    0    0    0 -0.0000000000e+00 -0.0000000000e+00 +0.0000000000e+00 1.3100000000e+02 1.3100000000e+02 0.0000e+00 0.0000e+00
       13  1    1    2    0    0 -1.5025574376e+01 +1.1098437518e+01 +2.1997569215e+01 2.8859095898e+01 1.0566000000e-01 0.0000e+00 1.0000e+00
      994  1    1    2    0    0 +2.0281449489e+01 -2.0821855408e+01 +1.1061484325e+01 1.3464116492e+02 1.3100000000e+02 0.0000e+00 0.0000e+00
      997  1    1    2    0    0 -5.2558751137e+00 +9.7234178908e+00 +4.6694093530e+02 4.6749973918e+02 2.0000000000e+01 0.0000e+00 0.0000e+00
</event>
<event>
 5      1 +2.3375200e-06 2.09214000e+02 7.95774700e-02 4.87756700e-01
       13 -1    0    0    0    0 +0.0000000000e+00 +0.0000000000e+00 +4.9999998884e+02 5.0000000000e+02 1.0566000000e-01 0.0000e+00 1.0000e+00
      994 -1    0    0    0    0 -0.0000000000e+00 -0.0000000000e+00 +0.0000000000e+00 1.3100000000e+02 1.3100000000e+02 0.0000e+00 0.0000e+00
       13  1    1    2    0    0 -8.1863942118e+00 -1.3944945349e+01 +3.4355371972e+01 3.7970795335e+01 1.0566000000e-01 0.0000e+00 -1.0000e+00
      994  1    1    2    0    0 -6.4614901194e+00 +5.5921775733e+00 +4.7204184259e+00 1.3136325839e+02 1.3100000000e+02 0.0000e+00 0.0000e+00
      997  1    1    2    0    0 +1.4647884331e+01 +8.3527677762e+00 +4.6092419844e+02 4.6166594628e+02 2.0000000000e+01 0.0000e+00 0.0000e+00
</event>
<event>
 5      1 +2.3375200e-06 2.09770700e+02 7.95774700e-02 4.86836300e-01
       13 -1    0    0    0    0 +0.0000000000e+00 +0.0000000000e+00 +4.9999998884e+02 5.0000000000e+02 1.0566000000e-01 0.0000e+00 -1.0000e+00
      994 -1    0    0    0    0 -0.0000000000e+00 -0.0000000000e+00 +0.0000000000e+00 1.3100000000e+02 1.3100000000e+02 0.0000e+00 0.0000e+00
       13  1    1    2    0    0 +6.9653222258e+00 -1.1807816138e+01 +2.2597412424e+01 2.6430937327e+01 1.0566000000e-01 0.0000e+00 1.0000e+00
      994  1    1    2    0    0 -7.0730156583e+00 +2.0443852637e+01 +6.2584880708e+00 1.3292158340e+02 1.3100000000e+02 0.0000e+00 0.0000e+00
      997  1    1    2    0    0 +1.0769343253e-01 -8.6360364991e+00 +4.7114408834e+02 4.7164747927e+02 2.0000000000e+01 0.0000e+00 0.0000e+00
</event>
<event>
 5      1 +2.3375200e-06 2.11311000e+02 7.95774700e-02 4.84321200e-01
       13 -1    0    0    0    0 +0.0000000000e+00 +0.0000000000e+00 +4.9999998884e+02 5.0000000000e+02 1.0566000000e-01 0.0000e+00 1.0000e+00
      994 -1    0    0    0    0 -0.0000000000e+00 -0.0000000000e+00 +0.0000000000e+00 1.3100000000e+02 1.3100000000e+02 0.0000e+00 0.0000e+00
       13  1    1    2    0    0 -1.3761269921e+01 +8.2909281833e+00 +5.7930319114e+01 6.0116928371e+01 1.0566000000e-01 0.0000e+00 -1.0000e+00
      994  1    1    2    0    0 +1.0972982838e+01 +2.5726935358e+00 +3.3109880744e+00 1.3152561631e+02 1.3100000000e+02 0.0000e+00 0.0000e+00
      997  1    1    2    0    0 +2.7882870834e+00 -1.0863621719e+01 +4.3875868165e+02 4.3935745532e+02 2.0000000000e+01 0.0000e+00 0.0000e+00
</event>
<event>
 5      1 +2.3375200e-06 2.08962900e+02 7.95774700e-02 4.88174000e-01
       13 -1    0    0    0    0 +0.0000000000e+00 +0.0000000000e+00 +4.9999998884e+02 5.0000000000e+02 1.0566000000e-01 0.0000e+00 1.0000e+00
      994 -1    0    0    0    0 -0.0000000000e+00 -0.0000000000e+00 +0.0000000000e+00 1.3100000000e+02 1.3100000000e+02 0.0000e+00 0.0000e+00
       13  1    1    2    0    0 +7.3759886200e-02 -1.0789968969e+01 +1.1386309544e+01 1.5687194776e+01 1.0566000000e-01 0.0000e+00 -1.0000e+00
      994  1    1    2    0    0 -6.2061073837e+00 +1.5887475734e+01 +6.0239685476e+00 1.3224301816e+02 1.3100000000e+02 0.0000e+00 0.0000e+00
      997  1    1    2    0    0 +6.1323474975e+00 -5.0975067645e+00 +4.8258971074e+02 4.8306978707e+02 2.0000000000e+01 0.0000e+00 0.0000e+00
</event>
<event>
 5      1 +2.3375200e-06 2.01560700e+02 7.95774700e-02 5.01075400e-01
       13 -1    0    0    0    0 +0.0000000000e+00 +0.0000000000e+00 +4.9999998884e+02 5.0000000000e+02 1.0566000000e-01 0.0000e+00 -1.0000e+00
      994 -1    0    0    0    0 -0.0000000000e+00 -0.0000000000e+00 +0.0000000000e+00 1.3100000000e+02 1.3100000000e+02 0.0000e+00 0.0000e+00
       13  1    1    2    0    0 -4.6399364684e+01 +1.2531465880e+01 +1.2630780416e+02 1.3514292892e+02 1.0566000000e-01 0.0000e+00 1.0000e+00
      994  1    1    2    0    0 +2.0991783914e+01 +7.1347298800e+00 +1.3348922659e+01 1.3353184301e+02 1.3100000000e+02 0.0000e+00 0.0000e+00
      997  1    1    2    0    0 +2.5407580770e+01 -1.9666195760e+01 +3.6034326201e+02 3.6232522807e+02 2.0000000000e+01 0.0000e+00 0.0000e+00
</event>
<event>
 5      1 +2.3375200e-06 2.07460900e+02 7.95774700e-02 4.90696700e-01
       13 -1    0    0    0    0 +0.0000000000e+00 +0.0000000000e+00 +4.9999998884e+02 5.0000000000e+02 1.0566000000e-01 0.0000e+00 -1.0000e+00
      994 -1    0    0    0    0 -0.0000000000e+00 -0.0000000000e+00 +0.0000000000e+00 1.3100000000e+02 1.3100000000e+02 0.0000e+00 0.0000e+00
       13  1    1    2    0    0 -1.1758897760e+02 +2.9744551304e+01 +8.9815663211e+01 1.5092637446e+02 1.0566000000e-01 0.0000e+00 1.0000e+00
      994  1    1    2    0    0 +1.5216764477e+02 -5.7305485539e+00 +3.5453015826e+02 4.0748063073e+02 1.3100000000e+02 0.0000e+00 0.0000e+00
      997  1    1    2    0    0 -3.4578667170e+01 -2.4014002750e+01 +5.5654167363e+01 7.2592994815e+01 2.0000000000e+01 0.0000e+00 0.0000e+00
</event>
<event>
 5      1 +2.3375200e-06 2.00160400e+02 7.95774700e-02 5.03655200e-01
       13 -1    0    0    0    0 +0.0000000000e+00 +0.0000000000e+00 +4.9999998884e+02 5.0000000000e+02 1.0566000000e-01 0.0000e+00 1.0000e+00
      994 -1    0    0    0    0 -0.0000000000e+00 -0.0000000000e+00 +0.0000000000e+00 1.3100000000e+02 1.3100000000e+02 0.0000e+00 0.0000e+00
       13  1    1    2    0    0 -8.2152910703e+00 +2.1772814116e+01 +1.8210979652e+01 2.9549913466e+01 1.0566000000e-01 0.0000e+00 -1.0000e+00
      994  1    1    2    0    0 +1.0040714209e+00 -1.9977843080e+01 +1.4090751570e+01 1.3326541807e+02 1.3100000000e+02 0.0000e+00 0.0000e+00
      997  1    1    2    0    0 +7.2112196494e+00 -1.7949710360e+00 +4.6769825761e+02 4.6818466846e+02 2.0000000000e+01 0.0000e+00 0.0000e+00
</event>
<event>
 5      1 +2.3375200e-06 2.06832500e+02 7.95774700e-02 4.91766000e-01
       13 -1    0    0    0    0 +0.0000000000e+00 +0.0000000000e+00 +4.9999998884e+02 5.0000000000e+02 1.0566000000e-01 0.0000e+00 1.0000e+00
      994 -1    0    0    0    0 -0.0000000000e+00 -0.0000000000e+00 +0.0000000000e+00 1.3100000000e+02 1.3100000000e+02 0.0000e+00 0.0000e+00
       13  1    1    2    0    0 -2.1541136609e+01 -7.5921853157e+00 +3.3723305844e+01 4.0730017989e+01 1.0566000000e-01 0.0000e+00 -1.0000e+00
      994  1    1    2    0    0 +4.5395722718e+01 -1.3094545333e+01 +1.7977266416e+01 1.4041517321e+02 1.3100000000e+02 0.0000e+00 0.0000e+00
      997  1    1    2    0    0 -2.3854586109e+01 +2.0686730649e+01 +4.4829941658e+02 4.4985480881e+02 2.0000000000e+01 0.0000e+00 0.0000e+00
</event>
<event>
 5      1 +2.3375200e-06 2.09933200e+02 7.95774700e-02 4.86568600e-01
       13 -1    0    0    0    0 +0.0000000000e+00 +0.0000000000e+00 +4.9999998884e+02 5.0000000000e+02 1.0566000000e-01 0.0000e+00 -1.0000e+00
      994 -1    0    0    0    0 -0.0000000000e+00 -0.0000000000e+00 +0.0000000000e+00 1.3100000000e+02 1.3100000000e+02 0.0000e+00 0.0000e+00
       13  1    1    2    0    0 -2.9013776843e+00 -1.1733563077e+01 +1.8903740793e+01 2.2437849161e+01 1.0566000000e-01 0.0000e+00 1.0000e+00
      994  1    1    2    0    0 -2.1614719823e+00 +1.6266067007e+01 +5.1257302671e+00 1.3212316227e+02 1.3100000000e+02 0.0000e+00 0.0000e+00
      997  1    1    2    0    0 +5.0628496666e+00 -4.5325039301e+00 +4.7597051778e+02 4.7643898857e+02 2.0000000000e+01 0.0000e+00 0.0000e+00
</event>
<event>
 5      1 +2.3375200e-06 1.97217800e+02 7.95774700e-02 5.09232000e-01
       13 -1    0    0    0    0 +0.0000000000e+00 +0.0000000000e+00 +4.9999998884e+02 5.0000000000e+02 1.0566000000e-01 0.0000e+00 1.0000e+00
      994 -1    0    0    0    0 -0.0000000000e+00 -0.0000000000e+00 +0.0000000000e+00 1.3100000000e+02 1.3100000000e+02 0.0000e+00 0.0000e+00
       13  1    1    2    0    0 +7.2922221464e+01 -2.4353653467e+01 +1.4884961848e+02 1.6753199965e+02 1.0566000000e-01 0.0000e+00 -1.0000e+00
      994  1    1    2    0    0 -5.9677594595e+01 +3.9091311193e+01 +4.4689578041e+01 1.5571674378e+02 1.3100000000e+02 0.0000e+00 0.0000e+00
      997  1    1    2    0    0 -1.3244626869e+01 -1.4737657727e+01 +3.0646079232e+02 3.0775125658e+02 2.0000000000e+01 0.0000e+00 0.0000e+00
</event>
<event>
 5      1 +2.3375200e-06 2.07899300e+02 7.95774700e-02 4.89955600e-01
       13 -1    0    0    0    0 +0.0000000000e+00 +0.0000000000e+00 +4.9999998884e+02 5.0000000000e+02 1.0566000000e-01 0.0000e+00 -1.0000e+00
      994 -1    0    0    0    0 -0.0000000000e+00 -0.0000000000e+00 +0.0000000000e+00 1.3100000000e+02 1.3100000000e+02 0.0000e+00 0.0000e+00
       13  1    1    2    0    0 -3.9803586313e+00 -2.1539429373e+01 +5.5369351411e+01 5.9544659813e+01 1.0566000000e-01 0.0000e+00 1.0000e+00
      994  1    1    2    0    0 -3.8389454427e+00 -1.8654088598e+00 +5.5077832900e+00 1.3118518563e+02 1.3100000000e+02 0.0000e+00 0.0000e+00
      997  1    1    2    0    0 +7.8193040740e+00 +2.3404838233e+01 +4.3912285414e+02 4.4027015456e+02 2.0000000000e+01 0.0000e+00 0.0000e+00
</event>
<event>
 5      1 +2.3375200e-06 2.05598500e+02 7.95774700e-02 4.93890200e-01
       13 -1    0    0    0    0 +0.0000000000e+00 +0.0000000000e+00 +4.9999998884e+02 5.0000000000e+02 1.0566000000e-01 0.0000e+00 1.0000e+00
      994 -1    0    0    0    0 -0.0000000000e+00 -0.0000000000e+00 +0.0000000000e+00 1.3100000000e+02 1.3100000000e+02 0.0000e+00 0.0000e+00
       13  1    1    2    0    0 -3.8159523965e+00 +2.0897784822e+01 +3.8648533920e+01 4.4102145541e+01 1.0566000000e-01 0.0000e+00 -1.0000e+00
      994  1    1    2    0    0 +2.6978437179e+00 +1.5697168269e+01 +8.6174370569e+00 1.3224575484e+02 1.3100000000e+02 0.0000e+00 0.0000e+00
      997  1    1    2    0    0 +1.1181086786e+00 -3.6594953091e+01 +4.5273401786e+02 4.5465209962e+02 2.0000000000e+01 0.0000e+00 0.0000e+00
</event>
<event>
 5      1 +2.3375200e-06 2.08490500e+02 7.95774700e-02 4.88962500e-01
       13 -1    0    0    0    0 +0.0000000000e+00 +0.0000000000e+00 +4.9999998884e+02 5.0000000000e+02 1.0566000000e-01 0.0000e+00 -1.0000e+00
      994 -1    0    0    0    0 -0.0000000000e+00 -0.0000000000e+00 +0.0000000000e+00 1.3100000000e+02 1.3100000000e+02 0.0000e+00 0.0000e+00
       13  1    1    2    0    0 -1.5347178850e+01 -2.5314014301e+01 +1.6972801063e+02 1.7229028985e+02 1.0566000000e-01 0.0000e+00 1.0000e+00
      994  1    1    2    0    0 +4.6175547744e+00 -6.5797933044e+00 +5.2630360134e+00 1.3135187490e+02 1.3100000000e+02 0.0000e+00 0.0000e+00
      997  1    1    2    0    0 +1.0729624076e+01 +3.1893807605e+01 +3.2500894219e+02 3.2735783525e+02 2.0000000000e+01 0.0000e+00 0.0000e+00
</event>
<event>
 5      1 +2.3375200e-06 2.04922300e+02 7.95774700e-02 4.95068200e-01
       13 -1    0    0    0    0 +0.0000000000e+00 +0.0000000000e+00 +4.9999998884e+02 5.0000000000e+02 1.0566000000e-01 0.0000e+00 -1.0000e+00
      994 -1    0    0    0    0 -0.0000000000e+00 -0.0000000000e+00 +0.0000000000e+00 1.3100000000e+02 1.3100000000e+02 0.0000e+00 0.0000e+00
       13  1    1    2    0    0 +2.8055274272e+01 +7.4472850895e+00 +6.2157124334e+01 6.8600872729e+01 1.0566000000e-01 0.0000e+00 1.0000e+00
      994  1    1    2    0    0 +5.4528730885e+00 -4.9217192062e+01 +2.0949240209e+01 1.4160486039e+02 1.3100000000e+02 0.0000e+00 0.0000e+00
      997  1    1    2    0    0 -3.3508147360e+01 +4.1769906973e+01 +4.1689362429e+02 4.2079426689e+02 2.0000000000e+01 0.0000e+00 0.0000e+00
</event>
<event>
 5      1 +2.3375200e-06 2.12815200e+02 7.95774700e-02 4.81909500e-01
       13 -1    0    0    0    0 +0.0000000000e+00 +0.0000000000e+00 +4.9999998884e+02 5.0000000000e+02 1.0566000000e-01 0.0000e+00 1.0000e+00
      994 -1    0    0    0    0 -0.0000000000e+00 -0.0000000000e+00 +0.0000000000e+00 1.3100000000e+02 1.3100000000e+02 0.0000e+00 0.0000e+00
       13  1    1    2    0    0 +4.8060449966e+00 -1.0599506506e+01 +4.9435188566e+01 5.0786776224e+01 1.0566000000e-01 0.0000e+00 -1.0000e+00
      994  1    1    2    0    0 -2.7448610454e+01 +1.0558231841e+01 +5.7604339395e+00 1.3438409532e+02 1.3100000000e+02 0.0000e+00 0.0000e+00
      997  1    1    2    0    0 +2.2642565457e+01 +4.1274664958e-02 +4.4480436633e+02 4.4582912846e+02 2.0000000000e+01 0.0000e+00 0.0000e+00
</event>
<event>
 5      1 +2.3375200e-06 2.10321900e+02 7.95774700e-02 4.85930900e-01
       13 -1    0    0    0    0 +0.0000000000e+00 +0.0000000000e+00 +4.9999998884e+02 5.0000000000e+02 1.0566000000e-01 0.0000e+00 -1.0000e+00
      994 -1    0    0    0    0 -0.0000000000e+00 -0.0000000000e+00 +0.0000000000e+00 1.3100000000e+02 1.3100000000e+02 0.0000e+00 0.0000e+00
       13  1    1    2    0    0 -5.5988018227e+00 +1.0468310412e+01 +1.9230409803e+01 2.2599821459e+01 1.0566000000e-01 0.0000e+00 1.0000e+00
      994  1    1    2    0    0 +9.9165175615e+00 -1.8451973323e+01 +5.6618325132e+00 1.3278504806e+02 1.3100000000e+02 0.0000e+00 0.0000e+00
      997  1    1    2    0    0 -4.3177157389e+00 +7.9836629108e+00 +4.7510774652e+02 4.7561513048e+02 2.0000000000e+01 0.0000e+00 0.0000e+00
</event>
<event>
 5      1 +2.3375200e-06 2.10057000e+02 7.95774700e-02 4.86365200e-01
       13 -1    0    0    0    0 +0.0000000000e+00 +0.0000000000e+00 +4.9999998884e+02 5.0000000000e+02 1.0566000000e-01 0.0000e+00 -1.0000e+00
      994 -1    0    0    0    0 -0.0000000000e+00 -0.0000000000e+00 +0.0000000000e+00 1.3100000000e+02 1.3100000000e+02 0.0000e+00 0.0000e+00
       13  1    1    2    0    0 +1.0485270234e+01 -1.0271187249e+01 +3.0883343427e+01 3.4194008900e+01 1.0566000000e-01 0.0000e+00 1.0000e+00
      994  1    1    2    0    0 -1.1936153475e+01 +3.7444590348e+00 +4.4604544908e+00 1.3167151699e+02 1.3100000000e+02 0.0000e+00 0.0000e+00
      997  1    1    2    0    0 +1.4508832410e+00 +6.5267282138e+00 +4.6465619092e+02 4.6513447411e+02 2.0000000000e+01 0.0000e+00 0.0000e+00
</event>
<event>
 5      1 +2.3375200e-06 2.12570900e+02 7.95774700e-02 4.82298300e-01
       13 -1    0    0    0    0 +0.0000000000e+00 +0.0000000000e+00 +4.9999998884e+02 5.0000000000e+02 1.0566000000e-01 0.0000e+00 -1.0000e+00
      994 -1    0    0    0    0 -0.0000000000e+00 -0.0000000000e+00 +0.0000000000e+00 1.3100000000e+02 1.3100000000e+02 0.0000e+00 0.0000e+00
       13  1    1    2    0    0 +9.6894209975e+00 +2.8154675314e+01 +1.7660431380e+02 1.7909680465e+02 1.0566000000e-01 0.0000e+00 1.0000e+00
      994  1    1    2    0    0 -1.0438615105e+01 -3.8042381559e+01 +9.4197300231e+00 1.3713467393e+02 1.3100000000e+02 0.0000e+00 0.0000e+00
      997  1    1    2    0    0 +7.4919410770e-01 +9.8877062454e+00 +3.1397594502e+02 3.1476852142e+02 2.0000000000e+01 0.0000e+00 0.0000e+00
</event>
<event>
 5      1 +2.3375200e-06 2.09484200e+02 7.95774700e-02 4.87309200e-01
       13 -1    0    0    0    0 +0.0000000000e+00 +0.0000000000e+00 +4.9999998884e+02 5.0000000000e+02 1.0566000000e-01 0.0000e+00 1.0000e+00
      994 -1    0    0    0    0 -0.0000000000e+00 -0.0000000000e+00 +0.0000000000e+00 1.3100000000e+02 1.3100000000e+02 0.0000e+00 0.0000e+00
       13  1    1    2    0    0 -1.8651104789e+01 -2.2896077452e+01 +1.2279863391e+02 1.2629968221e+02 1.0566000000e-01 0.0000e+00 -1.0000e+00
      994  1    1    2    0    0 +7.2810372778e+00 +1.3761774926e+01 +5.3545760873e+00 1.3203057009e+02 1.3100000000e+02 0.0000e+00 0.0000e+00
      997  1    1    2    0    0 +1.1370067511e+01 +9.1343025259e+00 +3.7184677884e+02 3.7266974770e+02 2.0000000000e+01 0.0000e+00 0.0000e+00
</event>
<event>
 5      1 +2.3375200e-06 2.12361500e+02 7.95774700e-02 4.82632300e-01
       13 -1    0    0    0    0 +0.0000000000e+00 +0.0000000000e+00 +4.9999998884e+02 5.0000000000e+02 1.0566000000e-01 0.0000e+00 1.0000e+00
      994 -1    0    0    0    0 -0.0000000000e+00 -0.0000000000e+00 +0.0000000000e+00 1.3100000000e+02 1.3100000000e+02 0.0000e+00 0.0000e+00
       13  1    1    2    0    0 -1.3835342522e+01 +1.3623371229e+00 +7.6435271701e+01 7.7689346690e+01 1.0566000000e-01 0.0000e+00 -1.0000e+00
      994  1    1    2    0    0 +5.9249519432e+00 +1.3294910763e+01 +2.8964178492e+00 1.3183796473e+02 1.3100000000e+02 0.0000e+00 0.0000e+00
      997  1    1    2    0    0 +7.9103905789e+00 -1.4657247886e+01 +4.2066829929e+02 4.2147268858e+02 2.0000000000e+01 0.0000e+00 0.0000e+00
</event>
<event>
 5      1 +2.3375200e-06 2.09829600e+02 7.95774700e-02 4.86739100e-01
       13 -1    0    0    0    0 +0.0000000000e+00 +0.0000000000e+00 +4.9999998884e+02 5.0000000000e+02 1.0566000000e-01 0.0000e+00 -1.0000e+00
      994 -1    0    0    0    0 -0.0000000000e+00 -0.0000000000e+00 +0.0000000000e+00 1.3100000000e+02 1.3100000000e+02 0.0000e+00 0.0000e+00
       13  1    1    2    0    0 +2.6203966590e+01 -4.3115185440e+00 +1.5015179248e+02 1.5248215964e+02 1.0566000000e-01 0.0000e+00 1.0000e+00
      994  1    1    2    0    0 -3.6604630552e+00 -9.1759969754e+00 +4.3482982306e+00 1.3144392572e+02 1.3100000000e+02 0.0000e+00 0.0000e+00
      997  1    1    2    0    0 -2.2543503535e+01 +1.3487515519e+01 +3.4549989812e+02 3.4707391465e+02 2.0000000000e+01 0.0000e+00 0.0000e+00
</event>
<event>
 5      1 +2.3375200e-06 2.06278000e+02 7.95774700e-02 4.92716500e-01
       13 -1    0    0    0    0 +0.0000000000e+00 +0.0000000000e+00 +4.9999998884e+02 5.0000000000e+02 1.0566000000e-01 0.0000e+00 1.0000e+00
      994 -1    0    0    0    0 -0.0000000000e+00 -0.0000000000e+00 +0.0000000000e+00 1.3100000000e+02 1.3100000000e+02 0.0000e+00 0.0000e+00
       13  1    1    2    0    0 +7.2642969981e+00 +1.8436212243e+01 +3.2396021100e+01 3.7976009267e+01 1.0566000000e-01 0.0000e+00 -1.0000e+00
      994  1    1    2    0    0 +1.4822680251e+01 -2.7688974647e+00 +7.9132294882e+00 1.3210222498e+02 1.3100000000e+02 0.0000e+00 0.0000e+00
      997  1    1    2    0    0 -2.2086977249e+01 -1.5667314778e+01 +4.5969073825e+02 4.6092176576e+02 2.0000000000e+01 0.0000e+00 0.0000e+00
</event>
<event>
 5      1 +2.3375200e-06 2.00559100e+02 7.95774700e-02 5.02916000e-01
       13 -1    0    0    0    0 +0.0000000000e+00 +0.0000000000e+00 +4.9999998884e+02 5.0000000000e+02 1.0566000000e-01 0.0000e+00 1.0000e+00
      994 -1    0    0    0    0 -0.0000000000e+00 -0.0000000000e+00 +0.0000000000e+00 1.3100000000e+02 1.3100000000e+02 0.0000e+00 0.0000e+00
       13  1    1    2    0    0 -2.3841015227e+01 -1.4711326273e+01 +3.9643319082e+01 4.8542981363e+01 1.0566000000e-01 0.0000e+00 -1.0000e+00
      994  1    1    2    0    0 -8.6474408251e+00 -1.1640880381e+01 +1.2705800249e+01 1.3241119926e+02 1.3100000000e+02 0.0000e+00 0.0000e+00
      997  1    1    2    0    0 +3.2488456052e+01 +2.6352206654e+01 +4.4765086951e+02 4.5004581938e+02 2.0000000000e+01 0.0000e+00 0.0000e+00
</event>
<event>
 5      1 +2.3375200e-06 2.11117000e+02 7.95774700e-02 4.84635400e-01
       13 -1    0    0    0    0 +0.0000000000e+00 +0.0000000000e+00 +4.9999998884e+02 5.0000000000e+02 1.0566000000e-01 0.0000e+00 -1.0000e+00
      994 -1    0    0    0    0 -0.0000000000e+00 -0.0000000000e+00 +0.0000000000e+00 1.3100000000e+02 1.3100000000e+02 0.0000e+00 0.0000e+00
       13  1    1    2    0    0 +3.6936445700e+00 -1.6618934819e+01 +8.9892758316e+01 9.1490716285e+01 1.0566000000e-01 0.0000e+00 1.0000e+00
      994  1    1    2    0    0 +2.3320333098e-01 -8.4485119963e+00 +3.1895984993e+00 1.3131110112e+02 1.3100000000e+02 0.0000e+00 0.0000e+00
      997  1    1    2    0    0 -3.9268479010e+00 +2.5067446815e+01 +4.0691763202e+02 4.0819818260e+02 2.0000000000e+01 0.0000e+00 0.0000e+00
</event>
<event>
 5      1 +2.3375200e-06 2.08685300e+02 7.95774700e-02 4.88636700e-01
       13 -1    0    0    0    0 +0.0000000000e+00 +0.0000000000e+00 +4.9999998884e+02 5.0000000000e+02 1.0566000000e-01 0.0000e+00 1.0000e+00
      994 -1    0    0    0    0 -0.0000000000e+00 -0.0000000000e+00 +0.0000000000e+00 1.3100000000e+02 1.3100000000e+02 0.0000e+00 0.0000e+00
       13  1    1    2    0    0 -1.4886131770e+01 +1.3533208016e+01 +4.4194669452e+01 4.8558465897e+01 1.0566000000e-01 0.0000e+00 -1.0000e+00
      994  1    1    2    0    0 +4.8135780540e+00 -1.3967719223e+01 +5.8825507296e+00 1.3196163123e+02 1.3100000000e+02 0.0000e+00 0.0000e+00
      997  1    1    2    0    0 +1.0072553716e+01 +4.3451120695e-01 +4.4992276865e+02 4.5047990287e+02 2.0000000000e+01 0.0000e+00 0.0000e+00
</event>
<event>
 5      1 +2.3375200e-06 2.08783600e+02 7.95774700e-02 4.88472700e-01
       13 -1    0    0    0    0 +0.0000000000e+00 +0.0000000000e+00 +4.9999998884e+02 5.0000000000e+02 1.0566000000e-01 0.0000e+00 1.0000e+00
      994 -1    0    0    0    0 -0.0000000000e+00 -0.0000000000e+00 +0.0000000000e+00 1.3100000000e+02 1.3100000000e+02 0.0000e+00 0.0000e+00
       13  1    1    2    0    0 +2.4976355766e+01 -1.7918363193e+00 +8.3436216201e+01 8.7112813998e+01 1.0566000000e-01 0.0000e+00 -1.0000e+00
      994  1    1    2    0    0 -4.8294106019e+00 +5.3237366212e+00 +4.9603018079e+00 1.3129078403e+02 1.3100000000e+02 0.0000e+00 0.0000e+00
      997  1    1    2    0    0 -2.0146945164e+01 -3.5319003019e+00 +4.1160347083e+02 4.1259640197e+02 2.0000000000e+01 0.0000e+00 0.0000e+00
</event>
<event>
 5      1 +2.3375200e-06 2.12596200e+02 7.95774700e-02 4.82257900e-01
       13 -1    0    0    0    0 +0.0000000000e+00 +0.0000000000e+00 +4.9999998884e+02 5.0000000000e+02 1.0566000000e-01 0.0000e+00 1.0000e+00
      994 -1    0    0    0    0 -0.0000000000e+00 -0.0000000000e+00 +0.0000000000e+00 1.3100000000e+02 1.3100000000e+02 0.0000e+00 0.0000e+00
       13  1    1    2    0    0 +3.6225250522e+00 -9.9632559579e+00 +4.5672678699e+01 4.6887033395e+01 1.0566000000e-01 0.0000e+00 -1.0000e+00
      994  1    1    2    0    0 +7.2396733738e+00 +8.5688235216e+00 +2.2884068316e+00 1.3149933237e+02 1.3100000000e+02 0.0000e+00 0.0000e+00
      997  1    1    2    0    0 -1.0862198426e+01 +1.3944324363e+00 +4.5203890331e+02 4.5261363424e+02 2.0000000000e+01 0.0000e+00 0.0000e+00
</event>
<event>
 5      1 +2.3375200e-06 2.10552100e+02 7.95774700e-02 4.85554500e-01
       13 -1    0    0    0    0 +0.0000000000e+00 +0.0000000000e+00 +4.9999998884e+02 5.0000000000e+02 1.0566000000e-01 0.0000e+00 1.0000e+00
      994 -1    0    0    0    0 -0.0000000000e+00 -0.0000000000e+00 +0.0000000000e+00 1.3100000000e+02 1.3100000000e+02 0.0000e+00 0.0000e+00
       13  1    1    2    0    0 -1.3809839569e+01 +3.0223084566e+00 +4.2928756547e+01 4.5196629521e+01 1.0566000000e-01 0.0000e+00 -1.0000e+00
      994  1    1    2    0    0 -9.3030930148e+00 +3.6056498364e+00 +3.7792589257e+00 1.3143375156e+02 1.3100000000e+02 0.0000e+00 0.0000e+00
      997  1    1    2    0    0 +2.3112932584e+01 -6.6279582930e+00 +4.5329197336e+02 4.5436961892e+02 2.0000000000e+01 0.0000e+00 0.0000e+00
</event>
<event>
 5      1 +2.3375200e-06 2.11775500e+02 7.95774700e-02 4.83571900e-01
       13 -1    0    0    0    0 +0.0000000000e+00 +0.0000000000e+00 +4.9999998884e+02 5.0000000000e+02 1.0566000000e-01 0.0000e+00 1.0000e+00
      994 -1    0    0    0    0 -0.0000000000e+00 -0.0000000000e+00 +0.0000000000e+00 1.3100000000e+02 1.3100000000e+02 0.0000e+00 0.0000e+00
       13  1    1    2    0    0 +1.4101205233e+00 -1.5385199806e+01 +6.4149510501e+01 6.5983813731e+01 1.0566000000e-01 0.0000e+00 -1.0000e+00
      994  1    1    2    0    0 -6.5333314410e+00 +7.5345696998e+00 +2.8062551002e+00 1.3140901502e+02 1.3100000000e+02 0.0000e+00 0.0000e+00
      997  1    1    2    0    0 +5.1232109176e+00 +7.8506301065e+00 +4.3304422324e+02 4.3360717125e+02 2.0000000000e+01 0.0000e+00 0.0000e+00
</event>
<event>
 5      1 +2.3375200e-06 2.11304900e+02 7.95774700e-02 4.84331000e-01
       13 -1    0    0    0    0 +0.0000000000e+00 +0.0000000000e+00 +4.9999998884e+02 5.0000000000e+02 1.0566000000e-01 0.0000e+00 -1.0000e+00
      994 -1    0    0    0    0 -0.0000000000e+00 -0.0000000000e+00 +0.0000000000e+00 1.3100000000e+02 1.3100000000e+02 0.0000e+00 0.0000e+00
       13  1    1    2    0    0 -1.1903366634e+01 +8.4185874488e+00 +7.6812649597e+01 7.8184122774e+01 1.0566000000e-01 0.0000e+00 1.0000e+00
      994  1    1    2    0    0 -3.5281892606e+00 +1.9594752946e+01 +4.6539174703e+00 1.3258605285e+02 1.3100000000e+02 0.0000e+00 0.0000e+00
      997  1    1    2    0    0 +1.5431555895e+01 -2.8013340395e+01 +4.1853342177e+02 4.2022982438e+02 2.0000000000e+01 0.0000e+00 0.0000e+00
</event>
<event>
 5      1 +2.3375200e-06 2.13689300e+02 7.95774700e-02 4.80527500e-01
       13 -1    0    0    0    0 +0.0000000000e+00 +0.0000000000e+00 +4.9999998884e+02 5.0000000000e+02 1.0566000000e-01 0.0000e+00 -1.0000e+00
      994 -1    0    0    0    0 -0.0000000000e+00 -0.0000000000e+00 +0.0000000000e+00 1.3100000000e+02 1.3100000000e+02 0.0000e+00 0.0000e+00
       13  1    1    2    0    0 +2.5540238638e+01 -1.2493373906e+01 +1.4340687556e+02 1.4619826026e+02 1.0566000000e-01 0.0000e+00 1.0000e+00
      994  1    1    2    0    0 -6.0667413011e+01 +3.7977122793e+01 +2.6922320211e+01 1.5168588656e+02 1.3100000000e+02 0.0000e+00 0.0000e+00
      997  1    1    2    0    0 +3.5127174373e+01 -2.5483748887e+01 +3.2967079307e+02 3.3311585318e+02 2.0000000000e+01 0.0000e+00 0.0000e+00
</event>
<event>
 5      1 +2.3375200e-06 2.12013700e+02 7.95774700e-02 4.83189200e-01
       13 -1    0    0    0    0 +0.0000000000e+00 +0.0000000000e+00 +4.9999998884e+02 5.0000000000e+02 1.0566000000e-01 0.0000e+00 -1.0000e+00
      994 -1    0    0    0    0 -0.0000000000e+00 -0.0000000000e+00 +0.0000000000e+00 1.3100000000e+02 1.3100000000e+02 0.0000e+00 0.0000e+00
       13  1    1    2    0    0 +1.3078881789e+01 -6.6779936527e+00 +7.2179660027e+01 7.3658449846e+01 1.0566000000e-01 0.0000e+00 1.0000e+00
      994  1    1    2    0    0 -8.4930898972e+00 -9.2743680393e+00 +2.9072502779e+00 1.3163433664e+02 1.3100000000e+02 0.0000e+00 0.0000e+00
      997  1    1    2    0    0 -4.5857918921e+00 +1.5952361692e+01 +4.2491307853e+02 4.2570721351e+02 2.0000000000e+01 0.0000e+00 0.0000e+00
</event>
<event>
 5      1 +2.3375200e-06 2.12435900e+02 7.95774700e-02 4.82513600e-01
       13 -1    0    0    0    0 +0.0000000000e+00 +0.0000000000e+00 +4.9999998884e+02 5.0000000000e+02 1.0566000000e-01 0.0000e+00 1.0000e+00
      994 -1    0    0    0    0 -0.0000000000e+00 -0.0000000000e+00 +0.0000000000e+00 1.3100000000e+02 1.3100000000e+02 0.0000e+00 0.0000e+00
       13  1    1    2    0    0 -1.7736730436e+01 -7.2673748042e-01 +7.4980470653e+01 7.7053240667e+01 1.0566000000e-01 0.0000e+00 -1.0000e+00
      994  1    1    2    0    0 +3.0667810061e+01 +1.0275046747e+01 +6.9731877797e+00 1.3511371695e+02 1.3100000000e+02 0.0000e+00 0.0000e+00
      997  1    1    2    0    0 -1.2931079625e+01 -9.5483092664e+00 +4.1804633040e+02 4.1883304239e+02 2.0000000000e+01 0.0000e+00 0.0000e+00
</event>
<event>
 5      1 +2.3375200e-06 2.09679800e+02 7.95774700e-02 4.86986000e-01
       13 -1    0    0    0    0 +0.0000000000e+00 +0.0000000000e+00 +4.9999998884e+02 5.0000000000e+02 1.0566000000e-01 0.0000e+00 1.0000e+00
      994 -1    0    0    0    0 -0.0000000000e+00 -0.0000000000e+00 +0.0000000000e+00 1.3100000000e+02 1.3100000000e+02 0.0000e+00 0.0000e+00
       13  1    1    2    0    0 +9.5929813697e+00 +4.2698781788e+00 +1.1543381638e+01 1.5605062476e+01 1.0566000000e-01 0.0000e+00 -1.0000e+00
      994  1    1    2    0    0 -2.6669145031e+01 -1.5083398369e+01 +8.7213167732e+00 1.3481770495e+02 1.3100000000e+02 0.0000e+00 0.0000e+00
      997  1    1    2    0    0 +1.7076163661e+01 +1.0813520190e+01 +4.7973529043e+02 4.8057723257e+02 2.0000000000e+01 0.0000e+00 0.0000e+00
</event>
<event>
 5      1 +2.3375200e-06 2.08520700e+02 7.95774700e-02 4.88911900e-01
       13 -1    0    0    0    0 +0.0000000000e+00 +0.0000000000e+00 +4.9999998884e+02 5.0000000000e+02 1.0566000000e-01 0.0000e+00 1.0000e+00
      994 -1    0    0    0    0 -0.0000000000e+00 -0.0000000000e+00 +0.0000000000e+00 1.3100000000e+02 1.3100000000e+02 0.0000e+00 0.0000e+00
       13  1    1    2    0    0 +2.4919943799e+00 +1.3558806860e+01 +1.9029473490e+01 2.3498580910e+01 1.0566000000e-01 0.0000e+00 -1.0000e+00
      994  1    1    2    0    0 -6.3257305053e+00 -8.2930617881e+00 +5.4621190247e+00 1.3152803688e+02 1.3100000000e+02 0.0000e+00 0.0000e+00
      997  1    1    2    0    0 +3.8337361254e+00 -5.2657450718e+00 +4.7550839632e+02 4.7597338221e+02 2.0000000000e+01 0.0000e+00 0.0000e+00
</event>
<event>
 5      1 +2.3375200e-06 2.11601100e+02 7.95774700e-02 4.83852700e-01
       13 -1    0    0    0    0 +0.0000000000e+00 +0.0000000000e+00 +4.9999998884e+02 5.0000000000e+02 1.0566000000e-01 0.0000e+00 -1.0000e+00
      994 -1    0    0    0    0 -0.0000000000e+00 -0.0000000000e+00 +0.0000000000e+00 1.3100000000e+02 1.3100000000e+02 0.0000e+00 0.0000e+00
       13  1    1    2    0    0 +1.8789252530e+01 +2.0087389124e+01 +1.3838753954e+02 1.4109451256e+02 1.0566000000e-01 0.0000e+00 1.0000e+00
      994  1    1    2    0    0 -1.5376289149e+01 -2.5026245564e+01 +6.7425412255e+00 1.3442174339e+02 1.3100000000e+02 0.0000e+00 0.0000e+00
      997  1    1    2    0    0 -3.4129633811e+00 +4.9388564395e+00 +3.5486990807e+02 3.5548374404e+02 2.0000000000e+01 0.0000e+00 0.0000e+00
</event>
<event>
 5      1 +2.3375200e-06 2.10455700e+02 7.95774700e-02 4.85712000e-01
       13 -1    0    0    0    0 +0.0000000000e+00 +0.0000000000e+00 +4.9999998884e+02 5.0000000000e+02 1.0566000000e-01 0.0000e+00 1.0000e+00
      994 -1    0    0    0    0 -0.0000000000e+00 -0.0000000000e+00 +0.0000000000e+00 1.3100000000e+02 1.3100000000e+02 0.0000e+00 0.0000e+00
       13  1    1    2    0    0 +5.0641568543e+00 -1.5171835628e+01 +3.6516565302e+01 3.9866038008e+01 1.0566000000e-01 0.0000e+00 -1.0000e+00
      994  1    1    2    0    0 +8.8918910442e+00 +2.6856715132e+01 +7.3730531931e+00 1.3422261653e+02 1.3100000000e+02 0.0000e+00 0.0000e+00
      997  1    1    2    0    0 -1.3956047898e+01 -1.1684879505e+01 +4.5611037034e+02 4.5691134547e+02 2.0000000000e+01 0.0000e+00 0.0000e+00
</event>
<event>
 5      1 +2.3375200e-06 2.07594400e+02 7.95774700e-02 4.90470700e-01
       13 -1    0    0    0    0 +0.0000000000e+00 +0.0000000000e+00 +4.9999998884e+02 5.0000000000e+02 1.0566000000e-01 0.0000e+00 1.0000e+00
      994 -1    0    0    0    0 -0.0000000000e+00 -0.0000000000e+00 +0.0000000000e+00 1.3100000000e+02 1.3100000000e+02 0.0000e+00 0.0000e+00
       13  1    1    2    0    0 -8.2391699501e+00 -7.2522690280e+00 +1.0248163786e+01 1.5017168592e+01 1.0566000000e-01 0.0000e+00 -1.0000e+00
      994  1    1    2    0    0 -2.8626680128e+00 -1.2623752106e+01 +6.5174355729e+00 1.3179920695e+02 1.3100000000e+02 0.0000e+00 0.0000e+00
      997  1    1    2    0    0 +1.1101837963e+01 +1.9876021134e+01 +4.8323438948e+02 4.8418362446e+02 2.0000000000e+01 0.0000e+00 0.0000e+00
</event>
<event>
 5      1 +2.3375200e-06 1.93084200e+02 7.95774700e-02 5.17445800e-01
       13 -1    0    0    0    0 +0.0000000000e+00 +0.0000000000e+00 +4.9999998884e+02 5.0000000000e+02 1.0566000000e-01 0.0000e+00 1.0000e+00
      994 -1    0    0    0    0 -0.0000000000e+00 -0.0000000000e+00 +0.0000000000e+00 1.3100000000e+02 1.3100000000e+02 0.0000e+00 0.0000e+00
       13  1    1    2    0    0 -2.9311853574e+01 +3.9752517075e+01 +4.1811167740e+01 6.4711917647e+01 1.0566000000e-01 0.0000e+00 -1.0000e+00
      994  1    1    2    0    0 +3.6694781123e+01 -5.5648186793e+01 +4.7108385589e+01 1.5434839697e+02 1.3100000000e+02 0.0000e+00 0.0000e+00
      997  1    1    2    0    0 -7.3829275497e+00 +1.5895669718e+01 +4.1108043551e+02 4.1193968538e+02 2.0000000000e+01 0.0000e+00 0.0000e+00
</event>
<event>
 5      1 +2.3375200e-06 2.09456800e+02 7.95774700e-02 4.87354500e-01
       13 -1    0    0    0    0 +0.0000000000e+00 +0.0000000000e+00 +4.9999998884e+02 5.0000000000e+02 1.0566000000e-01 0.0000e+00 1.0000e+00
      994 -1    0    0    0    0 -0.0000000000e+00 -0.0000000000e+00 +0.0000000000e+00 1.3100000000e+02 1.3100000000e+02 0.0000e+00 0.0000e+00
       13  1    1    2    0    0 -6.4440195119e+00 +1.3455014892e+01 +2.5688280837e+01 2.9706257752e+01 1.0566000000e-01 0.0000e+00 -1.0000e+00
      994  1    1    2    0    0 -7.3867175270e+00 -2.4605430138e+01 +7.4890009408e+00 1.3370518286e+02 1.3100000000e+02 0.0000e+00 0.0000e+00
      997  1    1    2    0    0 +1.3830737039e+01 +1.1150415246e+01 +4.6682270706e+02 4.6758855939e+02 2.0000000000e+01 0.0000e+00 0.0000e+00
</event>
<event>
 5      1 +2.3375200e-06 2.12532900e+02 7.95774700e-02 4.82358800e-01
       13 -1    0    0    0    0 +0.0000000000e+00 +0.0000000000e+00 +4.9999998884e+02 5.0000000000e+02 1.0566000000e-01 0.0000e+00 1.0000e+00
      994 -1    0    0    0    0 -0.0000000000e+00 -0.0000000000e+00 +0.0000000000e+00 1.3100000000e+02 1.3100000000e+02 0.0000e+00 0.0000e+00
       13  1    1    2    0    0 +5.0757633841e+00 +9.6761779706e+00 +4.8759949888e+01 4.9969347315e+01 1.0566000000e-01 0.0000e+00 -1.0000e+00
      994  1    1    2    0    0 +7.6815270607e+00 -8.1856997040e+00 +2.3391130669e+00 1.3150088588e+02 1.3100000000e+02 0.0000e+00 0.0000e+00
      997  1    1    2    0    0 -1.2757290445e+01 -1.4904782666e+00 +4.4890092588e+02 4.4952976680e+02 2.0000000000e+01 0.0000e+00 0.0000e+00
</event>
<event>
 5      1 +2.3375200e-06 2.08723700e+02 7.95774700e-02 4.88572600e-01
       13 -1    0    0    0    0 +0.0000000000e+00 +0.0000000000e+00 +4.9999998884e+02 5.0000000000e+02 1.0566000000e-01 0.0000e+00 1.0000e+00
      994 -1    0    0    0    0 -0.0000000000e+00 -0.0000000000e+00 +0.0000000000e+00 1.3100000000e+02 1.3100000000e+02 0.0000e+00 0.0000e+00
       13  1    1    2    0    0 +8.8597212684e+00 +1.2604876961e+01 +3.1986700374e+01 3.5504052571e+01 1.0566000000e-01 0.0000e+00 -1.0000e+00
      994  1    1    2    0    0 +3.9602640047e+00 +1.3737557858e+01 +5.7810330993e+00 1.3190460390e+02 1.3100000000e+02 0.0000e+00 0.0000e+00
      997  1    1    2    0    0 -1.2819985273e+01 -2.6342434820e+01 +4.6223225536e+02 4.6359134353e+02 2.0000000000e+01 0.0000e+00 0.0000e+00
</event>
<event>
 5      1 +2.3375200e-06 2.03025700e+02 7.95774700e-02 4.98425900e-01
       13 -1    0    0    0    0 +0.0000000000e+00 +0.0000000000e+00 +4.9999998884e+02 5.0000000000e+02 1.0566000000e-01 0.0000e+00 1.0000e+00
      994 -1    0    0    0    0 -0.0000000000e+00 -0.0000000000e+00 +0.0000000000e+00 1.3100000000e+02 1.3100000000e+02 0.0000e+00 0.0000e+00
       13  1    1    2    0    0 +2.7787079353e+01 -3.1210319249e+00 +3.5286508262e+01 4.5022343882e+01 1.0566000000e-01 0.0000e+00 -1.0000e+00
      994  1    1    2    0    0 -3.1381412894e+01 -2.5199509534e-01 +1.4714897003e+01 1.3550787715e+02 1.3100000000e+02 0.0000e+00 0.0000e+00
      997  1    1    2    0    0 +3.5943335404e+00 +3.3730270202e+00 +4.4999858357e+02 4.5046977897e+02 2.0000000000e+01 0.0000e+00 0.0000e+00
</event>
<event>
 5      1 +2.3375200e-06 2.09943400e+02 7.95774700e-02 4.86552000e-01
       13 -1    0    0    0    0 +0.0000000000e+00 +0.0000000000e+00 +4.9999998884e+02 5.0000000000e+02 1.0566000000e-01 0.0000e+00 -1.0000e+00
      994 -1    0    0    0    0 -0.0000000000e+00 -0.0000000000e+00 +0.0000000000e+00 1.3100000000e+02 1.3100000000e+02 0.0000e+00 0.0000e+00
       13  1    1    2    0    0 +1.7411920755e+01 +9.5549977034e+00 +5.3662200031e+01 5.7219890263e+01 1.0566000000e-01 0.0000e+00 1.0000e+00
      994  1    1    2    0    0 -9.1155029488e+00 -1.9757285268e+01 +6.1447869237e+00 1.3293683132e+02 1.3100000000e+02 0.0000e+00 0.0000e+00
      997  1    1    2    0    0 -8.2964178065e+00 +1.0202287564e+01 +4.4019300188e+02 4.4084327842e+02 2.0000000000e+01 0.0000e+00 0.0000e+00
</event>
<event>
 5      1 +2.3375200e-06 1.92584000e+02 7.95774700e-02 5.18471400e-01
       13 -1    0    0    0    0 +0.0000000000e+00 +0.0000000000e+00 +4.9999998884e+02 5.0000000000e+02 1.0566000000e-01 0.0000e+00 -1.0000e+00
      994 -1    0    0    0    0 -0.0000000000e+00 -0.0000000000e+00 +0.0000000000e+00 1.3100000000e+02 1.3100000000e+02 0.0000e+00 0.0000e+00
       13  1    1    2    0    0 +3.0007961317e+01 -8.0498184090e+00 +1.1045149957e+01 3.2973987026e+01 1.0566000000e-01 0.0000e+00 1.0000e+00
      994  1    1    2    0    0 -4.0828314880e+01 +8.4747320961e+01 +7.7617632703e+01 1.7898200081e+02 1.3100000000e+02 0.0000e+00 0.0000e+00
      997  1    1    2    0    0 +1.0820353563e+01 -7.6697502552e+01 +4.1133720618e+02 4.1904401217e+02 2.0000000000e+01 0.0000e+00 0.0000e+00
</event>
<event>
 5      1 +2.3375200e-06 1.99792800e+02 7.95774700e-02 5.04340100e-01
       13 -1    0    0    0    0 +0.0000000000e+00 +0.0000000000e+00 +4.9999998884e+02 5.0000000000e+02 1.0566000000e-01 0.0000e+00 -1.0000e+00
      994 -1    0    0    0    0 -0.0000000000e+00 -0.0000000000e+00 +0.0000000000e+00 1.3100000000e+02 1.3100000000e+02 0.0000e+00 0.0000e+00
       13  1    1    2    0    0 +2.8851465130e+01 +3.1630837761e+01 +2.5010274243e+01 4.9582677613e+01 1.0566000000e-01 0.0000e+00 1.0000e+00
      994  1    1    2    0    0 -1.6498401605e+01 -3.2009137410e+01 +3.4328427393e+01 1.4012930836e+02 1.3100000000e+02 0.0000e+00 0.0000e+00
      997  1    1    2    0    0 -1.2353063524e+01 +3.7829964975e-01 +4.4066128720e+02 4.4128801403e+02 2.0000000000e+01 0.0000e+00 0.0000e+00
</event>
<event>
 5      1 +2.3375200e-06 2.11469200e+02 7.95774700e-02 4.84065500e-01
       13 -1    0    0    0    0 +0.0000000000e+00 +0.0000000000e+00 +4.9999998884e+02 5.0000000000e+02 1.0566000000e-01 0.0000e+00 1.0000e+00
      994 -1    0    0    0    0 -0.0000000000e+00 -0.0000000000e+00 +0.0000000000e+00 1.3100000000e+02 1.3100000000e+02 0.0000e+00 0.0000e+00
       13  1    1    2    0    0 +1.1261514165e+01 -2.5584369417e+00 +3.1296232057e+01 3.3359145760e+01 1.0566000000e-01 0.0000e+00 -1.0000e+00
      994  1    1    2    0    0 -3.0681677784e+00 +5.5199369105e+00 +2.7543598074e+00 1.3118105753e+02 1.3100000000e+02 0.0000e+00 0.0000e+00
      997  1    1    2    0    0 -8.1933463867e+00 -2.9614999688e+00 +4.6594939697e+02 4.6645979671e+02 2.0000000000e+01 0.0000e+00 0.0000e+00
</event>
<event>
 5      1 +2.3375200e-06 2.08428700e+02 7.95774700e-02 4.89065900e-01
       13 -1    0    0    0    0 +0.0000000000e+00 +0.0000000000e+00 +4.9999998884e+02 5.0000000000e+02 1.0566000000e-01 0.0000e+00 1.0000e+00
      994 -1    0    0    0    0 -0.0000000000e+00 -0.0000000000e+00 +0.0000000000e+00 1.3100000000e+02 1.3100000000e+02 0.0000e+00 0.0000e+00
       13  1    1    2    0    0 +3.3901950453e+01 +1.3189598853e+01 +1.0570538969e+02 1.1178975059e+02 1.0566000000e-01 0.0000e+00 -1.0000e+00
      994  1    1    2    0    0 -4.5538388629e+01 +2.6245537599e+00 +1.5722811395e+01 1.3960243522e+02 1.3100000000e+02 0.0000e+00 0.0000e+00
      997  1    1    2    0    0 +1.1636438176e+01 -1.5814152613e+01 +3.7857178775e+02 3.7960781419e+02 2.0000000000e+01 0.0000e+00 0.0000e+00
</event>
<event>
 5      1 +2.3375200e-06 2.11770300e+02 7.95774700e-02 4.83580200e-01
       13 -1    0    0    0    0 +0.0000000000e+00 +0.0000000000e+00 +4.9999998884e+02 5.0000000000e+02 1.0566000000e-01 0.0000e+00 1.0000e+00
      994 -1    0    0    0    0 -0.0000000000e+00 -0.0000000000e+00 +0.0000000000e+00 1.3100000000e+02 1.3100000000e+02 0.0000e+00 0.0000e+00
       13  1    1    2    0    0 -2.7306659644e+01 -7.9991947956e+00 +1.5613160141e+02 1.5870327313e+02 1.0566000000e-01 0.0000e+00 -1.0000e+00
      994  1    1    2    0    0 +4.3047866407e+01 -1.8095175492e+01 +1.3281906480e+01 1.3970670427e+02 1.3100000000e+02 0.0000e+00 0.0000e+00
      997  1    1    2    0    0 -1.5741206763e+01 +2.6094370287e+01 +3.3058648095e+02 3.3259002260e+02 2.0000000000e+01 0.0000e+00 0.0000e+00
</event>
<event>
 5      1 +2.3375200e-06 2.08636600e+02 7.95774700e-02 4.88718100e-01
       13 -1    0    0    0    0 +0.0000000000e+00 +0.0000000000e+00 +4.9999998884e+02 5.0000000000e+02 1.0566000000e-01 0.0000e+00 1.0000e+00
      994 -1    0    0    0    0 -0.0000000000e+00 -0.0000000000e+00 +0.0000000000e+00 1.3100000000e+02 1.3100000000e+02 0.0000e+00 0.0000e+00
       13  1    1    2    0    0 -4.8532261169e+00 -1.3476199461e+01 +2.0178060112e+01 2.4745242564e+01 1.0566000000e-01 0.0000e+00 -1.0000e+00
      994  1    1    2    0    0 +1.2326622082e+01 +1.2349754247e+01 +6.3595537479e+00 1.3230988612e+02 1.3100000000e+02 0.0000e+00 0.0000e+00
      997  1    1    2    0    0 -7.4733959652e+00 +1.1264452137e+00 +4.7346237498e+02 4.7394487131e+02 2.0000000000e+01 0.0000e+00 0.0000e+00
</event>
<event>
 5      1 +2.3375200e-06 2.13089400e+02 7.95774700e-02 4.81474400e-01
       13 -1    0    0    0    0 +0.0000000000e+00 +0.0000000000e+00 +4.9999998884e+02 5.0000000000e+02 1.0566000000e-01 0.0000e+00 -1.0000e+00
      994 -1    0    0    0    0 -0.0000000000e+00 -0.0000000000e+00 +0.0000000000e+00 1.3100000000e+02 1.3100000000e+02 0.0000e+00 0.0000e+00
       13  1    1    2    0    0 +1.0998985194e+01 -2.4517543289e+00 +3.6682689019e+01 3.8374726218e+01 1.0566000000e-01 0.0000e+00 1.0000e+00
      994  1    1    2    0    0 -4.4848020158e+01 +1.0975700659e+01 +1.1887335092e+01 1.3940631138e+02 1.3100000000e+02 0.0000e+00 0.0000e+00
      997  1    1    2    0    0 +3.3849034964e+01 -8.5239463298e+00 +4.5142996472e+02 4.5321896240e+02 2.0000000000e+01 0.0000e+00 0.0000e+00
</event>
<event>
 5      1 +2.3375200e-06 2.12998700e+02 7.95774700e-02 4.81618200e-01
       13 -1    0    0    0    0 +0.0000000000e+00 +0.0000000000e+00 +4.9999998884e+02 5.0000000000e+02 1.0566000000e-01 0.0000e+00 -1.0000e+00
      994 -1    0    0    0    0 -0.0000000000e+00 -0.0000000000e+00 +0.0000000000e+00 1.3100000000e+02 1.3100000000e+02 0.0000e+00 0.0000e+00
       13  1    1    2    0    0 -1.0268764524e+01 +4.2417298798e+00 +4.5056974688e+01 4.6406701341e+01 1.0566000000e-01 0.0000e+00 1.0000e+00
      994  1    1    2    0    0 +1.9867293555e+01 -2.1981617368e+01 +5.6756067825e+00 1.3442884128e+02 1.3100000000e+02 0.0000e+00 0.0000e+00
      997  1    1    2    0    0 -9.5985290301e+00 +1.7739887489e+01 +4.4926740737e+02 4.5016445738e+02 2.0000000000e+01 0.0000e+00 0.0000e+00
</event>
<event>
 5      1 +2.3375200e-06 2.07826100e+02 7.95774700e-02 4.90079100e-01
       13 -1    0    0    0    0 +0.0000000000e+00 +0.0000000000e+00 +4.9999998884e+02 5.0000000000e+02 1.0566000000e-01 0.0000e+00 -1.0000e+00
      994 -1    0    0    0    0 -0.0000000000e+00 -0.0000000000e+00 +0.0000000000e+00 1.3100000000e+02 1.3100000000e+02 0.0000e+00 0.0000e+00
       13  1    1    2    0    0 -1.9442549528e+01 -2.0544559603e+01 +6.2489580592e+01 6.8593370729e+01 1.0566000000e-01 0.0000e+00 1.0000e+00
      994  1    1    2    0    0 +3.9459848331e+01 +1.0911714715e+01 +1.4131747307e+01 1.3797409695e+02 1.3100000000e+02 0.0000e+00 0.0000e+00
      997  1    1    2    0    0 -2.0017298803e+01 +9.6328448873e+00 +4.2337866094e+02 4.2443253232e+02 2.0000000000e+01 0.0000e+00 0.0000e+00
</event>
<event>
 5      1 +2.3375200e-06 2.09140600e+02 7.95774700e-02 4.87878600e-01
       13 -1    0    0    0    0 +0.0000000000e+00 +0.0000000000e+00 +4.9999998884e+02 5.0000000000e+02 1.0566000000e-01 0.0000e+00 -1.0000e+00
      994 -1    0    0    0    0 -0.0000000000e+00 -0.0000000000e+00 +0.0000000000e+00 1.3100000000e+02 1.3100000000e+02 0.0000e+00 0.0000e+00
       13  1    1    2    0    0 -3.8025003074e+01 +4.5458374584e+00 +1.6392203967e+02 1.6833600848e+02 1.0566000000e-01 0.0000e+00 1.0000e+00
      994  1    1    2    0    0 +3.1492002586e+01 +1.2967831725e+01 +1.0308915513e+01 1.3574676654e+02 1.3100000000e+02 0.0000e+00 0.0000e+00
      997  1    1    2    0    0 +6.5330004882e+00 -1.7513669184e+01 +3.2576903365e+02 3.2691722498e+02 2.0000000000e+01 0.0000e+00 0.0000e+00
</event>
<event>
 5      1 +2.3375200e-06 2.03755400e+02 7.95774700e-02 4.97124600e-01
       13 -1    0    0    0    0 +0.0000000000e+00 +0.0000000000e+00 +4.9999998884e+02 5.0000000000e+02 1.0566000000e-01 0.0000e+00 1.0000e+00
      994 -1    0    0    0    0 -0.0000000000e+00 -0.0000000000e+00 +0.0000000000e+00 1.3100000000e+02 1.3100000000e+02 0.0000e+00 0.0000e+00
       13  1    1    2    0    0 +2.1368900100e+01 -4.2745354159e+00 +4.3793513487e+01 4.8916096861e+01 1.0566000000e-01 0.0000e+00 -1.0000e+00
      994  1    1    2    0    0 +5.1667594217e+01 +2.1350138661e+01 +2.5818477613e+01 1.4475138168e+02 1.3100000000e+02 0.0000e+00 0.0000e+00
      997  1    1    2    0    0 -7.3036494317e+01 -1.7075603245e+01 +4.3038799774e+02 4.3733252146e+02 2.0000000000e+01 0.0000e+00 0.0000e+00
</event>
<event>
 5      1 +2.3375200e-06 2.09530900e+02 7.95774700e-02 4.87232000e-01
       13 -1    0    0    0    0 +0.0000000000e+00 +0.0000000000e+00 +4.9999998884e+02 5.0000000000e+02 1.0566000000e-01 0.0000e+00 1.0000e+00
      994 -1    0    0    0    0 -0.0000000000e+00 -0.0000000000e+00 +0.0000000000e+00 1.3100000000e+02 1.3100000000e+02 0.0000e+00 0.0000e+00
       13  1    1    2    0    0 +9.9520117206e+00 -1.5648704963e+01 +5.0710876685e+01 5.3995635772e+01 1.0566000000e-01 0.0000e+00 -1.0000e+00
      994  1    1    2    0    0 +1.1415180888e+01 +1.0271677761e+01 +5.2835313154e+00 1.3200276293e+02 1.3100000000e+02 0.0000e+00 0.0000e+00
      997  1    1    2    0    0 -2.1367192608e+01 +5.3770272025e+00 +4.4400558084e+02 4.4500160129e+02 2.0000000000e+01 0.0000e+00 0.0000e+00
</event>
<event>
 5      1 +2.3375200e-06 2.12027000e+02 7.95774700e-02 4.83167800e-01
       13 -1    0    0    0    0 +0.0000000000e+00 +0.0000000000e+00 +4.9999998884e+02 5.0000000000e+02 1.0566000000e-01 0.0000e+00 -1.0000e+00
      994 -1    0    0    0    0 -0.0000000000e+00 -0.0000000000e+00 +0.0000000000e+00 1.3100000000e+02 1.3100000000e+02 0.0000e+00 0.0000e+00
       13  1    1    2    0    0 -9.0905659477e+00 +4.8753283850e+00 +3.0448988250e+01 3.2149016557e+01 1.0566000000e-01 0.0000e+00 1.0000e+00
      994  1    1    2    0    0 +9.3608470420e+00 +3.4740407033e+00 +2.6086481688e+00 1.3140585779e+02 1.3100000000e+02 0.0000e+00 0.0000e+00
      997  1    1    2    0    0 -2.7028109430e-01 -8.3493690883e+00 +4.6694235242e+02 4.6744512565e+02 2.0000000000e+01 0.0000e+00 0.0000e+00
</event>
<event>
 5      1 +2.3375200e-06 2.01492500e+02 7.95774700e-02 5.01200000e-01
       13 -1    0    0    0    0 +0.0000000000e+00 +0.0000000000e+00 +4.9999998884e+02 5.0000000000e+02 1.0566000000e-01 0.0000e+00 1.0000e+00
      994 -1    0    0    0    0 -0.0000000000e+00 -0.0000000000e+00 +0.0000000000e+00 1.3100000000e+02 1.3100000000e+02 0.0000e+00 0.0000e+00
       13  1    1    2    0    0 -2.8681487037e+01 -3.0329306269e+01 +2.2816812203e+01 4.7572183055e+01 1.0566000000e-01 0.0000e+00 -1.0000e+00
      994  1    1    2    0    0 -3.7696238422e+01 +5.4362037379e+01 +5.7886172763e+01 1.5775945771e+02 1.3100000000e+02 0.0000e+00 0.0000e+00
      997  1    1    2    0    0 +6.6377725459e+01 -2.4032731110e+01 +4.1929700387e+02 4.2566835924e+02 2.0000000000e+01 0.0000e+00 0.0000e+00
</event>
<event>
 5      1 +2.3375200e-06 2.01718500e+02 7.95774700e-02 5.00787600e-01
       13 -1    0    0    0    0 +0.0000000000e+00 +0.0000000000e+00 +4.9999998884e+02 5.0000000000e+02 1.0566000000e-01 0.0000e+00 1.0000e+00
      994 -1    0    0    0    0 -0.0000000000e+00 -0.0000000000e+00 +0.0000000000e+00 1.3100000000e+02 1.3100000000e+02 0.0000e+00 0.0000e+00
       13  1    1    2    0    0 +2.4241052914e+01 +1.4110798711e+01 +3.7901017791e+01 4.7151262976e+01 1.0566000000e-01 0.0000e+00 -1.0000e+00
      994  1    1    2    0    0 -1.4443294111e+00 -1.0973825960e+01 +1.1224974772e+01 1.3194510602e+02 1.3100000000e+02 0.0000e+00 0.0000e+00
      997  1    1    2    0    0 -2.2796723502e+01 -3.1369727512e+00 +4.5087399627e+02 4.5190363101e+02 2.0000000000e+01 0.0000e+00 0.0000e+00
</event>
<event>
 5      1 +2.3375200e-06 2.07397400e+02 7.95774700e-02 4.90804300e-01
       13 -1    0    0    0    0 +0.0000000000e+00 +0.0000000000e+00 +4.9999998884e+02 5.0000000000e+02 1.0566000000e-01 0.0000e+00 1.0000e+00
      994 -1    0    0    0    0 -0.0000000000e+00 -0.0000000000e+00 +0.0000000000e+00 1.3100000000e+02 1.3100000000e+02 0.0000e+00 0.0000e+00
       13  1    1    2    0    0 -1.8490139628e+01 +1.0846432318e+01 +3.7200276754e+01 4.2934858939e+01 1.0566000000e-01 0.0000e+00 -1.0000e+00
      994  1    1    2    0    0 -5.2283684673e-01 -4.5344950245e+01 +1.6524157184e+01 1.3960832941e+02 1.3100000000e+02 0.0000e+00 0.0000e+00
      997  1    1    2    0    0 +1.9012976475e+01 +3.4498517928e+01 +4.4627555490e+02 4.4845681165e+02 2.0000000000e+01 0.0000e+00 0.0000e+00
</event>
<event>
 5      1 +2.3375200e-06 2.11216000e+02 7.95774700e-02 4.84475000e-01
       13 -1    0    0    0    0 +0.0000000000e+00 +0.0000000000e+00 +4.9999998884e+02 5.0000000000e+02 1.0566000000e-01 0.0000e+00 -1.0000e+00
      994 -1    0    0    0    0 -0.0000000000e+00 -0.0000000000e+00 +0.0000000000e+00 1.3100000000e+02 1.3100000000e+02 0.0000e+00 0.0000e+00
       13  1    1    2    0    0 +9.7898192623e+00 +6.8124944283e+00 +2.6142185872e+01 2.8734573039e+01 1.0566000000e-01 0.0000e+00 1.0000e+00
      994  1    1    2    0    0 -1.3899027544e+01 -1.1198053352e+01 +4.3380890803e+00 1.3228151187e+02 1.3100000000e+02 0.0000e+00 0.0000e+00
      997  1    1    2    0    0 +4.1092082813e+00 +4.3855589236e+00 +4.6951971388e+02 4.6998391509e+02 2.0000000000e+01 0.0000e+00 0.0000e+00
</event>
<event>
 5      1 +2.3375200e-06 2.11477900e+02 7.95774700e-02 4.84051500e-01
       13 -1    0    0    0    0 +0.0000000000e+00 +0.0000000000e+00 +4.9999998884e+02 5.0000000000e+02 1.0566000000e-01 0.0000e+00 -1.0000e+00
      994 -1    0    0    0    0 -0.0000000000e+00 -0.0000000000e+00 +0.0000000000e+00 1.3100000000e+02 1.3100000000e+02 0.0000e+00 0.0000e+00
       13  1    1    2    0    0 +1.4187467075e+01 -3.3914901048e+00 +5.0755378468e+01 5.2810094060e+01 1.0566000000e-01 0.0000e+00 1.0000e+00
      994  1    1    2    0    0 -7.4552563553e+00 -2.1332078582e+00 +2.8475705240e+00 1.3126019991e+02 1.3100000000e+02 0.0000e+00 0.0000e+00
      997  1    1    2    0    0 -6.7322107202e+00 +5.5246979630e+00 +4.4639703984e+02 4.4692970603e+02 2.0000000000e+01 0.0000e+00 0.0000e+00
</event>
<event>
 5      1 +2.3375200e-06 2.09808600e+02 7.95774700e-02 4.86773800e-01
       13 -1    0    0    0    0 +0.0000000000e+00 +0.0000000000e+00 +4.9999998884e+02 5.0000000000e+02 1.0566000000e-01 0.0000e+00 1.0000e+00
      994 -1    0    0    0    0 -0.0000000000e+00 -0.0000000000e+00 +0.0000000000e+00 1.3100000000e+02 1.3100000000e+02 0.0000e+00 0.0000e+00
       13  1    1    2    0    0 +1.0695035353e+01 +4.5084103858e+00 +1.8331339263e+01 2.1696974642e+01 1.0566000000e-01 0.0000e+00 -1.0000e+00
      994  1    1    2    0    0 -1.5537912823e+00 -7.5899846208e+00 +4.1769979320e+00 1.3129535196e+02 1.3100000000e+02 0.0000e+00 0.0000e+00
      997  1    1    2    0    0 -9.1412440707e+00 +3.0815742351e+00 +4.7749165164e+02 4.7800767340e+02 2.0000000000e+01 0.0000e+00 0.0000e+00
</event>
<event>
 5      1 +2.3375200e-06 2.07365300e+02 7.95774700e-02 4.90858900e-01
       13 -1    0    0    0    0 +0.0000000000e+00 +0.0000000000e+00 +4.9999998884e+02 5.0000000000e+02 1.0566000000e-01 0.0000e+00 1.0000e+00
      994 -1    0    0    0    0 -0.0000000000e+00 -0.0000000000e+00 +0.0000000000e+00 1.3100000000e+02 1.3100000000e+02 0.0000e+00 0.0000e+00
       13  1    1    2    0    0 +1.1388473824e+01 +2.6721696828e+01 +6.5640382316e+01 7.1780341125e+01 1.0566000000e-01 0.0000e+00 -1.0000e+00
      994  1    1    2    0    0 +1.5794717526e+00 -3.2471368548e+01 +1.1295362700e+01 1.3544544926e+02 1.3100000000e+02 0.0000e+00 0.0000e+00
      997  1    1    2    0    0 -1.2967945576e+01 +5.7496717199e+00 +4.2306424382e+02 4.2377420962e+02 2.0000000000e+01 0.0000e+00 0.0000e+00
</event>
<event>
 5      1 +2.3375200e-06 1.93633900e+02 7.95774700e-02 5.16326600e-01
       13 -1    0    0    0    0 +0.0000000000e+00 +0.0000000000e+00 +4.9999998884e+02 5.0000000000e+02 1.0566000000e-01 0.0000e+00 -1.0000e+00
      994 -1    0    0    0    0 -0.0000000000e+00 -0.0000000000e+00 +0.0000000000e+00 1.3100000000e+02 1.3100000000e+02 0.0000e+00 0.0000e+00
       13  1    1    2    0    0 -5.1306260990e+01 -2.1106944393e+01 +3.6292157552e+01 6.6294550170e+01 1.0566000000e-01 0.0000e+00 1.0000e+00
      994  1    1    2    0    0 +4.7674292407e+01 +1.1321416695e+02 +1.4050346397e+02 2.2801865963e+02 1.3100000000e+02 0.0000e+00 0.0000e+00
      997  1    1    2    0    0 +3.6319685828e+00 -9.2107222552e+01 +3.2320436731e+02 3.3668679020e+02 2.0000000000e+01 0.0000e+00 0.0000e+00
</event>
<event>
 5      1 +2.3375200e-06 2.11372400e+02 7.95774700e-02 4.84222000e-01
       13 -1    0    0    0    0 +0.0000000000e+00 +0.0000000000e+00 +4.9999998884e+02 5.0000000000e+02 1.0566000000e-01 0.0000e+00 -1.0000e+00
      994 -1    0    0    0    0 -0.0000000000e+00 -0.0000000000e+00 +0.0000000000e+00 1.3100000000e+02 1.3100000000e+02 0.0000e+00 0.0000e+00
       13  1    1    2    0    0 -1.7675768685e+01 +1.0634298371e+01 +9.9401659144e+01 1.0151956513e+02 1.0566000000e-01 0.0000e+00 1.0000e+00
      994  1    1    2    0    0 +4.3937515555e+00 -1.5465015634e+01 +3.9139960116e+00 1.3204086915e+02 1.3100000000e+02 0.0000e+00 0.0000e+00
      997  1    1    2    0    0 +1.3282017130e+01 +4.8307172628e+00 +3.9668433368e+02 3.9743956571e+02 2.0000000000e+01 0.0000e+00 0.0000e+00
</event>
<event>
 5      1 +2.3375200e-06 2.11475400e+02 7.95774700e-02 4.84055600e-01
       13 -1    0    0    0    0 +0.0000000000e+00 +0.0000000000e+00 +4.9999998884e+02 5.0000000000e+02 1.0566000000e-01 0.0000e+00 1.0000e+00
      994 -1    0    0    0    0 -0.0000000000e+00 -0.0000000000e+00 +0.0000000000e+00 1.3100000000e+02 1.3100000000e+02 0.0000e+00 0.0000e+00
       13  1    1    2    0    0 +9.8379920564e+00 -5.4828160469e+00 +3.4144272970e+01 3.5953996999e+01 1.0566000000e-01 0.0000e+00 -1.0000e+00
      994  1    1    2    0    0 +2.7762862374e+00 -7.3693230533e+00 +2.8588560981e+00 1.3126761880e+02 1.3100000000e+02 0.0000e+00 0.0000e+00
      997  1    1    2    0    0 -1.2614278294e+01 +1.2852139100e+01 +4.6299685977e+02 4.6377838420e+02 2.0000000000e+01 0.0000e+00 0.0000e+00
</event>
<event>
 5      1 +2.3375200e-06 2.07768900e+02 7.95774700e-02 4.90175600e-01
       13 -1    0    0    0    0 +0.0000000000e+00 +0.0000000000e+00 +4.9999998884e+02 5.0000000000e+02 1.0566000000e-01 0.0000e+00 -1.0000e+00
      994 -1    0    0    0    0 -0.0000000000e+00 -0.0000000000e+00 +0.0000000000e+00 1.3100000000e+02 1.3100000000e+02 0.0000e+00 0.0000e+00
       13  1    1    2    0    0 +3.0310184958e+01 -5.2819351142e+01 +1.9085842149e+02 2.0033856190e+02 1.0566000000e-01 0.0000e+00 1.0000e+00
      994  1    1    2    0    0 -6.5024672791e+01 +4.5730852214e+01 +3.9872770236e+01 1.5833621418e+02 1.3100000000e+02 0.0000e+00 0.0000e+00
      997  1    1    2    0    0 +3.4714487833e+01 +7.0884989280e+00 +2.6926879711e+02 2.7232522392e+02 2.0000000000e+01 0.0000e+00 0.0000e+00
</event>
<event>
 5      1 +2.3375200e-06 2.07364000e+02 7.95774700e-02 4.90861100e-01
       13 -1    0    0    0    0 +0.0000000000e+00 +0.0000000000e+00 +4.9999998884e+02 5.0000000000e+02 1.0566000000e-01 0.0000e+00 -1.0000e+00
      994 -1    0    0    0    0 -0.0000000000e+00 -0.0000000000e+00 +0.0000000000e+00 1.3100000000e+02 1.3100000000e+02 0.0000e+00 0.0000e+00
       13  1    1    2    0    0 -7.7872945985e+00 -2.0981283812e+01 +4.3829963249e+01 4.9213139201e+01 1.0566000000e-01 0.0000e+00 1.0000e+00
      994  1    1    2    0    0 +4.1849354399e+01 +7.8913697209e-01 +1.4941423029e+01 1.3833378952e+02 1.3100000000e+02 0.0000e+00 0.0000e+00
      997  1    1    2    0    0 -3.4062059801e+01 +2.0192146840e+01 +4.4122860256e+02 4.4345307128e+02 2.0000000000e+01 0.0000e+00 0.0000e+00
</event>
<event>
 5      1 +2.3375200e-06 1.99800900e+02 7.95774700e-02 5.04324900e-01
       13 -1    0    0    0    0 +0.0000000000e+00 +0.0000000000e+00 +4.9999998884e+02 5.0000000000e+02 1.0566000000e-01 0.0000e+00 1.0000e+00
      994 -1    0    0    0    0 -0.0000000000e+00 -0.0000000000e+00 +0.0000000000e+00 1.3100000000e+02 1.3100000000e+02 0.0000e+00 0.0000e+00
       13  1    1    2    0    0 -4.0006062720e+01 -1.2314420399e+01 +8.6656162418e+01 9.6236332293e+01 1.0566000000e-01 0.0000e+00 -1.0000e+00
      994  1    1    2    0    0 +7.7684627249e+00 -5.2950242759e+00 +1.2707730763e+01 1.3195026607e+02 1.3100000000e+02 0.0000e+00 0.0000e+00
      997  1    1    2    0    0 +3.2237599995e+01 +1.7609444675e+01 +4.0063609566e+02 4.0281340164e+02 2.0000000000e+01 0.0000e+00 0.0000e+00
</event>
<event>
 5      1 +2.3375200e-06 2.10295300e+02 7.95774700e-02 4.85974500e-01
       13 -1    0    0    0    0 +0.0000000000e+00 +0.0000000000e+00 +4.9999998884e+02 5.0000000000e+02 1.0566000000e-01 0.0000e+00 1.0000e+00
      994 -1    0    0    0    0 -0.0000000000e+00 -0.0000000000e+00 +0.0000000000e+00 1.3100000000e+02 1.3100000000e+02 0.0000e+00 0.0000e+00
       13  1    1    2    0    0 +1.3434701798e+01 +1.1999073932e+01 +6.9262823488e+01 7.1566883886e+01 1.0566000000e-01 0.0000e+00 -1.0000e+00
      994  1    1    2    0    0 +5.5727622166e+00 +3.8955287343e+00 +3.7186475815e+00 1.3122903323e+02 1.3100000000e+02 0.0000e+00 0.0000e+00
      997  1    1    2    0    0 -1.9007464014e+01 -1.5894602666e+01 +4.2701851777e+02 4.2820408288e+02 2.0000000000e+01 0.0000e+00 0.0000e+00
</event>
<event>
 5      1 +2.3375200e-06 2.11989100e+02 7.95774700e-02 4.83228600e-01
       13 -1    0    0    0    0 +0.0000000000e+00 +0.0000000000e+00 +4.9999998884e+02 5.0000000000e+02 1.0566000000e-01 0.0000e+00 1.0000e+00
      994 -1    0    0    0    0 -0.0000000000e+00 -0.0000000000e+00 +0.0000000000e+00 1.3100000000e+02 1.3100000000e+02 0.0000e+00 0.0000e+00
       13  1    1    2    0    0 -1.2415524422e+01 +7.1022274411e+00 +6.4259868345e+01 6.5832581029e+01 1.0566000000e-01 0.0000e+00 -1.0000e+00
      994  1    1    2    0    0 +1.2828672989e+01 +1.1441627387e+01 +3.6049040296e+00 1.3217216432e+02 1.3100000000e+02 0.0000e+00 0.0000e+00
      997  1    1    2    0    0 -4.1314856716e-01 -1.8543854828e+01 +4.3213521646e+02 4.3299525465e+02 2.0000000000e+01 0.0000e+00 0.0000e+00
</event>
<event>
 5      1 +2.3375200e-06 2.11930000e+02 7.95774700e-02 4.83323500e-01
       13 -1    0    0    0    0 +0.0000000000e+00 +0.0000000000e+00 +4.9999998884e+02 5.0000000000e+02 1.0566000000e-01 0.0000e+00 1.0000e+00
      994 -1    0    0    0    0 -0.0000000000e+00 -0.0000000000e+00 +0.0000000000e+00 1.3100000000e+02 1.3100000000e+02 0.0000e+00 0.0000e+00
       13  1    1    2    0    0 +5.6636332198e+00 -9.9700714917e+00 +5.2797473295e+01 5.4028357528e+01 1.0566000000e-01 0.0000e+00 -1.0000e+00
      994  1    1    2    0    0 -1.7272253548e+00 -1.5372182445e+01 +3.3741662368e+00 1.3195329590e+02 1.3100000000e+02 0.0000e+00 0.0000e+00
      997  1    1    2    0    0 -3.9364078650e+00 +2.5342253936e+01 +4.4382834930e+02 4.4501834657e+02 2.0000000000e+01 0.0000e+00 0.0000e+00
</event>
<event>
 5      1 +2.3375200e-06 2.05415800e+02 7.95774700e-02 4.94207500e-01
       13 -1    0    0    0    0 +0.0000000000e+00 +0.0000000000e+00 +4.9999998884e+02 5.0000000000e+02 1.0566000000e-01 0.0000e+00 1.0000e+00
      994 -1    0    0    0    0 -0.0000000000e+00 -0.0000000000e+00 +0.0000000000e+00 1.3100000000e+02 1.3100000000e+02 0.0000e+00 0.0000e+00
       13  1    1    2    0    0 -3.0734807570e+01 +1.8887430356e+01 +8.1990521849e+01 8.9575779421e+01 1.0566000000e-01 0.0000e+00 -1.0000e+00
      994  1    1    2    0    0 +1.5262354223e+01 -3.1400848291e+01 +1.3846750285e+01 1.3627797043e+02 1.3100000000e+02 0.0000e+00 0.0000e+00
      997  1    1    2    0    0 +1.5472453347e+01 +1.2513417935e+01 +4.0416271670e+02 4.0514625015e+02 2.0000000000e+01 0.0000e+00 0.0000e+00
</event>
<event>
 5      1 +2.3375200e-06 1.98439300e+02 7.95774700e-02 5.06890800e-01
       13 -1    0    0    0    0 +0.0000000000e+00 +0.0000000000e+00 +4.9999998884e+02 5.0000000000e+02 1.0566000000e-01 0.0000e+00 1.0000e+00
      994 -1    0    0    0    0 -0.0000000000e+00 -0.0000000000e+00 +0.0000000000e+00 1.3100000000e+02 1.3100000000e+02 0.0000e+00 0.0000e+00
       13  1    1    2    0    0 +2.2911516127e+01 +3.2280407934e+01 +6.4272541097e+01 7.5484654141e+01 1.0566000000e-01 0.0000e+00 -1.0000e+00
      994  1    1    2    0    0 -1.6158152768e+01 +7.7977647702e-01 +1.4865555639e+01 1.3282950989e+02 1.3100000000e+02 0.0000e+00 0.0000e+00
      997  1    1    2    0    0 -6.7533633593e+00 -3.3060184411e+01 +4.2086189210e+02 4.2268583597e+02 2.0000000000e+01 0.0000e+00 0.0000e+00
</event>
<event>
 5      1 +2.3375200e-06 2.13519100e+02 7.95774700e-02 4.80795600e-01
       13 -1    0    0    0    0 +0.0000000000e+00 +0.0000000000e+00 +4.9999998884e+02 5.0000000000e+02 1.0566000000e-01 0.0000e+00 1.0000e+00
      994 -1    0    0    0    0 -0.0000000000e+00 -0.0000000000e+00 +0.0000000000e+00 1.3100000000e+02 1.3100000000e+02 0.0000e+00 0.0000e+00
       13  1    1    2    0    0 -2.9247035170e+01 +2.7028045233e+01 +1.3926980301e+02 1.4485162577e+02 1.0566000000e-01 0.0000e+00 -1.0000e+00
      994  1    1    2    0    0 +7.8640650077e+01 -6.1612639431e+01 +5.4694431805e+01 1.7358845023e+02 1.3100000000e+02 0.0000e+00 0.0000e+00
      997  1    1    2    0    0 -4.9393614907e+01 +3.4584594198e+01 +3.0603575402e+02 3.1255992400e+02 2.0000000000e+01 0.0000e+00 0.0000e+00
</event>
<event>
 5      1 +2.3375200e-06 2.10589600e+02 7.95774700e-02 4.85493300e-01
       13 -1    0    0    0    0 +0.0000000000e+00 +0.0000000000e+00 +4.9999998884e+02 5.0000000000e+02 1.0566000000e-01 0.0000e+00 1.0000e+00
      994 -1    0    0    0    0 -0.0000000000e+00 -0.0000000000e+00 +0.0000000000e+00 1.3100000000e+02 1.3100000000e+02 0.0000e+00 0.0000e+00
       13  1    1    2    0    0 +1.2382898665e+01 +1.2741551590e+01 +3.9781509916e+01 4.3569060255e+01 1.0566000000e-01 0.0000e+00 -1.0000e+00
      994  1    1    2    0    0 -2.4775595498e+01 -2.7413908750e+01 +1.0128734298e+01 1.3648788878e+02 1.3100000000e+02 0.0000e+00 0.0000e+00
      997  1    1    2    0    0 +1.2392696833e+01 +1.4672357160e+01 +4.5008974462e+02 4.5094305096e+02 2.0000000000e+01 0.0000e+00 0.0000e+00
</event>
<event>
 5      1 +2.3375200e-06 2.10071800e+02 7.95774700e-02 4.86341000e-01
       13 -1    0    0    0    0 +0.0000000000e+00 +0.0000000000e+00 +4.9999998884e+02 5.0000000000e+02 1.0566000000e-01 0.0000e+00 -1.0000e+00
      994 -1    0    0    0    0 -0.0000000000e+00 -0.0000000000e+00 +0.0000000000e+00 1.3100000000e+02 1.3100000000e+02 0.0000e+00 0.0000e+00
       13  1    1    2    0    0 +1.0098122887e+01 -1.4503984719e+01 +6.8128878452e+01 7.0383896608e+01 1.0566000000e-01 0.0000e+00 1.0000e+00
      994  1    1    2    0    0 +7.8230207849e+00 -9.5647180575e+00 +4.4295425023e+00 1.3165600758e+02 1.3100000000e+02 0.0000e+00 0.0000e+00
      997  1    1    2    0    0 -1.7921143672e+01 +2.4068702777e+01 +4.2744156788e+02 4.2896009581e+02 2.0000000000e+01 0.0000e+00 0.0000e+00
</event>
<event>
 5      1 +2.3375200e-06 2.11719100e+02 7.95774700e-02 4.83662600e-01
       13 -1    0    0    0    0 +0.0000000000e+00 +0.0000000000e+00 +4.9999998884e+02 5.0000000000e+02 1.0566000000e-01 0.0000e+00 -1.0000e+00
      994 -1    0    0    0    0 -0.0000000000e+00 -0.0000000000e+00 +0.0000000000e+00 1.3100000000e+02 1.3100000000e+02 0.0000e+00 0.0000e+00
       13  1    1    2    0    0 -1.6260454560e+01 +1.8605258257e+00 +5.8278281917e+01 6.0532910438e+01 1.0566000000e-01 0.0000e+00 1.0000e+00
      994  1    1    2    0    0 +1.8695940244e+01 -7.1078325423e+00 +4.3390240582e+00 1.3258916470e+02 1.3100000000e+02 0.0000e+00 0.0000e+00
      997  1    1    2    0    0 -2.4354856837e+00 +5.2473067167e+00 +4.3738268286e+02 4.3787792487e+02 2.0000000000e+01 0.0000e+00 0.0000e+00
</event>
<event>
 5      1 +2.3375200e-06 2.11570700e+02 7.95774700e-02 4.83901700e-01
       13 -1    0    0    0    0 +0.0000000000e+00 +0.0000000000e+00 +4.9999998884e+02 5.0000000000e+02 1.0566000000e-01 0.0000e+00 -1.0000e+00
      994 -1    0    0    0    0 -0.0000000000e+00 -0.0000000000e+00 +0.0000000000e+00 1.3100000000e+02 1.3100000000e+02 0.0000e+00 0.0000e+00
       13  1    1    2    0    0 -1.2617799428e+01 -4.1214158502e-01 +3.9713130710e+01 4.1671604696e+01 1.0566000000e-01 0.0000e+00 1.0000e+00
      994  1    1    2    0    0 +4.1636228167e+00 +1.0060838010e+01 +3.0628390625e+00 1.3148740320e+02 1.3100000000e+02 0.0000e+00 0.0000e+00
      997  1    1    2    0    0 +8.4541766117e+00 -9.6486964253e+00 +4.5722401906e+02 4.5784099211e+02 2.0000000000e+01 0.0000e+00 0.0000e+00
</event>
<event>
 5      1 +2.3375200e-06 2.05235800e+02 7.95774700e-02 4.94520800e-01
       13 -1    0    0    0    0 +0.0000000000e+00 +0.0000000000e+00 +4.9999998884e+02 5.0000000000e+02 1.0566000000e-01 0.0000e+00 -1.0000e+00
      994 -1    0    0    0    0 -0.0000000000e+00 -0.0000000000e+00 +0.0000000000e+00 1.3100000000e+02 1.3100000000e+02 0.0000e+00 0.0000e+00
       13  1    1    2    0    0 +3.8452737563e+00 -3.8443681301e+01 +7.6868922955e+01 8.6032233742e+01 1.0566000000e-01 0.0000e+00 1.0000e+00
      994  1    1    2    0    0 -6.7982093750e+00 +4.5708429182e+01 +1.8929333671e+01 1.4019556278e+02 1.3100000000e+02 0.0000e+00 0.0000e+00
      997  1    1    2    0    0 +2.9529356188e+00 -7.2647478810e+00 +4.0420173221e+02 4.0477220348e+02 2.0000000000e+01 0.0000e+00 0.0000e+00
</event>
<event>
 5      1 +2.3375200e-06 2.09632800e+02 7.95774700e-02 4.87063600e-01
       13 -1    0    0    0    0 +0.0000000000e+00 +0.0000000000e+00 +4.9999998884e+02 5.0000000000e+02 1.0566000000e-01 0.0000e+00 -1.0000e+00
      994 -1    0    0    0    0 -0.0000000000e+00 -0.0000000000e+00 +0.0000000000e+00 1.3100000000e+02 1.3100000000e+02 0.0000e+00 0.0000e+00
       13  1    1    2    0    0 -7.4797386090e+00 -1.6913306765e+01 +4.8573495153e+01 5.1975013523e+01 1.0566000000e-01 0.0000e+00 1.0000e+00
      994  1    1    2    0    0 +1.6763962322e+00 +6.6276123957e+00 +4.2514378416e+00 1.3124713435e+02 1.3100000000e+02 0.0000e+00 0.0000e+00
      997  1    1    2    0    0 +5.8033423768e+00 +1.0285694369e+01 +4.4717505584e+02 4.4777785213e+02 2.0000000000e+01 0.0000e+00 0.0000e+00
</event>
<event>
 5      1 +2.3375200e-06 2.12104300e+02 7.95774700e-02 4.83043900e-01
       13 -1    0    0    0    0 +0.0000000000e+00 +0.0000000000e+00 +4.9999998884e+02 5.0000000000e+02 1.0566000000e-01 0.0000e+00 -1.0000e+00
      994 -1    0    0    0    0 -0.0000000000e+00 -0.0000000000e+00 +0.0000000000e+00 1.3100000000e+02 1.3100000000e+02 0.0000e+00 0.0000e+00
       13  1    1    2    0    0 -7.9357675001e+00 -1.0976555704e+01 +6.8417838582e+01 6.9745773931e+01 1.0566000000e-01 0.0000e+00 1.0000e+00
      994  1    1    2    0    0 -6.5320484057e+00 +3.6973461755e+00 +2.3343198946e+00 1.3123561664e+02 1.3100000000e+02 0.0000e+00 0.0000e+00
      997  1    1    2    0    0 +1.4467815906e+01 +7.2792095286e+00 +4.2924783036e+02 4.3001860943e+02 2.0000000000e+01 0.0000e+00 0.0000e+00
</event>
<event>
 5      1 +2.3375200e-06 2.08454800e+02 7.95774700e-02 4.89022300e-01
       13 -1    0    0    0    0 +0.0000000000e+00 +0.0000000000e+00 +4.9999998884e+02 5.0000000000e+02 1.0566000000e-01 0.0000e+00 1.0000e+00
      994 -1    0    0    0    0 -0.0000000000e+00 -0.0000000000e+00 +0.0000000000e+00 1.3100000000e+02 1.3100000000e+02 0.0000e+00 0.0000e+00
       13  1    1    2    0    0 -7.0077694029e-02 -2.0344302388e+01 +4.4199513807e+01 4.8657000887e+01 1.0566000000e-01 0.0000e+00 -1.0000e+00
      994  1    1    2    0    0 +4.2087896810e+00 +1.1012895311e+01 +5.6687478116e+00 1.3165155706e+02 1.3100000000e+02 0.0000e+00 0.0000e+00
      997  1    1    2    0    0 -4.1387119870e+00 +9.3314070769e+00 +4.5013172722e+02 4.5069144206e+02 2.0000000000e+01 0.0000e+00 0.0000e+00
</event>
<event>
 5      1 +2.3375200e-06 2.12391900e+02 7.95774700e-02 4.82583800e-01
       13 -1    0    0    0    0 +0.0000000000e+00 +0.0000000000e+00 +4.9999998884e+02 5.0000000000e+02 1.0566000000e-01 0.0000e+00 1.0000e+00
      994 -1    0    0    0    0 -0.0000000000e+00 -0.0000000000e+00 +0.0000000000e+00 1.3100000000e+02 1.3100000000e+02 0.0000e+00 0.0000e+00
       13  1    1    2    0    0 -1.0572101651e+01 +3.2850470760e+00 +4.4857054037e+01 4.6203109512e+01 1.0566000000e-01 0.0000e+00 -1.0000e+00
      994  1    1    2    0    0 +1.2677846829e+00 -1.1951904740e+01 +2.5408621919e+00 1.3157473650e+02 1.3100000000e+02 0.0000e+00 0.0000e+00
      997  1    1    2    0    0 +9.3043169679e+00 +8.6668576639e+00 +4.5260207261e+02 4.5322215399e+02 2.0000000000e+01 0.0000e+00 0.0000e+00
</event>
<event>
 5      1 +2.3375200e-06 2.07213600e+02 7.95774700e-02 4.91116600e-01
       13 -1    0    0    0    0 +0.0000000000e+00 +0.0000000000e+00 +4.9999998884e+02 5.0000000000e+02 1.0566000000e-01 0.0000e+00 -1.0000e+00
      994 -1    0    0    0    0 -0.0000000000e+00 -0.0000000000e+00 +0.0000000000e+00 1.3100000000e+02 1.3100000000e+02 0.0000e+00 0.0000e+00
       13  1    1    2    0    0 -4.7506439159e+01 -3.1673108177e+01 +1.0961306595e+02 1.2359240646e+02 1.0566000000e-01 0.0000e+00 1.0000e+00
      994  1    1    2    0    0 +7.3308231219e+01 +6.6101709738e+01 +6.1594577649e+01 1.7520965952e+02 1.3100000000e+02 0.0000e+00 0.0000e+00
      997  1    1    2    0    0 -2.5801792060e+01 -3.4428601561e+01 +3.2879234524e+02 3.3219793402e+02 2.0000000000e+01 0.0000e+00 0.0000e+00
</event>
<event>
 5      1 +2.3375200e-06 2.10690700e+02 7.95774700e-02 4.85328400e-01
       13 -1    0    0    0    0 +0.0000000000e+00 +0.0000000000e+00 +4.9999998884e+02 5.0000000000e+02 1.0566000000e-01 0.0000e+00 1.0000e+00
      994 -1    0    0    0    0 -0.0000000000e+00 -0.0000000000e+00 +0.0000000000e+00 1.3100000000e+02 1.3100000000e+02 0.0000e+00 0.0000e+00
       13  1    1    2    0    0 -1.0220141490e+01 -6.8299704019e+00 +3.1552068069e+01 3.3862131522e+01 1.0566000000e-01 0.0000e+00 -1.0000e+00
      994  1    1    2    0    0 -1.3359660193e+01 +4.7630682550e+00 +4.1747738009e+00 1.3183169602e+02 1.3100000000e+02 0.0000e+00 0.0000e+00
      997  1    1    2    0    0 +2.3579801683e+01 +2.0669021470e+00 +4.6427314697e+02 4.6530617246e+02 2.0000000000e+01 0.0000e+00 0.0000e+00
</event>
<event>
 5      1 +2.3375200e-06 2.06295400e+02 7.95774700e-02 4.92686600e-01
       13 -1    0    0    0    0 +0.0000000000e+00 +0.0000000000e+00 +4.9999998884e+02 5.0000000000e+02 1.0566000000e-01 0.0000e+00 -1.0000e+00
      994 -1    0    0    0    0 -0.0000000000e+00 -0.0000000000e+00 +0.0000000000e+00 1.3100000000e+02 1.3100000000e+02 0.0000e+00 0.0000e+00
       13  1    1    2    0    0 -2.6316337988e+01 -2.2655958753e+01 +9.1065448837e+01 9.7461629619e+01 1.0566000000e-01 0.0000e+00 1.0000e+00
      994  1    1    2    0    0 +1.8206749948e+01 +1.3073890552e+01 +9.3236280528e+00 1.3323041093e+02 1.3100000000e+02 0.0000e+00 0.0000e+00
      997  1    1    2    0    0 +8.1095880400e+00 +9.5820682009e+00 +3.9961091195e+02 4.0030795945e+02 2.0000000000e+01 0.0000e+00 0.0000e+00
</event>
<event>
 5      1 +2.3375200e-06 2.11575600e+02 7.95774700e-02 4.83893800e-01
       13 -1    0    0    0    0 +0.0000000000e+00 +0.0000000000e+00 +4.9999998884e+02 5.0000000000e+02 1.0566000000e-01 0.0000e+00 -1.0000e+00
      994 -1    0    0    0    0 -0.0000000000e+00 -0.0000000000e+00 +0.0000000000e+00 1.3100000000e+02 1.3100000000e+02 0.0000e+00 0.0000e+00
       13  1    1    2    0    0 +1.3948048299e+01 +4.3702831498e+00 +4.5214394603e+01 4.7518418213e+01 1.0566000000e-01 0.0000e+00 1.0000e+00
      994  1    1    2    0    0 -1.3881511630e+01 -1.4151827171e+01 +4.4190606832e+00 1.3256507336e+02 1.3100000000e+02 0.0000e+00 0.0000e+00
      997  1    1    2    0    0 -6.6536669551e-02 +9.7815440208e+00 +4.5036653355e+02 4.5091650843e+02 2.0000000000e+01 0.0000e+00 0.0000e+00
</event>
<event>
 5      1 +2.3375200e-06 2.04396900e+02 7.95774700e-02 4.95990300e-01
       13 -1    0    0    0    0 +0.0000000000e+00 +0.0000000000e+00 +4.9999998884e+02 5.0000000000e+02 1.0566000000e-01 0.0000e+00 -1.0000e+00
      994 -1    0    0    0    0 -0.0000000000e+00 -0.0000000000e+00 +0.0000000000e+00 1.3100000000e+02 1.3100000000e+02 0.0000e+00 0.0000e+00
       13  1    1    2    0    0 -2.8899574110e+01 -2.1977178941e+01 +7.6449025093e+01 8.4632419200e+01 1.0566000000e-01 0.0000e+00 1.0000e+00
      994  1    1    2    0    0 +1.1881129492e+01 +2.8314797590e+01 +1.3275875711e+01 1.3520406013e+02 1.3100000000e+02 0.0000e+00 0.0000e+00
      997  1    1    2    0    0 +1.7018444618e+01 -6.3376186495e+00 +4.1027508803e+02 4.1116352067e+02 2.0000000000e+01 0.0000e+00 0.0000e+00
</event>
<event>
 5      1 +2.3375200e-06 2.09834000e+02 7.95774700e-02 4.86731900e-01
       13 -1    0    0    0    0 +0.0000000000e+00 +0.0000000000e+00 +4.9999998884e+02 5.0000000000e+02 1.0566000000e-01 0.0000e+00 1.0000e+00
      994 -1    0    0    0    0 -0.0000000000e+00 -0.0000000000e+00 +0.0000000000e+00 1.3100000000e+02 1.3100000000e+02 0.0000e+00 0.0000e+00
       13  1    1    2    0    0 -2.4237722286e+00 +2.5876699390e+01 +9.0286016196e+01 9.3952403523e+01 1.0566000000e-01 0.0000e+00 -1.0000e+00
      994  1    1    2    0    0 -9.3146398384e+00 -2.1215488983e+01 +6.5543616023e+00 1.3319466635e+02 1.3100000000e+02 0.0000e+00 0.0000e+00
      997  1    1    2    0    0 +1.1738412067e+01 -4.6612104066e+00 +4.0315961104e+02 4.0385293013e+02 2.0000000000e+01 0.0000e+00 0.0000e+00
</event>
<event>
 5      1 +2.3375200e-06 2.09207900e+02 7.95774700e-02 4.87766800e-01
       13 -1    0    0    0    0 +0.0000000000e+00 +0.0000000000e+00 +4.9999998884e+02 5.0000000000e+02 1.0566000000e-01 0.0000e+00 -1.0000e+00
      994 -1    0    0    0    0 -0.0000000000e+00 -0.0000000000e+00 +0.0000000000e+00 1.3100000000e+02 1.3100000000e+02 0.0000e+00 0.0000e+00
       13  1    1    2    0    0 +1.7102561543e+01 +1.0136536220e+01 +6.5083793404e+01 6.8052614246e+01 1.0566000000e-01 0.0000e+00 1.0000e+00
      994  1    1    2    0    0 +1.3629626081e+01 -7.5491421071e+00 +5.5807734266e+00 1.3204128629e+02 1.3100000000e+02 0.0000e+00 0.0000e+00
      997  1    1    2    0    0 -3.0732187624e+01 -2.5873941129e+00 +4.2933542201e+02 4.3090609946e+02 2.0000000000e+01 0.0000e+00 0.0000e+00
</event>
<event>
 5      1 +2.3375200e-06 2.10003500e+02 7.95774700e-02 4.86453100e-01
       13 -1    0    0    0    0 +0.0000000000e+00 +0.0000000000e+00 +4.9999998884e+02 5.0000000000e+02 1.0566000000e-01 0.0000e+00 -1.0000e+00
      994 -1    0    0    0    0 -0.0000000000e+00 -0.0000000000e+00 +0.0000000000e+00 1.3100000000e+02 1.3100000000e+02 0.0000e+00 0.0000e+00
       13  1    1    2    0    0 +1.0830231303e+01 -1.7452058376e+01 +1.1856815415e+02 1.2033406249e+02 1.0566000000e-01 0.0000e+00 1.0000e+00
      994  1    1    2    0    0 +1.8860677317e+01 -3.5651250249e+00 +5.5671243882e+00 1.3251576563e+02 1.3100000000e+02 0.0000e+00 0.0000e+00
      997  1    1    2    0    0 -2.9690908620e+01 +2.1017183401e+01 +3.7586471030e+02 3.7815017189e+02 2.0000000000e+01 0.0000e+00 0.0000e+00
</event>
<event>
 5      1 +2.3375200e-06 2.08052100e+02 7.95774700e-02 4.89698300e-01
       13 -1    0    0    0    0 +0.0000000000e+00 +0.0000000000e+00 +4.9999998884e+02 5.0000000000e+02 1.0566000000e-01 0.0000e+00 1.0000e+00
      994 -1    0    0    0    0 -0.0000000000e+00 -0.0000000000e+00 +0.0000000000e+00 1.3100000000e+02 1.3100000000e+02 0.0000e+00 0.0000e+00
       13  1    1    2    0    0 -6.6236354036e+00 +1.4013235142e+01 +2.4845466152e+01 2.9283982950e+01 1.0566000000e-01 0.0000e+00 -1.0000e+00
      994  1    1    2    0    0 +3.7687929579e+00 +3.9521593700e+00 +5.4425920913e+00 1.3122669383e+02 1.3100000000e+02 0.0000e+00 0.0000e+00
      997  1    1    2    0    0 +2.8548424458e+00 -1.7965394512e+01 +4.6971193059e+02 4.7048932322e+02 2.0000000000e+01 0.0000e+00 0.0000e+00
</event>
<event>
 5      1 +2.3375200e-06 2.11463400e+02 7.95774700e-02 4.84075000e-01
       13 -1    0    0    0    0 +0.0000000000e+00 +0.0000000000e+00 +4.9999998884e+02 5.0000000000e+02 1.0566000000e-01 0.0000e+00 1.0000e+00
      994 -1    0    0    0    0 -0.0000000000e+00 -0.0000000000e+00 +0.0000000000e+00 1.3100000000e+02 1.3100000000e+02 0.0000e+00 0.0000e+00
       13  1    1    2    0    0 -4.4574430492e+00 -1.4918743690e+01 +6.3397041288e+01 6.5281189634e+01 1.0566000000e-01 0.0000e+00 -1.0000e+00
      994  1    1    2    0    0 -1.4821673828e+01 +8.0551229223e+00 +3.9707376538e+00 1.3214134015e+02 1.3100000000e+02 0.0000e+00 0.0000e+00
      997  1    1    2    0    0 +1.9279116877e+01 +6.8636207678e+00 +4.3263220989e+02 4.3357747021e+02 2.0000000000e+01 0.0000e+00 0.0000e+00
</event>
<event>
 5      1 +2.3375200e-06 2.11467200e+02 7.95774700e-02 4.84068800e-01
       13 -1    0    0    0    0 +0.0000000000e+00 +0.0000000000e+00 +4.9999998884e+02 5.0000000000e+02 1.0566000000e-01 0.0000e+00 -1.0000e+00
      994 -1    0    0    0    0 -0.0000000000e+00 -0.0000000000e+00 +0.0000000000e+00 1.3100000000e+02 1.3100000000e+02 0.0000e+00 0.0000e+00
       13  1    1    2    0    0 -1.4911384368e+00 -1.3946695012e+01 +5.8077738261e+01 5.9747540880e+01 1.0566000000e-01 0.0000e+00 1.0000e+00
      994  1    1    2    0    0 -9.4314982084e+00 -4.4367044700e+00 +3.0959191829e+00 1.3145045538e+02 1.3100000000e+02 0.0000e+00 0.0000e+00
      997  1    1    2    0    0 +1.0922636645e+01 +1.8383399482e+01 +4.3882633139e+02 4.3980200374e+02 2.0000000000e+01 0.0000e+00 0.0000e+00
</event>
<event>
 5      1 +2.3375200e-06 2.09377100e+02 7.95774700e-02 4.87486500e-01
       13 -1    0    0    0    0 +0.0000000000e+00 +0.0000000000e+00 +4.9999998884e+02 5.0000000000e+02 1.0566000000e-01 0.0000e+00 -1.0000e+00
      994 -1    0    0    0    0 -0.0000000000e+00 -0.0000000000e+00 +0.0000000000e+00 1.3100000000e+02 1.3100000000e+02 0.0000e+00 0.0000e+00
       13  1    1    2    0    0 +4.8124224577e+00 +2.2744324329e+01 +1.0844698660e+02 1.1091088209e+02 1.0566000000e-01 0.0000e+00 1.0000e+00
      994  1    1    2    0    0 -6.2266553121e-01 +8.0138058748e+00 +4.5467417252e+00 1.3132509911e+02 1.3100000000e+02 0.0000e+00 0.0000e+00
      997  1    1    2    0    0 -4.1897569265e+00 -3.0758130204e+01 +3.8700626051e+02 3.8876401879e+02 2.0000000000e+01 0.0000e+00 0.0000e+00
</event>
<event>
 5      1 +2.3375200e-06 2.00795100e+02 7.95774700e-02 5.02480000e-01
       13 -1    0    0    0    0 +0.0000000000e+00 +0.0000000000e+00 +4.9999998884e+02 5.0000000000e+02 1.0566000000e-01 0.0000e+00 1.0000e+00
      994 -1    0    0    0    0 -0.0000000000e+00 -0.0000000000e+00 +0.0000000000e+00 1.3100000000e+02 1.3100000000e+02 0.0000e+00 0.0000e+00
       13  1    1    2    0    0 -6.3471398656e+00 +2.1683696739e+01 +1.5820508262e+01 2.7582032819e+01 1.0566000000e-01 0.0000e+00 -1.0000e+00
      994  1    1    2    0    0 +1.5363227555e+01 -3.3778641439e+01 +1.8894629440e+01 1.3745920267e+02 1.3100000000e+02 0.0000e+00 0.0000e+00
      997  1    1    2    0    0 -9.0160876891e+00 +1.2094944700e+01 +4.6528485113e+02 4.6595876451e+02 2.0000000000e+01 0.0000e+00 0.0000e+00
</event>
<event>
 5      1 +2.3375200e-06 2.12030300e+02 7.95774700e-02 4.83162500e-01
       13 -1    0    0    0    0 +0.0000000000e+00 +0.0000000000e+00 +4.9999998884e+02 5.0000000000e+02 1.0566000000e-01 0.0000e+00 -1.0000e+00
      994 -1    0    0    0    0 -0.0000000000e+00 -0.0000000000e+00 +0.0000000000e+00 1.3100000000e+02 1.3100000000e+02 0.0000e+00 0.0000e+00
       13  1    1    2    0    0 -7.7891177653e+00 -1.9968771476e+01 +1.2908322222e+02 1.3085072263e+02 1.0566000000e-01 0.0000e+00 1.0000e+00
      994  1    1    2    0    0 -1.3746328705e+00 +1.7980705665e+01 +3.7189450739e+00 1.3228766361e+02 1.3100000000e+02 0.0000e+00 0.0000e+00
      997  1    1    2    0    0 +9.1637506358e+00 +1.9880658111e+00 +3.6719782154e+02 3.6786161376e+02 2.0000000000e+01 0.0000e+00 0.0000e+00
</event>
<event>
 5      1 +2.3375200e-06 2.05114500e+02 7.95774700e-02 4.94732400e-01
       13 -1    0    0    0    0 +0.0000000000e+00 +0.0000000000e+00 +4.9999998884e+02 5.0000000000e+02 1.0566000000e-01 0.0000e+00 -1.0000e+00
      994 -1    0    0    0    0 -0.0000000000e+00 -0.0000000000e+00 +0.0000000000e+00 1.3100000000e+02 1.3100000000e+02 0.0000e+00 0.0000e+00
       13  1    1    2    0    0 -1.0374214341e+01 -2.5687939245e+01 +5.1714420280e+01 5.8667597316e+01 1.0566000000e-01 0.0000e+00 1.0000e+00
      994  1    1    2    0    0 -1.4410990105e+01 +2.0205192316e+01 +1.0922236395e+01 1.3377676061e+02 1.3100000000e+02 0.0000e+00 0.0000e+00
      997  1    1    2    0    0 +2.4785204446e+01 +5.4827469294e+00 +4.3736333216e+02 4.3855564207e+02 2.0000000000e+01 0.0000e+00 0.0000e+00
</event>
<event>
 5      1 +2.3375200e-06 2.11385400e+02 7.95774700e-02 4.84200900e-01
       13 -1    0    0    0    0 +0.0000000000e+00 +0.0000000000e+00 +4.9999998884e+02 5.0000000000e+02 1.0566000000e-01 0.0000e+00 1.0000e+00
      994 -1    0    0    0    0 -0.0000000000e+00 -0.0000000000e+00 +0.0000000000e+00 1.3100000000e+02 1.3100000000e+02 0.0000e+00 0.0000e+00
       13  1    1    2    0    0 +7.5768770695e+00 -1.5242159033e+01 +7.3782453803e+01 7.5720500073e+01 1.0566000000e-01 0.0000e+00 -1.0000e+00
      994  1    1    2    0    0 +3.7008223086e+00 +6.3741642764e+00 +2.8920459407e+00 1.3123905663e+02 1.3100000000e+02 0.0000e+00 0.0000e+00
      997  1    1    2    0    0 -1.1277699378e+01 +8.8679947565e+00 +4.2332548909e+02 4.2404044329e+02 2.0000000000e+01 0.0000e+00 0.0000e+00
</event>
<event>
 5      1 +2.3375200e-06 2.11979100e+02 7.95774700e-02 4.83244600e-01
       13 -1    0    0    0    0 +0.0000000000e+00 +0.0000000000e+00 +4.9999998884e+02 5.0000000000e+02 1.0566000000e-01 0.0000e+00 -1.0000e+00
      994 -1    0    0    0    0 -0.0000000000e+00 -0.0000000000e+00 +0.0000000000e+00 1.3100000000e+02 1.3100000000e+02 0.0000e+00 0.0000e+00
       13  1    1    2    0    0 -1.4106226947e+00 +1.6476824928e+01 +6.6381907908e+01 6.8410850584e+01 1.0566000000e-01 0.0000e+00 1.0000e+00
      994  1    1    2    0    0 -6.8849067946e+00 -1.9770427154e+01 +4.3197878490e+00 1.3273255930e+02 1.3100000000e+02 0.0000e+00 0.0000e+00
      997  1    1    2    0    0 +8.2955294893e+00 +3.2936022254e+00 +4.2929829308e+02 4.2985659012e+02 2.0000000000e+01 0.0000e+00 0.0000e+00
</event>
<event>
 5      1 +2.3375200e-06 2.08866600e+02 7.95774700e-02 4.88334300e-01
       13 -1    0    0    0    0 +0.0000000000e+00 +0.0000000000e+00 +4.9999998884e+02 5.0000000000e+02 1.0566000000e-01 0.0000e+00 1.0000e+00
      994 -1    0    0    0    0 -0.0000000000e+00 -0.0000000000e+00 +0.0000000000e+00 1.3100000000e+02 1.3100000000e+02 0.0000e+00 0.0000e+00
       13  1    1    2    0    0 -6.3115920535e+00 +1.2575463584e+01 +2.0780562853e+01 2.5096243447e+01 1.0566000000e-01 0.0000e+00 -1.0000e+00
      994  1    1    2    0    0 -1.0732270827e+01 -2.0475710544e+01 +7.3392736459e+00 1.3322650373e+02 1.3100000000e+02 0.0000e+00 0.0000e+00
      997  1    1    2    0    0 +1.7043862880e+01 +7.9002469596e+00 +4.7188015234e+02 4.7267725282e+02 2.0000000000e+01 0.0000e+00 0.0000e+00
</event>
<event>
 5      1 +2.3375200e-06 2.11010100e+02 7.95774700e-02 4.84808900e-01
       13 -1    0    0    0    0 +0.0000000000e+00 +0.0000000000e+00 +4.9999998884e+02 5.0000000000e+02 1.0566000000e-01 0.0000e+00 -1.0000e+00
      994 -1    0    0    0    0 -0.0000000000e+00 -0.0000000000e+00 +0.0000000000e+00 1.3100000000e+02 1.3100000000e+02 0.0000e+00 0.0000e+00
       13  1    1    2    0    0 -2.4153296006e+01 +1.1133792613e-01 +1.1616879307e+02 1.1865325007e+02 1.0566000000e-01 0.0000e+00 1.0000e+00
      994  1    1    2    0    0 +1.5132784943e+01 -5.1558315161e+00 +4.1897488196e+00 1.3203839507e+02 1.3100000000e+02 0.0000e+00 0.0000e+00
      997  1    1    2    0    0 +9.0205110632e+00 +5.0444935900e+00 +3.7964144695e+02 3.8030835486e+02 2.0000000000e+01 0.0000e+00 0.0000e+00
</event>
<event>
 5      1 +2.3375200e-06 2.03007000e+02 7.95774700e-02 4.98459400e-01
       13 -1    0    0    0    0 +0.0000000000e+00 +0.0000000000e+00 +4.9999998884e+02 5.0000000000e+02 1.0566000000e-01 0.0000e+00 1.0000e+00
      994 -1    0    0    0    0 -0.0000000000e+00 -0.0000000000e+00 +0.0000000000e+00 1.3100000000e+02 1.3100000000e+02 0.0000e+00 0.0000e+00
       13  1    1    2    0    0 +6.9456070965e+00 -2.9398097405e+01 +6.3223577738e+01 7.0069405128e+01 1.0566000000e-01 0.0000e+00 -1.0000e+00
      994  1    1    2    0    0 +8.4600081993e+00 -8.7615981114e+00 +1.0257144596e+01 1.3196418588e+02 1.3100000000e+02 0.0000e+00 0.0000e+00
      997  1    1    2    0    0 -1.5405615296e+01 +3.8159695516e+01 +4.2651926650e+02 4.2896640899e+02 2.0000000000e+01 0.0000e+00 0.0000e+00
</event>
<event>
 5      1 +2.3375200e-06 2.06004700e+02 7.95774700e-02 4.93187500e-01
       13 -1    0    0    0    0 +0.0000000000e+00 +0.0000000000e+00 +4.9999998884e+02 5.0000000000e+02 1.0566000000e-01 0.0000e+00 1.0000e+00
      994 -1    0    0    0    0 -0.0000000000e+00 -0.0000000000e+00 +0.0000000000e+00 1.3100000000e+02 1.3100000000e+02 0.0000e+00 0.0000e+00
       13  1    1    2    0    0 -3.0463265919e+01 +8.9139276905e+00 +8.7018327810e+01 9.2626503854e+01 1.0566000000e-01 0.0000e+00 -1.0000e+00
      994  1    1    2    0    0 +2.0066511752e+01 +3.1822733549e+01 +1.4368180212e+01 1.3705034063e+02 1.3100000000e+02 0.0000e+00 0.0000e+00
      997  1    1    2    0    0 +1.0396754167e+01 -4.0736661239e+01 +3.9861348081e+02 4.0132315552e+02 2.0000000000e+01 0.0000e+00 0.0000e+00
</event>
<event>
 5      1 +2.3375200e-06 2.09436800e+02 7.95774700e-02 4.87387700e-01
       13 -1    0    0    0    0 +0.0000000000e+00 +0.0000000000e+00 +4.9999998884e+02 5.0000000000e+02 1.0566000000e-01 0.0000e+00 1.0000e+00
      994 -1    0    0    0    0 -0.0000000000e+00 -0.0000000000e+00 +0.0000000000e+00 1.3100000000e+02 1.3100000000e+02 0.0000e+00 0.0000e+00
       13  1    1    2    0    0 -4.6961386106e+00 -1.0011349181e+01 +1.4771547677e+01 1.8452387788e+01 1.0566000000e-01 0.0000e+00 -1.0000e+00
      994  1    1    2    0    0 +1.2667954615e-01 +5.4955181181e+00 +4.3260347211e+00 1.3118662791e+02 1.3100000000e+02 0.0000e+00 0.0000e+00
      997  1    1    2    0    0 +4.5694590644e+00 +4.5158310629e+00 +4.8090240644e+02 4.8136098430e+02 2.0000000000e+01 0.0000e+00 0.0000e+00
</event>
<event>
 5      1 +2.3375200e-06 2.11469900e+02 7.95774700e-02 4.84064500e-01
       13 -1    0    0    0    0 +0.0000000000e+00 +0.0000000000e+00 +4.9999998884e+02 5.0000000000e+02 1.0566000000e-01 0.0000e+00 -1.0000e+00
      994 -1    0    0    0    0 -0.0000000000e+00 -0.0000000000e+00 +0.0000000000e+00 1.3100000000e+02 1.3100000000e+02 0.0000e+00 0.0000e+00
       13  1    1    2    0    0 -1.1474676408e+01 +3.2541830262e+00 +3.1793871468e+01 3.3957610823e+01 1.0566000000e-01 0.0000e+00 1.0000e+00
      994  1    1    2    0    0 +1.0079158927e+01 +4.0509258389e+00 +3.1400924292e+00 1.3148710821e+02 1.3100000000e+02 0.0000e+00 0.0000e+00
      997  1    1    2    0    0 +1.3955174807e+00 -7.3051088652e+00 +4.6506602494e+02 4.6555528097e+02 2.0000000000e+01 0.0000e+00 0.0000e+00
</event>
<event>
 5      1 +2.3375200e-06 2.12237700e+02 7.95774700e-02 4.82830400e-01
       13 -1    0    0    0    0 +0.0000000000e+00 +0.0000000000e+00 +4.9999998884e+02 5.0000000000e+02 1.0566000000e-01 0.0000e+00 1.0000e+00
      994 -1    0    0    0    0 -0.0000000000e+00 -0.0000000000e+00 +0.0000000000e+00 1.3100000000e+02 1.3100000000e+02 0.0000e+00 0.0000e+00
       13  1    1    2    0    0 +8.0911148981e+00 -1.1736469124e+01 +5.5498199426e+01 5.7299844252e+01 1.0566000000e-01 0.0000e+00 -1.0000e+00
      994  1    1    2    0    0 -5.8652340686e+00 +1.8030903958e+01 +3.7230813598e+00 1.3241743013e+02 1.3100000000e+02 0.0000e+00 0.0000e+00
      997  1    1    2    0    0 -2.2258808295e+00 -6.2944348337e+00 +4.4077870805e+02 4.4128272561e+02 2.0000000000e+01 0.0000e+00 0.0000e+00
</event>
<event>
 5      1 +2.3375200e-06 2.08987200e+02 7.95774700e-02 4.88133500e-01
       13 -1    0    0    0    0 +0.0000000000e+00 +0.0000000000e+00 +4.9999998884e+02 5.0000000000e+02 1.0566000000e-01 0.0000e+00 1.0000e+00
      994 -1    0    0    0    0 -0.0000000000e+00 -0.0000000000e+00 +0.0000000000e+00 1.3100000000e+02 1.3100000000e+02 0.0000e+00 0.0000e+00
       13  1    1    2    0    0 -3.3128467533e+01 -5.6714973222e-01 +1.5001422323e+02 1.5362973461e+02 1.0566000000e-01 0.0000e+00 -1.0000e+00
      994  1    1    2    0    0 +1.5496359078e+01 -1.0377471627e+01 +6.2922950768e+00 1.3247045723e+02 1.3100000000e+02 0.0000e+00 0.0000e+00
      997  1    1    2    0    0 +1.7632108455e+01 +1.0944621359e+01 +3.4369347053e+02 3.4489980816e+02 2.0000000000e+01 0.0000e+00 0.0000e+00
</event>
<event>
 5      1 +2.3375200e-06 2.11536000e+02 7.95774700e-02 4.83957700e-01
       13 -1    0    0    0    0 +0.0000000000e+00 +0.0000000000e+00 +4.9999998884e+02 5.0000000000e+02 1.0566000000e-01 0.0000e+00 -1.0000e+00
      994 -1    0    0    0    0 -0.0000000000e+00 -0.0000000000e+00 +0.0000000000e+00 1.3100000000e+02 1.3100000000e+02 0.0000e+00 0.0000e+00
       13  1    1    2    0    0 -7.5609399356e+00 +3.2126170288e+01 +1.5819130999e+02 1.6159752582e+02 1.0566000000e-01 0.0000e+00 1.0000e+00
      994  1    1    2    0    0 +1.2439937219e+01 -3.7259129642e+01 +1.0228847166e+01 1.3714453724e+02 1.3100000000e+02 0.0000e+00 0.0000e+00
      997  1    1    2    0    0 -4.8789972835e+00 +5.1329593544e+00 +3.3157983168e+02 3.3225793694e+02 2.0000000000e+01 0.0000e+00 0.0000e+00
</event>
<event>
 5      1 +2.3375200e-06 2.11418900e+02 7.95774700e-02 4.84146700e-01
       13 -1    0    0    0    0 +0.0000000000e+00 +0.0000000000e+00 +4.9999998884e+02 5.0000000000e+02 1.0566000000e-01 0.0000e+00 -1.0000e+00
      994 -1    0    0    0    0 -0.0000000000e+00 -0.0000000000e+00 +0.0000000000e+00 1.3100000000e+02 1.3100000000e+02 0.0000e+00 0.0000e+00
       13  1    1    2    0    0 -2.0187228796e+01 +1.1075385946e+01 +1.0676702110e+02 1.0922177594e+02 1.0566000000e-01 0.0000e+00 1.0000e+00
      994  1    1    2    0    0 +1.6155022980e+01 -1.2129643392e+01 +4.6204095275e+00 1.3262903604e+02 1.3100000000e+02 0.0000e+00 0.0000e+00
      997  1    1    2    0    0 +4.0322058159e+00 +1.0542574459e+00 +3.8861255821e+02 3.8914918802e+02 2.0000000000e+01 0.0000e+00 0.0000e+00
</event>
<event>
 5      1 +2.3375200e-06 2.12584400e+02 7.95774700e-02 4.82276700e-01
       13 -1    0    0    0    0 +0.0000000000e+00 +0.0000000000e+00 +4.9999998884e+02 5.0000000000e+02 1.0566000000e-01 0.0000e+00 1.0000e+00
      994 -1    0    0    0    0 -0.0000000000e+00 -0.0000000000e+00 +0.0000000000e+00 1.3100000000e+02 1.3100000000e+02 0.0000e+00 0.0000e+00
       13  1    1    2    0    0 +4.0527312707e+00 -1.0271263855e+01 +5.7326355416e+01 5.8380182265e+01 1.0566000000e-01 0.0000e+00 -1.0000e+00
      994  1    1    2    0    0 +9.2956304812e+00 +3.0993903970e+00 +2.1514343729e+00 1.3138357446e+02 1.3100000000e+02 0.0000e+00 0.0000e+00
      997  1    1    2    0    0 -1.3348361752e+01 +7.1718734583e+00 +4.4052219905e+02 4.4123624328e+02 2.0000000000e+01 0.0000e+00 0.0000e+00
</event>
<event>
 5      1 +2.3375200e-06 2.12920700e+02 7.95774700e-02 4.81741900e-01
       13 -1    0    0    0    0 +0.0000000000e+00 +0.0000000000e+00 +4.9999998884e+02 5.0000000000e+02 1.0566000000e-01 0.0000e+00 -1.0000e+00
      994 -1    0    0    0    0 -0.0000000000e+00 -0.0000000000e+00 +0.0000000000e+00 1.3100000000e+02 1.3100000000e+02 0.0000e+00 0.0000e+00
       13  1    1    2    0    0 +3.0681063039e+00 +1.3581650626e+01 +8.1056728377e+01 8.2244020386e+01 1.0566000000e-01 0.0000e+00 1.0000e+00
      994  1    1    2    0    0 -1.0787372302e+01 -1.4421705855e+01 +3.0066041749e+00 1.3226637014e+02 1.3100000000e+02 0.0000e+00 0.0000e+00
      997  1    1    2    0    0 +7.7192659981e+00 +8.4005522842e-01 +4.1593665628e+02 4.1648960948e+02 2.0000000000e+01 0.0000e+00 0.0000e+00
</event>
<event>
 5      1 +2.3375200e-06 2.09615100e+02 7.95774700e-02 4.87092900e-01
       13 -1    0    0    0    0 +0.0000000000e+00 +0.0000000000e+00 +4.9999998884e+02 5.0000000000e+02 1.0566000000e-01 0.0000e+00 -1.0000e+00
      994 -1    0    0    0    0 -0.0000000000e+00 -0.0000000000e+00 +0.0000000000e+00 1.3100000000e+02 1.3100000000e+02 0.0000e+00 0.0000e+00
       13  1    1    2    0    0 +1.3366186153e+01 -4.4902483112e+00 +2.4457939882e+01 2.8231529351e+01 1.0566000000e-01 0.0000e+00 1.0000e+00
      994  1    1    2    0    0 -1.0634908029e+01 +1.5253679234e+01 +5.7691185390e+00 1.3243888677e+02 1.3100000000e+02 0.0000e+00 0.0000e+00
      997  1    1    2    0    0 -2.7312781249e+00 -1.0763430923e+01 +4.6977293041e+02 4.7032958388e+02 2.0000000000e+01 0.0000e+00 0.0000e+00
</event>
<event>
 5      1 +2.3375200e-06 2.12246800e+02 7.95774700e-02 4.82815700e-01
       13 -1    0    0    0    0 +0.0000000000e+00 +0.0000000000e+00 +4.9999998884e+02 5.0000000000e+02 1.0566000000e-01 0.0000e+00 -1.0000e+00
      994 -1    0    0    0    0 -0.0000000000e+00 -0.0000000000e+00 +0.0000000000e+00 1.3100000000e+02 1.3100000000e+02 0.0000e+00 0.0000e+00
       13  1    1    2    0    0 -5.0333465115e+00 +1.4516373698e+01 +7.4657450180e+01 7.6222081537e+01 1.0566000000e-01 0.0000e+00 1.0000e+00
      994  1    1    2    0    0 -1.0657488369e+01 -1.6833703109e+01 +3.9007803546e+00 1.3256384012e+02 1.3100000000e+02 0.0000e+00 0.0000e+00
      997  1    1    2    0    0 +1.5690834881e+01 +2.3173294111e+00 +4.2144175830e+02 4.2221407835e+02 2.0000000000e+01 0.0000e+00 0.0000e+00
</event>
<event>
 5      1 +2.3375200e-06 2.12230400e+02 7.95774700e-02 4.82841900e-01
       13 -1    0    0    0    0 +0.0000000000e+00 +0.0000000000e+00 +4.9999998884e+02 5.0000000000e+02 1.0566000000e-01 0.0000e+00 1.0000e+00
      994 -1    0    0    0    0 -0.0000000000e+00 -0.0000000000e+00 +0.0000000000e+00 1.3100000000e+02 1.3100000000e+02 0.0000e+00 0.0000e+00
       13  1    1    2    0    0 +1.1100771819e+01 +6.1220881298e+00 +5.5553408553e+01 5.6981571266e+01 1.0566000000e-01 0.0000e+00 -1.0000e+00
      994  1    1    2    0    0 -6.4896414713e+00 +2.8383249708e+00 +2.2047231292e+00 1.3120987897e+02 1.3100000000e+02 0.0000e+00 0.0000e+00
      997  1    1    2    0    0 -4.6111303474e+00 -8.9604131006e+00 +4.4224185715e+02 4.4280854976e+02 2.0000000000e+01 0.0000e+00 0.0000e+00
</event>
<event>
 5      1 +2.3375200e-06 2.04666300e+02 7.95774700e-02 4.95516700e-01
       13 -1    0    0    0    0 +0.0000000000e+00 +0.0000000000e+00 +4.9999998884e+02 5.0000000000e+02 1.0566000000e-01 0.0000e+00 1.0000e+00
      994 -1    0    0    0    0 -0.0000000000e+00 -0.0000000000e+00 +0.0000000000e+00 1.3100000000e+02 1.3100000000e+02 0.0000e+00 0.0000e+00
       13  1    1    2    0    0 -3.0507613044e+01 -1.3210612108e+01 +8.3822001856e+01 9.0174130909e+01 1.0566000000e-01 0.0000e+00 -1.0000e+00
      994  1    1    2    0    0 +6.4373788424e+00 -3.3193552018e+00 +8.3504973675e+00 1.3146554215e+02 1.3100000000e+02 0.0000e+00 0.0000e+00
      997  1    1    2    0    0 +2.4070234202e+01 +1.6529967310e+01 +4.0782748961e+02 4.0936032695e+02 2.0000000000e+01 0.0000e+00 0.0000e+00
</event>
<event>
 5      1 +2.3375200e-06 2.04576400e+02 7.95774700e-02 4.95674700e-01
       13 -1    0    0    0    0 +0.0000000000e+00 +0.0000000000e+00 +4.9999998884e+02 5.0000000000e+02 1.0566000000e-01 0.0000e+00 -1.0000e+00
      994 -1    0    0    0    0 -0.0000000000e+00 -0.0000000000e+00 +0.0000000000e+00 1.3100000000e+02 1.3100000000e+02 0.0000e+00 0.0000e+00
       13  1    1    2    0    0 +1.1406215560e+01 -1.2655666098e+01 +1.4049414737e+01 2.2083135110e+01 1.0566000000e-01 0.0000e+00 1.0000e+00
      994  1    1    2    0    0 -1.8461619655e+01 +1.4926239175e+01 +1.1109043377e+01 1.3359653761e+02 1.3100000000e+02 0.0000e+00 0.0000e+00
      997  1    1    2    0    0 +7.0554040947e+00 -2.2705730772e+00 +4.7484153072e+02 4.7532032728e+02 2.0000000000e+01 0.0000e+00 0.0000e+00
</event>
<event>
 5      1 +2.3375200e-06 2.10987300e+02 7.95774700e-02 4.84846000e-01
       13 -1    0    0    0    0 +0.0000000000e+00 +0.0000000000e+00 +4.9999998884e+02 5.0000000000e+02 1.0566000000e-01 0.0000e+00 -1.0000e+00
      994 -1    0    0    0    0 -0.0000000000e+00 -0.0000000000e+00 +0.0000000000e+00 1.3100000000e+02 1.3100000000e+02 0.0000e+00 0.0000e+00
       13  1    1    2    0    0 -3.7449790529e+01 +3.9517973235e+00 +9.9714761489e+01 1.0658868765e+02 1.0566000000e-01 0.0000e+00 1.0000e+00
      994  1    1    2    0    0 +7.8022036528e+01 -2.2225414392e+01 +3.7795495270e+01 1.5865341689e+02 1.3100000000e+02 0.0000e+00 0.0000e+00
      997  1    1    2    0    0 -4.0572246000e+01 +1.8273617068e+01 +3.6248973208e+02 3.6575789545e+02 2.0000000000e+01 0.0000e+00 0.0000e+00
</event>
<event>
 5      1 +2.3375200e-06 1.65948700e+02 7.95774700e-02 5.85831400e-01
       13 -1    0    0    0    0 +0.0000000000e+00 +0.0000000000e+00 +4.9999998884e+02 5.0000000000e+02 1.0566000000e-01 0.0000e+00 -1.0000e+00
      994 -1    0    0    0    0 -0.0000000000e+00 -0.0000000000e+00 +0.0000000000e+00 1.3100000000e+02 1.3100000000e+02 0.0000e+00 0.0000e+00
       13  1    1    2    0    0 +5.9333877224e+01 +2.6967912311e+01 +2.1962780144e+02 2.2909421557e+02 1.0566000000e-01 0.0000e+00 1.0000e+00
      994  1    1    2    0    0 -7.8178164397e+00 -9.5342545214e+00 +1.7517839550e+01 1.3273995241e+02 1.3100000000e+02 0.0000e+00 0.0000e+00
      997  1    1    2    0    0 -5.1516060785e+01 -1.7433657790e+01 +2.6285434785e+02 2.6916583202e+02 2.0000000000e+01 0.0000e+00 0.0000e+00
</event>
<event>
 5      1 +2.3375200e-06 2.12502500e+02 7.95774700e-02 4.82407200e-01
       13 -1    0    0    0    0 +0.0000000000e+00 +0.0000000000e+00 +4.9999998884e+02 5.0000000000e+02 1.0566000000e-01 0.0000e+00 -1.0000e+00
      994 -1    0    0    0    0 -0.0000000000e+00 -0.0000000000e+00 +0.0000000000e+00 1.3100000000e+02 1.3100000000e+02 0.0000e+00 0.0000e+00
       13  1    1    2    0    0 -9.7528670834e-01 -1.3913249696e+01 +5.6181502086e+01 5.7886976445e+01 1.0566000000e-01 0.0000e+00 1.0000e+00
      994  1    1    2    0    0 -8.0725971511e+00 +2.3255191019e+01 +4.7297632402e+00 1.3337668985e+02 1.3100000000e+02 0.0000e+00 0.0000e+00
      997  1    1    2    0    0 +9.0478838595e+00 -9.3419413238e+00 +4.3908872351e+02 4.3973633371e+02 2.0000000000e+01 0.0000e+00 0.0000e+00
</event>
<event>
 5      1 +2.3375200e-06 2.01637300e+02 7.95774700e-02 5.00935800e-01
       13 -1    0    0    0    0 +0.0000000000e+00 +0.0000000000e+00 +4.9999998884e+02 5.0000000000e+02 1.0566000000e-01 0.0000e+00 -1.0000e+00
      994 -1    0    0    0    0 -0.0000000000e+00 -0.0000000000e+00 +0.0000000000e+00 1.3100000000e+02 1.3100000000e+02 0.0000e+00 0.0000e+00
       13  1    1    2    0    0 -3.8430449880e+01 +4.0170225359e+01 +2.2136373999e+02 2.2823773358e+02 1.0566000000e-01 0.0000e+00 1.0000e+00
      994  1    1    2    0    0 +7.7119022240e+00 -1.5272150859e+01 +1.2209262946e+01 1.3267546167e+02 1.3100000000e+02 0.0000e+00 0.0000e+00
      997  1    1    2    0    0 +3.0718547656e+01 -2.4898074500e+01 +2.6642698590e+02 2.7008680475e+02 2.0000000000e+01 0.0000e+00 0.0000e+00
</event>
<event>
 5      1 +2.3375200e-06 1.92697500e+02 7.95774700e-02 5.18238100e-01
       13 -1    0    0    0    0 +0.0000000000e+00 +0.0000000000e+00 +4.9999998884e+02 5.0000000000e+02 1.0566000000e-01 0.0000e+00 1.0000e+00
      994 -1    0    0    0    0 -0.0000000000e+00 -0.0000000000e+00 +0.0000000000e+00 1.3100000000e+02 1.3100000000e+02 0.0000e+00 0.0000e+00
       13  1    1    2    0    0 +4.9307042572e-01 -1.7643922260e+01 +1.2286515394e+00 1.7693836774e+01 1.0566000000e-01 0.0000e+00 -1.0000e+00
      994  1    1    2    0    0 +1.3852713224e+01 -3.6726253557e+00 +1.9836968508e+01 1.3326624164e+02 1.3100000000e+02 0.0000e+00 0.0000e+00
      997  1    1    2    0    0 -1.4345783650e+01 +2.1316547616e+01 +4.7893436879e+02 4.8003992159e+02 2.0000000000e+01 0.0000e+00 0.0000e+00
</event>
<event>
 5      1 +2.3375200e-06 1.98888900e+02 7.95774700e-02 5.06038600e-01
       13 -1    0    0    0    0 +0.0000000000e+00 +0.0000000000e+00 +4.9999998884e+02 5.0000000000e+02 1.0566000000e-01 0.0000e+00 1.0000e+00
      994 -1    0    0    0    0 -0.0000000000e+00 -0.0000000000e+00 +0.0000000000e+00 1.3100000000e+02 1.3100000000e+02 0.0000e+00 0.0000e+00
       13  1    1    2    0    0 -2.5808779449e+01 -5.0317278890e+01 +1.0670156932e+02 1.2076074574e+02 1.0566000000e-01 0.0000e+00 -1.0000e+00
      994  1    1    2    0    0 +2.6338699319e+01 +3.7483265505e+01 +2.4803482965e+01 1.4097849142e+02 1.3100000000e+02 0.0000e+00 0.0000e+00
      997  1    1    2    0    0 -5.2991987027e-01 +1.2834013385e+01 +3.6849493655e+02 3.6926076285e+02 2.0000000000e+01 0.0000e+00 0.0000e+00
</event>
<event>
 5      1 +2.3375200e-06 2.05669400e+02 7.95774700e-02 4.93767300e-01
       13 -1    0    0    0    0 +0.0000000000e+00 +0.0000000000e+00 +4.9999998884e+02 5.0000000000e+02 1.0566000000e-01 0.0000e+00 1.0000e+00
      994 -1    0    0    0    0 -0.0000000000e+00 -0.0000000000e+00 +0.0000000000e+00 1.3100000000e+02 1.3100000000e+02 0.0000e+00 0.0000e+00
       13  1    1    2    0    0 +1.9938617789e+01 -2.5155952387e-01 +2.6987483358e+01 3.3555136470e+01 1.0566000000e-01 0.0000e+00 -1.0000e+00
      994  1    1    2    0    0 -8.7767549544e+00 +1.0251437066e+01 +8.1865029663e+00 1.3194749797e+02 1.3100000000e+02 0.0000e+00 0.0000e+00
      997  1    1    2    0    0 -1.1161862834e+01 -9.9998775419e+00 +4.6482600251e+02 4.6549736556e+02 2.0000000000e+01 0.0000e+00 0.0000e+00
</event>
<event>
 5      1 +2.3375200e-06 2.08121500e+02 7.95774700e-02 4.89581500e-01
       13 -1    0    0    0    0 +0.0000000000e+00 +0.0000000000e+00 +4.9999998884e+02 5.0000000000e+02 1.0566000000e-01 0.0000e+00 1.0000e+00
      994 -1    0    0    0    0 -0.0000000000e+00 -0.0000000000e+00 +0.0000000000e+00 1.3100000000e+02 1.3100000000e+02 0.0000e+00 0.0000e+00
       13  1    1    2    0    0 +7.0929676029e+00 -1.0087878948e+01 +1.4225442913e+01 1.8826839384e+01 1.0566000000e-01 0.0000e+00 -1.0000e+00
      994  1    1    2    0    0 +3.1729778934e+00 +4.3694267974e+00 +5.3828121386e+00 1.3122169922e+02 1.3100000000e+02 0.0000e+00 0.0000e+00
      997  1    1    2    0    0 -1.0265945496e+01 +5.7184521510e+00 +4.8039173378e+02 4.8095146140e+02 2.0000000000e+01 0.0000e+00 0.0000e+00
</event>
<event>
 5      1 +2.3375200e-06 2.09447800e+02 7.95774700e-02 4.87369300e-01
       13 -1    0    0    0    0 +0.0000000000e+00 +0.0000000000e+00 +4.9999998884e+02 5.0000000000e+02 1.0566000000e-01 0.0000e+00 1.0000e+00
      994 -1    0    0    0    0 -0.0000000000e+00 -0.0000000000e+00 +0.0000000000e+00 1.3100000000e+02 1.3100000000e+02 0.0000e+00 0.0000e+00
       13  1    1    2    0    0 +3.7948150013e+00 +1.0834843689e+01 +1.6132150826e+01 1.9800300830e+01 1.0566000000e-01 0.0000e+00 -1.0000e+00
      994  1    1    2    0    0 +1.0778497342e+01 -9.2582757929e+00 +5.1800560293e+00 1.3187010524e+02 1.3100000000e+02 0.0000e+00 0.0000e+00
      997  1    1    2    0    0 -1.4573312343e+01 -1.5765678961e+00 +4.7868778198e+02 4.7932959393e+02 2.0000000000e+01 0.0000e+00 0.0000e+00
</event>
<event>
 5      1 +2.3375200e-06 2.05976000e+02 7.95774700e-02 4.93236900e-01
       13 -1    0    0    0    0 +0.0000000000e+00 +0.0000000000e+00 +4.9999998884e+02 5.0000000000e+02 1.0566000000e-01 0.0000e+00 1.0000e+00
      994 -1    0    0    0    0 -0.0000000000e+00 -0.0000000000e+00 +0.0000000000e+00 1.3100000000e+02 1.3100000000e+02 0.0000e+00 0.0000e+00
       13  1    1    2    0    0 +4.2794846935e+01 -1.2978809744e+01 +2.4815579099e+02 2.5215304122e+02 1.0566000000e-01 0.0000e+00 -1.0000e+00
      994  1    1    2    0    0 -1.4856429412e+01 -5.0393518927e+00 +8.2620657117e+00 1.3219444123e+02 1.3100000000e+02 0.0000e+00 0.0000e+00
      997  1    1    2    0    0 -2.7938417523e+01 +1.8018161636e+01 +2.4358213213e+02 2.4665251755e+02 2.0000000000e+01 0.0000e+00 0.0000e+00
</event>
<event>
 5      1 +2.3375200e-06 2.08245200e+02 7.95774700e-02 4.89373600e-01
       13 -1    0    0    0    0 +0.0000000000e+00 +0.0000000000e+00 +4.9999998884e+02 5.0000000000e+02 1.0566000000e-01 0.0000e+00 1.0000e+00
      994 -1    0    0    0    0 -0.0000000000e+00 -0.0000000000e+00 +0.0000000000e+00 1.3100000000e+02 1.3100000000e+02 0.0000e+00 0.0000e+00
       13  1    1    2    0    0 +5.3085615074e+00 -8.9485192935e+00 +8.6298986951e+00 1.3518252045e+01 1.0566000000e-01 0.0000e+00 -1.0000e+00
      994  1    1    2    0    0 -9.4100673765e+00 +1.4538804577e+01 +6.6577414738e+00 1.3230741373e+02 1.3100000000e+02 0.0000e+00 0.0000e+00
      997  1    1    2    0    0 +4.1015058692e+00 -5.5902852836e+00 +4.8471234867e+02 4.8517433422e+02 2.0000000000e+01 0.0000e+00 0.0000e+00
</event>
<event>
 5      1 +2.3375200e-06 2.12166700e+02 7.95774700e-02 4.82944000e-01
       13 -1    0    0    0    0 +0.0000000000e+00 +0.0000000000e+00 +4.9999998884e+02 5.0000000000e+02 1.0566000000e-01 0.0000e+00 1.0000e+00
      994 -1    0    0    0    0 -0.0000000000e+00 -0.0000000000e+00 +0.0000000000e+00 1.3100000000e+02 1.3100000000e+02 0.0000e+00 0.0000e+00
       13  1    1    2    0    0 +4.8284850593e+00 +9.0327344840e+00 +2.7832867259e+01 2.9657785220e+01 1.0566000000e-01 0.0000e+00 -1.0000e+00
      994  1    1    2    0    0 -9.7635148866e+00 -1.4717619399e+01 +3.5446494584e+00 1.3223274588e+02 1.3100000000e+02 0.0000e+00 0.0000e+00
      997  1    1    2    0    0 +4.9350298273e+00 +5.6848849146e+00 +4.6862247212e+02 4.6910946890e+02 2.0000000000e+01 0.0000e+00 0.0000e+00
</event>
<event>
 5      1 +2.3375200e-06 1.94206900e+02 7.95774700e-02 5.15169200e-01
       13 -1    0    0    0    0 +0.0000000000e+00 +0.0000000000e+00 +4.9999998884e+02 5.0000000000e+02 1.0566000000e-01 0.0000e+00 -1.0000e+00
      994 -1    0    0    0    0 -0.0000000000e+00 -0.0000000000e+00 +0.0000000000e+00 1.3100000000e+02 1.3100000000e+02 0.0000e+00 0.0000e+00
       13  1    1    2    0    0 +4.6764111619e+00 -3.3670846373e+01 +2.4825512327e+01 4.2094084419e+01 1.0566000000e-01 0.0000e+00 1.0000e+00
      994  1    1    2    0    0 -1.7788858215e+01 +3.4164582323e+01 +2.5881542150e+01 1.3897667569e+02 1.3100000000e+02 0.0000e+00 0.0000e+00
      997  1    1    2    0    0 +1.3112447053e+01 -4.9373595043e-01 +4.4929293436e+02 4.4992923989e+02 2.0000000000e+01 0.0000e+00 0.0000e+00
</event>
<event>
 5      1 +2.3375200e-06 2.12845700e+02 7.95774700e-02 4.81860900e-01
       13 -1    0    0    0    0 +0.0000000000e+00 +0.0000000000e+00 +4.9999998884e+02 5.0000000000e+02 1.0566000000e-01 0.0000e+00 1.0000e+00
      994 -1    0    0    0    0 -0.0000000000e+00 -0.0000000000e+00 +0.0000000000e+00 1.3100000000e+02 1.3100000000e+02 0.0000e+00 0.0000e+00
       13  1    1    2    0    0 -1.1778233338e+01 +4.9072576467e-01 +5.7994179622e+01 5.9180263825e+01 1.0566000000e-01 0.0000e+00 -1.0000e+00
      994  1    1    2    0    0 +1.3911503403e+01 -1.7580234703e+01 +3.9433931231e+00 1.3296294570e+02 1.3100000000e+02 0.0000e+00 0.0000e+00
      997  1    1    2    0    0 -2.1332700648e+00 +1.7089508939e+01 +4.3806241609e+02 4.3885679048e+02 2.0000000000e+01 0.0000e+00 0.0000e+00
</event>
<event>
 5      1 +2.3375200e-06 2.01111500e+02 7.95774700e-02 5.01897900e-01
       13 -1    0    0    0    0 +0.0000000000e+00 +0.0000000000e+00 +4.9999998884e+02 5.0000000000e+02 1.0566000000e-01 0.0000e+00 1.0000e+00
      994 -1    0    0    0    0 -0.0000000000e+00 -0.0000000000e+00 +0.0000000000e+00 1.3100000000e+02 1.3100000000e+02 0.0000e+00 0.0000e+00
       13  1    1    2    0    0 -2.5411560959e+01 +4.2098003891e+01 +1.6047824875e+02 1.6784298868e+02 1.0566000000e-01 0.0000e+00 -1.0000e+00
      994  1    1    2    0    0 -1.6686833609e+01 -2.0464733060e+01 +1.4864813653e+01 1.3445898408e+02 1.3100000000e+02 0.0000e+00 0.0000e+00
      997  1    1    2    0    0 +4.2098394568e+01 -2.1633270831e+01 +3.2465692643e+02 3.2869802724e+02 2.0000000000e+01 0.0000e+00 0.0000e+00
</event>
<event>
 5      1 +2.3375200e-06 2.08847100e+02 7.95774700e-02 4.88366900e-01
       13 -1    0    0    0    0 +0.0000000000e+00 +0.0000000000e+00 +4.9999998884e+02 5.0000000000e+02 1.0566000000e-01 0.0000e+00 1.0000e+00
      994 -1    0    0    0    0 -0.0000000000e+00 -0.0000000000e+00 +0.0000000000e+00 1.3100000000e+02 1.3100000000e+02 0.0000e+00 0.0000e+00
       13  1    1    2    0    0 +1.5374912328e+01 -1.3983715721e+00 +2.5704260433e+01 2.9984388281e+01 1.0566000000e-01 0.0000e+00 -1.0000e+00
      994  1    1    2    0    0 -1.2994998004e+01 -8.9458255650e+00 +5.9057332749e+00 1.3207867146e+02 1.3100000000e+02 0.0000e+00 0.0000e+00
      997  1    1    2    0    0 -2.3799143241e+00 +1.0344197137e+01 +4.6838999513e+02 4.6893694026e+02 2.0000000000e+01 0.0000e+00 0.0000e+00
</event>
<event>
 5      1 +2.3375200e-06 1.97485100e+02 7.95774700e-02 5.08716400e-01
       13 -1    0    0    0    0 +0.0000000000e+00 +0.0000000000e+00 +4.9999998884e+02 5.0000000000e+02 1.0566000000e-01 0.0000e+00 -1.0000e+00
      994 -1    0    0    0    0 -0.0000000000e+00 -0.0000000000e+00 +0.0000000000e+00 1.3100000000e+02 1.3100000000e+02 0.0000e+00 0.0000e+00
       13  1    1    2    0    0 -2.7519282110e+01 -2.0742139342e+01 +3.3999597349e+01 4.8410030121e+01 1.0566000000e-01 0.0000e+00 1.0000e+00
      994  1    1    2    0    0 +4.0078819799e+01 +3.1065668062e+00 +2.3404133193e+01 1.3901336628e+02 1.3100000000e+02 0.0000e+00 0.0000e+00
      997  1    1    2    0    0 -1.2559537688e+01 +1.7635572536e+01 +4.4259625829e+02 4.4357660360e+02 2.0000000000e+01 0.0000e+00 0.0000e+00
</event>
<event>
 5      1 +2.3375200e-06 2.07008300e+02 7.95774700e-02 4.91466100e-01
       13 -1    0    0    0    0 +0.0000000000e+00 +0.0000000000e+00 +4.9999998884e+02 5.0000000000e+02 1.0566000000e-01 0.0000e+00 -1.0000e+00
      994 -1    0    0    0    0 -0.0000000000e+00 -0.0000000000e+00 +0.0000000000e+00 1.3100000000e+02 1.3100000000e+02 0.0000e+00 0.0000e+00
       13  1    1    2    0    0 -2.1843686736e+01 +8.2592364125e+00 +4.3298290980e+01 4.9194662334e+01 1.0566000000e-01 0.0000e+00 1.0000e+00
      994  1    1    2    0    0 +1.5353042993e+01 -1.2121075966e+01 +8.1056671585e+00 1.3270018181e+02 1.3100000000e+02 0.0000e+00 0.0000e+00
      997  1    1    2    0    0 +6.4906437425e+00 +3.8618395540e+00 +4.4859603070e+02 4.4910515586e+02 2.0000000000e+01 0.0000e+00 0.0000e+00
</event>
<event>
 5      1 +2.3375200e-06 2.03935700e+02 7.95774700e-02 4.96804800e-01
       13 -1    0    0    0    0 +0.0000000000e+00 +0.0000000000e+00 +4.9999998884e+02 5.0000000000e+02 1.0566000000e-01 0.0000e+00 1.0000e+00
      994 -1    0    0    0    0 -0.0000000000e+00 -0.0000000000e+00 +0.0000000000e+00 1.3100000000e+02 1.3100000000e+02 0.0000e+00 0.0000e+00
       13  1    1    2    0    0 +4.0294185639e+01 +1.2194248763e+01 +9.7509630749e+01 1.0620951159e+02 1.0566000000e-01 0.0000e+00 -1.0000e+00
      994  1    1    2    0    0 -2.3083842781e+01 -3.1253716648e+01 +1.6731880561e+01 1.3766123067e+02 1.3100000000e+02 0.0000e+00 0.0000e+00
      997  1    1    2    0    0 -1.7210342858e+01 +1.9059467885e+01 +3.8575847753e+02 3.8712925774e+02 2.0000000000e+01 0.0000e+00 0.0000e+00
</event>
<event>
 5      1 +2.3375200e-06 1.43323500e+02 7.95774700e-02 6.74278800e-01
       13 -1    0    0    0    0 +0.0000000000e+00 +0.0000000000e+00 +4.9999998884e+02 5.0000000000e+02 1.0566000000e-01 0.0000e+00 1.0000e+00
      994 -1    0    0    0    0 -0.0000000000e+00 -0.0000000000e+00 +0.0000000000e+00 1.3100000000e+02 1.3100000000e+02 0.0000e+00 0.0000e+00
       13  1    1    2    0    0 +3.3998447160e+01 -3.4716064965e+01 -1.0154990453e+01 4.9641057312e+01 1.0566000000e-01 0.0000e+00 -1.0000e+00
      994  1    1    2    0    0 -5.2450057384e+01 -3.5644271216e+00 +1.1132210887e+02 1.7977020216e+02 1.3100000000e+02 0.0000e+00 0.0000e+00
      997  1    1    2    0    0 +1.8451610224e+01 +3.8280492086e+01 +3.9883287042e+02 4.0158874053e+02 2.0000000000e+01 0.0000e+00 0.0000e+00
</event>
<event>
 5      1 +2.3375200e-06 2.12487000e+02 7.95774700e-02 4.82431900e-01
       13 -1    0    0    0    0 +0.0000000000e+00 +0.0000000000e+00 +4.9999998884e+02 5.0000000000e+02 1.0566000000e-01 0.0000e+00 1.0000e+00
      994 -1    0    0    0    0 -0.0000000000e+00 -0.0000000000e+00 +0.0000000000e+00 1.3100000000e+02 1.3100000000e+02 0.0000e+00 0.0000e+00
       13  1    1    2    0    0 -1.1765119541e+01 +1.8266309807e+00 +4.8883042258e+01 5.0312201333e+01 1.0566000000e-01 0.0000e+00 -1.0000e+00
      994  1    1    2    0    0 +1.1743468992e+01 +1.7558258101e+00 +2.4488080545e+00 1.3155982916e+02 1.3100000000e+02 0.0000e+00 0.0000e+00
      997  1    1    2    0    0 +2.1650548509e-02 -3.5824567909e+00 +4.4866813852e+02 4.4912796950e+02 2.0000000000e+01 0.0000e+00 0.0000e+00
</event>
<event>
 5      1 +2.3375200e-06 2.09821300e+02 7.95774700e-02 4.86752800e-01
       13 -1    0    0    0    0 +0.0000000000e+00 +0.0000000000e+00 +4.9999998884e+02 5.0000000000e+02 1.0566000000e-01 0.0000e+00 1.0000e+00
      994 -1    0    0    0    0 -0.0000000000e+00 -0.0000000000e+00 +0.0000000000e+00 1.3100000000e+02 1.3100000000e+02 0.0000e+00 0.0000e+00
       13  1    1    2    0    0 -2.3714429899e+00 -3.7527978403e+01 +1.2672554386e+02 1.3218679032e+02 1.0566000000e-01 0.0000e+00 -1.0000e+00
      994  1    1    2    0    0 +1.8382378760e+01 +4.6826242323e+01 +1.6834695014e+01 1.4133299606e+02 1.3100000000e+02 0.0000e+00 0.0000e+00
      997  1    1    2    0    0 -1.6010935770e+01 -9.2982639205e+00 +3.5643974996e+02 3.5748021362e+02 2.0000000000e+01 0.0000e+00 0.0000e+00
</event>
<event>
 5      1 +2.3375200e-06 2.11571700e+02 7.95774700e-02 4.83900200e-01
       13 -1    0    0    0    0 +0.0000000000e+00 +0.0000000000e+00 +4.9999998884e+02 5.0000000000e+02 1.0566000000e-01 0.0000e+00 -1.0000e+00
      994 -1    0    0    0    0 -0.0000000000e+00 -0.0000000000e+00 +0.0000000000e+00 1.3100000000e+02 1.3100000000e+02 0.0000e+00 0.0000e+00
       13  1    1    2    0    0 +1.2817586735e+01 +1.1570985141e+01 +9.1292406030e+01 9.2911209172e+01 1.0566000000e-01 0.0000e+00 1.0000e+00
      994  1    1    2    0    0 -8.8115347460e+00 +7.8611514211e+00 +3.1653493299e+00 1.3156922240e+02 1.3100000000e+02 0.0000e+00 0.0000e+00
      997  1    1    2    0    0 -4.0060519891e+00 -1.9432136562e+01 +4.0554223348e+02 4.0651956843e+02 2.0000000000e+01 0.0000e+00 0.0000e+00
</event>
<event>
 5      1 +2.3375200e-06 2.05633200e+02 7.95774700e-02 4.93830000e-01
       13 -1    0    0    0    0 +0.0000000000e+00 +0.0000000000e+00 +4.9999998884e+02 5.0000000000e+02 1.0566000000e-01 0.0000e+00 -1.0000e+00
      994 -1    0    0    0    0 -0.0000000000e+00 -0.0000000000e+00 +0.0000000000e+00 1.3100000000e+02 1.3100000000e+02 0.0000e+00 0.0000e+00
       13  1    1    2    0    0 +9.8414574161e+00 -4.6815045897e+00 +5.7034873752e+00 1.2300882146e+01 1.0566000000e-01 0.0000e+00 1.0000e+00
      994  1    1    2    0    0 +1.0442303017e+01 +2.4766034766e+01 +1.1036084185e+01 1.3418343163e+02 1.3100000000e+02 0.0000e+00 0.0000e+00
      997  1    1    2    0    0 -2.0283760434e+01 -2.0084530177e+01 +4.8326041728e+02 4.8451568622e+02 2.0000000000e+01 0.0000e+00 0.0000e+00
</event>
<event>
 5      1 +2.3375200e-06 1.95949900e+02 7.95774700e-02 5.11702900e-01
       13 -1    0    0    0    0 +0.0000000000e+00 +0.0000000000e+00 +4.9999998884e+02 5.0000000000e+02 1.0566000000e-01 0.0000e+00 1.0000e+00
      994 -1    0    0    0    0 -0.0000000000e+00 -0.0000000000e+00 +0.0000000000e+00 1.3100000000e+02 1.3100000000e+02 0.0000e+00 0.0000e+00
       13  1    1    2    0    0 -5.4035245864e+01 -2.2039212142e+01 +8.6575349346e+01 1.0440707326e+02 1.0566000000e-01 0.0000e+00 -1.0000e+00
      994  1    1    2    0    0 +4.4298363855e+01 +3.7137280258e+01 +3.5247685924e+01 1.4746159496e+02 1.3100000000e+02 0.0000e+00 0.0000e+00
      997  1    1    2    0    0 +9.7368820092e+00 -1.5098068116e+01 +3.7817695357e+02 3.7913133178e+02 2.0000000000e+01 0.0000e+00 0.0000e+00
</event>
<event>
 5      1 +2.3375200e-06 2.12520300e+02 7.95774700e-02 4.82378900e-01
       13 -1    0    0    0    0 +0.0000000000e+00 +0.0000000000e+00 +4.9999998884e+02 5.0000000000e+02 1.0566000000e-01 0.0000e+00 -1.0000e+00
      994 -1    0    0    0    0 -0.0000000000e+00 -0.0000000000e+00 +0.0000000000e+00 1.3100000000e+02 1.3100000000e+02 0.0000e+00 0.0000e+00
       13  1    1    2    0    0 -1.5585890072e+01 -4.2395009276e+00 +7.7516383869e+01 7.9181401034e+01 1.0566000000e-01 0.0000e+00 1.0000e+00
      994  1    1    2    0    0 +2.4809154596e+01 -7.2265776688e+00 +5.0213981860e+00 1.3361860655e+02 1.3100000000e+02 0.0000e+00 0.0000e+00
      997  1    1    2    0    0 -9.2232645238e+00 +1.1466078596e+01 +4.1746220678e+02 4.1819999242e+02 2.0000000000e+01 0.0000e+00 0.0000e+00
</event>
<event>
 5      1 +2.3375200e-06 2.13253200e+02 7.95774700e-02 4.81215200e-01
       13 -1    0    0    0    0 +0.0000000000e+00 +0.0000000000e+00 +4.9999998884e+02 5.0000000000e+02 1.0566000000e-01 0.0000e+00 1.0000e+00
      994 -1    0    0    0    0 -0.0000000000e+00 -0.0000000000e+00 +0.0000000000e+00 1.3100000000e+02 1.3100000000e+02 0.0000e+00 0.0000e+00
       13  1    1    2    0    0 +1.5686518013e+01 +2.8877608183e+00 +5.0351949166e+01 5.2817951104e+01 1.0566000000e-01 0.0000e+00 -1.0000e+00
      994  1    1    2    0    0 -7.1860691754e+01 -4.5312024847e+00 +2.7688186712e+01 1.5202672955e+02 1.3100000000e+02 0.0000e+00 0.0000e+00
      997  1    1    2    0    0 +5.6174173740e+01 +1.6434416665e+00 +4.2195985296e+02 4.2615531934e+02 2.0000000000e+01 0.0000e+00 0.0000e+00
</event>
<event>
 5      1 +2.3375200e-06 2.06746400e+02 7.95774700e-02 4.91913200e-01
       13 -1    0    0    0    0 +0.0000000000e+00 +0.0000000000e+00 +4.9999998884e+02 5.0000000000e+02 1.0566000000e-01 0.0000e+00 -1.0000e+00
      994 -1    0    0    0    0 -0.0000000000e+00 -0.0000000000e+00 +0.0000000000e+00 1.3100000000e+02 1.3100000000e+02 0.0000e+00 0.0000e+00
       13  1    1    2    0    0 -2.0865810643e+01 -1.9521151710e+01 +5.1798656044e+01 5.9157158061e+01 1.0566000000e-01 0.0000e+00 1.0000e+00
      994  1    1    2    0    0 +2.7395276750e+01 +3.0201108867e+01 +1.5019383559e+01 1.3801880324e+02 1.3100000000e+02 0.0000e+00 0.0000e+00
      997  1    1    2    0    0 -6.5294661069e+00 -1.0679957157e+01 +4.3318194923e+02 4.3382403870e+02 2.0000000000e+01 0.0000e+00 0.0000e+00
</event>
<event>
 5      1 +2.3375200e-06 2.11255000e+02 7.95774700e-02 4.84411900e-01
       13 -1    0    0    0    0 +0.0000000000e+00 +0.0000000000e+00 +4.9999998884e+02 5.0000000000e+02 1.0566000000e-01 0.0000e+00 -1.0000e+00
      994 -1    0    0    0    0 -0.0000000000e+00 -0.0000000000e+00 +0.0000000000e+00 1.3100000000e+02 1.3100000000e+02 0.0000e+00 0.0000e+00
       13  1    1    2    0    0 +3.6966077481e+00 +1.5546776394e+01 +3.9114213372e+01 4.2252810756e+01 1.0566000000e-01 0.0000e+00 1.0000e+00
      994  1    1    2    0    0 -1.0423907123e+01 -3.3843444949e+01 +9.0010466346e+00 1.3600020385e+02 1.3100000000e+02 0.0000e+00 0.0000e+00
      997  1    1    2    0    0 +6.7272993745e+00 +1.8296668555e+01 +4.5188472883e+02 4.5274698540e+02 2.0000000000e+01 0.0000e+00 0.0000e+00
</event>
<event>
 5      1 +2.3375200e-06 2.05865200e+02 7.95774700e-02 4.93428400e-01
       13 -1    0    0    0    0 +0.0000000000e+00 +0.0000000000e+00 +4.9999998884e+02 5.0000000000e+02 1.0566000000e-01 0.0000e+00 -1.0000e+00
      994 -1    0    0    0    0 -0.0000000000e+00 -0.0000000000e+00 +0.0000000000e+00 1.3100000000e+02 1.3100000000e+02 0.0000e+00 0.0000e+00
       13  1    1    2    0    0 +4.0482541639e+01 -9.8734776045e+00 +1.5731827660e+02 1.6274327346e+02 1.0566000000e-01 0.0000e+00 1.0000e+00
      994  1    1    2    0    0 -1.4841300233e+01 +7.0406488746e-01 +8.2233343111e+00 1.3209611322e+02 1.3100000000e+02 0.0000e+00 0.0000e+00
      997  1    1    2    0    0 -2.5641241406e+01 +9.1694127171e+00 +3.3445837792e+02 3.3616061333e+02 2.0000000000e+01 0.0000e+00 0.0000e+00
</event>
<event>
 5      1 +2.3375200e-06 2.10480500e+02 7.95774700e-02 4.85671500e-01
       13 -1    0    0    0    0 +0.0000000000e+00 +0.0000000000e+00 +4.9999998884e+02 5.0000000000e+02 1.0566000000e-01 0.0000e+00 1.0000e+00
      994 -1    0    0    0    0 -0.0000000000e+00 -0.0000000000e+00 +0.0000000000e+00 1.3100000000e+02 1.3100000000e+02 0.0000e+00 0.0000e+00
       13  1    1    2    0    0 -3.9486128309e+01 +3.0532328163e+00 +1.6296616536e+02 1.6770944748e+02 1.0566000000e-01 0.0000e+00 -1.0000e+00
      994  1    1    2    0    0 +4.5499272487e+01 +4.1321303596e+00 +1.3933227053e+01 1.3943598214e+02 1.3100000000e+02 0.0000e+00 0.0000e+00
      997  1    1    2    0    0 -6.0131441779e+00 -7.1853631758e+00 +3.2310059643e+02 3.2385457038e+02 2.0000000000e+01 0.0000e+00 0.0000e+00
</event>
<event>
 5      1 +2.3375200e-06 2.12445800e+02 7.95774700e-02 4.82497800e-01
       13 -1    0    0    0    0 +0.0000000000e+00 +0.0000000000e+00 +4.9999998884e+02 5.0000000000e+02 1.0566000000e-01 0.0000e+00 1.0000e+00
      994 -1    0    0    0    0 -0.0000000000e+00 -0.0000000000e+00 +0.0000000000e+00 1.3100000000e+02 1.3100000000e+02 0.0000e+00 0.0000e+00
       13  1    1    2    0    0 +8.4885994954e+00 +1.2552861021e+01 +5.7347609814e+01 5.9316019393e+01 1.0566000000e-01 0.0000e+00 -1.0000e+00
      994  1    1    2    0    0 -2.3004034779e+00 -3.5366865610e+01 +8.0161490031e+00 1.3594618672e+02 1.3100000000e+02 0.0000e+00 0.0000e+00
      997  1    1    2    0    0 -6.1881960175e+00 +2.2814004588e+01 +4.3463623002e+02 4.3573779389e+02 2.0000000000e+01 0.0000e+00 0.0000e+00
</event>
<event>
 5      1 +2.3375200e-06 2.09560400e+02 7.95774700e-02 4.87183300e-01
       13 -1    0    0    0    0 +0.0000000000e+00 +0.0000000000e+00 +4.9999998884e+02 5.0000000000e+02 1.0566000000e-01 0.0000e+00 -1.0000e+00
      994 -1    0    0    0    0 -0.0000000000e+00 -0.0000000000e+00 +0.0000000000e+00 1.3100000000e+02 1.3100000000e+02 0.0000e+00 0.0000e+00
       13  1    1    2    0    0 -1.2014262147e+00 -2.8348003426e+01 +1.4383297131e+02 1.4660486868e+02 1.0566000000e-01 0.0000e+00 1.0000e+00
      994  1    1    2    0    0 -1.5662016999e+00 +6.0850553729e+00 +4.2732381378e+00 1.3122020214e+02 1.3100000000e+02 0.0000e+00 0.0000e+00
      997  1    1    2    0    0 +2.7676279146e+00 +2.2262948053e+01 +3.5189377939e+02 3.5317492917e+02 2.0000000000e+01 0.0000e+00 0.0000e+00
</event>
<event>
 5      1 +2.3375200e-06 2.07597400e+02 7.95774700e-02 4.90465500e-01
       13 -1    0    0    0    0 +0.0000000000e+00 +0.0000000000e+00 +4.9999998884e+02 5.0000000000e+02 1.0566000000e-01 0.0000e+00 1.0000e+00
      994 -1    0    0    0    0 -0.0000000000e+00 -0.0000000000e+00 +0.0000000000e+00 1.3100000000e+02 1.3100000000e+02 0.0000e+00 0.0000e+00
       13  1    1    2    0    0 -5.1357460495e+00 +1.3382879446e+01 +1.6060730628e+01 2.1527554020e+01 1.0566000000e-01 0.0000e+00 -1.0000e+00
      994  1    1    2    0    0 -2.0709531898e+00 -2.0688332255e+01 +7.8702324813e+00 1.3287300891e+02 1.3100000000e+02 0.0000e+00 0.0000e+00
      997  1    1    2    0    0 +7.2066992392e+00 +7.3054528085e+00 +4.7606902573e+02 4.7659943707e+02 2.0000000000e+01 0.0000e+00 0.0000e+00
</event>
<event>
 5      1 +2.3375200e-06 2.11842300e+02 7.95774700e-02 4.83464400e-01
       13 -1    0    0    0    0 +0.0000000000e+00 +0.0000000000e+00 +4.9999998884e+02 5.0000000000e+02 1.0566000000e-01 0.0000e+00 1.0000e+00
      994 -1    0    0    0    0 -0.0000000000e+00 -0.0000000000e+00 +0.0000000000e+00 1.3100000000e+02 1.3100000000e+02 0.0000e+00 0.0000e+00
       13  1    1    2    0    0 +7.8213356091e-01 -1.2617274639e+01 +4.5311745790e+01 4.7042245086e+01 1.0566000000e-01 0.0000e+00 -1.0000e+00
      994  1    1    2    0    0 +7.4147458301e+00 +4.4632043278e+00 +2.6323301349e+00 1.3131194847e+02 1.3100000000e+02 0.0000e+00 0.0000e+00
      997  1    1    2    0    0 -8.1968793910e+00 +8.1540703114e+00 +4.5205591291e+02 4.5264580645e+02 2.0000000000e+01 0.0000e+00 0.0000e+00
</event>
<event>
 5      1 +2.3375200e-06 2.13085500e+02 7.95774700e-02 4.81480500e-01
       13 -1    0    0    0    0 +0.0000000000e+00 +0.0000000000e+00 +4.9999998884e+02 5.0000000000e+02 1.0566000000e-01 0.0000e+00 -1.0000e+00
      994 -1    0    0    0    0 -0.0000000000e+00 -0.0000000000e+00 +0.0000000000e+00 1.3100000000e+02 1.3100000000e+02 0.0000e+00 0.0000e+00
       13  1    1    2    0    0 +1.0322229683e+01 -4.2230641459e+00 +5.3381636225e+01 5.4534328147e+01 1.0566000000e-01 0.0000e+00 1.0000e+00
      994  1    1    2    0    0 -2.0931131604e+01 +2.3906892910e+00 +3.4627443422e+00 1.3272836270e+02 1.3100000000e+02 0.0000e+00 0.0000e+00
      997  1    1    2    0    0 +1.0608901922e+01 +1.8323748548e+00 +4.4315560827e+02 4.4373730916e+02 2.0000000000e+01 0.0000e+00 0.0000e+00
</event>
<event>
 5      1 +2.3375200e-06 2.11918300e+02 7.95774700e-02 4.83342200e-01
       13 -1    0    0    0    0 +0.0000000000e+00 +0.0000000000e+00 +4.9999998884e+02 5.0000000000e+02 1.0566000000e-01 0.0000e+00 -1.0000e+00
      994 -1    0    0    0    0 -0.0000000000e+00 -0.0000000000e+00 +0.0000000000e+00 1.3100000000e+02 1.3100000000e+02 0.0000e+00 0.0000e+00
       13  1    1    2    0    0 +1.2697735010e+01 +9.7886397360e+00 +7.5353812963e+01 7.7040627168e+01 1.0566000000e-01 0.0000e+00 1.0000e+00
      994  1    1    2    0    0 -1.9383348966e+01 +9.7003322468e+00 +4.5250918162e+00 1.3285814660e+02 1.3100000000e+02 0.0000e+00 0.0000e+00
      997  1    1    2    0    0 +6.6856139564e+00 -1.9488971983e+01 +4.2012108406e+02 4.2110122623e+02 2.0000000000e+01 0.0000e+00 0.0000e+00
</event>
<event>
 5      1 +2.3375200e-06 2.02596000e+02 7.95774700e-02 4.99198000e-01
       13 -1    0    0    0    0 +0.0000000000e+00 +0.0000000000e+00 +4.9999998884e+02 5.0000000000e+02 1.0566000000e-01 0.0000e+00 1.0000e+00
      994 -1    0    0    0    0 -0.0000000000e+00 -0.0000000000e+00 +0.0000000000e+00 1.3100000000e+02 1.3100000000e+02 0.0000e+00 0.0000e+00
       13  1    1    2    0    0 -8.9712629316e+00 -3.0421246752e+01 +4.7535693049e+01 5.7145333057e+01 1.0566000000e-01 0.0000e+00 -1.0000e+00
      994  1    1    2    0    0 +1.4686686867e+01 +2.1319381258e+01 +1.3400578641e+01 1.3420428569e+02 1.3100000000e+02 0.0000e+00 0.0000e+00
      997  1    1    2    0    0 -5.7154239358e+00 +9.1018654940e+00 +4.3906371715e+02 4.3965038126e+02 2.0000000000e+01 0.0000e+00 0.0000e+00
</event>
<event>
 5      1 +2.3375200e-06 2.07277800e+02 7.95774700e-02 4.91007500e-01
       13 -1    0    0    0    0 +0.0000000000e+00 +0.0000000000e+00 +4.9999998884e+02 5.0000000000e+02 1.0566000000e-01 0.0000e+00 -1.0000e+00
      994 -1    0    0    0    0 -0.0000000000e+00 -0.0000000000e+00 +0.0000000000e+00 1.3100000000e+02 1.3100000000e+02 0.0000e+00 0.0000e+00
       13  1    1    2    0    0 +1.0862967873e+01 +1.8788817547e+01 +3.6404850838e+01 4.2383346545e+01 1.0566000000e-01 0.0000e+00 1.0000e+00
      994  1    1    2    0    0 -1.9371374216e+01 -1.7143875298e+01 +9.3583125939e+00 1.3385716497e+02 1.3100000000e+02 0.0000e+00 0.0000e+00
      997  1    1    2    0    0 +8.5084063435e+00 -1.6449422486e+00 +4.5423682540e+02 4.5475948848e+02 2.0000000000e+01 0.0000e+00 0.0000e+00
</event>
<event>
 5      1 +2.3375200e-06 2.05157500e+02 7.95774700e-02 4.94657300e-01
       13 -1    0    0    0    0 +0.0000000000e+00 +0.0000000000e+00 +4.9999998884e+02 5.0000000000e+02 1.0566000000e-01 0.0000e+00 1.0000e+00
      994 -1    0    0    0    0 -0.0000000000e+00 -0.0000000000e+00 +0.0000000000e+00 1.3100000000e+02 1.3100000000e+02 0.0000e+00 0.0000e+00
       13  1    1    2    0    0 +2.1649493221e+01 +3.2600839386e+01 +1.2427377102e+02 1.3029004802e+02 1.0566000000e-01 0.0000e+00 -1.0000e+00
      994  1    1    2    0    0 -3.2254138883e+01 +4.3542823117e+00 +1.3226643737e+01 1.3562902843e+02 1.3100000000e+02 0.0000e+00 0.0000e+00
      997  1    1    2    0    0 +1.0604645662e+01 -3.6955121698e+01 +3.6249957408e+02 3.6508092354e+02 2.0000000000e+01 0.0000e+00 0.0000e+00
</event>
<event>
 5      1 +2.3375200e-06 2.10037500e+02 7.95774700e-02 4.86397300e-01
       13 -1    0    0    0    0 +0.0000000000e+00 +0.0000000000e+00 +4.9999998884e+02 5.0000000000e+02 1.0566000000e-01 0.0000e+00 -1.0000e+00
      994 -1    0    0    0    0 -0.0000000000e+00 -0.0000000000e+00 +0.0000000000e+00 1.3100000000e+02 1.3100000000e+02 0.0000e+00 0.0000e+00
       13  1    1    2    0    0 -1.5721421342e+01 +1.8864788821e+01 +7.7664557993e+01 8.1454515397e+01 1.0566000000e-01 0.0000e+00 1.0000e+00
      994  1    1    2    0    0 +2.5659661640e+01 -1.1234785719e+01 +7.6399775139e+00 1.3417901439e+02 1.3100000000e+02 0.0000e+00 0.0000e+00
      997  1    1    2    0    0 -9.9382402982e+00 -7.6300031016e+00 +4.1469545333e+02 4.1536647022e+02 2.0000000000e+01 0.0000e+00 0.0000e+00
</event>
<event>
 5      1 +2.3375200e-06 2.17514000e+02 7.95774700e-02 4.74644200e-01
       13 -1    0    0    0    0 +0.0000000000e+00 +0.0000000000e+00 +4.9999998884e+02 5.0000000000e+02 1.0566000000e-01 0.0000e+00 1.0000e+00
      994 -1    0    0    0    0 -0.0000000000e+00 -0.0000000000e+00 +0.0000000000e+00 1.3100000000e+02 1.3100000000e+02 0.0000e+00 0.0000e+00
       13  1    1    2    0    0 +4.4071731757e+01 -5.5426214002e-02 +5.4214194235e+00 4.4404094008e+01 1.0566000000e-01 0.0000e+00 -1.0000e+00
      994  1    1    2    0    0 -2.4670789829e+01 +2.2990978904e+01 +5.5787464774e+01 1.4632318411e+02 1.3100000000e+02 0.0000e+00 0.0000e+00
      997  1    1    2    0    0 -1.9400941927e+01 -2.2935552690e+01 +4.3879110464e+02 4.4027272188e+02 2.0000000000e+01 0.0000e+00 0.0000e+00
</event>
<event>
 5      1 +2.3375200e-06 2.07257400e+02 7.95774700e-02 4.91042200e-01
       13 -1    0    0    0    0 +0.0000000000e+00 +0.0000000000e+00 +4.9999998884e+02 5.0000000000e+02 1.0566000000e-01 0.0000e+00 -1.0000e+00
      994 -1    0    0    0    0 -0.0000000000e+00 -0.0000000000e+00 +0.0000000000e+00 1.3100000000e+02 1.3100000000e+02 0.0000e+00 0.0000e+00
       13  1    1    2    0    0 -2.9218880368e+01 -1.9277425757e+01 +7.1801776380e+01 7.9880337813e+01 1.0566000000e-01 0.0000e+00 1.0000e+00
      994  1    1    2    0    0 +8.5606046120e+01 -1.9050271856e+01 +4.8656098640e+01 1.6498401112e+02 1.3100000000e+02 0.0000e+00 0.0000e+00
      997  1    1    2    0    0 -5.6387165752e+01 +3.8327697613e+01 +3.7954211382e+02 3.8613565107e+02 2.0000000000e+01 0.0000e+00 0.0000e+00
</event>
<event>
 5      1 +2.3375200e-06 2.11846900e+02 7.95774700e-02 4.83457100e-01
       13 -1    0    0    0    0 +0.0000000000e+00 +0.0000000000e+00 +4.9999998884e+02 5.0000000000e+02 1.0566000000e-01 0.0000e+00 1.0000e+00
      994 -1    0    0    0    0 -0.0000000000e+00 -0.0000000000e+00 +0.0000000000e+00 1.3100000000e+02 1.3100000000e+02 0.0000e+00 0.0000e+00
       13  1    1    2    0    0 -1.5329027242e+01 +5.9239003976e+00 +8.1150735969e+01 8.2798096503e+01 1.0566000000e-01 0.0000e+00 -1.0000e+00
      994  1    1    2    0    0 +6.8574558125e+00 +2.2389047306e+00 +2.5160330076e+00 1.3122258882e+02 1.3100000000e+02 0.0000e+00 0.0000e+00
      997  1    1    2    0    0 +8.4715714297e+00 -8.1628051282e+00 +4.1633321986e+02 4.1697931468e+02 2.0000000000e+01 0.0000e+00 0.0000e+00
</event>
<event>
 5      1 +2.3375200e-06 1.99602500e+02 7.95774700e-02 5.04696100e-01
       13 -1    0    0    0    0 +0.0000000000e+00 +0.0000000000e+00 +4.9999998884e+02 5.0000000000e+02 1.0566000000e-01 0.0000e+00 -1.0000e+00
      994 -1    0    0    0    0 -0.0000000000e+00 -0.0000000000e+00 +0.0000000000e+00 1.3100000000e+02 1.3100000000e+02 0.0000e+00 0.0000e+00
       13  1    1    2    0    0 -3.4899532066e+01 +2.9800512515e+01 +3.0423551986e+01 5.5060435560e+01 1.0566000000e-01 0.0000e+00 1.0000e+00
      994  1    1    2    0    0 +2.7783909537e+01 -2.5086328100e+01 +3.4797237582e+01 1.4061691659e+02 1.3100000000e+02 0.0000e+00 0.0000e+00
      997  1    1    2    0    0 +7.1156225294e+00 -4.7141844155e+00 +4.3477919927e+02 4.3532264785e+02 2.0000000000e+01 0.0000e+00 0.0000e+00
</event>
<event>
 5      1 +2.3375200e-06 2.09824300e+02 7.95774700e-02 4.86747900e-01
       13 -1    0    0    0    0 +0.0000000000e+00 +0.0000000000e+00 +4.9999998884e+02 5.0000000000e+02 1.0566000000e-01 0.0000e+00 -1.0000e+00
      994 -1    0    0    0    0 -0.0000000000e+00 -0.0000000000e+00 +0.0000000000e+00 1.3100000000e+02 1.3100000000e+02 0.0000e+00 0.0000e+00
       13  1    1    2    0    0 -1.5562930201e+01 +2.4254658942e+01 +1.3964013278e+02 1.4258285705e+02 1.0566000000e-01 0.0000e+00 1.0000e+00
      994  1    1    2    0    0 -7.0089429398e+00 -1.9516384554e+01 +6.0231470096e+00 1.3276781555e+02 1.3100000000e+02 0.0000e+00 0.0000e+00
      997  1    1    2    0    0 +2.2571873141e+01 -4.7382743879e+00 +3.5433670904e+02 3.5564932740e+02 2.0000000000e+01 0.0000e+00 0.0000e+00
</event>
<event>
 5      1 +2.3375200e-06 2.08817200e+02 7.95774700e-02 4.88416700e-01
       13 -1    0    0    0    0 +0.0000000000e+00 +0.0000000000e+00 +4.9999998884e+02 5.0000000000e+02 1.0566000000e-01 0.0000e+00 1.0000e+00
      994 -1    0    0    0    0 -0.0000000000e+00 -0.0000000000e+00 +0.0000000000e+00 1.3100000000e+02 1.3100000000e+02 0.0000e+00 0.0000e+00
       13  1    1    2    0    0 -1.2410030250e+01 +9.1212544461e+00 +2.2310295247e+01 2.7110266902e+01 1.0566000000e-01 0.0000e+00 -1.0000e+00
      994  1    1    2    0    0 +1.0094112122e+01 -3.2660299506e+01 +1.0629372946e+01 1.3580342349e+02 1.3100000000e+02 0.0000e+00 0.0000e+00
      997  1    1    2    0    0 +2.3159181287e+00 +2.3539045060e+01 +4.6706032064e+02 4.6808630960e+02 2.0000000000e+01 0.0000e+00 0.0000e+00
</event>
<event>
 5      1 +2.3375200e-06 2.03914300e+02 7.95774700e-02 4.96842700e-01
       13 -1    0    0    0    0 +0.0000000000e+00 +0.0000000000e+00 +4.9999998884e+02 5.0000000000e+02 1.0566000000e-01 0.0000e+00 1.0000e+00
      994 -1    0    0    0    0 -0.0000000000e+00 -0.0000000000e+00 +0.0000000000e+00 1.3100000000e+02 1.3100000000e+02 0.0000e+00 0.0000e+00
       13  1    1    2    0    0 +1.5996884627e+01 -3.9294937411e+01 +1.0900334347e+02 1.1696893808e+02 1.0566000000e-01 0.0000e+00 -1.0000e+00
      994  1    1    2    0    0 +7.5971435597e+01 +9.2537133741e+01 +1.0025202249e+02 2.0382896792e+02 1.3100000000e+02 0.0000e+00 0.0000e+00
      997  1    1    2    0    0 -9.1968320224e+01 -5.3242196331e+01 +2.9074462287e+02 3.1020209400e+02 2.0000000000e+01 0.0000e+00 0.0000e+00
</event>
<event>
 5      1 +2.3375200e-06 1.99387100e+02 7.95774700e-02 5.05099900e-01
       13 -1    0    0    0    0 +0.0000000000e+00 +0.0000000000e+00 +4.9999998884e+02 5.0000000000e+02 1.0566000000e-01 0.0000e+00 -1.0000e+00
      994 -1    0    0    0    0 -0.0000000000e+00 -0.0000000000e+00 +0.0000000000e+00 1.3100000000e+02 1.3100000000e+02 0.0000e+00 0.0000e+00
       13  1    1    2    0    0 -3.9006891722e+01 +1.2825310109e+00 +5.0343385240e+01 6.3699686727e+01 1.0566000000e-01 0.0000e+00 1.0000e+00
      994  1    1    2    0    0 +3.8647009801e+01 -3.9117845215e+01 +2.9669346629e+01 1.4513809738e+02 1.3100000000e+02 0.0000e+00 0.0000e+00
      997  1    1    2    0    0 +3.5988192170e-01 +3.7835314204e+01 +4.1998725697e+02 4.2216221590e+02 2.0000000000e+01 0.0000e+00 0.0000e+00
</event>
<event>
 5      1 +2.3375200e-06 1.94614900e+02 7.95774700e-02 5.14350400e-01
       13 -1    0    0    0    0 +0.0000000000e+00 +0.0000000000e+00 +4.9999998884e+02 5.0000000000e+02 1.0566000000e-01 0.0000e+00 1.0000e+00
      994 -1    0    0    0    0 -0.0000000000e+00 -0.0000000000e+00 +0.0000000000e+00 1.3100000000e+02 1.3100000000e+02 0.0000e+00 0.0000e+00
       13  1    1    2    0    0 +1.4863477274e+01 -9.0645225604e-01 -4.0766675807e+00 1.5439397493e+01 1.0566000000e-01 0.0000e+00 -1.0000e+00
      994  1    1    2    0    0 -2.5303237373e+01 -4.0269480246e+00 +2.4847180382e+01 1.3577500692e+02 1.3100000000e+02 0.0000e+00 0.0000e+00
      997  1    1    2    0    0 +1.0439760099e+01 +4.9334002807e+00 +4.7922947603e+02 4.7978559558e+02 2.0000000000e+01 0.0000e+00 0.0000e+00
</event>
<event>
 5      1 +2.3375200e-06 2.11808600e+02 7.95774700e-02 4.83518600e-01
       13 -1    0    0    0    0 +0.0000000000e+00 +0.0000000000e+00 +4.9999998884e+02 5.0000000000e+02 1.0566000000e-01 0.0000e+00 1.0000e+00
      994 -1    0    0    0    0 -0.0000000000e+00 -0.0000000000e+00 +0.0000000000e+00 1.3100000000e+02 1.3100000000e+02 0.0000e+00 0.0000e+00
       13  1    1    2    0    0 -9.0728005361e-02 -2.8834555045e+01 +1.1274864586e+02 1.1637743812e+02 1.0566000000e-01 0.0000e+00 -1.0000e+00
      994  1    1    2    0    0 +1.3510540504e+01 +4.8536686177e+01 +1.5090670141e+01 1.4116328466e+02 1.3100000000e+02 0.0000e+00 0.0000e+00
      997  1    1    2    0    0 -1.3419812499e+01 -1.9702131132e+01 +3.7216067283e+02 3.7345927722e+02 2.0000000000e+01 0.0000e+00 0.0000e+00
</event>
<event>
 5      1 +2.3375200e-06 1.96880300e+02 7.95774700e-02 5.09885700e-01
       13 -1    0    0    0    0 +0.0000000000e+00 +0.0000000000e+00 +4.9999998884e+02 5.0000000000e+02 1.0566000000e-01 0.0000e+00 1.0000e+00
      994 -1    0    0    0    0 -0.0000000000e+00 -0.0000000000e+00 +0.0000000000e+00 1.3100000000e+02 1.3100000000e+02 0.0000e+00 0.0000e+00
       13  1    1    2    0    0 +2.2034419073e+01 +9.6410969426e+00 +1.3611312692e+01 2.7635943468e+01 1.0566000000e-01 0.0000e+00 -1.0000e+00
      994  1    1    2    0    0 -2.5634254794e+01 +9.0106426523e+00 +1.8963333162e+01 1.3512555163e+02 1.3100000000e+02 0.0000e+00 0.0000e+00
      997  1    1    2    0    0 +3.5998357209e+00 -1.8651739595e+01 +4.6742534298e+02 4.6823850490e+02 2.0000000000e+01 0.0000e+00 0.0000e+00
</event>
<event>
 5      1 +2.3375200e-06 2.09074900e+02 7.95774700e-02 4.87987700e-01
       13 -1    0    0    0    0 +0.0000000000e+00 +0.0000000000e+00 +4.9999998884e+02 5.0000000000e+02 1.0566000000e-01 0.0000e+00 1.0000e+00
      994 -1    0    0    0    0 -0.0000000000e+00 -0.0000000000e+00 +0.0000000000e+00 1.3100000000e+02 1.3100000000e+02 0.0000e+00 0.0000e+00
       13  1    1    2    0    0 -7.7455708401e+00 +2.5114138982e+01 +9.5027170196e+01 9.8594564170e+01 1.0566000000e-01 0.0000e+00 -1.0000e+00
      994  1    1    2    0    0 -7.3864003166e+00 -1.1511225879e+01 +5.4077438154e+00 1.3182302881e+02 1.3100000000e+02 0.0000e+00 0.0000e+00
      997  1    1    2    0    0 +1.5131971157e+01 -1.3602913103e+01 +3.9956507482e+02 4.0058240702e+02 2.0000000000e+01 0.0000e+00 0.0000e+00
</event>
<event>
 5      1 +2.3375200e-06 2.01510600e+02 7.95774700e-02 5.01167100e-01
       13 -1    0    0    0    0 +0.0000000000e+00 +0.0000000000e+00 +4.9999998884e+02 5.0000000000e+02 1.0566000000e-01 0.0000e+00 -1.0000e+00
      994 -1    0    0    0    0 -0.0000000000e+00 -0.0000000000e+00 +0.0000000000e+00 1.3100000000e+02 1.3100000000e+02 0.0000e+00 0.0000e+00
       13  1    1    2    0    0 -1.6590484001e+01 -2.4849698544e+00 +7.1353921398e+00 1.8230310464e+01 1.0566000000e-01 0.0000e+00 1.0000e+00
      994  1    1    2    0    0 +8.0822851001e+00 +9.0763492110e+01 +6.0035040509e+01 1.7049498797e+02 1.3100000000e+02 0.0000e+00 0.0000e+00
      997  1    1    2    0    0 +8.5081989014e+00 -8.8278522256e+01 +4.3282955619e+02 4.4227470157e+02 2.0000000000e+01 0.0000e+00 0.0000e+00
</event>
<event>
 5      1 +2.3375200e-06 2.08090400e+02 7.95774700e-02 4.89633900e-01
       13 -1    0    0    0    0 +0.0000000000e+00 +0.0000000000e+00 +4.9999998884e+02 5.0000000000e+02 1.0566000000e-01 0.0000e+00 1.0000e+00
      994 -1    0    0    0    0 -0.0000000000e+00 -0.0000000000e+00 +0.0000000000e+00 1.3100000000e+02 1.3100000000e+02 0.0000e+00 0.0000e+00
       13  1    1    2    0    0 +9.6973211853e+00 +1.1178124044e+01 +2.2199635186e+01 2.6680019898e+01 1.0566000000e-01 0.0000e+00 -1.0000e+00
      994  1    1    2    0    0 +5.3293015751e+00 -3.8057896462e+00 +5.4777480510e+00 1.3127791594e+02 1.3100000000e+02 0.0000e+00 0.0000e+00
      997  1    1    2    0    0 -1.5026622760e+01 -7.3723343981e+00 +4.7232260560e+02 4.7304206416e+02 2.0000000000e+01 0.0000e+00 0.0000e+00
</event>
<event>
 5      1 +2.3375200e-06 1.73330400e+02 7.95774700e-02 5.64228100e-01
       13 -1    0    0    0    0 +0.0000000000e+00 +0.0000000000e+00 +4.9999998884e+02 5.0000000000e+02 1.0566000000e-01 0.0000e+00 -1.0000e+00
      994 -1    0    0    0    0 -0.0000000000e+00 -0.0000000000e+00 +0.0000000000e+00 1.3100000000e+02 1.3100000000e+02 0.0000e+00 0.0000e+00
       13  1    1    2    0    0 -5.2288347543e+01 +4.4541004888e+01 +2.5806421887e+02 2.6704891805e+02 1.0566000000e-01 0.0000e+00 1.0000e+00
      994  1    1    2    0    0 -4.4945313733e+00 -4.9127433541e+01 +2.9438762127e+01 1.4304316221e+02 1.3100000000e+02 0.0000e+00 0.0000e+00
      997  1    1    2    0    0 +5.6782878916e+01 +4.5864286526e+00 +2.1249700784e+02 2.2090791974e+02 2.0000000000e+01 0.0000e+00 0.0000e+00
</event>
<event>
 5      1 +2.3375200e-06 2.11736700e+02 7.95774700e-02 4.83634200e-01
       13 -1    0    0    0    0 +0.0000000000e+00 +0.0000000000e+00 +4.9999998884e+02 5.0000000000e+02 1.0566000000e-01 0.0000e+00 -1.0000e+00
      994 -1    0    0    0    0 -0.0000000000e+00 -0.0000000000e+00 +0.0000000000e+00 1.3100000000e+02 1.3100000000e+02 0.0000e+00 0.0000e+00
       13  1    1    2    0    0 -7.6892931921e+00 +1.4219798930e+01 +7.2197001770e+01 7.3984769649e+01 1.0566000000e-01 0.0000e+00 1.0000e+00
      994  1    1    2    0    0 +3.9891478617e+00 -5.2018282616e+00 +2.5582541954e+00 1.3118885998e+02 1.3100000000e+02 0.0000e+00 0.0000e+00
      997  1    1    2    0    0 +3.7001453304e+00 -9.0179706687e+00 +4.2524473287e+02 4.2582637037e+02 2.0000000000e+01 0.0000e+00 0.0000e+00
</event>
<event>
 5      1 +2.3375200e-06 2.04634700e+02 7.95774700e-02 4.95572100e-01
       13 -1    0    0    0    0 +0.0000000000e+00 +0.0000000000e+00 +4.9999998884e+02 5.0000000000e+02 1.0566000000e-01 0.0000e+00 1.0000e+00
      994 -1    0    0    0    0 -0.0000000000e+00 -0.0000000000e+00 +0.0000000000e+00 1.3100000000e+02 1.3100000000e+02 0.0000e+00 0.0000e+00
       13  1    1    2    0    0 +3.0171067055e+01 +3.2273222372e+00 +6.4333444129e+01 7.1130247389e+01 1.0566000000e-01 0.0000e+00 -1.0000e+00
      994  1    1    2    0    0 -6.1752373676e+00 -8.1445426554e+00 +8.6485130727e+00 1.3168243584e+02 1.3100000000e+02 0.0000e+00 0.0000e+00
      997  1    1    2    0    0 -2.3995829687e+01 +4.9172204182e+00 +4.2701803163e+02 4.2818731677e+02 2.0000000000e+01 0.0000e+00 0.0000e+00
</event>
<event>
 5      1 +2.3375200e-06 2.08955700e+02 7.95774700e-02 4.88185900e-01
       13 -1    0    0    0    0 +0.0000000000e+00 +0.0000000000e+00 +4.9999998884e+02 5.0000000000e+02 1.0566000000e-01 0.0000e+00 -1.0000e+00
      994 -1    0    0    0    0 -0.0000000000e+00 -0.0000000000e+00 +0.0000000000e+00 1.3100000000e+02 1.3100000000e+02 0.0000e+00 0.0000e+00
       13  1    1    2    0    0 -2.1984583606e+01 -1.7966486715e+01 +1.4954205244e+02 1.5221351180e+02 1.0566000000e-01 0.0000e+00 1.0000e+00
      994  1    1    2    0    0 -5.9801906361e+00 +6.5842081465e+00 +4.9596209954e+00 1.3139525226e+02 1.3100000000e+02 0.0000e+00 0.0000e+00
      997  1    1    2    0    0 +2.7964774242e+01 +1.1382278569e+01 +3.4549831540e+02 3.4739123594e+02 2.0000000000e+01 0.0000e+00 0.0000e+00
</event>
<event>
 5      1 +2.3375200e-06 2.12072300e+02 7.95774700e-02 4.83095100e-01
       13 -1    0    0    0    0 +0.0000000000e+00 +0.0000000000e+00 +4.9999998884e+02 5.0000000000e+02 1.0566000000e-01 0.0000e+00 1.0000e+00
      994 -1    0    0    0    0 -0.0000000000e+00 -0.0000000000e+00 +0.0000000000e+00 1.3100000000e+02 1.3100000000e+02 0.0000e+00 0.0000e+00
       13  1    1    2    0    0 -1.0138139232e+01 +4.7102064671e+00 +5.4136375406e+01 5.5278623520e+01 1.0566000000e-01 0.0000e+00 -1.0000e+00
      994  1    1    2    0    0 -3.8709399039e+00 +1.8991498882e+01 +3.9350056336e+00 1.3248451032e+02 1.3100000000e+02 0.0000e+00 0.0000e+00
      997  1    1    2    0    0 +1.4009079136e+01 -2.3701705349e+01 +4.4192860780e+02 4.4323686616e+02 2.0000000000e+01 0.0000e+00 0.0000e+00
</event>
<event>
 5      1 +2.3375200e-06 2.12461200e+02 7.95774700e-02 4.82473200e-01
       13 -1    0    0    0    0 +0.0000000000e+00 +0.0000000000e+00 +4.9999998884e+02 5.0000000000e+02 1.0566000000e-01 0.0000e+00 -1.0000e+00
      994 -1    0    0    0    0 -0.0000000000e+00 -0.0000000000e+00 +0.0000000000e+00 1.3100000000e+02 1.3100000000e+02 0.0000e+00 0.0000e+00
       13  1    1    2    0    0 -1.0304931218e+01 -1.5991142713e+01 +9.1194741443e+01 9.3157931941e+01 1.0566000000e-01 0.0000e+00 1.0000e+00
      994  1    1    2    0    0 +7.8274904539e+00 +2.8500903319e+01 +6.0920923532e+00 1.3443096625e+02 1.3100000000e+02 0.0000e+00 0.0000e+00
      997  1    1    2    0    0 +2.4774407639e+00 -1.2509760607e+01 +4.0271315504e+02 4.0341110181e+02 2.0000000000e+01 0.0000e+00 0.0000e+00
</event>
<event>
 5      1 +2.3375200e-06 2.11760800e+02 7.95774700e-02 4.83595600e-01
       13 -1    0    0    0    0 +0.0000000000e+00 +0.0000000000e+00 +4.9999998884e+02 5.0000000000e+02 1.0566000000e-01 0.0000e+00 1.0000e+00
      994 -1    0    0    0    0 -0.0000000000e+00 -0.0000000000e+00 +0.0000000000e+00 1.3100000000e+02 1.3100000000e+02 0.0000e+00 0.0000e+00
       13  1    1    2    0    0 -1.2824544621e+01 -2.1166923914e+01 +8.7075565438e+01 9.0524432465e+01 1.0566000000e-01 0.0000e+00 -1.0000e+00
      994  1    1    2    0    0 +9.7581585550e+00 +4.9400115035e+01 +1.5119012253e+01 1.4115657107e+02 1.3100000000e+02 0.0000e+00 0.0000e+00
      997  1    1    2    0    0 +3.0663860662e+00 -2.8233191121e+01 +3.9780541114e+02 3.9931899647e+02 2.0000000000e+01 0.0000e+00 0.0000e+00
</event>
<event>
 5      1 +2.3375200e-06 2.10936100e+02 7.95774700e-02 4.84929100e-01
       13 -1    0    0    0    0 +0.0000000000e+00 +0.0000000000e+00 +4.9999998884e+02 5.0000000000e+02 1.0566000000e-01 0.0000e+00 -1.0000e+00
      994 -1    0    0    0    0 -0.0000000000e+00 -0.0000000000e+00 +0.0000000000e+00 1.3100000000e+02 1.3100000000e+02 0.0000e+00 0.0000e+00
       13  1    1    2    0    0 +1.7432692864e+01 -1.4605891908e+01 +7.5740001299e+01 7.9080906797e+01 1.0566000000e-01 0.0000e+00 1.0000e+00
      994  1    1    2    0    0 -2.9602214771e+01 +1.2054449346e+01 +8.0921567946e+00 1.3508546876e+02 1.3100000000e+02 0.0000e+00 0.0000e+00
      997  1    1    2    0    0 +1.2169521907e+01 +2.5514425618e+00 +4.1616783074e+02 4.1683362444e+02 2.0000000000e+01 0.0000e+00 0.0000e+00
</event>
<event>
 5      1 +2.3375200e-06 2.09468300e+02 7.95774700e-02 4.87335500e-01
       13 -1    0    0    0    0 +0.0000000000e+00 +0.0000000000e+00 +4.9999998884e+02 5.0000000000e+02 1.0566000000e-01 0.0000e+00 1.0000e+00
      994 -1    0    0    0    0 -0.0000000000e+00 -0.0000000000e+00 +0.0000000000e+00 1.3100000000e+02 1.3100000000e+02 0.0000e+00 0.0000e+00
       13  1    1    2    0    0 +5.1287555588e+00 +3.0977532665e+01 +1.8682826267e+02 1.8944846941e+02 1.0566000000e-01 0.0000e+00 -1.0000e+00
      994  1    1    2    0    0 -1.8642397426e+01 -7.0186185600e+00 +6.1464150070e+00 1.3264832606e+02 1.3100000000e+02 0.0000e+00 0.0000e+00
      997  1    1    2    0    0 +1.3513641867e+01 -2.3958914104e+01 +3.0702531116e+02 3.0890320454e+02 2.0000000000e+01 0.0000e+00 0.0000e+00
</event>
<event>
 5      1 +2.3375200e-06 2.09877900e+02 7.95774700e-02 4.86659700e-01
       13 -1    0    0    0    0 +0.0000000000e+00 +0.0000000000e+00 +4.9999998884e+02 5.0000000000e+02 1.0566000000e-01 0.0000e+00 -1.0000e+00
      994 -1    0    0    0    0 -0.0000000000e+00 -0.0000000000e+00 +0.0000000000e+00 1.3100000000e+02 1.3100000000e+02 0.0000e+00 0.0000e+00
       13  1    1    2    0    0 +1.0614641988e+01 +1.1632435985e+01 +4.0054600329e+01 4.3039125956e+01 1.0566000000e-01 0.0000e+00 1.0000e+00
      994  1    1    2    0    0 +1.1226494392e+01 -7.9308506011e+00 +4.7672997071e+00 1.3180538576e+02 1.3100000000e+02 0.0000e+00 0.0000e+00
      997  1    1    2    0    0 -2.1841136380e+01 -3.7015853841e+00 +4.5517808880e+02 4.5615548829e+02 2.0000000000e+01 0.0000e+00 0.0000e+00
</event>
<event>
 5      1 +2.3375200e-06 2.07486600e+02 7.95774700e-02 4.90653100e-01
       13 -1    0    0    0    0 +0.0000000000e+00 +0.0000000000e+00 +4.9999998884e+02 5.0000000000e+02 1.0566000000e-01 0.0000e+00 -1.0000e+00
      994 -1    0    0    0    0 -0.0000000000e+00 -0.0000000000e+00 +0.0000000000e+00 1.3100000000e+02 1.3100000000e+02 0.0000e+00 0.0000e+00
       13  1    1    2    0    0 +2.3193815586e+01 +1.0670123742e+01 +8.1930084778e+01 8.5815817761e+01 1.0566000000e-01 0.0000e+00 1.0000e+00
      994  1    1    2    0    0 +1.7959120575e+01 -2.8682008084e+01 +1.1650721952e+01 1.3580105641e+02 1.3100000000e+02 0.0000e+00 0.0000e+00
      997  1    1    2    0    0 -4.1152936161e+01 +1.8011884342e+01 +4.0641918211e+02 4.0938312583e+02 2.0000000000e+01 0.0000e+00 0.0000e+00
</event>
<event>
 5      1 +2.3375200e-06 1.95779400e+02 7.95774700e-02 5.12038400e-01
       13 -1    0    0    0    0 +0.0000000000e+00 +0.0000000000e+00 +4.9999998884e+02 5.0000000000e+02 1.0566000000e-01 0.0000e+00 1.0000e+00
      994 -1    0    0    0    0 -0.0000000000e+00 -0.0000000000e+00 +0.0000000000e+00 1.3100000000e+02 1.3100000000e+02 0.0000e+00 0.0000e+00
       13  1    1    2    0    0 -6.1753603046e+00 +1.2637946311e+01 +8.6747768746e-02 1.4066678751e+01 1.0566000000e-01 0.0000e+00 -1.0000e+00
      994  1    1    2    0    0 +1.7678746752e+00 +1.1345786737e+01 +1.6546954956e+01 1.3253925447e+02 1.3100000000e+02 0.0000e+00 0.0000e+00
      997  1    1    2    0    0 +4.4074856295e+00 -2.3983733048e+01 +4.8336628611e+02 4.8439406678e+02 2.0000000000e+01 0.0000e+00 0.0000e+00
</event>
<event>
 5      1 +2.3375200e-06 2.07847400e+02 7.95774700e-02 4.90043100e-01
       13 -1    0    0    0    0 +0.0000000000e+00 +0.0000000000e+00 +4.9999998884e+02 5.0000000000e+02 1.0566000000e-01 0.0000e+00 -1.0000e+00
      994 -1    0    0    0    0 -0.0000000000e+00 -0.0000000000e+00 +0.0000000000e+00 1.3100000000e+02 1.3100000000e+02 0.0000e+00 0.0000e+00
       13  1    1    2    0    0 -1.4963636002e+01 -8.7256220696e+00 +2.8256132997e+01 3.3143130493e+01 1.0566000000e-01 0.0000e+00 1.0000e+00
      994  1    1    2    0    0 +1.2916655555e+00 +1.3696397990e+01 +6.4205045161e+00 1.3187677049e+02 1.3100000000e+02 0.0000e+00 0.0000e+00
      997  1    1    2    0    0 +1.3671970447e+01 -4.9707759203e+00 +4.6532335132e+02 4.6598009901e+02 2.0000000000e+01 0.0000e+00 0.0000e+00
</event>
<event>
 5      1 +2.3375200e-06 2.11872000e+02 7.95774700e-02 4.83416700e-01
       13 -1    0    0    0    0 +0.0000000000e+00 +0.0000000000e+00 +4.9999998884e+02 5.0000000000e+02 1.0566000000e-01 0.0000e+00 1.0000e+00
      994 -1    0    0    0    0 -0.0000000000e+00 -0.0000000000e+00 +0.0000000000e+00 1.3100000000e+02 1.3100000000e+02 0.0000e+00 0.0000e+00
       13  1    1    2    0    0 -1.2357801561e+01 -4.2179033577e+00 +4.8683394671e+01 5.0404266177e+01 1.0566000000e-01 0.0000e+00 -1.0000e+00
      994  1    1    2    0    0 +6.5249941064e+00 -4.1353825361e+00 +2.5338420601e+00 1.3125203729e+02 1.3100000000e+02 0.0000e+00 0.0000e+00
      997  1    1    2    0    0 +5.8328074547e+00 +8.3532858938e+00 +4.4878275211e+02 4.4934369653e+02 2.0000000000e+01 0.0000e+00 0.0000e+00
</event>
<event>
 5      1 +2.3375200e-06 2.09244400e+02 7.95774700e-02 4.87706400e-01
       13 -1    0    0    0    0 +0.0000000000e+00 +0.0000000000e+00 +4.9999998884e+02 5.0000000000e+02 1.0566000000e-01 0.0000e+00 -1.0000e+00
      994 -1    0    0    0    0 -0.0000000000e+00 -0.0000000000e+00 +0.0000000000e+00 1.3100000000e+02 1.3100000000e+02 0.0000e+00 0.0000e+00
       13  1    1    2    0    0 -3.0456516557e+01 +9.3495976963e+00 +1.3597900031e+02 1.3966142655e+02 1.0566000000e-01 0.0000e+00 1.0000e+00
      994  1    1    2    0    0 +1.6807422692e+01 -2.7409149489e+00 +5.7896730082e+00 1.3222905273e+02 1.3100000000e+02 0.0000e+00 0.0000e+00
      997  1    1    2    0    0 +1.3649093865e+01 -6.6086827474e+00 +3.5823131552e+02 3.5910952072e+02 2.0000000000e+01 0.0000e+00 0.0000e+00
</event>
<event>
 5      1 +2.3375200e-06 2.12849100e+02 7.95774700e-02 4.81855500e-01
       13 -1    0    0    0    0 +0.0000000000e+00 +0.0000000000e+00 +4.9999998884e+02 5.0000000000e+02 1.0566000000e-01 0.0000e+00 -1.0000e+00
      994 -1    0    0    0    0 -0.0000000000e+00 -0.0000000000e+00 +0.0000000000e+00 1.3100000000e+02 1.3100000000e+02 0.0000e+00 0.0000e+00
       13  1    1    2    0    0 -3.6976568535e+01 +4.1734334747e+01 +2.4421043524e+02 2.5049504817e+02 1.0566000000e-01 0.0000e+00 1.0000e+00
      994  1    1    2    0    0 +5.6775390929e+01 -5.9536503850e+01 +3.6812128130e+01 1.5900997794e+02 1.3100000000e+02 0.0000e+00 0.0000e+00
      997  1    1    2    0    0 -1.9798822394e+01 +1.7802169103e+01 +2.1897742547e+02 2.2149497389e+02 2.0000000000e+01 0.0000e+00 0.0000e+00
</event>
<event>
 5      1 +2.3375200e-06 2.11360600e+02 7.95774700e-02 4.84241000e-01
       13 -1    0    0    0    0 +0.0000000000e+00 +0.0000000000e+00 +4.9999998884e+02 5.0000000000e+02 1.0566000000e-01 0.0000e+00 -1.0000e+00
      994 -1    0    0    0    0 -0.0000000000e+00 -0.0000000000e+00 +0.0000000000e+00 1.3100000000e+02 1.3100000000e+02 0.0000e+00 0.0000e+00
       13  1    1    2    0    0 +7.3610446969e+00 -1.5017616942e+01 +5.8301654717e+01 6.0653177200e+01 1.0566000000e-01 0.0000e+00 1.0000e+00
      994  1    1    2    0    0 +3.1009398397e+00 +1.7464990075e+01 +4.2024462839e+00 1.3226224806e+02 1.3100000000e+02 0.0000e+00 0.0000e+00
      997  1    1    2    0    0 -1.0461984537e+01 -2.4473731328e+00 +4.3749588783e+02 4.3808457474e+02 2.0000000000e+01 0.0000e+00 0.0000e+00
</event>
<event>
 5      1 +2.3375200e-06 1.93365700e+02 7.95774700e-02 5.16871600e-01
       13 -1    0    0    0    0 +0.0000000000e+00 +0.0000000000e+00 +4.9999998884e+02 5.0000000000e+02 1.0566000000e-01 0.0000e+00 -1.0000e+00
      994 -1    0    0    0    0 -0.0000000000e+00 -0.0000000000e+00 +0.0000000000e+00 1.3100000000e+02 1.3100000000e+02 0.0000e+00 0.0000e+00
       13  1    1    2    0    0 -3.1938376680e+00 +1.4759443629e+01 -3.1541476736e+00 1.5427300051e+01 1.0566000000e-01 0.0000e+00 1.0000e+00
      994  1    1    2    0    0 +1.2021093836e+01 -2.4924040386e+01 +2.4258423457e+01 1.3607051699e+02 1.3100000000e+02 0.0000e+00 0.0000e+00
      997  1    1    2    0    0 -8.8272561675e+00 +1.0164596757e+01 +4.7889571305e+02 4.7950218296e+02 2.0000000000e+01 0.0000e+00 0.0000e+00
</event>
<event>
 5      1 +2.3375200e-06 2.10031200e+02 7.95774700e-02 4.86407600e-01
       13 -1    0    0    0    0 +0.0000000000e+00 +0.0000000000e+00 +4.9999998884e+02 5.0000000000e+02 1.0566000000e-01 0.0000e+00 1.0000e+00
      994 -1    0    0    0    0 -0.0000000000e+00 -0.0000000000e+00 +0.0000000000e+00 1.3100000000e+02 1.3100000000e+02 0.0000e+00 0.0000e+00
       13  1    1    2    0    0 +2.1310126357e+01 -7.1977713383e+00 +7.4178227507e+01 7.7513547189e+01 1.0566000000e-01 0.0000e+00 -1.0000e+00
      994  1    1    2    0    0 -1.6384090660e+01 -1.4370319391e+00 +5.0527135509e+00 1.3212506727e+02 1.3100000000e+02 0.0000e+00 0.0000e+00
      997  1    1    2    0    0 -4.9260356976e+00 +8.6348032774e+00 +4.2076904778e+02 4.2136138554e+02 2.0000000000e+01 0.0000e+00 0.0000e+00
</event>
<event>
 5      1 +2.3375200e-06 2.07562300e+02 7.95774700e-02 4.90525000e-01
       13 -1    0    0    0    0 +0.0000000000e+00 +0.0000000000e+00 +4.9999998884e+02 5.0000000000e+02 1.0566000000e-01 0.0000e+00 1.0000e+00
      994 -1    0    0    0    0 -0.0000000000e+00 -0.0000000000e+00 +0.0000000000e+00 1.3100000000e+02 1.3100000000e+02 0.0000e+00 0.0000e+00
       13  1    1    2    0    0 +1.8502006158e+01 +2.0397257188e+01 +8.4372568911e+01 8.8753106320e+01 1.0566000000e-01 0.0000e+00 -1.0000e+00
      994  1    1    2    0    0 -8.5868849256e+00 +2.9618466341e+00 +6.1097618328e+00 1.3145659481e+02 1.3100000000e+02 0.0000e+00 0.0000e+00
      997  1    1    2    0    0 -9.9151212327e+00 -2.3359103823e+01 +4.0951765809e+02 4.1079029887e+02 2.0000000000e+01 0.0000e+00 0.0000e+00
</event>
<event>
 5      1 +2.3375200e-06 2.09966700e+02 7.95774700e-02 4.86513700e-01
       13 -1    0    0    0    0 +0.0000000000e+00 +0.0000000000e+00 +4.9999998884e+02 5.0000000000e+02 1.0566000000e-01 0.0000e+00 1.0000e+00
      994 -1    0    0    0    0 -0.0000000000e+00 -0.0000000000e+00 +0.0000000000e+00 1.3100000000e+02 1.3100000000e+02 0.0000e+00 0.0000e+00
       13  1    1    2    0    0 -9.9443033855e+00 -5.7851156515e+00 +1.8088043057e+01 2.1437005355e+01 1.0566000000e-01 0.0000e+00 -1.0000e+00
      994  1    1    2    0    0 +1.3089525745e+00 +1.5235651537e+01 +4.9209315045e+00 1.3198126383e+02 1.3100000000e+02 0.0000e+00 0.0000e+00
      997  1    1    2    0    0 +8.6353508110e+00 -9.4505358857e+00 +4.7699101427e+02 4.7758173082e+02 2.0000000000e+01 0.0000e+00 0.0000e+00
</event>
<event>
 5      1 +2.3375200e-06 2.09470500e+02 7.95774700e-02 4.87331800e-01
       13 -1    0    0    0    0 +0.0000000000e+00 +0.0000000000e+00 +4.9999998884e+02 5.0000000000e+02 1.0566000000e-01 0.0000e+00 -1.0000e+00
      994 -1    0    0    0    0 -0.0000000000e+00 -0.0000000000e+00 +0.0000000000e+00 1.3100000000e+02 1.3100000000e+02 0.0000e+00 0.0000e+00
       13  1    1    2    0    0 -1.2275261035e+01 +8.2398847530e+00 +3.3886428638e+01 3.6971325972e+01 1.0566000000e-01 0.0000e+00 1.0000e+00
      994  1    1    2    0    0 -1.1448424494e+01 +9.8616640792e-01 +4.8102796112e+00 1.3159094854e+02 1.3100000000e+02 0.0000e+00 0.0000e+00
      997  1    1    2    0    0 +2.3723685530e+01 -9.2260511609e+00 +4.6130328059e+02 4.6243772549e+02 2.0000000000e+01 0.0000e+00 0.0000e+00
</event>
<event>
 5      1 +2.3375200e-06 2.08141500e+02 7.95774700e-02 4.89547900e-01
       13 -1    0    0    0    0 +0.0000000000e+00 +0.0000000000e+00 +4.9999998884e+02 5.0000000000e+02 1.0566000000e-01 0.0000e+00 1.0000e+00
      994 -1    0    0    0    0 -0.0000000000e+00 -0.0000000000e+00 +0.0000000000e+00 1.3100000000e+02 1.3100000000e+02 0.0000e+00 0.0000e+00
       13  1    1    2    0    0 +5.8025470651e+00 -1.1353349371e+01 +1.5183047870e+01 1.9826855552e+01 1.0566000000e-01 0.0000e+00 -1.0000e+00
      994  1    1    2    0    0 -1.0876220136e+01 -7.2014982946e-01 +5.8215362722e+00 1.3158153770e+02 1.3100000000e+02 0.0000e+00 0.0000e+00
      997  1    1    2    0    0 +5.0736730714e+00 +1.2073499201e+01 +4.7899540469e+02 4.7959160674e+02 2.0000000000e+01 0.0000e+00 0.0000e+00
</event>
<event>
 5      1 +2.3375200e-06 2.07301300e+02 7.95774700e-02 4.90967500e-01
       13 -1    0    0    0    0 +0.0000000000e+00 +0.0000000000e+00 +4.9999998884e+02 5.0000000000e+02 1.0566000000e-01 0.0000e+00 1.0000e+00
      994 -1    0    0    0    0 -0.0000000000e+00 -0.0000000000e+00 +0.0000000000e+00 1.3100000000e+02 1.3100000000e+02 0.0000e+00 0.0000e+00
       13  1    1    2    0    0 +1.9987375090e+01 -3.4969532582e+00 +6.8659736270e+01 7.1595351761e+01 1.0566000000e-01 0.0000e+00 -1.0000e+00
      994  1    1    2    0    0 +3.3536708214e+01 -1.4570030556e+01 +1.2813805948e+01 1.3660962708e+02 1.3100000000e+02 0.0000e+00 0.0000e+00
      997  1    1    2    0    0 -5.3524083304e+01 +1.8066983814e+01 +4.1852644662e+02 4.2279502116e+02 2.0000000000e+01 0.0000e+00 0.0000e+00
</event>
<event>
 5      1 +2.3375200e-06 2.11934100e+02 7.95774700e-02 4.83316900e-01
       13 -1    0    0    0    0 +0.0000000000e+00 +0.0000000000e+00 +4.9999998884e+02 5.0000000000e+02 1.0566000000e-01 0.0000e+00 1.0000e+00
      994 -1    0    0    0    0 -0.0000000000e+00 -0.0000000000e+00 +0.0000000000e+00 1.3100000000e+02 1.3100000000e+02 0.0000e+00 0.0000e+00
       13  1    1    2    0    0 -1.3572347261e+01 -6.9149346101e+00 +8.6045381645e+01 8.7383315326e+01 1.0566000000e-01 0.0000e+00 -1.0000e+00
      994  1    1    2    0    0 +6.8680942696e+00 -1.4469657951e+01 +3.4562043904e+00 1.3202078272e+02 1.3100000000e+02 0.0000e+00 0.0000e+00
      997  1    1    2    0    0 +6.7042529915e+00 +2.1384592561e+01 +4.1049840280e+02 4.1159590196e+02 2.0000000000e+01 0.0000e+00 0.0000e+00
</event>
<event>
 5      1 +2.3375200e-06 2.11996300e+02 7.95774700e-02 4.83217100e-01
       13 -1    0    0    0    0 +0.0000000000e+00 +0.0000000000e+00 +4.9999998884e+02 5.0000000000e+02 1.0566000000e-01 0.0000e+00 -1.0000e+00
      994 -1    0    0    0    0 -0.0000000000e+00 -0.0000000000e+00 +0.0000000000e+00 1.3100000000e+02 1.3100000000e+02 0.0000e+00 0.0000e+00
       13  1    1    2    0    0 +7.7298118087e+00 -8.4310672700e+00 +4.1703175125e+01 4.3243483503e+01 1.0566000000e-01 0.0000e+00 1.0000e+00
      994  1    1    2    0    0 +1.0346295201e+01 +1.0251636327e+01 +3.1874114444e+00 1.3184574875e+02 1.3100000000e+02 0.0000e+00 0.0000e+00
      997  1    1    2    0    0 -1.8076107010e+01 -1.8205690575e+00 +4.5510940227e+02 4.5591076775e+02 2.0000000000e+01 0.0000e+00 0.0000e+00
</event>
<event>
 5      1 +2.3375200e-06 2.11082100e+02 7.95774700e-02 4.84691900e-01
       13 -1    0    0    0    0 +0.0000000000e+00 +0.0000000000e+00 +4.9999998884e+02 5.0000000000e+02 1.0566000000e-01 0.0000e+00 1.0000e+00
      994 -1    0    0    0    0 -0.0000000000e+00 -0.0000000000e+00 +0.0000000000e+00 1.3100000000e+02 1.3100000000e+02 0.0000e+00 0.0000e+00
       13  1    1    2    0    0 -1.5148417571e+01 -1.3126017310e+01 +8.6172454221e+01 8.8472989753e+01 1.0566000000e-01 0.0000e+00 -1.0000e+00
      994  1    1    2    0    0 -3.4718657714e+00 +2.0536254964e+01 +5.0201192193e+00 1.3274032250e+02 1.3100000000e+02 0.0000e+00 0.0000e+00
      997  1    1    2    0    0 +1.8620283342e+01 -7.4102376540e+00 +4.0880741540e+02 4.0978668775e+02 2.0000000000e+01 0.0000e+00 0.0000e+00
</event>
<event>
 5      1 +2.3375200e-06 2.10628900e+02 7.95774700e-02 4.85429200e-01
       13 -1    0    0    0    0 +0.0000000000e+00 +0.0000000000e+00 +4.9999998884e+02 5.0000000000e+02 1.0566000000e-01 0.0000e+00 -1.0000e+00
      994 -1    0    0    0    0 -0.0000000000e+00 -0.0000000000e+00 +0.0000000000e+00 1.3100000000e+02 1.3100000000e+02 0.0000e+00 0.0000e+00
       13  1    1    2    0    0 +1.2346184804e+01 +5.8143833928e+00 +3.2695249732e+01 3.5429166693e+01 1.0566000000e-01 0.0000e+00 1.0000e+00
      994  1    1    2    0    0 -7.0730338855e+00 +2.8138784263e-01 +3.4718966991e+00 1.3123704147e+02 1.3100000000e+02 0.0000e+00 0.0000e+00
      997  1    1    2    0    0 -5.2731509186e+00 -6.0957712354e+00 +4.6383284240e+02 4.6433379184e+02 2.0000000000e+01 0.0000e+00 0.0000e+00
</event>
<event>
 5      1 +2.3375200e-06 2.07076500e+02 7.95774700e-02 4.91349800e-01
       13 -1    0    0    0    0 +0.0000000000e+00 +0.0000000000e+00 +4.9999998884e+02 5.0000000000e+02 1.0566000000e-01 0.0000e+00 -1.0000e+00
      994 -1    0    0    0    0 -0.0000000000e+00 -0.0000000000e+00 +0.0000000000e+00 1.3100000000e+02 1.3100000000e+02 0.0000e+00 0.0000e+00
       13  1    1    2    0    0 -2.7601695107e+01 +3.2175486997e+00 +5.5572742088e+01 6.2133300408e+01 1.0566000000e-01 0.0000e+00 1.0000e+00
      994  1    1    2    0    0 +3.0784682126e+01 -1.3422834621e+01 +1.1914869590e+01 1.3576020499e+02 1.3100000000e+02 0.0000e+00 0.0000e+00
      997  1    1    2    0    0 -3.1829870198e+00 +1.0205285921e+01 +4.3251237716e+02 4.3310649460e+02 2.0000000000e+01 0.0000e+00 0.0000e+00
</event>
<event>
 5      1 +2.3375200e-06 2.09083400e+02 7.95774700e-02 4.87973700e-01
       13 -1    0    0    0    0 +0.0000000000e+00 +0.0000000000e+00 +4.9999998884e+02 5.0000000000e+02 1.0566000000e-01 0.0000e+00 -1.0000e+00
      994 -1    0    0    0    0 -0.0000000000e+00 -0.0000000000e+00 +0.0000000000e+00 1.3100000000e+02 1.3100000000e+02 0.0000e+00 0.0000e+00
       13  1    1    2    0    0 +9.3650163303e+00 -5.2685602359e+00 +1.3054946346e+01 1.6908697347e+01 1.0566000000e-01 0.0000e+00 1.0000e+00
      994  1    1    2    0    0 +5.0498807659e+00 +9.4134901500e+00 +5.0328873664e+00 1.3153115619e+02 1.3100000000e+02 0.0000e+00 0.0000e+00
      997  1    1    2    0    0 -1.4414897096e+01 -4.1449299141e+00 +4.8191215512e+02 4.8256014647e+02 2.0000000000e+01 0.0000e+00 0.0000e+00
</event>
<event>
 5      1 +2.3375200e-06 2.10352800e+02 7.95774700e-02 4.85880400e-01
       13 -1    0    0    0    0 +0.0000000000e+00 +0.0000000000e+00 +4.9999998884e+02 5.0000000000e+02 1.0566000000e-01 0.0000e+00 -1.0000e+00
      994 -1    0    0    0    0 -0.0000000000e+00 -0.0000000000e+00 +0.0000000000e+00 1.3100000000e+02 1.3100000000e+02 0.0000e+00 0.0000e+00
       13  1    1    2    0    0 +1.1507027172e+01 +7.5444067535e+00 +2.4206847680e+01 2.7844431871e+01 1.0566000000e-01 0.0000e+00 1.0000e+00
      994  1    1    2    0    0 -2.3778466364e+01 -1.9167072583e+01 +8.1286332435e+00 1.3475855005e+02 1.3100000000e+02 0.0000e+00 0.0000e+00
      997  1    1    2    0    0 +1.2271439192e+01 +1.1622665830e+01 +4.6766450791e+02 4.6839701808e+02 2.0000000000e+01 0.0000e+00 0.0000e+00
</event>
<event>
 5      1 +2.3375200e-06 2.07087700e+02 7.95774700e-02 4.91330700e-01
       13 -1    0    0    0    0 +0.0000000000e+00 +0.0000000000e+00 +4.9999998884e+02 5.0000000000e+02 1.0566000000e-01 0.0000e+00 1.0000e+00
      994 -1    0    0    0    0 -0.0000000000e+00 -0.0000000000e+00 +0.0000000000e+00 1.3100000000e+02 1.3100000000e+02 0.0000e+00 0.0000e+00
       13  1    1    2    0    0 -2.3478941097e+01 -2.8340669993e+00 +4.5527747890e+01 5.1303797157e+01 1.0566000000e-01 0.0000e+00 -1.0000e+00
      994  1    1    2    0    0 +1.7242710450e+01 +3.8723529021e+00 +7.6775338067e+00 1.3240940566e+02 1.3100000000e+02 0.0000e+00 0.0000e+00
      997  1    1    2    0    0 +6.2362306468e+00 -1.0382859028e+00 +4.4679470714e+02 4.4728679719e+02 2.0000000000e+01 0.0000e+00 0.0000e+00
</event>
<event>
 5      1 +2.3375200e-06 2.08424400e+02 7.95774700e-02 4.89073200e-01
       13 -1    0    0    0    0 +0.0000000000e+00 +0.0000000000e+00 +4.9999998884e+02 5.0000000000e+02 1.0566000000e-01 0.0000e+00 1.0000e+00
      994 -1    0    0    0    0 -0.0000000000e+00 -0.0000000000e+00 +0.0000000000e+00 1.3100000000e+02 1.3100000000e+02 0.0000e+00 0.0000e+00
       13  1    1    2    0    0 +1.6998573096e+01 -1.1473751482e+01 +4.3349714166e+01 4.7956306600e+01 1.0566000000e-01 0.0000e+00 -1.0000e+00
      994  1    1    2    0    0 -8.3824033054e+00 +1.2530236092e+01 +6.1413779908e+00 1.3200753018e+02 1.3100000000e+02 0.0000e+00 0.0000e+00
      997  1    1    2    0    0 -8.6161697910e+00 -1.0564846096e+00 +4.5050889668e+02 4.5103616322e+02 2.0000000000e+01 0.0000e+00 0.0000e+00
</event>
<event>
 5      1 +2.3375200e-06 2.09717100e+02 7.95774700e-02 4.86924600e-01
       13 -1    0    0    0    0 +0.0000000000e+00 +0.0000000000e+00 +4.9999998884e+02 5.0000000000e+02 1.0566000000e-01 0.0000e+00 -1.0000e+00
      994 -1    0    0    0    0 -0.0000000000e+00 -0.0000000000e+00 +0.0000000000e+00 1.3100000000e+02 1.3100000000e+02 0.0000e+00 0.0000e+00
       13  1    1    2    0    0 +5.1006604363e+01 +4.1445418998e+00 +2.5788851881e+02 2.6291700252e+02 1.0566000000e-01 0.0000e+00 1.0000e+00
      994  1    1    2    0    0 -4.4408344704e+01 -1.1687848038e+01 +1.4719838169e+01 1.3959362631e+02 1.3100000000e+02 0.0000e+00 0.0000e+00
      997  1    1    2    0    0 -6.5982596587e+00 +7.5433061387e+00 +2.2739163186e+02 2.2848937117e+02 2.0000000000e+01 0.0000e+00 0.0000e+00
</event>
<event>
 5      1 +2.3375200e-06 2.08020400e+02 7.95774700e-02 4.89751500e-01
       13 -1    0    0    0    0 +0.0000000000e+00 +0.0000000000e+00 +4.9999998884e+02 5.0000000000e+02 1.0566000000e-01 0.0000e+00 1.0000e+00
      994 -1    0    0    0    0 -0.0000000000e+00 -0.0000000000e+00 +0.0000000000e+00 1.3100000000e+02 1.3100000000e+02 0.0000e+00 0.0000e+00
       13  1    1    2    0    0 +5.3816025260e+00 -1.5137563823e+01 +2.7467028740e+01 3.1820690063e+01 1.0566000000e-01 0.0000e+00 -1.0000e+00
      994  1    1    2    0    0 -1.2802921307e+00 -5.1238801207e+00 +5.4584807808e+00 1.3121999965e+02 1.3100000000e+02 0.0000e+00 0.0000e+00
      997  1    1    2    0    0 -4.1013103953e+00 +2.0261443944e+01 +4.6707447931e+02 4.6795931029e+02 2.0000000000e+01 0.0000e+00 0.0000e+00
</event>
<event>
 5      1 +2.3375200e-06 2.12268000e+02 7.95774700e-02 4.82781800e-01
       13 -1    0    0    0    0 +0.0000000000e+00 +0.0000000000e+00 +4.9999998884e+02 5.0000000000e+02 1.0566000000e-01 0.0000e+00 1.0000e+00
      994 -1    0    0    0    0 -0.0000000000e+00 -0.0000000000e+00 +0.0000000000e+00 1.3100000000e+02 1.3100000000e+02 0.0000e+00 0.0000e+00
       13  1    1    2    0    0 +1.2609316850e+01 +1.0526681092e+01 +7.0293774640e+01 7.2187476777e+01 1.0566000000e-01 0.0000e+00 -1.0000e+00
      994  1    1    2    0    0 -2.2789282127e+01 -7.1659294813e+00 +4.7440255614e+00 1.3324491624e+02 1.3100000000e+02 0.0000e+00 0.0000e+00
      997  1    1    2    0    0 +1.0179965277e+01 -3.3607516108e+00 +4.2496218863e+02 4.2556760698e+02 2.0000000000e+01 0.0000e+00 0.0000e+00
</event>
<event>
 5      1 +2.3375200e-06 2.08452800e+02 7.95774700e-02 4.89025500e-01
       13 -1    0    0    0    0 +0.0000000000e+00 +0.0000000000e+00 +4.9999998884e+02 5.0000000000e+02 1.0566000000e-01 0.0000e+00 -1.0000e+00
      994 -1    0    0    0    0 -0.0000000000e+00 -0.0000000000e+00 +0.0000000000e+00 1.3100000000e+02 1.3100000000e+02 0.0000e+00 0.0000e+00
       13  1    1    2    0    0 +2.2360997400e+01 +2.6155234798e+00 +7.3039215673e+01 7.6430317008e+01 1.0566000000e-01 0.0000e+00 1.0000e+00
      994  1    1    2    0    0 +6.4798015738e+00 +8.1005743213e+00 +5.5112784723e+00 1.3152559189e+02 1.3100000000e+02 0.0000e+00 0.0000e+00
      997  1    1    2    0    0 -2.8840798974e+01 -1.0716097801e+01 +4.2144949469e+02 4.2304409110e+02 2.0000000000e+01 0.0000e+00 0.0000e+00
</event>
<event>
 5      1 +2.3375200e-06 2.11633400e+02 7.95774700e-02 4.83800700e-01
       13 -1    0    0    0    0 +0.0000000000e+00 +0.0000000000e+00 +4.9999998884e+02 5.0000000000e+02 1.0566000000e-01 0.0000e+00 -1.0000e+00
      994 -1    0    0    0    0 -0.0000000000e+00 -0.0000000000e+00 +0.0000000000e+00 1.3100000000e+02 1.3100000000e+02 0.0000e+00 0.0000e+00
       13  1    1    2    0    0 -5.4680872053e+00 +1.0980597553e+01 +4.6187989958e+01 4.7789277884e+01 1.0566000000e-01 0.0000e+00 1.0000e+00
      994  1    1    2    0    0 +1.7615593363e+00 +8.6069992105e+00 +2.8087581199e+00 1.3132430334e+02 1.3100000000e+02 0.0000e+00 0.0000e+00
      997  1    1    2    0    0 +3.7065278690e+00 -1.9587596763e+01 +4.5100324076e+02 4.5188641877e+02 2.0000000000e+01 0.0000e+00 0.0000e+00
</event>
<event>
 5      1 +2.3375200e-06 1.92790600e+02 7.95774700e-02 5.18046900e-01
       13 -1    0    0    0    0 +0.0000000000e+00 +0.0000000000e+00 +4.9999998884e+02 5.0000000000e+02 1.0566000000e-01 0.0000e+00 1.0000e+00
      994 -1    0    0    0    0 -0.0000000000e+00 -0.0000000000e+00 +0.0000000000e+00 1.3100000000e+02 1.3100000000e+02 0.0000e+00 0.0000e+00
       13  1    1    2    0    0 +4.9511883104e-01 +1.6737158055e+01 -6.2407621017e-01 1.6756438690e+01 1.0566000000e-01 0.0000e+00 -1.0000e+00
      994  1    1    2    0    0 +2.0992005747e+01 -6.9892302878e+00 +2.2051964990e+01 1.3467294756e+02 1.3100000000e+02 0.0000e+00 0.0000e+00
      997  1    1    2    0    0 -2.1487124578e+01 -9.7479277670e+00 +4.7857210006e+02 4.7957061375e+02 2.0000000000e+01 0.0000e+00 0.0000e+00
</event>
<event>
 5      1 +2.3375200e-06 2.11192200e+02 7.95774700e-02 4.84513500e-01
       13 -1    0    0    0    0 +0.0000000000e+00 +0.0000000000e+00 +4.9999998884e+02 5.0000000000e+02 1.0566000000e-01 0.0000e+00 1.0000e+00
      994 -1    0    0    0    0 -0.0000000000e+00 -0.0000000000e+00 +0.0000000000e+00 1.3100000000e+02 1.3100000000e+02 0.0000e+00 0.0000e+00
       13  1    1    2    0    0 +7.8695614111e+00 -2.8289596751e+01 +9.6030032601e+01 1.0041916952e+02 1.0566000000e-01 0.0000e+00 -1.0000e+00
      994  1    1    2    0    0 +4.0563831866e+01 +8.4647217739e+01 +5.0578367103e+01 1.6890751062e+02 1.3100000000e+02 0.0000e+00 0.0000e+00
      997  1    1    2    0    0 -4.8433393277e+01 -5.6357620988e+01 +3.5339158913e+02 3.6167331986e+02 2.0000000000e+01 0.0000e+00 0.0000e+00
</event>
<event>
 5      1 +2.3375200e-06 2.06568200e+02 7.95774700e-02 4.92218300e-01
       13 -1    0    0    0    0 +0.0000000000e+00 +0.0000000000e+00 +4.9999998884e+02 5.0000000000e+02 1.0566000000e-01 0.0000e+00 1.0000e+00
      994 -1    0    0    0    0 -0.0000000000e+00 -0.0000000000e+00 +0.0000000000e+00 1.3100000000e+02 1.3100000000e+02 0.0000e+00 0.0000e+00
       13  1    1    2    0    0 -1.5465296086e+01 +1.0174415073e+01 +2.2543307396e+01 2.9170292722e+01 1.0566000000e-01 0.0000e+00 -1.0000e+00
      994  1    1    2    0    0 -7.9468478162e+00 -6.0685443865e+01 +2.6488816232e+01 1.4699841112e+02 1.3100000000e+02 0.0000e+00 0.0000e+00
      997  1    1    2    0    0 +2.3412143902e+01 +5.0511028793e+01 +4.5096786521e+02 4.5483129616e+02 2.0000000000e+01 0.0000e+00 0.0000e+00
</event>
<event>
 5      1 +2.3375200e-06 2.07592100e+02 7.95774700e-02 4.90474600e-01
       13 -1    0    0    0    0 +0.0000000000e+00 +0.0000000000e+00 +4.9999998884e+02 5.0000000000e+02 1.0566000000e-01 0.0000e+00 1.0000e+00
      994 -1    0    0    0    0 -0.0000000000e+00 -0.0000000000e+00 +0.0000000000e+00 1.3100000000e+02 1.3100000000e+02 0.0000e+00 0.0000e+00
       13  1    1    2    0    0 +1.8669840598e+01 -2.8741560380e+01 +1.2422614371e+02 1.2886732008e+02 1.0566000000e-01 0.0000e+00 -1.0000e+00
      994  1    1    2    0    0 +5.7078587644e+00 +2.1409329620e+01 +8.1758492814e+00 1.3311192117e+02 1.3100000000e+02 0.0000e+00 0.0000e+00
      997  1    1    2    0    0 -2.4377699362e+01 +7.3322307599e+00 +3.6759799585e+02 3.6902075875e+02 2.0000000000e+01 0.0000e+00 0.0000e+00
</event>
<event>
 5      1 +2.3375200e-06 2.10154800e+02 7.95774700e-02 4.86204700e-01
       13 -1    0    0    0    0 +0.0000000000e+00 +0.0000000000e+00 +4.9999998884e+02 5.0000000000e+02 1.0566000000e-01 0.0000e+00 1.0000e+00
      994 -1    0    0    0    0 -0.0000000000e+00 -0.0000000000e+00 +0.0000000000e+00 1.3100000000e+02 1.3100000000e+02 0.0000e+00 0.0000e+00
       13  1    1    2    0    0 +5.0587423472e-01 +1.6926953330e+01 +3.7249465817e+01 4.0918351940e+01 1.0566000000e-01 0.0000e+00 -1.0000e+00
      994  1    1    2    0    0 +2.1350993374e+00 -2.4413757028e+01 +6.6127143636e+00 1.3343656985e+02 1.3100000000e+02 0.0000e+00 0.0000e+00
      997  1    1    2    0    0 -2.6409735721e+00 +7.4868036980e+00 +4.5613780866e+02 4.5664507821e+02 2.0000000000e+01 0.0000e+00 0.0000e+00
</event>
<event>
 5      1 +2.3375200e-06 2.03682500e+02 7.95774700e-02 4.97254000e-01
       13 -1    0    0    0    0 +0.0000000000e+00 +0.0000000000e+00 +4.9999998884e+02 5.0000000000e+02 1.0566000000e-01 0.0000e+00 1.0000e+00
      994 -1    0    0    0    0 -0.0000000000e+00 -0.0000000000e+00 +0.0000000000e+00 1.3100000000e+02 1.3100000000e+02 0.0000e+00 0.0000e+00
       13  1    1    2    0    0 +9.4001640489e+00 +2.9256106420e+01 +4.4180176354e+01 5.3816187098e+01 1.0566000000e-01 0.0000e+00 -1.0000e+00
      994  1    1    2    0    0 -3.4409534430e+00 -3.8094235413e+01 +1.6709423521e+01 1.3748896598e+02 1.3100000000e+02 0.0000e+00 0.0000e+00
      997  1    1    2    0    0 -5.9592106059e+00 +8.8381289930e+00 +4.3911038896e+02 4.3969484692e+02 2.0000000000e+01 0.0000e+00 0.0000e+00
</event>
<event>
 5      1 +2.3375200e-06 2.04478800e+02 7.95774700e-02 4.95846100e-01
       13 -1    0    0    0    0 +0.0000000000e+00 +0.0000000000e+00 +4.9999998884e+02 5.0000000000e+02 1.0566000000e-01 0.0000e+00 -1.0000e+00
      994 -1    0    0    0    0 -0.0000000000e+00 -0.0000000000e+00 +0.0000000000e+00 1.3100000000e+02 1.3100000000e+02 0.0000e+00 0.0000e+00
       13  1    1    2    0    0 +1.2194916164e+01 +5.0573818940e+00 +5.9836336927e+00 1.4495107039e+01 1.0566000000e-01 0.0000e+00 1.0000e+00
      994  1    1    2    0    0 -4.7213602184e+01 +2.1229162298e+01 +2.2626047535e+01 1.4266302811e+02 1.3100000000e+02 0.0000e+00 0.0000e+00
      997  1    1    2    0    0 +3.5018686020e+01 -2.6286544192e+01 +4.7139030761e+02 4.7384186485e+02 2.0000000000e+01 0.0000e+00 0.0000e+00
</event>
<event>
 5      1 +2.3375200e-06 2.06990300e+02 7.95774700e-02 4.91496700e-01
       13 -1    0    0    0    0 +0.0000000000e+00 +0.0000000000e+00 +4.9999998884e+02 5.0000000000e+02 1.0566000000e-01 0.0000e+00 -1.0000e+00
      994 -1    0    0    0    0 -0.0000000000e+00 -0.0000000000e+00 +0.0000000000e+00 1.3100000000e+02 1.3100000000e+02 0.0000e+00 0.0000e+00
       13  1    1    2    0    0 -2.4755146451e+01 +2.3335102134e+01 +7.0963270328e+01 7.8696513056e+01 1.0566000000e-01 0.0000e+00 1.0000e+00
      994  1    1    2    0    0 +3.5943078490e+01 -3.0679707893e+01 +1.7837380382e+01 1.4040057516e+02 1.3100000000e+02 0.0000e+00 0.0000e+00
      997  1    1    2    0    0 -1.1187932039e+01 +7.3446057589e+00 +4.1119933813e+02 4.1190291178e+02 2.0000000000e+01 0.0000e+00 0.0000e+00
</event>
<event>
 5      1 +2.3375200e-06 2.06915600e+02 7.95774700e-02 4.91624100e-01
       13 -1    0    0    0    0 +0.0000000000e+00 +0.0000000000e+00 +4.9999998884e+02 5.0000000000e+02 1.0566000000e-01 0.0000e+00 1.0000e+00
      994 -1    0    0    0    0 -0.0000000000e+00 -0.0000000000e+00 +0.0000000000e+00 1.3100000000e+02 1.3100000000e+02 0.0000e+00 0.0000e+00
       13  1    1    2    0    0 +3.6123613161e+01 +3.1716268320e+00 +1.0503767704e+02 1.1112110243e+02 1.0566000000e-01 0.0000e+00 -1.0000e+00
      994  1    1    2    0    0 -2.5325326211e+01 -1.2969523773e+00 +9.5292145962e+00 1.3377167175e+02 1.3100000000e+02 0.0000e+00 0.0000e+00
      997  1    1    2    0    0 -1.0798286950e+01 -1.8746744547e+00 +3.8543309720e+02 3.8610722581e+02 2.0000000000e+01 0.0000e+00 0.0000e+00
</event>
<event>
 5      1 +2.3375200e-06 2.13044500e+02 7.95774700e-02 4.81545500e-01
       13 -1    0    0    0    0 +0.0000000000e+00 +0.0000000000e+00 +4.9999998884e+02 5.0000000000e+02 1.0566000000e-01 0.0000e+00 1.0000e+00
      994 -1    0    0    0    0 -0.0000000000e+00 -0.0000000000e+00 +0.0000000000e+00 1.3100000000e+02 1.3100000000e+02 0.0000e+00 0.0000e+00
       13  1    1    2    0    0 -9.8492308137e+00 -5.6234396266e+00 +6.6522046119e+01 6.7482028754e+01 1.0566000000e-01 0.0000e+00 -1.0000e+00
      994  1    1    2    0    0 +8.3221310392e+00 +6.3883396557e+00 +1.8590570683e+00 1.3143258668e+02 1.3100000000e+02 0.0000e+00 0.0000e+00
      997  1    1    2    0    0 +1.5270997745e+00 -7.6490002906e-01 +4.3161888565e+02 4.3208538456e+02 2.0000000000e+01 0.0000e+00 0.0000e+00
</event>
<event>
 5      1 +2.3375200e-06 2.09716200e+02 7.95774700e-02 4.86926100e-01
       13 -1    0    0    0    0 +0.0000000000e+00 +0.0000000000e+00 +4.9999998884e+02 5.0000000000e+02 1.0566000000e-01 0.0000e+00 -1.0000e+00
      994 -1    0    0    0    0 -0.0000000000e+00 -0.0000000000e+00 +0.0000000000e+00 1.3100000000e+02 1.3100000000e+02 0.0000e+00 0.0000e+00
       13  1    1    2    0    0 -1.1487039466e+01 -8.0568303186e+00 +2.5258253615e+01 2.8893859732e+01 1.0566000000e-01 0.0000e+00 1.0000e+00
      994  1    1    2    0    0 +5.1121525831e+00 +1.5201141523e+01 +5.2410079605e+00 1.3208208422e+02 1.3100000000e+02 0.0000e+00 0.0000e+00
      997  1    1    2    0    0 +6.3748868831e+00 -7.1443112044e+00 +4.6950072726e+02 4.7002405605e+02 2.0000000000e+01 0.0000e+00 0.0000e+00
</event>
<event>
 5      1 +2.3375200e-06 2.04349300e+02 7.95774700e-02 4.96074100e-01
       13 -1    0    0    0    0 +0.0000000000e+00 +0.0000000000e+00 +4.9999998884e+02 5.0000000000e+02 1.0566000000e-01 0.0000e+00 1.0000e+00
      994 -1    0    0    0    0 -0.0000000000e+00 -0.0000000000e+00 +0.0000000000e+00 1.3100000000e+02 1.3100000000e+02 0.0000e+00 0.0000e+00
       13  1    1    2    0    0 +2.2931859185e-01 -2.1730415975e+01 +2.8482473773e+01 3.5826331681e+01 1.0566000000e-01 0.0000e+00 -1.0000e+00
      994  1    1    2    0    0 +5.5089547752e+00 +4.5008658678e+00 +8.6064389570e+00 1.3147500587e+02 1.3100000000e+02 0.0000e+00 0.0000e+00
      997  1    1    2    0    0 -5.7382733670e+00 +1.7229550107e+01 +4.6291107611e+02 4.6369866245e+02 2.0000000000e+01 0.0000e+00 0.0000e+00
</event>
<event>
 5      1 +2.3375200e-06 2.06572000e+02 7.95774700e-02 4.92211800e-01
       13 -1    0    0    0    0 +0.0000000000e+00 +0.0000000000e+00 +4.9999998884e+02 5.0000000000e+02 1.0566000000e-01 0.0000e+00 -1.0000e+00
      994 -1    0    0    0    0 -0.0000000000e+00 -0.0000000000e+00 +0.0000000000e+00 1.3100000000e+02 1.3100000000e+02 0.0000e+00 0.0000e+00
       13  1    1    2    0    0 -1.8096027798e+01 -1.1053423701e+01 +3.5371190764e+01 4.1240474023e+01 1.0566000000e-01 0.0000e+00 1.0000e+00
      994  1    1    2    0    0 +7.5618171055e+00 +6.7400744628e+00 +7.0263416403e+00 1.3157879449e+02 1.3100000000e+02 0.0000e+00 0.0000e+00
      997  1    1    2    0    0 +1.0534210692e+01 +4.3133492383e+00 +4.5760245643e+02 4.5818073149e+02 2.0000000000e+01 0.0000e+00 0.0000e+00
</event>
<event>
 5      1 +2.3375200e-06 2.09923600e+02 7.95774700e-02 4.86584400e-01
       13 -1    0    0    0    0 +0.0000000000e+00 +0.0000000000e+00 +4.9999998884e+02 5.0000000000e+02 1.0566000000e-01 0.0000e+00 -1.0000e+00
      994 -1    0    0    0    0 -0.0000000000e+00 -0.0000000000e+00 +0.0000000000e+00 1.3100000000e+02 1.3100000000e+02 0.0000e+00 0.0000e+00
       13  1    1    2    0    0 -2.1769299319e+01 +3.5880443207e+00 +1.0148574410e+02 1.0385636175e+02 1.0566000000e-01 0.0000e+00 1.0000e+00
      994  1    1    2    0    0 -6.5622924585e-01 +1.5667851834e+01 +5.0163024426e+00 1.3203058550e+02 1.3100000000e+02 0.0000e+00 0.0000e+00
      997  1    1    2    0    0 +2.2425528565e+01 -1.9255896155e+01 +3.9349794229e+02 3.9511305275e+02 2.0000000000e+01 0.0000e+00 0.0000e+00
</event>
<event>
 5      1 +2.3375200e-06 2.09160900e+02 7.95774700e-02 4.87844900e-01
       13 -1    0    0    0    0 +0.0000000000e+00 +0.0000000000e+00 +4.9999998884e+02 5.0000000000e+02 1.0566000000e-01 0.0000e+00 1.0000e+00
      994 -1    0    0    0    0 -0.0000000000e+00 -0.0000000000e+00 +0.0000000000e+00 1.3100000000e+02 1.3100000000e+02 0.0000e+00 0.0000e+00
       13  1    1    2    0    0 -9.9089740329e-01 +2.0383698879e+01 +5.6334194730e+01 5.9916856706e+01 1.0566000000e-01 0.0000e+00 -1.0000e+00
      994  1    1    2    0    0 +3.4128431339e+00 -3.9711174223e+00 +4.5337855821e+00 1.3118297330e+02 1.3100000000e+02 0.0000e+00 0.0000e+00
      997  1    1    2    0    0 -2.4219457306e+00 -1.6412581457e+01 +4.3913200852e+02 4.3990016999e+02 2.0000000000e+01 0.0000e+00 0.0000e+00
</event>
<event>
 5      1 +2.3375200e-06 2.03010000e+02 7.95774700e-02 4.98454000e-01
       13 -1    0    0    0    0 +0.0000000000e+00 +0.0000000000e+00 +4.9999998884e+02 5.0000000000e+02 1.0566000000e-01 0.0000e+00 1.0000e+00
      994 -1    0    0    0    0 -0.0000000000e+00 -0.0000000000e+00 +0.0000000000e+00 1.3100000000e+02 1.3100000000e+02 0.0000e+00 0.0000e+00
       13  1    1    2    0    0 -3.1916080294e+01 +1.9933350025e+01 +6.0633900102e+01 7.1361443583e+01 1.0566000000e-01 0.0000e+00 -1.0000e+00
      994  1    1    2    0    0 +3.3262927446e+01 -2.8881811312e+01 +1.9941266461e+01 1.3963966297e+02 1.3100000000e+02 0.0000e+00 0.0000e+00
      997  1    1    2    0    0 -1.3468471524e+00 +8.9484612874e+00 +4.1942482227e+02 4.1999889345e+02 2.0000000000e+01 0.0000e+00 0.0000e+00
</event>
<event>
 5      1 +2.3375200e-06 1.99213600e+02 7.95774700e-02 5.05426100e-01
       13 -1    0    0    0    0 +0.0000000000e+00 +0.0000000000e+00 +4.9999998884e+02 5.0000000000e+02 1.0566000000e-01 0.0000e+00 1.0000e+00
      994 -1    0    0    0    0 -0.0000000000e+00 -0.0000000000e+00 +0.0000000000e+00 1.3100000000e+02 1.3100000000e+02 0.0000e+00 0.0000e+00
       13  1    1    2    0    0 +1.2991989811e+01 +5.3342854398e-01 +1.2975539060e+00 1.3067943810e+01 1.0566000000e-01 0.0000e+00 -1.0000e+00
      994  1    1    2    0    0 -6.8315812364e+00 +2.7120668022e+01 +1.7050288395e+01 1.3503300882e+02 1.3100000000e+02 0.0000e+00 0.0000e+00
      997  1    1    2    0    0 -6.1604085744e+00 -2.7654096566e+01 +4.8165214653e+02 4.8289904737e+02 2.0000000000e+01 0.0000e+00 0.0000e+00
</event>
<event>
 5      1 +2.3375200e-06 2.11498800e+02 7.95774700e-02 4.84017700e-01
       13 -1    0    0    0    0 +0.0000000000e+00 +0.0000000000e+00 +4.9999998884e+02 5.0000000000e+02 1.0566000000e-01 0.0000e+00 1.0000e+00
      994 -1    0    0    0    0 -0.0000000000e+00 -0.0000000000e+00 +0.0000000000e+00 1.3100000000e+02 1.3100000000e+02 0.0000e+00 0.0000e+00
       13  1    1    2    0    0 -1.8370458868e+00 -1.9005893053e+01 +5.6211659056e+01 5.9366324513e+01 1.0566000000e-01 0.0000e+00 -1.0000e+00
      994  1    1    2    0    0 -3.0029791746e+01 +4.5195684390e+01 +1.7479140732e+01 1.4286692634e+02 1.3100000000e+02 0.0000e+00 0.0000e+00
      997  1    1    2    0    0 +3.1866837633e+01 -2.6189791336e+01 +4.2630918905e+02 4.2876674915e+02 2.0000000000e+01 0.0000e+00 0.0000e+00
</event>
<event>
 5      1 +2.3375200e-06 2.01977200e+02 7.95774700e-02 5.00317100e-01
       13 -1    0    0    0    0 +0.0000000000e+00 +0.0000000000e+00 +4.9999998884e+02 5.0000000000e+02 1.0566000000e-01 0.0000e+00 -1.0000e+00
      994 -1    0    0    0    0 -0.0000000000e+00 -0.0000000000e+00 +0.0000000000e+00 1.3100000000e+02 1.3100000000e+02 0.0000e+00 0.0000e+00
       13  1    1    2    0    0 +1.3701465138e+01 +1.0566446751e+01 +1.0383748599e+01 2.0179527816e+01 1.0566000000e-01 0.0000e+00 1.0000e+00
      994  1    1    2    0    0 -7.3679354499e+00 -1.6106023266e+01 +1.2026191498e+01 1.3273778565e+02 1.3100000000e+02 0.0000e+00 0.0000e+00
      997  1    1    2    0    0 -6.3335296879e+00 +5.5395765152e+00 +4.7759004874e+02 4.7808268653e+02 2.0000000000e+01 0.0000e+00 0.0000e+00
</event>
<event>
 5      1 +2.3375200e-06 2.10411800e+02 7.95774700e-02 4.85783700e-01
       13 -1    0    0    0    0 +0.0000000000e+00 +0.0000000000e+00 +4.9999998884e+02 5.0000000000e+02 1.0566000000e-01 0.0000e+00 1.0000e+00
      994 -1    0    0    0    0 -0.0000000000e+00 -0.0000000000e+00 +0.0000000000e+00 1.3100000000e+02 1.3100000000e+02 0.0000e+00 0.0000e+00
       13  1    1    2    0    0 -1.1181221171e+01 +1.4745932284e+01 +4.0572618020e+01 4.4593841759e+01 1.0566000000e-01 0.0000e+00 -1.0000e+00
      994  1    1    2    0    0 +3.2813879559e+01 -2.3957833295e+01 +1.1741652258e+01 1.3765752746e+02 1.3100000000e+02 0.0000e+00 0.0000e+00
      997  1    1    2    0    0 -2.1632658388e+01 +9.2119010109e+00 +4.4768571856e+02 4.4874863078e+02 2.0000000000e+01 0.0000e+00 0.0000e+00
</event>
<event>
 5      1 +2.3375200e-06 2.08509900e+02 7.95774700e-02 4.88930000e-01
       13 -1    0    0    0    0 +0.0000000000e+00 +0.0000000000e+00 +4.9999998884e+02 5.0000000000e+02 1.0566000000e-01 0.0000e+00 -1.0000e+00
      994 -1    0    0    0    0 -0.0000000000e+00 -0.0000000000e+00 +0.0000000000e+00 1.3100000000e+02 1.3100000000e+02 0.0000e+00 0.0000e+00
       13  1    1    2    0    0 -2.2487460076e+01 +4.5107347593e+00 +5.5747722440e+01 6.0281442501e+01 1.0566000000e-01 0.0000e+00 1.0000e+00
      994  1    1    2    0    0 +1.0024873730e+01 -3.7968617282e+01 +1.2830167780e+01 1.3735984565e+02 1.3100000000e+02 0.0000e+00 0.0000e+00
      997  1    1    2    0    0 +1.2462586346e+01 +3.3457882522e+01 +4.3142209862e+02 4.3335871185e+02 2.0000000000e+01 0.0000e+00 0.0000e+00
</event>
<event>
 5      1 +2.3375200e-06 2.02118600e+02 7.95774700e-02 5.00060600e-01
       13 -1    0    0    0    0 +0.0000000000e+00 +0.0000000000e+00 +4.9999998884e+02 5.0000000000e+02 1.0566000000e-01 0.0000e+00 1.0000e+00
      994 -1    0    0    0    0 -0.0000000000e+00 -0.0000000000e+00 +0.0000000000e+00 1.3100000000e+02 1.3100000000e+02 0.0000e+00 0.0000e+00
       13  1    1    2    0    0 -2.2119282476e+01 -3.1190352390e+01 +5.8143630739e+01 6.9590183927e+01 1.0566000000e-01 0.0000e+00 -1.0000e+00
      994  1    1    2    0    0 +2.4093446276e+01 +3.6095707541e+01 +2.0464578538e+01 1.3951054882e+02 1.3100000000e+02 0.0000e+00 0.0000e+00
      997  1    1    2    0    0 -1.9741638001e+00 -4.9053551515e+00 +4.2139177956e+02 4.2189926726e+02 2.0000000000e+01 0.0000e+00 0.0000e+00
</event>
<event>
 5      1 +2.3375200e-06 2.04379900e+02 7.95774700e-02 4.96020300e-01
       13 -1    0    0    0    0 +0.0000000000e+00 +0.0000000000e+00 +4.9999998884e+02 5.0000000000e+02 1.0566000000e-01 0.0000e+00 1.0000e+00
      994 -1    0    0    0    0 -0.0000000000e+00 -0.0000000000e+00 +0.0000000000e+00 1.3100000000e+02 1.3100000000e+02 0.0000e+00 0.0000e+00
       13  1    1    2    0    0 +3.5645633479e+01 +1.9151507941e+00 +9.2598564802e+01 9.9241041692e+01 1.0566000000e-01 0.0000e+00 -1.0000e+00
      994  1    1    2    0    0 -7.4488617188e+00 -1.5925706505e+01 +9.9364386860e+00 1.3254752537e+02 1.3100000000e+02 0.0000e+00 0.0000e+00
      997  1    1    2    0    0 -2.8196771760e+01 +1.4010555711e+01 +3.9746498535e+02 3.9921143294e+02 2.0000000000e+01 0.0000e+00 0.0000e+00
</event>
<event>
 5      1 +2.3375200e-06 1.81216000e+02 7.95774700e-02 5.43866400e-01
       13 -1    0    0    0    0 +0.0000000000e+00 +0.0000000000e+00 +4.9999998884e+02 5.0000000000e+02 1.0566000000e-01 0.0000e+00 -1.0000e+00
      994 -1    0    0    0    0 -0.0000000000e+00 -0.0000000000e+00 +0.0000000000e+00 1.3100000000e+02 1.3100000000e+02 0.0000e+00 0.0000e+00
       13  1    1    2    0    0 -1.0338835984e+02 -4.2782315563e+01 +1.8479908712e+02 2.1603285222e+02 1.0566000000e-01 0.0000e+00 1.0000e+00
      994  1    1    2    0    0 +1.1980488434e+02 +2.9038641885e+01 +1.1693668619e+02 2.1454985810e+02 1.3100000000e+02 0.0000e+00 0.0000e+00
      997  1    1    2    0    0 -1.6416524501e+01 +1.3743673679e+01 +1.9826421553e+02 2.0041728968e+02 2.0000000000e+01 0.0000e+00 0.0000e+00
</event>
<event>
 5      1 +2.3375200e-06 2.11668900e+02 7.95774700e-02 4.83743400e-01
       13 -1    0    0    0    0 +0.0000000000e+00 +0.0000000000e+00 +4.9999998884e+02 5.0000000000e+02 1.0566000000e-01 0.0000e+00 1.0000e+00
      994 -1    0    0    0    0 -0.0000000000e+00 -0.0000000000e+00 +0.0000000000e+00 1.3100000000e+02 1.3100000000e+02 0.0000e+00 0.0000e+00
       13  1    1    2    0    0 -1.7995647532e+01 +9.8712561858e+00 +1.1258354732e+02 1.1443929098e+02 1.0566000000e-01 0.0000e+00 -1.0000e+00
      994  1    1    2    0    0 +1.1441340391e+01 -1.8338171121e+00 +3.0625689245e+00 1.3154712647e+02 1.3100000000e+02 0.0000e+00 0.0000e+00
      997  1    1    2    0    0 +6.5543071412e+00 -8.0374390737e+00 +3.8435387259e+02 3.8501358254e+02 2.0000000000e+01 0.0000e+00 0.0000e+00
</event>
<event>
 5      1 +2.3375200e-06 2.06514000e+02 7.95774700e-02 4.92311200e-01
       13 -1    0    0    0    0 +0.0000000000e+00 +0.0000000000e+00 +4.9999998884e+02 5.0000000000e+02 1.0566000000e-01 0.0000e+00 -1.0000e+00
      994 -1    0    0    0    0 -0.0000000000e+00 -0.0000000000e+00 +0.0000000000e+00 1.3100000000e+02 1.3100000000e+02 0.0000e+00 0.0000e+00
       13  1    1    2    0    0 +8.6292058558e+00 -1.8426239918e+01 +3.1498728675e+01 3.7498941097e+01 1.0566000000e-01 0.0000e+00 1.0000e+00
      994  1    1    2    0    0 -1.6886205168e+01 +4.7232225185e+00 +8.1301626481e+00 1.3241809658e+02 1.3100000000e+02 0.0000e+00 0.0000e+00
      997  1    1    2    0    0 +8.2569993124e+00 +1.3703017400e+01 +4.6037109751e+02 4.6108296233e+02 2.0000000000e+01 0.0000e+00 0.0000e+00
</event>
<event>
 5      1 +2.3375200e-06 2.09409500e+02 7.95774700e-02 4.87432700e-01
       13 -1    0    0    0    0 +0.0000000000e+00 +0.0000000000e+00 +4.9999998884e+02 5.0000000000e+02 1.0566000000e-01 0.0000e+00 1.0000e+00
      994 -1    0    0    0    0 -0.0000000000e+00 -0.0000000000e+00 +0.0000000000e+00 1.3100000000e+02 1.3100000000e+02 0.0000e+00 0.0000e+00
       13  1    1    2    0    0 +4.0271939494e+00 -1.7223072954e+01 +3.4224940370e+01 3.8525449257e+01 1.0566000000e-01 0.0000e+00 -1.0000e+00
      994  1    1    2    0    0 -1.3455482003e+01 +2.2907332888e+01 +7.7609812322e+00 1.3389185459e+02 1.3100000000e+02 0.0000e+00 0.0000e+00
      997  1    1    2    0    0 +9.4282880537e+00 -5.6842599341e+00 +4.5801406723e+02 4.5858269615e+02 2.0000000000e+01 0.0000e+00 0.0000e+00
</event>
<event>
 5      1 +2.3375200e-06 2.10790800e+02 7.95774700e-02 4.85165400e-01
       13 -1    0    0    0    0 +0.0000000000e+00 +0.0000000000e+00 +4.9999998884e+02 5.0000000000e+02 1.0566000000e-01 0.0000e+00 1.0000e+00
      994 -1    0    0    0    0 -0.0000000000e+00 -0.0000000000e+00 +0.0000000000e+00 1.3100000000e+02 1.3100000000e+02 0.0000e+00 0.0000e+00
       13  1    1    2    0    0 -1.5893210561e+01 +2.1080051902e+00 +3.9639982623e+01 4.2759527760e+01 1.0566000000e-01 0.0000e+00 -1.0000e+00
      994  1    1    2    0    0 +2.2538616593e+01 -6.9021581090e+00 +5.8661957193e+00 1.3323303373e+02 1.3100000000e+02 0.0000e+00 0.0000e+00
      997  1    1    2    0    0 -6.6454060323e+00 +4.7941529188e+00 +4.5449381049e+02 4.5500743851e+02 2.0000000000e+01 0.0000e+00 0.0000e+00
</event>
<event>
 5      1 +2.3375200e-06 2.07951400e+02 7.95774700e-02 4.89867800e-01
       13 -1    0    0    0    0 +0.0000000000e+00 +0.0000000000e+00 +4.9999998884e+02 5.0000000000e+02 1.0566000000e-01 0.0000e+00 1.0000e+00
      994 -1    0    0    0    0 -0.0000000000e+00 -0.0000000000e+00 +0.0000000000e+00 1.3100000000e+02 1.3100000000e+02 0.0000e+00 0.0000e+00
       13  1    1    2    0    0 -1.8100699966e+01 +1.1548670712e+01 +3.5450188741e+01 4.1445556822e+01 1.0566000000e-01 0.0000e+00 -1.0000e+00
      994  1    1    2    0    0 +2.7354057172e+01 -2.5108574950e+01 +1.2465098333e+01 1.3672989306e+02 1.3100000000e+02 0.0000e+00 0.0000e+00
      997  1    1    2    0    0 -9.2533572063e+00 +1.3559904237e+01 +4.5208470176e+02 4.5282455012e+02 2.0000000000e+01 0.0000e+00 0.0000e+00
</event>
<event>
 5      1 +2.3375200e-06 2.05965800e+02 7.95774700e-02 4.93254600e-01
       13 -1    0    0    0    0 +0.0000000000e+00 +0.0000000000e+00 +4.9999998884e+02 5.0000000000e+02 1.0566000000e-01 0.0000e+00 1.0000e+00
      994 -1    0    0    0    0 -0.0000000000e+00 -0.0000000000e+00 +0.0000000000e+00 1.3100000000e+02 1.3100000000e+02 0.0000e+00 0.0000e+00
       13  1    1    2    0    0 -1.5998609748e+01 -4.9645801221e+01 +2.4333856623e+02 2.4886608863e+02 1.0566000000e-01 0.0000e+00 -1.0000e+00
      994  1    1    2    0    0 +3.4885042606e+01 +2.2010393867e+01 +1.5925727297e+01 1.3826081305e+02 1.3100000000e+02 0.0000e+00 0.0000e+00
      997  1    1    2    0    0 -1.8886432858e+01 +2.7635407354e+01 +2.4073569531e+02 2.4387309832e+02 2.0000000000e+01 0.0000e+00 0.0000e+00
</event>
<event>
 5      1 +2.3375200e-06 2.07750200e+02 7.95774700e-02 4.90207100e-01
       13 -1    0    0    0    0 +0.0000000000e+00 +0.0000000000e+00 +4.9999998884e+02 5.0000000000e+02 1.0566000000e-01 0.0000e+00 -1.0000e+00
      994 -1    0    0    0    0 -0.0000000000e+00 -0.0000000000e+00 +0.0000000000e+00 1.3100000000e+02 1.3100000000e+02 0.0000e+00 0.0000e+00
       13  1    1    2    0    0 -5.4297536487e+01 +2.1072293921e+01 +1.5750696141e+02 1.6793069432e+02 1.0566000000e-01 0.0000e+00 1.0000e+00
      994  1    1    2    0    0 +6.9024482119e+01 -2.5253005201e+01 +3.4594537934e+01 1.5414238696e+02 1.3100000000e+02 0.0000e+00 0.0000e+00
      997  1    1    2    0    0 -1.4726945632e+01 +4.1807112791e+00 +3.0789848950e+02 3.0892691872e+02 2.0000000000e+01 0.0000e+00 0.0000e+00
</event>
<event>
 5      1 +2.3375200e-06 2.12338000e+02 7.95774700e-02 4.82669800e-01
       13 -1    0    0    0    0 +0.0000000000e+00 +0.0000000000e+00 +4.9999998884e+02 5.0000000000e+02 1.0566000000e-01 0.0000e+00 -1.0000e+00
      994 -1    0    0    0    0 -0.0000000000e+00 -0.0000000000e+00 +0.0000000000e+00 1.3100000000e+02 1.3100000000e+02 0.0000e+00 0.0000e+00
       13  1    1    2    0    0 -1.5752606666e+01 +4.0211781176e+00 +7.6613081197e+01 7.8319153882e+01 1.0566000000e-01 0.0000e+00 1.0000e+00
      994  1    1    2    0    0 +1.6086105860e+01 -9.6649523257e+00 +3.6067480692e+00 1.3238649001e+02 1.3100000000e+02 0.0000e+00 0.0000e+00
      997  1    1    2    0    0 -3.3349919332e-01 +5.6437742081e+00 +4.1978015957e+02 4.2029435611e+02 2.0000000000e+01 0.0000e+00 0.0000e+00
</event>
<event>
 5      1 +2.3375200e-06 2.12573300e+02 7.95774700e-02 4.82294500e-01
       13 -1    0    0    0    0 +0.0000000000e+00 +0.0000000000e+00 +4.9999998884e+02 5.0000000000e+02 1.0566000000e-01 0.0000e+00 1.0000e+00
      994 -1    0    0    0    0 -0.0000000000e+00 -0.0000000000e+00 +0.0000000000e+00 1.3100000000e+02 1.3100000000e+02 0.0000e+00 0.0000e+00
       13  1    1    2    0    0 -1.0518290581e+01 -9.6912604365e+00 +7.3524775976e+01 7.4902996015e+01 1.0566000000e-01 0.0000e+00 -1.0000e+00
      994  1    1    2    0    0 +7.0834155287e+00 +1.1657951379e+01 +2.6022741514e+00 1.3173402915e+02 1.3100000000e+02 0.0000e+00 0.0000e+00
      997  1    1    2    0    0 +3.4348750528e+00 -1.9666909427e+00 +4.2387293871e+02 4.2436297483e+02 2.0000000000e+01 0.0000e+00 0.0000e+00
</event>
<event>
 5      1 +2.3375200e-06 2.09860900e+02 7.95774700e-02 4.86687700e-01
       13 -1    0    0    0    0 +0.0000000000e+00 +0.0000000000e+00 +4.9999998884e+02 5.0000000000e+02 1.0566000000e-01 0.0000e+00 -1.0000e+00
      994 -1    0    0    0    0 -0.0000000000e+00 -0.0000000000e+00 +0.0000000000e+00 1.3100000000e+02 1.3100000000e+02 0.0000e+00 0.0000e+00
       13  1    1    2    0    0 -2.3263386605e+00 +2.1710902796e+01 -8.9610664588e+00 2.3602691116e+01 1.0566000000e-01 0.0000e+00 1.0000e+00
      994  1    1    2    0    0 +4.0241303667e+00 -2.7203357565e+01 +4.2454001841e+01 1.4042634568e+02 1.3100000000e+02 0.0000e+00 0.0000e+00
      997  1    1    2    0    0 -1.6977917062e+00 +5.4924547686e+00 +4.6650705345e+02 4.6697096321e+02 2.0000000000e+01 0.0000e+00 0.0000e+00
</event>
<event>
 5      1 +2.3375200e-06 1.96126000e+02 7.95774700e-02 5.11357300e-01
       13 -1    0    0    0    0 +0.0000000000e+00 +0.0000000000e+00 +4.9999998884e+02 5.0000000000e+02 1.0566000000e-01 0.0000e+00 -1.0000e+00
      994 -1    0    0    0    0 -0.0000000000e+00 -0.0000000000e+00 +0.0000000000e+00 1.3100000000e+02 1.3100000000e+02 0.0000e+00 0.0000e+00
       13  1    1    2    0    0 -9.6612719460e+00 +6.4411675988e+01 +1.0475439944e+02 1.2335193370e+02 1.0566000000e-01 0.0000e+00 1.0000e+00
      994  1    1    2    0    0 +1.6659577470e+01 -5.9571487023e+01 +3.8038860448e+01 1.4978070133e+02 1.3100000000e+02 0.0000e+00 0.0000e+00
      997  1    1    2    0    0 -6.9983055241e+00 -4.8401889651e+00 +3.5720672894e+02 3.5786736497e+02 2.0000000000e+01 0.0000e+00 0.0000e+00
</event>
<event>
 5      1 +2.3375200e-06 1.95210600e+02 7.95774700e-02 5.13163100e-01
       13 -1    0    0    0    0 +0.0000000000e+00 +0.0000000000e+00 +4.9999998884e+02 5.0000000000e+02 1.0566000000e-01 0.0000e+00 -1.0000e+00
      994 -1    0    0    0    0 -0.0000000000e+00 -0.0000000000e+00 +0.0000000000e+00 1.3100000000e+02 1.3100000000e+02 0.0000e+00 0.0000e+00
       13  1    1    2    0    0 -3.5667265769e+01 +3.0655623080e+01 +4.4581568822e+01 6.4803152057e+01 1.0566000000e-01 0.0000e+00 1.0000e+00
      994  1    1    2    0    0 +3.5881412630e+01 -5.9128498126e+00 +2.9532820109e+01 1.3912449471e+02 1.3100000000e+02 0.0000e+00 0.0000e+00
      997  1    1    2    0    0 -2.1414686156e-01 -2.4742773267e+01 +4.2588559991e+02 4.2707235323e+02 2.0000000000e+01 0.0000e+00 0.0000e+00
</event>
<event>
 5      1 +2.3375200e-06 2.08190100e+02 7.95774700e-02 4.89466100e-01
       13 -1    0    0    0    0 +0.0000000000e+00 +0.0000000000e+00 +4.9999998884e+02 5.0000000000e+02 1.0566000000e-01 0.0000e+00 -1.0000e+00
      994 -1    0    0    0    0 -0.0000000000e+00 -0.0000000000e+00 +0.0000000000e+00 1.3100000000e+02 1.3100000000e+02 0.0000e+00 0.0000e+00
       13  1    1    2    0    0 +6.7332816167e+00 -1.3643611414e+01 +2.5675125696e+01 2.9844739189e+01 1.0566000000e-01 0.0000e+00 1.0000e+00
      994  1    1    2    0    0 -1.0337785666e+01 -1.2983885403e+01 +6.5783682118e+00 1.3221091491e+02 1.3100000000e+02 0.0000e+00 0.0000e+00
      997  1    1    2    0    0 +3.6045040497e+00 +2.6627496816e+01 +4.6774649493e+02 4.6894434590e+02 2.0000000000e+01 0.0000e+00 0.0000e+00
</event>
<event>
 5      1 +2.3375200e-06 2.09963700e+02 7.95774700e-02 4.86518500e-01
       13 -1    0    0    0    0 +0.0000000000e+00 +0.0000000000e+00 +4.9999998884e+02 5.0000000000e+02 1.0566000000e-01 0.0000e+00 -1.0000e+00
      994 -1    0    0    0    0 -0.0000000000e+00 -0.0000000000e+00 +0.0000000000e+00 1.3100000000e+02 1.3100000000e+02 0.0000e+00 0.0000e+00
       13  1    1    2    0    0 -8.8725331648e-01 -1.3900164552e+01 +2.9203340895e+01 3.2355031702e+01 1.0566000000e-01 0.0000e+00 1.0000e+00
      994  1    1    2    0    0 -6.9969597818e+00 +3.4945915958e+00 +4.0583700001e+00 1.3129600140e+02 1.3100000000e+02 0.0000e+00 0.0000e+00
      997  1    1    2    0    0 +7.8842130983e+00 +1.0405572956e+01 +4.6673827794e+02 4.6734896690e+02 2.0000000000e+01 0.0000e+00 0.0000e+00
</event>
<event>
 5      1 +2.3375200e-06 2.08284400e+02 7.95774700e-02 4.89307900e-01
       13 -1    0    0    0    0 +0.0000000000e+00 +0.0000000000e+00 +4.9999998884e+02 5.0000000000e+02 1.0566000000e-01 0.0000e+00 -1.0000e+00
      994 -1    0    0    0    0 -0.0000000000e+00 -0.0000000000e+00 +0.0000000000e+00 1.3100000000e+02 1.3100000000e+02 0.0000e+00 0.0000e+00
       13  1    1    2    0    0 -1.8575587472e+01 -6.4371023778e-02 +3.3596100377e+01 3.8389656395e+01 1.0566000000e-01 0.0000e+00 1.0000e+00
      994  1    1    2    0    0 +1.5087368825e+01 -6.1844842998e+00 +6.4522719418e+00 1.3216848474e+02 1.3100000000e+02 0.0000e+00 0.0000e+00
      997  1    1    2    0    0 +3.4882186464e+00 +6.2488553236e+00 +4.5995161652e+02 4.6044185887e+02 2.0000000000e+01 0.0000e+00 0.0000e+00
</event>
<event>
 5      1 +2.3375200e-06 2.12849100e+02 7.95774700e-02 4.81855600e-01
       13 -1    0    0    0    0 +0.0000000000e+00 +0.0000000000e+00 +4.9999998884e+02 5.0000000000e+02 1.0566000000e-01 0.0000e+00 -1.0000e+00
      994 -1    0    0    0    0 -0.0000000000e+00 -0.0000000000e+00 +0.0000000000e+00 1.3100000000e+02 1.3100000000e+02 0.0000e+00 0.0000e+00
       13  1    1    2    0    0 +1.9077343915e+00 -1.1695320638e+01 +6.3095912813e+01 6.4199107105e+01 1.0566000000e-01 0.0000e+00 1.0000e+00
      994  1    1    2    0    0 -1.1982331578e+01 +8.7741873472e+00 +2.5537919737e+00 1.3186388621e+02 1.3100000000e+02 0.0000e+00 0.0000e+00
      997  1    1    2    0    0 +1.0074597186e+01 +2.9211332912e+00 +4.3435028405e+02 4.3493700668e+02 2.0000000000e+01 0.0000e+00 0.0000e+00
</event>
<event>
 5      1 +2.3375200e-06 2.00978300e+02 7.95774700e-02 5.02142700e-01
       13 -1    0    0    0    0 +0.0000000000e+00 +0.0000000000e+00 +4.9999998884e+02 5.0000000000e+02 1.0566000000e-01 0.0000e+00 -1.0000e+00
      994 -1    0    0    0    0 -0.0000000000e+00 -0.0000000000e+00 +0.0000000000e+00 1.3100000000e+02 1.3100000000e+02 0.0000e+00 0.0000e+00
       13  1    1    2    0    0 -1.7249505765e+01 +6.6407350994e+00 +1.4149334632e+01 2.3277878906e+01 1.0566000000e-01 0.0000e+00 1.0000e+00
      994  1    1    2    0    0 -1.7490530808e+01 +1.5068079599e+01 +1.4088630795e+01 1.3376268242e+02 1.3100000000e+02 0.0000e+00 0.0000e+00
      997  1    1    2    0    0 +3.4740036573e+01 -2.1708814699e+01 +4.7176202341e+02 4.7395943867e+02 2.0000000000e+01 0.0000e+00 0.0000e+00
</event>
<event>
 5      1 +2.3375200e-06 2.12991900e+02 7.95774700e-02 4.81629000e-01
       13 -1    0    0    0    0 +0.0000000000e+00 +0.0000000000e+00 +4.9999998884e+02 5.0000000000e+02 1.0566000000e-01 0.0000e+00 1.0000e+00
      994 -1    0    0    0    0 -0.0000000000e+00 -0.0000000000e+00 +0.0000000000e+00 1.3100000000e+02 1.3100000000e+02 0.0000e+00 0.0000e+00
       13  1    1    2    0    0 +8.7500656490e+00 -1.3296606866e+01 +9.2460352794e+01 9.3820527636e+01 1.0566000000e-01 0.0000e+00 -1.0000e+00
      994  1    1    2    0    0 -1.3666253447e+01 +1.9509335269e+01 +4.1458428249e+00 1.3321249438e+02 1.3100000000e+02 0.0000e+00 0.0000e+00
      997  1    1    2    0    0 +4.9161877979e+00 -6.2127284025e+00 +4.0339379322e+02 4.0396697799e+02 2.0000000000e+01 0.0000e+00 0.0000e+00
</event>
<event>
 5      1 +2.3375200e-06 2.12893900e+02 7.95774700e-02 4.81784500e-01
       13 -1    0    0    0    0 +0.0000000000e+00 +0.0000000000e+00 +4.9999998884e+02 5.0000000000e+02 1.0566000000e-01 0.0000e+00 1.0000e+00
      994 -1    0    0    0    0 -0.0000000000e+00 -0.0000000000e+00 +0.0000000000e+00 1.3100000000e+02 1.3100000000e+02 0.0000e+00 0.0000e+00
       13  1    1    2    0    0 +4.7393579978e+01 -9.7269993058e+00 +2.0007682646e+02 2.0584342008e+02 1.0566000000e-01 0.0000e+00 -1.0000e+00
      994  1    1    2    0    0 -7.8983959606e+01 +2.8896081938e+01 +3.8481070957e+01 1.6035972764e+02 1.3100000000e+02 0.0000e+00 0.0000e+00
      997  1    1    2    0    0 +3.1590379628e+01 -1.9169082632e+01 +2.6144209142e+02 2.6479685228e+02 2.0000000000e+01 0.0000e+00 0.0000e+00
</event>
<event>
 5      1 +2.3375200e-06 2.09841100e+02 7.95774700e-02 4.86720300e-01
       13 -1    0    0    0    0 +0.0000000000e+00 +0.0000000000e+00 +4.9999998884e+02 5.0000000000e+02 1.0566000000e-01 0.0000e+00 -1.0000e+00
      994 -1    0    0    0    0 -0.0000000000e+00 -0.0000000000e+00 +0.0000000000e+00 1.3100000000e+02 1.3100000000e+02 0.0000e+00 0.0000e+00
       13  1    1    2    0    0 -1.1507481062e+01 +3.0800110996e+01 +1.7938830895e+02 1.8237665834e+02 1.0566000000e-01 0.0000e+00 1.0000e+00
      994  1    1    2    0    0 -8.4746261718e+00 -2.2101340364e+01 +6.6669119894e+00 1.3328816996e+02 1.3100000000e+02 0.0000e+00 0.0000e+00
      997  1    1    2    0    0 +1.9982107234e+01 -8.6987706318e+00 +3.1394476790e+02 3.1533517170e+02 2.0000000000e+01 0.0000e+00 0.0000e+00
</event>
<event>
 5      1 +2.3375200e-06 2.12045400e+02 7.95774700e-02 4.83138300e-01
       13 -1    0    0    0    0 +0.0000000000e+00 +0.0000000000e+00 +4.9999998884e+02 5.0000000000e+02 1.0566000000e-01 0.0000e+00 1.0000e+00
      994 -1    0    0    0    0 -0.0000000000e+00 -0.0000000000e+00 +0.0000000000e+00 1.3100000000e+02 1.3100000000e+02 0.0000e+00 0.0000e+00
       13  1    1    2    0    0 -7.7854514976e+01 -1.7738613874e+00 +2.2398421973e+02 2.3713585544e+02 1.0566000000e-01 0.0000e+00 -1.0000e+00
      994  1    1    2    0    0 +1.1356615942e+02 +6.4986862883e+00 +7.5589491200e+01 1.8924660280e+02 1.3100000000e+02 0.0000e+00 0.0000e+00
      997  1    1    2    0    0 -3.5711644449e+01 -4.7248249009e+00 +2.0042627791e+02 2.0461754176e+02 2.0000000000e+01 0.0000e+00 0.0000e+00
</event>
<event>
 5      1 +2.3375200e-06 2.10798400e+02 7.95774700e-02 4.85153000e-01
       13 -1    0    0    0    0 +0.0000000000e+00 +0.0000000000e+00 +4.9999998884e+02 5.0000000000e+02 1.0566000000e-01 0.0000e+00 1.0000e+00
      994 -1    0    0    0    0 -0.0000000000e+00 -0.0000000000e+00 +0.0000000000e+00 1.3100000000e+02 1.3100000000e+02 0.0000e+00 0.0000e+00
       13  1    1    2    0    0 -1.4753560228e+01 +3.4276148575e+00 +4.7262158411e+01 4.9630019794e+01 1.0566000000e-01 0.0000e+00 -1.0000e+00
      994  1    1    2    0    0 +1.8430331832e+00 +5.5202677303e+00 +3.2563493907e+00 1.3116963802e+02 1.3100000000e+02 0.0000e+00 0.0000e+00
      997  1    1    2    0    0 +1.2910527045e+01 -8.9478825877e+00 +4.4948148103e+02 4.5020034219e+02 2.0000000000e+01 0.0000e+00 0.0000e+00
</event>
<event>
 5      1 +2.3375200e-06 2.15148900e+02 7.95774700e-02 4.78251500e-01
       13 -1    0    0    0    0 +0.0000000000e+00 +0.0000000000e+00 +4.9999998884e+02 5.0000000000e+02 1.0566000000e-01 0.0000e+00 1.0000e+00
      994 -1    0    0    0    0 -0.0000000000e+00 -0.0000000000e+00 +0.0000000000e+00 1.3100000000e+02 1.3100000000e+02 0.0000e+00 0.0000e+00
       13  1    1    2    0    0 +2.1780369641e+01 +5.0172136545e+01 +1.3933613954e+01 5.6442754620e+01 1.0566000000e-01 0.0000e+00 -1.0000e+00
      994  1    1    2    0    0 -1.2453127549e+01 -6.1238688541e+01 +7.6164175818e+01 1.6391229069e+02 1.3100000000e+02 0.0000e+00 0.0000e+00
      997  1    1    2    0    0 -9.3272420923e+00 +1.1066551996e+01 +4.0990219906e+02 4.1064495469e+02 2.0000000000e+01 0.0000e+00 0.0000e+00
</event>
<event>
 5      1 +2.3375200e-06 2.10416800e+02 7.95774700e-02 4.85775600e-01
       13 -1    0    0    0    0 +0.0000000000e+00 +0.0000000000e+00 +4.9999998884e+02 5.0000000000e+02 1.0566000000e-01 0.0000e+00 1.0000e+00
      994 -1    0    0    0    0 -0.0000000000e+00 -0.0000000000e+00 +0.0000000000e+00 1.3100000000e+02 1.3100000000e+02 0.0000e+00 0.0000e+00
       13  1    1    2    0    0 +9.6214003633e+00 -3.5015094601e+00 +1.5027514331e+01 1.8184313692e+01 1.0566000000e-01 0.0000e+00 -1.0000e+00
      994  1    1    2    0    0 -1.1256599047e+01 +1.5230969362e+01 +5.1828825009e+00 1.3246341276e+02 1.3100000000e+02 0.0000e+00 0.0000e+00
      997  1    1    2    0    0 +1.6351986840e+00 -1.1729459902e+01 +4.7978959200e+02 4.8035227354e+02 2.0000000000e+01 0.0000e+00 0.0000e+00
</event>
<event>
 5      1 +2.3375200e-06 2.10981400e+02 7.95774700e-02 4.84855400e-01
       13 -1    0    0    0    0 +0.0000000000e+00 +0.0000000000e+00 +4.9999998884e+02 5.0000000000e+02 1.0566000000e-01 0.0000e+00 1.0000e+00
      994 -1    0    0    0    0 -0.0000000000e+00 -0.0000000000e+00 +0.0000000000e+00 1.3100000000e+02 1.3100000000e+02 0.0000e+00 0.0000e+00
       13  1    1    2    0    0 +7.4092883667e+00 -1.0830431826e+01 +7.3477747126e+01 7.4640379785e+01 1.0566000000e-01 0.0000e+00 -1.0000e+00
      994  1    1    2    0    0 +1.3915847659e+01 -2.6589005706e+01 +7.4439906121e+00 1.3459955066e+02 1.3100000000e+02 0.0000e+00 0.0000e+00
      997  1    1    2    0    0 -2.1325136026e+01 +3.7419437532e+01 +4.1907825110e+02 4.2176006956e+02 2.0000000000e+01 0.0000e+00 0.0000e+00
</event>
<event>
 5      1 +2.3375200e-06 2.01887000e+02 7.95774700e-02 5.00481000e-01
       13 -1    0    0    0    0 +0.0000000000e+00 +0.0000000000e+00 +4.9999998884e+02 5.0000000000e+02 1.0566000000e-01 0.0000e+00 -1.0000e+00
      994 -1    0    0    0    0 -0.0000000000e+00 -0.0000000000e+00 +0.0000000000e+00 1.3100000000e+02 1.3100000000e+02 0.0000e+00 0.0000e+00
       13  1    1    2    0    0 -1.5536868246e+01 +2.8828129587e+00 +8.9602991001e+00 1.8165984956e+01 1.0566000000e-01 0.0000e+00 1.0000e+00
      994  1    1    2    0    0 -2.0911126152e-01 +2.9270201755e+01 +1.5039176840e+01 1.3507022351e+02 1.3100000000e+02 0.0000e+00 0.0000e+00
      997  1    1    2    0    0 +1.5745979507e+01 -3.2153014714e+01 +4.7600051290e+02 4.7776379154e+02 2.0000000000e+01 0.0000e+00 0.0000e+00
</event>
<event>
 5      1 +2.3375200e-06 2.07319500e+02 7.95774700e-02 4.90936700e-01
       13 -1    0    0    0    0 +0.0000000000e+00 +0.0000000000e+00 +4.9999998884e+02 5.0000000000e+02 1.0566000000e-01 0.0000e+00 -1.0000e+00
      994 -1    0    0    0    0 -0.0000000000e+00 -0.0000000000e+00 +0.0000000000e+00 1.3100000000e+02 1.3100000000e+02 0.0000e+00 0.0000e+00
       13  1    1    2    0    0 +1.7381991697e+01 +2.7980640697e+01 +7.7106430000e+01 8.3847853882e+01 1.0566000000e-01 0.0000e+00 1.0000e+00
      994  1    1    2    0    0 -3.2462934558e+01 -2.4302659408e+01 +1.4413644225e+01 1.3788841327e+02 1.3100000000e+02 0.0000e+00 0.0000e+00
      997  1    1    2    0    0 +1.5080942861e+01 -3.6779812892e+00 +4.0847991461e+02 4.0926373285e+02 2.0000000000e+01 0.0000e+00 0.0000e+00
</event>
<event>
 5      1 +2.3375200e-06 2.11510700e+02 7.95774700e-02 4.83998600e-01
       13 -1    0    0    0    0 +0.0000000000e+00 +0.0000000000e+00 +4.9999998884e+02 5.0000000000e+02 1.0566000000e-01 0.0000e+00 1.0000e+00
      994 -1    0    0    0    0 -0.0000000000e+00 -0.0000000000e+00 +0.0000000000e+00 1.3100000000e+02 1.3100000000e+02 0.0000e+00 0.0000e+00
       13  1    1    2    0    0 -1.2116255440e+01 +1.2617256698e+01 +6.2266186276e+01 6.4676795915e+01 1.0566000000e-01 0.0000e+00 -1.0000e+00
      994  1    1    2    0    0 +1.4234111302e+01 -1.2798332720e+01 +4.3392400644e+00 1.3246220687e+02 1.3100000000e+02 0.0000e+00 0.0000e+00
      997  1    1    2    0    0 -2.1178558613e+00 +1.8107602190e-01 +4.3339456250e+02 4.3386099721e+02 2.0000000000e+01 0.0000e+00 0.0000e+00
</event>
<event>
 5      1 +2.3375200e-06 2.10341400e+02 7.95774700e-02 4.85898900e-01
       13 -1    0    0    0    0 +0.0000000000e+00 +0.0000000000e+00 +4.9999998884e+02 5.0000000000e+02 1.0566000000e-01 0.0000e+00 -1.0000e+00
      994 -1    0    0    0    0 -0.0000000000e+00 -0.0000000000e+00 +0.0000000000e+00 1.3100000000e+02 1.3100000000e+02 0.0000e+00 0.0000e+00
       13  1    1    2    0    0 +1.1745452553e+01 -9.8609864752e+00 +3.3286657956e+01 3.6649794977e+01 1.0566000000e-01 0.0000e+00 1.0000e+00
      994  1    1    2    0    0 -1.2508893461e+01 +1.6196377273e+01 +5.5454451245e+00 1.3270473622e+02 1.3100000000e+02 0.0000e+00 0.0000e+00
      997  1    1    2    0    0 +7.6344090794e-01 -6.3353907977e+00 +4.6116788576e+02 4.6164546881e+02 2.0000000000e+01 0.0000e+00 0.0000e+00
</event>
<event>
 5      1 +2.3375200e-06 2.12366200e+02 7.95774700e-02 4.82624900e-01
       13 -1    0    0    0    0 +0.0000000000e+00 +0.0000000000e+00 +4.9999998884e+02 5.0000000000e+02 1.0566000000e-01 0.0000e+00 -1.0000e+00
      994 -1    0    0    0    0 -0.0000000000e+00 -0.0000000000e+00 +0.0000000000e+00 1.3100000000e+02 1.3100000000e+02 0.0000e+00 0.0000e+00
       13  1    1    2    0    0 +1.6184971270e+01 +4.8641849522e+00 +1.0099816262e+02 1.0240241016e+02 1.0566000000e-01 0.0000e+00 1.0000e+00
      994  1    1    2    0    0 -8.3609447510e+00 -1.0972483384e+01 +2.7866580418e+00 1.3175380925e+02 1.3100000000e+02 0.0000e+00 0.0000e+00
      997  1    1    2    0    0 -7.8240265189e+00 +6.1082984317e+00 +3.9621516818e+02 3.9684378059e+02 2.0000000000e+01 0.0000e+00 0.0000e+00
</event>
<event>
 5      1 +2.3375200e-06 2.11925700e+02 7.95774700e-02 4.83330300e-01
       13 -1    0    0    0    0 +0.0000000000e+00 +0.0000000000e+00 +4.9999998884e+02 5.0000000000e+02 1.0566000000e-01 0.0000e+00 1.0000e+00
      994 -1    0    0    0    0 -0.0000000000e+00 -0.0000000000e+00 +0.0000000000e+00 1.3100000000e+02 1.3100000000e+02 0.0000e+00 0.0000e+00
       13  1    1    2    0    0 -5.0398473309e+00 +1.7042164504e+01 +7.3359445407e+01 7.5481486648e+01 1.0566000000e-01 0.0000e+00 -1.0000e+00
      994  1    1    2    0    0 +1.1994892675e+01 -1.7845995297e+01 +4.4821450053e+00 1.3282863630e+02 1.3100000000e+02 0.0000e+00 0.0000e+00
      997  1    1    2    0    0 -6.9550453443e+00 +8.0383079306e-01 +4.2215839842e+02 4.2268987705e+02 2.0000000000e+01 0.0000e+00 0.0000e+00
</event>
<event>
 5      1 +2.3375200e-06 2.09513700e+02 7.95774700e-02 4.87260500e-01
       13 -1    0    0    0    0 +0.0000000000e+00 +0.0000000000e+00 +4.9999998884e+02 5.0000000000e+02 1.0566000000e-01 0.0000e+00 -1.0000e+00
      994 -1    0    0    0    0 -0.0000000000e+00 -0.0000000000e+00 +0.0000000000e+00 1.3100000000e+02 1.3100000000e+02 0.0000e+00 0.0000e+00
       13  1    1    2    0    0 -9.3814733777e+00 -4.9209570856e+00 +1.2013516003e+01 1.6017602572e+01 1.0566000000e-01 0.0000e+00 1.0000e+00
      994  1    1    2    0    0 +1.7694388295e+01 +1.3624906042e+01 +6.6246364879e+00 1.3305493321e+02 1.3100000000e+02 0.0000e+00 0.0000e+00
      997  1    1    2    0    0 -8.3129149168e+00 -8.7039489569e+00 +4.8136183635e+02 4.8192746422e+02 2.0000000000e+01 0.0000e+00 0.0000e+00
</event>
<event>
 5      1 +2.3375200e-06 2.03754500e+02 7.95774700e-02 4.97126100e-01
       13 -1    0    0    0    0 +0.0000000000e+00 +0.0000000000e+00 +4.9999998884e+02 5.0000000000e+02 1.0566000000e-01 0.0000e+00 1.0000e+00
      994 -1    0    0    0    0 -0.0000000000e+00 -0.0000000000e+00 +0.0000000000e+00 1.3100000000e+02 1.3100000000e+02 0.0000e+00 0.0000e+00
       13  1    1    2    0    0 +3.3098317914e+01 +1.9375462031e+01 +6.3283535642e+01 7.3998136632e+01 1.0566000000e-01 0.0000e+00 -1.0000e+00
      994  1    1    2    0    0 -2.9712450633e+01 -4.9745517139e+01 +2.7128484751e+01 1.4578889149e+02 1.3100000000e+02 0.0000e+00 0.0000e+00
      997  1    1    2    0    0 -3.3858672809e+00 +3.0370055108e+01 +4.0958796844e+02 4.1121297187e+02 2.0000000000e+01 0.0000e+00 0.0000e+00
</event>
<event>
 5      1 +2.3375200e-06 2.08736300e+02 7.95774700e-02 4.88551700e-01
       13 -1    0    0    0    0 +0.0000000000e+00 +0.0000000000e+00 +4.9999998884e+02 5.0000000000e+02 1.0566000000e-01 0.0000e+00 -1.0000e+00
      994 -1    0    0    0    0 -0.0000000000e+00 -0.0000000000e+00 +0.0000000000e+00 1.3100000000e+02 1.3100000000e+02 0.0000e+00 0.0000e+00
       13  1    1    2    0    0 -1.0957775835e+01 +1.7808586708e+01 +1.0529908329e+02 1.0735514295e+02 1.0566000000e-01 0.0000e+00 1.0000e+00
      994  1    1    2    0    0 -2.4832372347e+01 +1.3620941311e+01 +8.8149903481e+00 1.3431634604e+02 1.3100000000e+02 0.0000e+00 0.0000e+00
      997  1    1    2    0    0 +3.5790148183e+01 -3.1429528019e+01 +3.8588591520e+02 3.8932851101e+02 2.0000000000e+01 0.0000e+00 0.0000e+00
</event>
<event>
 5      1 +2.3375200e-06 2.04334500e+02 7.95774700e-02 4.96100200e-01
       13 -1    0    0    0    0 +0.0000000000e+00 +0.0000000000e+00 +4.9999998884e+02 5.0000000000e+02 1.0566000000e-01 0.0000e+00 -1.0000e+00
      994 -1    0    0    0    0 -0.0000000000e+00 -0.0000000000e+00 +0.0000000000e+00 1.3100000000e+02 1.3100000000e+02 0.0000e+00 0.0000e+00
       13  1    1    2    0    0 +4.7168563555e+01 -1.1815905195e+01 +2.1456907481e+02 2.2000997258e+02 1.0566000000e-01 0.0000e+00 1.0000e+00
      994  1    1    2    0    0 -1.4551548632e+01 +2.9808611963e-01 +9.4638727219e+00 1.3214537945e+02 1.3100000000e+02 0.0000e+00 0.0000e+00
      997  1    1    2    0    0 -3.2617014923e+01 +1.1517819075e+01 +2.7596704130e+02 2.7884464797e+02 2.0000000000e+01 0.0000e+00 0.0000e+00
</event>
<event>
 5      1 +2.3375200e-06 2.04558900e+02 7.95774700e-02 4.95705300e-01
       13 -1    0    0    0    0 +0.0000000000e+00 +0.0000000000e+00 +4.9999998884e+02 5.0000000000e+02 1.0566000000e-01 0.0000e+00 -1.0000e+00
      994 -1    0    0    0    0 -0.0000000000e+00 -0.0000000000e+00 +0.0000000000e+00 1.3100000000e+02 1.3100000000e+02 0.0000e+00 0.0000e+00
       13  1    1    2    0    0 +1.9364653556e+01 -6.0293384306e+00 +2.2441756587e+01 3.0248740999e+01 1.0566000000e-01 0.0000e+00 1.0000e+00
      994  1    1    2    0    0 -1.4673761587e+01 +1.1495148036e+01 +9.9857320016e+00 1.3269578950e+02 1.3100000000e+02 0.0000e+00 0.0000e+00
      997  1    1    2    0    0 -4.6908919695e+00 -5.4658096052e+00 +4.6757250025e+02 4.6805546950e+02 2.0000000000e+01 0.0000e+00 0.0000e+00
</event>
<event>
 5      1 +2.3375200e-06 2.10995900e+02 7.95774700e-02 4.84832000e-01
       13 -1    0    0    0    0 +0.0000000000e+00 +0.0000000000e+00 +4.9999998884e+02 5.0000000000e+02 1.0566000000e-01 0.0000e+00 1.0000e+00
      994 -1    0    0    0    0 -0.0000000000e+00 -0.0000000000e+00 +0.0000000000e+00 1.3100000000e+02 1.3100000000e+02 0.0000e+00 0.0000e+00
       13  1    1    2    0    0 +1.3765712177e+01 +5.4546409238e+00 +4.1715863313e+01 4.4265927702e+01 1.0566000000e-01 0.0000e+00 -1.0000e+00
      994  1    1    2    0    0 -8.6826454631e+00 -6.4273146398e+00 +3.5105692582e+00 1.3149153129e+02 1.3100000000e+02 0.0000e+00 0.0000e+00
      997  1    1    2    0    0 -5.0830667137e+00 +9.7267371595e-01 +4.5477355626e+02 4.5524254100e+02 2.0000000000e+01 0.0000e+00 0.0000e+00
</event>
<event>
 5      1 +2.3375200e-06 2.09892500e+02 7.95774700e-02 4.86635600e-01
       13 -1    0    0    0    0 +0.0000000000e+00 +0.0000000000e+00 +4.9999998884e+02 5.0000000000e+02 1.0566000000e-01 0.0000e+00 -1.0000e+00
      994 -1    0    0    0    0 -0.0000000000e+00 -0.0000000000e+00 +0.0000000000e+00 1.3100000000e+02 1.3100000000e+02 0.0000e+00 0.0000e+00
       13  1    1    2    0    0 +1.8784822886e+01 -1.7694279802e+01 +1.2557513930e+02 1.2819939112e+02 1.0566000000e-01 0.0000e+00 1.0000e+00
      994  1    1    2    0    0 -1.1597591098e+01 -4.8228136068e+00 +4.5992123255e+00 1.3168111635e+02 1.3100000000e+02 0.0000e+00 0.0000e+00
      997  1    1    2    0    0 -7.1872317871e+00 +2.2517093408e+01 +3.6982563721e+02 3.7111949253e+02 2.0000000000e+01 0.0000e+00 0.0000e+00
</event>
<event>
 5      1 +2.3375200e-06 2.12829900e+02 7.95774700e-02 4.81886100e-01
       13 -1    0    0    0    0 +0.0000000000e+00 +0.0000000000e+00 +4.9999998884e+02 5.0000000000e+02 1.0566000000e-01 0.0000e+00 1.0000e+00
      994 -1    0    0    0    0 -0.0000000000e+00 -0.0000000000e+00 +0.0000000000e+00 1.3100000000e+02 1.3100000000e+02 0.0000e+00 0.0000e+00
       13  1    1    2    0    0 +9.8016419873e+00 -6.9420367960e+00 +5.8269173766e+01 5.9494300870e+01 1.0566000000e-01 0.0000e+00 -1.0000e+00
      994  1    1    2    0    0 -1.0936524700e+01 +9.1477529830e+00 +2.4842447762e+00 1.3179704257e+02 1.3100000000e+02 0.0000e+00 0.0000e+00
      997  1    1    2    0    0 +1.1348827123e+00 -2.2057161870e+00 +4.3924657029e+02 4.3970865656e+02 2.0000000000e+01 0.0000e+00 0.0000e+00
</event>
<event>
 5      1 +2.3375200e-06 2.03104200e+02 7.95774700e-02 4.98285400e-01
       13 -1    0    0    0    0 +0.0000000000e+00 +0.0000000000e+00 +4.9999998884e+02 5.0000000000e+02 1.0566000000e-01 0.0000e+00 -1.0000e+00
      994 -1    0    0    0    0 -0.0000000000e+00 -0.0000000000e+00 +0.0000000000e+00 1.3100000000e+02 1.3100000000e+02 0.0000e+00 0.0000e+00
       13  1    1    2    0    0 +1.2804128768e+01 +9.5792141244e+00 +9.8197165343e+00 1.8765528333e+01 1.0566000000e-01 0.0000e+00 1.0000e+00
      994  1    1    2    0    0 -2.1524484931e+01 +1.2567038576e+00 +1.1856650603e+01 1.3329089586e+02 1.3100000000e+02 0.0000e+00 0.0000e+00
      997  1    1    2    0    0 +8.7203561625e+00 -1.0835917982e+01 +4.7832362170e+02 4.7894357581e+02 2.0000000000e+01 0.0000e+00 0.0000e+00
</event>
<event>
 5      1 +2.3375200e-06 2.06257100e+02 7.95774700e-02 4.92752500e-01
       13 -1    0    0    0    0 +0.0000000000e+00 +0.0000000000e+00 +4.9999998884e+02 5.0000000000e+02 1.0566000000e-01 0.0000e+00 -1.0000e+00
      994 -1    0    0    0    0 -0.0000000000e+00 -0.0000000000e+00 +0.0000000000e+00 1.3100000000e+02 1.3100000000e+02 0.0000e+00 0.0000e+00
       13  1    1    2    0    0 -9.1700064639e-01 -1.9630827800e+01 +3.0034314643e+01 3.5892638666e+01 1.0566000000e-01 0.0000e+00 1.0000e+00
      994  1    1    2    0    0 +2.7527525354e+00 +2.7663977488e+00 +6.8365639443e+00 1.3123631056e+02 1.3100000000e+02 0.0000e+00 0.0000e+00
      997  1    1    2    0    0 -1.8357518890e+00 +1.6864430051e+01 +4.6312911025e+02 4.6387105077e+02 2.0000000000e+01 0.0000e+00 0.0000e+00
</event>
<event>
 5      1 +2.3375200e-06 2.05365300e+02 7.95774700e-02 4.94295300e-01
       13 -1    0    0    0    0 +0.0000000000e+00 +0.0000000000e+00 +4.9999998884e+02 5.0000000000e+02 1.0566000000e-01 0.0000e+00 -1.0000e+00
      994 -1    0    0    0    0 -0.0000000000e+00 -0.0000000000e+00 +0.0000000000e+00 1.3100000000e+02 1.3100000000e+02 0.0000e+00 0.0000e+00
       13  1    1    2    0    0 +1.5280880468e+01 +2.8183657531e+01 +4.2608771599e+01 5.3323001049e+01 1.0566000000e-01 0.0000e+00 1.0000e+00
      994  1    1    2    0    0 -5.7231148614e+00 -7.7243371310e+01 +4.0714865646e+01 1.5753727413e+02 1.3100000000e+02 0.0000e+00 0.0000e+00
      997  1    1    2    0    0 -9.5577656065e+00 +4.9059713779e+01 +4.1667635159e+02 4.2013972482e+02 2.0000000000e+01 0.0000e+00 0.0000e+00
</event>
<event>
 5      1 +2.3375200e-06 1.94360500e+02 7.95774700e-02 5.14860300e-01
       13 -1    0    0    0    0 +0.0000000000e+00 +0.0000000000e+00 +4.9999998884e+02 5.0000000000e+02 1.0566000000e-01 0.0000e+00 -1.0000e+00
      994 -1    0    0    0    0 -0.0000000000e+00 -0.0000000000e+00 +0.0000000000e+00 1.3100000000e+02 1.3100000000e+02 0.0000e+00 0.0000e+00
       13  1    1    2    0    0 -7.9060298454e+00 +3.2422922973e+01 +4.1206065523e+01 5.3025486721e+01 1.0566000000e-01 0.0000e+00 1.0000e+00
      994  1    1    2    0    0 +1.2538096065e+01 +3.6989657556e+01 +2.5974766591e+01 1.3914426729e+02 1.3100000000e+02 0.0000e+00 0.0000e+00
      997  1    1    2    0    0 -4.6320662197e+00 -6.9412580529e+01 +4.3281915672e+02 4.3883024599e+02 2.0000000000e+01 0.0000e+00 0.0000e+00
</event>
<event>
 5      1 +2.3375200e-06 2.10129000e+02 7.95774700e-02 4.86247000e-01
       13 -1    0    0    0    0 +0.0000000000e+00 +0.0000000000e+00 +4.9999998884e+02 5.0000000000e+02 1.0566000000e-01 0.0000e+00 -1.0000e+00
      994 -1    0    0    0    0 -0.0000000000e+00 -0.0000000000e+00 +0.0000000000e+00 1.3100000000e+02 1.3100000000e+02 0.0000e+00 0.0000e+00
       13  1    1    2    0    0 -1.6152812029e+01 +5.8994908229e+01 +1.9791373754e+02 2.0715011755e+02 1.0566000000e-01 0.0000e+00 1.0000e+00
      994  1    1    2    0    0 +2.8315241720e+01 -7.5664243952e+01 +3.8432161080e+01 1.5863436491e+02 1.3100000000e+02 0.0000e+00 0.0000e+00
      997  1    1    2    0    0 -1.2162429691e+01 +1.6669335723e+01 +2.6365409022e+02 2.6521551753e+02 2.0000000000e+01 0.0000e+00 0.0000e+00
</event>
<event>
 5      1 +2.3375200e-06 2.05416900e+02 7.95774700e-02 4.94205700e-01
       13 -1    0    0    0    0 +0.0000000000e+00 +0.0000000000e+00 +4.9999998884e+02 5.0000000000e+02 1.0566000000e-01 0.0000e+00 -1.0000e+00
      994 -1    0    0    0    0 -0.0000000000e+00 -0.0000000000e+00 +0.0000000000e+00 1.3100000000e+02 1.3100000000e+02 0.0000e+00 0.0000e+00
       13  1    1    2    0    0 +1.2607261796e+01 +1.7637711249e+01 +3.8681969219e+01 4.4343407794e+01 1.0566000000e-01 0.0000e+00 1.0000e+00
      994  1    1    2    0    0 +3.2048908175e+00 +1.3551368804e+01 +8.4589407077e+00 1.3200933527e+02 1.3100000000e+02 0.0000e+00 0.0000e+00
      997  1    1    2    0    0 -1.5812152614e+01 -3.1189080053e+01 +4.5285907891e+02 4.5464725693e+02 2.0000000000e+01 0.0000e+00 0.0000e+00
</event>
<event>
 5      1 +2.3375200e-06 2.09411800e+02 7.95774700e-02 4.87429000e-01
       13 -1    0    0    0    0 +0.0000000000e+00 +0.0000000000e+00 +4.9999998884e+02 5.0000000000e+02 1.0566000000e-01 0.0000e+00 1.0000e+00
      994 -1    0    0    0    0 -0.0000000000e+00 -0.0000000000e+00 +0.0000000000e+00 1.3100000000e+02 1.3100000000e+02 0.0000e+00 0.0000e+00
       13  1    1    2    0    0 +1.4532240270e+01 +8.6901496785e+00 +4.3812012575e+01 4.6970291872e+01 1.0566000000e-01 0.0000e+00 -1.0000e+00
      994  1    1    2    0    0 +1.9472783312e+00 +7.4636733728e+00 +4.4931323821e+00 1.3130379489e+02 1.3100000000e+02 0.0000e+00 0.0000e+00
      997  1    1    2    0    0 -1.6479518601e+01 -1.6153823051e+01 +4.5169484388e+02 4.5272591324e+02 2.0000000000e+01 0.0000e+00 0.0000e+00
</event>
<event>
 5      1 +2.3375200e-06 2.11000800e+02 7.95774700e-02 4.84823900e-01
       13 -1    0    0    0    0 +0.0000000000e+00 +0.0000000000e+00 +4.9999998884e+02 5.0000000000e+02 1.0566000000e-01 0.0000e+00 -1.0000e+00
      994 -1    0    0    0    0 -0.0000000000e+00 -0.0000000000e+00 +0.0000000000e+00 1.3100000000e+02 1.3100000000e+02 0.0000e+00 0.0000e+00
       13  1    1    2    0    0 +8.7640385791e+00 -1.1754076298e+01 +4.2302728992e+01 4.4771628584e+01 1.0566000000e-01 0.0000e+00 1.0000e+00
      994  1    1    2    0    0 -1.6780025161e+00 +8.6377243103e+00 +3.3116451895e+00 1.3133694441e+02 1.3100000000e+02 0.0000e+00 0.0000e+00
      997  1    1    2    0    0 -7.0860360630e+00 +3.1163519875e+00 +4.5438561465e+02 4.5489142700e+02 2.0000000000e+01 0.0000e+00 0.0000e+00
</event>
<event>
 5      1 +2.3375200e-06 2.12129800e+02 7.95774700e-02 4.83003100e-01
       13 -1    0    0    0    0 +0.0000000000e+00 +0.0000000000e+00 +4.9999998884e+02 5.0000000000e+02 1.0566000000e-01 0.0000e+00 1.0000e+00
      994 -1    0    0    0    0 -0.0000000000e+00 -0.0000000000e+00 +0.0000000000e+00 1.3100000000e+02 1.3100000000e+02 0.0000e+00 0.0000e+00
       13  1    1    2    0    0 +1.4969499699e+01 -7.1979515900e+00 +8.6385669244e+01 8.7968127428e+01 1.0566000000e-01 0.0000e+00 -1.0000e+00
      994  1    1    2    0    0 -4.5385519734e-01 +3.4964719538e+01 +8.1116376401e+00 1.3582907002e+02 1.3100000000e+02 0.0000e+00 0.0000e+00
      997  1    1    2    0    0 -1.4515644502e+01 -2.7766767948e+01 +4.0550268195e+02 4.0720280255e+02 2.0000000000e+01 0.0000e+00 0.0000e+00
</event>
<event>
 5      1 +2.3375200e-06 2.10418900e+02 7.95774700e-02 4.85772100e-01
       13 -1    0    0    0    0 +0.0000000000e+00 +0.0000000000e+00 +4.9999998884e+02 5.0000000000e+02 1.0566000000e-01 0.0000e+00 -1.0000e+00
      994 -1    0    0    0    0 -0.0000000000e+00 -0.0000000000e+00 +0.0000000000e+00 1.3100000000e+02 1.3100000000e+02 0.0000e+00 0.0000e+00
       13  1    1    2    0    0 -1.2795016572e+01 +5.5967356779e-01 +2.1930346121e+01 2.5396395977e+01 1.0566000000e-01 0.0000e+00 1.0000e+00
      994  1    1    2    0    0 +2.6909536607e+01 -2.3898926676e+00 +7.0473988649e+00 1.3394215385e+02 1.3100000000e+02 0.0000e+00 0.0000e+00
      997  1    1    2    0    0 -1.4114520035e+01 +1.8302190998e+00 +4.7102224385e+02 4.7166145017e+02 2.0000000000e+01 0.0000e+00 0.0000e+00
</event>
<event>
 5      1 +2.3375200e-06 2.05528400e+02 7.95774700e-02 4.94011800e-01
       13 -1    0    0    0    0 +0.0000000000e+00 +0.0000000000e+00 +4.9999998884e+02 5.0000000000e+02 1.0566000000e-01 0.0000e+00 -1.0000e+00
      994 -1    0    0    0    0 -0.0000000000e+00 -0.0000000000e+00 +0.0000000000e+00 1.3100000000e+02 1.3100000000e+02 0.0000e+00 0.0000e+00
       13  1    1    2    0    0 -1.5295035400e+01 -1.7950590955e+01 +4.5036993368e+01 5.0838014902e+01 1.0566000000e-01 0.0000e+00 1.0000e+00
      994  1    1    2    0    0 -1.2563001496e+01 +3.8010077697e+00 +8.2531607645e+00 1.3191433330e+02 1.3100000000e+02 0.0000e+00 0.0000e+00
      997  1    1    2    0    0 +2.7858036896e+01 +1.4149583185e+01 +4.4670983470e+02 4.4824765180e+02 2.0000000000e+01 0.0000e+00 0.0000e+00
</event>
<event>
 5      1 +2.3375200e-06 2.09543800e+02 7.95774700e-02 4.87210700e-01
       13 -1    0    0    0    0 +0.0000000000e+00 +0.0000000000e+00 +4.9999998884e+02 5.0000000000e+02 1.0566000000e-01 0.0000e+00 -1.0000e+00
      994 -1    0    0    0    0 -0.0000000000e+00 -0.0000000000e+00 +0.0000000000e+00 1.3100000000e+02 1.3100000000e+02 0.0000e+00 0.0000e+00
       13  1    1    2    0    0 -1.1782738293e+01 +2.1704039594e+01 +9.5254250759e+01 9.8403667147e+01 1.0566000000e-01 0.0000e+00 1.0000e+00
      994  1    1    2    0    0 +1.6280426359e+00 -6.3759857787e+00 +4.3057477537e+00 1.3123583040e+02 1.3100000000e+02 0.0000e+00 0.0000e+00
      997  1    1    2    0    0 +1.0154695657e+01 -1.5328053815e+01 +4.0043999032e+02 4.0136050245e+02 2.0000000000e+01 0.0000e+00 0.0000e+00
</event>
<event>
 5      1 +2.3375200e-06 2.10956200e+02 7.95774700e-02 4.84896400e-01
       13 -1    0    0    0    0 +0.0000000000e+00 +0.0000000000e+00 +4.9999998884e+02 5.0000000000e+02 1.0566000000e-01 0.0000e+00 1.0000e+00
      994 -1    0    0    0    0 -0.0000000000e+00 -0.0000000000e+00 +0.0000000000e+00 1.3100000000e+02 1.3100000000e+02 0.0000e+00 0.0000e+00
       13  1    1    2    0    0 +1.0197089787e+01 -1.3527972466e+01 +5.6590398474e+01 5.9071744876e+01 1.0566000000e-01 0.0000e+00 -1.0000e+00
      994  1    1    2    0    0 -2.6334837786e+00 +9.1284825166e+00 +3.4109042861e+00 1.3138835069e+02 1.3100000000e+02 0.0000e+00 0.0000e+00
      997  1    1    2    0    0 -7.5636060082e+00 +4.3994899495e+00 +4.3999868608e+02 4.4053990443e+02 2.0000000000e+01 0.0000e+00 0.0000e+00
</event>
<event>
 5      1 +2.3375200e-06 2.10047200e+02 7.95774700e-02 4.86381400e-01
       13 -1    0    0    0    0 +0.0000000000e+00 +0.0000000000e+00 +4.9999998884e+02 5.0000000000e+02 1.0566000000e-01 0.0000e+00 -1.0000e+00
      994 -1    0    0    0    0 -0.0000000000e+00 -0.0000000000e+00 +0.0000000000e+00 1.3100000000e+02 1.3100000000e+02 0.0000e+00 0.0000e+00
       13  1    1    2    0    0 +1.5269583049e+00 +2.1112190615e+01 +8.7383726895e+01 8.9910973103e+01 1.0566000000e-01 0.0000e+00 1.0000e+00
      994  1    1    2    0    0 -8.6543343929e+00 +1.7141389169e+00 +4.0748767939e+00 1.3135996497e+02 1.3100000000e+02 0.0000e+00 0.0000e+00
      997  1    1    2    0    0 +7.1273760881e+00 -2.2826329532e+01 +4.0854138515e+02 4.0972906193e+02 2.0000000000e+01 0.0000e+00 0.0000e+00
</event>
<event>
 5      1 +2.3375200e-06 2.09571500e+02 7.95774700e-02 4.87164800e-01
       13 -1    0    0    0    0 +0.0000000000e+00 +0.0000000000e+00 +4.9999998884e+02 5.0000000000e+02 1.0566000000e-01 0.0000e+00 1.0000e+00
      994 -1    0    0    0    0 -0.0000000000e+00 -0.0000000000e+00 +0.0000000000e+00 1.3100000000e+02 1.3100000000e+02 0.0000e+00 0.0000e+00
       13  1    1    2    0    0 +8.7531547724e+00 +7.4220588027e+00 +1.4840042848e+01 1.8760136223e+01 1.0566000000e-01 0.0000e+00 -1.0000e+00
      994  1    1    2    0    0 -1.6380378244e+01 -1.1101275270e+01 +6.0355567964e+00 1.3262346342e+02 1.3100000000e+02 0.0000e+00 0.0000e+00
      997  1    1    2    0    0 +7.6272234721e+00 +3.6792164671e+00 +4.7912438919e+02 4.7961640036e+02 2.0000000000e+01 0.0000e+00 0.0000e+00
</event>
<event>
 5      1 +2.3375200e-06 2.11951200e+02 7.95774700e-02 4.83289500e-01
       13 -1    0    0    0    0 +0.0000000000e+00 +0.0000000000e+00 +4.9999998884e+02 5.0000000000e+02 1.0566000000e-01 0.0000e+00 1.0000e+00
      994 -1    0    0    0    0 -0.0000000000e+00 -0.0000000000e+00 +0.0000000000e+00 1.3100000000e+02 1.3100000000e+02 0.0000e+00 0.0000e+00
       13  1    1    2    0    0 +1.2775504420e+01 -1.1704322506e+01 +8.3082881403e+01 8.4870377781e+01 1.0566000000e-01 0.0000e+00 -1.0000e+00
      994  1    1    2    0    0 -1.3385384752e+01 +3.3812662417e+00 +3.1169242346e+00 1.3176234934e+02 1.3100000000e+02 0.0000e+00 0.0000e+00
      997  1    1    2    0    0 +6.0988033246e-01 +8.3230562640e+00 +4.1380018320e+02 4.1436727288e+02 2.0000000000e+01 0.0000e+00 0.0000e+00
</event>
<event>
 5      1 +2.3375200e-06 2.07452400e+02 7.95774700e-02 4.90711200e-01
       13 -1    0    0    0    0 +0.0000000000e+00 +0.0000000000e+00 +4.9999998884e+02 5.0000000000e+02 1.0566000000e-01 0.0000e+00 -1.0000e+00
      994 -1    0    0    0    0 -0.0000000000e+00 -0.0000000000e+00 +0.0000000000e+00 1.3100000000e+02 1.3100000000e+02 0.0000e+00 0.0000e+00
       13  1    1    2    0    0 -1.5068842515e+01 +7.0096370210e+01 +1.9745615763e+02 2.1007026558e+02 1.0566000000e-01 0.0000e+00 1.0000e+00
      994  1    1    2    0    0 +2.3444786350e+01 -8.0859158217e+01 +4.4779290483e+01 1.6203100423e+02 1.3100000000e+02 0.0000e+00 0.0000e+00
      997  1    1    2    0    0 -8.3759438349e+00 +1.0762788007e+01 +2.5776454073e+02 2.5889873020e+02 2.0000000000e+01 0.0000e+00 0.0000e+00
</event>
<event>
 5      1 +2.3375200e-06 2.07832100e+02 7.95774700e-02 4.90068900e-01
       13 -1    0    0    0    0 +0.0000000000e+00 +0.0000000000e+00 +4.9999998884e+02 5.0000000000e+02 1.0566000000e-01 0.0000e+00 1.0000e+00
      994 -1    0    0    0    0 -0.0000000000e+00 -0.0000000000e+00 +0.0000000000e+00 1.3100000000e+02 1.3100000000e+02 0.0000e+00 0.0000e+00
       13  1    1    2    0    0 +1.0318109014e+01 +1.0053473316e+01 +2.1812025455e+01 2.6140224135e+01 1.0566000000e-01 0.0000e+00 -1.0000e+00
      994  1    1    2    0    0 +1.2357160151e+01 +5.3684910611e+00 +6.3936038198e+00 1.3184611588e+02 1.3100000000e+02 0.0000e+00 0.0000e+00
      997  1    1    2    0    0 -2.2675269165e+01 -1.5421964378e+01 +4.7179435956e+02 4.7301365998e+02 2.0000000000e+01 0.0000e+00 0.0000e+00
</event>
<event>
 5      1 +2.3375200e-06 1.99148000e+02 7.95774700e-02 5.05549600e-01
       13 -1    0    0    0    0 +0.0000000000e+00 +0.0000000000e+00 +4.9999998884e+02 5.0000000000e+02 1.0566000000e-01 0.0000e+00 1.0000e+00
      994 -1    0    0    0    0 -0.0000000000e+00 -0.0000000000e+00 +0.0000000000e+00 1.3100000000e+02 1.3100000000e+02 0.0000e+00 0.0000e+00
       13  1    1    2    0    0 -1.0521187148e+01 +2.2911496343e+01 +1.7943276273e+01 3.0945183327e+01 1.0566000000e-01 0.0000e+00 -1.0000e+00
      994  1    1    2    0    0 +2.0900402639e+01 -2.7992582924e+01 +1.9560135620e+01 1.3698178870e+02 1.3100000000e+02 0.0000e+00 0.0000e+00
      997  1    1    2    0    0 -1.0379215491e+01 +5.0810865811e+00 +4.6249657694e+02 4.6307302798e+02 2.0000000000e+01 0.0000e+00 0.0000e+00
</event>
<event>
 5      1 +2.3375200e-06 2.10628300e+02 7.95774700e-02 4.85430100e-01
       13 -1    0    0    0    0 +0.0000000000e+00 +0.0000000000e+00 +4.9999998884e+02 5.0000000000e+02 1.0566000000e-01 0.0000e+00 -1.0000e+00
      994 -1    0    0    0    0 -0.0000000000e+00 -0.0000000000e+00 +0.0000000000e+00 1.3100000000e+02 1.3100000000e+02 0.0000e+00 0.0000e+00
       13  1    1    2    0    0 -4.7112031551e+00 -9.4133311131e+00 +1.8577982850e+01 2.1353192937e+01 1.0566000000e-01 0.0000e+00 1.0000e+00
      994  1    1    2    0    0 -7.3866583274e+00 +1.0213615119e+01 +4.0139556663e+00 1.3166621623e+02 1.3100000000e+02 0.0000e+00 0.0000e+00
      997  1    1    2    0    0 +1.2097861482e+01 -8.0028400573e-01 +4.7740805032e+02 4.7798059084e+02 2.0000000000e+01 0.0000e+00 0.0000e+00
</event>
<event>
 5      1 +2.3375200e-06 2.05113500e+02 7.95774700e-02 4.94734100e-01
       13 -1    0    0    0    0 +0.0000000000e+00 +0.0000000000e+00 +4.9999998884e+02 5.0000000000e+02 1.0566000000e-01 0.0000e+00 1.0000e+00
      994 -1    0    0    0    0 -0.0000000000e+00 -0.0000000000e+00 +0.0000000000e+00 1.3100000000e+02 1.3100000000e+02 0.0000e+00 0.0000e+00
       13  1    1    2    0    0 -2.0934330849e+01 +1.7965260720e+01 +4.9473462422e+01 5.6644783068e+01 1.0566000000e-01 0.0000e+00 -1.0000e+00
      994  1    1    2    0    0 +9.7827264917e-01 -2.4406084707e+01 +1.0821521900e+01 1.3369636990e+02 1.3100000000e+02 0.0000e+00 0.0000e+00
      997  1    1    2    0    0 +1.9956058200e+01 +6.4408239870e+00 +4.3970500451e+02 4.4065884703e+02 2.0000000000e+01 0.0000e+00 0.0000e+00
</event>
<event>
 5      1 +2.3375200e-06 2.00132800e+02 7.95774700e-02 5.03706400e-01
       13 -1    0    0    0    0 +0.0000000000e+00 +0.0000000000e+00 +4.9999998884e+02 5.0000000000e+02 1.0566000000e-01 0.0000e+00 -1.0000e+00
      994 -1    0    0    0    0 -0.0000000000e+00 -0.0000000000e+00 +0.0000000000e+00 1.3100000000e+02 1.3100000000e+02 0.0000e+00 0.0000e+00
       13  1    1    2    0    0 -1.5230618139e+01 -2.1843900882e+01 +3.1790140018e+01 4.1469891500e+01 1.0566000000e-01 0.0000e+00 1.0000e+00
      994  1    1    2    0    0 -6.4140234410e+00 -6.0612118279e+00 +1.2360321181e+01 1.3187742614e+02 1.3100000000e+02 0.0000e+00 0.0000e+00
      997  1    1    2    0    0 +2.1644641580e+01 +2.7905112710e+01 +4.5584952764e+02 4.5765268236e+02 2.0000000000e+01 0.0000e+00 0.0000e+00
</event>
<event>
 5      1 +2.3375200e-06 2.06685800e+02 7.95774700e-02 4.92016900e-01
       13 -1    0    0    0    0 +0.0000000000e+00 +0.0000000000e+00 +4.9999998884e+02 5.0000000000e+02 1.0566000000e-01 0.0000e+00 -1.0000e+00
      994 -1    0    0    0    0 -0.0000000000e+00 -0.0000000000e+00 +0.0000000000e+00 1.3100000000e+02 1.3100000000e+02 0.0000e+00 0.0000e+00
       13  1    1    2    0    0 +6.7223712328e+00 +1.9070032475e+01 +3.2843333313e+01 3.8568797242e+01 1.0566000000e-01 0.0000e+00 1.0000e+00
      994  1    1    2    0    0 -3.6677451258e+00 -7.2911474600e+00 +6.7476015524e+00 1.3142733092e+02 1.3100000000e+02 0.0000e+00 0.0000e+00
      997  1    1    2    0    0 -3.0546261070e+00 -1.1778885015e+01 +4.6040905397e+02 4.6100387184e+02 2.0000000000e+01 0.0000e+00 0.0000e+00
</event>
<event>
 5      1 +2.3375200e-06 2.10175800e+02 7.95774700e-02 4.86170200e-01
       13 -1    0    0    0    0 +0.0000000000e+00 +0.0000000000e+00 +4.9999998884e+02 5.0000000000e+02 1.0566000000e-01 0.0000e+00 -1.0000e+00
      994 -1    0    0    0    0 -0.0000000000e+00 -0.0000000000e+00 +0.0000000000e+00 1.3100000000e+02 1.3100000000e+02 0.0000e+00 0.0000e+00
       13  1    1    2    0    0 -6.6868920247e+00 +2.0878685055e+01 +9.5871422457e+01 9.8346198821e+01 1.0566000000e-01 0.0000e+00 1.0000e+00
      994  1    1    2    0    0 -6.8221876140e+00 -3.1613802907e+00 +3.8655003129e+00 1.3127253582e+02 1.3100000000e+02 0.0000e+00 0.0000e+00
      997  1    1    2    0    0 +1.3509079639e+01 -1.7717304764e+01 +4.0026306607e+02 4.0138126535e+02 2.0000000000e+01 0.0000e+00 0.0000e+00
</event>
<event>
 5      1 +2.3375200e-06 2.10021300e+02 7.95774700e-02 4.86423800e-01
       13 -1    0    0    0    0 +0.0000000000e+00 +0.0000000000e+00 +4.9999998884e+02 5.0000000000e+02 1.0566000000e-01 0.0000e+00 1.0000e+00
      994 -1    0    0    0    0 -0.0000000000e+00 -0.0000000000e+00 +0.0000000000e+00 1.3100000000e+02 1.3100000000e+02 0.0000e+00 0.0000e+00
       13  1    1    2    0    0 -1.3824865591e+01 -1.5316633941e+01 +6.9912797115e+01 7.2894009002e+01 1.0566000000e-01 0.0000e+00 -1.0000e+00
      994  1    1    2    0    0 +1.0625080770e+01 -9.3406724293e-01 +4.2752904159e+00 1.3150301491e+02 1.3100000000e+02 0.0000e+00 0.0000e+00
      997  1    1    2    0    0 +3.1997848210e+00 +1.6250701184e+01 +4.2581190130e+02 4.2660297609e+02 2.0000000000e+01 0.0000e+00 0.0000e+00
</event>
<event>
 5      1 +2.3375200e-06 2.10949000e+02 7.95774700e-02 4.84908200e-01
       13 -1    0    0    0    0 +0.0000000000e+00 +0.0000000000e+00 +4.9999998884e+02 5.0000000000e+02 1.0566000000e-01 0.0000e+00 1.0000e+00
      994 -1    0    0    0    0 -0.0000000000e+00 -0.0000000000e+00 +0.0000000000e+00 1.3100000000e+02 1.3100000000e+02 0.0000e+00 0.0000e+00
       13  1    1    2    0    0 -1.4958806570e+01 +4.4543344461e+00 +4.6701743382e+01 4.9240948288e+01 1.0566000000e-01 0.0000e+00 -1.0000e+00
      994  1    1    2    0    0 +1.3031962137e+01 +9.3641813076e+00 +4.2484443785e+00 1.3204760205e+02 1.3100000000e+02 0.0000e+00 0.0000e+00
      997  1    1    2    0    0 +1.9268444333e+00 -1.3818515754e+01 +4.4904980108e+02 4.4971144966e+02 2.0000000000e+01 0.0000e+00 0.0000e+00
</event>
<event>
 5      1 +2.3375200e-06 1.94855600e+02 7.95774700e-02 5.13869500e-01
       13 -1    0    0    0    0 +0.0000000000e+00 +0.0000000000e+00 +4.9999998884e+02 5.0000000000e+02 1.0566000000e-01 0.0000e+00 -1.0000e+00
      994 -1    0    0    0    0 -0.0000000000e+00 -0.0000000000e+00 +0.0000000000e+00 1.3100000000e+02 1.3100000000e+02 0.0000e+00 0.0000e+00
       13  1    1    2    0    0 +1.6886741859e+01 +9.2458888074e+00 -4.6371193246e-01 1.9258107468e+01 1.0566000000e-01 0.0000e+00 1.0000e+00
      994  1    1    2    0    0 +6.8153835001e+00 -4.5809464074e+01 +3.4297027131e+01 1.4311618539e+02 1.3100000000e+02 0.0000e+00 0.0000e+00
      997  1    1    2    0    0 -2.3702125359e+01 +3.6563575266e+01 +4.6616667364e+02 4.6862570714e+02 2.0000000000e+01 0.0000e+00 0.0000e+00
</event>
<event>
 5      1 +2.3375200e-06 2.05489500e+02 7.95774700e-02 4.94079400e-01
       13 -1    0    0    0    0 +0.0000000000e+00 +0.0000000000e+00 +4.9999998884e+02 5.0000000000e+02 1.0566000000e-01 0.0000e+00 -1.0000e+00
      994 -1    0    0    0    0 -0.0000000000e+00 -0.0000000000e+00 +0.0000000000e+00 1.3100000000e+02 1.3100000000e+02 0.0000e+00 0.0000e+00
       13  1    1    2    0    0 +2.4237287583e+01 +1.2752307798e+00 +3.7411887982e+01 4.4595211058e+01 1.0566000000e-01 0.0000e+00 1.0000e+00
      994  1    1    2    0    0 -1.9983823635e+01 -1.2508205788e+01 +1.0285923709e+01 1.3350134324e+02 1.3100000000e+02 0.0000e+00 0.0000e+00
      997  1    1    2    0    0 -4.2534639477e+00 +1.1232975008e+01 +4.5230217714e+02 4.5290344571e+02 2.0000000000e+01 0.0000e+00 0.0000e+00
</event>
<event>
 5      1 +2.3375200e-06 1.98458800e+02 7.95774700e-02 5.06853700e-01
       13 -1    0    0    0    0 +0.0000000000e+00 +0.0000000000e+00 +4.9999998884e+02 5.0000000000e+02 1.0566000000e-01 0.0000e+00 1.0000e+00
      994 -1    0    0    0    0 -0.0000000000e+00 -0.0000000000e+00 +0.0000000000e+00 1.3100000000e+02 1.3100000000e+02 0.0000e+00 0.0000e+00
       13  1    1    2    0    0 -3.0063593395e+01 -6.8149469452e-01 +3.1493792841e+01 4.3544853133e+01 1.0566000000e-01 0.0000e+00 -1.0000e+00
      994  1    1    2    0    0 +1.0977360501e+01 +1.5904021012e+01 +1.5466880105e+01 1.3331790843e+02 1.3100000000e+02 0.0000e+00 0.0000e+00
      997  1    1    2    0    0 +1.9086232894e+01 -1.5222526317e+01 +4.5303931589e+02 4.5413723844e+02 2.0000000000e+01 0.0000e+00 0.0000e+00
</event>
<event>
 5      1 +2.3375200e-06 2.11196400e+02 7.95774700e-02 4.84506700e-01
       13 -1    0    0    0    0 +0.0000000000e+00 +0.0000000000e+00 +4.9999998884e+02 5.0000000000e+02 1.0566000000e-01 0.0000e+00 1.0000e+00
      994 -1    0    0    0    0 -0.0000000000e+00 -0.0000000000e+00 +0.0000000000e+00 1.3100000000e+02 1.3100000000e+02 0.0000e+00 0.0000e+00
       13  1    1    2    0    0 +2.0476255064e+01 -1.3217572256e+01 +9.6027716145e+01 9.9072269934e+01 1.0566000000e-01 0.0000e+00 -1.0000e+00
      994  1    1    2    0    0 -1.3339447348e+01 +3.5750422013e+01 +1.0075299146e+01 1.3681573441e+02 1.3100000000e+02 0.0000e+00 0.0000e+00
      997  1    1    2    0    0 -7.1368077154e+00 -2.2532849757e+01 +3.9389697354e+02 3.9511199565e+02 2.0000000000e+01 0.0000e+00 0.0000e+00
</event>
<event>
 5      1 +2.3375200e-06 2.10988500e+02 7.95774700e-02 4.84843900e-01
       13 -1    0    0    0    0 +0.0000000000e+00 +0.0000000000e+00 +4.9999998884e+02 5.0000000000e+02 1.0566000000e-01 0.0000e+00 -1.0000e+00
      994 -1    0    0    0    0 -0.0000000000e+00 -0.0000000000e+00 +0.0000000000e+00 1.3100000000e+02 1.3100000000e+02 0.0000e+00 0.0000e+00
       13  1    1    2    0    0 -1.1615209702e+01 -3.9988136539e+01 +1.7113800451e+02 1.7613117814e+02 1.0566000000e-01 0.0000e+00 1.0000e+00
      994  1    1    2    0    0 +8.7892593870e-01 +5.6081091185e+01 +1.9003721440e+01 1.4376370449e+02 1.3100000000e+02 0.0000e+00 0.0000e+00
      997  1    1    2    0    0 +1.0736283763e+01 -1.6092954646e+01 +3.0985826289e+02 3.1110511738e+02 2.0000000000e+01 0.0000e+00 0.0000e+00
</event>
<event>
 5      1 +2.3375200e-06 2.08546400e+02 7.95774700e-02 4.88869000e-01
       13 -1    0    0    0    0 +0.0000000000e+00 +0.0000000000e+00 +4.9999998884e+02 5.0000000000e+02 1.0566000000e-01 0.0000e+00 -1.0000e+00
      994 -1    0    0    0    0 -0.0000000000e+00 -0.0000000000e+00 +0.0000000000e+00 1.3100000000e+02 1.3100000000e+02 0.0000e+00 0.0000e+00
       13  1    1    2    0    0 -1.5037941639e+01 +3.6177915469e+01 +1.3903917072e+02 1.4445374144e+02 1.0566000000e-01 0.0000e+00 1.0000e+00
      994  1    1    2    0    0 +9.2269276331e+00 -3.3034661283e+01 +1.0901510243e+01 1.3585384781e+02 1.3100000000e+02 0.0000e+00 0.0000e+00
      997  1    1    2    0    0 +5.8110140059e+00 -3.1432541862e+00 +3.5005930787e+02 3.5069241075e+02 2.0000000000e+01 0.0000e+00 0.0000e+00
</event>
<event>
 5      1 +2.3375200e-06 2.10658500e+02 7.95774700e-02 4.85381000e-01
       13 -1    0    0    0    0 +0.0000000000e+00 +0.0000000000e+00 +4.9999998884e+02 5.0000000000e+02 1.0566000000e-01 0.0000e+00 1.0000e+00
      994 -1    0    0    0    0 -0.0000000000e+00 -0.0000000000e+00 +0.0000000000e+00 1.3100000000e+02 1.3100000000e+02 0.0000e+00 0.0000e+00
       13  1    1    2    0    0 +8.3160590106e+00 +1.3576763635e+01 +4.8741005210e+01 5.1275550715e+01 1.0566000000e-01 0.0000e+00 -1.0000e+00
      994  1    1    2    0    0 +5.0791390119e+00 -6.7246191540e+00 +3.5523743685e+00 1.3131883916e+02 1.3100000000e+02 0.0000e+00 0.0000e+00
      997  1    1    2    0    0 -1.3395198023e+01 -6.8521444812e+00 +4.4770660926e+02 4.4840561012e+02 2.0000000000e+01 0.0000e+00 0.0000e+00
</event>
<event>
 5      1 +2.3375200e-06 2.04166900e+02 7.95774700e-02 4.96396000e-01
       13 -1    0    0    0    0 +0.0000000000e+00 +0.0000000000e+00 +4.9999998884e+02 5.0000000000e+02 1.0566000000e-01 0.0000e+00 1.0000e+00
      994 -1    0    0    0    0 -0.0000000000e+00 -0.0000000000e+00 +0.0000000000e+00 1.3100000000e+02 1.3100000000e+02 0.0000e+00 0.0000e+00
       13  1    1    2    0    0 -1.0026596399e+01 +4.2363391058e+01 +1.0112525485e+02 1.1009776505e+02 1.0566000000e-01 0.0000e+00 -1.0000e+00
      994  1    1    2    0    0 -3.7755042770e+00 -3.7370821532e+01 +1.5988535007e+01 1.3721321360e+02 1.3100000000e+02 0.0000e+00 0.0000e+00
      997  1    1    2    0    0 +1.3802100676e+01 -4.9925695265e+00 +3.8288619898e+02 3.8368902135e+02 2.0000000000e+01 0.0000e+00 0.0000e+00
</event>
<event>
 5      1 +2.3375200e-06 2.10315900e+02 7.95774700e-02 4.85940700e-01
       13 -1    0    0    0    0 +0.0000000000e+00 +0.0000000000e+00 +4.9999998884e+02 5.0000000000e+02 1.0566000000e-01 0.0000e+00 1.0000e+00
      994 -1    0    0    0    0 -0.0000000000e+00 -0.0000000000e+00 +0.0000000000e+00 1.3100000000e+02 1.3100000000e+02 0.0000e+00 0.0000e+00
       13  1    1    2    0    0 -1.6493063118e+01 +5.0293747323e+00 +4.0436328750e+01 4.3959340169e+01 1.0566000000e-01 0.0000e+00 -1.0000e+00
      994  1    1    2    0    0 +2.2000916661e+01 -9.1623549755e+00 +6.3162803964e+00 1.3329997930e+02 1.3100000000e+02 0.0000e+00 0.0000e+00
      997  1    1    2    0    0 -5.5078535432e+00 +4.1329802432e+00 +4.5324737969e+02 4.5374068053e+02 2.0000000000e+01 0.0000e+00 0.0000e+00
</event>
<event>
 5      1 +2.3375200e-06 2.05194400e+02 7.95774700e-02 4.94592900e-01
       13 -1    0    0    0    0 +0.0000000000e+00 +0.0000000000e+00 +4.9999998884e+02 5.0000000000e+02 1.0566000000e-01 0.0000e+00 -1.0000e+00
      994 -1    0    0    0    0 -0.0000000000e+00 -0.0000000000e+00 +0.0000000000e+00 1.3100000000e+02 1.3100000000e+02 0.0000e+00 0.0000e+00
       13  1    1    2    0    0 +3.0946551663e+01 -2.9483900229e+01 +2.2839458252e+02 2.3235981994e+02 1.0566000000e-01 0.0000e+00 1.0000e+00
      994  1    1    2    0    0 +1.0018385583e+01 +2.1661595995e+01 +1.0610253521e+01 1.3357833009e+02 1.3100000000e+02 0.0000e+00 0.0000e+00
      997  1    1    2    0    0 -4.0964937246e+01 +7.8223042335e+00 +2.6099515280e+02 2.6506184997e+02 2.0000000000e+01 0.0000e+00 0.0000e+00
</event>
<event>
 5      1 +2.3375200e-06 2.07934900e+02 7.95774700e-02 4.89895700e-01
       13 -1    0    0    0    0 +0.0000000000e+00 +0.0000000000e+00 +4.9999998884e+02 5.0000000000e+02 1.0566000000e-01 0.0000e+00 1.0000e+00
      994 -1    0    0    0    0 -0.0000000000e+00 -0.0000000000e+00 +0.0000000000e+00 1.3100000000e+02 1.3100000000e+02 0.0000e+00 0.0000e+00
       13  1    1    2    0    0 +1.7568091584e+01 +3.1621153815e+00 +3.7424661145e+01 4.1463878755e+01 1.0566000000e-01 0.0000e+00 -1.0000e+00
      994  1    1    2    0    0 +1.0304068043e+01 +7.0025726836e+00 +6.1754262614e+00 1.3173589386e+02 1.3100000000e+02 0.0000e+00 0.0000e+00
      997  1    1    2    0    0 -2.7872159626e+01 -1.0164688065e+01 +4.5639990143e+02 4.5780022738e+02 2.0000000000e+01 0.0000e+00 0.0000e+00
</event>
<event>
 5      1 +2.3375200e-06 1.98055500e+02 7.95774700e-02 5.07622300e-01
       13 -1    0    0    0    0 +0.0000000000e+00 +0.0000000000e+00 +4.9999998884e+02 5.0000000000e+02 1.0566000000e-01 0.0000e+00 1.0000e+00
      994 -1    0    0    0    0 -0.0000000000e+00 -0.0000000000e+00 +0.0000000000e+00 1.3100000000e+02 1.3100000000e+02 0.0000e+00 0.0000e+00
       13  1    1    2    0    0 +1.1490231426e+01 -5.1285719786e+01 +3.7039201040e+01 6.4297465346e+01 1.0566000000e-01 0.0000e+00 -1.0000e+00
      994  1    1    2    0    0 +2.3522842933e+00 +6.7442217225e+01 +5.4370977173e+01 1.5707064991e+02 1.3100000000e+02 0.0000e+00 0.0000e+00
      997  1    1    2    0    0 -1.3842515719e+01 -1.6156497439e+01 +4.0858981062e+02 4.0963188474e+02 2.0000000000e+01 0.0000e+00 0.0000e+00
</event>
<event>
 5      1 +2.3375200e-06 1.17775300e+02 7.95774700e-02 8.54119300e-01
       13 -1    0    0    0    0 +0.0000000000e+00 +0.0000000000e+00 +4.9999998884e+02 5.0000000000e+02 1.0566000000e-01 0.0000e+00 1.0000e+00
      994 -1    0    0    0    0 -0.0000000000e+00 -0.0000000000e+00 +0.0000000000e+00 1.3100000000e+02 1.3100000000e+02 0.0000e+00 0.0000e+00
       13  1    1    2    0    0 -3.3044857133e+01 +2.3130302843e+01 -1.6239514554e+01 4.3482254881e+01 1.0566000000e-01 0.0000e+00 -1.0000e+00
      994  1    1    2    0    0 +4.0991047342e+00 +2.6275881153e+01 +1.0014210413e+02 1.6702294935e+02 1.3100000000e+02 0.0000e+00 0.0000e+00
      997  1    1    2    0    0 +2.8945752399e+01 -4.9406183996e+01 +4.1609739926e+02 4.2049479577e+02 2.0000000000e+01 0.0000e+00 0.0000e+00
</event>
<event>
 5      1 +2.3375200e-06 2.11681500e+02 7.95774700e-02 4.83723200e-01
       13 -1    0    0    0    0 +0.0000000000e+00 +0.0000000000e+00 +4.9999998884e+02 5.0000000000e+02 1.0566000000e-01 0.0000e+00 -1.0000e+00
      994 -1    0    0    0    0 -0.0000000000e+00 -0.0000000000e+00 +0.0000000000e+00 1.3100000000e+02 1.3100000000e+02 0.0000e+00 0.0000e+00
       13  1    1    2    0    0 -8.6931396013e+00 -8.5791779148e+00 +4.8748017184e+01 5.0254883476e+01 1.0566000000e-01 0.0000e+00 1.0000e+00
      994  1    1    2    0    0 -5.6793055897e+00 -6.9334705414e+00 +2.7862198430e+00 1.3133579309e+02 1.3100000000e+02 0.0000e+00 0.0000e+00
      997  1    1    2    0    0 +1.4372445191e+01 +1.5512648456e+01 +4.4846575181e+02 4.4940932343e+02 2.0000000000e+01 0.0000e+00 0.0000e+00
</event>
<event>
 5      1 +2.3375200e-06 2.13406500e+02 7.95774700e-02 4.80973100e-01
       13 -1    0    0    0    0 +0.0000000000e+00 +0.0000000000e+00 +4.9999998884e+02 5.0000000000e+02 1.0566000000e-01 0.0000e+00 1.0000e+00
      994 -1    0    0    0    0 -0.0000000000e+00 -0.0000000000e+00 +0.0000000000e+00 1.3100000000e+02 1.3100000000e+02 0.0000e+00 0.0000e+00
       13  1    1    2    0    0 +8.6769251949e+00 +6.3319927273e+00 +6.2504064234e+01 6.3420441283e+01 1.0566000000e-01 0.0000e+00 -1.0000e+00
      994  1    1    2    0    0 -1.0838596117e+01 -2.4361081355e+01 +4.5206056024e+00 1.3376237635e+02 1.3100000000e+02 0.0000e+00 0.0000e+00
      997  1    1    2    0    0 +2.1616709225e+00 +1.8029088628e+01 +4.3297531900e+02 4.3381718237e+02 2.0000000000e+01 0.0000e+00 0.0000e+00
</event>
<event>
 5      1 +2.3375200e-06 2.10810400e+02 7.95774700e-02 4.85133500e-01
       13 -1    0    0    0    0 +0.0000000000e+00 +0.0000000000e+00 +4.9999998884e+02 5.0000000000e+02 1.0566000000e-01 0.0000e+00 1.0000e+00
      994 -1    0    0    0    0 -0.0000000000e+00 -0.0000000000e+00 +0.0000000000e+00 1.3100000000e+02 1.3100000000e+02 0.0000e+00 0.0000e+00
       13  1    1    2    0    0 +1.6681802730e+01 -3.2910219813e+01 +1.8621225687e+02 1.8983250745e+02 1.0566000000e-01 0.0000e+00 -1.0000e+00
      994  1    1    2    0    0 -8.4781912916e+00 +3.4993823846e+01 +9.5907698779e+00 1.3619629327e+02 1.3100000000e+02 0.0000e+00 0.0000e+00
      997  1    1    2    0    0 -8.2036114380e+00 -2.0836040335e+00 +3.0419696208e+02 3.0497119928e+02 2.0000000000e+01 0.0000e+00 0.0000e+00
</event>
<event>
 5      1 +2.3375200e-06 2.11908300e+02 7.95774700e-02 4.83358300e-01
       13 -1    0    0    0    0 +0.0000000000e+00 +0.0000000000e+00 +4.9999998884e+02 5.0000000000e+02 1.0566000000e-01 0.0000e+00 -1.0000e+00
      994 -1    0    0    0    0 -0.0000000000e+00 -0.0000000000e+00 +0.0000000000e+00 1.3100000000e+02 1.3100000000e+02 0.0000e+00 0.0000e+00
       13  1    1    2    0    0 -1.0880658681e+01 +2.8380268600e+00 +3.0621889735e+01 3.2621379873e+01 1.0566000000e-01 0.0000e+00 1.0000e+00
      994  1    1    2    0    0 +1.6187906129e+01 -1.0530403482e+00 +3.5094440830e+00 1.3204723926e+02 1.3100000000e+02 0.0000e+00 0.0000e+00
      997  1    1    2    0    0 -5.3072474473e+00 -1.7849865118e+00 +4.6586865502e+02 4.6633138087e+02 2.0000000000e+01 0.0000e+00 0.0000e+00
</event>
<event>
 5      1 +2.3375200e-06 2.04417700e+02 7.95774700e-02 4.95953700e-01
       13 -1    0    0    0    0 +0.0000000000e+00 +0.0000000000e+00 +4.9999998884e+02 5.0000000000e+02 1.0566000000e-01 0.0000e+00 -1.0000e+00
      994 -1    0    0    0    0 -0.0000000000e+00 -0.0000000000e+00 +0.0000000000e+00 1.3100000000e+02 1.3100000000e+02 0.0000e+00 0.0000e+00
       13  1    1    2    0    0 -1.9013144321e+01 -4.9284414333e+01 +3.0249219735e+02 3.0707001445e+02 1.0566000000e-01 0.0000e+00 1.0000e+00
      994  1    1    2    0    0 -1.9916423871e+01 +3.8945491447e+01 +1.8480893577e+01 1.3934115929e+02 1.3100000000e+02 0.0000e+00 0.0000e+00
      997  1    1    2    0    0 +3.8929568192e+01 +1.0338922886e+01 +1.7902689791e+02 1.8458882626e+02 2.0000000000e+01 0.0000e+00 0.0000e+00
</event>
<event>
 5      1 +2.3375200e-06 2.05827700e+02 7.95774700e-02 4.93493300e-01
       13 -1    0    0    0    0 +0.0000000000e+00 +0.0000000000e+00 +4.9999998884e+02 5.0000000000e+02 1.0566000000e-01 0.0000e+00 1.0000e+00
      994 -1    0    0    0    0 -0.0000000000e+00 -0.0000000000e+00 +0.0000000000e+00 1.3100000000e+02 1.3100000000e+02 0.0000e+00 0.0000e+00
       13  1    1    2    0    0 +1.1537906643e+01 -1.6737087004e+00 +7.2638762695e+00 1.3736799227e+01 1.0566000000e-01 0.0000e+00 -1.0000e+00
      994  1    1    2    0    0 -5.6646862420e+00 -1.0064914282e+01 +7.8019957162e+00 1.3173937265e+02 1.3100000000e+02 0.0000e+00 0.0000e+00
      997  1    1    2    0    0 -5.8732204008e+00 +1.1738622982e+01 +4.8493411685e+02 4.8552382812e+02 2.0000000000e+01 0.0000e+00 0.0000e+00
</event>
<event>
 5      1 +2.3375200e-06 2.12451500e+02 7.95774700e-02 4.82488600e-01
       13 -1    0    0    0    0 +0.0000000000e+00 +0.0000000000e+00 +4.9999998884e+02 5.0000000000e+02 1.0566000000e-01 0.0000e+00 1.0000e+00
      994 -1    0    0    0    0 -0.0000000000e+00 -0.0000000000e+00 +0.0000000000e+00 1.3100000000e+02 1.3100000000e+02 0.0000e+00 0.0000e+00
       13  1    1    2    0    0 +1.0513057431e+01 -3.7533875518e+00 +3.8293041306e+01 3.9887096550e+01 1.0566000000e-01 0.0000e+00 -1.0000e+00
      994  1    1    2    0    0 -2.5892505246e+01 -1.6305324789e+01 +6.4123986208e+00 1.3467889330e+02 1.3100000000e+02 0.0000e+00 0.0000e+00
      997  1    1    2    0    0 +1.5379447815e+01 +2.0058712341e+01 +4.5529454891e+02 4.5643401015e+02 2.0000000000e+01 0.0000e+00 0.0000e+00
</event>
<event>
 5      1 +2.3375200e-06 2.07107300e+02 7.95774700e-02 4.91297400e-01
       13 -1    0    0    0    0 +0.0000000000e+00 +0.0000000000e+00 +4.9999998884e+02 5.0000000000e+02 1.0566000000e-01 0.0000e+00 -1.0000e+00
      994 -1    0    0    0    0 -0.0000000000e+00 -0.0000000000e+00 +0.0000000000e+00 1.3100000000e+02 1.3100000000e+02 0.0000e+00 0.0000e+00
       13  1    1    2    0    0 -2.2666091898e+01 -7.6037212227e+00 +7.8396137726e+01 8.1960562912e+01 1.0566000000e-01 0.0000e+00 1.0000e+00
      994  1    1    2    0    0 -1.2053056805e+01 -2.3122227355e+01 +9.5580231456e+00 1.3391142365e+02 1.3100000000e+02 0.0000e+00 0.0000e+00
      997  1    1    2    0    0 +3.4719148703e+01 +3.0725948578e+01 +4.1204582796e+02 4.1512801344e+02 2.0000000000e+01 0.0000e+00 0.0000e+00
</event>
<event>
 5      1 +2.3375200e-06 2.12672800e+02 7.95774700e-02 4.82135900e-01
       13 -1    0    0    0    0 +0.0000000000e+00 +0.0000000000e+00 +4.9999998884e+02 5.0000000000e+02 1.0566000000e-01 0.0000e+00 -1.0000e+00
      994 -1    0    0    0    0 -0.0000000000e+00 -0.0000000000e+00 +0.0000000000e+00 1.3100000000e+02 1.3100000000e+02 0.0000e+00 0.0000e+00
       13  1    1    2    0    0 +2.8746684683e+01 -1.3338882875e+01 +1.3883782825e+02 1.4240874761e+02 1.0566000000e-01 0.0000e+00 1.0000e+00
      994  1    1    2    0    0 -5.3194161576e+01 +2.4892834754e+01 +1.9039965868e+01 1.4481986172e+02 1.3100000000e+02 0.0000e+00 0.0000e+00
      997  1    1    2    0    0 +2.4447476893e+01 -1.1553951879e+01 +3.4212219472e+02 3.4377139068e+02 2.0000000000e+01 0.0000e+00 0.0000e+00
</event>
<event>
 5      1 +2.3375200e-06 2.09717900e+02 7.95774700e-02 4.86923200e-01
       13 -1    0    0    0    0 +0.0000000000e+00 +0.0000000000e+00 +4.9999998884e+02 5.0000000000e+02 1.0566000000e-01 0.0000e+00 -1.0000e+00
      994 -1    0    0    0    0 -0.0000000000e+00 -0.0000000000e+00 +0.0000000000e+00 1.3100000000e+02 1.3100000000e+02 0.0000e+00 0.0000e+00
       13  1    1    2    0    0 +1.1694326904e+01 +2.6824531952e-02 +1.6736218378e+01 2.0417398730e+01 1.0566000000e-01 0.0000e+00 1.0000e+00
      994  1    1    2    0    0 -1.4488972695e+01 +8.4013148423e+00 +5.3568001739e+00 1.3217491339e+02 1.3100000000e+02 0.0000e+00 0.0000e+00
      997  1    1    2    0    0 +2.7946457909e+00 -8.4281393743e+00 +4.7790697028e+02 4.7840768788e+02 2.0000000000e+01 0.0000e+00 0.0000e+00
</event>
<event>
 5      1 +2.3375200e-06 2.08879500e+02 7.95774700e-02 4.88312800e-01
       13 -1    0    0    0    0 +0.0000000000e+00 +0.0000000000e+00 +4.9999998884e+02 5.0000000000e+02 1.0566000000e-01 0.0000e+00 -1.0000e+00
      994 -1    0    0    0    0 -0.0000000000e+00 -0.0000000000e+00 +0.0000000000e+00 1.3100000000e+02 1.3100000000e+02 0.0000e+00 0.0000e+00
       13  1    1    2    0    0 +3.4482759558e+01 -2.0256340263e+01 +2.1880421094e+02 2.2242903119e+02 1.0566000000e-01 0.0000e+00 1.0000e+00
      994  1    1    2    0    0 -3.1864797649e+01 -6.1593963886e+00 +9.9827885194e+00 1.3532907877e+02 1.3100000000e+02 0.0000e+00 0.0000e+00
      997  1    1    2    0    0 -2.6179619088e+00 +2.6415736651e+01 +2.7121298938e+02 2.7324189004e+02 2.0000000000e+01 0.0000e+00 0.0000e+00
</event>
<event>
 5      1 +2.3375200e-06 2.01151600e+02 7.95774700e-02 5.01824200e-01
       13 -1    0    0    0    0 +0.0000000000e+00 +0.0000000000e+00 +4.9999998884e+02 5.0000000000e+02 1.0566000000e-01 0.0000e+00 1.0000e+00
      994 -1    0    0    0    0 -0.0000000000e+00 -0.0000000000e+00 +0.0000000000e+00 1.3100000000e+02 1.3100000000e+02 0.0000e+00 0.0000e+00
       13  1    1    2    0    0 +2.8099828291e+00 -1.7118924352e+01 +9.4204517880e+00 1.9741065077e+01 1.0566000000e-01 0.0000e+00 -1.0000e+00
      994  1    1    2    0    0 +3.3462626516e+00 +1.3097215895e+01 +1.2039601313e+01 1.3224479777e+02 1.3100000000e+02 0.0000e+00 0.0000e+00
      997  1    1    2    0    0 -6.1562454807e+00 +4.0217084570e+00 +4.7853993573e+02 4.7901413715e+02 2.0000000000e+01 0.0000e+00 0.0000e+00
</event>
<event>
 5      1 +2.3375200e-06 2.09655100e+02 7.95774700e-02 4.87026900e-01
       13 -1    0    0    0    0 +0.0000000000e+00 +0.0000000000e+00 +4.9999998884e+02 5.0000000000e+02 1.0566000000e-01 0.0000e+00 1.0000e+00
      994 -1    0    0    0    0 -0.0000000000e+00 -0.0000000000e+00 +0.0000000000e+00 1.3100000000e+02 1.3100000000e+02 0.0000e+00 0.0000e+00
       13  1    1    2    0    0 -1.5428768662e+01 -9.6955211650e+00 +4.8293715687e+01 5.1617285593e+01 1.0566000000e-01 0.0000e+00 -1.0000e+00
      994  1    1    2    0    0 +7.7509376696e+00 -2.7355618303e+00 +4.3379636220e+00 1.3132927420e+02 1.3100000000e+02 0.0000e+00 0.0000e+00
      997  1    1    2    0    0 +7.6778309923e+00 +1.2431082995e+01 +4.4736830953e+02 4.4805344021e+02 2.0000000000e+01 0.0000e+00 0.0000e+00
</event>
<event>
 5      1 +2.3375200e-06 1.96961500e+02 7.95774700e-02 5.09728200e-01
       13 -1    0    0    0    0 +0.0000000000e+00 +0.0000000000e+00 +4.9999998884e+02 5.0000000000e+02 1.0566000000e-01 0.0000e+00 -1.0000e+00
      994 -1    0    0    0    0 -0.0000000000e+00 -0.0000000000e+00 +0.0000000000e+00 1.3100000000e+02 1.3100000000e+02 0.0000e+00 0.0000e+00
       13  1    1    2    0    0 +6.4576815906e+01 +3.2659405865e+01 +1.1769239869e+02 1.3816046402e+02 1.0566000000e-01 0.0000e+00 1.0000e+00
      994  1    1    2    0    0 -6.8550024311e+01 -3.2594695052e+01 +4.9326221054e+01 1.5923440602e+02 1.3100000000e+02 0.0000e+00 0.0000e+00
      997  1    1    2    0    0 +3.9732084052e+00 -6.4710813074e-02 +3.3298136909e+02 3.3360512995e+02 2.0000000000e+01 0.0000e+00 0.0000e+00
</event>
<event>
 5      1 +2.3375200e-06 2.06393600e+02 7.95774700e-02 4.92517800e-01
       13 -1    0    0    0    0 +0.0000000000e+00 +0.0000000000e+00 +4.9999998884e+02 5.0000000000e+02 1.0566000000e-01 0.0000e+00 -1.0000e+00
      994 -1    0    0    0    0 -0.0000000000e+00 -0.0000000000e+00 +0.0000000000e+00 1.3100000000e+02 1.3100000000e+02 0.0000e+00 0.0000e+00
       13  1    1    2    0    0 -1.5377576712e+01 -1.1727563944e+01 +2.8020732093e+01 3.4046706341e+01 1.0566000000e-01 0.0000e+00 1.0000e+00
      994  1    1    2    0    0 +9.6183285843e+00 +2.5125768014e+00 +7.1542243408e+00 1.3157130467e+02 1.3100000000e+02 0.0000e+00 0.0000e+00
      997  1    1    2    0    0 +5.7592481273e+00 +9.2149871427e+00 +4.6482503240e+02 4.6538198899e+02 2.0000000000e+01 0.0000e+00 0.0000e+00
</event>
<event>
 5      1 +2.3375200e-06 2.07970300e+02 7.95774700e-02 4.89836000e-01
       13 -1    0    0    0    0 +0.0000000000e+00 +0.0000000000e+00 +4.9999998884e+02 5.0000000000e+02 1.0566000000e-01 0.0000e+00 1.0000e+00
      994 -1    0    0    0    0 -0.0000000000e+00 -0.0000000000e+00 +0.0000000000e+00 1.3100000000e+02 1.3100000000e+02 0.0000e+00 0.0000e+00
       13  1    1    2    0    0 -1.7478622101e+01 -8.3276425517e+00 +3.8098124142e+01 4.2735583396e+01 1.0566000000e-01 0.0000e+00 -1.0000e+00
      994  1    1    2    0    0 +3.4550512142e+00 +5.8898563776e+00 +5.5943605163e+00 1.3129708548e+02 1.3100000000e+02 0.0000e+00 0.0000e+00
      997  1    1    2    0    0 +1.4023570887e+01 +2.4377861740e+00 +4.5630750418e+02 4.5696733112e+02 2.0000000000e+01 0.0000e+00 0.0000e+00
</event>
<event>
 5      1 +2.3375200e-06 2.13011200e+02 7.95774700e-02 4.81598300e-01
       13 -1    0    0    0    0 +0.0000000000e+00 +0.0000000000e+00 +4.9999998884e+02 5.0000000000e+02 1.0566000000e-01 0.0000e+00 -1.0000e+00
      994 -1    0    0    0    0 -0.0000000000e+00 -0.0000000000e+00 +0.0000000000e+00 1.3100000000e+02 1.3100000000e+02 0.0000e+00 0.0000e+00
       13  1    1    2    0    0 -6.3527853390e+00 +1.2979854206e+01 +7.5577692891e+01 7.6946951360e+01 1.0566000000e-01 0.0000e+00 1.0000e+00
      994  1    1    2    0    0 -6.7633961704e+00 -3.4597869899e+01 +7.4803346887e+00 1.3586652103e+02 1.3100000000e+02 0.0000e+00 0.0000e+00
      997  1    1    2    0    0 +1.3116181509e+01 +2.1618015693e+01 +4.1694196126e+02 4.1818652761e+02 2.0000000000e+01 0.0000e+00 0.0000e+00
</event>
<event>
 5      1 +2.3375200e-06 1.95018800e+02 7.95774700e-02 5.13544400e-01
       13 -1    0    0    0    0 +0.0000000000e+00 +0.0000000000e+00 +4.9999998884e+02 5.0000000000e+02 1.0566000000e-01 0.0000e+00 1.0000e+00
      994 -1    0    0    0    0 -0.0000000000e+00 -0.0000000000e+00 +0.0000000000e+00 1.3100000000e+02 1.3100000000e+02 0.0000e+00 0.0000e+00
       13  1    1    2    0    0 +6.6766646484e+01 -3.9596089771e+01 +1.0673638540e+02 1.3197841695e+02 1.0566000000e-01 0.0000e+00 -1.0000e+00
      994  1    1    2    0    0 -6.3353279488e+01 +6.9270896346e+01 +7.3305217673e+01 1.7705013426e+02 1.3100000000e+02 0.0000e+00 0.0000e+00
      997  1    1    2    0    0 -3.4133669960e+00 -2.9674806575e+01 +3.1995838576e+02 3.2197144879e+02 2.0000000000e+01 0.0000e+00 0.0000e+00
</event>
<event>
 5      1 +2.3375200e-06 2.08285000e+02 7.95774700e-02 4.89306900e-01
       13 -1    0    0    0    0 +0.0000000000e+00 +0.0000000000e+00 +4.9999998884e+02 5.0000000000e+02 1.0566000000e-01 0.0000e+00 -1.0000e+00
      994 -1    0    0    0    0 -0.0000000000e+00 -0.0000000000e+00 +0.0000000000e+00 1.3100000000e+02 1.3100000000e+02 0.0000e+00 0.0000e+00
       13  1    1    2    0    0 +3.2100369510e+01 -6.6799414308e+00 +1.3651896591e+02 1.4040119144e+02 1.0566000000e-01 0.0000e+00 1.0000e+00
      994  1    1    2    0    0 -1.0971822269e+01 -2.4353694506e-01 +5.7129086806e+00 1.3158296820e+02 1.3100000000e+02 0.0000e+00 0.0000e+00
      997  1    1    2    0    0 -2.1128547242e+01 +6.9234783758e+00 +3.5776811424e+02 3.5901584036e+02 2.0000000000e+01 0.0000e+00 0.0000e+00
</event>
<event>
 5      1 +2.3375200e-06 2.10222500e+02 7.95774700e-02 4.86093700e-01
       13 -1    0    0    0    0 +0.0000000000e+00 +0.0000000000e+00 +4.9999998884e+02 5.0000000000e+02 1.0566000000e-01 0.0000e+00 -1.0000e+00
      994 -1    0    0    0    0 -0.0000000000e+00 -0.0000000000e+00 +0.0000000000e+00 1.3100000000e+02 1.3100000000e+02 0.0000e+00 0.0000e+00
       13  1    1    2    0    0 -7.1258933293e-01 -2.3304044957e+01 +7.2178398903e+01 7.5850634322e+01 1.0566000000e-01 0.0000e+00 1.0000e+00
      994  1    1    2    0    0 -8.9252757854e+00 +2.5596510001e+01 +7.2348448151e+00 1.3397083582e+02 1.3100000000e+02 0.0000e+00 0.0000e+00
      997  1    1    2    0    0 +9.6378651183e+00 -2.2924650449e+00 +4.2058674512e+02 4.2117852985e+02 2.0000000000e+01 0.0000e+00 0.0000e+00
</event>
<event>
 5      1 +2.3375200e-06 2.09537400e+02 7.95774700e-02 4.87221300e-01
       13 -1    0    0    0    0 +0.0000000000e+00 +0.0000000000e+00 +4.9999998884e+02 5.0000000000e+02 1.0566000000e-01 0.0000e+00 -1.0000e+00
      994 -1    0    0    0    0 -0.0000000000e+00 -0.0000000000e+00 +0.0000000000e+00 1.3100000000e+02 1.3100000000e+02 0.0000e+00 0.0000e+00
       13  1    1    2    0    0 +7.6694369074e+00 -7.1019273007e+00 +1.2589141575e+01 1.6363229617e+01 1.0566000000e-01 0.0000e+00 1.0000e+00
      994  1    1    2    0    0 -4.2003339752e+00 +1.3854605264e+01 +5.1462867879e+00 1.3189798012e+02 1.3100000000e+02 0.0000e+00 0.0000e+00
      997  1    1    2    0    0 -3.4691029321e+00 -6.7526779629e+00 +4.8226456047e+02 4.8273879026e+02 2.0000000000e+01 0.0000e+00 0.0000e+00
</event>
<event>
 5      1 +2.3375200e-06 2.11959800e+02 7.95774700e-02 4.83275600e-01
       13 -1    0    0    0    0 +0.0000000000e+00 +0.0000000000e+00 +4.9999998884e+02 5.0000000000e+02 1.0566000000e-01 0.0000e+00 1.0000e+00
      994 -1    0    0    0    0 -0.0000000000e+00 -0.0000000000e+00 +0.0000000000e+00 1.3100000000e+02 1.3100000000e+02 0.0000e+00 0.0000e+00
       13  1    1    2    0    0 -9.9451769028e+00 +1.4071026088e+00 +5.5225008372e+01 5.6131089382e+01 1.0566000000e-01 0.0000e+00 -1.0000e+00
      994  1    1    2    0    0 -2.7093695834e+01 -2.0380196496e+01 +7.8846223317e+00 1.3554552015e+02 1.3100000000e+02 0.0000e+00 0.0000e+00
      997  1    1    2    0    0 +3.7038872736e+01 +1.8973093887e+01 +4.3689035813e+02 4.3932339047e+02 2.0000000000e+01 0.0000e+00 0.0000e+00
</event>
<event>
 5      1 +2.3375200e-06 2.09458300e+02 7.95774700e-02 4.87352000e-01
       13 -1    0    0    0    0 +0.0000000000e+00 +0.0000000000e+00 +4.9999998884e+02 5.0000000000e+02 1.0566000000e-01 0.0000e+00 -1.0000e+00
      994 -1    0    0    0    0 -0.0000000000e+00 -0.0000000000e+00 +0.0000000000e+00 1.3100000000e+02 1.3100000000e+02 0.0000e+00 0.0000e+00
       13  1    1    2    0    0 -7.8810292464e+00 -8.8652279556e+00 +1.6551233935e+01 2.0363138203e+01 1.0566000000e-01 0.0000e+00 1.0000e+00
      994  1    1    2    0    0 +3.1023820288e+00 +1.2674578021e+01 +5.0124005529e+00 1.3174366725e+02 1.3100000000e+02 0.0000e+00 0.0000e+00
      997  1    1    2    0    0 +4.7786472176e+00 -3.8093500653e+00 +4.7843635435e+02 4.7889319454e+02 2.0000000000e+01 0.0000e+00 0.0000e+00
</event>
<event>
 5      1 +2.3375200e-06 1.97721200e+02 7.95774700e-02 5.08262600e-01
       13 -1    0    0    0    0 +0.0000000000e+00 +0.0000000000e+00 +4.9999998884e+02 5.0000000000e+02 1.0566000000e-01 0.0000e+00 -1.0000e+00
      994 -1    0    0    0    0 -0.0000000000e+00 -0.0000000000e+00 +0.0000000000e+00 1.3100000000e+02 1.3100000000e+02 0.0000e+00 0.0000e+00
       13  1    1    2    0    0 -2.8081105351e+01 -3.1000557415e+01 +4.7763733647e+01 6.3489908283e+01 1.0566000000e-01 0.0000e+00 1.0000e+00
      994  1    1    2    0    0 +2.6323951272e+01 +4.3709413237e+01 +2.8923024619e+01 1.4353050048e+02 1.3100000000e+02 0.0000e+00 0.0000e+00
      997  1    1    2    0    0 +1.7571540794e+00 -1.2708855822e+01 +4.2331323057e+02 4.2397959123e+02 2.0000000000e+01 0.0000e+00 0.0000e+00
</event>
<event>
 5      1 +2.3375200e-06 2.11968900e+02 7.95774700e-02 4.83261000e-01
       13 -1    0    0    0    0 +0.0000000000e+00 +0.0000000000e+00 +4.9999998884e+02 5.0000000000e+02 1.0566000000e-01 0.0000e+00 1.0000e+00
      994 -1    0    0    0    0 -0.0000000000e+00 -0.0000000000e+00 +0.0000000000e+00 1.3100000000e+02 1.3100000000e+02 0.0000e+00 0.0000e+00
       13  1    1    2    0    0 -1.2600644693e+01 +5.3988065221e+00 +4.2855672245e+01 4.4994923782e+01 1.0566000000e-01 0.0000e+00 -1.0000e+00
      994  1    1    2    0    0 +2.0163678137e+01 -1.0196546150e+01 +4.6865497903e+00 1.3301694335e+02 1.3100000000e+02 0.0000e+00 0.0000e+00
      997  1    1    2    0    0 -7.5630334433e+00 +4.7977396281e+00 +4.5245776680e+02 4.5298813287e+02 2.0000000000e+01 0.0000e+00 0.0000e+00
</event>
<event>
 5      1 +2.3375200e-06 2.08583100e+02 7.95774700e-02 4.88807600e-01
       13 -1    0    0    0    0 +0.0000000000e+00 +0.0000000000e+00 +4.9999998884e+02 5.0000000000e+02 1.0566000000e-01 0.0000e+00 1.0000e+00
      994 -1    0    0    0    0 -0.0000000000e+00 -0.0000000000e+00 +0.0000000000e+00 1.3100000000e+02 1.3100000000e+02 0.0000e+00 0.0000e+00
       13  1    1    2    0    0 +1.0328584844e+01 -1.6377234663e+01 +3.5406319268e+01 4.0354827323e+01 1.0566000000e-01 0.0000e+00 -1.0000e+00
      994  1    1    2    0    0 -4.1672153907e+00 +2.6784163716e+01 +8.5981406651e+00 1.3405105420e+02 1.3100000000e+02 0.0000e+00 0.0000e+00
      997  1    1    2    0    0 -6.1613694533e+00 -1.0406929052e+01 +4.5599552890e+02 4.5659411847e+02 2.0000000000e+01 0.0000e+00 0.0000e+00
</event>
<event>
 5      1 +2.3375200e-06 2.00692800e+02 7.95774700e-02 5.02668800e-01
       13 -1    0    0    0    0 +0.0000000000e+00 +0.0000000000e+00 +4.9999998884e+02 5.0000000000e+02 1.0566000000e-01 0.0000e+00 -1.0000e+00
      994 -1    0    0    0    0 -0.0000000000e+00 -0.0000000000e+00 +0.0000000000e+00 1.3100000000e+02 1.3100000000e+02 0.0000e+00 0.0000e+00
       13  1    1    2    0    0 +1.3168505646e+01 +2.4397720806e+01 +3.2290230688e+01 4.2559704926e+01 1.0566000000e-01 0.0000e+00 1.0000e+00
      994  1    1    2    0    0 -2.6774007251e+01 +3.5226408766e+00 +1.5415406047e+01 1.3463985742e+02 1.3100000000e+02 0.0000e+00 0.0000e+00
      997  1    1    2    0    0 +1.3605501604e+01 -2.7920361683e+01 +4.5229435210e+02 4.5380043765e+02 2.0000000000e+01 0.0000e+00 0.0000e+00
</event>
<event>
 5      1 +2.3375200e-06 2.07907300e+02 7.95774700e-02 4.89942000e-01
       13 -1    0    0    0    0 +0.0000000000e+00 +0.0000000000e+00 +4.9999998884e+02 5.0000000000e+02 1.0566000000e-01 0.0000e+00 -1.0000e+00
      994 -1    0    0    0    0 -0.0000000000e+00 -0.0000000000e+00 +0.0000000000e+00 1.3100000000e+02 1.3100000000e+02 0.0000e+00 0.0000e+00
       13  1    1    2    0    0 -2.1740996755e+01 +5.2592008289e-01 +5.0751166900e+01 5.5214487569e+01 1.0566000000e-01 0.0000e+00 1.0000e+00
      994  1    1    2    0    0 +3.3081677562e+00 +7.0714978190e+00 +5.7183814348e+00 1.3135695620e+02 1.3100000000e+02 0.0000e+00 0.0000e+00
      997  1    1    2    0    0 +1.8432828999e+01 -7.5974179019e+00 +4.4353044050e+02 4.4442855623e+02 2.0000000000e+01 0.0000e+00 0.0000e+00
</event>
<event>
 5      1 +2.3375200e-06 1.98892400e+02 7.95774700e-02 5.06031800e-01
       13 -1    0    0    0    0 +0.0000000000e+00 +0.0000000000e+00 +4.9999998884e+02 5.0000000000e+02 1.0566000000e-01 0.0000e+00 1.0000e+00
      994 -1    0    0    0    0 -0.0000000000e+00 -0.0000000000e+00 +0.0000000000e+00 1.3100000000e+02 1.3100000000e+02 0.0000e+00 0.0000e+00
       13  1    1    2    0    0 +4.3590113890e+01 -2.8091054222e+01 +1.8227738488e+02 1.8951058429e+02 1.0566000000e-01 0.0000e+00 -1.0000e+00
      994  1    1    2    0    0 +5.7263609699e+00 +8.2361863589e+00 +1.3574516422e+01 1.3208290378e+02 1.3100000000e+02 0.0000e+00 0.0000e+00
      997  1    1    2    0    0 -4.9316474860e+01 +1.9854867863e+01 +3.0414808754e+02 3.0940651193e+02 2.0000000000e+01 0.0000e+00 0.0000e+00
</event>
<event>
 5      1 +2.3375200e-06 2.11939600e+02 7.95774700e-02 4.83308000e-01
       13 -1    0    0    0    0 +0.0000000000e+00 +0.0000000000e+00 +4.9999998884e+02 5.0000000000e+02 1.0566000000e-01 0.0000e+00 1.0000e+00
      994 -1    0    0    0    0 -0.0000000000e+00 -0.0000000000e+00 +0.0000000000e+00 1.3100000000e+02 1.3100000000e+02 0.0000e+00 0.0000e+00
       13  1    1    2    0    0 +1.1789472033e+01 -3.3757688471e+00 +4.4039168235e+01 4.5714844077e+01 1.0566000000e-01 0.0000e+00 -1.0000e+00
      994  1    1    2    0    0 -2.2866543601e+00 +8.0505940443e+00 +2.5315414506e+00 1.3129146794e+02 1.3100000000e+02 0.0000e+00 0.0000e+00
      997  1    1    2    0    0 -9.5028176731e+00 -4.6748251972e+00 +4.5342927915e+02 4.5399368798e+02 2.0000000000e+01 0.0000e+00 0.0000e+00
</event>
<event>
 5      1 +2.3375200e-06 2.00354500e+02 7.95774700e-02 5.03294800e-01
       13 -1    0    0    0    0 +0.0000000000e+00 +0.0000000000e+00 +4.9999998884e+02 5.0000000000e+02 1.0566000000e-01 0.0000e+00 1.0000e+00
      994 -1    0    0    0    0 -0.0000000000e+00 -0.0000000000e+00 +0.0000000000e+00 1.3100000000e+02 1.3100000000e+02 0.0000e+00 0.0000e+00
       13  1    1    2    0    0 -4.9013293285e+01 -2.2769847328e+01 +9.8943780403e+01 1.1274152611e+02 1.0566000000e-01 0.0000e+00 -1.0000e+00
      994  1    1    2    0    0 +3.9306212276e+01 +3.9599560475e+01 +2.9190044041e+01 1.4534841652e+02 1.3100000000e+02 0.0000e+00 0.0000e+00
      997  1    1    2    0    0 +9.7070810085e+00 -1.6829713147e+01 +3.7186616439e+02 3.7291005737e+02 2.0000000000e+01 0.0000e+00 0.0000e+00
</event>
<event>
 5      1 +2.3375200e-06 1.97138200e+02 7.95774700e-02 5.09386100e-01
       13 -1    0    0    0    0 +0.0000000000e+00 +0.0000000000e+00 +4.9999998884e+02 5.0000000000e+02 1.0566000000e-01 0.0000e+00 -1.0000e+00
      994 -1    0    0    0    0 -0.0000000000e+00 -0.0000000000e+00 +0.0000000000e+00 1.3100000000e+02 1.3100000000e+02 0.0000e+00 0.0000e+00
       13  1    1    2    0    0 -2.9833152892e+01 +1.7660178778e+01 +3.2090418291e+01 4.7240925436e+01 1.0566000000e-01 0.0000e+00 1.0000e+00
      994  1    1    2    0    0 +3.1577804527e+01 -2.4633329212e+01 +2.3674553818e+01 1.3901598162e+02 1.3100000000e+02 0.0000e+00 0.0000e+00
      997  1    1    2    0    0 -1.7446516349e+00 +6.9731504341e+00 +4.4423501673e+02 4.4474309295e+02 2.0000000000e+01 0.0000e+00 0.0000e+00
</event>
<event>
 5      1 +2.3375200e-06 2.13682100e+02 7.95774700e-02 4.80538800e-01
       13 -1    0    0    0    0 +0.0000000000e+00 +0.0000000000e+00 +4.9999998884e+02 5.0000000000e+02 1.0566000000e-01 0.0000e+00 1.0000e+00
      994 -1    0    0    0    0 -0.0000000000e+00 -0.0000000000e+00 +0.0000000000e+00 1.3100000000e+02 1.3100000000e+02 0.0000e+00 0.0000e+00
       13  1    1    2    0    0 -1.4816103416e+01 +3.9801717788e+00 +6.8067635697e+01 6.9775159486e+01 1.0566000000e-01 0.0000e+00 -1.0000e+00
      994  1    1    2    0    0 +6.5511318742e+01 -1.3199629012e+00 +2.2522218703e+01 1.4819489033e+02 1.3100000000e+02 0.0000e+00 0.0000e+00
      997  1    1    2    0    0 -5.0695215326e+01 -2.6602088776e+00 +4.0941013444e+02 4.1302995018e+02 2.0000000000e+01 0.0000e+00 0.0000e+00
</event>
<event>
 5      1 +2.3375200e-06 2.06900300e+02 7.95774700e-02 4.91650300e-01
       13 -1    0    0    0    0 +0.0000000000e+00 +0.0000000000e+00 +4.9999998884e+02 5.0000000000e+02 1.0566000000e-01 0.0000e+00 1.0000e+00
      994 -1    0    0    0    0 -0.0000000000e+00 -0.0000000000e+00 +0.0000000000e+00 1.3100000000e+02 1.3100000000e+02 0.0000e+00 0.0000e+00
       13  1    1    2    0    0 +6.1069051394e+00 -2.9139265511e+01 +8.2177826164e+01 8.7404790269e+01 1.0566000000e-01 0.0000e+00 -1.0000e+00
      994  1    1    2    0    0 -2.1240783982e+01 +6.6622544279e+00 +8.7787263447e+00 1.3316764838e+02 1.3100000000e+02 0.0000e+00 0.0000e+00
      997  1    1    2    0    0 +1.5133878842e+01 +2.2477011083e+01 +4.0904343633e+02 4.1042756135e+02 2.0000000000e+01 0.0000e+00 0.0000e+00
</event>
<event>
 5      1 +2.3375200e-06 2.09220500e+02 7.95774700e-02 4.87746000e-01
       13 -1    0    0    0    0 +0.0000000000e+00 +0.0000000000e+00 +4.9999998884e+02 5.0000000000e+02 1.0566000000e-01 0.0000e+00 -1.0000e+00
      994 -1    0    0    0    0 -0.0000000000e+00 -0.0000000000e+00 +0.0000000000e+00 1.3100000000e+02 1.3100000000e+02 0.0000e+00 0.0000e+00
       13  1    1    2    0    0 -1.9748576888e+01 +1.7885050194e+01 +1.3754221667e+02 1.4009908579e+02 1.0566000000e-01 0.0000e+00 1.0000e+00
      994  1    1    2    0    0 -6.0695844390e+00 -3.5986069023e+00 +4.5983283409e+00 1.3127046298e+02 1.3100000000e+02 0.0000e+00 0.0000e+00
      997  1    1    2    0    0 +2.5818161327e+01 -1.4286443292e+01 +3.5785944383e+02 3.5963045123e+02 2.0000000000e+01 0.0000e+00 0.0000e+00
</event>
<event>
 5      1 +2.3375200e-06 2.11916500e+02 7.95774700e-02 4.83345200e-01
       13 -1    0    0    0    0 +0.0000000000e+00 +0.0000000000e+00 +4.9999998884e+02 5.0000000000e+02 1.0566000000e-01 0.0000e+00 1.0000e+00
      994 -1    0    0    0    0 -0.0000000000e+00 -0.0000000000e+00 +0.0000000000e+00 1.3100000000e+02 1.3100000000e+02 0.0000e+00 0.0000e+00
       13  1    1    2    0    0 -6.5858967628e+00 -8.0786089303e+00 +3.2036042193e+01 3.3689124682e+01 1.0566000000e-01 0.0000e+00 -1.0000e+00
      994  1    1    2    0    0 +8.5314798944e+00 -5.8885343561e+00 +2.7342094083e+00 1.3143795832e+02 1.3100000000e+02 0.0000e+00 0.0000e+00
      997  1    1    2    0    0 -1.9455831316e+00 +1.3967143286e+01 +4.6522973724e+02 4.6587291700e+02 2.0000000000e+01 0.0000e+00 0.0000e+00
</event>
<event>
 5      1 +2.3375200e-06 2.03100200e+02 7.95774700e-02 4.98292500e-01
       13 -1    0    0    0    0 +0.0000000000e+00 +0.0000000000e+00 +4.9999998884e+02 5.0000000000e+02 1.0566000000e-01 0.0000e+00 1.0000e+00
      994 -1    0    0    0    0 -0.0000000000e+00 -0.0000000000e+00 +0.0000000000e+00 1.3100000000e+02 1.3100000000e+02 0.0000e+00 0.0000e+00
       13  1    1    2    0    0 -1.7611167947e+01 -5.9571441138e+01 +1.5380471665e+02 1.6587589295e+02 1.0566000000e-01 0.0000e+00 -1.0000e+00
      994  1    1    2    0    0 +3.9901470428e+01 +4.9244991410e+01 +3.1575298004e+01 1.4891338410e+02 1.3100000000e+02 0.0000e+00 0.0000e+00
      997  1    1    2    0    0 -2.2290302481e+01 +1.0326449728e+01 +3.1461997419e+02 3.1621072294e+02 2.0000000000e+01 0.0000e+00 0.0000e+00
</event>
<event>
 5      1 +2.3375200e-06 2.09437900e+02 7.95774700e-02 4.87385800e-01
       13 -1    0    0    0    0 +0.0000000000e+00 +0.0000000000e+00 +4.9999998884e+02 5.0000000000e+02 1.0566000000e-01 0.0000e+00 -1.0000e+00
      994 -1    0    0    0    0 -0.0000000000e+00 -0.0000000000e+00 +0.0000000000e+00 1.3100000000e+02 1.3100000000e+02 0.0000e+00 0.0000e+00
       13  1    1    2    0    0 -9.7236577721e+00 -1.7668415088e+01 +9.1069752217e+01 9.3276113475e+01 1.0566000000e-01 0.0000e+00 1.0000e+00
      994  1    1    2    0    0 -1.0851553171e+01 -1.3391557610e+01 +5.6678593049e+00 1.3225057524e+02 1.3100000000e+02 0.0000e+00 0.0000e+00
      997  1    1    2    0    0 +2.0575210943e+01 +3.1059972698e+01 +4.0326237731e+02 4.0547331129e+02 2.0000000000e+01 0.0000e+00 0.0000e+00
</event>
<event>
 5      1 +2.3375200e-06 1.94178000e+02 7.95774700e-02 5.15227400e-01
       13 -1    0    0    0    0 +0.0000000000e+00 +0.0000000000e+00 +4.9999998884e+02 5.0000000000e+02 1.0566000000e-01 0.0000e+00 -1.0000e+00
      994 -1    0    0    0    0 -0.0000000000e+00 -0.0000000000e+00 +0.0000000000e+00 1.3100000000e+02 1.3100000000e+02 0.0000e+00 0.0000e+00
       13  1    1    2    0    0 +5.7993714878e+01 -3.0810281089e+01 +1.8809316485e+02 1.9922749362e+02 1.0566000000e-01 0.0000e+00 1.0000e+00
      994  1    1    2    0    0 -9.5861969098e+00 +1.1471286382e+01 +1.8548727639e+01 1.3314856694e+02 1.3100000000e+02 0.0000e+00 0.0000e+00
      997  1    1    2    0    0 -4.8407517969e+01 +1.9338994707e+01 +2.9335809635e+02 2.9862393944e+02 2.0000000000e+01 0.0000e+00 0.0000e+00
</event>
<event>
 5      1 +2.3375200e-06 2.12289900e+02 7.95774700e-02 4.82746800e-01
       13 -1    0    0    0    0 +0.0000000000e+00 +0.0000000000e+00 +4.9999998884e+02 5.0000000000e+02 1.0566000000e-01 0.0000e+00 1.0000e+00
      994 -1    0    0    0    0 -0.0000000000e+00 -0.0000000000e+00 +0.0000000000e+00 1.3100000000e+02 1.3100000000e+02 0.0000e+00 0.0000e+00
       13  1    1    2    0    0 +7.0699903879e+00 +7.3538500906e+00 +3.9231100592e+01 4.0535839610e+01 1.0566000000e-01 0.0000e+00 -1.0000e+00
      994  1    1    2    0    0 +1.0219110592e+01 -7.8626068138e+00 +2.7286070716e+00 1.3166129311e+02 1.3100000000e+02 0.0000e+00 0.0000e+00
      997  1    1    2    0    0 -1.7289100980e+01 +5.0875672313e-01 +4.5804028117e+02 4.5880286728e+02 2.0000000000e+01 0.0000e+00 0.0000e+00
</event>
<event>
 5      1 +2.3375200e-06 2.11108000e+02 7.95774700e-02 4.84650000e-01
       13 -1    0    0    0    0 +0.0000000000e+00 +0.0000000000e+00 +4.9999998884e+02 5.0000000000e+02 1.0566000000e-01 0.0000e+00 1.0000e+00
      994 -1    0    0    0    0 -0.0000000000e+00 -0.0000000000e+00 +0.0000000000e+00 1.3100000000e+02 1.3100000000e+02 0.0000e+00 0.0000e+00
       13  1    1    2    0    0 +5.9567891243e+00 +1.6154615048e+01 +4.7995937744e+01 5.0990941627e+01 1.0566000000e-01 0.0000e+00 -1.0000e+00
      994  1    1    2    0    0 -1.6246342546e+01 -2.2451193038e+01 +6.6724221752e+00 1.3406536067e+02 1.3100000000e+02 0.0000e+00 0.0000e+00
      997  1    1    2    0    0 +1.0289553422e+01 +6.2965779896e+00 +4.4533162892e+02 4.4594369770e+02 2.0000000000e+01 0.0000e+00 0.0000e+00
</event>
<event>
 5      1 +2.3375200e-06 2.11331900e+02 7.95774700e-02 4.84287400e-01
       13 -1    0    0    0    0 +0.0000000000e+00 +0.0000000000e+00 +4.9999998884e+02 5.0000000000e+02 1.0566000000e-01 0.0000e+00 -1.0000e+00
      994 -1    0    0    0    0 -0.0000000000e+00 -0.0000000000e+00 +0.0000000000e+00 1.3100000000e+02 1.3100000000e+02 0.0000e+00 0.0000e+00
       13  1    1    2    0    0 -5.9253464594e+00 +2.5832783090e+01 +1.8072288685e+01 3.2078983700e+01 1.0566000000e-01 0.0000e+00 1.0000e+00
      994  1    1    2    0    0 +6.5082568676e+01 -1.5010920644e+02 +2.3017442967e+02 3.1130336117e+02 1.3100000000e+02 0.0000e+00 0.0000e+00
      997  1    1    2    0    0 -5.9157222217e+01 +1.2427642335e+02 +2.5175327048e+02 2.8761765513e+02 2.0000000000e+01 0.0000e+00 0.0000e+00
</event>
<event>
 5      1 +2.3375200e-06 2.00254000e+02 7.95774700e-02 5.03481300e-01
       13 -1    0    0    0    0 +0.0000000000e+00 +0.0000000000e+00 +4.9999998884e+02 5.0000000000e+02 1.0566000000e-01 0.0000e+00 1.0000e+00
      994 -1    0    0    0    0 -0.0000000000e+00 -0.0000000000e+00 +0.0000000000e+00 1.3100000000e+02 1.3100000000e+02 0.0000e+00 0.0000e+00
       13  1    1    2    0    0 +1.6940146522e+01 +2.9075756162e+01 +1.7651802427e+02 1.7969694548e+02 1.0566000000e-01 0.0000e+00 -1.0000e+00
      994  1    1    2    0    0 -7.4746803337e+01 +4.9126335373e+01 +5.9752784439e+01 1.6950479841e+02 1.3100000000e+02 0.0000e+00 0.0000e+00
      997  1    1    2    0    0 +5.7806656815e+01 -7.8202091535e+01 +2.6372918013e+02 2.8179825611e+02 2.0000000000e+01 0.0000e+00 0.0000e+00
</event>
<event>
 5      1 +2.3375200e-06 2.09798100e+02 7.95774700e-02 4.86791100e-01
       13 -1    0    0    0    0 +0.0000000000e+00 +0.0000000000e+00 +4.9999998884e+02 5.0000000000e+02 1.0566000000e-01 0.0000e+00 -1.0000e+00
      994 -1    0    0    0    0 -0.0000000000e+00 -0.0000000000e+00 +0.0000000000e+00 1.3100000000e+02 1.3100000000e+02 0.0000e+00 0.0000e+00
       13  1    1    2    0    0 +2.0253540689e+01 +4.5754482421e+00 +1.2288978177e+02 1.2463165836e+02 1.0566000000e-01 0.0000e+00 1.0000e+00
      994  1    1    2    0    0 +1.3954606783e+01 +1.0132226621e+01 +5.3766581652e+00 1.3223956110e+02 1.3100000000e+02 0.0000e+00 0.0000e+00
      997  1    1    2    0    0 -3.4208147472e+01 -1.4707674864e+01 +3.7173354890e+02 3.7412878054e+02 2.0000000000e+01 0.0000e+00 0.0000e+00
</event>
<event>
 5      1 +2.3375200e-06 2.11632700e+02 7.95774700e-02 4.83801800e-01
       13 -1    0    0    0    0 +0.0000000000e+00 +0.0000000000e+00 +4.9999998884e+02 5.0000000000e+02 1.0566000000e-01 0.0000e+00 -1.0000e+00
      994 -1    0    0    0    0 -0.0000000000e+00 -0.0000000000e+00 +0.0000000000e+00 1.3100000000e+02 1.3100000000e+02 0.0000e+00 0.0000e+00
       13  1    1    2    0    0 -4.4714954586e+00 +1.4046193378e+01 +7.7665974456e+01 7.9052543111e+01 1.0566000000e-01 0.0000e+00 1.0000e+00
      994  1    1    2    0    0 +5.5470998038e+00 +9.6480805023e+00 +3.0398638413e+00 1.3150702090e+02 1.3100000000e+02 0.0000e+00 0.0000e+00
      997  1    1    2    0    0 -1.0756043452e+00 -2.3694273881e+01 +4.1929415054e+02 4.2044043599e+02 2.0000000000e+01 0.0000e+00 0.0000e+00
</event>
<event>
 5      1 +2.3375200e-06 2.08066100e+02 7.95774700e-02 4.89674800e-01
       13 -1    0    0    0    0 +0.0000000000e+00 +0.0000000000e+00 +4.9999998884e+02 5.0000000000e+02 1.0566000000e-01 0.0000e+00 1.0000e+00
      994 -1    0    0    0    0 -0.0000000000e+00 -0.0000000000e+00 +0.0000000000e+00 1.3100000000e+02 1.3100000000e+02 0.0000e+00 0.0000e+00
       13  1    1    2    0    0 -5.4090447190e+00 +2.4439336069e+01 +5.1906642861e+01 5.7626813632e+01 1.0566000000e-01 0.0000e+00 -1.0000e+00
      994  1    1    2    0    0 +6.2571696918e+00 -3.0806436366e+01 +1.0338944239e+01 1.3511507119e+02 1.3100000000e+02 0.0000e+00 0.0000e+00
      997  1    1    2    0    0 -8.4812497287e-01 +6.3671002977e+00 +4.3775440174e+02 4.3825811518e+02 2.0000000000e+01 0.0000e+00 0.0000e+00
</event>
<event>
 5      1 +2.3375200e-06 2.11006500e+02 7.95774700e-02 4.84814800e-01
       13 -1    0    0    0    0 +0.0000000000e+00 +0.0000000000e+00 +4.9999998884e+02 5.0000000000e+02 1.0566000000e-01 0.0000e+00 -1.0000e+00
      994 -1    0    0    0    0 -0.0000000000e+00 -0.0000000000e+00 +0.0000000000e+00 1.3100000000e+02 1.3100000000e+02 0.0000e+00 0.0000e+00
       13  1    1    2    0    0 -1.7118123165e+01 -2.0616786001e+01 +8.0256361288e+01 8.4611918174e+01 1.0566000000e-01 0.0000e+00 1.0000e+00
      994  1    1    2    0    0 +1.1889791721e+01 +5.8529393400e+01 +2.1215340554e+01 1.4552713738e+02 1.3100000000e+02 0.0000e+00 0.0000e+00
      997  1    1    2    0    0 +5.2283314448e+00 -3.7912607399e+01 +3.9852828699e+02 4.0086094445e+02 2.0000000000e+01 0.0000e+00 0.0000e+00
</event>
<event>
 5      1 +2.3375200e-06 2.10082400e+02 7.95774700e-02 4.86323600e-01
       13 -1    0    0    0    0 +0.0000000000e+00 +0.0000000000e+00 +4.9999998884e+02 5.0000000000e+02 1.0566000000e-01 0.0000e+00 1.0000e+00
      994 -1    0    0    0    0 -0.0000000000e+00 -0.0000000000e+00 +0.0000000000e+00 1.3100000000e+02 1.3100000000e+02 0.0000e+00 0.0000e+00
       13  1    1    2    0    0 -1.1688146045e+01 +5.3777524242e+00 +2.7580235151e+01 3.0433756162e+01 1.0566000000e-01 0.0000e+00 -1.0000e+00
      994  1    1    2    0    0 -1.6784971896e+01 -2.6539546683e+01 +8.6250271298e+00 1.3498693979e+02 1.3100000000e+02 0.0000e+00 0.0000e+00
      997  1    1    2    0    0 +2.8473117941e+01 +2.1161794258e+01 +4.6379472656e+02 4.6557930405e+02 2.0000000000e+01 0.0000e+00 0.0000e+00
</event>
<event>
 5      1 +2.3375200e-06 2.07802800e+02 7.95774700e-02 4.90118400e-01
       13 -1    0    0    0    0 +0.0000000000e+00 +0.0000000000e+00 +4.9999998884e+02 5.0000000000e+02 1.0566000000e-01 0.0000e+00 1.0000e+00
      994 -1    0    0    0    0 -0.0000000000e+00 -0.0000000000e+00 +0.0000000000e+00 1.3100000000e+02 1.3100000000e+02 0.0000e+00 0.0000e+00
       13  1    1    2    0    0 +3.1405897264e+01 -4.3333295459e+01 +1.5729047424e+02 1.6614574725e+02 1.0566000000e-01 0.0000e+00 -1.0000e+00
      994  1    1    2    0    0 -4.6727840609e+01 +4.3481691602e+01 +2.7076204450e+01 1.4821696745e+02 1.3100000000e+02 0.0000e+00 0.0000e+00
      997  1    1    2    0    0 +1.5321943345e+01 -1.4839614339e-01 +3.1563331014e+02 3.1663728530e+02 2.0000000000e+01 0.0000e+00 0.0000e+00
</event>
<event>
 5      1 +2.3375200e-06 2.12098100e+02 7.95774700e-02 4.83053900e-01
       13 -1    0    0    0    0 +0.0000000000e+00 +0.0000000000e+00 +4.9999998884e+02 5.0000000000e+02 1.0566000000e-01 0.0000e+00 1.0000e+00
      994 -1    0    0    0    0 -0.0000000000e+00 -0.0000000000e+00 +0.0000000000e+00 1.3100000000e+02 1.3100000000e+02 0.0000e+00 0.0000e+00
       13  1    1    2    0    0 +6.2204054975e+01 -5.8151971114e+00 +2.1646531039e+02 2.2530069405e+02 1.0566000000e-01 0.0000e+00 -1.0000e+00
      994  1    1    2    0    0 -9.1984259358e+01 +1.2373229094e+01 +4.8299930983e+01 1.6765465726e+02 1.3100000000e+02 0.0000e+00 0.0000e+00
      997  1    1    2    0    0 +2.9780204384e+01 -6.5580319828e+00 +2.3523474746e+02 2.3804464869e+02 2.0000000000e+01 0.0000e+00 0.0000e+00
</event>
<event>
 5      1 +2.3375200e-06 2.11966300e+02 7.95774700e-02 4.83265200e-01
       13 -1    0    0    0    0 +0.0000000000e+00 +0.0000000000e+00 +4.9999998884e+02 5.0000000000e+02 1.0566000000e-01 0.0000e+00 -1.0000e+00
      994 -1    0    0    0    0 -0.0000000000e+00 -0.0000000000e+00 +0.0000000000e+00 1.3100000000e+02 1.3100000000e+02 0.0000e+00 0.0000e+00
       13  1    1    2    0    0 -2.1064151327e+01 -1.2104952609e+01 +1.1075430975e+02 1.1338763884e+02 1.0566000000e-01 0.0000e+00 1.0000e+00
      994  1    1    2    0    0 +4.1862416125e+01 -1.2854343120e+00 +1.0934535969e+01 1.3796622160e+02 1.3100000000e+02 0.0000e+00 0.0000e+00
      997  1    1    2    0    0 -2.0798264797e+01 +1.3390386921e+01 +3.7831114311e+02 3.7964613956e+02 2.0000000000e+01 0.0000e+00 0.0000e+00
</event>
<event>
 5      1 +2.3375200e-06 2.13179900e+02 7.95774700e-02 4.81331200e-01
       13 -1    0    0    0    0 +0.0000000000e+00 +0.0000000000e+00 +4.9999998884e+02 5.0000000000e+02 1.0566000000e-01 0.0000e+00 1.0000e+00
      994 -1    0    0    0    0 -0.0000000000e+00 -0.0000000000e+00 +0.0000000000e+00 1.3100000000e+02 1.3100000000e+02 0.0000e+00 0.0000e+00
       13  1    1    2    0    0 +1.3179807377e+01 -7.6084348151e+00 +6.6452134690e+01 6.8172523583e+01 1.0566000000e-01 0.0000e+00 -1.0000e+00
      994  1    1    2    0    0 -3.1274034736e+01 +3.3145301239e+01 +1.1530041086e+01 1.3917836790e+02 1.3100000000e+02 0.0000e+00 0.0000e+00
      997  1    1    2    0    0 +1.8094227359e+01 -2.5536866424e+01 +4.2201781306e+02 4.2364910852e+02 2.0000000000e+01 0.0000e+00 0.0000e+00
</event>
<event>
 5      1 +2.3375200e-06 2.07745700e+02 7.95774700e-02 4.90214800e-01
       13 -1    0    0    0    0 +0.0000000000e+00 +0.0000000000e+00 +4.9999998884e+02 5.0000000000e+02 1.0566000000e-01 0.0000e+00 -1.0000e+00
      994 -1    0    0    0    0 -0.0000000000e+00 -0.0000000000e+00 +0.0000000000e+00 1.3100000000e+02 1.3100000000e+02 0.0000e+00 0.0000e+00
       13  1    1    2    0    0 -7.6619030533e+01 -5.5841481397e+01 +2.1489838367e+02 2.3488310572e+02 1.0566000000e-01 0.0000e+00 1.0000e+00
      994  1    1    2    0    0 +8.1543768393e+01 +8.9314012825e+01 +9.5050441824e+01 2.0204446427e+02 1.3100000000e+02 0.0000e+00 0.0000e+00
      997  1    1    2    0    0 -4.9247378599e+00 -3.3472531428e+01 +1.9005116334e+02 1.9407243001e+02 2.0000000000e+01 0.0000e+00 0.0000e+00
</event>
<event>
 5      1 +2.3375200e-06 2.10994200e+02 7.95774700e-02 4.84834800e-01
       13 -1    0    0    0    0 +0.0000000000e+00 +0.0000000000e+00 +4.9999998884e+02 5.0000000000e+02 1.0566000000e-01 0.0000e+00 1.0000e+00
      994 -1    0    0    0    0 -0.0000000000e+00 -0.0000000000e+00 +0.0000000000e+00 1.3100000000e+02 1.3100000000e+02 0.0000e+00 0.0000e+00
       13  1    1    2    0    0 -6.2663920023e+00 +2.6614953300e+01 +1.1226498486e+02 1.1554679311e+02 1.0566000000e-01 0.0000e+00 -1.0000e+00
      994  1    1    2    0    0 +3.2799509636e+01 -2.6275086060e+01 +1.1831495301e+01 1.3808393194e+02 1.3100000000e+02 0.0000e+00 0.0000e+00
      997  1    1    2    0    0 -2.6533117634e+01 -3.3986723993e-01 +3.7590350867e+02 3.7736927495e+02 2.0000000000e+01 0.0000e+00 0.0000e+00
</event>
<event>
 5      1 +2.3375200e-06 2.10277300e+02 7.95774700e-02 4.86003800e-01
       13 -1    0    0    0    0 +0.0000000000e+00 +0.0000000000e+00 +4.9999998884e+02 5.0000000000e+02 1.0566000000e-01 0.0000e+00 -1.0000e+00
      994 -1    0    0    0    0 -0.0000000000e+00 -0.0000000000e+00 +0.0000000000e+00 1.3100000000e+02 1.3100000000e+02 0.0000e+00 0.0000e+00
       13  1    1    2    0    0 +1.4747774230e+01 +3.9817997816e+01 +1.4443618760e+02 1.5054830868e+02 1.0566000000e-01 0.0000e+00 1.0000e+00
      994  1    1    2    0    0 -1.6191119362e+01 -5.6186999443e+01 +2.1115779546e+01 1.4500347375e+02 1.3100000000e+02 0.0000e+00 0.0000e+00
      997  1    1    2    0    0 +1.4433451316e+00 +1.6369001626e+01 +3.3444802169e+02 3.3544821757e+02 2.0000000000e+01 0.0000e+00 0.0000e+00
</event>
<event>
 5      1 +2.3375200e-06 2.09879400e+02 7.95774700e-02 4.86657300e-01
       13 -1    0    0    0    0 +0.0000000000e+00 +0.0000000000e+00 +4.9999998884e+02 5.0000000000e+02 1.0566000000e-01 0.0000e+00 1.0000e+00
      994 -1    0    0    0    0 -0.0000000000e+00 -0.0000000000e+00 +0.0000000000e+00 1.3100000000e+02 1.3100000000e+02 0.0000e+00 0.0000e+00
       13  1    1    2    0    0 +1.1895082528e+01 -1.2864968537e+00 +1.9437569918e+01 2.2824950183e+01 1.0566000000e-01 0.0000e+00 -1.0000e+00
      994  1    1    2    0    0 -8.2525159252e+00 -4.5062042724e+00 +4.2623500962e+00 1.3140615482e+02 1.3100000000e+02 0.0000e+00 0.0000e+00
      997  1    1    2    0    0 -3.6425666028e+00 +5.7927011261e+00 +4.7630006882e+02 4.7676889500e+02 2.0000000000e+01 0.0000e+00 0.0000e+00
</event>
<event>
 5      1 +2.3375200e-06 2.08086300e+02 7.95774700e-02 4.89640600e-01
       13 -1    0    0    0    0 +0.0000000000e+00 +0.0000000000e+00 +4.9999998884e+02 5.0000000000e+02 1.0566000000e-01 0.0000e+00 -1.0000e+00
      994 -1    0    0    0    0 -0.0000000000e+00 -0.0000000000e+00 +0.0000000000e+00 1.3100000000e+02 1.3100000000e+02 0.0000e+00 0.0000e+00
       13  1    1    2    0    0 +1.8972684698e+01 -1.6620753452e+01 +6.3226124776e+01 6.8071772624e+01 1.0566000000e-01 0.0000e+00 1.0000e+00
      994  1    1    2    0    0 -1.6943514128e+01 +4.5996520636e+00 +6.8308310899e+00 1.3234764722e+02 1.3100000000e+02 0.0000e+00 0.0000e+00
      997  1    1    2    0    0 -2.0291705702e+00 +1.2021101388e+01 +4.2994303297e+02 4.3058058016e+02 2.0000000000e+01 0.0000e+00 0.0000e+00
</event>
<event>
 5      1 +2.3375200e-06 2.08297000e+02 7.95774700e-02 4.89286600e-01
       13 -1    0    0    0    0 +0.0000000000e+00 +0.0000000000e+00 +4.9999998884e+02 5.0000000000e+02 1.0566000000e-01 0.0000e+00 -1.0000e+00
      994 -1    0    0    0    0 -0.0000000000e+00 -0.0000000000e+00 +0.0000000000e+00 1.3100000000e+02 1.3100000000e+02 0.0000e+00 0.0000e+00
       13  1    1    2    0    0 +1.0069778651e+01 -1.0627278523e+01 +2.3558338270e+01 2.7737086310e+01 1.0566000000e-01 0.0000e+00 1.0000e+00
      994  1    1    2    0    0 +1.2517861569e+00 -6.0637088429e+00 +5.2868779923e+00 1.3125275849e+02 1.3100000000e+02 0.0000e+00 0.0000e+00
      997  1    1    2    0    0 -1.1321564808e+01 +1.6690987366e+01 +4.7115477257e+02 4.7201015520e+02 2.0000000000e+01 0.0000e+00 0.0000e+00
</event>
<event>
 5      1 +2.3375200e-06 2.05055600e+02 7.95774700e-02 4.94835100e-01
       13 -1    0    0    0    0 +0.0000000000e+00 +0.0000000000e+00 +4.9999998884e+02 5.0000000000e+02 1.0566000000e-01 0.0000e+00 1.0000e+00
      994 -1    0    0    0    0 -0.0000000000e+00 -0.0000000000e+00 +0.0000000000e+00 1.3100000000e+02 1.3100000000e+02 0.0000e+00 0.0000e+00
       13  1    1    2    0    0 +7.1246030681e+00 +3.0804290811e+01 +6.4385443440e+01 7.1729776190e+01 1.0566000000e-01 0.0000e+00 -1.0000e+00
      994  1    1    2    0    0 -1.1090302192e+01 -1.8250420949e+01 +1.0133086678e+01 1.3311555925e+02 1.3100000000e+02 0.0000e+00 0.0000e+00
      997  1    1    2    0    0 +3.9656991241e+00 -1.2553869863e+01 +4.2548145872e+02 4.2615466456e+02 2.0000000000e+01 0.0000e+00 0.0000e+00
</event>
<event>
 5      1 +2.3375200e-06 2.08880700e+02 7.95774700e-02 4.88310900e-01
       13 -1    0    0    0    0 +0.0000000000e+00 +0.0000000000e+00 +4.9999998884e+02 5.0000000000e+02 1.0566000000e-01 0.0000e+00 -1.0000e+00
      994 -1    0    0    0    0 -0.0000000000e+00 -0.0000000000e+00 +0.0000000000e+00 1.3100000000e+02 1.3100000000e+02 0.0000e+00 0.0000e+00
       13  1    1    2    0    0 +1.8976281266e+01 -2.5653478378e+01 +9.7706966361e+01 1.0278551767e+02 1.0566000000e-01 0.0000e+00 1.0000e+00
      994  1    1    2    0    0 -2.3673621496e+01 +2.1815712212e+01 +9.8947287118e+00 1.3526001372e+02 1.3100000000e+02 0.0000e+00 0.0000e+00
      997  1    1    2    0    0 +4.6973402299e+00 +3.8377661655e+00 +3.9239829376e+02 3.9295446861e+02 2.0000000000e+01 0.0000e+00 0.0000e+00
</event>
<event>
 5      1 +2.3375200e-06 2.10747700e+02 7.95774700e-02 4.85235500e-01
       13 -1    0    0    0    0 +0.0000000000e+00 +0.0000000000e+00 +4.9999998884e+02 5.0000000000e+02 1.0566000000e-01 0.0000e+00 1.0000e+00
      994 -1    0    0    0    0 -0.0000000000e+00 -0.0000000000e+00 +0.0000000000e+00 1.3100000000e+02 1.3100000000e+02 0.0000e+00 0.0000e+00
       13  1    1    2    0    0 -9.5247670042e+00 -1.0500207744e+01 +3.6755867440e+01 3.9395183772e+01 1.0566000000e-01 0.0000e+00 -1.0000e+00
      994  1    1    2    0    0 +9.5701710214e-01 +8.1183714050e+00 +3.4604060727e+00 1.3130041221e+02 1.3100000000e+02 0.0000e+00 0.0000e+00
      997  1    1    2    0    0 +8.5677499021e+00 +2.3818363391e+00 +4.5978371532e+02 4.6030440402e+02 2.0000000000e+01 0.0000e+00 0.0000e+00
</event>
<event>
 5      1 +2.3375200e-06 2.12386000e+02 7.95774700e-02 4.82593200e-01
       13 -1    0    0    0    0 +0.0000000000e+00 +0.0000000000e+00 +4.9999998884e+02 5.0000000000e+02 1.0566000000e-01 0.0000e+00 1.0000e+00
      994 -1    0    0    0    0 -0.0000000000e+00 -0.0000000000e+00 +0.0000000000e+00 1.3100000000e+02 1.3100000000e+02 0.0000e+00 0.0000e+00
       13  1    1    2    0    0 -2.6607350247e+00 +1.4305668280e+01 +7.6408618289e+01 7.7781873009e+01 1.0566000000e-01 0.0000e+00 -1.0000e+00
      994  1    1    2    0    0 -5.1619949645e+00 -9.6697361871e+00 +2.4260642438e+00 1.3148017256e+02 1.3100000000e+02 0.0000e+00 0.0000e+00
      997  1    1    2    0    0 +7.8227299891e+00 -4.6359320928e+00 +4.2116530630e+02 4.2173795443e+02 2.0000000000e+01 0.0000e+00 0.0000e+00
</event>
<event>
 5      1 +2.3375200e-06 2.12344100e+02 7.95774700e-02 4.82660100e-01
       13 -1    0    0    0    0 +0.0000000000e+00 +0.0000000000e+00 +4.9999998884e+02 5.0000000000e+02 1.0566000000e-01 0.0000e+00 1.0000e+00
      994 -1    0    0    0    0 -0.0000000000e+00 -0.0000000000e+00 +0.0000000000e+00 1.3100000000e+02 1.3100000000e+02 0.0000e+00 0.0000e+00
       13  1    1    2    0    0 +4.5458733286e+00 +1.6014538411e+01 +6.2484029563e+01 6.4663710993e+01 1.0566000000e-01 0.0000e+00 -1.0000e+00
      994  1    1    2    0    0 -5.9203481075e+00 -3.1935120429e+01 +7.0928349608e+00 1.3515254621e+02 1.3100000000e+02 0.0000e+00 0.0000e+00
      997  1    1    2    0    0 +1.3744747790e+00 +1.5920582017e+01 +4.3042312431e+02 4.3118374280e+02 2.0000000000e+01 0.0000e+00 0.0000e+00
</event>
<event>
 5      1 +2.3375200e-06 2.08567900e+02 7.95774700e-02 4.88832900e-01
       13 -1    0    0    0    0 +0.0000000000e+00 +0.0000000000e+00 +4.9999998884e+02 5.0000000000e+02 1.0566000000e-01 0.0000e+00 -1.0000e+00
      994 -1    0    0    0    0 -0.0000000000e+00 -0.0000000000e+00 +0.0000000000e+00 1.3100000000e+02 1.3100000000e+02 0.0000e+00 0.0000e+00
       13  1    1    2    0    0 +1.6255789401e+01 +7.3765666352e+00 +3.4613813886e+01 3.8946010067e+01 1.0566000000e-01 0.0000e+00 1.0000e+00
      994  1    1    2    0    0 -4.3896257615e+00 -1.1250469044e+01 +5.6113163538e+00 1.3167508777e+02 1.3100000000e+02 0.0000e+00 0.0000e+00
      997  1    1    2    0    0 -1.1866163640e+01 +3.8739024085e+00 +4.5977485860e+02 4.6037890216e+02 2.0000000000e+01 0.0000e+00 0.0000e+00
</event>
<event>
 5      1 +2.3375200e-06 2.05081400e+02 7.95774700e-02 4.94790200e-01
       13 -1    0    0    0    0 +0.0000000000e+00 +0.0000000000e+00 +4.9999998884e+02 5.0000000000e+02 1.0566000000e-01 0.0000e+00 1.0000e+00
      994 -1    0    0    0    0 -0.0000000000e+00 -0.0000000000e+00 +0.0000000000e+00 1.3100000000e+02 1.3100000000e+02 0.0000e+00 0.0000e+00
       13  1    1    2    0    0 -8.6247319426e+00 +4.5462981789e+01 +8.5359967295e+01 9.7095849009e+01 1.0566000000e-01 0.0000e+00 -1.0000e+00
      994  1    1    2    0    0 +1.2067046471e+01 -6.8210991090e+01 +3.3989647328e+01 1.5203502571e+02 1.3100000000e+02 0.0000e+00 0.0000e+00
      997  1    1    2    0    0 -3.4423145279e+00 +2.2748009301e+01 +3.8065037421e+02 3.8186912528e+02 2.0000000000e+01 0.0000e+00 0.0000e+00
</event>
<event>
 5      1 +2.3375200e-06 2.10975500e+02 7.95774700e-02 4.84865100e-01
       13 -1    0    0    0    0 +0.0000000000e+00 +0.0000000000e+00 +4.9999998884e+02 5.0000000000e+02 1.0566000000e-01 0.0000e+00 -1.0000e+00
      994 -1    0    0    0    0 -0.0000000000e+00 -0.0000000000e+00 +0.0000000000e+00 1.3100000000e+02 1.3100000000e+02 0.0000e+00 0.0000e+00
       13  1    1    2    0    0 -1.6954678235e+01 -8.6878739156e+00 +7.0663034950e+01 7.3186173145e+01 1.0566000000e-01 0.0000e+00 1.0000e+00
      994  1    1    2    0    0 +1.2111034436e+01 +2.1447926819e+00 +3.6986097224e+00 1.3162810112e+02 1.3100000000e+02 0.0000e+00 0.0000e+00
      997  1    1    2    0    0 +4.8436437990e+00 +6.5430812337e+00 +4.2563834416e+02 4.2618572573e+02 2.0000000000e+01 0.0000e+00 0.0000e+00
</event>
<event>
 5      1 +2.3375200e-06 2.12856200e+02 7.95774700e-02 4.81844300e-01
       13 -1    0    0    0    0 +0.0000000000e+00 +0.0000000000e+00 +4.9999998884e+02 5.0000000000e+02 1.0566000000e-01 0.0000e+00 -1.0000e+00
      994 -1    0    0    0    0 -0.0000000000e+00 -0.0000000000e+00 +0.0000000000e+00 1.3100000000e+02 1.3100000000e+02 0.0000e+00 0.0000e+00
       13  1    1    2    0    0 +1.2468905796e+01 +4.9324506181e+00 +6.7808791658e+01 6.9121965185e+01 1.0566000000e-01 0.0000e+00 1.0000e+00
      994  1    1    2    0    0 -2.0272638901e+01 -4.9260154144e-03 +3.4837667831e+00 1.3260511507e+02 1.3100000000e+02 0.0000e+00 0.0000e+00
      997  1    1    2    0    0 +7.8037331042e+00 -4.9275246026e+00 +4.2870743039e+02 4.2927291974e+02 2.0000000000e+01 0.0000e+00 0.0000e+00
</event>
<event>
 5      1 +2.3375200e-06 2.12247400e+02 7.95774700e-02 4.82814700e-01
       13 -1    0    0    0    0 +0.0000000000e+00 +0.0000000000e+00 +4.9999998884e+02 5.0000000000e+02 1.0566000000e-01 0.0000e+00 1.0000e+00
      994 -1    0    0    0    0 -0.0000000000e+00 -0.0000000000e+00 +0.0000000000e+00 1.3100000000e+02 1.3100000000e+02 0.0000e+00 0.0000e+00
       13  1    1    2    0    0 -3.9375962984e+00 +1.3140975500e+01 +4.8992499667e+01 5.0876970128e+01 1.0566000000e-01 0.0000e+00 -1.0000e+00
      994  1    1    2    0    0 +9.0125419484e+00 -1.9621754641e+01 +4.2430418734e+00 1.3283539653e+02 1.3100000000e+02 0.0000e+00 0.0000e+00
      997  1    1    2    0    0 -5.0749456501e+00 +6.4807791415e+00 +4.4676444730e+02 4.4728763334e+02 2.0000000000e+01 0.0000e+00 0.0000e+00
</event>
<event>
 5      1 +2.3375200e-06 2.10107100e+02 7.95774700e-02 4.86283000e-01
       13 -1    0    0    0    0 +0.0000000000e+00 +0.0000000000e+00 +4.9999998884e+02 5.0000000000e+02 1.0566000000e-01 0.0000e+00 1.0000e+00
      994 -1    0    0    0    0 -0.0000000000e+00 -0.0000000000e+00 +0.0000000000e+00 1.3100000000e+02 1.3100000000e+02 0.0000e+00 0.0000e+00
       13  1    1    2    0    0 -2.6299764218e+01 -1.8510205899e+01 +1.4263807045e+02 1.4621879368e+02 1.0566000000e-01 0.0000e+00 -1.0000e+00
      994  1    1    2    0    0 +1.7723071390e+01 +1.8084364999e+01 +6.8566256291e+00 1.3360076658e+02 1.3100000000e+02 0.0000e+00 0.0000e+00
      997  1    1    2    0    0 +8.5766928277e+00 +4.2584089971e-01 +3.5050529276e+02 3.5118043974e+02 2.0000000000e+01 0.0000e+00 0.0000e+00
</event>
<event>
 5      1 +2.3375200e-06 2.11989400e+02 7.95774700e-02 4.83228200e-01
       13 -1    0    0    0    0 +0.0000000000e+00 +0.0000000000e+00 +4.9999998884e+02 5.0000000000e+02 1.0566000000e-01 0.0000e+00 -1.0000e+00
      994 -1    0    0    0    0 -0.0000000000e+00 -0.0000000000e+00 +0.0000000000e+00 1.3100000000e+02 1.3100000000e+02 0.0000e+00 0.0000e+00
       13  1    1    2    0    0 -1.6697626975e+01 +1.5047540885e+00 +9.1259941161e+01 9.2787192307e+01 1.0566000000e-01 0.0000e+00 1.0000e+00
      994  1    1    2    0    0 +5.4790223067e+00 -9.5963426061e+00 +2.7488188183e+00 1.3149397508e+02 1.3100000000e+02 0.0000e+00 0.0000e+00
      997  1    1    2    0    0 +1.1218604668e+01 +8.0915885177e+00 +4.0599122886e+02 4.0671883262e+02 2.0000000000e+01 0.0000e+00 0.0000e+00
</event>
<event>
 5      1 +2.3375200e-06 2.10755700e+02 7.95774700e-02 4.85222500e-01
       13 -1    0    0    0    0 +0.0000000000e+00 +0.0000000000e+00 +4.9999998884e+02 5.0000000000e+02 1.0566000000e-01 0.0000e+00 1.0000e+00
      994 -1    0    0    0    0 -0.0000000000e+00 -0.0000000000e+00 +0.0000000000e+00 1.3100000000e+02 1.3100000000e+02 0.0000e+00 0.0000e+00
       13  1    1    2    0    0 +5.9290212075e+00 +2.0006451501e+01 +6.7551420898e+01 7.0700898322e+01 1.0566000000e-01 0.0000e+00 -1.0000e+00
      994  1    1    2    0    0 +8.9699640619e+00 -2.7303919389e+01 +7.2542919868e+00 1.3431153719e+02 1.3100000000e+02 0.0000e+00 0.0000e+00
      997  1    1    2    0    0 -1.4898985269e+01 +7.2974678873e+00 +4.2519427595e+02 4.2598756449e+02 2.0000000000e+01 0.0000e+00 0.0000e+00
</event>
<event>
 5      1 +2.3375200e-06 2.02134700e+02 7.95774700e-02 5.00031400e-01
       13 -1    0    0    0    0 +0.0000000000e+00 +0.0000000000e+00 +4.9999998884e+02 5.0000000000e+02 1.0566000000e-01 0.0000e+00 1.0000e+00
      994 -1    0    0    0    0 -0.0000000000e+00 -0.0000000000e+00 +0.0000000000e+00 1.3100000000e+02 1.3100000000e+02 0.0000e+00 0.0000e+00
       13  1    1    2    0    0 -8.9199464541e+00 -4.1747776863e+01 +2.0832831354e+01 4.7502214096e+01 1.0566000000e-01 0.0000e+00 -1.0000e+00
      994  1    1    2    0    0 +1.0980479156e+01 +3.4390151958e+01 +3.7024437187e+01 1.4083700658e+02 1.3100000000e+02 0.0000e+00 0.0000e+00
      997  1    1    2    0    0 -2.0605327023e+00 +7.3576249050e+00 +4.4214272029e+02 4.4266077932e+02 2.0000000000e+01 0.0000e+00 0.0000e+00
</event>
<event>
 5      1 +2.3375200e-06 2.12005200e+02 7.95774700e-02 4.83202900e-01
       13 -1    0    0    0    0 +0.0000000000e+00 +0.0000000000e+00 +4.9999998884e+02 5.0000000000e+02 1.0566000000e-01 0.0000e+00 1.0000e+00
      994 -1    0    0    0    0 -0.0000000000e+00 -0.0000000000e+00 +0.0000000000e+00 1.3100000000e+02 1.3100000000e+02 0.0000e+00 0.0000e+00
       13  1    1    2    0    0 +6.6703532319e+00 -8.7784057010e+00 +3.1456052633e+01 3.3332393106e+01 1.0566000000e-01 0.0000e+00 -1.0000e+00
      994  1    1    2    0    0 -4.7990937611e+00 +1.3832659903e+01 +3.1914017609e+00 1.3185430909e+02 1.3100000000e+02 0.0000e+00 0.0000e+00
      997  1    1    2    0    0 -1.8712594708e+00 -5.0542542021e+00 +4.6535253444e+02 4.6581329780e+02 2.0000000000e+01 0.0000e+00 0.0000e+00
</event>
<event>
 5      1 +2.3375200e-06 2.11741400e+02 7.95774700e-02 4.83626800e-01
       13 -1    0    0    0    0 +0.0000000000e+00 +0.0000000000e+00 +4.9999998884e+02 5.0000000000e+02 1.0566000000e-01 0.0000e+00 1.0000e+00
      994 -1    0    0    0    0 -0.0000000000e+00 -0.0000000000e+00 +0.0000000000e+00 1.3100000000e+02 1.3100000000e+02 0.0000e+00 0.0000e+00
       13  1    1    2    0    0 -4.4047491140e-02 -1.7730065600e+01 +9.5231476336e+01 9.6867963825e+01 1.0566000000e-01 0.0000e+00 -1.0000e+00
      994  1    1    2    0    0 -1.0341077833e+01 +5.2959311331e+00 +3.0086888330e+00 1.3154861073e+02 1.3100000000e+02 0.0000e+00 0.0000e+00
      997  1    1    2    0    0 +1.0385125324e+01 +1.2434134467e+01 +4.0175982367e+02 4.0258342544e+02 2.0000000000e+01 0.0000e+00 0.0000e+00
</event>
<event>
 5      1 +2.3375200e-06 2.10671200e+02 7.95774700e-02 4.85360300e-01
       13 -1    0    0    0    0 +0.0000000000e+00 +0.0000000000e+00 +4.9999998884e+02 5.0000000000e+02 1.0566000000e-01 0.0000e+00 -1.0000e+00
      994 -1    0    0    0    0 -0.0000000000e+00 -0.0000000000e+00 +0.0000000000e+00 1.3100000000e+02 1.3100000000e+02 0.0000e+00 0.0000e+00
       13  1    1    2    0    0 +2.2545077498e+01 -1.2842044557e+01 +1.2557112129e+02 1.2822369631e+02 1.0566000000e-01 0.0000e+00 1.0000e+00
      994  1    1    2    0    0 -1.4386782680e+01 +4.2149098024e+00 +4.3080397620e+00 1.3192537355e+02 1.3100000000e+02 0.0000e+00 0.0000e+00
      997  1    1    2    0    0 -8.1582948174e+00 +8.6271347550e+00 +3.7012082778e+02 3.7085093014e+02 2.0000000000e+01 0.0000e+00 0.0000e+00
</event>
<event>
 5      1 +2.3375200e-06 1.99180500e+02 7.95774700e-02 5.05488400e-01
       13 -1    0    0    0    0 +0.0000000000e+00 +0.0000000000e+00 +4.9999998884e+02 5.0000000000e+02 1.0566000000e-01 0.0000e+00 1.0000e+00
      994 -1    0    0    0    0 -0.0000000000e+00 -0.0000000000e+00 +0.0000000000e+00 1.3100000000e+02 1.3100000000e+02 0.0000e+00 0.0000e+00
       13  1    1    2    0    0 -2.0216737514e+01 +5.5881855660e+01 +1.1404008438e+02 1.2859490767e+02 1.0566000000e-01 0.0000e+00 -1.0000e+00
      994  1    1    2    0    0 -2.9652965635e+01 +7.7733642696e+00 +3.1350806530e+01 1.3814339157e+02 1.3100000000e+02 0.0000e+00 0.0000e+00
      997  1    1    2    0    0 +4.9869703150e+01 -6.3655219930e+01 +3.5460909792e+02 3.6426170077e+02 2.0000000000e+01 0.0000e+00 0.0000e+00
</event>
<event>
 5      1 +2.3375200e-06 2.09398000e+02 7.95774700e-02 4.87451900e-01
       13 -1    0    0    0    0 +0.0000000000e+00 +0.0000000000e+00 +4.9999998884e+02 5.0000000000e+02 1.0566000000e-01 0.0000e+00 -1.0000e+00
      994 -1    0    0    0    0 -0.0000000000e+00 -0.0000000000e+00 +0.0000000000e+00 1.3100000000e+02 1.3100000000e+02 0.0000e+00 0.0000e+00
       13  1    1    2    0    0 +1.7298908212e+01 +7.3837531944e+00 +5.0926158626e+01 5.4288643683e+01 1.0566000000e-01 0.0000e+00 1.0000e+00
      994  1    1    2    0    0 +2.9663615441e+00 -1.2052791658e+01 +4.9796934776e+00 1.3168092662e+02 1.3100000000e+02 0.0000e+00 0.0000e+00
      997  1    1    2    0    0 -2.0265269756e+01 +4.6690384634e+00 +4.4409413673e+02 4.4503042970e+02 2.0000000000e+01 0.0000e+00 0.0000e+00
</event>
<event>
 5      1 +2.3375200e-06 2.10910400e+02 7.95774700e-02 4.84970900e-01
       13 -1    0    0    0    0 +0.0000000000e+00 +0.0000000000e+00 +4.9999998884e+02 5.0000000000e+02 1.0566000000e-01 0.0000e+00 1.0000e+00
      994 -1    0    0    0    0 -0.0000000000e+00 -0.0000000000e+00 +0.0000000000e+00 1.3100000000e+02 1.3100000000e+02 0.0000e+00 0.0000e+00
       13  1    1    2    0    0 -1.5162686165e+01 +4.3193340902e-01 +5.5100968743e+01 5.7150866474e+01 1.0566000000e-01 0.0000e+00 -1.0000e+00
      994  1    1    2    0    0 -5.8367128090e+00 -9.5852391011e-01 +3.1729425258e+00 1.3117184739e+02 1.3100000000e+02 0.0000e+00 0.0000e+00
      997  1    1    2    0    0 +2.0999398974e+01 +5.2659050109e-01 +4.4172607757e+02 4.4267728613e+02 2.0000000000e+01 0.0000e+00 0.0000e+00
</event>
<event>
 5      1 +2.3375200e-06 2.07841400e+02 7.95774700e-02 4.90053200e-01
       13 -1    0    0    0    0 +0.0000000000e+00 +0.0000000000e+00 +4.9999998884e+02 5.0000000000e+02 1.0566000000e-01 0.0000e+00 -1.0000e+00
      994 -1    0    0    0    0 -0.0000000000e+00 -0.0000000000e+00 +0.0000000000e+00 1.3100000000e+02 1.3100000000e+02 0.0000e+00 0.0000e+00
       13  1    1    2    0    0 +2.4071974257e+01 +1.1258392571e+01 +4.6089395797e+01 5.3202019857e+01 1.0566000000e-01 0.0000e+00 1.0000e+00
      994  1    1    2    0    0 -4.8715299339e+01 -2.0172613646e+01 +1.9982931305e+01 1.4261988737e+02 1.3100000000e+02 0.0000e+00 0.0000e+00
      997  1    1    2    0    0 +2.4643325082e+01 +8.9142210757e+00 +4.3392766173e+02 4.3517809277e+02 2.0000000000e+01 0.0000e+00 0.0000e+00
</event>
<event>
 5      1 +2.3375200e-06 2.10367300e+02 7.95774700e-02 4.85856600e-01
       13 -1    0    0    0    0 +0.0000000000e+00 +0.0000000000e+00 +4.9999998884e+02 5.0000000000e+02 1.0566000000e-01 0.0000e+00 1.0000e+00
      994 -1    0    0    0    0 -0.0000000000e+00 -0.0000000000e+00 +0.0000000000e+00 1.3100000000e+02 1.3100000000e+02 0.0000e+00 0.0000e+00
       13  1    1    2    0    0 +1.3193835659e+01 +1.1582731147e+01 +5.2735959815e+01 5.5581737845e+01 1.0566000000e-01 0.0000e+00 -1.0000e+00
      994  1    1    2    0    0 -2.5101498005e-01 -9.9462218206e+00 +3.9242466976e+00 1.3143587809e+02 1.3100000000e+02 0.0000e+00 0.0000e+00
      997  1    1    2    0    0 -1.2942820679e+01 -1.6365093264e+00 +4.4333978232e+02 4.4398238407e+02 2.0000000000e+01 0.0000e+00 0.0000e+00
</event>
<event>
 5      1 +2.3375200e-06 2.10560000e+02 7.95774700e-02 4.85541600e-01
       13 -1    0    0    0    0 +0.0000000000e+00 +0.0000000000e+00 +4.9999998884e+02 5.0000000000e+02 1.0566000000e-01 0.0000e+00 -1.0000e+00
      994 -1    0    0    0    0 -0.0000000000e+00 -0.0000000000e+00 +0.0000000000e+00 1.3100000000e+02 1.3100000000e+02 0.0000e+00 0.0000e+00
       13  1    1    2    0    0 +1.8070027301e+01 +9.3347624568e+00 +7.0075382514e+01 7.2967349378e+01 1.0566000000e-01 0.0000e+00 1.0000e+00
      994  1    1    2    0    0 -6.3348890699e+00 -1.7933048966e+01 +5.0821475145e+00 1.3247095262e+02 1.3100000000e+02 0.0000e+00 0.0000e+00
      997  1    1    2    0    0 -1.1735138231e+01 +8.5982865093e+00 +4.2484245881e+02 4.2556169800e+02 2.0000000000e+01 0.0000e+00 0.0000e+00
</event>
<event>
 5      1 +2.3375200e-06 1.97007700e+02 7.95774700e-02 5.09638700e-01
       13 -1    0    0    0    0 +0.0000000000e+00 +0.0000000000e+00 +4.9999998884e+02 5.0000000000e+02 1.0566000000e-01 0.0000e+00 -1.0000e+00
      994 -1    0    0    0    0 -0.0000000000e+00 -0.0000000000e+00 +0.0000000000e+00 1.3100000000e+02 1.3100000000e+02 0.0000e+00 0.0000e+00
       13  1    1    2    0    0 +2.6785467534e+01 +1.0079114817e+01 +2.0813388403e+01 3.5387259393e+01 1.0566000000e-01 0.0000e+00 1.0000e+00
      994  1    1    2    0    0 -3.2325548441e+01 -2.5384138951e+00 +2.0625474903e+01 1.3652030927e+02 1.3100000000e+02 0.0000e+00 0.0000e+00
      997  1    1    2    0    0 +5.5400809075e+00 -7.5407009215e+00 +4.5856112553e+02 4.5909243134e+02 2.0000000000e+01 0.0000e+00 0.0000e+00
</event>
<event>
 5      1 +2.3375200e-06 2.08355000e+02 7.95774700e-02 4.89189400e-01
       13 -1    0    0    0    0 +0.0000000000e+00 +0.0000000000e+00 +4.9999998884e+02 5.0000000000e+02 1.0566000000e-01 0.0000e+00 -1.0000e+00
      994 -1    0    0    0    0 -0.0000000000e+00 -0.0000000000e+00 +0.0000000000e+00 1.3100000000e+02 1.3100000000e+02 0.0000e+00 0.0000e+00
       13  1    1    2    0    0 +1.0717175669e+01 +1.2813867311e+01 +2.9442753985e+01 3.3851735200e+01 1.0566000000e-01 0.0000e+00 1.0000e+00
      994  1    1    2    0    0 -1.1986495463e+00 -5.9123090063e+00 +5.2300275369e+00 1.3124307733e+02 1.3100000000e+02 0.0000e+00 0.0000e+00
      997  1    1    2    0    0 -9.5185261230e+00 -6.9015583044e+00 +4.6532720731e+02 4.6590518747e+02 2.0000000000e+01 0.0000e+00 0.0000e+00
</event>
<event>
 5      1 +2.3375200e-06 2.04928400e+02 7.95774700e-02 4.95057500e-01
       13 -1    0    0    0    0 +0.0000000000e+00 +0.0000000000e+00 +4.9999998884e+02 5.0000000000e+02 1.0566000000e-01 0.0000e+00 1.0000e+00
      994 -1    0    0    0    0 -0.0000000000e+00 -0.0000000000e+00 +0.0000000000e+00 1.3100000000e+02 1.3100000000e+02 0.0000e+00 0.0000e+00
       13  1    1    2    0    0 -2.1443289592e+01 -6.0263262189e+00 +2.6465678763e+01 3.4591539321e+01 1.0566000000e-01 0.0000e+00 -1.0000e+00
      994  1    1    2    0    0 +3.6745340332e+01 -1.8973005064e+01 +1.6912093497e+01 1.3840958733e+02 1.3100000000e+02 0.0000e+00 0.0000e+00
      997  1    1    2    0    0 -1.5302050740e+01 +2.4999331283e+01 +4.5662221658e+02 4.5799887335e+02 2.0000000000e+01 0.0000e+00 0.0000e+00
</event>
<event>
 5      1 +2.3375200e-06 2.13091900e+02 7.95774700e-02 4.81470400e-01
       13 -1    0    0    0    0 +0.0000000000e+00 +0.0000000000e+00 +4.9999998884e+02 5.0000000000e+02 1.0566000000e-01 0.0000e+00 1.0000e+00
      994 -1    0    0    0    0 -0.0000000000e+00 -0.0000000000e+00 +0.0000000000e+00 1.3100000000e+02 1.3100000000e+02 0.0000e+00 0.0000e+00
       13  1    1    2    0    0 +6.2356963247e-01 +1.5898694143e+01 +9.5923766633e+01 9.7234445973e+01 1.0566000000e-01 0.0000e+00 -1.0000e+00
      994  1    1    2    0    0 +5.5452311859e+00 -2.5565914244e+01 +4.6426411414e+00 1.3366719746e+02 1.3100000000e+02 0.0000e+00 0.0000e+00
      997  1    1    2    0    0 -6.1688008183e+00 +9.6672201008e+00 +3.9943358106e+02 4.0009835657e+02 2.0000000000e+01 0.0000e+00 0.0000e+00
</event>
<event>
 5      1 +2.3375200e-06 2.10992900e+02 7.95774700e-02 4.84836900e-01
       13 -1    0    0    0    0 +0.0000000000e+00 +0.0000000000e+00 +4.9999998884e+02 5.0000000000e+02 1.0566000000e-01 0.0000e+00 1.0000e+00
      994 -1    0    0    0    0 -0.0000000000e+00 -0.0000000000e+00 +0.0000000000e+00 1.3100000000e+02 1.3100000000e+02 0.0000e+00 0.0000e+00
       13  1    1    2    0    0 -1.1581570805e+01 +9.5678328029e+00 +4.4627181577e+01 4.7087925272e+01 1.0566000000e-01 0.0000e+00 -1.0000e+00
      994  1    1    2    0    0 +1.2245685403e+01 +2.3734424144e+00 +3.7061740984e+00 1.3164469517e+02 1.3100000000e+02 0.0000e+00 0.0000e+00
      997  1    1    2    0    0 -6.6411459767e-01 -1.1941275217e+01 +4.5166663316e+02 4.5226737956e+02 2.0000000000e+01 0.0000e+00 0.0000e+00
</event>
<event>
 5      1 +2.3375200e-06 2.11961400e+02 7.95774700e-02 4.83273100e-01
       13 -1    0    0    0    0 +0.0000000000e+00 +0.0000000000e+00 +4.9999998884e+02 5.0000000000e+02 1.0566000000e-01 0.0000e+00 -1.0000e+00
      994 -1    0    0    0    0 -0.0000000000e+00 -0.0000000000e+00 +0.0000000000e+00 1.3100000000e+02 1.3100000000e+02 0.0000e+00 0.0000e+00
       13  1    1    2    0    0 -9.6525485012e+00 +2.2460049836e+01 +1.2060540886e+02 1.2305812180e+02 1.0566000000e-01 0.0000e+00 1.0000e+00
      994  1    1    2    0    0 +7.1802122310e+00 -2.8614369943e+01 +6.4848414688e+00 1.3443731172e+02 1.3100000000e+02 0.0000e+00 0.0000e+00
      997  1    1    2    0    0 +2.4723362702e+00 +6.1543201077e+00 +3.7290973851e+02 3.7350456647e+02 2.0000000000e+01 0.0000e+00 0.0000e+00
</event>
<event>
 5      1 +2.3375200e-06 2.08311500e+02 7.95774700e-02 4.89262400e-01
       13 -1    0    0    0    0 +0.0000000000e+00 +0.0000000000e+00 +4.9999998884e+02 5.0000000000e+02 1.0566000000e-01 0.0000e+00 -1.0000e+00
      994 -1    0    0    0    0 -0.0000000000e+00 -0.0000000000e+00 +0.0000000000e+00 1.3100000000e+02 1.3100000000e+02 0.0000e+00 0.0000e+00
       13  1    1    2    0    0 -6.6942627638e+00 +2.9677730370e+01 +1.1021190498e+02 1.1433396694e+02 1.0566000000e-01 0.0000e+00 1.0000e+00
      994  1    1    2    0    0 -1.3938527258e+00 -1.1965760679e+01 +5.8165440143e+00 1.3168126077e+02 1.3100000000e+02 0.0000e+00 0.0000e+00
      997  1    1    2    0    0 +8.0881154896e+00 -1.7711969691e+01 +3.8397153984e+02 3.8498477229e+02 2.0000000000e+01 0.0000e+00 0.0000e+00
</event>
<event>
 5      1 +2.3375200e-06 2.12096000e+02 7.95774700e-02 4.83057200e-01
       13 -1    0    0    0    0 +0.0000000000e+00 +0.0000000000e+00 +4.9999998884e+02 5.0000000000e+02 1.0566000000e-01 0.0000e+00 -1.0000e+00
      994 -1    0    0    0    0 -0.0000000000e+00 -0.0000000000e+00 +0.0000000000e+00 1.3100000000e+02 1.3100000000e+02 0.0000e+00 0.0000e+00
       13  1    1    2    0    0 -1.8013133254e+01 -3.3730662832e+00 +8.6074386684e+01 8.8003759879e+01 1.0566000000e-01 0.0000e+00 1.0000e+00
      994  1    1    2    0    0 +2.0374179274e+01 -3.8829324232e+00 +4.1859473104e+00 1.3269780141e+02 1.3100000000e+02 0.0000e+00 0.0000e+00
      997  1    1    2    0    0 -2.3610460194e+00 +7.2559987064e+00 +4.0973965484e+02 4.1029843871e+02 2.0000000000e+01 0.0000e+00 0.0000e+00
</event>
<event>
 5      1 +2.3375200e-06 1.97321700e+02 7.95774700e-02 5.09031500e-01
       13 -1    0    0    0    0 +0.0000000000e+00 +0.0000000000e+00 +4.9999998884e+02 5.0000000000e+02 1.0566000000e-01 0.0000e+00 -1.0000e+00
      994 -1    0    0    0    0 -0.0000000000e+00 -0.0000000000e+00 +0.0000000000e+00 1.3100000000e+02 1.3100000000e+02 0.0000e+00 0.0000e+00
       13  1    1    2    0    0 +4.5094445074e+01 -3.7313897867e+01 +6.2262610318e+01 8.5454547909e+01 1.0566000000e-01 0.0000e+00 1.0000e+00
      994  1    1    2    0    0 -3.8632740286e+01 +2.1998859146e+01 +3.5970983648e+01 1.4293827371e+02 1.3100000000e+02 0.0000e+00 0.0000e+00
      997  1    1    2    0    0 -6.4617047880e+00 +1.5315038721e+01 +4.0176639487e+02 4.0260717838e+02 2.0000000000e+01 0.0000e+00 0.0000e+00
</event>
<event>
 5      1 +2.3375200e-06 1.98790400e+02 7.95774700e-02 5.06224800e-01
       13 -1    0    0    0    0 +0.0000000000e+00 +0.0000000000e+00 +4.9999998884e+02 5.0000000000e+02 1.0566000000e-01 0.0000e+00 1.0000e+00
      994 -1    0    0    0    0 -0.0000000000e+00 -0.0000000000e+00 +0.0000000000e+00 1.3100000000e+02 1.3100000000e+02 0.0000e+00 0.0000e+00
       13  1    1    2    0    0 -1.3838649376e+01 +5.9895989851e+00 +2.8316949086e+00 1.5343180004e+01 1.0566000000e-01 0.0000e+00 -1.0000e+00
      994  1    1    2    0    0 +1.7895296560e+01 -1.1474862445e+01 +1.5602558134e+01 1.3362766902e+02 1.3100000000e+02 0.0000e+00 0.0000e+00
      997  1    1    2    0    0 -4.0566471842e+00 +5.4852634599e+00 +4.8156573579e+02 4.8202915098e+02 2.0000000000e+01 0.0000e+00 0.0000e+00
</event>
<event>
 5      1 +2.3375200e-06 1.99146700e+02 7.95774700e-02 5.05552100e-01
       13 -1    0    0    0    0 +0.0000000000e+00 +0.0000000000e+00 +4.9999998884e+02 5.0000000000e+02 1.0566000000e-01 0.0000e+00 1.0000e+00
      994 -1    0    0    0    0 -0.0000000000e+00 -0.0000000000e+00 +0.0000000000e+00 1.3100000000e+02 1.3100000000e+02 0.0000e+00 0.0000e+00
       13  1    1    2    0    0 +2.5109235359e+01 -1.2412647655e+01 +3.1271511201e+01 4.1981735301e+01 1.0566000000e-01 0.0000e+00 -1.0000e+00
      994  1    1    2    0    0 +1.2308309980e+01 +1.8272994551e+01 +1.5466361957e+01 1.3373707480e+02 1.3100000000e+02 0.0000e+00 0.0000e+00
      997  1    1    2    0    0 -3.7417545339e+01 -5.8603468961e+00 +4.5326211568e+02 4.5528118990e+02 2.0000000000e+01 0.0000e+00 0.0000e+00
</event>
<event>
 5      1 +2.3375200e-06 2.11412200e+02 7.95774700e-02 4.84157500e-01
       13 -1    0    0    0    0 +0.0000000000e+00 +0.0000000000e+00 +4.9999998884e+02 5.0000000000e+02 1.0566000000e-01 0.0000e+00 -1.0000e+00
      994 -1    0    0    0    0 -0.0000000000e+00 -0.0000000000e+00 +0.0000000000e+00 1.3100000000e+02 1.3100000000e+02 0.0000e+00 0.0000e+00
       13  1    1    2    0    0 +8.2711646867e+00 -1.1694649432e+01 +3.9537998864e+01 4.2052841864e+01 1.0566000000e-01 0.0000e+00 1.0000e+00
      994  1    1    2    0    0 -7.0046373310e+00 +1.9653542906e+01 +4.7612601730e+00 1.3273656727e+02 1.3100000000e+02 0.0000e+00 0.0000e+00
      997  1    1    2    0    0 -1.2665273557e+00 -7.9588934738e+00 +4.5570072980e+02 4.5621059086e+02 2.0000000000e+01 0.0000e+00 0.0000e+00
</event>
<event>
 5      1 +2.3375200e-06 1.97266900e+02 7.95774700e-02 5.09137400e-01
       13 -1    0    0    0    0 +0.0000000000e+00 +0.0000000000e+00 +4.9999998884e+02 5.0000000000e+02 1.0566000000e-01 0.0000e+00 1.0000e+00
      994 -1    0    0    0    0 -0.0000000000e+00 -0.0000000000e+00 +0.0000000000e+00 1.3100000000e+02 1.3100000000e+02 0.0000e+00 0.0000e+00
       13  1    1    2    0    0 -8.4417005343e+00 -2.2817325823e+01 +1.4154358919e+01 2.8146930669e+01 1.0566000000e-01 0.0000e+00 -1.0000e+00
      994  1    1    2    0    0 +1.4356967118e+01 +2.1768624163e+01 +1.8272967397e+01 1.3481430503e+02 1.3100000000e+02 0.0000e+00 0.0000e+00
      997  1    1    2    0    0 -5.9152665839e+00 +1.0487016608e+00 +4.6757266252e+02 4.6803876430e+02 2.0000000000e+01 0.0000e+00 0.0000e+00
</event>
<event>
 5      1 +2.3375200e-06 2.03129600e+02 7.95774700e-02 4.98239900e-01
       13 -1    0    0    0    0 +0.0000000000e+00 +0.0000000000e+00 +4.9999998884e+02 5.0000000000e+02 1.0566000000e-01 0.0000e+00 1.0000e+00
      994 -1    0    0    0    0 -0.0000000000e+00 -0.0000000000e+00 +0.0000000000e+00 1.3100000000e+02 1.3100000000e+02 0.0000e+00 0.0000e+00
       13  1    1    2    0    0 +1.1336584564e+01 +2.9785605903e+00 +3.4590589467e+00 1.2221547594e+01 1.0566000000e-01 0.0000e+00 -1.0000e+00
      994  1    1    2    0    0 -4.8282408648e+00 -2.1891936706e+01 +1.2035649695e+01 1.3344821342e+02 1.3100000000e+02 0.0000e+00 0.0000e+00
      997  1    1    2    0    0 -6.5083436989e+00 +1.8913376116e+01 +4.8450528019e+02 4.8533023898e+02 2.0000000000e+01 0.0000e+00 0.0000e+00
</event>
<event>
 5      1 +2.3375200e-06 2.12429400e+02 7.95774700e-02 4.82524000e-01
       13 -1    0    0    0    0 +0.0000000000e+00 +0.0000000000e+00 +4.9999998884e+02 5.0000000000e+02 1.0566000000e-01 0.0000e+00 1.0000e+00
      994 -1    0    0    0    0 -0.0000000000e+00 -0.0000000000e+00 +0.0000000000e+00 1.3100000000e+02 1.3100000000e+02 0.0000e+00 0.0000e+00
       13  1    1    2    0    0 -8.0602426801e+00 +1.3112079150e+01 +8.3738902279e+01 8.5141699834e+01 1.0566000000e-01 0.0000e+00 -1.0000e+00
      994  1    1    2    0    0 -1.2342779579e+00 -1.4006738040e+01 +2.7731346776e+00 1.3178164678e+02 1.3100000000e+02 0.0000e+00 0.0000e+00
      997  1    1    2    0    0 +9.2945206379e+00 +8.9465889052e-01 +4.1348795188e+02 4.1407665338e+02 2.0000000000e+01 0.0000e+00 0.0000e+00
</event>
<event>
 5      1 +2.3375200e-06 2.09668500e+02 7.95774700e-02 4.87004800e-01
       13 -1    0    0    0    0 +0.0000000000e+00 +0.0000000000e+00 +4.9999998884e+02 5.0000000000e+02 1.0566000000e-01 0.0000e+00 1.0000e+00
      994 -1    0    0    0    0 -0.0000000000e+00 -0.0000000000e+00 +0.0000000000e+00 1.3100000000e+02 1.3100000000e+02 0.0000e+00 0.0000e+00
       13  1    1    2    0    0 +2.7019179882e-01 -2.3335383420e+01 +7.3232585047e+01 7.6861146229e+01 1.0566000000e-01 0.0000e+00 -1.0000e+00
      994  1    1    2    0    0 +3.1974855860e+00 +1.5514604553e+01 +5.2480482529e+00 1.3205858124e+02 1.3100000000e+02 0.0000e+00 0.0000e+00
      997  1    1    2    0    0 -3.4676773848e+00 +7.8207788676e+00 +4.2151935554e+02 4.2208027253e+02 2.0000000000e+01 0.0000e+00 0.0000e+00
</event>
<event>
 5      1 +2.3375200e-06 2.10031500e+02 7.95774700e-02 4.86407100e-01
       13 -1    0    0    0    0 +0.0000000000e+00 +0.0000000000e+00 +4.9999998884e+02 5.0000000000e+02 1.0566000000e-01 0.0000e+00 1.0000e+00
      994 -1    0    0    0    0 -0.0000000000e+00 -0.0000000000e+00 +0.0000000000e+00 1.3100000000e+02 1.3100000000e+02 0.0000e+00 0.0000e+00
       13  1    1    2    0    0 +1.3617214797e+01 -1.0492848079e+01 +3.8717508981e+01 4.2362543188e+01 1.0566000000e-01 0.0000e+00 -1.0000e+00
      994  1    1    2    0    0 -2.1153672464e+01 +6.8495680528e+00 +6.1783399668e+00 1.3301716553e+02 1.3100000000e+02 0.0000e+00 0.0000e+00
      997  1    1    2    0    0 +7.5364576668e+00 +3.6432800260e+00 +4.5510413989e+02 4.5562029128e+02 2.0000000000e+01 0.0000e+00 0.0000e+00
</event>
<event>
 5      1 +2.3375200e-06 1.98232100e+02 7.95774700e-02 5.07285300e-01
       13 -1    0    0    0    0 +0.0000000000e+00 +0.0000000000e+00 +4.9999998884e+02 5.0000000000e+02 1.0566000000e-01 0.0000e+00 -1.0000e+00
      994 -1    0    0    0    0 -0.0000000000e+00 -0.0000000000e+00 +0.0000000000e+00 1.3100000000e+02 1.3100000000e+02 0.0000e+00 0.0000e+00
       13  1    1    2    0    0 +4.2731875971e+01 +4.5249836156e+01 +1.2177343956e+02 1.3675650860e+02 1.0566000000e-01 0.0000e+00 1.0000e+00
      994  1    1    2    0    0 -3.8612171971e+01 -3.1682941623e+01 +2.7760230865e+01 1.4292074388e+02 1.3100000000e+02 0.0000e+00 0.0000e+00
      997  1    1    2    0    0 -4.1197040004e+00 -1.3566894532e+01 +3.5046631841e+02 3.5132274752e+02 2.0000000000e+01 0.0000e+00 0.0000e+00
</event>
<event>
 5      1 +2.3375200e-06 2.08228000e+02 7.95774700e-02 4.89402500e-01
       13 -1    0    0    0    0 +0.0000000000e+00 +0.0000000000e+00 +4.9999998884e+02 5.0000000000e+02 1.0566000000e-01 0.0000e+00 1.0000e+00
      994 -1    0    0    0    0 -0.0000000000e+00 -0.0000000000e+00 +0.0000000000e+00 1.3100000000e+02 1.3100000000e+02 0.0000e+00 0.0000e+00
       13  1    1    2    0    0 -1.4983863620e+01 +7.4622004866e+00 +3.9294408410e+01 4.2711383745e+01 1.0566000000e-01 0.0000e+00 -1.0000e+00
      994  1    1    2    0    0 -1.5422785160e+01 +2.0698216341e+01 +8.5444999675e+00 1.3379195395e+02 1.3100000000e+02 0.0000e+00 0.0000e+00
      997  1    1    2    0    0 +3.0406648780e+01 -2.8160416827e+01 +4.5216108046e+02 4.5449666231e+02 2.0000000000e+01 0.0000e+00 0.0000e+00
</event>
<event>
 5      1 +2.3375200e-06 1.96207700e+02 7.95774700e-02 5.11197000e-01
       13 -1    0    0    0    0 +0.0000000000e+00 +0.0000000000e+00 +4.9999998884e+02 5.0000000000e+02 1.0566000000e-01 0.0000e+00 1.0000e+00
      994 -1    0    0    0    0 -0.0000000000e+00 -0.0000000000e+00 +0.0000000000e+00 1.3100000000e+02 1.3100000000e+02 0.0000e+00 0.0000e+00
       13  1    1    2    0    0 +3.1535397335e+01 -7.8688837741e+00 +4.1803278427e+01 5.2952109195e+01 1.0566000000e-01 0.0000e+00 -1.0000e+00
      994  1    1    2    0    0 +2.2874854453e+01 -5.7811134458e+00 +1.8559738987e+01 1.3439547667e+02 1.3100000000e+02 0.0000e+00 0.0000e+00
      997  1    1    2    0    0 -5.4410251788e+01 +1.3649997220e+01 +4.3963697142e+02 4.4365241413e+02 2.0000000000e+01 0.0000e+00 0.0000e+00
</event>
<event>
 5      1 +2.3375200e-06 2.12603400e+02 7.95774700e-02 4.82246500e-01
       13 -1    0    0    0    0 +0.0000000000e+00 +0.0000000000e+00 +4.9999998884e+02 5.0000000000e+02 1.0566000000e-01 0.0000e+00 -1.0000e+00
      994 -1    0    0    0    0 -0.0000000000e+00 -0.0000000000e+00 +0.0000000000e+00 1.3100000000e+02 1.3100000000e+02 0.0000e+00 0.0000e+00
       13  1    1    2    0    0 +1.7014559433e+00 +1.1638125493e+01 +4.7769550728e+01 4.9196362244e+01 1.0566000000e-01 0.0000e+00 1.0000e+00
      994  1    1    2    0    0 +2.7746374106e+00 -1.5607477604e+01 +2.8989557094e+00 1.3198748393e+02 1.3100000000e+02 0.0000e+00 0.0000e+00
      997  1    1    2    0    0 -4.4760933539e+00 +3.9693521112e+00 +4.4933148240e+02 4.4981615383e+02 2.0000000000e+01 0.0000e+00 0.0000e+00
</event>
<event>
 5      1 +2.3375200e-06 2.10018900e+02 7.95774700e-02 4.86427700e-01
       13 -1    0    0    0    0 +0.0000000000e+00 +0.0000000000e+00 +4.9999998884e+02 5.0000000000e+02 1.0566000000e-01 0.0000e+00 -1.0000e+00
      994 -1    0    0    0    0 -0.0000000000e+00 -0.0000000000e+00 +0.0000000000e+00 1.3100000000e+02 1.3100000000e+02 0.0000e+00 0.0000e+00
       13  1    1    2    0    0 -1.4585329289e+01 -4.5297072200e-01 +3.1275964959e+01 3.4512811551e+01 1.0566000000e-01 0.0000e+00 1.0000e+00
      994  1    1    2    0    0 +7.5481126273e+00 +8.7090632577e+00 +4.3725801870e+00 1.3157865041e+02 1.3100000000e+02 0.0000e+00 0.0000e+00
      997  1    1    2    0    0 +7.0372166620e+00 -8.2560925356e+00 +4.6435144369e+02 4.6490853804e+02 2.0000000000e+01 0.0000e+00 0.0000e+00
</event>
<event>
 5      1 +2.3375200e-06 2.08357100e+02 7.95774700e-02 4.89186000e-01
       13 -1    0    0    0    0 +0.0000000000e+00 +0.0000000000e+00 +4.9999998884e+02 5.0000000000e+02 1.0566000000e-01 0.0000e+00 1.0000e+00
      994 -1    0    0    0    0 -0.0000000000e+00 -0.0000000000e+00 +0.0000000000e+00 1.3100000000e+02 1.3100000000e+02 0.0000e+00 0.0000e+00
       13  1    1    2    0    0 +1.7005623861e+00 -1.8255103201e+01 +3.9052993223e+01 4.3142648841e+01 1.0566000000e-01 0.0000e+00 -1.0000e+00
      994  1    1    2    0    0 +2.0123757625e+01 +1.1521722355e+00 +7.1076191625e+00 1.3273210377e+02 1.3100000000e+02 0.0000e+00 0.0000e+00
      997  1    1    2    0    0 -2.1824320011e+01 +1.7102930965e+01 +4.5383937645e+02 4.5512524739e+02 2.0000000000e+01 0.0000e+00 0.0000e+00
</event>
<event>
 5      1 +2.3375200e-06 2.03782800e+02 7.95774700e-02 4.97076000e-01
       13 -1    0    0    0    0 +0.0000000000e+00 +0.0000000000e+00 +4.9999998884e+02 5.0000000000e+02 1.0566000000e-01 0.0000e+00 1.0000e+00
      994 -1    0    0    0    0 -0.0000000000e+00 -0.0000000000e+00 +0.0000000000e+00 1.3100000000e+02 1.3100000000e+02 0.0000e+00 0.0000e+00
       13  1    1    2    0    0 +2.4358849224e+01 +3.6846356726e+01 +1.9950536512e+02 2.0433651024e+02 1.0566000000e-01 0.0000e+00 -1.0000e+00
      994  1    1    2    0    0 +2.7933945879e+01 -3.0209712012e+01 +1.7866686098e+01 1.3846714594e+02 1.3100000000e+02 0.0000e+00 0.0000e+00
      997  1    1    2    0    0 -5.2292795103e+01 -6.6366447138e+00 +2.8262793761e+02 2.8819634382e+02 2.0000000000e+01 0.0000e+00 0.0000e+00
</event>
<event>
 5      1 +2.3375200e-06 2.12835000e+02 7.95774700e-02 4.81877900e-01
       13 -1    0    0    0    0 +0.0000000000e+00 +0.0000000000e+00 +4.9999998884e+02 5.0000000000e+02 1.0566000000e-01 0.0000e+00 -1.0000e+00
      994 -1    0    0    0    0 -0.0000000000e+00 -0.0000000000e+00 +0.0000000000e+00 1.3100000000e+02 1.3100000000e+02 0.0000e+00 0.0000e+00
       13  1    1    2    0    0 +9.4240473547e+00 +6.3691538460e+00 +5.9488781096e+01 6.0566533907e+01 1.0566000000e-01 0.0000e+00 1.0000e+00
      994  1    1    2    0    0 -2.8797792113e+00 -1.0916242074e+01 +2.1085352151e+00 1.3150248435e+02 1.3100000000e+02 0.0000e+00 0.0000e+00
      997  1    1    2    0    0 -6.5442681434e+00 +4.5470882277e+00 +4.3840267253e+02 4.3893098174e+02 2.0000000000e+01 0.0000e+00 0.0000e+00
</event>
<event>
 5      1 +2.3375200e-06 2.11122400e+02 7.95774700e-02 4.84626700e-01
       13 -1    0    0    0    0 +0.0000000000e+00 +0.0000000000e+00 +4.9999998884e+02 5.0000000000e+02 1.0566000000e-01 0.0000e+00 -1.0000e+00
      994 -1    0    0    0    0 -0.0000000000e+00 -0.0000000000e+00 +0.0000000000e+00 1.3100000000e+02 1.3100000000e+02 0.0000e+00 0.0000e+00
       13  1    1    2    0    0 -2.4097651571e+01 +7.2617864220e+00 +1.4431925780e+02 1.4649740506e+02 1.0566000000e-01 0.0000e+00 1.0000e+00
      994  1    1    2    0    0 +9.7206633934e+00 -1.4487913050e+01 +4.3426300116e+00 1.3222802032e+02 1.3100000000e+02 0.0000e+00 0.0000e+00
      997  1    1    2    0    0 +1.4376988177e+01 +7.2261266277e+00 +3.5133810103e+02 3.5227457463e+02 2.0000000000e+01 0.0000e+00 0.0000e+00
</event>
<event>
 5      1 +2.3375200e-06 2.00731600e+02 7.95774700e-02 5.02597200e-01
       13 -1    0    0    0    0 +0.0000000000e+00 +0.0000000000e+00 +4.9999998884e+02 5.0000000000e+02 1.0566000000e-01 0.0000e+00 -1.0000e+00
      994 -1    0    0    0    0 -0.0000000000e+00 -0.0000000000e+00 +0.0000000000e+00 1.3100000000e+02 1.3100000000e+02 0.0000e+00 0.0000e+00
       13  1    1    2    0    0 -4.3350999873e+01 +1.3050466347e+01 +8.2387313682e+01 9.4006938476e+01 1.0566000000e-01 0.0000e+00 1.0000e+00
      994  1    1    2    0    0 +2.8763448730e+01 -2.4768292665e+01 +1.9308532913e+01 1.3774840742e+02 1.3100000000e+02 0.0000e+00 0.0000e+00
      997  1    1    2    0    0 +1.4587551143e+01 +1.1717826318e+01 +3.9830414224e+02 3.9924465410e+02 2.0000000000e+01 0.0000e+00 0.0000e+00
</event>
<event>
 5      1 +2.3375200e-06 2.12232300e+02 7.95774700e-02 4.82839000e-01
       13 -1    0    0    0    0 +0.0000000000e+00 +0.0000000000e+00 +4.9999998884e+02 5.0000000000e+02 1.0566000000e-01 0.0000e+00 1.0000e+00
      994 -1    0    0    0    0 -0.0000000000e+00 -0.0000000000e+00 +0.0000000000e+00 1.3100000000e+02 1.3100000000e+02 0.0000e+00 0.0000e+00
       13  1    1    2    0    0 +9.4074525896e+00 +9.4320747824e+00 +6.6438113639e+01 6.7760595533e+01 1.0566000000e-01 0.0000e+00 -1.0000e+00
      994  1    1    2    0    0 -7.6082186381e+00 +4.8202109972e+00 +2.3553754399e+00 1.3133037432e+02 1.3100000000e+02 0.0000e+00 0.0000e+00
      997  1    1    2    0    0 -1.7992339515e+00 -1.4252285780e+01 +4.3120649976e+02 4.3190903015e+02 2.0000000000e+01 0.0000e+00 0.0000e+00
</event>
<event>
 5      1 +2.3375200e-06 2.02758000e+02 7.95774700e-02 4.98906300e-01
       13 -1    0    0    0    0 +0.0000000000e+00 +0.0000000000e+00 +4.9999998884e+02 5.0000000000e+02 1.0566000000e-01 0.0000e+00 -1.0000e+00
      994 -1    0    0    0    0 -0.0000000000e+00 -0.0000000000e+00 +0.0000000000e+00 1.3100000000e+02 1.3100000000e+02 0.0000e+00 0.0000e+00
       13  1    1    2    0    0 +2.2992704932e+01 -3.8860403745e+01 +8.8709624255e+01 9.9539962119e+01 1.0566000000e-01 0.0000e+00 1.0000e+00
      994  1    1    2    0    0 -5.7135556108e+01 +1.8105084131e+01 +2.9481678789e+01 1.4704569095e+02 1.3100000000e+02 0.0000e+00 0.0000e+00
      997  1    1    2    0    0 +3.4142851177e+01 +2.0755319614e+01 +3.8180868579e+02 3.8441434693e+02 2.0000000000e+01 0.0000e+00 0.0000e+00
</event>
<event>
 5      1 +2.3375200e-06 2.13050700e+02 7.95774700e-02 4.81535700e-01
       13 -1    0    0    0    0 +0.0000000000e+00 +0.0000000000e+00 +4.9999998884e+02 5.0000000000e+02 1.0566000000e-01 0.0000e+00 -1.0000e+00
      994 -1    0    0    0    0 -0.0000000000e+00 -0.0000000000e+00 +0.0000000000e+00 1.3100000000e+02 1.3100000000e+02 0.0000e+00 0.0000e+00
       13  1    1    2    0    0 -1.0504985871e+01 -2.7060242036e+00 +6.0498154007e+01 6.1463119815e+01 1.0566000000e-01 0.0000e+00 1.0000e+00
      994  1    1    2    0    0 +1.2653180025e+01 -5.3587281033e+00 +2.2394120932e+00 1.3173774667e+02 1.3100000000e+02 0.0000e+00 0.0000e+00
      997  1    1    2    0    0 -2.1481941541e+00 +8.0647523069e+00 +4.3726242274e+02 4.3779913351e+02 2.0000000000e+01 0.0000e+00 0.0000e+00
</event>
<event>
 5      1 +2.3375200e-06 2.08940700e+02 7.95774700e-02 4.88210900e-01
       13 -1    0    0    0    0 +0.0000000000e+00 +0.0000000000e+00 +4.9999998884e+02 5.0000000000e+02 1.0566000000e-01 0.0000e+00 -1.0000e+00
      994 -1    0    0    0    0 -0.0000000000e+00 -0.0000000000e+00 +0.0000000000e+00 1.3100000000e+02 1.3100000000e+02 0.0000e+00 0.0000e+00
       13  1    1    2    0    0 -5.3935373050e+01 +2.2910559438e+01 +2.2891946195e+02 2.3630076052e+02 1.0566000000e-01 0.0000e+00 1.0000e+00
      994  1    1    2    0    0 +5.0126313436e+01 -3.3804660962e+01 +2.3662952409e+01 1.4620649000e+02 1.3100000000e+02 0.0000e+00 0.0000e+00
      997  1    1    2    0    0 +3.8090596141e+00 +1.0894101524e+01 +2.4741757448e+02 2.4849274948e+02 2.0000000000e+01 0.0000e+00 0.0000e+00
</event>
<event>
 5      1 +2.3375200e-06 2.08208600e+02 7.95774700e-02 4.89435100e-01
       13 -1    0    0    0    0 +0.0000000000e+00 +0.0000000000e+00 +4.9999998884e+02 5.0000000000e+02 1.0566000000e-01 0.0000e+00 -1.0000e+00
      994 -1    0    0    0    0 -0.0000000000e+00 -0.0000000000e+00 +0.0000000000e+00 1.3100000000e+02 1.3100000000e+02 0.0000e+00 0.0000e+00
       13  1    1    2    0    0 -2.1314515683e+01 -6.2082767428e-02 +4.8010799618e+01 5.2529615238e+01 1.0566000000e-01 0.0000e+00 1.0000e+00
      994  1    1    2    0    0 +8.7673661642e+00 -2.5731548323e+00 +5.5875874894e+00 1.3143709130e+02 1.3100000000e+02 0.0000e+00 0.0000e+00
      997  1    1    2    0    0 +1.2547149519e+01 +2.6352375997e+00 +4.4640160173e+02 4.4703329346e+02 2.0000000000e+01 0.0000e+00 0.0000e+00
</event>
<event>
 5      1 +2.3375200e-06 2.05687400e+02 7.95774700e-02 4.93736200e-01
       13 -1    0    0    0    0 +0.0000000000e+00 +0.0000000000e+00 +4.9999998884e+02 5.0000000000e+02 1.0566000000e-01 0.0000e+00 1.0000e+00
      994 -1    0    0    0    0 -0.0000000000e+00 -0.0000000000e+00 +0.0000000000e+00 1.3100000000e+02 1.3100000000e+02 0.0000e+00 0.0000e+00
       13  1    1    2    0    0 +1.9193412254e+01 -3.7135490153e+01 +8.5948088069e+01 9.5574665626e+01 1.0566000000e-01 0.0000e+00 -1.0000e+00
      994  1    1    2    0    0 -3.0361614108e+01 +4.6051114255e+01 +2.3461700141e+01 1.4406243129e+02 1.3100000000e+02 0.0000e+00 0.0000e+00
      997  1    1    2    0    0 +1.1168201854e+01 -8.9156241022e+00 +3.9059020063e+02 3.9136290308e+02 2.0000000000e+01 0.0000e+00 0.0000e+00
</event>
<event>
 5      1 +2.3375200e-06 2.02772200e+02 7.95774700e-02 4.98880900e-01
       13 -1    0    0    0    0 +0.0000000000e+00 +0.0000000000e+00 +4.9999998884e+02 5.0000000000e+02 1.0566000000e-01 0.0000e+00 -1.0000e+00
      994 -1    0    0    0    0 -0.0000000000e+00 -0.0000000000e+00 +0.0000000000e+00 1.3100000000e+02 1.3100000000e+02 0.0000e+00 0.0000e+00
       13  1    1    2    0    0 +1.1992493886e+01 -4.3606796894e-03 -9.6759028522e+00 1.5409548619e+01 1.0566000000e-01 0.0000e+00 1.0000e+00
      994  1    1    2    0    0 +1.4772359110e+01 -7.0589495909e+00 +3.0885630919e+01 1.3558382485e+02 1.3100000000e+02 0.0000e+00 0.0000e+00
      997  1    1    2    0    0 -2.6764852996e+01 +7.0633102706e+00 +4.7879026077e+02 4.8000662653e+02 2.0000000000e+01 0.0000e+00 0.0000e+00
</event>
<event>
 5      1 +2.3375200e-06 2.12819700e+02 7.95774700e-02 4.81902300e-01
       13 -1    0    0    0    0 +0.0000000000e+00 +0.0000000000e+00 +4.9999998884e+02 5.0000000000e+02 1.0566000000e-01 0.0000e+00 1.0000e+00
      994 -1    0    0    0    0 -0.0000000000e+00 -0.0000000000e+00 +0.0000000000e+00 1.3100000000e+02 1.3100000000e+02 0.0000e+00 0.0000e+00
       13  1    1    2    0    0 +9.1195182126e-01 +1.1359278210e+01 +5.2876618587e+01 5.4090783085e+01 1.0566000000e-01 0.0000e+00 -1.0000e+00
      994  1    1    2    0    0 -5.5404354611e+00 -1.2974201597e+01 +2.4713376653e+00 1.3178062772e+02 1.3100000000e+02 0.0000e+00 0.0000e+00
      997  1    1    2    0    0 +4.6284836398e+00 +1.6149233876e+00 +4.4465203258e+02 4.4512858920e+02 2.0000000000e+01 0.0000e+00 0.0000e+00
</event>
<event>
 5      1 +2.3375200e-06 2.11023500e+02 7.95774700e-02 4.84787200e-01
       13 -1    0    0    0    0 +0.0000000000e+00 +0.0000000000e+00 +4.9999998884e+02 5.0000000000e+02 1.0566000000e-01 0.0000e+00 -1.0000e+00
      994 -1    0    0    0    0 -0.0000000000e+00 -0.0000000000e+00 +0.0000000000e+00 1.3100000000e+02 1.3100000000e+02 0.0000e+00 0.0000e+00
       13  1    1    2    0    0 -2.1075228921e+01 +3.4475077177e+01 +2.1374997042e+02 2.1753564591e+02 1.0566000000e-01 0.0000e+00 1.0000e+00
      994  1    1    2    0    0 +2.7275319213e+01 -3.0294430752e+01 +1.1271488626e+01 1.3765806198e+02 1.3100000000e+02 0.0000e+00 0.0000e+00
      997  1    1    2    0    0 -6.2000902914e+00 -4.1806464249e+00 +2.7497852979e+02 2.7580629211e+02 2.0000000000e+01 0.0000e+00 0.0000e+00
</event>
<event>
 5      1 +2.3375200e-06 2.08715200e+02 7.95774700e-02 4.88586800e-01
       13 -1    0    0    0    0 +0.0000000000e+00 +0.0000000000e+00 +4.9999998884e+02 5.0000000000e+02 1.0566000000e-01 0.0000e+00 -1.0000e+00
      994 -1    0    0    0    0 -0.0000000000e+00 -0.0000000000e+00 +0.0000000000e+00 1.3100000000e+02 1.3100000000e+02 0.0000e+00 0.0000e+00
       13  1    1    2    0    0 -2.5802926241e+01 +6.9783185086e+00 +8.1690982339e+01 8.5952985354e+01 1.0566000000e-01 0.0000e+00 1.0000e+00
      994  1    1    2    0    0 +1.4302024873e+01 -5.1361678080e+00 +5.9223204187e+00 1.3201137078e+02 1.3100000000e+02 0.0000e+00 0.0000e+00
      997  1    1    2    0    0 +1.1500901368e+01 -1.8421507006e+00 +4.1238668608e+02 4.1303564387e+02 2.0000000000e+01 0.0000e+00 0.0000e+00
</event>
<event>
 5      1 +2.3375200e-06 2.12401200e+02 7.95774700e-02 4.82569000e-01
       13 -1    0    0    0    0 +0.0000000000e+00 +0.0000000000e+00 +4.9999998884e+02 5.0000000000e+02 1.0566000000e-01 0.0000e+00 -1.0000e+00
      994 -1    0    0    0    0 -0.0000000000e+00 -0.0000000000e+00 +0.0000000000e+00 1.3100000000e+02 1.3100000000e+02 0.0000e+00 0.0000e+00
       13  1    1    2    0    0 -1.0833182997e+01 -5.8229161903e+00 +4.9665178436e+01 5.1165469996e+01 1.0566000000e-01 0.0000e+00 1.0000e+00
      994  1    1    2    0    0 +8.2709510775e+00 +9.1157052438e+00 +2.5681902948e+00 1.3160205285e+02 1.3100000000e+02 0.0000e+00 0.0000e+00
      997  1    1    2    0    0 +2.5622319193e+00 -3.2927890535e+00 +4.4776662011e+02 4.4823247715e+02 2.0000000000e+01 0.0000e+00 0.0000e+00
</event>
<event>
 5      1 +2.3375200e-06 2.10518300e+02 7.95774700e-02 4.85609800e-01
       13 -1    0    0    0    0 +0.0000000000e+00 +0.0000000000e+00 +4.9999998884e+02 5.0000000000e+02 1.0566000000e-01 0.0000e+00 -1.0000e+00
      994 -1    0    0    0    0 -0.0000000000e+00 -0.0000000000e+00 +0.0000000000e+00 1.3100000000e+02 1.3100000000e+02 0.0000e+00 0.0000e+00
       13  1    1    2    0    0 +6.3756743302e+00 +1.7412672867e+01 +6.3115533598e+01 6.5783220846e+01 1.0566000000e-01 0.0000e+00 1.0000e+00
      994  1    1    2    0    0 +3.2238027961e+01 -2.3210400177e+01 +1.1276967499e+01 1.3735422498e+02 1.3100000000e+02 0.0000e+00 0.0000e+00
      997  1    1    2    0    0 -3.8613702292e+01 +5.7977273092e+00 +4.2560748774e+02 4.2786255418e+02 2.0000000000e+01 0.0000e+00 0.0000e+00
</event>
<event>
 5      1 +2.3375200e-06 2.09786200e+02 7.95774700e-02 4.86810700e-01
       13 -1    0    0    0    0 +0.0000000000e+00 +0.0000000000e+00 +4.9999998884e+02 5.0000000000e+02 1.0566000000e-01 0.0000e+00 -1.0000e+00
      994 -1    0    0    0    0 -0.0000000000e+00 -0.0000000000e+00 +0.0000000000e+00 1.3100000000e+02 1.3100000000e+02 0.0000e+00 0.0000e+00
       13  1    1    2    0    0 -2.6497793375e+01 +3.9108810696e+00 +8.1022633732e+01 8.5335258747e+01 1.0566000000e-01 0.0000e+00 1.0000e+00
      994  1    1    2    0    0 +3.2765005423e+01 +8.7257045488e+00 +9.7085088505e+00 1.3566480253e+02 1.3100000000e+02 0.0000e+00 0.0000e+00
      997  1    1    2    0    0 -6.2672120487e+00 -1.2636585618e+01 +4.0926884625e+02 4.0999993873e+02 2.0000000000e+01 0.0000e+00 0.0000e+00
</event>
<event>
 5      1 +2.3375200e-06 2.12870200e+02 7.95774700e-02 4.81822000e-01
       13 -1    0    0    0    0 +0.0000000000e+00 +0.0000000000e+00 +4.9999998884e+02 5.0000000000e+02 1.0566000000e-01 0.0000e+00 1.0000e+00
      994 -1    0    0    0    0 -0.0000000000e+00 -0.0000000000e+00 +0.0000000000e+00 1.3100000000e+02 1.3100000000e+02 0.0000e+00 0.0000e+00
       13  1    1    2    0    0 -4.8417033585e-01 +1.6631837555e+01 +9.2442210886e+01 9.3927769903e+01 1.0566000000e-01 0.0000e+00 -1.0000e+00
      994  1    1    2    0    0 -2.6560236919e+00 -2.4551715052e+01 +4.4529749224e+00 1.3338167100e+02 1.3100000000e+02 0.0000e+00 0.0000e+00
      997  1    1    2    0    0 +3.1401940277e+00 +7.9198774978e+00 +4.0310480303e+02 4.0369055909e+02 2.0000000000e+01 0.0000e+00 0.0000e+00
</event>
<event>
 5      1 +2.3375200e-06 2.08003100e+02 7.95774700e-02 4.89780700e-01
       13 -1    0    0    0    0 +0.0000000000e+00 +0.0000000000e+00 +4.9999998884e+02 5.0000000000e+02 1.0566000000e-01 0.0000e+00 1.0000e+00
      994 -1    0    0    0    0 -0.0000000000e+00 -0.0000000000e+00 +0.0000000000e+00 1.3100000000e+02 1.3100000000e+02 0.0000e+00 0.0000e+00
       13  1    1    2    0    0 -1.4478746683e+01 -3.4619525701e+00 +1.6842975642e+01 2.2479239614e+01 1.0566000000e-01 0.0000e+00 -1.0000e+00
      994  1    1    2    0    0 +3.0506940560e+01 +1.7482392365e+01 +1.1679053255e+01 1.3613856085e+02 1.3100000000e+02 0.0000e+00 0.0000e+00
      997  1    1    2    0    0 -1.6028193877e+01 -1.4020439794e+01 +4.7147795994e+02 4.7238219954e+02 2.0000000000e+01 0.0000e+00 0.0000e+00
</event>
<event>
 5      1 +2.3375200e-06 2.05375800e+02 7.95774700e-02 4.94277200e-01
       13 -1    0    0    0    0 +0.0000000000e+00 +0.0000000000e+00 +4.9999998884e+02 5.0000000000e+02 1.0566000000e-01 0.0000e+00 1.0000e+00
      994 -1    0    0    0    0 -0.0000000000e+00 -0.0000000000e+00 +0.0000000000e+00 1.3100000000e+02 1.3100000000e+02 0.0000e+00 0.0000e+00
       13  1    1    2    0    0 -6.0380322952e+00 +9.4038091933e+00 +6.6222926699e+00 1.2990588346e+01 1.0566000000e-01 0.0000e+00 -1.0000e+00
      994  1    1    2    0    0 -7.5722158983e+00 +1.4555873790e+01 +8.8854155648e+00 1.3232219211e+02 1.3100000000e+02 0.0000e+00 0.0000e+00
      997  1    1    2    0    0 +1.3610248194e+01 -2.3959682983e+01 +4.8449228060e+02 4.8568721954e+02 2.0000000000e+01 0.0000e+00 0.0000e+00
</event>
<event>
 5      1 +2.3375200e-06 2.09892300e+02 7.95774700e-02 4.86636000e-01
       13 -1    0    0    0    0 +0.0000000000e+00 +0.0000000000e+00 +4.9999998884e+02 5.0000000000e+02 1.0566000000e-01 0.0000e+00 1.0000e+00
      994 -1    0    0    0    0 -0.0000000000e+00 -0.0000000000e+00 +0.0000000000e+00 1.3100000000e+02 1.3100000000e+02 0.0000e+00 0.0000e+00
       13  1    1    2    0    0 -9.5617468144e-01 +1.5155475082e+01 +3.1426730443e+01 3.4903484716e+01 1.0566000000e-01 0.0000e+00 -1.0000e+00
      994  1    1    2    0    0 -1.1968423796e+01 -1.3448405959e+01 +5.4345338253e+00 1.3234287646e+02 1.3100000000e+02 0.0000e+00 0.0000e+00
      997  1    1    2    0    0 +1.2924598478e+01 -1.7070691224e+00 +4.6313872457e+02 4.6375363883e+02 2.0000000000e+01 0.0000e+00 0.0000e+00
</event>
<event>
 5      1 +2.3375200e-06 1.94024800e+02 7.95774700e-02 5.15536100e-01
       13 -1    0    0    0    0 +0.0000000000e+00 +0.0000000000e+00 +4.9999998884e+02 5.0000000000e+02 1.0566000000e-01 0.0000e+00 -1.0000e+00
      994 -1    0    0    0    0 -0.0000000000e+00 -0.0000000000e+00 +0.0000000000e+00 1.3100000000e+02 1.3100000000e+02 0.0000e+00 0.0000e+00
       13  1    1    2    0    0 -3.1410883076e+01 -3.9638885441e+01 +3.4243197761e+01 6.1077758403e+01 1.0566000000e-01 0.0000e+00 1.0000e+00
      994  1    1    2    0    0 +7.9312382441e+01 +4.4343858404e+01 +7.5860959842e+01 1.7655797069e+02 1.3100000000e+02 0.0000e+00 0.0000e+00
      997  1    1    2    0    0 -4.7901499365e+01 -4.7049729632e+00 +3.8989583123e+02 3.9336427090e+02 2.0000000000e+01 0.0000e+00 0.0000e+00
</event>
<event>
 5      1 +2.3375200e-06 2.09141700e+02 7.95774700e-02 4.87876700e-01
       13 -1    0    0    0    0 +0.0000000000e+00 +0.0000000000e+00 +4.9999998884e+02 5.0000000000e+02 1.0566000000e-01 0.0000e+00 1.0000e+00
      994 -1    0    0    0    0 -0.0000000000e+00 -0.0000000000e+00 +0.0000000000e+00 1.3100000000e+02 1.3100000000e+02 0.0000e+00 0.0000e+00
       13  1    1    2    0    0 -5.6647748072e+00 +1.2088409306e+01 +2.0300218261e+01 2.4296693986e+01 1.0566000000e-01 0.0000e+00 -1.0000e+00
      994  1    1    2    0    0 -7.8725170112e+00 -1.4325481671e+01 +5.7580720554e+00 1.3214140662e+02 1.3100000000e+02 0.0000e+00 0.0000e+00
      997  1    1    2    0    0 +1.3537291818e+01 +2.2370723644e+00 +4.7394169852e+02 4.7456189940e+02 2.0000000000e+01 0.0000e+00 0.0000e+00
</event>
<event>
 5      1 +2.3375200e-06 2.08677300e+02 7.95774700e-02 4.88650200e-01
       13 -1    0    0    0    0 +0.0000000000e+00 +0.0000000000e+00 +4.9999998884e+02 5.0000000000e+02 1.0566000000e-01 0.0000e+00 -1.0000e+00
      994 -1    0    0    0    0 -0.0000000000e+00 -0.0000000000e+00 +0.0000000000e+00 1.3100000000e+02 1.3100000000e+02 0.0000e+00 0.0000e+00
       13  1    1    2    0    0 -1.8278596803e+01 +2.4950479877e+01 +1.4320434442e+02 1.4650641273e+02 1.0566000000e-01 0.0000e+00 1.0000e+00
      994  1    1    2    0    0 +2.5601401509e+00 -5.7966770826e+00 +4.9881589062e+00 1.3124800003e+02 1.3100000000e+02 0.0000e+00 0.0000e+00
      997  1    1    2    0    0 +1.5718456652e+01 -1.9153802794e+01 +3.5180748551e+02 3.5324558724e+02 2.0000000000e+01 0.0000e+00 0.0000e+00
</event>
<event>
 5      1 +2.3375200e-06 2.11754800e+02 7.95774700e-02 4.83605200e-01
       13 -1    0    0    0    0 +0.0000000000e+00 +0.0000000000e+00 +4.9999998884e+02 5.0000000000e+02 1.0566000000e-01 0.0000e+00 1.0000e+00
      994 -1    0    0    0    0 -0.0000000000e+00 -0.0000000000e+00 +0.0000000000e+00 1.3100000000e+02 1.3100000000e+02 0.0000e+00 0.0000e+00
       13  1    1    2    0    0 -1.1737897888e+01 +2.7030546488e+00 +4.1940974632e+01 4.3636467185e+01 1.0566000000e-01 0.0000e+00 -1.0000e+00
      994  1    1    2    0    0 +1.7223441103e+00 +9.3587061041e+00 +2.7787130685e+00 1.3137455269e+02 1.3100000000e+02 0.0000e+00 0.0000e+00
      997  1    1    2    0    0 +1.0015553778e+01 -1.2061760753e+01 +4.5528030114e+02 4.5598898012e+02 2.0000000000e+01 0.0000e+00 0.0000e+00
</event>
<event>
 5      1 +2.3375200e-06 1.96802200e+02 7.95774700e-02 5.10037500e-01
       13 -1    0    0    0    0 +0.0000000000e+00 +0.0000000000e+00 +4.9999998884e+02 5.0000000000e+02 1.0566000000e-01 0.0000e+00 -1.0000e+00
      994 -1    0    0    0    0 -0.0000000000e+00 -0.0000000000e+00 +0.0000000000e+00 1.3100000000e+02 1.3100000000e+02 0.0000e+00 0.0000e+00
       13  1    1    2    0    0 -5.2738287919e+00 -2.0685342630e+01 +1.6973018939e+01 2.7272535742e+01 1.0566000000e-01 0.0000e+00 1.0000e+00
      994  1    1    2    0    0 -1.3626924108e+01 -6.6986674405e+01 +4.2549229771e+01 1.5376717648e+02 1.3100000000e+02 0.0000e+00 0.0000e+00
      997  1    1    2    0    0 +1.8900752899e+01 +8.7672017035e+01 +4.4047774013e+02 4.4996028778e+02 2.0000000000e+01 0.0000e+00 0.0000e+00
</event>
<event>
 5      1 +2.3375200e-06 2.10710200e+02 7.95774700e-02 4.85296700e-01
       13 -1    0    0    0    0 +0.0000000000e+00 +0.0000000000e+00 +4.9999998884e+02 5.0000000000e+02 1.0566000000e-01 0.0000e+00 1.0000e+00
      994 -1    0    0    0    0 -0.0000000000e+00 -0.0000000000e+00 +0.0000000000e+00 1.3100000000e+02 1.3100000000e+02 0.0000e+00 0.0000e+00
       13  1    1    2    0    0 +1.1901475896e+01 -5.9904843603e+00 +3.2073120935e+01 3.4730782916e+01 1.0566000000e-01 0.0000e+00 -1.0000e+00
      994  1    1    2    0    0 -2.7085672369e+00 +7.1416634358e+00 +3.4481228334e+00 1.3126777687e+02 1.3100000000e+02 0.0000e+00 0.0000e+00
      997  1    1    2    0    0 -9.1929086590e+00 -1.1511790755e+00 +4.6447874507e+02 4.6500144022e+02 2.0000000000e+01 0.0000e+00 0.0000e+00
</event>
<event>
 5      1 +2.3375200e-06 2.11688300e+02 7.95774700e-02 4.83712300e-01
       13 -1    0    0    0    0 +0.0000000000e+00 +0.0000000000e+00 +4.9999998884e+02 5.0000000000e+02 1.0566000000e-01 0.0000e+00 -1.0000e+00
      994 -1    0    0    0    0 -0.0000000000e+00 -0.0000000000e+00 +0.0000000000e+00 1.3100000000e+02 1.3100000000e+02 0.0000e+00 0.0000e+00
       13  1    1    2    0    0 +2.5007617371e+01 +3.2777829327e-01 +1.2641792563e+02 1.2886811650e+02 1.0566000000e-01 0.0000e+00 1.0000e+00
      994  1    1    2    0    0 -3.7846514351e+01 -4.3919090767e+01 +1.9489568537e+01 1.4457554587e+02 1.3100000000e+02 0.0000e+00 0.0000e+00
      997  1    1    2    0    0 +1.2838896980e+01 +4.3591312474e+01 +3.5409249467e+02 3.5755633763e+02 2.0000000000e+01 0.0000e+00 0.0000e+00
</event>
<event>
 5      1 +2.3375200e-06 2.04662000e+02 7.95774700e-02 4.95524200e-01
       13 -1    0    0    0    0 +0.0000000000e+00 +0.0000000000e+00 +4.9999998884e+02 5.0000000000e+02 1.0566000000e-01 0.0000e+00 1.0000e+00
      994 -1    0    0    0    0 -0.0000000000e+00 -0.0000000000e+00 +0.0000000000e+00 1.3100000000e+02 1.3100000000e+02 0.0000e+00 0.0000e+00
       13  1    1    2    0    0 +2.1873450769e+01 -8.2680987534e+00 +3.2263095871e+01 3.9846302523e+01 1.0566000000e-01 0.0000e+00 -1.0000e+00
      994  1    1    2    0    0 -1.5797710312e+01 +1.7664802813e+00 +9.4010218707e+00 1.3229537904e+02 1.3100000000e+02 0.0000e+00 0.0000e+00
      997  1    1    2    0    0 -6.0757404571e+00 +6.5016184721e+00 +4.5833587109e+02 4.5885831843e+02 2.0000000000e+01 0.0000e+00 0.0000e+00
</event>
<event>
 5      1 +2.3375200e-06 2.09335700e+02 7.95774700e-02 4.87554900e-01
       13 -1    0    0    0    0 +0.0000000000e+00 +0.0000000000e+00 +4.9999998884e+02 5.0000000000e+02 1.0566000000e-01 0.0000e+00 1.0000e+00
      994 -1    0    0    0    0 -0.0000000000e+00 -0.0000000000e+00 +0.0000000000e+00 1.3100000000e+02 1.3100000000e+02 0.0000e+00 0.0000e+00
       13  1    1    2    0    0 +3.8828678145e+01 -3.1055418835e-01 +1.4317365184e+02 1.4834577323e+02 1.0566000000e-01 0.0000e+00 -1.0000e+00
      994  1    1    2    0    0 -3.9356804921e+01 -1.2604055626e+01 +1.2970527796e+01 1.3797483431e+02 1.3100000000e+02 0.0000e+00 0.0000e+00
      997  1    1    2    0    0 +5.2812677605e-01 +1.2914609814e+01 +3.4385580920e+02 3.4467939246e+02 2.0000000000e+01 0.0000e+00 0.0000e+00
</event>
<event>
 5      1 +2.3375200e-06 2.11094400e+02 7.95774700e-02 4.84672100e-01
       13 -1    0    0    0    0 +0.0000000000e+00 +0.0000000000e+00 +4.9999998884e+02 5.0000000000e+02 1.0566000000e-01 0.0000e+00 -1.0000e+00
      994 -1    0    0    0    0 -0.0000000000e+00 -0.0000000000e+00 +0.0000000000e+00 1.3100000000e+02 1.3100000000e+02 0.0000e+00 0.0000e+00
       13  1    1    2    0    0 -1.0938896173e+01 -1.2143035735e+01 +8.0980419814e+01 8.2613269658e+01 1.0566000000e-01 0.0000e+00 1.0000e+00
      994  1    1    2    0    0 -9.4271150182e+00 -4.1964236114e+00 +3.3814073513e+00 1.3144928446e+02 1.3100000000e+02 0.0000e+00 0.0000e+00
      997  1    1    2    0    0 +2.0366011191e+01 +1.6339459347e+01 +4.1563816167e+02 4.1693744588e+02 2.0000000000e+01 0.0000e+00 0.0000e+00
</event>
<event>
 5      1 +2.3375200e-06 2.02285100e+02 7.95774700e-02 4.99759100e-01
       13 -1    0    0    0    0 +0.0000000000e+00 +0.0000000000e+00 +4.9999998884e+02 5.0000000000e+02 1.0566000000e-01 0.0000e+00 -1.0000e+00
      994 -1    0    0    0    0 -0.0000000000e+00 -0.0000000000e+00 +0.0000000000e+00 1.3100000000e+02 1.3100000000e+02 0.0000e+00 0.0000e+00
       13  1    1    2    0    0 +9.7146577404e+00 +1.5094832064e+01 +1.1819384516e+01 2.1492732363e+01 1.0566000000e-01 0.0000e+00 1.0000e+00
      994  1    1    2    0    0 -2.3062219066e+00 -2.0856820626e+01 +1.2437762381e+01 1.3325173004e+02 1.3100000000e+02 0.0000e+00 0.0000e+00
      997  1    1    2    0    0 -7.4084358338e+00 +5.7619885622e+00 +4.7574284194e+02 4.7625553760e+02 2.0000000000e+01 0.0000e+00 0.0000e+00
</event>
<event>
 5      1 +2.3375200e-06 2.08734400e+02 7.95774700e-02 4.88554800e-01
       13 -1    0    0    0    0 +0.0000000000e+00 +0.0000000000e+00 +4.9999998884e+02 5.0000000000e+02 1.0566000000e-01 0.0000e+00 -1.0000e+00
      994 -1    0    0    0    0 -0.0000000000e+00 -0.0000000000e+00 +0.0000000000e+00 1.3100000000e+02 1.3100000000e+02 0.0000e+00 0.0000e+00
       13  1    1    2    0    0 +1.3018654010e+01 +7.7693271200e+00 +2.4528672834e+01 2.8835997488e+01 1.0566000000e-01 0.0000e+00 1.0000e+00
      994  1    1    2    0    0 -1.3153205804e+01 +2.3019154753e+00 +5.6401928166e+00 1.3179953495e+02 1.3100000000e+02 0.0000e+00 0.0000e+00
      997  1    1    2    0    0 +1.3455179423e-01 -1.0071242595e+01 +4.6983112319e+02 4.7036446756e+02 2.0000000000e+01 0.0000e+00 0.0000e+00
</event>
<event>
 5      1 +2.3375200e-06 2.12086700e+02 7.95774700e-02 4.83072100e-01
       13 -1    0    0    0    0 +0.0000000000e+00 +0.0000000000e+00 +4.9999998884e+02 5.0000000000e+02 1.0566000000e-01 0.0000e+00 -1.0000e+00
      994 -1    0    0    0    0 -0.0000000000e+00 -0.0000000000e+00 +0.0000000000e+00 1.3100000000e+02 1.3100000000e+02 0.0000e+00 0.0000e+00
       13  1    1    2    0    0 -1.4699982858e+01 +6.4618705041e-02 +7.7225423960e+01 7.8612155176e+01 1.0566000000e-01 0.0000e+00 1.0000e+00
      994  1    1    2    0    0 +2.4389657649e+00 -1.1294534317e+01 +2.7280554208e+00 1.3153690488e+02 1.3100000000e+02 0.0000e+00 0.0000e+00
      997  1    1    2    0    0 +1.2261017093e+01 +1.1229915612e+01 +4.2004650946e+02 4.2085093994e+02 2.0000000000e+01 0.0000e+00 0.0000e+00
</event>
<event>
 5      1 +2.3375200e-06 2.13020700e+02 7.95774700e-02 4.81583200e-01
       13 -1    0    0    0    0 +0.0000000000e+00 +0.0000000000e+00 +4.9999998884e+02 5.0000000000e+02 1.0566000000e-01 0.0000e+00 1.0000e+00
      994 -1    0    0    0    0 -0.0000000000e+00 -0.0000000000e+00 +0.0000000000e+00 1.3100000000e+02 1.3100000000e+02 0.0000e+00 0.0000e+00
       13  1    1    2    0    0 -6.4921501326e+00 +8.6551224663e+00 +4.0475179682e+01 4.1896425774e+01 1.0566000000e-01 0.0000e+00 -1.0000e+00
      994  1    1    2    0    0 +2.4564585165e+01 -2.0308163415e+01 +6.3423488219e+00 1.3497061063e+02 1.3100000000e+02 0.0000e+00 0.0000e+00
      997  1    1    2    0    0 -1.8072435032e+01 +1.1653040949e+01 +4.5318246033e+02 4.5413296360e+02 2.0000000000e+01 0.0000e+00 0.0000e+00
</event>
<event>
 5      1 +2.3375200e-06 2.09886900e+02 7.95774700e-02 4.86644900e-01
       13 -1    0    0    0    0 +0.0000000000e+00 +0.0000000000e+00 +4.9999998884e+02 5.0000000000e+02 1.0566000000e-01 0.0000e+00 -1.0000e+00
      994 -1    0    0    0    0 -0.0000000000e+00 -0.0000000000e+00 +0.0000000000e+00 1.3100000000e+02 1.3100000000e+02 0.0000e+00 0.0000e+00
       13  1    1    2    0    0 +6.6866592310e+00 +1.9324430554e+01 +6.4583636768e+01 6.7743651586e+01 1.0566000000e-01 0.0000e+00 1.0000e+00
      994  1    1    2    0    0 +3.6333819090e+00 -9.3315403903e+00 +4.3157538083e+00 1.3145305185e+02 1.3100000000e+02 0.0000e+00 0.0000e+00
      997  1    1    2    0    0 -1.0320041140e+01 -9.9928901636e+00 +4.3110059826e+02 4.3180329656e+02 2.0000000000e+01 0.0000e+00 0.0000e+00
</event>
<event>
 5      1 +2.3375200e-06 2.07329600e+02 7.95774700e-02 4.90919500e-01
       13 -1    0    0    0    0 +0.0000000000e+00 +0.0000000000e+00 +4.9999998884e+02 5.0000000000e+02 1.0566000000e-01 0.0000e+00 -1.0000e+00
      994 -1    0    0    0    0 -0.0000000000e+00 -0.0000000000e+00 +0.0000000000e+00 1.3100000000e+02 1.3100000000e+02 0.0000e+00 0.0000e+00
       13  1    1    2    0    0 +7.4855103989e+00 +1.3443744135e+01 +1.9883640764e+01 2.5142343891e+01 1.0566000000e-01 0.0000e+00 1.0000e+00
      994  1    1    2    0    0 -6.5117524564e+00 -2.8139861120e+00 +6.1358708336e+00 1.3133533549e+02 1.3100000000e+02 0.0000e+00 0.0000e+00
      997  1    1    2    0    0 -9.7375794251e-01 -1.0629758023e+01 +4.7398047724e+02 4.7452232062e+02 2.0000000000e+01 0.0000e+00 0.0000e+00
</event>
<event>
 5      1 +2.3375200e-06 2.07729300e+02 7.95774700e-02 4.90242500e-01
       13 -1    0    0    0    0 +0.0000000000e+00 +0.0000000000e+00 +4.9999998884e+02 5.0000000000e+02 1.0566000000e-01 0.0000e+00 -1.0000e+00
      994 -1    0    0    0    0 -0.0000000000e+00 -0.0000000000e+00 +0.0000000000e+00 1.3100000000e+02 1.3100000000e+02 0.0000e+00 0.0000e+00
       13  1    1    2    0    0 +3.4654664513e+01 +9.0005182978e+00 +1.4777226545e+02 1.5204804735e+02 1.0566000000e-01 0.0000e+00 1.0000e+00
      994  1    1    2    0    0 -1.9989825486e+01 +1.7389769748e+01 +9.1470036644e+00 1.3396516297e+02 1.3100000000e+02 0.0000e+00 0.0000e+00
      997  1    1    2    0    0 -1.4664839027e+01 -2.6390288046e+01 +3.4308071972e+02 3.4498678967e+02 2.0000000000e+01 0.0000e+00 0.0000e+00
</event>
<event>
 5      1 +2.3375200e-06 1.92840400e+02 7.95774700e-02 5.17944900e-01
       13 -1    0    0    0    0 +0.0000000000e+00 +0.0000000000e+00 +4.9999998884e+02 5.0000000000e+02 1.0566000000e-01 0.0000e+00 -1.0000e+00
      994 -1    0    0    0    0 -0.0000000000e+00 -0.0000000000e+00 +0.0000000000e+00 1.3100000000e+02 1.3100000000e+02 0.0000e+00 0.0000e+00
       13  1    1    2    0    0 -2.8962801194e+01 -1.5910623162e+01 +2.3640340171e+01 4.0630882710e+01 1.0566000000e-01 0.0000e+00 1.0000e+00
      994  1    1    2    0    0 +7.1179240235e+00 +2.5475419138e+01 +2.2597466337e+01 1.3554079573e+02 1.3100000000e+02 0.0000e+00 0.0000e+00
      997  1    1    2    0    0 +2.1844877170e+01 -9.5647959765e+00 +4.5376218233e+02 4.5482832156e+02 2.0000000000e+01 0.0000e+00 0.0000e+00
</event>
<event>
 5      1 +2.3375200e-06 2.10453000e+02 7.95774700e-02 4.85716400e-01
       13 -1    0    0    0    0 +0.0000000000e+00 +0.0000000000e+00 +4.9999998884e+02 5.0000000000e+02 1.0566000000e-01 0.0000e+00 -1.0000e+00
      994 -1    0    0    0    0 -0.0000000000e+00 -0.0000000000e+00 +0.0000000000e+00 1.3100000000e+02 1.3100000000e+02 0.0000e+00 0.0000e+00
       13  1    1    2    0    0 +7.6231317009e+00 -8.3024156572e+00 +2.7688965325e+01 2.9895354279e+01 1.0566000000e-01 0.0000e+00 1.0000e+00
      994  1    1    2    0    0 +2.0387562840e+01 -1.1182626065e+01 +6.0668903304e+00 1.3318600153e+02 1.3100000000e+02 0.0000e+00 0.0000e+00
      997  1    1    2    0    0 -2.8010694541e+01 +1.9485041722e+01 +4.6624413318e+02 4.6791864419e+02 2.0000000000e+01 0.0000e+00 0.0000e+00
</event>
<event>
 5      1 +2.3375200e-06 2.09399500e+02 7.95774700e-02 4.87449400e-01
       13 -1    0    0    0    0 +0.0000000000e+00 +0.0000000000e+00 +4.9999998884e+02 5.0000000000e+02 1.0566000000e-01 0.0000e+00 1.0000e+00
      994 -1    0    0    0    0 -0.0000000000e+00 -0.0000000000e+00 +0.0000000000e+00 1.3100000000e+02 1.3100000000e+02 0.0000e+00 0.0000e+00
       13  1    1    2    0    0 -2.1873713220e+01 -3.8237021713e+00 +6.4251771485e+01 6.7980742357e+01 1.0566000000e-01 0.0000e+00 -1.0000e+00
      994  1    1    2    0    0 +1.5041663199e+01 -1.0675119185e+01 +5.9167970925e+00 1.3242438706e+02 1.3100000000e+02 0.0000e+00 0.0000e+00
      997  1    1    2    0    0 +6.8320500205e+00 +1.4498821356e+01 +4.2983142026e+02 4.3059487058e+02 2.0000000000e+01 0.0000e+00 0.0000e+00
</event>
<event>
 5      1 +2.3375200e-06 2.08540700e+02 7.95774700e-02 4.88878500e-01
       13 -1    0    0    0    0 +0.0000000000e+00 +0.0000000000e+00 +4.9999998884e+02 5.0000000000e+02 1.0566000000e-01 0.0000e+00 -1.0000e+00
      994 -1    0    0    0    0 -0.0000000000e+00 -0.0000000000e+00 +0.0000000000e+00 1.3100000000e+02 1.3100000000e+02 0.0000e+00 0.0000e+00
       13  1    1    2    0    0 -3.2693154649e+00 -9.5429494681e+00 +9.7547441380e+00 1.4032907945e+01 1.0566000000e-01 0.0000e+00 1.0000e+00
      994  1    1    2    0    0 -6.4303268193e+00 +1.6858499574e+00 +5.1190860296e+00 1.3126841294e+02 1.3100000000e+02 0.0000e+00 0.0000e+00
      997  1    1    2    0    0 +9.6996422842e+00 +7.8570995108e+00 +4.8512615867e+02 4.8569867912e+02 2.0000000000e+01 0.0000e+00 0.0000e+00
</event>
<event>
 5      1 +2.3375200e-06 2.12236700e+02 7.95774700e-02 4.82831900e-01
       13 -1    0    0    0    0 +0.0000000000e+00 +0.0000000000e+00 +4.9999998884e+02 5.0000000000e+02 1.0566000000e-01 0.0000e+00 -1.0000e+00
      994 -1    0    0    0    0 -0.0000000000e+00 -0.0000000000e+00 +0.0000000000e+00 1.3100000000e+02 1.3100000000e+02 0.0000e+00 0.0000e+00
       13  1    1    2    0    0 -1.1548034920e+01 -1.1832309256e+01 +4.2979253809e+01 4.6049843375e+01 1.0566000000e-01 0.0000e+00 1.0000e+00
      994  1    1    2    0    0 +5.2922896481e+01 +3.0720139207e+01 +2.0996387552e+01 1.4610410061e+02 1.3100000000e+02 0.0000e+00 0.0000e+00
      997  1    1    2    0    0 -4.1374861561e+01 -1.8887829950e+01 +4.3602434747e+02 4.3884605601e+02 2.0000000000e+01 0.0000e+00 0.0000e+00
</event>
<event>
 5      1 +2.3375200e-06 2.10986300e+02 7.95774700e-02 4.84847500e-01
       13 -1    0    0    0    0 +0.0000000000e+00 +0.0000000000e+00 +4.9999998884e+02 5.0000000000e+02 1.0566000000e-01 0.0000e+00 -1.0000e+00
      994 -1    0    0    0    0 -0.0000000000e+00 -0.0000000000e+00 +0.0000000000e+00 1.3100000000e+02 1.3100000000e+02 0.0000e+00 0.0000e+00
       13  1    1    2    0    0 +3.4006488086e+00 +3.6654519688e+01 +1.4432287611e+02 1.4894368720e+02 1.0566000000e-01 0.0000e+00 1.0000e+00
      994  1    1    2    0    0 -2.9922830372e+01 -5.0159366456e+01 +2.0408145560e+01 1.4487522295e+02 1.3100000000e+02 0.0000e+00 0.0000e+00
      997  1    1    2    0    0 +2.6522181563e+01 +1.3504846768e+01 +3.3526896717e+02 3.3718108984e+02 2.0000000000e+01 0.0000e+00 0.0000e+00
</event>
<event>
 5      1 +2.3375200e-06 2.09151800e+02 7.95774700e-02 4.87860000e-01
       13 -1    0    0    0    0 +0.0000000000e+00 +0.0000000000e+00 +4.9999998884e+02 5.0000000000e+02 1.0566000000e-01 0.0000e+00 -1.0000e+00
      994 -1    0    0    0    0 -0.0000000000e+00 -0.0000000000e+00 +0.0000000000e+00 1.3100000000e+02 1.3100000000e+02 0.0000e+00 0.0000e+00
       13  1    1    2    0    0 -2.0044992112e-01 +1.9792056504e+01 +4.6950818004e+01 5.0952489204e+01 1.0566000000e-01 0.0000e+00 1.0000e+00
      994  1    1    2    0    0 +8.8992509352e+00 -1.2893838686e+01 +5.6400346065e+00 1.3205399552e+02 1.3100000000e+02 0.0000e+00 0.0000e+00
      997  1    1    2    0    0 -8.6988010141e+00 -6.8982178187e+00 +4.4740913623e+02 4.4799351527e+02 2.0000000000e+01 0.0000e+00 0.0000e+00
</event>
<event>
 5      1 +2.3375200e-06 2.10512200e+02 7.95774700e-02 4.85619700e-01
       13 -1    0    0    0    0 +0.0000000000e+00 +0.0000000000e+00 +4.9999998884e+02 5.0000000000e+02 1.0566000000e-01 0.0000e+00 1.0000e+00
      994 -1    0    0    0    0 -0.0000000000e+00 -0.0000000000e+00 +0.0000000000e+00 1.3100000000e+02 1.3100000000e+02 0.0000e+00 0.0000e+00
       13  1    1    2    0    0 -1.1519466113e+01 +1.1247974116e+01 +4.4265857157e+01 4.7102996669e+01 1.0566000000e-01 0.0000e+00 -1.0000e+00
      994  1    1    2    0    0 +1.3781520132e+00 -1.0684005614e+01 +3.8934120636e+00 1.3149983246e+02 1.3100000000e+02 0.0000e+00 0.0000e+00
      997  1    1    2    0    0 +1.0141314100e+01 -5.6396850260e-01 +4.5184071961e+02 4.5239717087e+02 2.0000000000e+01 0.0000e+00 0.0000e+00
</event>
<event>
 5      1 +2.3375200e-06 1.97118300e+02 7.95774700e-02 5.09424500e-01
       13 -1    0    0    0    0 +0.0000000000e+00 +0.0000000000e+00 +4.9999998884e+02 5.0000000000e+02 1.0566000000e-01 0.0000e+00 -1.0000e+00
      994 -1    0    0    0    0 -0.0000000000e+00 -0.0000000000e+00 +0.0000000000e+00 1.3100000000e+02 1.3100000000e+02 0.0000e+00 0.0000e+00
       13  1    1    2    0    0 +4.6181231458e+01 -1.0984086197e+01 +6.2415369111e+01 7.8415851419e+01 1.0566000000e-01 0.0000e+00 1.0000e+00
      994  1    1    2    0    0 -4.4333787392e+01 +1.9779066417e+01 +2.8088511832e+01 1.4250144094e+02 1.3100000000e+02 0.0000e+00 0.0000e+00
      997  1    1    2    0    0 -1.8474440659e+00 -8.7949802199e+00 +4.0949610789e+02 4.1008270764e+02 2.0000000000e+01 0.0000e+00 0.0000e+00
</event>
<event>
 5      1 +2.3375200e-06 2.12200300e+02 7.95774700e-02 4.82890100e-01
       13 -1    0    0    0    0 +0.0000000000e+00 +0.0000000000e+00 +4.9999998884e+02 5.0000000000e+02 1.0566000000e-01 0.0000e+00 1.0000e+00
      994 -1    0    0    0    0 -0.0000000000e+00 -0.0000000000e+00 +0.0000000000e+00 1.3100000000e+02 1.3100000000e+02 0.0000e+00 0.0000e+00
       13  1    1    2    0    0 -2.1348126511e+00 +2.3054206612e+01 +1.3812710184e+02 1.4005413701e+02 1.0566000000e-01 0.0000e+00 -1.0000e+00
      994  1    1    2    0    0 +1.6344703759e+01 -2.2728214131e+01 +5.8574372633e+00 1.3408590765e+02 1.3100000000e+02 0.0000e+00 0.0000e+00
      997  1    1    2    0    0 -1.4209891108e+01 -3.2599248039e-01 +3.5601544973e+02 3.5685995534e+02 2.0000000000e+01 0.0000e+00 0.0000e+00
</event>
<event>
 5      1 +2.3375200e-06 2.10408700e+02 7.95774700e-02 4.85788800e-01
       13 -1    0    0    0    0 +0.0000000000e+00 +0.0000000000e+00 +4.9999998884e+02 5.0000000000e+02 1.0566000000e-01 0.0000e+00 1.0000e+00
      994 -1    0    0    0    0 -0.0000000000e+00 -0.0000000000e+00 +0.0000000000e+00 1.3100000000e+02 1.3100000000e+02 0.0000e+00 0.0000e+00
       13  1    1    2    0    0 +4.1051521225e+01 -6.1868132864e+00 +1.9257351161e+02 1.9699764616e+02 1.0566000000e-01 0.0000e+00 -1.0000e+00
      994  1    1    2    0    0 -4.1104563490e+01 +1.8654984957e+00 +1.1961942624e+01 1.3783016105e+02 1.3100000000e+02 0.0000e+00 0.0000e+00
      997  1    1    2    0    0 +5.3042265400e-02 +4.3213147907e+00 +2.9546453460e+02 2.9617219279e+02 2.0000000000e+01 0.0000e+00 0.0000e+00
</event>
<event>
 5      1 +2.3375200e-06 2.09640200e+02 7.95774700e-02 4.87051400e-01
       13 -1    0    0    0    0 +0.0000000000e+00 +0.0000000000e+00 +4.9999998884e+02 5.0000000000e+02 1.0566000000e-01 0.0000e+00 -1.0000e+00
      994 -1    0    0    0    0 -0.0000000000e+00 -0.0000000000e+00 +0.0000000000e+00 1.3100000000e+02 1.3100000000e+02 0.0000e+00 0.0000e+00
       13  1    1    2    0    0 -1.1796835766e+01 +3.4736073447e+01 +1.8004930663e+02 1.8374853500e+02 1.0566000000e-01 0.0000e+00 1.0000e+00
      994  1    1    2    0    0 +2.0212379596e+01 -2.0036901384e+01 +8.0990382726e+00 1.3430045468e+02 1.3100000000e+02 0.0000e+00 0.0000e+00
      997  1    1    2    0    0 -8.4155438299e+00 -1.4699172063e+01 +3.1185164394e+02 3.1295101032e+02 2.0000000000e+01 0.0000e+00 0.0000e+00
</event>
<event>
 5      1 +2.3375200e-06 2.05262000e+02 7.95774700e-02 4.94475100e-01
       13 -1    0    0    0    0 +0.0000000000e+00 +0.0000000000e+00 +4.9999998884e+02 5.0000000000e+02 1.0566000000e-01 0.0000e+00 1.0000e+00
      994 -1    0    0    0    0 -0.0000000000e+00 -0.0000000000e+00 +0.0000000000e+00 1.3100000000e+02 1.3100000000e+02 0.0000e+00 0.0000e+00
       13  1    1    2    0    0 -5.6177560215e+01 -2.0648641574e+01 +1.6034079920e+02 1.7114750283e+02 1.0566000000e-01 0.0000e+00 -1.0000e+00
      994  1    1    2    0    0 +6.6036402177e+01 +2.6655737352e-01 +3.1284990995e+01 1.5000209374e+02 1.3100000000e+02 0.0000e+00 0.0000e+00
      997  1    1    2    0    0 -9.8588419620e+00 +2.0382084200e+01 +3.0837419864e+02 3.0985040343e+02 2.0000000000e+01 0.0000e+00 0.0000e+00
</event>
<event>
 5      1 +2.3375200e-06 1.96428900e+02 7.95774700e-02 5.10764600e-01
       13 -1    0    0    0    0 +0.0000000000e+00 +0.0000000000e+00 +4.9999998884e+02 5.0000000000e+02 1.0566000000e-01 0.0000e+00 -1.0000e+00
      994 -1    0    0    0    0 -0.0000000000e+00 -0.0000000000e+00 +0.0000000000e+00 1.3100000000e+02 1.3100000000e+02 0.0000e+00 0.0000e+00
       13  1    1    2    0    0 +2.6239625152e+01 -1.6369938154e+01 +1.1830665838e+01 3.3112967573e+01 1.0566000000e-01 0.0000e+00 1.0000e+00
      994  1    1    2    0    0 -1.8656109747e+01 +2.2644291801e+01 +2.7944835199e+01 1.3712304036e+02 1.3100000000e+02 0.0000e+00 0.0000e+00
      997  1    1    2    0    0 -7.5835154058e+00 -6.2743536475e+00 +4.6022448780e+02 4.6076399207e+02 2.0000000000e+01 0.0000e+00 0.0000e+00
</event>
<event>
 5      1 +2.3375200e-06 2.09198100e+02 7.95774700e-02 4.87783200e-01
       13 -1    0    0    0    0 +0.0000000000e+00 +0.0000000000e+00 +4.9999998884e+02 5.0000000000e+02 1.0566000000e-01 0.0000e+00 -1.0000e+00
      994 -1    0    0    0    0 -0.0000000000e+00 -0.0000000000e+00 +0.0000000000e+00 1.3100000000e+02 1.3100000000e+02 0.0000e+00 0.0000e+00
       13  1    1    2    0    0 -1.7110358949e+01 +4.9903054588e+00 +4.8467810202e+01 5.1641139818e+01 1.0566000000e-01 0.0000e+00 1.0000e+00
      994  1    1    2    0    0 -5.6902687631e+00 +8.2991165201e+00 +4.8753882369e+00 1.3147632450e+02 1.3100000000e+02 0.0000e+00 0.0000e+00
      997  1    1    2    0    0 +2.2800627712e+01 -1.3289421979e+01 +4.4665679040e+02 4.4788253568e+02 2.0000000000e+01 0.0000e+00 0.0000e+00
</event>
<event>
 5      1 +2.3375200e-06 2.13509700e+02 7.95774700e-02 4.80810300e-01
       13 -1    0    0    0    0 +0.0000000000e+00 +0.0000000000e+00 +4.9999998884e+02 5.0000000000e+02 1.0566000000e-01 0.0000e+00 -1.0000e+00
      994 -1    0    0    0    0 -0.0000000000e+00 -0.0000000000e+00 +0.0000000000e+00 1.3100000000e+02 1.3100000000e+02 0.0000e+00 0.0000e+00
       13  1    1    2    0    0 -5.0899067144e-01 -1.0612749641e+01 +4.9362813779e+01 5.0493445859e+01 1.0566000000e-01 0.0000e+00 1.0000e+00
      994  1    1    2    0    0 +2.8124301240e+01 +4.1074096576e+01 +1.3281432365e+01 1.4076737610e+02 1.3100000000e+02 0.0000e+00 0.0000e+00
      997  1    1    2    0    0 -2.7615310568e+01 -3.0461346936e+01 +4.3735574269e+02 4.3973917804e+02 2.0000000000e+01 0.0000e+00 0.0000e+00
</event>
<event>
 5      1 +2.3375200e-06 2.12421500e+02 7.95774700e-02 4.82536500e-01
       13 -1    0    0    0    0 +0.0000000000e+00 +0.0000000000e+00 +4.9999998884e+02 5.0000000000e+02 1.0566000000e-01 0.0000e+00 1.0000e+00
      994 -1    0    0    0    0 -0.0000000000e+00 -0.0000000000e+00 +0.0000000000e+00 1.3100000000e+02 1.3100000000e+02 0.0000e+00 0.0000e+00
       13  1    1    2    0    0 +1.1506962751e+01 +1.0558737897e+01 +7.1994838965e+01 7.3669295771e+01 1.0566000000e-01 0.0000e+00 -1.0000e+00
      994  1    1    2    0    0 -1.8715320868e+01 -7.7957945560e+00 +3.8307540311e+00 1.3261490235e+02 1.3100000000e+02 0.0000e+00 0.0000e+00
      997  1    1    2    0    0 +7.2083581175e+00 -2.7629433410e+00 +4.2417439584e+02 4.2471580188e+02 2.0000000000e+01 0.0000e+00 0.0000e+00
</event>
<event>
 5      1 +2.3375200e-06 2.04672300e+02 7.95774700e-02 4.95506200e-01
       13 -1    0    0    0    0 +0.0000000000e+00 +0.0000000000e+00 +4.9999998884e+02 5.0000000000e+02 1.0566000000e-01 0.0000e+00 1.0000e+00
      994 -1    0    0    0    0 -0.0000000000e+00 -0.0000000000e+00 +0.0000000000e+00 1.3100000000e+02 1.3100000000e+02 0.0000e+00 0.0000e+00
       13  1    1    2    0    0 -7.2255178548e+00 -8.8590035149e+00 +6.0449241107e+00 1.2932220346e+01 1.0566000000e-01 0.0000e+00 -1.0000e+00
      994  1    1    2    0    0 -1.0466389194e+01 -1.3638865137e+01 +9.6170704574e+00 1.3247283491e+02 1.3100000000e+02 0.0000e+00 0.0000e+00
      997  1    1    2    0    0 +1.7691907049e+01 +2.2497868652e+01 +4.8433799427e+02 4.8559494474e+02 2.0000000000e+01 0.0000e+00 0.0000e+00
</event>
<event>
 5      1 +2.3375200e-06 2.09336700e+02 7.95774700e-02 4.87553400e-01
       13 -1    0    0    0    0 +0.0000000000e+00 +0.0000000000e+00 +4.9999998884e+02 5.0000000000e+02 1.0566000000e-01 0.0000e+00 1.0000e+00
      994 -1    0    0    0    0 -0.0000000000e+00 -0.0000000000e+00 +0.0000000000e+00 1.3100000000e+02 1.3100000000e+02 0.0000e+00 0.0000e+00
       13  1    1    2    0    0 -1.1911194203e+01 -8.9000291101e+00 +2.5580896288e+01 2.9588519470e+01 1.0566000000e-01 0.0000e+00 -1.0000e+00
      994  1    1    2    0    0 +9.0847315402e+00 +1.3651300328e+01 +5.6079570679e+00 1.3214136192e+02 1.3100000000e+02 0.0000e+00 0.0000e+00
      997  1    1    2    0    0 +2.8264626625e+00 -4.7512712181e+00 +4.6881113548e+02 4.6927011861e+02 2.0000000000e+01 0.0000e+00 0.0000e+00
</event>
<event>
 5      1 +2.3375200e-06 2.09393600e+02 7.95774700e-02 4.87459100e-01
       13 -1    0    0    0    0 +0.0000000000e+00 +0.0000000000e+00 +4.9999998884e+02 5.0000000000e+02 1.0566000000e-01 0.0000e+00 -1.0000e+00
      994 -1    0    0    0    0 -0.0000000000e+00 -0.0000000000e+00 +0.0000000000e+00 1.3100000000e+02 1.3100000000e+02 0.0000e+00 0.0000e+00
       13  1    1    2    0    0 +1.3495058137e+01 +1.1946430440e+01 +5.8264945696e+01 6.0988924038e+01 1.0566000000e-01 0.0000e+00 1.0000e+00
      994  1    1    2    0    0 +1.1572315776e+01 +7.7756984050e+00 +5.1861621125e+00 1.3184186079e+02 1.3100000000e+02 0.0000e+00 0.0000e+00
      997  1    1    2    0    0 -2.5067373913e+01 -1.9722128845e+01 +4.3654888103e+02 4.3816921518e+02 2.0000000000e+01 0.0000e+00 0.0000e+00
</event>
<event>
 5      1 +2.3375200e-06 2.08224700e+02 7.95774700e-02 4.89408100e-01
       13 -1    0    0    0    0 +0.0000000000e+00 +0.0000000000e+00 +4.9999998884e+02 5.0000000000e+02 1.0566000000e-01 0.0000e+00 1.0000e+00
      994 -1    0    0    0    0 -0.0000000000e+00 -0.0000000000e+00 +0.0000000000e+00 1.3100000000e+02 1.3100000000e+02 0.0000e+00 0.0000e+00
       13  1    1    2    0    0 +8.6826950846e+00 +6.7197475683e+00 +1.2653805036e+01 1.6753332422e+01 1.0566000000e-01 0.0000e+00 -1.0000e+00
      994  1    1    2    0    0 +2.5916549725e+00 +2.6536638915e+01 +8.7763452936e+00 1.3397363217e+02 1.3100000000e+02 0.0000e+00 0.0000e+00
      997  1    1    2    0    0 -1.1274350057e+01 -3.3256386483e+01 +4.7856983851e+02 4.8027303541e+02 2.0000000000e+01 0.0000e+00 0.0000e+00
</event>
<event>
 5      1 +2.3375200e-06 2.11493800e+02 7.95774700e-02 4.84025800e-01
       13 -1    0    0    0    0 +0.0000000000e+00 +0.0000000000e+00 +4.9999998884e+02 5.0000000000e+02 1.0566000000e-01 0.0000e+00 -1.0000e+00
      994 -1    0    0    0    0 -0.0000000000e+00 -0.0000000000e+00 +0.0000000000e+00 1.3100000000e+02 1.3100000000e+02 0.0000e+00 0.0000e+00
       13  1    1    2    0    0 -1.1648848075e+01 -8.0724193480e+00 +4.7538506039e+01 4.9606252994e+01 1.0566000000e-01 0.0000e+00 1.0000e+00
      994  1    1    2    0    0 +3.2401030123e+00 +8.0719588306e+00 +2.9116874460e+00 1.3132072460e+02 1.3100000000e+02 0.0000e+00 0.0000e+00
      997  1    1    2    0    0 +8.4087450630e+00 +4.6051742294e-04 +4.4954979535e+02 4.5007302240e+02 2.0000000000e+01 0.0000e+00 0.0000e+00
</event>
<event>
 5      1 +2.3375200e-06 1.94425000e+02 7.95774700e-02 5.14731000e-01
       13 -1    0    0    0    0 +0.0000000000e+00 +0.0000000000e+00 +4.9999998884e+02 5.0000000000e+02 1.0566000000e-01 0.0000e+00 1.0000e+00
      994 -1    0    0    0    0 -0.0000000000e+00 -0.0000000000e+00 +0.0000000000e+00 1.3100000000e+02 1.3100000000e+02 0.0000e+00 0.0000e+00
       13  1    1    2    0    0 +3.0791941291e+01 +2.3516105667e+01 +4.0059257014e+01 5.5730656830e+01 1.0566000000e-01 0.0000e+00 -1.0000e+00
      994  1    1    2    0    0 -5.9468751145e+00 -2.6884390910e+01 +2.1405659576e+01 1.3556304091e+02 1.3100000000e+02 0.0000e+00 0.0000e+00
      997  1    1    2    0    0 -2.4845066177e+01 +3.3682852429e+00 +4.3853507225e+02 4.3970630226e+02 2.0000000000e+01 0.0000e+00 0.0000e+00
</event>
<event>
 5      1 +2.3375200e-06 2.12490400e+02 7.95774700e-02 4.82426600e-01
       13 -1    0    0    0    0 +0.0000000000e+00 +0.0000000000e+00 +4.9999998884e+02 5.0000000000e+02 1.0566000000e-01 0.0000e+00 -1.0000e+00
      994 -1    0    0    0    0 -0.0000000000e+00 -0.0000000000e+00 +0.0000000000e+00 1.3100000000e+02 1.3100000000e+02 0.0000e+00 0.0000e+00
       13  1    1    2    0    0 +8.4516092658e-01 -1.3820258790e+01 +6.9707813855e+01 7.1069714552e+01 1.0566000000e-01 0.0000e+00 1.0000e+00
      994  1    1    2    0    0 -5.1864272622e+00 +9.8643783006e+00 +2.3637186492e+00 1.3149445674e+02 1.3100000000e+02 0.0000e+00 0.0000e+00
      997  1    1    2    0    0 +4.3412663356e+00 +3.9558804896e+00 +4.2792845633e+02 4.2843582871e+02 2.0000000000e+01 0.0000e+00 0.0000e+00
</event>
<event>
 5      1 +2.3375200e-06 2.11151900e+02 7.95774700e-02 4.84578900e-01
       13 -1    0    0    0    0 +0.0000000000e+00 +0.0000000000e+00 +4.9999998884e+02 5.0000000000e+02 1.0566000000e-01 0.0000e+00 -1.0000e+00
      994 -1    0    0    0    0 -0.0000000000e+00 -0.0000000000e+00 +0.0000000000e+00 1.3100000000e+02 1.3100000000e+02 0.0000e+00 0.0000e+00
       13  1    1    2    0    0 +7.6787606414e+00 -7.7668510859e+00 +2.1609825556e+01 2.4213282829e+01 1.0566000000e-01 0.0000e+00 1.0000e+00
      994  1    1    2    0    0 -2.0466642061e+01 +3.1669907930e+00 +4.9394381254e+00 1.3271891846e+02 1.3100000000e+02 0.0000e+00 0.0000e+00
      997  1    1    2    0    0 +1.2787881419e+01 +4.5998602929e+00 +4.7345072515e+02 4.7406779871e+02 2.0000000000e+01 0.0000e+00 0.0000e+00
</event>
<event>
 5      1 +2.3375200e-06 2.13507700e+02 7.95774700e-02 4.80813500e-01
       13 -1    0    0    0    0 +0.0000000000e+00 +0.0000000000e+00 +4.9999998884e+02 5.0000000000e+02 1.0566000000e-01 0.0000e+00 -1.0000e+00
      994 -1    0    0    0    0 -0.0000000000e+00 -0.0000000000e+00 +0.0000000000e+00 1.3100000000e+02 1.3100000000e+02 0.0000e+00 0.0000e+00
       13  1    1    2    0    0 -2.3929772873e+01 +5.0579968747e+00 +1.3242966508e+02 1.3466939044e+02 1.0566000000e-01 0.0000e+00 1.0000e+00
      994  1    1    2    0    0 +5.7601753387e+01 -3.9003376593e+00 +1.7670935720e+01 1.4424436418e+02 1.3100000000e+02 0.0000e+00 0.0000e+00
      997  1    1    2    0    0 -3.3671980514e+01 -1.1576592154e+00 +3.4989938803e+02 3.5208624539e+02 2.0000000000e+01 0.0000e+00 0.0000e+00
</event>
<event>
 5      1 +2.3375200e-06 2.10452400e+02 7.95774700e-02 4.85717300e-01
       13 -1    0    0    0    0 +0.0000000000e+00 +0.0000000000e+00 +4.9999998884e+02 5.0000000000e+02 1.0566000000e-01 0.0000e+00 1.0000e+00
      994 -1    0    0    0    0 -0.0000000000e+00 -0.0000000000e+00 +0.0000000000e+00 1.3100000000e+02 1.3100000000e+02 0.0000e+00 0.0000e+00
       13  1    1    2    0    0 +3.2567543874e+00 +1.0560308174e+01 +1.2346087527e+01 1.6569960746e+01 1.0566000000e-01 0.0000e+00 -1.0000e+00
      994  1    1    2    0    0 +7.4421833533e+01 -8.3738309825e+01 +7.5440500090e+01 1.8815680400e+02 1.3100000000e+02 0.0000e+00 0.0000e+00
      997  1    1    2    0    0 -7.7678587920e+01 +7.3178001652e+01 +4.1221340122e+02 4.2627323525e+02 2.0000000000e+01 0.0000e+00 0.0000e+00
</event>
<event>
 5      1 +2.3375200e-06 2.12443600e+02 7.95774700e-02 4.82501200e-01
       13 -1    0    0    0    0 +0.0000000000e+00 +0.0000000000e+00 +4.9999998884e+02 5.0000000000e+02 1.0566000000e-01 0.0000e+00 1.0000e+00
      994 -1    0    0    0    0 -0.0000000000e+00 -0.0000000000e+00 +0.0000000000e+00 1.3100000000e+02 1.3100000000e+02 0.0000e+00 0.0000e+00
       13  1    1    2    0    0 -9.1292859201e+00 +5.6618369272e+00 +2.9566167877e+01 3.1457426878e+01 1.0566000000e-01 0.0000e+00 -1.0000e+00
      994  1    1    2    0    0 +1.6708855237e+02 -6.8583085923e+00 +2.7205583205e+02 3.4516806990e+02 1.3100000000e+02 0.0000e+00 0.0000e+00
      997  1    1    2    0    0 -1.5795926645e+02 +1.1964716652e+00 +1.9837798891e+02 2.5437450322e+02 2.0000000000e+01 0.0000e+00 0.0000e+00
</event>
<event>
 5      1 +2.3375200e-06 2.08196600e+02 7.95774700e-02 4.89455300e-01
       13 -1    0    0    0    0 +0.0000000000e+00 +0.0000000000e+00 +4.9999998884e+02 5.0000000000e+02 1.0566000000e-01 0.0000e+00 -1.0000e+00
      994 -1    0    0    0    0 -0.0000000000e+00 -0.0000000000e+00 +0.0000000000e+00 1.3100000000e+02 1.3100000000e+02 0.0000e+00 0.0000e+00
       13  1    1    2    0    0 -1.1736038251e+01 -2.3782235546e+01 +7.8578407347e+01 8.2933145283e+01 1.0566000000e-01 0.0000e+00 1.0000e+00
      994  1    1    2    0    0 -9.5592442531e+00 +1.6333660212e+01 +6.9946192779e+00 1.3254468041e+02 1.3100000000e+02 0.0000e+00 0.0000e+00
      997  1    1    2    0    0 +2.1295282504e+01 +7.4485753347e+00 +4.1442696221e+02 4.1552217430e+02 2.0000000000e+01 0.0000e+00 0.0000e+00
</event>
<event>
 5      1 +2.3375200e-06 2.04462200e+02 7.95774700e-02 4.95875400e-01
       13 -1    0    0    0    0 +0.0000000000e+00 +0.0000000000e+00 +4.9999998884e+02 5.0000000000e+02 1.0566000000e-01 0.0000e+00 -1.0000e+00
      994 -1    0    0    0    0 -0.0000000000e+00 -0.0000000000e+00 +0.0000000000e+00 1.3100000000e+02 1.3100000000e+02 0.0000e+00 0.0000e+00
       13  1    1    2    0    0 +6.8449010372e+00 -9.8192616855e+00 +5.8198233220e+00 1.3309848902e+01 1.0566000000e-01 0.0000e+00 1.0000e+00
      994  1    1    2    0    0 +8.0173699321e+00 +8.2595762873e+00 +8.9401595692e+00 1.3180828985e+02 1.3100000000e+02 0.0000e+00 0.0000e+00
      997  1    1    2    0    0 -1.4862270969e+01 +1.5596853981e+00 +4.8524000594e+02 4.8588186124e+02 2.0000000000e+01 0.0000e+00 0.0000e+00
</event>
<event>
 5      1 +2.3375200e-06 2.05113100e+02 7.95774700e-02 4.94734700e-01
       13 -1    0    0    0    0 +0.0000000000e+00 +0.0000000000e+00 +4.9999998884e+02 5.0000000000e+02 1.0566000000e-01 0.0000e+00 -1.0000e+00
      994 -1    0    0    0    0 -0.0000000000e+00 -0.0000000000e+00 +0.0000000000e+00 1.3100000000e+02 1.3100000000e+02 0.0000e+00 0.0000e+00
       13  1    1    2    0    0 +1.6260122584e+01 -9.6854304710e+00 +2.3945814506e+01 3.0522325374e+01 1.0566000000e-01 0.0000e+00 1.0000e+00
      994  1    1    2    0    0 -9.8657712931e-02 -4.6766653734e+00 +7.8183344018e+00 1.3131643951e+02 1.3100000000e+02 0.0000e+00 0.0000e+00
      997  1    1    2    0    0 -1.6161464871e+01 +1.4362095844e+01 +4.6823583993e+02 4.6916123512e+02 2.0000000000e+01 0.0000e+00 0.0000e+00
</event>
<event>
 5      1 +2.3375200e-06 2.06192000e+02 7.95774700e-02 4.92864600e-01
       13 -1    0    0    0    0 +0.0000000000e+00 +0.0000000000e+00 +4.9999998884e+02 5.0000000000e+02 1.0566000000e-01 0.0000e+00 -1.0000e+00
      994 -1    0    0    0    0 -0.0000000000e+00 -0.0000000000e+00 +0.0000000000e+00 1.3100000000e+02 1.3100000000e+02 0.0000e+00 0.0000e+00
       13  1    1    2    0    0 +2.5957603400e+01 -2.8128118053e+00 +5.2986053403e+01 5.9069807041e+01 1.0566000000e-01 0.0000e+00 1.0000e+00
      994  1    1    2    0    0 -1.0541250696e+01 +1.1454744348e+01 +8.0622164059e+00 1.3216780420e+02 1.3100000000e+02 0.0000e+00 0.0000e+00
      997  1    1    2    0    0 -1.5416352703e+01 -8.6419325429e+00 +4.3895171903e+02 4.3976238876e+02 2.0000000000e+01 0.0000e+00 0.0000e+00
</event>
<event>
 5      1 +2.3375200e-06 2.09615300e+02 7.95774700e-02 4.87092500e-01
       13 -1    0    0    0    0 +0.0000000000e+00 +0.0000000000e+00 +4.9999998884e+02 5.0000000000e+02 1.0566000000e-01 0.0000e+00 -1.0000e+00
      994 -1    0    0    0    0 -0.0000000000e+00 -0.0000000000e+00 +0.0000000000e+00 1.3100000000e+02 1.3100000000e+02 0.0000e+00 0.0000e+00
       13  1    1    2    0    0 +5.3103726201e+00 -1.3864380946e+01 +2.5170163212e+01 2.9222754773e+01 1.0566000000e-01 0.0000e+00 1.0000e+00
      994  1    1    2    0    0 -2.8145648418e+01 +1.5173133028e+01 +9.2023141081e+00 1.3515947646e+02 1.3100000000e+02 0.0000e+00 0.0000e+00
      997  1    1    2    0    0 +2.2835275797e+01 -1.3087520820e+00 +4.6562751152e+02 4.6661776877e+02 2.0000000000e+01 0.0000e+00 0.0000e+00
</event>
<event>
 5      1 +2.3375200e-06 2.09865000e+02 7.95774700e-02 4.86680900e-01
       13 -1    0    0    0    0 +0.0000000000e+00 +0.0000000000e+00 +4.9999998884e+02 5.0000000000e+02 1.0566000000e-01 0.0000e+00 1.0000e+00
      994 -1    0    0    0    0 -0.0000000000e+00 -0.0000000000e+00 +0.0000000000e+00 1.3100000000e+02 1.3100000000e+02 0.0000e+00 0.0000e+00
       13  1    1    2    0    0 -2.6728248584e+01 -3.5430623417e+00 +6.8714597974e+01 7.3815037098e+01 1.0566000000e-01 0.0000e+00 -1.0000e+00
      994  1    1    2    0    0 +4.8525697174e+01 -1.0894973291e+01 +1.6495069162e+01 1.4109050654e+02 1.3100000000e+02 0.0000e+00 0.0000e+00
      997  1    1    2    0    0 -2.1797448590e+01 +1.4438035633e+01 +4.1479032170e+02 4.1609445636e+02 2.0000000000e+01 0.0000e+00 0.0000e+00
</event>
<event>
 5      1 +2.3375200e-06 2.01412900e+02 7.95774700e-02 5.01345500e-01
       13 -1    0    0    0    0 +0.0000000000e+00 +0.0000000000e+00 +4.9999998884e+02 5.0000000000e+02 1.0566000000e-01 0.0000e+00 1.0000e+00
      994 -1    0    0    0    0 -0.0000000000e+00 -0.0000000000e+00 +0.0000000000e+00 1.3100000000e+02 1.3100000000e+02 0.0000e+00 0.0000e+00
       13  1    1    2    0    0 -3.3058441795e+00 +4.7646985859e+01 +9.1515682751e+01 1.0322933314e+02 1.0566000000e-01 0.0000e+00 -1.0000e+00
      994  1    1    2    0    0 -8.0871643264e+00 -4.1789396997e+01 +2.0733749150e+01 1.3929337487e+02 1.3100000000e+02 0.0000e+00 0.0000e+00
      997  1    1    2    0    0 +1.1393008506e+01 -5.8575888615e+00 +3.8775055694e+02 3.8847729199e+02 2.0000000000e+01 0.0000e+00 0.0000e+00
</event>
<event>
 5      1 +2.3375200e-06 2.12573500e+02 7.95774700e-02 4.82294100e-01
       13 -1    0    0    0    0 +0.0000000000e+00 +0.0000000000e+00 +4.9999998884e+02 5.0000000000e+02 1.0566000000e-01 0.0000e+00 -1.0000e+00
      994 -1    0    0    0    0 -0.0000000000e+00 -0.0000000000e+00 +0.0000000000e+00 1.3100000000e+02 1.3100000000e+02 0.0000e+00 0.0000e+00
       13  1    1    2    0    0 +1.3873501089e+01 -1.4646294075e+01 +9.5404546893e+01 9.7514238419e+01 1.0566000000e-01 0.0000e+00 1.0000e+00
      994  1    1    2    0    0 -3.0140938248e+01 +1.8525079093e+01 +7.8876970098e+00 1.3592229574e+02 1.3100000000e+02 0.0000e+00 0.0000e+00
      997  1    1    2    0    0 +1.6267437159e+01 -3.8787850180e+00 +3.9670774493e+02 3.9756346585e+02 2.0000000000e+01 0.0000e+00 0.0000e+00
</event>
<event>
 5      1 +2.3375200e-06 2.06902300e+02 7.95774700e-02 4.91646800e-01
       13 -1    0    0    0    0 +0.0000000000e+00 +0.0000000000e+00 +4.9999998884e+02 5.0000000000e+02 1.0566000000e-01 0.0000e+00 -1.0000e+00
      994 -1    0    0    0    0 -0.0000000000e+00 -0.0000000000e+00 +0.0000000000e+00 1.3100000000e+02 1.3100000000e+02 0.0000e+00 0.0000e+00
       13  1    1    2    0    0 +1.5658856000e+01 -1.1258194050e+01 +3.0841786592e+01 3.6375454206e+01 1.0566000000e-01 0.0000e+00 1.0000e+00
      994  1    1    2    0    0 -6.4079131318e-01 +1.1011061003e+01 +6.8517118051e+00 1.3164193873e+02 1.3100000000e+02 0.0000e+00 0.0000e+00
      997  1    1    2    0    0 -1.5018064687e+01 +2.4713304667e-01 +4.6230649044e+02 4.6298260706e+02 2.0000000000e+01 0.0000e+00 0.0000e+00
</event>
<event>
 5      1 +2.3375200e-06 1.96325000e+02 7.95774700e-02 5.10967500e-01
       13 -1    0    0    0    0 +0.0000000000e+00 +0.0000000000e+00 +4.9999998884e+02 5.0000000000e+02 1.0566000000e-01 0.0000e+00 1.0000e+00
      994 -1    0    0    0    0 -0.0000000000e+00 -0.0000000000e+00 +0.0000000000e+00 1.3100000000e+02 1.3100000000e+02 0.0000e+00 0.0000e+00
       13  1    1    2    0    0 +3.5075939144e+01 -7.6805489170e-01 +3.8681301582e+01 5.2222271793e+01 1.0566000000e-01 0.0000e+00 -1.0000e+00
      994  1    1    2    0    0 -1.2260614848e+01 -1.6060934327e+01 +1.7609064831e+01 1.3371370705e+02 1.3100000000e+02 0.0000e+00 0.0000e+00
      997  1    1    2    0    0 -2.2815324295e+01 +1.6828989219e+01 +4.4370962242e+02 4.4506402116e+02 2.0000000000e+01 0.0000e+00 0.0000e+00
</event>
<event>
 5      1 +2.3375200e-06 2.11997700e+02 7.95774700e-02 4.83214900e-01
       13 -1    0    0    0    0 +0.0000000000e+00 +0.0000000000e+00 +4.9999998884e+02 5.0000000000e+02 1.0566000000e-01 0.0000e+00 1.0000e+00
      994 -1    0    0    0    0 -0.0000000000e+00 -0.0000000000e+00 +0.0000000000e+00 1.3100000000e+02 1.3100000000e+02 0.0000e+00 0.0000e+00
       13  1    1    2    0    0 +1.7660305236e+01 +3.2858565654e+01 +2.0994048587e+02 2.1322896260e+02 1.0566000000e-01 0.0000e+00 -1.0000e+00
      994  1    1    2    0    0 -1.3770074128e+01 -4.2534162464e+01 +1.2153655998e+01 1.3895136297e+02 1.3100000000e+02 0.0000e+00 0.0000e+00
      997  1    1    2    0    0 -3.8902311084e+00 +9.6755968100e+00 +2.7790584696e+02 2.7881967443e+02 2.0000000000e+01 0.0000e+00 0.0000e+00
</event>
<event>
 5      1 +2.3375200e-06 2.12474300e+02 7.95774700e-02 4.82452200e-01
       13 -1    0    0    0    0 +0.0000000000e+00 +0.0000000000e+00 +4.9999998884e+02 5.0000000000e+02 1.0566000000e-01 0.0000e+00 -1.0000e+00
      994 -1    0    0    0    0 -0.0000000000e+00 -0.0000000000e+00 +0.0000000000e+00 1.3100000000e+02 1.3100000000e+02 0.0000e+00 0.0000e+00
       13  1    1    2    0    0 +3.3391992861e+00 -1.2440412423e+01 +6.2819418102e+01 6.4126473222e+01 1.0566000000e-01 0.0000e+00 1.0000e+00
      994  1    1    2    0    0 -1.0791028237e+01 +4.8162653963e+00 +2.4521867020e+00 1.3155476397e+02 1.3100000000e+02 0.0000e+00 0.0000e+00
      997  1    1    2    0    0 +7.4518289508e+00 +7.6241470271e+00 +4.3472838403e+02 4.3531876281e+02 2.0000000000e+01 0.0000e+00 0.0000e+00
</event>
<event>
 5      1 +2.3375200e-06 1.97958800e+02 7.95774700e-02 5.07807300e-01
       13 -1    0    0    0    0 +0.0000000000e+00 +0.0000000000e+00 +4.9999998884e+02 5.0000000000e+02 1.0566000000e-01 0.0000e+00 1.0000e+00
      994 -1    0    0    0    0 -0.0000000000e+00 -0.0000000000e+00 +0.0000000000e+00 1.3100000000e+02 1.3100000000e+02 0.0000e+00 0.0000e+00
       13  1    1    2    0    0 +1.2810463277e+01 +1.8268288467e+01 +1.0992703744e+01 2.4873460405e+01 1.0566000000e-01 0.0000e+00 -1.0000e+00
      994  1    1    2    0    0 -2.3740240902e+01 -2.4627417810e+01 +2.0398161895e+01 1.3692039203e+02 1.3100000000e+02 0.0000e+00 0.0000e+00
      997  1    1    2    0    0 +1.0929777625e+01 +6.3591293429e+00 +4.6860912320e+02 4.6920614756e+02 2.0000000000e+01 0.0000e+00 0.0000e+00
</event>
<event>
 5      1 +2.3375200e-06 2.11419000e+02 7.95774700e-02 4.84146500e-01
       13 -1    0    0    0    0 +0.0000000000e+00 +0.0000000000e+00 +4.9999998884e+02 5.0000000000e+02 1.0566000000e-01 0.0000e+00 -1.0000e+00
      994 -1    0    0    0    0 -0.0000000000e+00 -0.0000000000e+00 +0.0000000000e+00 1.3100000000e+02 1.3100000000e+02 0.0000e+00 0.0000e+00
       13  1    1    2    0    0 +7.4899884106e+00 -1.0028314724e+01 +3.6706807677e+01 3.8782314481e+01 1.0566000000e-01 0.0000e+00 1.0000e+00
      994  1    1    2    0    0 -1.1891738839e+01 -3.4609586917e+00 +3.3556903919e+00 1.3162694384e+02 1.3100000000e+02 0.0000e+00 0.0000e+00
      997  1    1    2    0    0 +4.4017504280e+00 +1.3489273416e+01 +4.5993749077e+02 4.6059074168e+02 2.0000000000e+01 0.0000e+00 0.0000e+00
</event>
<event>
 5      1 +2.3375200e-06 2.09221000e+02 7.95774700e-02 4.87745200e-01
       13 -1    0    0    0    0 +0.0000000000e+00 +0.0000000000e+00 +4.9999998884e+02 5.0000000000e+02 1.0566000000e-01 0.0000e+00 -1.0000e+00
      994 -1    0    0    0    0 -0.0000000000e+00 -0.0000000000e+00 +0.0000000000e+00 1.3100000000e+02 1.3100000000e+02 0.0000e+00 0.0000e+00
       13  1    1    2    0    0 -4.8086961176e+01 -2.8584310089e+01 +1.8889767003e+02 1.9700700374e+02 1.0566000000e-01 0.0000e+00 1.0000e+00
      994  1    1    2    0    0 +4.7290310367e+01 +5.5209442154e+01 +3.2367108570e+01 1.5327454347e+02 1.3100000000e+02 0.0000e+00 0.0000e+00
      997  1    1    2    0    0 +7.9665080855e-01 -2.6625132065e+01 +2.7873521024e+02 2.8071845279e+02 2.0000000000e+01 0.0000e+00 0.0000e+00
</event>
<event>
 5      1 +2.3375200e-06 1.95185300e+02 7.95774700e-02 5.13213400e-01
       13 -1    0    0    0    0 +0.0000000000e+00 +0.0000000000e+00 +4.9999998884e+02 5.0000000000e+02 1.0566000000e-01 0.0000e+00 1.0000e+00
      994 -1    0    0    0    0 -0.0000000000e+00 -0.0000000000e+00 +0.0000000000e+00 1.3100000000e+02 1.3100000000e+02 0.0000e+00 0.0000e+00
       13  1    1    2    0    0 +1.9444648345e+01 -5.4370666620e+00 +5.9628254033e+00 2.1052850021e+01 1.0566000000e-01 0.0000e+00 -1.0000e+00
      994  1    1    2    0    0 -7.1389747956e+00 +2.1885719420e+01 +1.9364670936e+01 1.3440959845e+02 1.3100000000e+02 0.0000e+00 0.0000e+00
      997  1    1    2    0    0 -1.2305673550e+01 -1.6448652758e+01 +4.7467249250e+02 4.7553755153e+02 2.0000000000e+01 0.0000e+00 0.0000e+00
</event>
<event>
 5      1 +2.3375200e-06 2.11370500e+02 7.95774700e-02 4.84225000e-01
       13 -1    0    0    0    0 +0.0000000000e+00 +0.0000000000e+00 +4.9999998884e+02 5.0000000000e+02 1.0566000000e-01 0.0000e+00 1.0000e+00
      994 -1    0    0    0    0 -0.0000000000e+00 -0.0000000000e+00 +0.0000000000e+00 1.3100000000e+02 1.3100000000e+02 0.0000e+00 0.0000e+00
       13  1    1    2    0    0 -1.0171142466e+01 +8.6728639350e-02 +2.1458322368e+01 2.3747219286e+01 1.0566000000e-01 0.0000e+00 -1.0000e+00
      994  1    1    2    0    0 +9.9174530929e+00 -8.1544901194e+00 +3.4511100969e+00 1.3167293475e+02 1.3100000000e+02 0.0000e+00 0.0000e+00
      997  1    1    2    0    0 +2.5368937347e-01 +8.0677614800e+00 +4.7509055637e+02 4.7557984596e+02 2.0000000000e+01 0.0000e+00 0.0000e+00
</event>
<event>
 5      1 +2.3375200e-06 1.96268000e+02 7.95774700e-02 5.11079100e-01
       13 -1    0    0    0    0 +0.0000000000e+00 +0.0000000000e+00 +4.9999998884e+02 5.0000000000e+02 1.0566000000e-01 0.0000e+00 1.0000e+00
      994 -1    0    0    0    0 -0.0000000000e+00 -0.0000000000e+00 +0.0000000000e+00 1.3100000000e+02 1.3100000000e+02 0.0000e+00 0.0000e+00
       13  1    1    2    0    0 +3.9866814313e+01 -5.6545544541e+00 +5.4542100067e+01 6.7795196831e+01 1.0566000000e-01 0.0000e+00 -1.0000e+00
      994  1    1    2    0    0 -1.3820791532e+01 -1.0648065439e+01 +1.7074220604e+01 1.3325511092e+02 1.3100000000e+02 0.0000e+00 0.0000e+00
      997  1    1    2    0    0 -2.6046022782e+01 +1.6302619893e+01 +4.2838366816e+02 4.2994969225e+02 2.0000000000e+01 0.0000e+00 0.0000e+00
</event>
<event>
 5      1 +2.3375200e-06 2.12653400e+02 7.95774700e-02 4.82166900e-01
       13 -1    0    0    0    0 +0.0000000000e+00 +0.0000000000e+00 +4.9999998884e+02 5.0000000000e+02 1.0566000000e-01 0.0000e+00 1.0000e+00
      994 -1    0    0    0    0 -0.0000000000e+00 -0.0000000000e+00 +0.0000000000e+00 1.3100000000e+02 1.3100000000e+02 0.0000e+00 0.0000e+00
       13  1    1    2    0    0 +3.1220761759e+00 -1.1632092888e+01 +3.9826140476e+01 4.1607518237e+01 1.0566000000e-01 0.0000e+00 -1.0000e+00
      994  1    1    2    0    0 -1.4953002188e+00 +3.2613663020e+01 +6.8930023620e+00 1.3518284070e+02 1.3100000000e+02 0.0000e+00 0.0000e+00
      997  1    1    2    0    0 -1.6267759571e+00 -2.0981570132e+01 +4.5328084600e+02 4.5420964106e+02 2.0000000000e+01 0.0000e+00 0.0000e+00
</event>
<event>
 5      1 +2.3375200e-06 2.07695100e+02 7.95774700e-02 4.90300300e-01
       13 -1    0    0    0    0 +0.0000000000e+00 +0.0000000000e+00 +4.9999998884e+02 5.0000000000e+02 1.0566000000e-01 0.0000e+00 1.0000e+00
      994 -1    0    0    0    0 -0.0000000000e+00 -0.0000000000e+00 +0.0000000000e+00 1.3100000000e+02 1.3100000000e+02 0.0000e+00 0.0000e+00
       13  1    1    2    0    0 +3.8292361390e+00 +2.8488895176e+01 +8.9286521483e+01 9.3799649681e+01 1.0566000000e-01 0.0000e+00 -1.0000e+00
      994  1    1    2    0    0 +1.9443111792e+00 -8.4697309392e+00 +5.9655845684e+00 1.3142338029e+02 1.3100000000e+02 0.0000e+00 0.0000e+00
      997  1    1    2    0    0 -5.7735473182e+00 -2.0019164237e+01 +4.0474788278e+02 4.0577697003e+02 2.0000000000e+01 0.0000e+00 0.0000e+00
</event>
<event>
 5      1 +2.3375200e-06 2.09820900e+02 7.95774700e-02 4.86753500e-01
       13 -1    0    0    0    0 +0.0000000000e+00 +0.0000000000e+00 +4.9999998884e+02 5.0000000000e+02 1.0566000000e-01 0.0000e+00 -1.0000e+00
      994 -1    0    0    0    0 -0.0000000000e+00 -0.0000000000e+00 +0.0000000000e+00 1.3100000000e+02 1.3100000000e+02 0.0000e+00 0.0000e+00
       13  1    1    2    0    0 -5.1207380592e+00 +2.8374477303e+01 +9.0487598809e+01 9.4970256516e+01 1.0566000000e-01 0.0000e+00 1.0000e+00
      994  1    1    2    0    0 -2.0911842447e+01 -4.0855522647e+01 +1.4616079189e+01 1.3957474219e+02 1.3100000000e+02 0.0000e+00 0.0000e+00
      997  1    1    2    0    0 +2.6032580506e+01 +1.2481045344e+01 +3.9489631084e+02 3.9645500130e+02 2.0000000000e+01 0.0000e+00 0.0000e+00
</event>
<event>
 5      1 +2.3375200e-06 1.95923300e+02 7.95774700e-02 5.11755200e-01
       13 -1    0    0    0    0 +0.0000000000e+00 +0.0000000000e+00 +4.9999998884e+02 5.0000000000e+02 1.0566000000e-01 0.0000e+00 1.0000e+00
      994 -1    0    0    0    0 -0.0000000000e+00 -0.0000000000e+00 +0.0000000000e+00 1.3100000000e+02 1.3100000000e+02 0.0000e+00 0.0000e+00
       13  1    1    2    0    0 -3.3171750108e+01 +2.0902269862e-01 +1.8346792649e+01 3.7908108107e+01 1.0566000000e-01 0.0000e+00 -1.0000e+00
      994  1    1    2    0    0 +1.7706584718e+00 -6.6283456379e+01 +5.0421104610e+01 1.5524148805e+02 1.3100000000e+02 0.0000e+00 0.0000e+00
      997  1    1    2    0    0 +3.1401091636e+01 +6.6074433680e+01 +4.3123209158e+02 4.3785040385e+02 2.0000000000e+01 0.0000e+00 0.0000e+00
</event>
<event>
 5      1 +2.3375200e-06 2.10060200e+02 7.95774700e-02 4.86360000e-01
       13 -1    0    0    0    0 +0.0000000000e+00 +0.0000000000e+00 +4.9999998884e+02 5.0000000000e+02 1.0566000000e-01 0.0000e+00 -1.0000e+00
      994 -1    0    0    0    0 -0.0000000000e+00 -0.0000000000e+00 +0.0000000000e+00 1.3100000000e+02 1.3100000000e+02 0.0000e+00 0.0000e+00
       13  1    1    2    0    0 +1.6991260171e+01 -5.8283950252e+00 +4.4714885525e+01 4.8188227425e+01 1.0566000000e-01 0.0000e+00 1.0000e+00
      994  1    1    2    0    0 -1.7361401936e+01 +1.4010878703e+00 +5.1942835649e+00 1.3225491260e+02 1.3100000000e+02 0.0000e+00 0.0000e+00
      997  1    1    2    0    0 +3.7014176557e-01 +4.4273071548e+00 +4.5009081975e+02 4.5055685998e+02 2.0000000000e+01 0.0000e+00 0.0000e+00
</event>
<event>
 5      1 +2.3375200e-06 2.09581800e+02 7.95774700e-02 4.87147900e-01
       13 -1    0    0    0    0 +0.0000000000e+00 +0.0000000000e+00 +4.9999998884e+02 5.0000000000e+02 1.0566000000e-01 0.0000e+00 1.0000e+00
      994 -1    0    0    0    0 -0.0000000000e+00 -0.0000000000e+00 +0.0000000000e+00 1.3100000000e+02 1.3100000000e+02 0.0000e+00 0.0000e+00
       13  1    1    2    0    0 +5.2937376452e+00 -1.0420525272e+01 +1.8182557152e+01 2.1615447111e+01 1.0566000000e-01 0.0000e+00 -1.0000e+00
      994  1    1    2    0    0 +6.0457679195e+00 +3.0407639848e+00 +4.2877105851e+00 1.3124474091e+02 1.3100000000e+02 0.0000e+00 0.0000e+00
      997  1    1    2    0    0 -1.1339505565e+01 +7.3797612870e+00 +4.7752972110e+02 4.7813981198e+02 2.0000000000e+01 0.0000e+00 0.0000e+00
</event>
<event>
 5      1 +2.3375200e-06 2.04992900e+02 7.95774700e-02 4.94944800e-01
       13 -1    0    0    0    0 +0.0000000000e+00 +0.0000000000e+00 +4.9999998884e+02 5.0000000000e+02 1.0566000000e-01 0.0000e+00 1.0000e+00
      994 -1    0    0    0    0 -0.0000000000e+00 -0.0000000000e+00 +0.0000000000e+00 1.3100000000e+02 1.3100000000e+02 0.0000e+00 0.0000e+00
       13  1    1    2    0    0 +8.9653861177e+00 +1.8369572170e+01 +2.6995679735e+01 3.3861441469e+01 1.0566000000e-01 0.0000e+00 -1.0000e+00
      994  1    1    2    0    0 -2.1877647090e+01 +6.3032206664e+00 +1.0513591853e+01 1.3337877510e+02 1.3100000000e+02 0.0000e+00 0.0000e+00
      997  1    1    2    0    0 +1.2912260972e+01 -2.4672792836e+01 +4.6249071725e+02 4.6375978343e+02 2.0000000000e+01 0.0000e+00 0.0000e+00
</event>
<event>
 5      1 +2.3375200e-06 1.94539400e+02 7.95774700e-02 5.14501700e-01
       13 -1    0    0    0    0 +0.0000000000e+00 +0.0000000000e+00 +4.9999998884e+02 5.0000000000e+02 1.0566000000e-01 0.0000e+00 -1.0000e+00
      994 -1    0    0    0    0 -0.0000000000e+00 -0.0000000000e+00 +0.0000000000e+00 1.3100000000e+02 1.3100000000e+02 0.0000e+00 0.0000e+00
       13  1    1    2    0    0 -2.4087384202e+01 +4.9846202950e+01 +1.7873649283e+02 1.8711384518e+02 1.0566000000e-01 0.0000e+00 1.0000e+00
      994  1    1    2    0    0 -6.3274659809e+01 -1.5295852211e+01 +4.7562977987e+01 1.5382094312e+02 1.3100000000e+02 0.0000e+00 0.0000e+00
      997  1    1    2    0    0 +8.7362044011e+01 -3.4550350738e+01 +2.7370051802e+02 2.9006521170e+02 2.0000000000e+01 0.0000e+00 0.0000e+00
</event>
<event>
 5      1 +2.3375200e-06 2.00050800e+02 7.95774700e-02 5.03859100e-01
       13 -1    0    0    0    0 +0.0000000000e+00 +0.0000000000e+00 +4.9999998884e+02 5.0000000000e+02 1.0566000000e-01 0.0000e+00 1.0000e+00
      994 -1    0    0    0    0 -0.0000000000e+00 -0.0000000000e+00 +0.0000000000e+00 1.3100000000e+02 1.3100000000e+02 0.0000e+00 0.0000e+00
       13  1    1    2    0    0 +1.6321229822e+01 +2.8057107521e+01 +4.0909650061e+01 5.2222547405e+01 1.0566000000e-01 0.0000e+00 -1.0000e+00
      994  1    1    2    0    0 -1.8387781140e+01 -1.2815728134e+01 +1.4747929248e+01 1.3371931349e+02 1.3100000000e+02 0.0000e+00 0.0000e+00
      997  1    1    2    0    0 +2.0665513177e+00 -1.5241379387e+01 +4.4434240953e+02 4.4505813911e+02 2.0000000000e+01 0.0000e+00 0.0000e+00
</event>
<event>
 5      1 +2.3375200e-06 2.03435900e+02 7.95774700e-02 4.97692900e-01
       13 -1    0    0    0    0 +0.0000000000e+00 +0.0000000000e+00 +4.9999998884e+02 5.0000000000e+02 1.0566000000e-01 0.0000e+00 -1.0000e+00
      994 -1    0    0    0    0 -0.0000000000e+00 -0.0000000000e+00 +0.0000000000e+00 1.3100000000e+02 1.3100000000e+02 0.0000e+00 0.0000e+00
       13  1    1    2    0    0 +6.5331944971e-01 -1.7394890190e+01 +1.4084211173e+01 2.2391632353e+01 1.0566000000e-01 0.0000e+00 1.0000e+00
      994  1    1    2    0    0 -1.0978828575e+01 +6.2980424595e+00 +9.9544646945e+00 1.3198595146e+02 1.3100000000e+02 0.0000e+00 0.0000e+00
      997  1    1    2    0    0 +1.0325509125e+01 +1.1096847731e+01 +4.7596131297e+02 4.7662241619e+02 2.0000000000e+01 0.0000e+00 0.0000e+00
</event>
<event>
 5      1 +2.3375200e-06 1.97791400e+02 7.95774700e-02 5.08128000e-01
       13 -1    0    0    0    0 +0.0000000000e+00 +0.0000000000e+00 +4.9999998884e+02 5.0000000000e+02 1.0566000000e-01 0.0000e+00 -1.0000e+00
      994 -1    0    0    0    0 -0.0000000000e+00 -0.0000000000e+00 +0.0000000000e+00 1.3100000000e+02 1.3100000000e+02 0.0000e+00 0.0000e+00
       13  1    1    2    0    0 -2.8812006796e+01 +3.4043626773e+01 +4.4345638430e+01 6.2893935091e+01 1.0566000000e-01 0.0000e+00 1.0000e+00
      994  1    1    2    0    0 -3.5816241750e+00 +3.7853869761e+00 +2.4189971878e+01 1.3331658534e+02 1.3100000000e+02 0.0000e+00 0.0000e+00
      997  1    1    2    0    0 +3.2393630971e+01 -3.7829013749e+01 +4.3146437853e+02 4.3478947957e+02 2.0000000000e+01 0.0000e+00 0.0000e+00
</event>
<event>
 5      1 +2.3375200e-06 2.07326000e+02 7.95774700e-02 4.90925600e-01
       13 -1    0    0    0    0 +0.0000000000e+00 +0.0000000000e+00 +4.9999998884e+02 5.0000000000e+02 1.0566000000e-01 0.0000e+00 1.0000e+00
      994 -1    0    0    0    0 -0.0000000000e+00 -0.0000000000e+00 +0.0000000000e+00 1.3100000000e+02 1.3100000000e+02 0.0000e+00 0.0000e+00
       13  1    1    2    0    0 -1.8390405888e+01 -1.9052547699e+01 +5.1943658377e+01 5.8304042845e+01 1.0566000000e-01 0.0000e+00 -1.0000e+00
      994  1    1    2    0    0 +2.4324600168e+01 +2.1192273796e+01 +1.1245392069e+01 1.3538189497e+02 1.3100000000e+02 0.0000e+00 0.0000e+00
      997  1    1    2    0    0 -5.9341942800e+00 -2.1397260973e+00 +4.3681093839e+02 4.3731406219e+02 2.0000000000e+01 0.0000e+00 0.0000e+00
</event>
<event>
 5      1 +2.3375200e-06 2.07466100e+02 7.95774700e-02 4.90687900e-01
       13 -1    0    0    0    0 +0.0000000000e+00 +0.0000000000e+00 +4.9999998884e+02 5.0000000000e+02 1.0566000000e-01 0.0000e+00 -1.0000e+00
      994 -1    0    0    0    0 -0.0000000000e+00 -0.0000000000e+00 +0.0000000000e+00 1.3100000000e+02 1.3100000000e+02 0.0000e+00 0.0000e+00
       13  1    1    2    0    0 +1.1872035435e+01 +2.7556412708e+01 +6.5121508265e+01 7.1701625571e+01 1.0566000000e-01 0.0000e+00 1.0000e+00
      994  1    1    2    0    0 -3.0845081660e+01 -2.7590127472e+01 +1.4642864235e+01 1.3815950083e+02 1.3100000000e+02 0.0000e+00 0.0000e+00
      997  1    1    2    0    0 +1.8973046225e+01 +3.3714764433e-02 +4.2023561634e+02 4.2113887360e+02 2.0000000000e+01 0.0000e+00 0.0000e+00
</event>
<event>
 5      1 +2.3375200e-06 2.11271400e+02 7.95774700e-02 4.84385300e-01
       13 -1    0    0    0    0 +0.0000000000e+00 +0.0000000000e+00 +4.9999998884e+02 5.0000000000e+02 1.0566000000e-01 0.0000e+00 -1.0000e+00
      994 -1    0    0    0    0 -0.0000000000e+00 -0.0000000000e+00 +0.0000000000e+00 1.3100000000e+02 1.3100000000e+02 0.0000e+00 0.0000e+00
       13  1    1    2    0    0 -2.6090802087e+00 -1.3636138661e+01 +4.5277119190e+01 4.7358001048e+01 1.0566000000e-01 0.0000e+00 1.0000e+00
      994  1    1    2    0    0 +6.9552733554e+00 +4.8526672635e-01 +2.9540805930e+00 1.3121866446e+02 1.3100000000e+02 0.0000e+00 0.0000e+00
      997  1    1    2    0    0 -4.3461931467e+00 +1.3150871935e+01 +4.5176878905e+02 4.5242333449e+02 2.0000000000e+01 0.0000e+00 0.0000e+00
</event>
<event>
 5      1 +2.3375200e-06 2.09012700e+02 7.95774700e-02 4.88091100e-01
       13 -1    0    0    0    0 +0.0000000000e+00 +0.0000000000e+00 +4.9999998884e+02 5.0000000000e+02 1.0566000000e-01 0.0000e+00 -1.0000e+00
      994 -1    0    0    0    0 -0.0000000000e+00 -0.0000000000e+00 +0.0000000000e+00 1.3100000000e+02 1.3100000000e+02 0.0000e+00 0.0000e+00
       13  1    1    2    0    0 -1.4292660361e+01 -6.5574100045e+01 +1.8124375377e+02 1.9327067077e+02 1.0566000000e-01 0.0000e+00 1.0000e+00
      994  1    1    2    0    0 +3.7237072917e+01 +8.6084868137e+01 +5.3233871661e+01 1.6968220064e+02 1.3100000000e+02 0.0000e+00 0.0000e+00
      997  1    1    2    0    0 -2.2944412556e+01 -2.0510768092e+01 +2.6552236341e+02 2.6804712859e+02 2.0000000000e+01 0.0000e+00 0.0000e+00
</event>
<event>
 5      1 +2.3375200e-06 2.08979600e+02 7.95774700e-02 4.88146300e-01
       13 -1    0    0    0    0 +0.0000000000e+00 +0.0000000000e+00 +4.9999998884e+02 5.0000000000e+02 1.0566000000e-01 0.0000e+00 -1.0000e+00
      994 -1    0    0    0    0 -0.0000000000e+00 -0.0000000000e+00 +0.0000000000e+00 1.3100000000e+02 1.3100000000e+02 0.0000e+00 0.0000e+00
       13  1    1    2    0    0 -8.8272398796e+00 +1.1566961284e+01 +2.4219248991e+01 2.8254166825e+01 1.0566000000e-01 0.0000e+00 1.0000e+00
      994  1    1    2    0    0 +1.7503332535e+00 -7.7040453251e+00 +4.8561914629e+00 1.3132782864e+02 1.3100000000e+02 0.0000e+00 0.0000e+00
      997  1    1    2    0    0 +7.0769066261e+00 -3.8629159593e+00 +4.7092454838e+02 4.7141800453e+02 2.0000000000e+01 0.0000e+00 0.0000e+00
</event>
<event>
 5      1 +2.3375200e-06 2.06627200e+02 7.95774700e-02 4.92117200e-01
       13 -1    0    0    0    0 +0.0000000000e+00 +0.0000000000e+00 +4.9999998884e+02 5.0000000000e+02 1.0566000000e-01 0.0000e+00 -1.0000e+00
      994 -1    0    0    0    0 -0.0000000000e+00 -0.0000000000e+00 +0.0000000000e+00 1.3100000000e+02 1.3100000000e+02 0.0000e+00 0.0000e+00
       13  1    1    2    0    0 +2.8735389013e+01 +9.8835191402e+00 +8.3685249084e+01 8.9031671952e+01 1.0566000000e-01 0.0000e+00 1.0000e+00
      994  1    1    2    0    0 +2.5119297809e+00 -6.6571859660e+01 +3.0305112787e+01 1.5005839580e+02 1.3100000000e+02 0.0000e+00 0.0000e+00
      997  1    1    2    0    0 -3.1247318794e+01 +5.6688340520e+01 +3.8600962697e+02 3.9190993225e+02 2.0000000000e+01 0.0000e+00 0.0000e+00
</event>
<event>
 5      1 +2.3375200e-06 2.06736600e+02 7.95774700e-02 4.91929900e-01
       13 -1    0    0    0    0 +0.0000000000e+00 +0.0000000000e+00 +4.9999998884e+02 5.0000000000e+02 1.0566000000e-01 0.0000e+00 -1.0000e+00
      994 -1    0    0    0    0 -0.0000000000e+00 -0.0000000000e+00 +0.0000000000e+00 1.3100000000e+02 1.3100000000e+02 0.0000e+00 0.0000e+00
       13  1    1    2    0    0 +9.1431383864e+00 +5.4400363951e+00 +7.0592895599e+00 1.2768543717e+01 1.0566000000e-01 0.0000e+00 1.0000e+00
      994  1    1    2    0    0 +7.0332892215e+00 -1.3537788036e+01 +7.5596244127e+00 1.3210180462e+02 1.3100000000e+02 0.0000e+00 0.0000e+00
      997  1    1    2    0    0 -1.6176427608e+01 +8.0977516409e+00 +4.8538107486e+02 4.8612965166e+02 2.0000000000e+01 0.0000e+00 0.0000e+00
</event>
<event>
 5      1 +2.3375200e-06 2.12222000e+02 7.95774700e-02 4.82855400e-01
       13 -1    0    0    0    0 +0.0000000000e+00 +0.0000000000e+00 +4.9999998884e+02 5.0000000000e+02 1.0566000000e-01 0.0000e+00 1.0000e+00
      994 -1    0    0    0    0 -0.0000000000e+00 -0.0000000000e+00 +0.0000000000e+00 1.3100000000e+02 1.3100000000e+02 0.0000e+00 0.0000e+00
       13  1    1    2    0    0 +7.0033930163e+00 +7.3313194723e+00 +3.1380418268e+01 3.2977834581e+01 1.0566000000e-01 0.0000e+00 -1.0000e+00
      994  1    1    2    0    0 -1.3095124429e+01 +7.7653048839e-02 +2.8080712060e+00 1.3168285225e+02 1.3100000000e+02 0.0000e+00 0.0000e+00
      997  1    1    2    0    0 +6.0917314130e+00 -7.4089725211e+00 +4.6581149936e+02 4.6633931317e+02 2.0000000000e+01 0.0000e+00 0.0000e+00
</event>
<event>
 5      1 +2.3375200e-06 2.11782500e+02 7.95774700e-02 4.83560600e-01
       13 -1    0    0    0    0 +0.0000000000e+00 +0.0000000000e+00 +4.9999998884e+02 5.0000000000e+02 1.0566000000e-01 0.0000e+00 -1.0000e+00
      994 -1    0    0    0    0 -0.0000000000e+00 -0.0000000000e+00 +0.0000000000e+00 1.3100000000e+02 1.3100000000e+02 0.0000e+00 0.0000e+00
       13  1    1    2    0    0 -1.1003843969e+01 +8.7118510700e+00 +4.5554211142e+01 4.7667370894e+01 1.0566000000e-01 0.0000e+00 1.0000e+00
      994  1    1    2    0    0 +9.4697239129e+00 -1.4435766919e+01 +3.7825345417e+00 1.3218689271e+02 1.3100000000e+02 0.0000e+00 0.0000e+00
      997  1    1    2    0    0 +1.5341200559e+00 +5.7239158492e+00 +4.5066324315e+02 4.5114573639e+02 2.0000000000e+01 0.0000e+00 0.0000e+00
</event>
<event>
 5      1 +2.3375200e-06 2.08056200e+02 7.95774700e-02 4.89691300e-01
       13 -1    0    0    0    0 +0.0000000000e+00 +0.0000000000e+00 +4.9999998884e+02 5.0000000000e+02 1.0566000000e-01 0.0000e+00 1.0000e+00
      994 -1    0    0    0    0 -0.0000000000e+00 -0.0000000000e+00 +0.0000000000e+00 1.3100000000e+02 1.3100000000e+02 0.0000e+00 0.0000e+00
       13  1    1    2    0    0 +2.7676888485e+01 +1.6755673486e+01 +1.8398071186e+02 1.8680384432e+02 1.0566000000e-01 0.0000e+00 -1.0000e+00
      994  1    1    2    0    0 -4.0123298693e+00 +6.6898322165e+00 +5.5967058416e+00 1.3135134473e+02 1.3100000000e+02 0.0000e+00 0.0000e+00
      997  1    1    2    0    0 -2.3664558615e+01 -2.3445505703e+01 +3.1042257113e+02 3.1284481095e+02 2.0000000000e+01 0.0000e+00 0.0000e+00
</event>
<event>
 5      1 +2.3375200e-06 2.11148600e+02 7.95774700e-02 4.84584200e-01
       13 -1    0    0    0    0 +0.0000000000e+00 +0.0000000000e+00 +4.9999998884e+02 5.0000000000e+02 1.0566000000e-01 0.0000e+00 -1.0000e+00
      994 -1    0    0    0    0 -0.0000000000e+00 -0.0000000000e+00 +0.0000000000e+00 1.3100000000e+02 1.3100000000e+02 0.0000e+00 0.0000e+00
       13  1    1    2    0    0 -2.6779619538e+01 -1.9486732986e+01 +1.8122143335e+02 1.8422296234e+02 1.0566000000e-01 0.0000e+00 1.0000e+00
      994  1    1    2    0    0 +1.7141915879e+01 +2.8365925819e+01 +8.3033668574e+00 1.3538248383e+02 1.3100000000e+02 0.0000e+00 0.0000e+00
      997  1    1    2    0    0 +9.6377036599e+00 -8.8791928331e+00 +3.1047518863e+02 3.1139455382e+02 2.0000000000e+01 0.0000e+00 0.0000e+00
</event>
<event>
 5      1 +2.3375200e-06 1.98737300e+02 7.95774700e-02 5.06325300e-01
       13 -1    0    0    0    0 +0.0000000000e+00 +0.0000000000e+00 +4.9999998884e+02 5.0000000000e+02 1.0566000000e-01 0.0000e+00 -1.0000e+00
      994 -1    0    0    0    0 -0.0000000000e+00 -0.0000000000e+00 +0.0000000000e+00 1.3100000000e+02 1.3100000000e+02 0.0000e+00 0.0000e+00
       13  1    1    2    0    0 -3.4364779830e+01 +2.0026687824e-01 +4.0655374823e+01 5.3233907105e+01 1.0566000000e-01 0.0000e+00 1.0000e+00
      994  1    1    2    0    0 +2.3905842775e+01 +5.3458347604e+00 +1.6472771297e+01 1.3428484450e+02 1.3100000000e+02 0.0000e+00 0.0000e+00
      997  1    1    2    0    0 +1.0458937056e+01 -5.5461016387e+00 +4.4287184272e+02 4.4348124840e+02 2.0000000000e+01 0.0000e+00 0.0000e+00
</event>
<event>
 5      1 +2.3375200e-06 2.10046400e+02 7.95774700e-02 4.86382700e-01
       13 -1    0    0    0    0 +0.0000000000e+00 +0.0000000000e+00 +4.9999998884e+02 5.0000000000e+02 1.0566000000e-01 0.0000e+00 1.0000e+00
      994 -1    0    0    0    0 -0.0000000000e+00 -0.0000000000e+00 +0.0000000000e+00 1.3100000000e+02 1.3100000000e+02 0.0000e+00 0.0000e+00
       13  1    1    2    0    0 +1.5064767879e+01 +8.4433780055e-01 +3.4533309642e+01 3.7685816648e+01 1.0566000000e-01 0.0000e+00 -1.0000e+00
      994  1    1    2    0    0 -5.9487047944e+00 -2.8296958683e+00 +3.9033880383e+00 1.3122359051e+02 1.3100000000e+02 0.0000e+00 0.0000e+00
      997  1    1    2    0    0 -9.1160630850e+00 +1.9853580677e+00 +4.6156329116e+02 4.6209059284e+02 2.0000000000e+01 0.0000e+00 0.0000e+00
</event>
<event>
 5      1 +2.3375200e-06 2.10458000e+02 7.95774700e-02 4.85708200e-01
       13 -1    0    0    0    0 +0.0000000000e+00 +0.0000000000e+00 +4.9999998884e+02 5.0000000000e+02 1.0566000000e-01 0.0000e+00 -1.0000e+00
      994 -1    0    0    0    0 -0.0000000000e+00 -0.0000000000e+00 +0.0000000000e+00 1.3100000000e+02 1.3100000000e+02 0.0000e+00 0.0000e+00
       13  1    1    2    0    0 +1.8141897953e+01 -1.8419263931e+01 +1.2937428303e+02 1.3193223267e+02 1.0566000000e-01 0.0000e+00 1.0000e+00
      994  1    1    2    0    0 -1.4400526553e+01 +1.0983190238e+00 +4.3985545599e+00 1.3186708745e+02 1.3100000000e+02 0.0000e+00 0.0000e+00
      997  1    1    2    0    0 -3.7413714007e+00 +1.7320944907e+01 +3.6622715125e+02 3.6720067988e+02 2.0000000000e+01 0.0000e+00 0.0000e+00
</event>
<event>
 5      1 +2.3375200e-06 2.11688800e+02 7.95774700e-02 4.83711400e-01
       13 -1    0    0    0    0 +0.0000000000e+00 +0.0000000000e+00 +4.9999998884e+02 5.0000000000e+02 1.0566000000e-01 0.0000e+00 1.0000e+00
      994 -1    0    0    0    0 -0.0000000000e+00 -0.0000000000e+00 +0.0000000000e+00 1.3100000000e+02 1.3100000000e+02 0.0000e+00 0.0000e+00
       13  1    1    2    0    0 -5.9661904331e+00 -1.1352905327e+01 +4.7009236131e+01 4.8727439223e+01 1.0566000000e-01 0.0000e+00 -1.0000e+00
      994  1    1    2    0    0 +2.0750827389e+01 -9.7126566205e+00 +4.9840915324e+00 1.3308183086e+02 1.3100000000e+02 0.0000e+00 0.0000e+00
      997  1    1    2    0    0 -1.4784636956e+01 +2.1065561947e+01 +4.4800666117e+02 4.4919072992e+02 2.0000000000e+01 0.0000e+00 0.0000e+00
</event>
<event>
 5      1 +2.3375200e-06 2.10072200e+02 7.95774700e-02 4.86340300e-01
       13 -1    0    0    0    0 +0.0000000000e+00 +0.0000000000e+00 +4.9999998884e+02 5.0000000000e+02 1.0566000000e-01 0.0000e+00 -1.0000e+00
      994 -1    0    0    0    0 -0.0000000000e+00 -0.0000000000e+00 +0.0000000000e+00 1.3100000000e+02 1.3100000000e+02 0.0000e+00 0.0000e+00
       13  1    1    2    0    0 +6.6526255975e+00 -5.8659363319e+01 +2.2463403023e+02 2.3226200083e+02 1.0566000000e-01 0.0000e+00 1.0000e+00
      994  1    1    2    0    0 -1.7879250047e+01 +6.6923416122e+01 +2.8787585224e+01 1.5095739886e+02 1.3100000000e+02 0.0000e+00 0.0000e+00
      997  1    1    2    0    0 +1.1226624450e+01 -8.2640528034e+00 +2.4657837339e+02 2.4778060031e+02 2.0000000000e+01 0.0000e+00 0.0000e+00
</event>
<event>
 5      1 +2.3375200e-06 2.10549900e+02 7.95774700e-02 4.85558100e-01
       13 -1    0    0    0    0 +0.0000000000e+00 +0.0000000000e+00 +4.9999998884e+02 5.0000000000e+02 1.0566000000e-01 0.0000e+00 1.0000e+00
      994 -1    0    0    0    0 -0.0000000000e+00 -0.0000000000e+00 +0.0000000000e+00 1.3100000000e+02 1.3100000000e+02 0.0000e+00 0.0000e+00
       13  1    1    2    0    0 +3.4627738608e+00 -1.1874631491e+01 +2.6176512483e+01 2.8952005901e+01 1.0566000000e-01 0.0000e+00 -1.0000e+00
      994  1    1    2    0    0 -4.6741138378e+00 +3.3773107712e+00 +3.4509842473e+00 1.3117226407e+02 1.3100000000e+02 0.0000e+00 0.0000e+00
      997  1    1    2    0    0 +1.2113399770e+00 +8.4973207195e+00 +4.7037249211e+02 4.7087573003e+02 2.0000000000e+01 0.0000e+00 0.0000e+00
</event>
<event>
 5      1 +2.3375200e-06 2.12563700e+02 7.95774700e-02 4.82309700e-01
       13 -1    0    0    0    0 +0.0000000000e+00 +0.0000000000e+00 +4.9999998884e+02 5.0000000000e+02 1.0566000000e-01 0.0000e+00 -1.0000e+00
      994 -1    0    0    0    0 -0.0000000000e+00 -0.0000000000e+00 +0.0000000000e+00 1.3100000000e+02 1.3100000000e+02 0.0000e+00 0.0000e+00
       13  1    1    2    0    0 +6.0250685977e+00 -1.0520864503e+01 +4.8774942826e+01 5.0259290218e+01 1.0566000000e-01 0.0000e+00 1.0000e+00
      994  1    1    2    0    0 -7.9091631245e+00 +1.3910281258e+01 +2.9537541276e+00 1.3200672502e+02 1.3100000000e+02 0.0000e+00 0.0000e+00
      997  1    1    2    0    0 +1.8840945268e+00 -3.3894167557e+00 +4.4827129188e+02 4.4873398477e+02 2.0000000000e+01 0.0000e+00 0.0000e+00
</event>
<event>
 5      1 +2.3375200e-06 2.10855700e+02 7.95774700e-02 4.85059800e-01
       13 -1    0    0    0    0 +0.0000000000e+00 +0.0000000000e+00 +4.9999998884e+02 5.0000000000e+02 1.0566000000e-01 0.0000e+00 1.0000e+00
      994 -1    0    0    0    0 -0.0000000000e+00 -0.0000000000e+00 +0.0000000000e+00 1.3100000000e+02 1.3100000000e+02 0.0000e+00 0.0000e+00
       13  1    1    2    0    0 -1.8448295167e+01 -7.1204128721e+00 +6.7919782102e+01 7.0740001688e+01 1.0566000000e-01 0.0000e+00 -1.0000e+00
      994  1    1    2    0    0 +8.6851685168e+00 +2.9795471266e+01 +7.8640030317e+00 1.3485564432e+02 1.3100000000e+02 0.0000e+00 0.0000e+00
      997  1    1    2    0    0 +9.7631266506e+00 -2.2675058393e+01 +4.2421620370e+02 4.2540435400e+02 2.0000000000e+01 0.0000e+00 0.0000e+00
</event>
<event>
 5      1 +2.3375200e-06 2.00505200e+02 7.95774700e-02 5.03015600e-01
       13 -1    0    0    0    0 +0.0000000000e+00 +0.0000000000e+00 +4.9999998884e+02 5.0000000000e+02 1.0566000000e-01 0.0000e+00 1.0000e+00
      994 -1    0    0    0    0 -0.0000000000e+00 -0.0000000000e+00 +0.0000000000e+00 1.3100000000e+02 1.3100000000e+02 0.0000e+00 0.0000e+00
       13  1    1    2    0    0 +1.1450223108e+01 +8.2815606336e+00 +4.1373793721e+00 1.4724840503e+01 1.0566000000e-01 0.0000e+00 -1.0000e+00
      994  1    1    2    0    0 -3.3959006849e+00 -1.4031439959e+00 +1.1687757855e+01 1.3157167111e+02 1.3100000000e+02 0.0000e+00 0.0000e+00
      997  1    1    2    0    0 -8.0543224229e+00 -6.8784166377e+00 +4.8417485161e+02 4.8470348839e+02 2.0000000000e+01 0.0000e+00 0.0000e+00
</event>
<event>
 5      1 +2.3375200e-06 2.12816600e+02 7.95774700e-02 4.81907300e-01
       13 -1    0    0    0    0 +0.0000000000e+00 +0.0000000000e+00 +4.9999998884e+02 5.0000000000e+02 1.0566000000e-01 0.0000e+00 1.0000e+00
      994 -1    0    0    0    0 -0.0000000000e+00 -0.0000000000e+00 +0.0000000000e+00 1.3100000000e+02 1.3100000000e+02 0.0000e+00 0.0000e+00
       13  1    1    2    0    0 +9.0612966480e+00 +5.6614123160e+00 +3.9314608605e+01 4.0740744963e+01 1.0566000000e-01 0.0000e+00 -1.0000e+00
      994  1    1    2    0    0 -1.6793389291e+01 -1.6701550930e+01 +4.2547000115e+00 1.3319182482e+02 1.3100000000e+02 0.0000e+00 0.0000e+00
      997  1    1    2    0    0 +7.7320926425e+00 +1.1040138614e+01 +4.5643068022e+02 4.5706743021e+02 2.0000000000e+01 0.0000e+00 0.0000e+00
</event>
<event>
 5      1 +2.3375200e-06 2.07191000e+02 7.95774700e-02 4.91155000e-01
       13 -1    0    0    0    0 +0.0000000000e+00 +0.0000000000e+00 +4.9999998884e+02 5.0000000000e+02 1.0566000000e-01 0.0000e+00 1.0000e+00
      994 -1    0    0    0    0 -0.0000000000e+00 -0.0000000000e+00 +0.0000000000e+00 1.3100000000e+02 1.3100000000e+02 0.0000e+00 0.0000e+00
       13  1    1    2    0    0 -1.5212005073e+01 +1.1541655878e+01 +3.1578230004e+01 3.6902719317e+01 1.0566000000e-01 0.0000e+00 -1.0000e+00
      994  1    1    2    0    0 +2.9516457649e-01 -1.1596477908e+01 +6.6802407892e+00 1.3168215915e+02 1.3100000000e+02 0.0000e+00 0.0000e+00
      997  1    1    2    0    0 +1.4916840497e+01 +5.4822029987e-02 +4.6174151804e+02 4.6241512153e+02 2.0000000000e+01 0.0000e+00 0.0000e+00
</event>
<event>
 5      1 +2.3375200e-06 2.10966800e+02 7.95774700e-02 4.84879100e-01
       13 -1    0    0    0    0 +0.0000000000e+00 +0.0000000000e+00 +4.9999998884e+02 5.0000000000e+02 1.0566000000e-01 0.0000e+00 1.0000e+00
      994 -1    0    0    0    0 -0.0000000000e+00 -0.0000000000e+00 +0.0000000000e+00 1.3100000000e+02 1.3100000000e+02 0.0000e+00 0.0000e+00
       13  1    1    2    0    0 +2.4208549975e-02 +1.8616638122e+01 +5.8772475591e+01 6.1650586795e+01 1.0566000000e-01 0.0000e+00 -1.0000e+00
      994  1    1    2    0    0 +6.9447554066e+00 -2.0259284557e+01 +5.2377053723e+00 1.3284239457e+02 1.3100000000e+02 0.0000e+00 0.0000e+00
      997  1    1    2    0    0 -6.9689639565e+00 +1.6426464348e+00 +4.3598980787e+02 4.3650701863e+02 2.0000000000e+01 0.0000e+00 0.0000e+00
</event>
<event>
 5      1 +2.3375200e-06 2.06939000e+02 7.95774700e-02 4.91584200e-01
       13 -1    0    0    0    0 +0.0000000000e+00 +0.0000000000e+00 +4.9999998884e+02 5.0000000000e+02 1.0566000000e-01 0.0000e+00 1.0000e+00
      994 -1    0    0    0    0 -0.0000000000e+00 -0.0000000000e+00 +0.0000000000e+00 1.3100000000e+02 1.3100000000e+02 0.0000e+00 0.0000e+00
       13  1    1    2    0    0 +1.5357732106e+01 +2.1028240254e+00 +1.7800030734e+01 2.3603687477e+01 1.0566000000e-01 0.0000e+00 -1.0000e+00
      994  1    1    2    0    0 -1.3546763067e+01 +3.3026629289e+00 +7.1949965751e+00 1.3193631171e+02 1.3100000000e+02 0.0000e+00 0.0000e+00
      997  1    1    2    0    0 -1.8109690389e+00 -5.4054869543e+00 +4.7500496153e+02 4.7546000081e+02 2.0000000000e+01 0.0000e+00 0.0000e+00
</event>
<event>
 5      1 +2.3375200e-06 2.11598900e+02 7.95774700e-02 4.83856300e-01
       13 -1    0    0    0    0 +0.0000000000e+00 +0.0000000000e+00 +4.9999998884e+02 5.0000000000e+02 1.0566000000e-01 0.0000e+00 1.0000e+00
      994 -1    0    0    0    0 -0.0000000000e+00 -0.0000000000e+00 +0.0000000000e+00 1.3100000000e+02 1.3100000000e+02 0.0000e+00 0.0000e+00
       13  1    1    2    0    0 +6.0871820422e+00 +1.9487756198e+01 +9.9429586054e+01 1.0150408944e+02 1.0566000000e-01 0.0000e+00 -1.0000e+00
      994  1    1    2    0    0 +4.9319479620e+00 -1.6642213811e+01 +3.9452916469e+00 1.3220383019e+02 1.3100000000e+02 0.0000e+00 0.0000e+00
      997  1    1    2    0    0 -1.1019130004e+01 -2.8455423872e+00 +3.9662511114e+02 3.9729208036e+02 2.0000000000e+01 0.0000e+00 0.0000e+00
</event>
<event>
 5      1 +2.3375200e-06 2.05418600e+02 7.95774700e-02 4.94202600e-01
       13 -1    0    0    0    0 +0.0000000000e+00 +0.0000000000e+00 +4.9999998884e+02 5.0000000000e+02 1.0566000000e-01 0.0000e+00 -1.0000e+00
      994 -1    0    0    0    0 -0.0000000000e+00 -0.0000000000e+00 +0.0000000000e+00 1.3100000000e+02 1.3100000000e+02 0.0000e+00 0.0000e+00
       13  1    1    2    0    0 +1.2294049265e+01 +8.9804045578e+00 +1.6653952300e+01 2.2564498767e+01 1.0566000000e-01 0.0000e+00 1.0000e+00
      994  1    1    2    0    0 +2.1666245403e+01 +6.0335382252e+00 +1.0084686739e+01 1.3329865221e+02 1.3100000000e+02 0.0000e+00 0.0000e+00
      997  1    1    2    0    0 -3.3960294668e+01 -1.5013942783e+01 +4.7326134980e+02 4.7513684903e+02 2.0000000000e+01 0.0000e+00 0.0000e+00
</event>
<event>
 5      1 +2.3375200e-06 2.07298300e+02 7.95774700e-02 4.90972700e-01
       13 -1    0    0    0    0 +0.0000000000e+00 +0.0000000000e+00 +4.9999998884e+02 5.0000000000e+02 1.0566000000e-01 0.0000e+00 1.0000e+00
      994 -1    0    0    0    0 -0.0000000000e+00 -0.0000000000e+00 +0.0000000000e+00 1.3100000000e+02 1.3100000000e+02 0.0000e+00 0.0000e+00
       13  1    1    2    0    0 -9.8789423684e-01 -1.3520785040e+01 +1.3026559764e+01 1.8801329379e+01 1.0566000000e-01 0.0000e+00 -1.0000e+00
      994  1    1    2    0    0 +1.6470121348e+01 +2.0018468525e+01 +9.3556964677e+00 1.3386759517e+02 1.3100000000e+02 0.0000e+00 0.0000e+00
      997  1    1    2    0    0 -1.5482227111e+01 -6.4976834854e+00 +4.7761773260e+02 4.7833107545e+02 2.0000000000e+01 0.0000e+00 0.0000e+00
</event>
<event>
 5      1 +2.3375200e-06 2.10928300e+02 7.95774700e-02 4.84941700e-01
       13 -1    0    0    0    0 +0.0000000000e+00 +0.0000000000e+00 +4.9999998884e+02 5.0000000000e+02 1.0566000000e-01 0.0000e+00 -1.0000e+00
      994 -1    0    0    0    0 -0.0000000000e+00 -0.0000000000e+00 +0.0000000000e+00 1.3100000000e+02 1.3100000000e+02 0.0000e+00 0.0000e+00
       13  1    1    2    0    0 -2.2916198548e+01 -1.0407499356e+01 +1.4234190550e+02 1.4454998244e+02 1.0566000000e-01 0.0000e+00 1.0000e+00
      994  1    1    2    0    0 +1.0618958879e+01 +2.4959214997e+00 +3.5757846915e+00 1.3150200815e+02 1.3100000000e+02 0.0000e+00 0.0000e+00
      997  1    1    2    0    0 +1.2297239669e+01 +7.9115778559e+00 +3.5408229864e+02 3.5494800940e+02 2.0000000000e+01 0.0000e+00 0.0000e+00
</event>
<event>
 5      1 +2.3375200e-06 2.13007800e+02 7.95774700e-02 4.81603700e-01
       13 -1    0    0    0    0 +0.0000000000e+00 +0.0000000000e+00 +4.9999998884e+02 5.0000000000e+02 1.0566000000e-01 0.0000e+00 -1.0000e+00
      994 -1    0    0    0    0 -0.0000000000e+00 -0.0000000000e+00 +0.0000000000e+00 1.3100000000e+02 1.3100000000e+02 0.0000e+00 0.0000e+00
       13  1    1    2    0    0 +1.1724586358e+01 -8.8503237857e+00 +8.4818229769e+01 8.6080993381e+01 1.0566000000e-01 0.0000e+00 1.0000e+00
      994  1    1    2    0    0 -2.2077537371e+01 +6.6743360062e+00 +3.9585082470e+00 1.3307379233e+02 1.3100000000e+02 0.0000e+00 0.0000e+00
      997  1    1    2    0    0 +1.0352951014e+01 +2.1759877795e+00 +4.1122325082e+02 4.1184521429e+02 2.0000000000e+01 0.0000e+00 0.0000e+00
</event>
<event>
 5      1 +2.3375200e-06 2.12269300e+02 7.95774700e-02 4.82779700e-01
       13 -1    0    0    0    0 +0.0000000000e+00 +0.0000000000e+00 +4.9999998884e+02 5.0000000000e+02 1.0566000000e-01 0.0000e+00 1.0000e+00
      994 -1    0    0    0    0 -0.0000000000e+00 -0.0000000000e+00 +0.0000000000e+00 1.3100000000e+02 1.3100000000e+02 0.0000e+00 0.0000e+00
       13  1    1    2    0    0 -1.4202509323e+01 +1.0317350367e+01 +8.2941088738e+01 8.4778501725e+01 1.0566000000e-01 0.0000e+00 -1.0000e+00
      994  1    1    2    0    0 +1.9645529601e+01 -7.5409875043e+00 +4.1095807868e+00 1.3274299221e+02 1.3100000000e+02 0.0000e+00 0.0000e+00
      997  1    1    2    0    0 -5.4430202789e+00 -2.7763628632e+00 +4.1294931931e+02 4.1347850607e+02 2.0000000000e+01 0.0000e+00 0.0000e+00
</event>
<event>
 5      1 +2.3375200e-06 2.09779200e+02 7.95774700e-02 4.86822300e-01
       13 -1    0    0    0    0 +0.0000000000e+00 +0.0000000000e+00 +4.9999998884e+02 5.0000000000e+02 1.0566000000e-01 0.0000e+00 1.0000e+00
      994 -1    0    0    0    0 -0.0000000000e+00 -0.0000000000e+00 +0.0000000000e+00 1.3100000000e+02 1.3100000000e+02 0.0000e+00 0.0000e+00
       13  1    1    2    0    0 -2.5726681809e+00 +1.3927605339e+01 +2.9436658841e+01 3.2666877105e+01 1.0566000000e-01 0.0000e+00 -1.0000e+00
      994  1    1    2    0    0 +6.9258160420e+00 +1.7284735368e-01 +4.1403712298e+00 1.3124838848e+02 1.3100000000e+02 0.0000e+00 0.0000e+00
      997  1    1    2    0    0 -4.3531478612e+00 -1.4100452692e+01 +4.6642295877e+02 4.6708473442e+02 2.0000000000e+01 0.0000e+00 0.0000e+00
</event>
<event>
 5      1 +2.3375200e-06 2.05250400e+02 7.95774700e-02 4.94495400e-01
       13 -1    0    0    0    0 +0.0000000000e+00 +0.0000000000e+00 +4.9999998884e+02 5.0000000000e+02 1.0566000000e-01 0.0000e+00 -1.0000e+00
      994 -1    0    0    0    0 -0.0000000000e+00 -0.0000000000e+00 +0.0000000000e+00 1.3100000000e+02 1.3100000000e+02 0.0000e+00 0.0000e+00
       13  1    1    2    0    0 -1.4997685163e+01 +1.7555315010e+00 +1.2758764658e+01 1.9768907172e+01 1.0566000000e-01 0.0000e+00 1.0000e+00
      994  1    1    2    0    0 +8.5358801112e+00 -6.3662224708e+00 +8.1794852051e+00 1.3168634711e+02 1.3100000000e+02 0.0000e+00 0.0000e+00
      997  1    1    2    0    0 +6.4618050522e+00 +4.6106909699e+00 +4.7906173897e+02 4.7954474572e+02 2.0000000000e+01 0.0000e+00 0.0000e+00
</event>
<event>
 5      1 +2.3375200e-06 2.06617300e+02 7.95774700e-02 4.92134100e-01
       13 -1    0    0    0    0 +0.0000000000e+00 +0.0000000000e+00 +4.9999998884e+02 5.0000000000e+02 1.0566000000e-01 0.0000e+00 1.0000e+00
      994 -1    0    0    0    0 -0.0000000000e+00 -0.0000000000e+00 +0.0000000000e+00 1.3100000000e+02 1.3100000000e+02 0.0000e+00 0.0000e+00
       13  1    1    2    0    0 -2.0560181247e+01 +2.0810483652e+00 +3.3599076396e+01 3.9445670407e+01 1.0566000000e-01 0.0000e+00 -1.0000e+00
      994  1    1    2    0    0 +1.7933301924e+01 +5.7548451021e+01 +2.5816227967e+01 1.4649541003e+02 1.3100000000e+02 0.0000e+00 0.0000e+00
      997  1    1    2    0    0 +2.6268793225e+00 -5.9629499386e+01 +4.4058468447e+02 4.4505891956e+02 2.0000000000e+01 0.0000e+00 0.0000e+00
</event>
<event>
 5      1 +2.3375200e-06 2.12889300e+02 7.95774700e-02 4.81791800e-01
       13 -1    0    0    0    0 +0.0000000000e+00 +0.0000000000e+00 +4.9999998884e+02 5.0000000000e+02 1.0566000000e-01 0.0000e+00 1.0000e+00
      994 -1    0    0    0    0 -0.0000000000e+00 -0.0000000000e+00 +0.0000000000e+00 1.3100000000e+02 1.3100000000e+02 0.0000e+00 0.0000e+00
       13  1    1    2    0    0 -5.6475824913e+00 +1.4551572465e+01 +8.8126400037e+01 8.9498139628e+01 1.0566000000e-01 0.0000e+00 -1.0000e+00
      994  1    1    2    0    0 +1.8376391168e+01 -1.6809932355e+01 +4.4891429810e+00 1.3342195465e+02 1.3100000000e+02 0.0000e+00 0.0000e+00
      997  1    1    2    0    0 -1.2728808676e+01 +2.2583598901e+00 +4.0738444582e+02 4.0807990572e+02 2.0000000000e+01 0.0000e+00 0.0000e+00
</event>
<event>
 5      1 +2.3375200e-06 2.06335100e+02 7.95774700e-02 4.92618300e-01
       13 -1    0    0    0    0 +0.0000000000e+00 +0.0000000000e+00 +4.9999998884e+02 5.0000000000e+02 1.0566000000e-01 0.0000e+00 -1.0000e+00
      994 -1    0    0    0    0 -0.0000000000e+00 -0.0000000000e+00 +0.0000000000e+00 1.3100000000e+02 1.3100000000e+02 0.0000e+00 0.0000e+00
       13  1    1    2    0    0 +5.2185588057e+01 -4.3152035343e+01 +1.7144449939e+02 1.8433301736e+02 1.0566000000e-01 0.0000e+00 1.0000e+00
      994  1    1    2    0    0 -6.7566682902e+01 +4.4251981996e+01 +4.2718502273e+01 1.5971651444e+02 1.3100000000e+02 0.0000e+00 0.0000e+00
      997  1    1    2    0    0 +1.5381094845e+01 -1.0999466527e+00 +2.8583698718e+02 2.8695046820e+02 2.0000000000e+01 0.0000e+00 0.0000e+00
</event>
<event>
 5      1 +2.3375200e-06 2.08782900e+02 7.95774700e-02 4.88473900e-01
       13 -1    0    0    0    0 +0.0000000000e+00 +0.0000000000e+00 +4.9999998884e+02 5.0000000000e+02 1.0566000000e-01 0.0000e+00 1.0000e+00
      994 -1    0    0    0    0 -0.0000000000e+00 -0.0000000000e+00 +0.0000000000e+00 1.3100000000e+02 1.3100000000e+02 0.0000e+00 0.0000e+00
       13  1    1    2    0    0 -6.6082890966e+00 +2.5939832708e+01 +9.8555044662e+01 1.0212566963e+02 1.0566000000e-01 0.0000e+00 -1.0000e+00
      994  1    1    2    0    0 -6.9736577879e+00 -7.6570858080e+00 +5.2415958494e+00 1.3151325862e+02 1.3100000000e+02 0.0000e+00 0.0000e+00
      997  1    1    2    0    0 +1.3581946884e+01 -1.8282746900e+01 +3.9620334832e+02 3.9736107175e+02 2.0000000000e+01 0.0000e+00 0.0000e+00
</event>
<event>
 5      1 +2.3375200e-06 2.10125600e+02 7.95774700e-02 4.86252600e-01
       13 -1    0    0    0    0 +0.0000000000e+00 +0.0000000000e+00 +4.9999998884e+02 5.0000000000e+02 1.0566000000e-01 0.0000e+00 -1.0000e+00
      994 -1    0    0    0    0 -0.0000000000e+00 -0.0000000000e+00 +0.0000000000e+00 1.3100000000e+02 1.3100000000e+02 0.0000e+00 0.0000e+00
       13  1    1    2    0    0 +1.4826259293e+00 +1.9324388384e+01 +5.7015139117e+01 6.0219327617e+01 1.0566000000e-01 0.0000e+00 1.0000e+00
      994  1    1    2    0    0 -1.6499683807e+01 -1.1373483047e+01 +5.6345295345e+00 1.3264367156e+02 1.3100000000e+02 0.0000e+00 0.0000e+00
      997  1    1    2    0    0 +1.5017057878e+01 -7.9509053376e+00 +4.3735032018e+02 4.3813700082e+02 2.0000000000e+01 0.0000e+00 0.0000e+00
</event>
<event>
 5      1 +2.3375200e-06 2.03155600e+02 7.95774700e-02 4.98193300e-01
       13 -1    0    0    0    0 +0.0000000000e+00 +0.0000000000e+00 +4.9999998884e+02 5.0000000000e+02 1.0566000000e-01 0.0000e+00 1.0000e+00
      994 -1    0    0    0    0 -0.0000000000e+00 -0.0000000000e+00 +0.0000000000e+00 1.3100000000e+02 1.3100000000e+02 0.0000e+00 0.0000e+00
       13  1    1    2    0    0 -4.1351615663e+01 +4.2664872753e+00 +7.5973636891e+01 8.6603485484e+01 1.0566000000e-01 0.0000e+00 -1.0000e+00
      994  1    1    2    0    0 +4.5108406187e+01 +1.0924526460e+01 +2.0982955797e+01 1.4055389721e+02 1.3100000000e+02 0.0000e+00 0.0000e+00
      997  1    1    2    0    0 -3.7567905240e+00 -1.5191013735e+01 +4.0304339615e+02 4.0384261731e+02 2.0000000000e+01 0.0000e+00 0.0000e+00
</event>
<event>
 5      1 +2.3375200e-06 2.05881000e+02 7.95774700e-02 4.93401100e-01
       13 -1    0    0    0    0 +0.0000000000e+00 +0.0000000000e+00 +4.9999998884e+02 5.0000000000e+02 1.0566000000e-01 0.0000e+00 -1.0000e+00
      994 -1    0    0    0    0 -0.0000000000e+00 -0.0000000000e+00 +0.0000000000e+00 1.3100000000e+02 1.3100000000e+02 0.0000e+00 0.0000e+00
       13  1    1    2    0    0 +3.3321984840e+01 -4.0860923947e+00 +8.6232432578e+01 9.2536989453e+01 1.0566000000e-01 0.0000e+00 1.0000e+00
      994  1    1    2    0    0 -1.7763019001e+01 -8.6927000458e+00 +9.0944995403e+00 1.3279607600e+02 1.3100000000e+02 0.0000e+00 0.0000e+00
      997  1    1    2    0    0 -1.5558965839e+01 +1.2778792440e+01 +4.0467305672e+02 4.0566693455e+02 2.0000000000e+01 0.0000e+00 0.0000e+00
</event>
<event>
 5      1 +2.3375200e-06 1.97333500e+02 7.95774700e-02 5.09008800e-01
       13 -1    0    0    0    0 +0.0000000000e+00 +0.0000000000e+00 +4.9999998884e+02 5.0000000000e+02 1.0566000000e-01 0.0000e+00 -1.0000e+00
      994 -1    0    0    0    0 -0.0000000000e+00 -0.0000000000e+00 +0.0000000000e+00 1.3100000000e+02 1.3100000000e+02 0.0000e+00 0.0000e+00
       13  1    1    2    0    0 +4.9841946333e+01 +4.8211626443e+01 +1.1501495482e+02 1.3430201613e+02 1.0566000000e-01 0.0000e+00 1.0000e+00
      994  1    1    2    0    0 -6.0346847223e+01 -4.0487295313e+01 +4.5768100590e+01 1.5664189121e+02 1.3100000000e+02 0.0000e+00 0.0000e+00
      997  1    1    2    0    0 +1.0504900890e+01 -7.7243311307e+00 +3.3921693342e+02 3.4005609266e+02 2.0000000000e+01 0.0000e+00 0.0000e+00
</event>
<event>
 5      1 +2.3375200e-06 2.01934800e+02 7.95774700e-02 5.00394100e-01
       13 -1    0    0    0    0 +0.0000000000e+00 +0.0000000000e+00 +4.9999998884e+02 5.0000000000e+02 1.0566000000e-01 0.0000e+00 1.0000e+00
      994 -1    0    0    0    0 -0.0000000000e+00 -0.0000000000e+00 +0.0000000000e+00 1.3100000000e+02 1.3100000000e+02 0.0000e+00 0.0000e+00
       13  1    1    2    0    0 -5.6405655850e+01 -8.7222993888e+00 +1.6579229639e+02 1.7534187528e+02 1.0566000000e-01 0.0000e+00 -1.0000e+00
      994  1    1    2    0    0 +3.1253462518e+01 +9.5601829546e+00 +1.6147511937e+01 1.3597763845e+02 1.3100000000e+02 0.0000e+00 0.0000e+00
      997  1    1    2    0    0 +2.5152193332e+01 -8.3788356578e-01 +3.1806018050e+02 3.1968048627e+02 2.0000000000e+01 0.0000e+00 0.0000e+00
</event>
<event>
 5      1 +2.3375200e-06 2.12022000e+02 7.95774700e-02 4.83175800e-01
       13 -1    0    0    0    0 +0.0000000000e+00 +0.0000000000e+00 +4.9999998884e+02 5.0000000000e+02 1.0566000000e-01 0.0000e+00 -1.0000e+00
      994 -1    0    0    0    0 -0.0000000000e+00 -0.0000000000e+00 +0.0000000000e+00 1.3100000000e+02 1.3100000000e+02 0.0000e+00 0.0000e+00
       13  1    1    2    0    0 +6.3537195998e+00 +2.2076344911e+01 +1.0310560148e+02 1.0563385337e+02 1.0566000000e-01 0.0000e+00 1.0000e+00
      994  1    1    2    0    0 -6.1272177170e+00 -3.1235016145e+01 +7.1496404325e+00 1.3500106070e+02 1.3100000000e+02 0.0000e+00 0.0000e+00
      997  1    1    2    0    0 -2.2650188279e-01 +9.1586712335e+00 +3.8974474692e+02 3.9036508593e+02 2.0000000000e+01 0.0000e+00 0.0000e+00
</event>
<event>
 5      1 +2.3375200e-06 2.10680500e+02 7.95774700e-02 4.85345000e-01
       13 -1    0    0    0    0 +0.0000000000e+00 +0.0000000000e+00 +4.9999998884e+02 5.0000000000e+02 1.0566000000e-01 0.0000e+00 -1.0000e+00
      994 -1    0    0    0    0 -0.0000000000e+00 -0.0000000000e+00 +0.0000000000e+00 1.3100000000e+02 1.3100000000e+02 0.0000e+00 0.0000e+00
       13  1    1    2    0    0 -9.8837530903e+00 -7.2228896987e+00 +2.4855199999e+01 2.7706512624e+01 1.0566000000e-01 0.0000e+00 1.0000e+00
      994  1    1    2    0    0 +5.4220228573e+00 +1.1911007572e+01 +4.0339183860e+00 1.3171386765e+02 1.3100000000e+02 0.0000e+00 0.0000e+00
      997  1    1    2    0    0 +4.4617302329e+00 -4.6881178737e+00 +4.7111087045e+02 4.7157961973e+02 2.0000000000e+01 0.0000e+00 0.0000e+00
</event>
<event>
 5      1 +2.3375200e-06 2.04422300e+02 7.95774700e-02 4.95945700e-01
       13 -1    0    0    0    0 +0.0000000000e+00 +0.0000000000e+00 +4.9999998884e+02 5.0000000000e+02 1.0566000000e-01 0.0000e+00 -1.0000e+00
      994 -1    0    0    0    0 -0.0000000000e+00 -0.0000000000e+00 +0.0000000000e+00 1.3100000000e+02 1.3100000000e+02 0.0000e+00 0.0000e+00
       13  1    1    2    0    0 -4.1629066253e+00 -2.1253512248e+01 +2.5321173429e+01 3.3319882387e+01 1.0566000000e-01 0.0000e+00 1.0000e+00
      994  1    1    2    0    0 -1.2934977355e+01 +2.2346817337e+01 +1.1786858714e+01 1.3403963564e+02 1.3100000000e+02 0.0000e+00 0.0000e+00
      997  1    1    2    0    0 +1.7097883980e+01 -1.0933050891e+00 +4.6289195669e+02 4.6364048197e+02 2.0000000000e+01 0.0000e+00 0.0000e+00
</event>
<event>
 5      1 +2.3375200e-06 2.12395800e+02 7.95774700e-02 4.82577600e-01
       13 -1    0    0    0    0 +0.0000000000e+00 +0.0000000000e+00 +4.9999998884e+02 5.0000000000e+02 1.0566000000e-01 0.0000e+00 1.0000e+00
      994 -1    0    0    0    0 -0.0000000000e+00 -0.0000000000e+00 +0.0000000000e+00 1.3100000000e+02 1.3100000000e+02 0.0000e+00 0.0000e+00
       13  1    1    2    0    0 +1.5272474267e+01 -6.2934420112e-01 +9.0427063575e+01 9.1709920593e+01 1.0566000000e-01 0.0000e+00 -1.0000e+00
      994  1    1    2    0    0 -1.1655269005e+01 -2.4244220833e+01 +5.3996256973e+00 1.3384238304e+02 1.3100000000e+02 0.0000e+00 0.0000e+00
      997  1    1    2    0    0 -3.6172052613e+00 +2.4873565034e+01 +4.0417329956e+02 4.0544769637e+02 2.0000000000e+01 0.0000e+00 0.0000e+00
</event>
<event>
 5      1 +2.3375200e-06 2.11470100e+02 7.95774700e-02 4.84064100e-01
       13 -1    0    0    0    0 +0.0000000000e+00 +0.0000000000e+00 +4.9999998884e+02 5.0000000000e+02 1.0566000000e-01 0.0000e+00 1.0000e+00
      994 -1    0    0    0    0 -0.0000000000e+00 -0.0000000000e+00 +0.0000000000e+00 1.3100000000e+02 1.3100000000e+02 0.0000e+00 0.0000e+00
       13  1    1    2    0    0 +4.9088568999e+00 +1.0876158562e+01 +4.6755859398e+01 4.8254629345e+01 1.0566000000e-01 0.0000e+00 -1.0000e+00
      994  1    1    2    0    0 -3.9852629913e+01 +2.6791739106e+01 +1.4191296208e+01 1.4024415240e+02 1.3100000000e+02 0.0000e+00 0.0000e+00
      997  1    1    2    0    0 +3.4943773013e+01 -3.7667897669e+01 +4.3905283323e+02 4.4250121825e+02 2.0000000000e+01 0.0000e+00 0.0000e+00
</event>
<event>
 5      1 +2.3375200e-06 2.05203800e+02 7.95774700e-02 4.94576600e-01
       13 -1    0    0    0    0 +0.0000000000e+00 +0.0000000000e+00 +4.9999998884e+02 5.0000000000e+02 1.0566000000e-01 0.0000e+00 1.0000e+00
      994 -1    0    0    0    0 -0.0000000000e+00 -0.0000000000e+00 +0.0000000000e+00 1.3100000000e+02 1.3100000000e+02 0.0000e+00 0.0000e+00
       13  1    1    2    0    0 +3.3394815352e+00 +3.5451454914e+01 +6.5326811319e+01 7.4401352364e+01 1.0566000000e-01 0.0000e+00 -1.0000e+00
      994  1    1    2    0    0 +2.4869574524e+00 -4.5808545806e+01 +1.8791590711e+01 1.4006688298e+02 1.3100000000e+02 0.0000e+00 0.0000e+00
      997  1    1    2    0    0 -5.8264389876e+00 +1.0357090892e+01 +4.1588158681e+02 4.1653176466e+02 2.0000000000e+01 0.0000e+00 0.0000e+00
</event>
<event>
 5      1 +2.3375200e-06 1.92878300e+02 7.95774700e-02 5.17867000e-01
       13 -1    0    0    0    0 +0.0000000000e+00 +0.0000000000e+00 +4.9999998884e+02 5.0000000000e+02 1.0566000000e-01 0.0000e+00 -1.0000e+00
      994 -1    0    0    0    0 -0.0000000000e+00 -0.0000000000e+00 +0.0000000000e+00 1.3100000000e+02 1.3100000000e+02 0.0000e+00 0.0000e+00
       13  1    1    2    0    0 -9.5782087227e+00 -7.3409778204e+01 +5.6317173131e+01 9.3018131415e+01 1.0566000000e-01 0.0000e+00 1.0000e+00
      994  1    1    2    0    0 -1.5495216326e+01 +1.2366446385e+02 +1.4047855939e+02 2.2897210965e+02 1.3100000000e+02 0.0000e+00 0.0000e+00
      997  1    1    2    0    0 +2.5073425049e+01 -5.0254685643e+01 +3.0320425631e+02 3.0900975894e+02 2.0000000000e+01 0.0000e+00 0.0000e+00
</event>
<event>
 5      1 +2.3375200e-06 2.04201200e+02 7.95774700e-02 4.96335400e-01
       13 -1    0    0    0    0 +0.0000000000e+00 +0.0000000000e+00 +4.9999998884e+02 5.0000000000e+02 1.0566000000e-01 0.0000e+00 1.0000e+00
      994 -1    0    0    0    0 -0.0000000000e+00 -0.0000000000e+00 +0.0000000000e+00 1.3100000000e+02 1.3100000000e+02 0.0000e+00 0.0000e+00
       13  1    1    2    0    0 -2.7166443490e+00 -1.9353551217e+01 +2.2900129535e+01 3.0105932937e+01 1.0566000000e-01 0.0000e+00 -1.0000e+00
      994  1    1    2    0    0 -1.6272482294e+01 -1.5044350103e+00 +9.8671381847e+00 1.3238359952e+02 1.3100000000e+02 0.0000e+00 0.0000e+00
      997  1    1    2    0    0 +1.8989126643e+01 +2.0857986228e+01 +4.6723272112e+02 4.6851046755e+02 2.0000000000e+01 0.0000e+00 0.0000e+00
</event>
<event>
 5      1 +2.3375200e-06 2.12608300e+02 7.95774700e-02 4.82238600e-01
       13 -1    0    0    0    0 +0.0000000000e+00 +0.0000000000e+00 +4.9999998884e+02 5.0000000000e+02 1.0566000000e-01 0.0000e+00 -1.0000e+00
      994 -1    0    0    0    0 -0.0000000000e+00 -0.0000000000e+00 +0.0000000000e+00 1.3100000000e+02 1.3100000000e+02 0.0000e+00 0.0000e+00
       13  1    1    2    0    0 -1.4945542701e+01 +3.3814569229e+01 +1.9729371227e+02 2.0072771210e+02 1.0566000000e-01 0.0000e+00 1.0000e+00
      994  1    1    2    0    0 +2.7652280264e+01 -4.6217010146e+01 +1.6247834630e+01 1.4256806361e+02 1.3100000000e+02 0.0000e+00 0.0000e+00
      997  1    1    2    0    0 -1.2706737563e+01 +1.2402440917e+01 +2.8645844193e+02 2.8770422429e+02 2.0000000000e+01 0.0000e+00 0.0000e+00
</event>
<event>
 5      1 +2.3375200e-06 1.96184900e+02 7.95774700e-02 5.11241900e-01
       13 -1    0    0    0    0 +0.0000000000e+00 +0.0000000000e+00 +4.9999998884e+02 5.0000000000e+02 1.0566000000e-01 0.0000e+00 -1.0000e+00
      994 -1    0    0    0    0 -0.0000000000e+00 -0.0000000000e+00 +0.0000000000e+00 1.3100000000e+02 1.3100000000e+02 0.0000e+00 0.0000e+00
       13  1    1    2    0    0 -4.3782615490e+01 -1.3983877122e+01 +4.1407385599e+01 6.1863147226e+01 1.0566000000e-01 0.0000e+00 1.0000e+00
      994  1    1    2    0    0 +2.3234059863e+01 +1.2482967419e+01 +2.6674185230e+01 1.3626502916e+02 1.3100000000e+02 0.0000e+00 0.0000e+00
      997  1    1    2    0    0 +2.0548555627e+01 +1.5009097022e+00 +4.3191841801e+02 4.3287182362e+02 2.0000000000e+01 0.0000e+00 0.0000e+00
</event>
<event>
 5      1 +2.3375200e-06 2.12002500e+02 7.95774700e-02 4.83207200e-01
       13 -1    0    0    0    0 +0.0000000000e+00 +0.0000000000e+00 +4.9999998884e+02 5.0000000000e+02 1.0566000000e-01 0.0000e+00 -1.0000e+00
      994 -1    0    0    0    0 -0.0000000000e+00 -0.0000000000e+00 +0.0000000000e+00 1.3100000000e+02 1.3100000000e+02 0.0000e+00 0.0000e+00
       13  1    1    2    0    0 +9.1155231493e+00 +6.2834032112e+00 +3.0547732551e+01 3.2492292105e+01 1.0566000000e-01 0.0000e+00 1.0000e+00
      994  1    1    2    0    0 -1.0919116876e+01 -1.3873960631e+01 +3.6744723493e+00 1.3223545532e+02 1.3100000000e+02 0.0000e+00 0.0000e+00
      997  1    1    2    0    0 +1.8035937266e+00 +7.5905574196e+00 +4.6577778394e+02 4.6627225257e+02 2.0000000000e+01 0.0000e+00 0.0000e+00
</event>
<event>
 5      1 +2.3375200e-06 1.98432400e+02 7.95774700e-02 5.06904000e-01
       13 -1    0    0    0    0 +0.0000000000e+00 +0.0000000000e+00 +4.9999998884e+02 5.0000000000e+02 1.0566000000e-01 0.0000e+00 -1.0000e+00
      994 -1    0    0    0    0 -0.0000000000e+00 -0.0000000000e+00 +0.0000000000e+00 1.3100000000e+02 1.3100000000e+02 0.0000e+00 0.0000e+00
       13  1    1    2    0    0 +7.0193883283e+00 -2.0626846499e+01 +1.4573439031e+01 2.6213258062e+01 1.0566000000e-01 0.0000e+00 1.0000e+00
      994  1    1    2    0    0 -1.2459232831e+01 -8.6659446086e+00 +1.4698331016e+01 1.3269277303e+02 1.3100000000e+02 0.0000e+00 0.0000e+00
      997  1    1    2    0    0 +5.4398445029e+00 +2.9292791107e+01 +4.7072821879e+02 4.7209396891e+02 2.0000000000e+01 0.0000e+00 0.0000e+00
</event>
<event>
 5      1 +2.3375200e-06 2.09791100e+02 7.95774700e-02 4.86802500e-01
       13 -1    0    0    0    0 +0.0000000000e+00 +0.0000000000e+00 +4.9999998884e+02 5.0000000000e+02 1.0566000000e-01 0.0000e+00 -1.0000e+00
      994 -1    0    0    0    0 -0.0000000000e+00 -0.0000000000e+00 +0.0000000000e+00 1.3100000000e+02 1.3100000000e+02 0.0000e+00 0.0000e+00
       13  1    1    2    0    0 +8.8836782504e+00 +2.2104192043e+01 +9.0971118642e+01 9.4038665644e+01 1.0566000000e-01 0.0000e+00 1.0000e+00
      994  1    1    2    0    0 -1.0500045985e+01 -4.0990924894e+00 +4.5268721726e+00 1.3156194775e+02 1.3100000000e+02 0.0000e+00 0.0000e+00
      997  1    1    2    0    0 +1.6163677342e+00 -1.8005099554e+01 +4.0450199802e+02 4.0539938660e+02 2.0000000000e+01 0.0000e+00 0.0000e+00
</event>
<event>
 5      1 +2.3375200e-06 2.09037100e+02 7.95774700e-02 4.88050600e-01
       13 -1    0    0    0    0 +0.0000000000e+00 +0.0000000000e+00 +4.9999998884e+02 5.0000000000e+02 1.0566000000e-01 0.0000e+00 1.0000e+00
      994 -1    0    0    0    0 -0.0000000000e+00 -0.0000000000e+00 +0.0000000000e+00 1.3100000000e+02 1.3100000000e+02 0.0000e+00 0.0000e+00
       13  1    1    2    0    0 +1.4431091867e+01 +1.7967170342e+01 +9.6808812903e+01 9.9513984154e+01 1.0566000000e-01 0.0000e+00 -1.0000e+00
      994  1    1    2    0    0 -6.7489620012e+00 +1.6076416024e+01 +6.0295822610e+00 1.3229268877e+02 1.3100000000e+02 0.0000e+00 0.0000e+00
      997  1    1    2    0    0 -7.6821298662e+00 -3.4043586366e+01 +3.9716159367e+02 3.9919332707e+02 2.0000000000e+01 0.0000e+00 0.0000e+00
</event>
<event>
 5      1 +2.3375200e-06 1.52493400e+02 7.95774700e-02 6.33479500e-01
       13 -1    0    0    0    0 +0.0000000000e+00 +0.0000000000e+00 +4.9999998884e+02 5.0000000000e+02 1.0566000000e-01 0.0000e+00 -1.0000e+00
      994 -1    0    0    0    0 -0.0000000000e+00 -0.0000000000e+00 +0.0000000000e+00 1.3100000000e+02 1.3100000000e+02 0.0000e+00 0.0000e+00
       13  1    1    2    0    0 -2.8550919739e+01 +8.8764547240e+01 +9.0176388615e+01 1.2971542735e+02 1.0566000000e-01 0.0000e+00 1.0000e+00
      994  1    1    2    0    0 +7.7347071888e+01 -1.4597247052e+01 +1.1093095867e+02 1.8884471595e+02 1.3100000000e+02 0.0000e+00 0.0000e+00
      997  1    1    2    0    0 -4.8796152148e+01 -7.4167300188e+01 +2.9889264155e+02 3.1243985670e+02 2.0000000000e+01 0.0000e+00 0.0000e+00
</event>
<event>
 5      1 +2.3375200e-06 2.11013200e+02 7.95774700e-02 4.84803900e-01
       13 -1    0    0    0    0 +0.0000000000e+00 +0.0000000000e+00 +4.9999998884e+02 5.0000000000e+02 1.0566000000e-01 0.0000e+00 -1.0000e+00
      994 -1    0    0    0    0 -0.0000000000e+00 -0.0000000000e+00 +0.0000000000e+00 1.3100000000e+02 1.3100000000e+02 0.0000e+00 0.0000e+00
       13  1    1    2    0    0 -1.2120371770e+01 +2.0534175875e+00 +3.0755671219e+01 3.3121630572e+01 1.0566000000e-01 0.0000e+00 1.0000e+00
      994  1    1    2    0    0 +5.1624432177e-01 -1.5850778588e+01 +4.1670235144e+00 1.3202226242e+02 1.3100000000e+02 0.0000e+00 0.0000e+00
      997  1    1    2    0    0 +1.1604127448e+01 +1.3797361000e+01 +4.6507729410e+02 4.6585610701e+02 2.0000000000e+01 0.0000e+00 0.0000e+00
</event>
<event>
 5      1 +2.3375200e-06 2.07487300e+02 7.95774700e-02 4.90651900e-01
       13 -1    0    0    0    0 +0.0000000000e+00 +0.0000000000e+00 +4.9999998884e+02 5.0000000000e+02 1.0566000000e-01 0.0000e+00 1.0000e+00
      994 -1    0    0    0    0 -0.0000000000e+00 -0.0000000000e+00 +0.0000000000e+00 1.3100000000e+02 1.3100000000e+02 0.0000e+00 0.0000e+00
       13  1    1    2    0    0 +4.6494262945e+01 +9.7962903373e+00 +1.0691217038e+02 1.1699532952e+02 1.0566000000e-01 0.0000e+00 -1.0000e+00
      994  1    1    2    0    0 -6.9929641647e+01 -2.0523795065e+01 +3.4358463077e+01 1.5379494442e+02 1.3100000000e+02 0.0000e+00 0.0000e+00
      997  1    1    2    0    0 +2.3435378702e+01 +1.0727504727e+01 +3.5872935538e+02 3.6020972606e+02 2.0000000000e+01 0.0000e+00 0.0000e+00
</event>
<event>
 5      1 +2.3375200e-06 2.05172600e+02 7.95774700e-02 4.94631000e-01
       13 -1    0    0    0    0 +0.0000000000e+00 +0.0000000000e+00 +4.9999998884e+02 5.0000000000e+02 1.0566000000e-01 0.0000e+00 1.0000e+00
      994 -1    0    0    0    0 -0.0000000000e+00 -0.0000000000e+00 +0.0000000000e+00 1.3100000000e+02 1.3100000000e+02 0.0000e+00 0.0000e+00
       13  1    1    2    0    0 -7.1223524706e+00 -9.6442751549e+00 +6.4143865347e+00 1.3597627243e+01 1.0566000000e-01 0.0000e+00 -1.0000e+00
      994  1    1    2    0    0 +2.0118882212e+01 -1.4737580100e-01 +9.7650060109e+00 1.3289524628e+02 1.3100000000e+02 0.0000e+00 0.0000e+00
      997  1    1    2    0    0 -1.2996529742e+01 +9.7916509559e+00 +4.8382059629e+02 4.8450712648e+02 2.0000000000e+01 0.0000e+00 0.0000e+00
</event>
<event>
 5      1 +2.3375200e-06 2.12037000e+02 7.95774700e-02 4.83151900e-01
       13 -1    0    0    0    0 +0.0000000000e+00 +0.0000000000e+00 +4.9999998884e+02 5.0000000000e+02 1.0566000000e-01 0.0000e+00 -1.0000e+00
      994 -1    0    0    0    0 -0.0000000000e+00 -0.0000000000e+00 +0.0000000000e+00 1.3100000000e+02 1.3100000000e+02 0.0000e+00 0.0000e+00
       13  1    1    2    0    0 +1.5685795530e+01 +1.5755442958e+00 +6.4003542169e+01 6.5916546446e+01 1.0566000000e-01 0.0000e+00 1.0000e+00
      994  1    1    2    0    0 -1.6817864547e+01 +8.3359156930e-01 +3.5077018315e+00 1.3212433317e+02 1.3100000000e+02 0.0000e+00 0.0000e+00
      997  1    1    2    0    0 +1.1320690172e+00 -2.4091358651e+00 +4.3248874484e+02 4.3295912039e+02 2.0000000000e+01 0.0000e+00 0.0000e+00
</event>
<event>
 5      1 +2.3375200e-06 2.07997700e+02 7.95774700e-02 4.89789800e-01
       13 -1    0    0    0    0 +0.0000000000e+00 +0.0000000000e+00 +4.9999998884e+02 5.0000000000e+02 1.0566000000e-01 0.0000e+00 1.0000e+00
      994 -1    0    0    0    0 -0.0000000000e+00 -0.0000000000e+00 +0.0000000000e+00 1.3100000000e+02 1.3100000000e+02 0.0000e+00 0.0000e+00
       13  1    1    2    0    0 -1.4005962525e+01 -7.4757509620e+00 +1.9415111702e+01 2.5080102973e+01 1.0566000000e-01 0.0000e+00 -1.0000e+00
      994  1    1    2    0    0 +2.3737587616e+01 +2.6582968524e+01 +1.1859546395e+01 1.3627830393e+02 1.3100000000e+02 0.0000e+00 0.0000e+00
      997  1    1    2    0    0 -9.7316250902e+00 -1.9107217562e+01 +4.6872533074e+02 4.6964159310e+02 2.0000000000e+01 0.0000e+00 0.0000e+00
</event>
<event>
 5      1 +2.3375200e-06 2.05710800e+02 7.95774700e-02 4.93695600e-01
       13 -1    0    0    0    0 +0.0000000000e+00 +0.0000000000e+00 +4.9999998884e+02 5.0000000000e+02 1.0566000000e-01 0.0000e+00 -1.0000e+00
      994 -1    0    0    0    0 -0.0000000000e+00 -0.0000000000e+00 +0.0000000000e+00 1.3100000000e+02 1.3100000000e+02 0.0000e+00 0.0000e+00
       13  1    1    2    0    0 -1.1755193413e+01 +3.5170985636e+00 +6.7234005917e+00 1.3991777373e+01 1.0566000000e-01 0.0000e+00 1.0000e+00
      994  1    1    2    0    0 +2.4249828492e+01 -2.4945231359e+01 +1.3540914557e+01 1.3621554653e+02 1.3100000000e+02 0.0000e+00 0.0000e+00
      997  1    1    2    0    0 -1.2494635079e+01 +2.1428132796e+01 +4.7973567369e+02 4.8079267610e+02 2.0000000000e+01 0.0000e+00 0.0000e+00
</event>
<event>
 5      1 +2.3375200e-06 2.05412800e+02 7.95774700e-02 4.94212800e-01
       13 -1    0    0    0    0 +0.0000000000e+00 +0.0000000000e+00 +4.9999998884e+02 5.0000000000e+02 1.0566000000e-01 0.0000e+00 1.0000e+00
      994 -1    0    0    0    0 -0.0000000000e+00 -0.0000000000e+00 +0.0000000000e+00 1.3100000000e+02 1.3100000000e+02 0.0000e+00 0.0000e+00
       13  1    1    2    0    0 +1.1750404357e+01 -8.8634156192e+00 +1.3644736779e+01 2.0070429612e+01 1.0566000000e-01 0.0000e+00 -1.0000e+00
      994  1    1    2    0    0 +4.9880401073e+00 -2.8902812914e+00 +7.6280834252e+00 1.3134847516e+02 1.3100000000e+02 0.0000e+00 0.0000e+00
      997  1    1    2    0    0 -1.6738444465e+01 +1.1753696911e+01 +4.7872716863e+02 4.7958109523e+02 2.0000000000e+01 0.0000e+00 0.0000e+00
</event>
<event>
 5      1 +2.3375200e-06 2.03653000e+02 7.95774700e-02 4.97306400e-01
       13 -1    0    0    0    0 +0.0000000000e+00 +0.0000000000e+00 +4.9999998884e+02 5.0000000000e+02 1.0566000000e-01 0.0000e+00 1.0000e+00
      994 -1    0    0    0    0 -0.0000000000e+00 -0.0000000000e+00 +0.0000000000e+00 1.3100000000e+02 1.3100000000e+02 0.0000e+00 0.0000e+00
       13  1    1    2    0    0 +3.0094685800e+01 -9.1739322556e+00 +4.7290441292e+01 5.6800071725e+01 1.0566000000e-01 0.0000e+00 -1.0000e+00
      994  1    1    2    0    0 -2.9854994384e+01 +2.2533319594e+01 +1.6389778473e+01 1.3721769572e+02 1.3100000000e+02 0.0000e+00 0.0000e+00
      997  1    1    2    0    0 -2.3969141556e-01 -1.3359387338e+01 +4.3631976907e+02 4.3698223255e+02 2.0000000000e+01 0.0000e+00 0.0000e+00
</event>
<event>
 5      1 +2.3375200e-06 2.07614500e+02 7.95774700e-02 4.90436700e-01
       13 -1    0    0    0    0 +0.0000000000e+00 +0.0000000000e+00 +4.9999998884e+02 5.0000000000e+02 1.0566000000e-01 0.0000e+00 1.0000e+00
      994 -1    0    0    0    0 -0.0000000000e+00 -0.0000000000e+00 +0.0000000000e+00 1.3100000000e+02 1.3100000000e+02 0.0000e+00 0.0000e+00
       13  1    1    2    0    0 +2.6683065602e+01 +1.8793314930e+01 +9.1840625228e+01 9.7467360086e+01 1.0566000000e-01 0.0000e+00 -1.0000e+00
      994  1    1    2    0    0 -2.5406039821e+01 -7.9021874470e+00 +9.2743040571e+00 1.3399598554e+02 1.3100000000e+02 0.0000e+00 0.0000e+00
      997  1    1    2    0    0 -1.2770257812e+00 -1.0891127483e+01 +3.9888505955e+02 3.9953665437e+02 2.0000000000e+01 0.0000e+00 0.0000e+00
</event>
<event>
 5      1 +2.3375200e-06 2.08318100e+02 7.95774700e-02 4.89251400e-01
       13 -1    0    0    0    0 +0.0000000000e+00 +0.0000000000e+00 +4.9999998884e+02 5.0000000000e+02 1.0566000000e-01 0.0000e+00 1.0000e+00
      994 -1    0    0    0    0 -0.0000000000e+00 -0.0000000000e+00 +0.0000000000e+00 1.3100000000e+02 1.3100000000e+02 0.0000e+00 0.0000e+00
       13  1    1    2    0    0 +2.9587559853e+01 +2.1111535132e+01 +1.4104617645e+02 1.4565423327e+02 1.0566000000e-01 0.0000e+00 -1.0000e+00
      994  1    1    2    0    0 -2.0112232602e+01 -9.4252020181e+00 +7.5841125621e+00 1.3308589368e+02 1.3100000000e+02 0.0000e+00 0.0000e+00
      997  1    1    2    0    0 -9.4753272506e+00 -1.1686333114e+01 +3.5136969982e+02 3.5225987305e+02 2.0000000000e+01 0.0000e+00 0.0000e+00
</event>
<event>
 5      1 +2.3375200e-06 1.92559200e+02 7.95774700e-02 5.18522500e-01
       13 -1    0    0    0    0 +0.0000000000e+00 +0.0000000000e+00 +4.9999998884e+02 5.0000000000e+02 1.0566000000e-01 0.0000e+00 1.0000e+00
      994 -1    0    0    0    0 -0.0000000000e+00 -0.0000000000e+00 +0.0000000000e+00 1.3100000000e+02 1.3100000000e+02 0.0000e+00 0.0000e+00
       13  1    1    2    0    0 -1.8291850572e+01 +1.9136989304e+01 +9.6880207547e+00 2.8190159048e+01 1.0566000000e-01 0.0000e+00 -1.0000e+00
      994  1    1    2    0    0 +2.8958341214e+01 -1.8728700299e+01 +2.5989234306e+01 1.3793400611e+02 1.3100000000e+02 0.0000e+00 0.0000e+00
      997  1    1    2    0    0 -1.0666490642e+01 -4.0828900503e-01 +4.6432273378e+02 4.6487583485e+02 2.0000000000e+01 0.0000e+00 0.0000e+00
</event>
<event>
 5      1 +2.3375200e-06 2.12378100e+02 7.95774700e-02 4.82605800e-01
       13 -1    0    0    0    0 +0.0000000000e+00 +0.0000000000e+00 +4.9999998884e+02 5.0000000000e+02 1.0566000000e-01 0.0000e+00 1.0000e+00
      994 -1    0    0    0    0 -0.0000000000e+00 -0.0000000000e+00 +0.0000000000e+00 1.3100000000e+02 1.3100000000e+02 0.0000e+00 0.0000e+00
       13  1    1    2    0    0 -3.6308594781e-01 +1.9721771829e+01 +9.4271983126e+01 9.6313540492e+01 1.0566000000e-01 0.0000e+00 -1.0000e+00
      994  1    1    2    0    0 -8.5298574535e+00 -2.8480202539e+01 +6.2112829481e+00 1.3447475763e+02 1.3100000000e+02 0.0000e+00 0.0000e+00
      997  1    1    2    0    0 +8.8929434013e+00 +8.7584307103e+00 +3.9951672276e+02 4.0021170187e+02 2.0000000000e+01 0.0000e+00 0.0000e+00
</event>
<event>
 5      1 +2.3375200e-06 2.12272100e+02 7.95774700e-02 4.82775200e-01
       13 -1    0    0    0    0 +0.0000000000e+00 +0.0000000000e+00 +4.9999998884e+02 5.0000000000e+02 1.0566000000e-01 0.0000e+00 -1.0000e+00
      994 -1    0    0    0    0 -0.0000000000e+00 -0.0000000000e+00 +0.0000000000e+00 1.3100000000e+02 1.3100000000e+02 0.0000e+00 0.0000e+00
       13  1    1    2    0    0 +8.0493910421e+00 +6.3475612913e+00 +3.2866394562e+01 3.4428117666e+01 1.0566000000e-01 0.0000e+00 1.0000e+00
      994  1    1    2    0    0 -1.4373802146e+01 +3.1474118501e+00 +2.9901714719e+00 1.3185770177e+02 1.3100000000e+02 0.0000e+00 0.0000e+00
      997  1    1    2    0    0 +6.3244111037e+00 -9.4949731413e+00 +4.6414342280e+02 4.6471418057e+02 2.0000000000e+01 0.0000e+00 0.0000e+00
</event>
<event>
 5      1 +2.3375200e-06 2.07157700e+02 7.95774700e-02 4.91211700e-01
       13 -1    0    0    0    0 +0.0000000000e+00 +0.0000000000e+00 +4.9999998884e+02 5.0000000000e+02 1.0566000000e-01 0.0000e+00 1.0000e+00
      994 -1    0    0    0    0 -0.0000000000e+00 -0.0000000000e+00 +0.0000000000e+00 1.3100000000e+02 1.3100000000e+02 0.0000e+00 0.0000e+00
       13  1    1    2    0    0 -2.4874151485e+01 -3.7322867146e+01 +1.7365174691e+02 1.7935066265e+02 1.0566000000e-01 0.0000e+00 -1.0000e+00
      994  1    1    2    0    0 +1.1249831884e+01 +2.6960019234e+01 +1.0414997470e+01 1.3462122242e+02 1.3100000000e+02 0.0000e+00 0.0000e+00
      997  1    1    2    0    0 +1.3624319601e+01 +1.0362847912e+01 +3.1593324446e+02 3.1702811493e+02 2.0000000000e+01 0.0000e+00 0.0000e+00
</event>
<event>
 5      1 +2.3375200e-06 2.11327000e+02 7.95774700e-02 4.84295300e-01
       13 -1    0    0    0    0 +0.0000000000e+00 +0.0000000000e+00 +4.9999998884e+02 5.0000000000e+02 1.0566000000e-01 0.0000e+00 1.0000e+00
      994 -1    0    0    0    0 -0.0000000000e+00 -0.0000000000e+00 +0.0000000000e+00 1.3100000000e+02 1.3100000000e+02 0.0000e+00 0.0000e+00
       13  1    1    2    0    0 +1.6769735913e+01 -6.5358369898e+00 +5.9360564213e+01 6.2029258866e+01 1.0566000000e-01 0.0000e+00 -1.0000e+00
      994  1    1    2    0    0 -1.9558837865e+01 +1.0833091872e+01 +5.1519581074e+00 1.3299416036e+02 1.3100000000e+02 0.0000e+00 0.0000e+00
      997  1    1    2    0    0 +2.7891019527e+00 -4.2972548825e+00 +4.3548746652e+02 4.3597658077e+02 2.0000000000e+01 0.0000e+00 0.0000e+00
</event>
<event>
 5      1 +2.3375200e-06 1.92745800e+02 7.95774700e-02 5.18138800e-01
       13 -1    0    0    0    0 +0.0000000000e+00 +0.0000000000e+00 +4.9999998884e+02 5.0000000000e+02 1.0566000000e-01 0.0000e+00 1.0000e+00
      994 -1    0    0    0    0 -0.0000000000e+00 -0.0000000000e+00 +0.0000000000e+00 1.3100000000e+02 1.3100000000e+02 0.0000e+00 0.0000e+00
       13  1    1    2    0    0 -7.7611293788e+00 +1.1562938762e+01 -3.7897580699e+00 1.4432952308e+01 1.0566000000e-01 0.0000e+00 -1.0000e+00
      994  1    1    2    0    0 +1.4415964774e+01 -2.8169253636e+01 +2.5050173390e+01 1.3707603028e+02 1.3100000000e+02 0.0000e+00 0.0000e+00
      997  1    1    2    0    0 -6.6548353954e+00 +1.6606314874e+01 +4.7873957352e+02 4.7949101741e+02 2.0000000000e+01 0.0000e+00 0.0000e+00
</event>
<event>
 5      1 +2.3375200e-06 2.08844800e+02 7.95774700e-02 4.88370600e-01
       13 -1    0    0    0    0 +0.0000000000e+00 +0.0000000000e+00 +4.9999998884e+02 5.0000000000e+02 1.0566000000e-01 0.0000e+00 -1.0000e+00
      994 -1    0    0    0    0 -0.0000000000e+00 -0.0000000000e+00 +0.0000000000e+00 1.3100000000e+02 1.3100000000e+02 0.0000e+00 0.0000e+00
       13  1    1    2    0    0 +2.5447453246e+01 +1.5701620268e+00 +6.6851482520e+01 7.1548376394e+01 1.0566000000e-01 0.0000e+00 1.0000e+00
      994  1    1    2    0    0 -2.4514471030e+01 -3.6497629226e+01 +1.4576387981e+01 1.3894785826e+02 1.3100000000e+02 0.0000e+00 0.0000e+00
      997  1    1    2    0    0 -9.3298221576e-01 +3.4927467199e+01 +4.1857211834e+02 4.2050376534e+02 2.0000000000e+01 0.0000e+00 0.0000e+00
</event>
<event>
 5      1 +2.3375200e-06 2.12238700e+02 7.95774700e-02 4.82828700e-01
       13 -1    0    0    0    0 +0.0000000000e+00 +0.0000000000e+00 +4.9999998884e+02 5.0000000000e+02 1.0566000000e-01 0.0000e+00 -1.0000e+00
      994 -1    0    0    0    0 -0.0000000000e+00 -0.0000000000e+00 +0.0000000000e+00 1.3100000000e+02 1.3100000000e+02 0.0000e+00 0.0000e+00
       13  1    1    2    0    0 -8.1137057239e+00 +6.2941646635e+00 +2.6818214168e+01 2.8717181348e+01 1.0566000000e-01 0.0000e+00 1.0000e+00
      994  1    1    2    0    0 +1.4315637665e+01 -2.0867413981e+01 +5.1134736796e+00 1.3351978902e+02 1.3100000000e+02 0.0000e+00 0.0000e+00
      997  1    1    2    0    0 -6.2019319409e+00 +1.4573249318e+01 +4.6806830099e+02 4.6876302963e+02 2.0000000000e+01 0.0000e+00 0.0000e+00
</event>
<event>
 5      1 +2.3375200e-06 2.08584100e+02 7.95774700e-02 4.88805900e-01
       13 -1    0    0    0    0 +0.0000000000e+00 +0.0000000000e+00 +4.9999998884e+02 5.0000000000e+02 1.0566000000e-01 0.0000e+00 -1.0000e+00
      994 -1    0    0    0    0 -0.0000000000e+00 -0.0000000000e+00 +0.0000000000e+00 1.3100000000e+02 1.3100000000e+02 0.0000e+00 0.0000e+00
       13  1    1    2    0    0 +1.2375161659e+01 +4.3884660940e+01 +1.6252396666e+02 1.6879887143e+02 1.0566000000e-01 0.0000e+00 1.0000e+00
      994  1    1    2    0    0 -8.0393312865e+00 -4.4154273133e+01 +1.5234313772e+01 1.3931013961e+02 1.3100000000e+02 0.0000e+00 0.0000e+00
      997  1    1    2    0    0 -4.3358303728e+00 +2.6961219241e-01 +3.2224170840e+02 3.2289098896e+02 2.0000000000e+01 0.0000e+00 0.0000e+00
</event>
<event>
 5      1 +2.3375200e-06 2.11023500e+02 7.95774700e-02 4.84787100e-01
       13 -1    0    0    0    0 +0.0000000000e+00 +0.0000000000e+00 +4.9999998884e+02 5.0000000000e+02 1.0566000000e-01 0.0000e+00 1.0000e+00
      994 -1    0    0    0    0 -0.0000000000e+00 -0.0000000000e+00 +0.0000000000e+00 1.3100000000e+02 1.3100000000e+02 0.0000e+00 0.0000e+00
       13  1    1    2    0    0 -1.5596331742e+01 +7.2995602206e+00 +8.8756764792e+01 9.0411855437e+01 1.0566000000e-01 0.0000e+00 -1.0000e+00
      994  1    1    2    0    0 -1.3071385206e+01 -1.0410191985e+01 +4.2967483908e+00 1.3213135606e+02 1.3100000000e+02 0.0000e+00 0.0000e+00
      997  1    1    2    0    0 +2.8667716947e+01 +3.1106317640e+00 +4.0694647565e+02 4.0845678850e+02 2.0000000000e+01 0.0000e+00 0.0000e+00
</event>
<event>
 5      1 +2.3375200e-06 2.10593300e+02 7.95774700e-02 4.85487200e-01
       13 -1    0    0    0    0 +0.0000000000e+00 +0.0000000000e+00 +4.9999998884e+02 5.0000000000e+02 1.0566000000e-01 0.0000e+00 1.0000e+00
      994 -1    0    0    0    0 -0.0000000000e+00 -0.0000000000e+00 +0.0000000000e+00 1.3100000000e+02 1.3100000000e+02 0.0000e+00 0.0000e+00
       13  1    1    2    0    0 +1.9555967357e+01 -1.1001185287e+01 +8.8609509264e+01 9.1406335847e+01 1.0566000000e-01 0.0000e+00 -1.0000e+00
      994  1    1    2    0    0 -1.8274054601e+01 -4.2065388693e+00 +5.0047044335e+00 1.3242991772e+02 1.3100000000e+02 0.0000e+00 0.0000e+00
      997  1    1    2    0    0 -1.2819127561e+00 +1.5207724157e+01 +4.0638577514e+02 4.0716374643e+02 2.0000000000e+01 0.0000e+00 0.0000e+00
</event>
<event>
 5      1 +2.3375200e-06 2.10079800e+02 7.95774700e-02 4.86327800e-01
       13 -1    0    0    0    0 +0.0000000000e+00 +0.0000000000e+00 +4.9999998884e+02 5.0000000000e+02 1.0566000000e-01 0.0000e+00 1.0000e+00
      994 -1    0    0    0    0 -0.0000000000e+00 -0.0000000000e+00 +0.0000000000e+00 1.3100000000e+02 1.3100000000e+02 0.0000e+00 0.0000e+00
       13  1    1    2    0    0 +1.9204099768e+01 +5.6479758767e+00 +5.6371970259e+01 5.9820625827e+01 1.0566000000e-01 0.0000e+00 -1.0000e+00
      994  1    1    2    0    0 -1.9181784911e+01 +3.7806259357e+00 +5.5744529701e+00 1.3256812788e+02 1.3100000000e+02 0.0000e+00 0.0000e+00
      997  1    1    2    0    0 -2.2314856932e-02 -9.4286018123e+00 +4.3805356561e+02 4.3861124629e+02 2.0000000000e+01 0.0000e+00 0.0000e+00
</event>
<event>
 5      1 +2.3375200e-06 2.09289400e+02 7.95774700e-02 4.87631700e-01
       13 -1    0    0    0    0 +0.0000000000e+00 +0.0000000000e+00 +4.9999998884e+02 5.0000000000e+02 1.0566000000e-01 0.0000e+00 -1.0000e+00
      994 -1    0    0    0    0 -0.0000000000e+00 -0.0000000000e+00 +0.0000000000e+00 1.3100000000e+02 1.3100000000e+02 0.0000e+00 0.0000e+00
       13  1    1    2    0    0 -3.5812608595e+00 +1.3062636051e+01 +2.2218482731e+01 2.6021722250e+01 1.0566000000e-01 0.0000e+00 1.0000e+00
      994  1    1    2    0    0 +9.2964895697e+00 -4.6506866448e+00 +4.8358714573e+00 1.3150071961e+02 1.3100000000e+02 0.0000e+00 0.0000e+00
      997  1    1    2    0    0 -5.7152287102e+00 -8.4119494066e+00 +4.7294563465e+02 4.7347755814e+02 2.0000000000e+01 0.0000e+00 0.0000e+00
</event>
<event>
 5      1 +2.3375200e-06 2.02275700e+02 7.95774700e-02 4.99776100e-01
       13 -1    0    0    0    0 +0.0000000000e+00 +0.0000000000e+00 +4.9999998884e+02 5.0000000000e+02 1.0566000000e-01 0.0000e+00 -1.0000e+00
      994 -1    0    0    0    0 -0.0000000000e+00 -0.0000000000e+00 +0.0000000000e+00 1.3100000000e+02 1.3100000000e+02 0.0000e+00 0.0000e+00
       13  1    1    2    0    0 +2.1632859961e+01 -5.0944273332e+01 +1.3857314815e+02 1.4921738561e+02 1.0566000000e-01 0.0000e+00 1.0000e+00
      994  1    1    2    0    0 -3.4525751834e-02 +4.4799022666e+01 +2.1002049829e+01 1.4003228100e+02 1.3100000000e+02 0.0000e+00 0.0000e+00
      997  1    1    2    0    0 -2.1598334209e+01 +6.1452506662e+00 +3.4042479086e+02 3.4175033340e+02 2.0000000000e+01 0.0000e+00 0.0000e+00
</event>
<event>
 5      1 +2.3375200e-06 2.07567800e+02 7.95774700e-02 4.90515700e-01
       13 -1    0    0    0    0 +0.0000000000e+00 +0.0000000000e+00 +4.9999998884e+02 5.0000000000e+02 1.0566000000e-01 0.0000e+00 -1.0000e+00
      994 -1    0    0    0    0 -0.0000000000e+00 -0.0000000000e+00 +0.0000000000e+00 1.3100000000e+02 1.3100000000e+02 0.0000e+00 0.0000e+00
       13  1    1    2    0    0 +1.2724753101e+01 -1.0822341267e+01 +2.0406252728e+01 2.6371741057e+01 1.0566000000e-01 0.0000e+00 1.0000e+00
      994  1    1    2    0    0 -1.5926568787e+01 +3.0053754390e+01 +1.1641590608e+01 1.3584333027e+02 1.3100000000e+02 0.0000e+00 0.0000e+00
      997  1    1    2    0    0 +3.2018156864e+00 -1.9231413123e+01 +4.6795214550e+02 4.6878492868e+02 2.0000000000e+01 0.0000e+00 0.0000e+00
</event>
<event>
 5      1 +2.3375200e-06 2.04839000e+02 7.95774700e-02 4.95214000e-01
       13 -1    0    0    0    0 +0.0000000000e+00 +0.0000000000e+00 +4.9999998884e+02 5.0000000000e+02 1.0566000000e-01 0.0000e+00 -1.0000e+00
      994 -1    0    0    0    0 -0.0000000000e+00 -0.0000000000e+00 +0.0000000000e+00 1.3100000000e+02 1.3100000000e+02 0.0000e+00 0.0000e+00
       13  1    1    2    0    0 -2.4200251338e-01 +2.9351155552e+01 +5.2623476728e+01 6.0256040066e+01 1.0566000000e-01 0.0000e+00 1.0000e+00
      994  1    1    2    0    0 +6.7088784555e+00 -2.0952028786e+01 +1.0464532606e+01 1.3324602434e+02 1.3100000000e+02 0.0000e+00 0.0000e+00
      997  1    1    2    0    0 -6.4668759421e+00 -8.3991267663e+00 +4.3691197950e+02 4.3749793559e+02 2.0000000000e+01 0.0000e+00 0.0000e+00
</event>
<event>
 5      1 +2.3375200e-06 2.10272600e+02 7.95774700e-02 4.86011600e-01
       13 -1    0    0    0    0 +0.0000000000e+00 +0.0000000000e+00 +4.9999998884e+02 5.0000000000e+02 1.0566000000e-01 0.0000e+00 1.0000e+00
      994 -1    0    0    0    0 -0.0000000000e+00 -0.0000000000e+00 +0.0000000000e+00 1.3100000000e+02 1.3100000000e+02 0.0000e+00 0.0000e+00
       13  1    1    2    0    0 +9.7720959773e+00 +1.5973221554e+01 +5.4795974073e+01 5.7907232754e+01 1.0566000000e-01 0.0000e+00 -1.0000e+00
      994  1    1    2    0    0 -5.8303356828e+00 -1.0714760826e+01 +4.2487901570e+00 1.3163529592e+02 1.3100000000e+02 0.0000e+00 0.0000e+00
      997  1    1    2    0    0 -3.9417602945e+00 -5.2584607277e+00 +4.4095522461e+02 4.4145747133e+02 2.0000000000e+01 0.0000e+00 0.0000e+00
</event>
<event>
 5      1 +2.3375200e-06 2.06210500e+02 7.95774700e-02 4.92832600e-01
       13 -1    0    0    0    0 +0.0000000000e+00 +0.0000000000e+00 +4.9999998884e+02 5.0000000000e+02 1.0566000000e-01 0.0000e+00 -1.0000e+00
      994 -1    0    0    0    0 -0.0000000000e+00 -0.0000000000e+00 +0.0000000000e+00 1.3100000000e+02 1.3100000000e+02 0.0000e+00 0.0000e+00
       13  1    1    2    0    0 +2.6894992150e+01 +2.4836248319e+01 +1.7767309780e+02 1.8140540422e+02 1.0566000000e-01 0.0000e+00 1.0000e+00
      994  1    1    2    0    0 +4.7346514663e+00 -3.5477973086e+00 +6.9767279313e+00 1.3131899529e+02 1.3100000000e+02 0.0000e+00 0.0000e+00
      997  1    1    2    0    0 -3.1629643616e+01 -2.1288451010e+01 +3.1535016310e+02 3.1827560050e+02 2.0000000000e+01 0.0000e+00 0.0000e+00
</event>
<event>
 5      1 +2.3375200e-06 2.08390200e+02 7.95774700e-02 4.89130500e-01
       13 -1    0    0    0    0 +0.0000000000e+00 +0.0000000000e+00 +4.9999998884e+02 5.0000000000e+02 1.0566000000e-01 0.0000e+00 -1.0000e+00
      994 -1    0    0    0    0 -0.0000000000e+00 -0.0000000000e+00 +0.0000000000e+00 1.3100000000e+02 1.3100000000e+02 0.0000e+00 0.0000e+00
       13  1    1    2    0    0 +4.2555252259e+00 -1.0411619348e+01 +1.1595467329e+01 1.6154793066e+01 1.0566000000e-01 0.0000e+00 1.0000e+00
      994  1    1    2    0    0 +3.7967897270e+00 +9.9547935673e+00 +5.5921339881e+00 1.3155145567e+02 1.3100000000e+02 0.0000e+00 0.0000e+00
      997  1    1    2    0    0 -8.0523149529e+00 +4.5682578086e-01 +4.8281238752e+02 4.8329375126e+02 2.0000000000e+01 0.0000e+00 0.0000e+00
</event>
<event>
 5      1 +2.3375200e-06 2.11912400e+02 7.95774700e-02 4.83351700e-01
       13 -1    0    0    0    0 +0.0000000000e+00 +0.0000000000e+00 +4.9999998884e+02 5.0000000000e+02 1.0566000000e-01 0.0000e+00 1.0000e+00
      994 -1    0    0    0    0 -0.0000000000e+00 -0.0000000000e+00 +0.0000000000e+00 1.3100000000e+02 1.3100000000e+02 0.0000e+00 0.0000e+00
       13  1    1    2    0    0 -1.4866019455e+01 -1.8752516292e+00 +6.7094887893e+01 6.8747729042e+01 1.0566000000e-01 0.0000e+00 -1.0000e+00
      994  1    1    2    0    0 +6.3046846978e+00 -4.7450102927e+00 +2.5146979332e+00 1.3126152474e+02 1.3100000000e+02 0.0000e+00 0.0000e+00
      997  1    1    2    0    0 +8.5613347567e+00 +6.6202619219e+00 +4.3039040301e+02 4.3099074622e+02 2.0000000000e+01 0.0000e+00 0.0000e+00
</event>
<event>
 5      1 +2.3375200e-06 2.12399300e+02 7.95774700e-02 4.82572000e-01
       13 -1    0    0    0    0 +0.0000000000e+00 +0.0000000000e+00 +4.9999998884e+02 5.0000000000e+02 1.0566000000e-01 0.0000e+00 1.0000e+00
      994 -1    0    0    0    0 -0.0000000000e+00 -0.0000000000e+00 +0.0000000000e+00 1.3100000000e+02 1.3100000000e+02 0.0000e+00 0.0000e+00
       13  1    1    2    0    0 +7.4658644713e+00 -2.1547565575e+01 +9.8344603008e+01 1.0095399358e+02 1.0566000000e-01 0.0000e+00 -1.0000e+00
      994  1    1    2    0    0 -1.6061847756e+01 +3.7644106868e+01 +1.0164857153e+01 1.3762044200e+02 1.3100000000e+02 0.0000e+00 0.0000e+00
      997  1    1    2    0    0 +8.5959832848e+00 -1.6096541293e+01 +3.9149052867e+02 3.9242556442e+02 2.0000000000e+01 0.0000e+00 0.0000e+00
</event>
<event>
 5      1 +2.3375200e-06 2.11125400e+02 7.95774700e-02 4.84621800e-01
       13 -1    0    0    0    0 +0.0000000000e+00 +0.0000000000e+00 +4.9999998884e+02 5.0000000000e+02 1.0566000000e-01 0.0000e+00 -1.0000e+00
      994 -1    0    0    0    0 -0.0000000000e+00 -0.0000000000e+00 +0.0000000000e+00 1.3100000000e+02 1.3100000000e+02 0.0000e+00 0.0000e+00
       13  1    1    2    0    0 -7.0434042952e+00 -1.5116195439e+01 +4.8028778368e+01 5.0841750798e+01 1.0566000000e-01 0.0000e+00 1.0000e+00
      994  1    1    2    0    0 +1.5087885329e+01 +1.7158364063e+01 +5.4259630693e+00 1.3308829707e+02 1.3100000000e+02 0.0000e+00 0.0000e+00
      997  1    1    2    0    0 -8.0444810339e+00 -2.0421686236e+00 +4.4654524740e+02 4.4706995214e+02 2.0000000000e+01 0.0000e+00 0.0000e+00
</event>
<event>
 5      1 +2.3375200e-06 2.07591000e+02 7.95774700e-02 4.90476400e-01
       13 -1    0    0    0    0 +0.0000000000e+00 +0.0000000000e+00 +4.9999998884e+02 5.0000000000e+02 1.0566000000e-01 0.0000e+00 1.0000e+00
      994 -1    0    0    0    0 -0.0000000000e+00 -0.0000000000e+00 +0.0000000000e+00 1.3100000000e+02 1.3100000000e+02 0.0000e+00 0.0000e+00
       13  1    1    2    0    0 +1.3038571152e+01 +7.6085306420e+00 +1.9164583269e+01 2.4396444252e+01 1.0566000000e-01 0.0000e+00 -1.0000e+00
      994  1    1    2    0    0 -1.4154521954e+01 +2.4879094472e+00 +6.7193595483e+00 1.3195715205e+02 1.3100000000e+02 0.0000e+00 0.0000e+00
      997  1    1    2    0    0 +1.1159508024e+00 -1.0096440089e+01 +4.7411604602e+02 4.7464640370e+02 2.0000000000e+01 0.0000e+00 0.0000e+00
</event>
<event>
 5      1 +2.3375200e-06 2.11267600e+02 7.95774700e-02 4.84391500e-01
       13 -1    0    0    0    0 +0.0000000000e+00 +0.0000000000e+00 +4.9999998884e+02 5.0000000000e+02 1.0566000000e-01 0.0000e+00 1.0000e+00
      994 -1    0    0    0    0 -0.0000000000e+00 -0.0000000000e+00 +0.0000000000e+00 1.3100000000e+02 1.3100000000e+02 0.0000e+00 0.0000e+00
       13  1    1    2    0    0 -1.3306938618e+01 -6.8087703886e+00 +5.4626237286e+01 5.6634538346e+01 1.0566000000e-01 0.0000e+00 -1.0000e+00
      994  1    1    2    0    0 +4.7775451177e+00 -7.2733044760e+00 +3.0913703434e+00 1.3132510219e+02 1.3100000000e+02 0.0000e+00 0.0000e+00
      997  1    1    2    0    0 +8.5293934999e+00 +1.4082074865e+01 +4.4228238121e+02 4.4304035946e+02 2.0000000000e+01 0.0000e+00 0.0000e+00
</event>
<event>
 5      1 +2.3375200e-06 1.98181000e+02 7.95774700e-02 5.07382700e-01
       13 -1    0    0    0    0 +0.0000000000e+00 +0.0000000000e+00 +4.9999998884e+02 5.0000000000e+02 1.0566000000e-01 0.0000e+00 1.0000e+00
      994 -1    0    0    0    0 -0.0000000000e+00 -0.0000000000e+00 +0.0000000000e+00 1.3100000000e+02 1.3100000000e+02 0.0000e+00 0.0000e+00
       13  1    1    2    0    0 +2.7386202428e+01 -5.0549062772e+00 +2.2077246068e+01 3.5538319022e+01 1.0566000000e-01 0.0000e+00 -1.0000e+00
      994  1    1    2    0    0 -3.0046837797e+01 -5.0259186179e+00 +1.8820845637e+01 1.3580609909e+02 1.3100000000e+02 0.0000e+00 0.0000e+00
      997  1    1    2    0    0 +2.6606353687e+00 +1.0080824895e+01 +4.5910189713e+02 4.5965558189e+02 2.0000000000e+01 0.0000e+00 0.0000e+00
</event>
<event>
 5      1 +2.3375200e-06 2.00614200e+02 7.95774700e-02 5.02814100e-01
       13 -1    0    0    0    0 +0.0000000000e+00 +0.0000000000e+00 +4.9999998884e+02 5.0000000000e+02 1.0566000000e-01 0.0000e+00 1.0000e+00
      994 -1    0    0    0    0 -0.0000000000e+00 -0.0000000000e+00 +0.0000000000e+00 1.3100000000e+02 1.3100000000e+02 0.0000e+00 0.0000e+00
       13  1    1    2    0    0 +1.9030953330e+01 +6.0895688652e+00 +1.3315809110e+01 2.4012121312e+01 1.0566000000e-01 0.0000e+00 -1.0000e+00
      994  1    1    2    0    0 -1.5058199328e+01 +7.7590628763e+00 +1.3073361241e+01 1.3273607346e+02 1.3100000000e+02 0.0000e+00 0.0000e+00
      997  1    1    2    0    0 -3.9727540019e+00 -1.3848631741e+01 +4.7361081848e+02 4.7425180523e+02 2.0000000000e+01 0.0000e+00 0.0000e+00
</event>
<event>
 5      1 +2.3375200e-06 2.09984300e+02 7.95774700e-02 4.86484600e-01
       13 -1    0    0    0    0 +0.0000000000e+00 +0.0000000000e+00 +4.9999998884e+02 5.0000000000e+02 1.0566000000e-01 0.0000e+00 1.0000e+00
      994 -1    0    0    0    0 -0.0000000000e+00 -0.0000000000e+00 +0.0000000000e+00 1.3100000000e+02 1.3100000000e+02 0.0000e+00 0.0000e+00
       13  1    1    2    0    0 -3.1674659352e+01 +6.8592259714e+00 +1.5270670344e+02 1.5610791609e+02 1.0566000000e-01 0.0000e+00 -1.0000e+00
      994  1    1    2    0    0 +2.4287945141e+01 +6.9823451370e+00 +6.9451381775e+00 1.3359600431e+02 1.3100000000e+02 0.0000e+00 0.0000e+00
      997  1    1    2    0    0 +7.3867142105e+00 -1.3841571108e+01 +3.4034814722e+02 3.4129607960e+02 2.0000000000e+01 0.0000e+00 0.0000e+00
</event>
<event>
 5      1 +2.3375200e-06 2.10734300e+02 7.95774700e-02 4.85257400e-01
       13 -1    0    0    0    0 +0.0000000000e+00 +0.0000000000e+00 +4.9999998884e+02 5.0000000000e+02 1.0566000000e-01 0.0000e+00 -1.0000e+00
      994 -1    0    0    0    0 -0.0000000000e+00 -0.0000000000e+00 +0.0000000000e+00 1.3100000000e+02 1.3100000000e+02 0.0000e+00 0.0000e+00
       13  1    1    2    0    0 +1.7422966287e+01 +6.7741947693e+00 +1.0732881159e+02 1.0894463929e+02 1.0566000000e-01 0.0000e+00 1.0000e+00
      994  1    1    2    0    0 +8.2906772097e+00 +7.1128134443e+00 +3.7322510185e+00 1.3150763149e+02 1.3100000000e+02 0.0000e+00 0.0000e+00
      997  1    1    2    0    0 -2.5713643496e+01 -1.3887008214e+01 +3.8893892623e+02 3.9054772922e+02 2.0000000000e+01 0.0000e+00 0.0000e+00
</event>
<event>
 5      1 +2.3375200e-06 2.04463500e+02 7.95774700e-02 4.95873000e-01
       13 -1    0    0    0    0 +0.0000000000e+00 +0.0000000000e+00 +4.9999998884e+02 5.0000000000e+02 1.0566000000e-01 0.0000e+00 1.0000e+00
      994 -1    0    0    0    0 -0.0000000000e+00 -0.0000000000e+00 +0.0000000000e+00 1.3100000000e+02 1.3100000000e+02 0.0000e+00 0.0000e+00
       13  1    1    2    0    0 +1.8839542460e+00 -1.7882282640e+01 +2.0155125094e+01 2.7010471073e+01 1.0566000000e-01 0.0000e+00 -1.0000e+00
      994  1    1    2    0    0 +5.3403726500e-01 -9.6335889877e+00 +8.7328026355e+00 1.3164479889e+02 1.3100000000e+02 0.0000e+00 0.0000e+00
      997  1    1    2    0    0 -2.4179915110e+00 +2.7515871628e+01 +4.7111206111e+02 4.7234473004e+02 2.0000000000e+01 0.0000e+00 0.0000e+00
</event>
<event>
 5      1 +2.3375200e-06 2.09844600e+02 7.95774700e-02 4.86714500e-01
       13 -1    0    0    0    0 +0.0000000000e+00 +0.0000000000e+00 +4.9999998884e+02 5.0000000000e+02 1.0566000000e-01 0.0000e+00 -1.0000e+00
      994 -1    0    0    0    0 -0.0000000000e+00 -0.0000000000e+00 +0.0000000000e+00 1.3100000000e+02 1.3100000000e+02 0.0000e+00 0.0000e+00
       13  1    1    2    0    0 -3.7813953565e+00 -1.1385648012e+01 +3.3901268844e+01 3.5961634067e+01 1.0566000000e-01 0.0000e+00 1.0000e+00
      994  1    1    2    0    0 +2.7690098317e+01 -4.8167132417e+01 +1.9752482929e+01 1.4365923142e+02 1.3100000000e+02 0.0000e+00 0.0000e+00
      997  1    1    2    0    0 -2.3908702961e+01 +5.9552780429e+01 +4.4634623706e+02 4.5137913451e+02 2.0000000000e+01 0.0000e+00 0.0000e+00
</event>
<event>
 5      1 +2.3375200e-06 1.94892000e+02 7.95774700e-02 5.13796900e-01
       13 -1    0    0    0    0 +0.0000000000e+00 +0.0000000000e+00 +4.9999998884e+02 5.0000000000e+02 1.0566000000e-01 0.0000e+00 -1.0000e+00
      994 -1    0    0    0    0 -0.0000000000e+00 -0.0000000000e+00 +0.0000000000e+00 1.3100000000e+02 1.3100000000e+02 0.0000e+00 0.0000e+00
       13  1    1    2    0    0 +3.9542854510e+01 +3.9467237840e+01 +6.8561440031e+01 8.8441972098e+01 1.0566000000e-01 0.0000e+00 1.0000e+00
      994  1    1    2    0    0 -4.1773816714e+01 -6.4959054286e+00 +3.2087310500e+01 1.4134300140e+02 1.3100000000e+02 0.0000e+00 0.0000e+00
      997  1    1    2    0    0 +2.2309622049e+00 -3.2971332411e+01 +3.9935123831e+02 4.0121502650e+02 2.0000000000e+01 0.0000e+00 0.0000e+00
</event>
<event>
 5      1 +2.3375200e-06 2.11337500e+02 7.95774700e-02 4.84278300e-01
       13 -1    0    0    0    0 +0.0000000000e+00 +0.0000000000e+00 +4.9999998884e+02 5.0000000000e+02 1.0566000000e-01 0.0000e+00 -1.0000e+00
      994 -1    0    0    0    0 -0.0000000000e+00 -0.0000000000e+00 +0.0000000000e+00 1.3100000000e+02 1.3100000000e+02 0.0000e+00 0.0000e+00
       13  1    1    2    0    0 +3.6154025372e+00 -1.1467181274e+01 +3.8183044126e+01 4.0031530131e+01 1.0566000000e-01 0.0000e+00 1.0000e+00
      994  1    1    2    0    0 +6.9671536375e+00 -5.3374746402e+00 +3.0423519638e+00 1.3132892207e+02 1.3100000000e+02 0.0000e+00 0.0000e+00
      997  1    1    2    0    0 -1.0582556175e+01 +1.6804655915e+01 +4.5877459275e+02 4.5963954780e+02 2.0000000000e+01 0.0000e+00 0.0000e+00
</event>
<event>
 5      1 +2.3375200e-06 2.06430200e+02 7.95774700e-02 4.92454900e-01
       13 -1    0    0    0    0 +0.0000000000e+00 +0.0000000000e+00 +4.9999998884e+02 5.0000000000e+02 1.0566000000e-01 0.0000e+00 1.0000e+00
      994 -1    0    0    0    0 -0.0000000000e+00 -0.0000000000e+00 +0.0000000000e+00 1.3100000000e+02 1.3100000000e+02 0.0000e+00 0.0000e+00
       13  1    1    2    0    0 +3.4973469032e+01 -2.1861941409e+01 +8.9579509471e+01 9.8618394325e+01 1.0566000000e-01 0.0000e+00 -1.0000e+00
      994  1    1    2    0    0 -6.3889015619e+01 +5.0582831870e+00 +2.8646076891e+01 1.4862365312e+02 1.3100000000e+02 0.0000e+00 0.0000e+00
      997  1    1    2    0    0 +2.8915546587e+01 +1.6803658222e+01 +3.8177440247e+02 3.8375795255e+02 2.0000000000e+01 0.0000e+00 0.0000e+00
</event>
<event>
 5      1 +2.3375200e-06 2.13067000e+02 7.95774700e-02 4.81509900e-01
       13 -1    0    0    0    0 +0.0000000000e+00 +0.0000000000e+00 +4.9999998884e+02 5.0000000000e+02 1.0566000000e-01 0.0000e+00 1.0000e+00
      994 -1    0    0    0    0 -0.0000000000e+00 -0.0000000000e+00 +0.0000000000e+00 1.3100000000e+02 1.3100000000e+02 0.0000e+00 0.0000e+00
       13  1    1    2    0    0 +6.7064856816e+00 -1.3245023059e+01 +6.9781087613e+01 7.1342966987e+01 1.0566000000e-01 0.0000e+00 -1.0000e+00
      994  1    1    2    0    0 -1.9874280063e+01 +2.7625538688e+01 +7.0124459733e+00 1.3552981884e+02 1.3100000000e+02 0.0000e+00 0.0000e+00
      997  1    1    2    0    0 +1.3167794381e+01 -1.4380515629e+01 +4.2320645525e+02 4.2412721417e+02 2.0000000000e+01 0.0000e+00 0.0000e+00
</event>
<event>
 5      1 +2.3375200e-06 2.07822300e+02 7.95774700e-02 4.90085500e-01
       13 -1    0    0    0    0 +0.0000000000e+00 +0.0000000000e+00 +4.9999998884e+02 5.0000000000e+02 1.0566000000e-01 0.0000e+00 -1.0000e+00
      994 -1    0    0    0    0 -0.0000000000e+00 -0.0000000000e+00 +0.0000000000e+00 1.3100000000e+02 1.3100000000e+02 0.0000e+00 0.0000e+00
       13  1    1    2    0    0 -8.3321335200e+00 +1.6329709006e+01 +2.9073530917e+01 3.4370993718e+01 1.0566000000e-01 0.0000e+00 1.0000e+00
      994  1    1    2    0    0 +4.2807830139e-01 -2.0685883968e+01 +7.6617803701e+00 1.3284499210e+02 1.3100000000e+02 0.0000e+00 0.0000e+00
      997  1    1    2    0    0 +7.9040552186e+00 +4.3561749625e+00 +4.6326467755e+02 4.6378401419e+02 2.0000000000e+01 0.0000e+00 0.0000e+00
</event>
<event>
 5      1 +2.3375200e-06 2.00128300e+02 7.95774700e-02 5.03714800e-01
       13 -1    0    0    0    0 +0.0000000000e+00 +0.0000000000e+00 +4.9999998884e+02 5.0000000000e+02 1.0566000000e-01 0.0000e+00 -1.0000e+00
      994 -1    0    0    0    0 -0.0000000000e+00 -0.0000000000e+00 +0.0000000000e+00 1.3100000000e+02 1.3100000000e+02 0.0000e+00 0.0000e+00
       13  1    1    2    0    0 +3.7601123458e+01 -3.3257754122e+01 +1.0165089828e+02 1.1337036199e+02 1.0566000000e-01 0.0000e+00 1.0000e+00
      994  1    1    2    0    0 -4.6639274710e+01 -8.1477501996e-01 +2.4024345153e+01 1.4111716750e+02 1.3100000000e+02 0.0000e+00 0.0000e+00
      997  1    1    2    0    0 +9.0381512519e+00 +3.4072529142e+01 +3.7432474541e+02 3.7651247050e+02 2.0000000000e+01 0.0000e+00 0.0000e+00
</event>
<event>
 5      1 +2.3375200e-06 2.09368600e+02 7.95774700e-02 4.87500400e-01
       13 -1    0    0    0    0 +0.0000000000e+00 +0.0000000000e+00 +4.9999998884e+02 5.0000000000e+02 1.0566000000e-01 0.0000e+00 1.0000e+00
      994 -1    0    0    0    0 -0.0000000000e+00 -0.0000000000e+00 +0.0000000000e+00 1.3100000000e+02 1.3100000000e+02 0.0000e+00 0.0000e+00
       13  1    1    2    0    0 +1.0928436066e+01 -3.7436561978e+01 +1.3745044003e+02 1.4287603549e+02 1.0566000000e-01 0.0000e+00 -1.0000e+00
      994  1    1    2    0    0 -2.1381004817e+01 +3.7717260087e+01 +1.3835154573e+01 1.3868002948e+02 1.3100000000e+02 0.0000e+00 0.0000e+00
      997  1    1    2    0    0 +1.0452568751e+01 -2.8069810951e-01 +3.4871439423e+02 3.4944393503e+02 2.0000000000e+01 0.0000e+00 0.0000e+00
</event>
<event>
 5      1 +2.3375200e-06 2.05701700e+02 7.95774700e-02 4.93711400e-01
       13 -1    0    0    0    0 +0.0000000000e+00 +0.0000000000e+00 +4.9999998884e+02 5.0000000000e+02 1.0566000000e-01 0.0000e+00 1.0000e+00
      994 -1    0    0    0    0 -0.0000000000e+00 -0.0000000000e+00 +0.0000000000e+00 1.3100000000e+02 1.3100000000e+02 0.0000e+00 0.0000e+00
       13  1    1    2    0    0 +3.4314563869e+01 +1.0325459085e+01 +6.5439883004e+01 7.4608939481e+01 1.0566000000e-01 0.0000e+00 -1.0000e+00
      994  1    1    2    0    0 -4.6745790312e+01 -2.3992365101e+01 +2.1899767671e+01 1.4283347759e+02 1.3100000000e+02 0.0000e+00 0.0000e+00
      997  1    1    2    0    0 +1.2431226442e+01 +1.3666906016e+01 +4.1266033816e+02 4.1355758293e+02 2.0000000000e+01 0.0000e+00 0.0000e+00
</event>
<event>
 5      1 +2.3375200e-06 2.01857800e+02 7.95774700e-02 5.00534200e-01
       13 -1    0    0    0    0 +0.0000000000e+00 +0.0000000000e+00 +4.9999998884e+02 5.0000000000e+02 1.0566000000e-01 0.0000e+00 -1.0000e+00
      994 -1    0    0    0    0 -0.0000000000e+00 -0.0000000000e+00 +0.0000000000e+00 1.3100000000e+02 1.3100000000e+02 0.0000e+00 0.0000e+00
       13  1    1    2    0    0 -1.0376143458e+01 -1.2620418440e+01 +8.1995428766e+00 1.8280672364e+01 1.0566000000e-01 0.0000e+00 1.0000e+00
      994  1    1    2    0    0 +1.6337168208e+01 +1.3578178054e+01 +1.2870411227e+01 1.3333385718e+02 1.3100000000e+02 0.0000e+00 0.0000e+00
      997  1    1    2    0    0 -5.9610247494e+00 -9.5775961415e-01 +4.7893003473e+02 4.7938547046e+02 2.0000000000e+01 0.0000e+00 0.0000e+00
</event>
<event>
 5      1 +2.3375200e-06 2.10840400e+02 7.95774700e-02 4.85084700e-01
       13 -1    0    0    0    0 +0.0000000000e+00 +0.0000000000e+00 +4.9999998884e+02 5.0000000000e+02 1.0566000000e-01 0.0000e+00 1.0000e+00
      994 -1    0    0    0    0 -0.0000000000e+00 -0.0000000000e+00 +0.0000000000e+00 1.3100000000e+02 1.3100000000e+02 0.0000e+00 0.0000e+00
       13  1    1    2    0    0 -2.1821875458e+01 +1.9207088451e+01 +9.3109332016e+01 9.7542120993e+01 1.0566000000e-01 0.0000e+00 -1.0000e+00
      994  1    1    2    0    0 +2.9475853167e+01 -3.8372300898e+01 +1.4931352331e+01 1.4044644773e+02 1.3100000000e+02 0.0000e+00 0.0000e+00
      997  1    1    2    0    0 -7.6539777091e+00 +1.9165212448e+01 +3.9195930449e+02 3.9301143128e+02 2.0000000000e+01 0.0000e+00 0.0000e+00
</event>
<event>
 5      1 +2.3375200e-06 2.09452400e+02 7.95774700e-02 4.87361800e-01
       13 -1    0    0    0    0 +0.0000000000e+00 +0.0000000000e+00 +4.9999998884e+02 5.0000000000e+02 1.0566000000e-01 0.0000e+00 -1.0000e+00
      994 -1    0    0    0    0 -0.0000000000e+00 -0.0000000000e+00 +0.0000000000e+00 1.3100000000e+02 1.3100000000e+02 0.0000e+00 0.0000e+00
       13  1    1    2    0    0 +1.9539760457e+01 +1.1899319867e+01 +5.4771254832e+01 5.9357371673e+01 1.0566000000e-01 0.0000e+00 1.0000e+00
      994  1    1    2    0    0 -2.0839421332e+01 -2.6489541798e+01 +9.9210927254e+00 1.3562966264e+02 1.3100000000e+02 0.0000e+00 0.0000e+00
      997  1    1    2    0    0 +1.2996608755e+00 +1.4590221930e+01 +4.3530764128e+02 4.3601296569e+02 2.0000000000e+01 0.0000e+00 0.0000e+00
</event>
<event>
 5      1 +2.3375200e-06 2.12253600e+02 7.95774700e-02 4.82804900e-01
       13 -1    0    0    0    0 +0.0000000000e+00 +0.0000000000e+00 +4.9999998884e+02 5.0000000000e+02 1.0566000000e-01 0.0000e+00 1.0000e+00
      994 -1    0    0    0    0 -0.0000000000e+00 -0.0000000000e+00 +0.0000000000e+00 1.3100000000e+02 1.3100000000e+02 0.0000e+00 0.0000e+00
       13  1    1    2    0    0 -1.0067070338e+01 +3.2915156334e+00 +5.9323105136e+01 6.0261280665e+01 1.0566000000e-01 0.0000e+00 -1.0000e+00
      994  1    1    2    0    0 -1.5756534738e+01 +1.4651407038e+00 +3.1719486917e+00 1.3199044012e+02 1.3100000000e+02 0.0000e+00 0.0000e+00
      997  1    1    2    0    0 +2.5823605077e+01 -4.7566563372e+00 +4.3750493501e+02 4.3874827922e+02 2.0000000000e+01 0.0000e+00 0.0000e+00
</event>
<event>
 5      1 +2.3375200e-06 2.13490100e+02 7.95774700e-02 4.80841200e-01
       13 -1    0    0    0    0 +0.0000000000e+00 +0.0000000000e+00 +4.9999998884e+02 5.0000000000e+02 1.0566000000e-01 0.0000e+00 1.0000e+00
      994 -1    0    0    0    0 -0.0000000000e+00 -0.0000000000e+00 +0.0000000000e+00 1.3100000000e+02 1.3100000000e+02 0.0000e+00 0.0000e+00
       13  1    1    2    0    0 -1.0866620331e+01 +1.0611123703e+01 +7.6923144883e+01 7.8408295265e+01 1.0566000000e-01 0.0000e+00 -1.0000e+00
      994  1    1    2    0    0 +4.6398097050e+01 -2.0494402485e+01 +1.3781182750e+01 1.4115142557e+02 1.3100000000e+02 0.0000e+00 0.0000e+00
      997  1    1    2    0    0 -3.5531476720e+01 +9.8832787822e+00 +4.0929566120e+02 4.1144027916e+02 2.0000000000e+01 0.0000e+00 0.0000e+00
</event>
<event>
 5      1 +2.3375200e-06 2.02808100e+02 7.95774700e-02 4.98816300e-01
       13 -1    0    0    0    0 +0.0000000000e+00 +0.0000000000e+00 +4.9999998884e+02 5.0000000000e+02 1.0566000000e-01 0.0000e+00 1.0000e+00
      994 -1    0    0    0    0 -0.0000000000e+00 -0.0000000000e+00 +0.0000000000e+00 1.3100000000e+02 1.3100000000e+02 0.0000e+00 0.0000e+00
       13  1    1    2    0    0 +3.0288164356e+01 +2.1605586208e+01 +6.7928779775e+01 7.7450013178e+01 1.0566000000e-01 0.0000e+00 -1.0000e+00
      994  1    1    2    0    0 -1.8749338931e+01 -2.0873817152e+01 +1.3843159197e+01 1.3468439779e+02 1.3100000000e+02 0.0000e+00 0.0000e+00
      997  1    1    2    0    0 -1.1538825426e+01 -7.3176905619e-01 +4.1822804986e+02 4.1886558903e+02 2.0000000000e+01 0.0000e+00 0.0000e+00
</event>
<event>
 5      1 +2.3375200e-06 2.08045300e+02 7.95774700e-02 4.89709700e-01
       13 -1    0    0    0    0 +0.0000000000e+00 +0.0000000000e+00 +4.9999998884e+02 5.0000000000e+02 1.0566000000e-01 0.0000e+00 -1.0000e+00
      994 -1    0    0    0    0 -0.0000000000e+00 -0.0000000000e+00 +0.0000000000e+00 1.3100000000e+02 1.3100000000e+02 0.0000e+00 0.0000e+00
       13  1    1    2    0    0 +9.7051822684e+00 -4.0218770563e+01 +1.3860217762e+02 1.4464547997e+02 1.0566000000e-01 0.0000e+00 1.0000e+00
      994  1    1    2    0    0 -5.5818961068e+00 +3.6672431747e+01 +1.2369635600e+01 1.3671149439e+02 1.3100000000e+02 0.0000e+00 0.0000e+00
      997  1    1    2    0    0 -4.1232861617e+00 +3.5463388167e+00 +3.4902817561e+02 3.4964302564e+02 2.0000000000e+01 0.0000e+00 0.0000e+00
</event>
<event>
 5      1 +2.3375200e-06 1.75697300e+02 7.95774700e-02 5.57846300e-01
       13 -1    0    0    0    0 +0.0000000000e+00 +0.0000000000e+00 +4.9999998884e+02 5.0000000000e+02 1.0566000000e-01 0.0000e+00 1.0000e+00
      994 -1    0    0    0    0 -0.0000000000e+00 -0.0000000000e+00 +0.0000000000e+00 1.3100000000e+02 1.3100000000e+02 0.0000e+00 0.0000e+00
       13  1    1    2    0    0 -9.5207374377e+01 +5.3200138615e+00 +1.9027546692e+02 2.1283211966e+02 1.0566000000e-01 0.0000e+00 -1.0000e+00
      994  1    1    2    0    0 +1.0251440353e+02 +3.5341718474e+00 +7.5326764578e+01 1.8263848106e+02 1.3100000000e+02 0.0000e+00 0.0000e+00
      997  1    1    2    0    0 -7.3070291566e+00 -8.8541857089e+00 +2.3439775734e+02 2.3552939928e+02 2.0000000000e+01 0.0000e+00 0.0000e+00
</event>
<event>
 5      1 +2.3375200e-06 1.98533200e+02 7.95774700e-02 5.06712300e-01
       13 -1    0    0    0    0 +0.0000000000e+00 +0.0000000000e+00 +4.9999998884e+02 5.0000000000e+02 1.0566000000e-01 0.0000e+00 -1.0000e+00
      994 -1    0    0    0    0 -0.0000000000e+00 -0.0000000000e+00 +0.0000000000e+00 1.3100000000e+02 1.3100000000e+02 0.0000e+00 0.0000e+00
       13  1    1    2    0    0 -1.1423985473e+01 -2.0421458039e+01 -4.2045500054e-01 2.3403660803e+01 1.0566000000e-01 0.0000e+00 1.0000e+00
      994  1    1    2    0    0 +1.6789421638e+01 +3.6416338388e+01 +3.4945781184e+01 1.4138685230e+02 1.3100000000e+02 0.0000e+00 0.0000e+00
      997  1    1    2    0    0 -5.3654361642e+00 -1.5994880349e+01 +4.6547466265e+02 4.6620948690e+02 2.0000000000e+01 0.0000e+00 0.0000e+00
</event>
<event>
 5      1 +2.3375200e-06 2.06764900e+02 7.95774700e-02 4.91881500e-01
       13 -1    0    0    0    0 +0.0000000000e+00 +0.0000000000e+00 +4.9999998884e+02 5.0000000000e+02 1.0566000000e-01 0.0000e+00 -1.0000e+00
      994 -1    0    0    0    0 -0.0000000000e+00 -0.0000000000e+00 +0.0000000000e+00 1.3100000000e+02 1.3100000000e+02 0.0000e+00 0.0000e+00
       13  1    1    2    0    0 +1.7815456369e+01 +1.0863905432e+01 +3.2917199216e+01 3.8973941232e+01 1.0566000000e-01 0.0000e+00 1.0000e+00
      994  1    1    2    0    0 -1.0373775099e+01 -1.6246629091e+01 +8.2517138872e+00 1.3266747510e+02 1.3100000000e+02 0.0000e+00 0.0000e+00
      997  1    1    2    0    0 -7.4416812695e+00 +5.3827236587e+00 +4.5883107573e+02 4.5935858367e+02 2.0000000000e+01 0.0000e+00 0.0000e+00
</event>
<event>
 5      1 +2.3375200e-06 2.11936300e+02 7.95774700e-02 4.83313400e-01
       13 -1    0    0    0    0 +0.0000000000e+00 +0.0000000000e+00 +4.9999998884e+02 5.0000000000e+02 1.0566000000e-01 0.0000e+00 -1.0000e+00
      994 -1    0    0    0    0 -0.0000000000e+00 -0.0000000000e+00 +0.0000000000e+00 1.3100000000e+02 1.3100000000e+02 0.0000e+00 0.0000e+00
       13  1    1    2    0    0 +1.0611910484e+01 +6.5053769629e+00 +4.8990309339e+01 5.0546949925e+01 1.0566000000e-01 0.0000e+00 1.0000e+00
      994  1    1    2    0    0 -6.4276934369e+00 +9.3806291062e+00 +2.8263276784e+00 1.3152300017e+02 1.3100000000e+02 0.0000e+00 0.0000e+00
      997  1    1    2    0    0 -4.1842170476e+00 -1.5886006069e+01 +4.4818335182e+02 4.4893004991e+02 2.0000000000e+01 0.0000e+00 0.0000e+00
</event>
<event>
 5      1 +2.3375200e-06 2.09536600e+02 7.95774700e-02 4.87222600e-01
       13 -1    0    0    0    0 +0.0000000000e+00 +0.0000000000e+00 +4.9999998884e+02 5.0000000000e+02 1.0566000000e-01 0.0000e+00 1.0000e+00
      994 -1    0    0    0    0 -0.0000000000e+00 -0.0000000000e+00 +0.0000000000e+00 1.3100000000e+02 1.3100000000e+02 0.0000e+00 0.0000e+00
       13  1    1    2    0    0 -1.1556490639e+01 +2.6726871587e+01 +8.8169686312e+01 9.2853556147e+01 1.0566000000e-01 0.0000e+00 -1.0000e+00
      994  1    1    2    0    0 +2.5915949783e+01 -2.5807701460e+01 +1.0884846044e+01 1.3644469129e+02 1.3100000000e+02 0.0000e+00 0.0000e+00
      997  1    1    2    0    0 -1.4359459145e+01 -9.1917012673e-01 +4.0094545648e+02 4.0170175256e+02 2.0000000000e+01 0.0000e+00 0.0000e+00
</event>
<event>
 5      1 +2.3375200e-06 2.08747200e+02 7.95774700e-02 4.88533400e-01
       13 -1    0    0    0    0 +0.0000000000e+00 +0.0000000000e+00 +4.9999998884e+02 5.0000000000e+02 1.0566000000e-01 0.0000e+00 -1.0000e+00
      994 -1    0    0    0    0 -0.0000000000e+00 -0.0000000000e+00 +0.0000000000e+00 1.3100000000e+02 1.3100000000e+02 0.0000e+00 0.0000e+00
       13  1    1    2    0    0 -7.3250248410e+00 +9.6131692699e+00 +1.5219569489e+01 1.9434903442e+01 1.0566000000e-01 0.0000e+00 1.0000e+00
      994  1    1    2    0    0 -7.8666226146e-01 -7.5956156781e+00 +5.0232569036e+00 1.3131848813e+02 1.3100000000e+02 0.0000e+00 0.0000e+00
      997  1    1    2    0    0 +8.1116871025e+00 -2.0175535918e+00 +4.7975716244e+02 4.8024660843e+02 2.0000000000e+01 0.0000e+00 0.0000e+00
</event>
<event>
 5      1 +2.3375200e-06 2.09930700e+02 7.95774700e-02 4.86572800e-01
       13 -1    0    0    0    0 +0.0000000000e+00 +0.0000000000e+00 +4.9999998884e+02 5.0000000000e+02 1.0566000000e-01 0.0000e+00 1.0000e+00
      994 -1    0    0    0    0 -0.0000000000e+00 -0.0000000000e+00 +0.0000000000e+00 1.3100000000e+02 1.3100000000e+02 0.0000e+00 0.0000e+00
       13  1    1    2    0    0 -2.6404946654e+01 -2.1850319570e+00 +1.2977444644e+02 1.3245155222e+02 1.0566000000e-01 0.0000e+00 -1.0000e+00
      994  1    1    2    0    0 +6.1721818643e+00 +1.1953748381e+01 +4.6849047902e+00 1.3177228943e+02 1.3100000000e+02 0.0000e+00 0.0000e+00
      997  1    1    2    0    0 +2.0232764790e+01 -9.7687164244e+00 +3.6554063761e+02 3.6677615835e+02 2.0000000000e+01 0.0000e+00 0.0000e+00
</event>
<event>
 5      1 +2.3375200e-06 2.08367000e+02 7.95774700e-02 4.89169300e-01
       13 -1    0    0    0    0 +0.0000000000e+00 +0.0000000000e+00 +4.9999998884e+02 5.0000000000e+02 1.0566000000e-01 0.0000e+00 -1.0000e+00
      994 -1    0    0    0    0 -0.0000000000e+00 -0.0000000000e+00 +0.0000000000e+00 1.3100000000e+02 1.3100000000e+02 0.0000e+00 0.0000e+00
       13  1    1    2    0    0 -2.0683008645e+01 -1.8590212302e+00 +4.6572817284e+01 5.0992953243e+01 1.0566000000e-01 0.0000e+00 1.0000e+00
      994  1    1    2    0    0 +9.8039663398e+00 -8.1026800561e+00 +5.8557253747e+00 1.3174619805e+02 1.3100000000e+02 0.0000e+00 0.0000e+00
      997  1    1    2    0    0 +1.0879042306e+01 +9.9617012863e+00 +4.4757144618e+02 4.4826084871e+02 2.0000000000e+01 0.0000e+00 0.0000e+00
</event>
<event>
 5      1 +2.3375200e-06 2.08470500e+02 7.95774700e-02 4.88996000e-01
       13 -1    0    0    0    0 +0.0000000000e+00 +0.0000000000e+00 +4.9999998884e+02 5.0000000000e+02 1.0566000000e-01 0.0000e+00 -1.0000e+00
      994 -1    0    0    0    0 -0.0000000000e+00 -0.0000000000e+00 +0.0000000000e+00 1.3100000000e+02 1.3100000000e+02 0.0000e+00 0.0000e+00
       13  1    1    2    0    0 +1.9741038743e+01 +4.4031019076e+00 +4.4541146082e+01 4.8918511581e+01 1.0566000000e-01 0.0000e+00 1.0000e+00
      994  1    1    2    0    0 -3.6303873584e+00 -3.4276552426e+01 +1.1026731155e+01 1.3590677157e+02 1.3100000000e+02 0.0000e+00 0.0000e+00
      997  1    1    2    0    0 -1.6110651384e+01 +2.9873450519e+01 +4.4443211160e+02 4.4617471685e+02 2.0000000000e+01 0.0000e+00 0.0000e+00
</event>
<event>
 5      1 +2.3375200e-06 2.12288200e+02 7.95774700e-02 4.82749500e-01
       13 -1    0    0    0    0 +0.0000000000e+00 +0.0000000000e+00 +4.9999998884e+02 5.0000000000e+02 1.0566000000e-01 0.0000e+00 1.0000e+00
      994 -1    0    0    0    0 -0.0000000000e+00 -0.0000000000e+00 +0.0000000000e+00 1.3100000000e+02 1.3100000000e+02 0.0000e+00 0.0000e+00
       13  1    1    2    0    0 +1.2797157494e+01 -1.0193162914e+01 +7.0038268960e+01 7.1923835361e+01 1.0566000000e-01 0.0000e+00 -1.0000e+00
      994  1    1    2    0    0 -1.8139715068e+01 +1.2467796774e+01 +4.3006610276e+00 1.3290594759e+02 1.3100000000e+02 0.0000e+00 0.0000e+00
      997  1    1    2    0    0 +5.3425575736e+00 -2.2746338594e+00 +4.2566105885e+02 4.2617021705e+02 2.0000000000e+01 0.0000e+00 0.0000e+00
</event>
<event>
 5      1 +2.3375200e-06 2.11265800e+02 7.95774700e-02 4.84394400e-01
       13 -1    0    0    0    0 +0.0000000000e+00 +0.0000000000e+00 +4.9999998884e+02 5.0000000000e+02 1.0566000000e-01 0.0000e+00 -1.0000e+00
      994 -1    0    0    0    0 -0.0000000000e+00 -0.0000000000e+00 +0.0000000000e+00 1.3100000000e+02 1.3100000000e+02 0.0000e+00 0.0000e+00
       13  1    1    2    0    0 +2.3842896276e+01 -1.2888296327e+01 +1.4459769435e+02 1.4711592796e+02 1.0566000000e-01 0.0000e+00 1.0000e+00
      994  1    1    2    0    0 -1.4426578228e+01 +1.8630809298e+01 +5.4778087912e+00 1.3321501268e+02 1.3100000000e+02 0.0000e+00 0.0000e+00
      997  1    1    2    0    0 -9.4163180479e+00 -5.7425129711e+00 +3.4992448570e+02 3.5066905936e+02 2.0000000000e+01 0.0000e+00 0.0000e+00
</event>
<event>
 5      1 +2.3375200e-06 2.11427900e+02 7.95774700e-02 4.84132300e-01
       13 -1    0    0    0    0 +0.0000000000e+00 +0.0000000000e+00 +4.9999998884e+02 5.0000000000e+02 1.0566000000e-01 0.0000e+00 -1.0000e+00
      994 -1    0    0    0    0 -0.0000000000e+00 -0.0000000000e+00 +0.0000000000e+00 1.3100000000e+02 1.3100000000e+02 0.0000e+00 0.0000e+00
       13  1    1    2    0    0 -9.8450022523e+00 -5.5132193560e+00 +3.2300922963e+01 3.4215207807e+01 1.0566000000e-01 0.0000e+00 1.0000e+00
      994  1    1    2    0    0 +8.8364998118e-01 -8.3129479341e+00 +2.9353751421e+00 1.3129928548e+02 1.3100000000e+02 0.0000e+00 0.0000e+00
      997  1    1    2    0    0 +8.9613522711e+00 +1.3826167290e+01 +4.6476369073e+02 4.6548550671e+02 2.0000000000e+01 0.0000e+00 0.0000e+00
</event>
<event>
 5      1 +2.3375200e-06 2.10435900e+02 7.95774700e-02 4.85744300e-01
       13 -1    0    0    0    0 +0.0000000000e+00 +0.0000000000e+00 +4.9999998884e+02 5.0000000000e+02 1.0566000000e-01 0.0000e+00 -1.0000e+00
      994 -1    0    0    0    0 -0.0000000000e+00 -0.0000000000e+00 +0.0000000000e+00 1.3100000000e+02 1.3100000000e+02 0.0000e+00 0.0000e+00
       13  1    1    2    0    0 +8.9337847282e+00 -3.9518367416e+01 +1.8980268955e+02 1.9407881388e+02 1.0566000000e-01 0.0000e+00 1.0000e+00
      994  1    1    2    0    0 -1.7011664297e+01 +3.6906143394e+01 +1.1724620863e+01 1.3765873338e+02 1.3100000000e+02 0.0000e+00 0.0000e+00
      997  1    1    2    0    0 +8.0778795685e+00 +2.6122240211e+00 +2.9847267843e+02 2.9926245274e+02 2.0000000000e+01 0.0000e+00 0.0000e+00
</event>
<event>
 5      1 +2.3375200e-06 2.02709800e+02 7.95774700e-02 4.98993000e-01
       13 -1    0    0    0    0 +0.0000000000e+00 +0.0000000000e+00 +4.9999998884e+02 5.0000000000e+02 1.0566000000e-01 0.0000e+00 -1.0000e+00
      994 -1    0    0    0    0 -0.0000000000e+00 -0.0000000000e+00 +0.0000000000e+00 1.3100000000e+02 1.3100000000e+02 0.0000e+00 0.0000e+00
       13  1    1    2    0    0 -1.1791857690e+01 +2.3435075843e+00 +3.8016489199e+00 1.2609664315e+01 1.0566000000e-01 0.0000e+00 1.0000e+00
      994  1    1    2    0    0 +8.6086977443e-01 +3.7484776471e+00 +9.8023526233e+00 1.3142251823e+02 1.3100000000e+02 0.0000e+00 0.0000e+00
      997  1    1    2    0    0 +1.0930987916e+01 -6.0919852314e+00 +4.8639598729e+02 4.8696781745e+02 2.0000000000e+01 0.0000e+00 0.0000e+00
</event>
<event>
 5      1 +2.3375200e-06 2.08306500e+02 7.95774700e-02 4.89270700e-01
       13 -1    0    0    0    0 +0.0000000000e+00 +0.0000000000e+00 +4.9999998884e+02 5.0000000000e+02 1.0566000000e-01 0.0000e+00 1.0000e+00
      994 -1    0    0    0    0 -0.0000000000e+00 -0.0000000000e+00 +0.0000000000e+00 1.3100000000e+02 1.3100000000e+02 0.0000e+00 0.0000e+00
       13  1    1    2    0    0 +1.0324522147e+00 -1.3987169747e+01 +1.9051648313e+01 2.3657627577e+01 1.0566000000e-01 0.0000e+00 -1.0000e+00
      994  1    1    2    0    0 +9.4382461321e+00 +9.0969582736e+00 +5.9561651122e+00 1.3178888816e+02 1.3100000000e+02 0.0000e+00 0.0000e+00
      997  1    1    2    0    0 -1.0470698347e+01 +4.8902114731e+00 +4.7499217541e+02 4.7555348426e+02 2.0000000000e+01 0.0000e+00 0.0000e+00
</event>
<event>
 5      1 +2.3375200e-06 2.10201000e+02 7.95774700e-02 4.86128800e-01
       13 -1    0    0    0    0 +0.0000000000e+00 +0.0000000000e+00 +4.9999998884e+02 5.0000000000e+02 1.0566000000e-01 0.0000e+00 -1.0000e+00
      994 -1    0    0    0    0 -0.0000000000e+00 -0.0000000000e+00 +0.0000000000e+00 1.3100000000e+02 1.3100000000e+02 0.0000e+00 0.0000e+00
       13  1    1    2    0    0 +9.8994552274e+00 -1.5789710163e+01 +6.2051277133e+01 6.4789554087e+01 1.0566000000e-01 0.0000e+00 1.0000e+00
      994  1    1    2    0    0 +6.1396467127e+00 +6.3972163786e+00 +3.9555714864e+00 1.3135930186e+02 1.3100000000e+02 0.0000e+00 0.0000e+00
      997  1    1    2    0    0 -1.6039101940e+01 +9.3924937843e+00 +4.3399314022e+02 4.3485114405e+02 2.0000000000e+01 0.0000e+00 0.0000e+00
</event>
<event>
 5      1 +2.3375200e-06 1.96906700e+02 7.95774700e-02 5.09834400e-01
       13 -1    0    0    0    0 +0.0000000000e+00 +0.0000000000e+00 +4.9999998884e+02 5.0000000000e+02 1.0566000000e-01 0.0000e+00 1.0000e+00
      994 -1    0    0    0    0 -0.0000000000e+00 -0.0000000000e+00 +0.0000000000e+00 1.3100000000e+02 1.3100000000e+02 0.0000e+00 0.0000e+00
       13  1    1    2    0    0 +3.0441328947e+01 +2.6367785748e+01 +7.5736355078e+01 8.5778442967e+01 1.0566000000e-01 0.0000e+00 -1.0000e+00
      994  1    1    2    0    0 +1.3212803145e+01 +7.0827258185e+00 +1.6042684484e+01 1.3282737255e+02 1.3100000000e+02 0.0000e+00 0.0000e+00
      997  1    1    2    0    0 -4.3654132092e+01 -3.3450511566e+01 +4.0822094927e+02 4.1239418449e+02 2.0000000000e+01 0.0000e+00 0.0000e+00
</event>
<event>
 5      1 +2.3375200e-06 2.08486000e+02 7.95774700e-02 4.88969900e-01
       13 -1    0    0    0    0 +0.0000000000e+00 +0.0000000000e+00 +4.9999998884e+02 5.0000000000e+02 1.0566000000e-01 0.0000e+00 1.0000e+00
      994 -1    0    0    0    0 -0.0000000000e+00 -0.0000000000e+00 +0.0000000000e+00 1.3100000000e+02 1.3100000000e+02 0.0000e+00 0.0000e+00
       13  1    1    2    0    0 -1.0522450332e+01 +1.7869039208e+01 +4.7413928131e+01 5.1750519496e+01 1.0566000000e-01 0.0000e+00 -1.0000e+00
      994  1    1    2    0    0 +4.8077605757e-01 -1.0347796944e+01 +5.4827599397e+00 1.3152326298e+02 1.3100000000e+02 0.0000e+00 0.0000e+00
      997  1    1    2    0    0 +1.0041674274e+01 -7.5212422642e+00 +4.4710330077e+02 4.4772621753e+02 2.0000000000e+01 0.0000e+00 0.0000e+00
</event>
<event>
 5      1 +2.3375200e-06 2.12374200e+02 7.95774700e-02 4.82612000e-01
       13 -1    0    0    0    0 +0.0000000000e+00 +0.0000000000e+00 +4.9999998884e+02 5.0000000000e+02 1.0566000000e-01 0.0000e+00 1.0000e+00
      994 -1    0    0    0    0 -0.0000000000e+00 -0.0000000000e+00 +0.0000000000e+00 1.3100000000e+02 1.3100000000e+02 0.0000e+00 0.0000e+00
       13  1    1    2    0    0 -7.8777920363e+00 -1.0163202666e+01 +7.4872558200e+01 7.5968818809e+01 1.0566000000e-01 0.0000e+00 -1.0000e+00
      994  1    1    2    0    0 -3.5038516695e+01 +6.5583890439e+01 +3.0449575984e+01 1.5367862901e+02 1.3100000000e+02 0.0000e+00 0.0000e+00
      997  1    1    2    0    0 +4.2916308731e+01 -5.5420687773e+01 +3.9467785465e+02 4.0135255218e+02 2.0000000000e+01 0.0000e+00 0.0000e+00
</event>
<event>
 5      1 +2.3375200e-06 2.10976100e+02 7.95774700e-02 4.84864000e-01
       13 -1    0    0    0    0 +0.0000000000e+00 +0.0000000000e+00 +4.9999998884e+02 5.0000000000e+02 1.0566000000e-01 0.0000e+00 1.0000e+00
      994 -1    0    0    0    0 -0.0000000000e+00 -0.0000000000e+00 +0.0000000000e+00 1.3100000000e+02 1.3100000000e+02 0.0000e+00 0.0000e+00
       13  1    1    2    0    0 +7.7009945582e+00 -8.0916397464e+00 +2.4952268476e+01 2.7338742054e+01 1.0566000000e-01 0.0000e+00 -1.0000e+00
      994  1    1    2    0    0 -5.9896792998e+00 -3.9728109199e+00 +3.2034420272e+00 1.3123612889e+02 1.3100000000e+02 0.0000e+00 0.0000e+00
      997  1    1    2    0    0 -1.7113152584e+00 +1.2064450666e+01 +4.7184427833e+02 4.7242512906e+02 2.0000000000e+01 0.0000e+00 0.0000e+00
</event>
<event>
 5      1 +2.3375200e-06 2.10501600e+02 7.95774700e-02 4.85636900e-01
       13 -1    0    0    0    0 +0.0000000000e+00 +0.0000000000e+00 +4.9999998884e+02 5.0000000000e+02 1.0566000000e-01 0.0000e+00 -1.0000e+00
      994 -1    0    0    0    0 -0.0000000000e+00 -0.0000000000e+00 +0.0000000000e+00 1.3100000000e+02 1.3100000000e+02 0.0000e+00 0.0000e+00
       13  1    1    2    0    0 +1.4022568620e+01 +2.1510448398e+01 +1.5228231820e+02 1.5443201553e+02 1.0566000000e-01 0.0000e+00 1.0000e+00
      994  1    1    2    0    0 -1.7781168456e+01 +2.8720524164e+00 +4.9426000355e+00 1.3232478200e+02 1.3100000000e+02 0.0000e+00 0.0000e+00
      997  1    1    2    0    0 +3.7585998366e+00 -2.4382500815e+01 +3.4277507060e+02 3.4424320246e+02 2.0000000000e+01 0.0000e+00 0.0000e+00
</event>
<event>
 5      1 +2.3375200e-06 2.08951400e+02 7.95774700e-02 4.88193100e-01
       13 -1    0    0    0    0 +0.0000000000e+00 +0.0000000000e+00 +4.9999998884e+02 5.0000000000e+02 1.0566000000e-01 0.0000e+00 -1.0000e+00
      994 -1    0    0    0    0 -0.0000000000e+00 -0.0000000000e+00 +0.0000000000e+00 1.3100000000e+02 1.3100000000e+02 0.0000e+00 0.0000e+00
       13  1    1    2    0    0 -3.1165555572e+00 +1.0582867923e+01 +1.3948495757e+01 1.7784310781e+01 1.0566000000e-01 0.0000e+00 1.0000e+00
      994  1    1    2    0    0 +4.2760878933e+00 +6.1695605636e+00 +4.8483470513e+00 1.3130443585e+02 1.3100000000e+02 0.0000e+00 0.0000e+00
      997  1    1    2    0    0 -1.1595323362e+00 -1.6752428487e+01 +4.8120314603e+02 4.8191125337e+02 2.0000000000e+01 0.0000e+00 0.0000e+00
</event>
<event>
 5      1 +2.3375200e-06 1.93380600e+02 7.95774700e-02 5.16841300e-01
       13 -1    0    0    0    0 +0.0000000000e+00 +0.0000000000e+00 +4.9999998884e+02 5.0000000000e+02 1.0566000000e-01 0.0000e+00 -1.0000e+00
      994 -1    0    0    0    0 -0.0000000000e+00 -0.0000000000e+00 +0.0000000000e+00 1.3100000000e+02 1.3100000000e+02 0.0000e+00 0.0000e+00
       13  1    1    2    0    0 +1.4505179857e+01 -3.8262273567e+01 +3.0066708718e+01 5.0778144495e+01 1.0566000000e-01 0.0000e+00 1.0000e+00
      994  1    1    2    0    0 -2.3590524076e+01 +4.3066933907e+01 +3.4346932037e+01 1.4405549404e+02 1.3100000000e+02 0.0000e+00 0.0000e+00
      997  1    1    2    0    0 +9.0853442194e+00 -4.8046603406e+00 +4.3558634808e+02 4.3616636147e+02 2.0000000000e+01 0.0000e+00 0.0000e+00
</event>
<event>
 5      1 +2.3375200e-06 2.05139200e+02 7.95774700e-02 4.94689200e-01
       13 -1    0    0    0    0 +0.0000000000e+00 +0.0000000000e+00 +4.9999998884e+02 5.0000000000e+02 1.0566000000e-01 0.0000e+00 -1.0000e+00
      994 -1    0    0    0    0 -0.0000000000e+00 -0.0000000000e+00 +0.0000000000e+00 1.3100000000e+02 1.3100000000e+02 0.0000e+00 0.0000e+00
       13  1    1    2    0    0 +1.9142078171e+01 +3.2645474628e+01 +8.6134162737e+01 9.4081089093e+01 1.0566000000e-01 0.0000e+00 1.0000e+00
      994  1    1    2    0    0 -7.4354952666e+00 -3.1764725554e+01 +1.3269228034e+01 1.3565160077e+02 1.3100000000e+02 0.0000e+00 0.0000e+00
      997  1    1    2    0    0 -1.1706582904e+01 -8.8074907359e-01 +4.0059659806e+02 4.0126731014e+02 2.0000000000e+01 0.0000e+00 0.0000e+00
</event>
<event>
 5      1 +2.3375200e-06 2.02165700e+02 7.95774700e-02 4.99975300e-01
       13 -1    0    0    0    0 +0.0000000000e+00 +0.0000000000e+00 +4.9999998884e+02 5.0000000000e+02 1.0566000000e-01 0.0000e+00 1.0000e+00
      994 -1    0    0    0    0 -0.0000000000e+00 -0.0000000000e+00 +0.0000000000e+00 1.3100000000e+02 1.3100000000e+02 0.0000e+00 0.0000e+00
       13  1    1    2    0    0 +2.8105255828e+01 -1.1304303393e+01 +5.3277625551e+01 6.1287920741e+01 1.0566000000e-01 0.0000e+00 -1.0000e+00
      994  1    1    2    0    0 +1.4187857022e+01 +2.6672062245e+01 +1.5093217383e+01 1.3528303442e+02 1.3100000000e+02 0.0000e+00 0.0000e+00
      997  1    1    2    0    0 -4.2293112850e+01 -1.5367758852e+01 +4.3162914590e+02 4.3442904484e+02 2.0000000000e+01 0.0000e+00 0.0000e+00
</event>
<event>
 5      1 +2.3375200e-06 2.07843600e+02 7.95774700e-02 4.90049600e-01
       13 -1    0    0    0    0 +0.0000000000e+00 +0.0000000000e+00 +4.9999998884e+02 5.0000000000e+02 1.0566000000e-01 0.0000e+00 -1.0000e+00
      994 -1    0    0    0    0 -0.0000000000e+00 -0.0000000000e+00 +0.0000000000e+00 1.3100000000e+02 1.3100000000e+02 0.0000e+00 0.0000e+00
       13  1    1    2    0    0 -1.7456437710e+01 +4.2708354138e+00 +3.3972257700e+01 3.8432963845e+01 1.0566000000e-01 0.0000e+00 1.0000e+00
      994  1    1    2    0    0 +1.3718498446e+00 +1.5588942931e+01 +6.7074691812e+00 1.3210180641e+02 1.3100000000e+02 0.0000e+00 0.0000e+00
      997  1    1    2    0    0 +1.6084587865e+01 -1.9859778345e+01 +4.5932026195e+02 4.6046522975e+02 2.0000000000e+01 0.0000e+00 0.0000e+00
</event>
<event>
 5      1 +2.3375200e-06 2.04152700e+02 7.95774700e-02 4.96421100e-01
       13 -1    0    0    0    0 +0.0000000000e+00 +0.0000000000e+00 +4.9999998884e+02 5.0000000000e+02 1.0566000000e-01 0.0000e+00 1.0000e+00
      994 -1    0    0    0    0 -0.0000000000e+00 -0.0000000000e+00 +0.0000000000e+00 1.3100000000e+02 1.3100000000e+02 0.0000e+00 0.0000e+00
       13  1    1    2    0    0 +1.8760553604e+01 -7.9750991525e+00 +2.4229016703e+01 3.1664127849e+01 1.0566000000e-01 0.0000e+00 -1.0000e+00
      994  1    1    2    0    0 +1.6081303319e+00 +8.2221401810e+00 +8.8742639181e+00 1.3156725365e+02 1.3100000000e+02 0.0000e+00 0.0000e+00
      997  1    1    2    0    0 -2.0368683935e+01 -2.4704102848e-01 +4.6689670822e+02 4.6776861850e+02 2.0000000000e+01 0.0000e+00 0.0000e+00
</event>
<event>
 5      1 +2.3375200e-06 2.08645300e+02 7.95774700e-02 4.88703600e-01
       13 -1    0    0    0    0 +0.0000000000e+00 +0.0000000000e+00 +4.9999998884e+02 5.0000000000e+02 1.0566000000e-01 0.0000e+00 -1.0000e+00
      994 -1    0    0    0    0 -0.0000000000e+00 -0.0000000000e+00 +0.0000000000e+00 1.3100000000e+02 1.3100000000e+02 0.0000e+00 0.0000e+00
       13  1    1    2    0    0 +1.1454095757e+01 -4.9201718724e+00 +1.4606759388e+01 1.9203462831e+01 1.0566000000e-01 0.0000e+00 1.0000e+00
      994  1    1    2    0    0 -3.2503618626e+01 -3.2929700447e+01 +1.5845554690e+01 1.3983179895e+02 1.3100000000e+02 0.0000e+00 0.0000e+00
      997  1    1    2    0    0 +2.1049522868e+01 +3.7849872319e+01 +4.6954767476e+02 4.7196473821e+02 2.0000000000e+01 0.0000e+00 0.0000e+00
</event>
<event>
 5      1 +2.3375200e-06 2.11652400e+02 7.95774700e-02 4.83770100e-01
       13 -1    0    0    0    0 +0.0000000000e+00 +0.0000000000e+00 +4.9999998884e+02 5.0000000000e+02 1.0566000000e-01 0.0000e+00 1.0000e+00
      994 -1    0    0    0    0 -0.0000000000e+00 -0.0000000000e+00 +0.0000000000e+00 1.3100000000e+02 1.3100000000e+02 0.0000e+00 0.0000e+00
       13  1    1    2    0    0 +9.7291798314e+00 -1.2908769482e+01 +6.3448278405e+01 6.5475098063e+01 1.0566000000e-01 0.0000e+00 -1.0000e+00
      994  1    1    2    0    0 +5.3651174838e+00 +1.9172443000e+01 +4.3742751841e+00 1.3257639812e+02 1.3100000000e+02 0.0000e+00 0.0000e+00
      997  1    1    2    0    0 -1.5094297315e+01 -6.2636735179e+00 +4.3217743525e+02 4.3294850381e+02 2.0000000000e+01 0.0000e+00 0.0000e+00
</event>
<event>
 5      1 +2.3375200e-06 2.07332300e+02 7.95774700e-02 4.90915000e-01
       13 -1    0    0    0    0 +0.0000000000e+00 +0.0000000000e+00 +4.9999998884e+02 5.0000000000e+02 1.0566000000e-01 0.0000e+00 1.0000e+00
      994 -1    0    0    0    0 -0.0000000000e+00 -0.0000000000e+00 +0.0000000000e+00 1.3100000000e+02 1.3100000000e+02 0.0000e+00 0.0000e+00
       13  1    1    2    0    0 +2.9020428344e+00 +3.7202778764e+01 +1.5124668944e+02 1.5578202988e+02 1.0566000000e-01 0.0000e+00 -1.0000e+00
      994  1    1    2    0    0 -3.1112002791e+01 -1.5107973673e+01 +1.2050406377e+01 1.3602360045e+02 1.3100000000e+02 0.0000e+00 0.0000e+00
      997  1    1    2    0    0 +2.8209959957e+01 -2.2094805091e+01 +3.3670289301e+02 3.3919436967e+02 2.0000000000e+01 0.0000e+00 0.0000e+00
</event>
<event>
 5      1 +2.3375200e-06 2.11451000e+02 7.95774700e-02 4.84094900e-01
       13 -1    0    0    0    0 +0.0000000000e+00 +0.0000000000e+00 +4.9999998884e+02 5.0000000000e+02 1.0566000000e-01 0.0000e+00 1.0000e+00
      994 -1    0    0    0    0 -0.0000000000e+00 -0.0000000000e+00 +0.0000000000e+00 1.3100000000e+02 1.3100000000e+02 0.0000e+00 0.0000e+00
       13  1    1    2    0    0 -2.2155085329e+01 +7.5651674708e+00 +1.3765146843e+02 1.3962814004e+02 1.0566000000e-01 0.0000e+00 -1.0000e+00
      994  1    1    2    0    0 +1.3417819025e+01 +5.6910382944e-01 +3.4638409313e+00 1.3173215227e+02 1.3100000000e+02 0.0000e+00 0.0000e+00
      997  1    1    2    0    0 +8.7372663035e+00 -8.1342713002e+00 +3.5888467947e+02 3.5963970770e+02 2.0000000000e+01 0.0000e+00 0.0000e+00
</event>
<event>
 5      1 +2.3375200e-06 2.08609500e+02 7.95774700e-02 4.88763400e-01
       13 -1    0    0    0    0 +0.0000000000e+00 +0.0000000000e+00 +4.9999998884e+02 5.0000000000e+02 1.0566000000e-01 0.0000e+00 -1.0000e+00
      994 -1    0    0    0    0 -0.0000000000e+00 -0.0000000000e+00 +0.0000000000e+00 1.3100000000e+02 1.3100000000e+02 0.0000e+00 0.0000e+00
       13  1    1    2    0    0 -1.8531816185e+01 -1.2581423152e+01 +6.8808141310e+01 7.2362226985e+01 1.0566000000e-01 0.0000e+00 1.0000e+00
      994  1    1    2    0    0 +8.8806442715e+00 -1.6268590156e+01 +6.5802495965e+00 1.3246823224e+02 1.3100000000e+02 0.0000e+00 0.0000e+00
      997  1    1    2    0    0 +9.6511719134e+00 +2.8850013309e+01 +4.2461159793e+02 4.2616954077e+02 2.0000000000e+01 0.0000e+00 0.0000e+00
</event>
<event>
 5      1 +2.3375200e-06 2.12488400e+02 7.95774700e-02 4.82429700e-01
       13 -1    0    0    0    0 +0.0000000000e+00 +0.0000000000e+00 +4.9999998884e+02 5.0000000000e+02 1.0566000000e-01 0.0000e+00 -1.0000e+00
      994 -1    0    0    0    0 -0.0000000000e+00 -0.0000000000e+00 +0.0000000000e+00 1.3100000000e+02 1.3100000000e+02 0.0000e+00 0.0000e+00
       13  1    1    2    0    0 +8.3528217001e+00 -2.3329812480e+01 +9.6781594913e+01 9.9903643871e+01 1.0566000000e-01 0.0000e+00 1.0000e+00
      994  1    1    2    0    0 -1.8064191156e+01 +4.9457820148e+01 +1.5692771083e+01 1.4205510917e+02 1.3100000000e+02 0.0000e+00 0.0000e+00
      997  1    1    2    0    0 +9.7113694556e+00 -2.6128007668e+01 +3.8752562284e+02 3.8904124696e+02 2.0000000000e+01 0.0000e+00 0.0000e+00
</event>
<event>
 5      1 +2.3375200e-06 2.12543000e+02 7.95774700e-02 4.82342700e-01
       13 -1    0    0    0    0 +0.0000000000e+00 +0.0000000000e+00 +4.9999998884e+02 5.0000000000e+02 1.0566000000e-01 0.0000e+00 1.0000e+00
      994 -1    0    0    0    0 -0.0000000000e+00 -0.0000000000e+00 +0.0000000000e+00 1.3100000000e+02 1.3100000000e+02 0.0000e+00 0.0000e+00
       13  1    1    2    0    0 +1.0204051677e+01 -4.1926291955e+00 +5.8027795854e+01 5.9067224973e+01 1.0566000000e-01 0.0000e+00 -1.0000e+00
      994  1    1    2    0    0 -2.4896585117e+00 -1.1633186471e+01 +2.4073651860e+00 1.3156110684e+02 1.3100000000e+02 0.0000e+00 0.0000e+00
      997  1    1    2    0    0 -7.7143931658e+00 +1.5825815666e+01 +4.3956482780e+02 4.4037166818e+02 2.0000000000e+01 0.0000e+00 0.0000e+00
</event>
<event>
 5      1 +2.3375200e-06 2.06411700e+02 7.95774700e-02 4.92486700e-01
       13 -1    0    0    0    0 +0.0000000000e+00 +0.0000000000e+00 +4.9999998884e+02 5.0000000000e+02 1.0566000000e-01 0.0000e+00 -1.0000e+00
      994 -1    0    0    0    0 -0.0000000000e+00 -0.0000000000e+00 +0.0000000000e+00 1.3100000000e+02 1.3100000000e+02 0.0000e+00 0.0000e+00
       13  1    1    2    0    0 +4.1077187636e+01 -1.2522653271e+01 +1.1275824128e+02 1.2065895877e+02 1.0566000000e-01 0.0000e+00 1.0000e+00
      994  1    1    2    0    0 -3.5489364750e+01 +3.4444312741e+01 +1.9516615068e+01 1.4137823013e+02 1.3100000000e+02 0.0000e+00 0.0000e+00
      997  1    1    2    0    0 -5.5878228862e+00 -2.1921659470e+01 +3.6772513248e+02 3.6896281111e+02 2.0000000000e+01 0.0000e+00 0.0000e+00
</event>
<event>
 5      1 +2.3375200e-06 2.08110500e+02 7.95774700e-02 4.89600000e-01
       13 -1    0    0    0    0 +0.0000000000e+00 +0.0000000000e+00 +4.9999998884e+02 5.0000000000e+02 1.0566000000e-01 0.0000e+00 1.0000e+00
      994 -1    0    0    0    0 -0.0000000000e+00 -0.0000000000e+00 +0.0000000000e+00 1.3100000000e+02 1.3100000000e+02 0.0000e+00 0.0000e+00
       13  1    1    2    0    0 -1.1118478879e+01 +3.9505154304e+00 +1.1648303849e+01 1.6580750627e+01 1.0566000000e-01 0.0000e+00 -1.0000e+00
      994  1    1    2    0    0 +9.9347750526e+00 -1.4429976868e+01 +6.8042618884e+00 1.3234130862e+02 1.3100000000e+02 0.0000e+00 0.0000e+00
      997  1    1    2    0    0 +1.1837038266e+00 +1.0479461438e+01 +4.8154742310e+02 4.8207794075e+02 2.0000000000e+01 0.0000e+00 0.0000e+00
</event>
<event>
 5      1 +2.3375200e-06 2.03504500e+02 7.95774700e-02 4.97570700e-01
       13 -1    0    0    0    0 +0.0000000000e+00 +0.0000000000e+00 +4.9999998884e+02 5.0000000000e+02 1.0566000000e-01 0.0000e+00 -1.0000e+00
      994 -1    0    0    0    0 -0.0000000000e+00 -0.0000000000e+00 +0.0000000000e+00 1.3100000000e+02 1.3100000000e+02 0.0000e+00 0.0000e+00
       13  1    1    2    0    0 -7.6738844571e+00 +3.1847874561e+01 +6.0424671951e+01 6.8733745433e+01 1.0566000000e-01 0.0000e+00 1.0000e+00
      994  1    1    2    0    0 +1.0111130310e+01 -1.5203824101e+01 +1.0812324138e+01 1.3270756413e+02 1.3100000000e+02 0.0000e+00 0.0000e+00
      997  1    1    2    0    0 -2.4372458526e+00 -1.6644050460e+01 +4.2876299275e+02 4.2955869044e+02 2.0000000000e+01 0.0000e+00 0.0000e+00
</event>
<event>
 5      1 +2.3375200e-06 2.12055200e+02 7.95774700e-02 4.83122600e-01
       13 -1    0    0    0    0 +0.0000000000e+00 +0.0000000000e+00 +4.9999998884e+02 5.0000000000e+02 1.0566000000e-01 0.0000e+00 1.0000e+00
      994 -1    0    0    0    0 -0.0000000000e+00 -0.0000000000e+00 +0.0000000000e+00 1.3100000000e+02 1.3100000000e+02 0.0000e+00 0.0000e+00
       13  1    1    2    0    0 -8.2385994495e+00 -7.1982681543e+00 +3.7225648475e+01 3.8800124403e+01 1.0566000000e-01 0.0000e+00 -1.0000e+00
      994  1    1    2    0    0 +6.2013722452e+00 -3.1021689138e+00 +2.3323349329e+00 1.3120411676e+02 1.3100000000e+02 0.0000e+00 0.0000e+00
      997  1    1    2    0    0 +2.0372272043e+00 +1.0300437068e+01 +4.6044200543e+02 4.6099575883e+02 2.0000000000e+01 0.0000e+00 0.0000e+00
</event>
<event>
 5      1 +2.3375200e-06 1.95017600e+02 7.95774700e-02 5.13546800e-01
       13 -1    0    0    0    0 +0.0000000000e+00 +0.0000000000e+00 +4.9999998884e+02 5.0000000000e+02 1.0566000000e-01 0.0000e+00 -1.0000e+00
      994 -1    0    0    0    0 -0.0000000000e+00 -0.0000000000e+00 +0.0000000000e+00 1.3100000000e+02 1.3100000000e+02 0.0000e+00 0.0000e+00
       13  1    1    2    0    0 -4.5016258290e+01 +1.6764292068e+01 +5.9410512834e+01 7.6401081133e+01 1.0566000000e-01 0.0000e+00 1.0000e+00
      994  1    1    2    0    0 +3.7074321319e+01 -1.9119604043e+01 +2.6583866369e+01 1.4002773479e+02 1.3100000000e+02 0.0000e+00 0.0000e+00
      997  1    1    2    0    0 +7.9419369714e+00 +2.3553119749e+00 +4.1400560963e+02 4.1457118407e+02 2.0000000000e+01 0.0000e+00 0.0000e+00
</event>
<event>
 5      1 +2.3375200e-06 2.10208700e+02 7.95774700e-02 4.86116300e-01
       13 -1    0    0    0    0 +0.0000000000e+00 +0.0000000000e+00 +4.9999998884e+02 5.0000000000e+02 1.0566000000e-01 0.0000e+00 1.0000e+00
      994 -1    0    0    0    0 -0.0000000000e+00 -0.0000000000e+00 +0.0000000000e+00 1.3100000000e+02 1.3100000000e+02 0.0000e+00 0.0000e+00
       13  1    1    2    0    0 -8.1642673596e+00 +1.6989065911e+01 +9.2591165699e+01 9.4490310359e+01 1.0566000000e-01 0.0000e+00 -1.0000e+00
      994  1    1    2    0    0 -9.3561548189e+00 +1.0578614630e+01 +4.5534154018e+00 1.3183769686e+02 1.3100000000e+02 0.0000e+00 0.0000e+00
      997  1    1    2    0    0 +1.7520422178e+01 -2.7567680541e+01 +4.0285540773e+02 4.0467199279e+02 2.0000000000e+01 0.0000e+00 0.0000e+00
</event>
<event>
 5      1 +2.3375200e-06 2.07336800e+02 7.95774700e-02 4.90907200e-01
       13 -1    0    0    0    0 +0.0000000000e+00 +0.0000000000e+00 +4.9999998884e+02 5.0000000000e+02 1.0566000000e-01 0.0000e+00 1.0000e+00
      994 -1    0    0    0    0 -0.0000000000e+00 -0.0000000000e+00 +0.0000000000e+00 1.3100000000e+02 1.3100000000e+02 0.0000e+00 0.0000e+00
       13  1    1    2    0    0 -2.0889112876e+01 -1.2636738198e+01 +5.9737938245e+01 6.4534290256e+01 1.0566000000e-01 0.0000e+00 -1.0000e+00
      994  1    1    2    0    0 +1.6862226173e+00 +4.1655475579e+00 +5.9761825881e+00 1.3121322301e+02 1.3100000000e+02 0.0000e+00 0.0000e+00
      997  1    1    2    0    0 +1.9202890259e+01 +8.4711906404e+00 +4.3428586800e+02 4.3525248674e+02 2.0000000000e+01 0.0000e+00 0.0000e+00
</event>
<event>
 5      1 +2.3375200e-06 2.07661000e+02 7.95774700e-02 4.90358000e-01
       13 -1    0    0    0    0 +0.0000000000e+00 +0.0000000000e+00 +4.9999998884e+02 5.0000000000e+02 1.0566000000e-01 0.0000e+00 -1.0000e+00
      994 -1    0    0    0    0 -0.0000000000e+00 -0.0000000000e+00 +0.0000000000e+00 1.3100000000e+02 1.3100000000e+02 0.0000e+00 0.0000e+00
       13  1    1    2    0    0 +2.4666495526e+01 -3.8004956712e-02 +6.4695424213e+01 6.9238331320e+01 1.0566000000e-01 0.0000e+00 1.0000e+00
      994  1    1    2    0    0 -4.1014926439e+00 -7.4900401918e+00 +5.9802447600e+00 1.3141417835e+02 1.3100000000e+02 0.0000e+00 0.0000e+00
      997  1    1    2    0    0 -2.0565002882e+01 +7.5280451485e+00 +4.2932431986e+02 4.3034749033e+02 2.0000000000e+01 0.0000e+00 0.0000e+00
</event>
<event>
 5      1 +2.3375200e-06 2.07394800e+02 7.95774700e-02 4.90808800e-01
       13 -1    0    0    0    0 +0.0000000000e+00 +0.0000000000e+00 +4.9999998884e+02 5.0000000000e+02 1.0566000000e-01 0.0000e+00 1.0000e+00
      994 -1    0    0    0    0 -0.0000000000e+00 -0.0000000000e+00 +0.0000000000e+00 1.3100000000e+02 1.3100000000e+02 0.0000e+00 0.0000e+00
       13  1    1    2    0    0 +6.4173660348e+00 +1.9332051738e+01 +3.2845859167e+01 3.8649352383e+01 1.0566000000e-01 0.0000e+00 -1.0000e+00
      994  1    1    2    0    0 +5.8692282791e+00 -2.5999243699e+01 +9.4726630098e+00 1.3401917720e+02 1.3100000000e+02 0.0000e+00 0.0000e+00
      997  1    1    2    0    0 -1.2286594314e+01 +6.6671919617e+00 +4.5768146666e+02 4.5833147041e+02 2.0000000000e+01 0.0000e+00 0.0000e+00
</event>
<event>
 5      1 +2.3375200e-06 1.93304100e+02 7.95774700e-02 5.16997100e-01
       13 -1    0    0    0    0 +0.0000000000e+00 +0.0000000000e+00 +4.9999998884e+02 5.0000000000e+02 1.0566000000e-01 0.0000e+00 1.0000e+00
      994 -1    0    0    0    0 -0.0000000000e+00 -0.0000000000e+00 +0.0000000000e+00 1.3100000000e+02 1.3100000000e+02 0.0000e+00 0.0000e+00
       13  1    1    2    0    0 -1.5183927859e+00 +2.7209872264e+01 +7.4920283979e+00 2.8263480303e+01 1.0566000000e-01 0.0000e+00 -1.0000e+00
      994  1    1    2    0    0 +4.4326734606e+01 -6.5360280271e+01 +5.7349459897e+01 1.6336090777e+02 1.3100000000e+02 0.0000e+00 0.0000e+00
      997  1    1    2    0    0 -4.2808341820e+01 +3.8150408006e+01 +4.3515850054e+02 4.3937561192e+02 2.0000000000e+01 0.0000e+00 0.0000e+00
</event>
<event>
 5      1 +2.3375200e-06 2.12178900e+02 7.95774700e-02 4.82924300e-01
       13 -1    0    0    0    0 +0.0000000000e+00 +0.0000000000e+00 +4.9999998884e+02 5.0000000000e+02 1.0566000000e-01 0.0000e+00 -1.0000e+00
      994 -1    0    0    0    0 -0.0000000000e+00 -0.0000000000e+00 +0.0000000000e+00 1.3100000000e+02 1.3100000000e+02 0.0000e+00 0.0000e+00
       13  1    1    2    0    0 +1.5722947131e+01 -7.3378797802e+00 +1.0253331119e+02 1.0399108911e+02 1.0566000000e-01 0.0000e+00 1.0000e+00
      994  1    1    2    0    0 -1.1400621912e+01 -3.1252676053e+00 +2.6858309217e+00 1.3155970191e+02 1.3100000000e+02 0.0000e+00 0.0000e+00
      997  1    1    2    0    0 -4.3223252182e+00 +1.0463147385e+01 +3.9478084673e+02 3.9544920899e+02 2.0000000000e+01 0.0000e+00 0.0000e+00
</event>
<event>
 5      1 +2.3375200e-06 2.03229400e+02 7.95774700e-02 4.98061400e-01
       13 -1    0    0    0    0 +0.0000000000e+00 +0.0000000000e+00 +4.9999998884e+02 5.0000000000e+02 1.0566000000e-01 0.0000e+00 -1.0000e+00
      994 -1    0    0    0    0 -0.0000000000e+00 -0.0000000000e+00 +0.0000000000e+00 1.3100000000e+02 1.3100000000e+02 0.0000e+00 0.0000e+00
       13  1    1    2    0    0 -3.5650721224e+01 +5.8999979551e+01 +4.9422528546e+01 8.4820805247e+01 1.0566000000e-01 0.0000e+00 1.0000e+00
      994  1    1    2    0    0 -1.0966665920e+01 -9.3468436664e+01 +9.8925055261e+01 1.8921887584e+02 1.3100000000e+02 0.0000e+00 0.0000e+00
      997  1    1    2    0    0 +4.6617387144e+01 +3.4468457113e+01 +3.5165240503e+02 3.5696031892e+02 2.0000000000e+01 0.0000e+00 0.0000e+00
</event>
<event>
 5      1 +2.3375200e-06 2.13376000e+02 7.95774700e-02 4.81021200e-01
       13 -1    0    0    0    0 +0.0000000000e+00 +0.0000000000e+00 +4.9999998884e+02 5.0000000000e+02 1.0566000000e-01 0.0000e+00 1.0000e+00
      994 -1    0    0    0    0 -0.0000000000e+00 -0.0000000000e+00 +0.0000000000e+00 1.3100000000e+02 1.3100000000e+02 0.0000e+00 0.0000e+00
       13  1    1    2    0    0 +8.0389498942e+00 +7.2675513322e+00 +5.2550275013e+01 5.3656170062e+01 1.0566000000e-01 0.0000e+00 -1.0000e+00
      994  1    1    2    0    0 -2.5066740035e+01 -1.6951513417e+01 +5.5561316974e+00 1.3456435584e+02 1.3100000000e+02 0.0000e+00 0.0000e+00
      997  1    1    2    0    0 +1.7027790141e+01 +9.6839620852e+00 +4.4189358213e+02 4.4277947410e+02 2.0000000000e+01 0.0000e+00 0.0000e+00
</event>
<event>
 5      1 +2.3375200e-06 1.99892800e+02 7.95774700e-02 5.04153400e-01
       13 -1    0    0    0    0 +0.0000000000e+00 +0.0000000000e+00 +4.9999998884e+02 5.0000000000e+02 1.0566000000e-01 0.0000e+00 -1.0000e+00
      994 -1    0    0    0    0 -0.0000000000e+00 -0.0000000000e+00 +0.0000000000e+00 1.3100000000e+02 1.3100000000e+02 0.0000e+00 0.0000e+00
       13  1    1    2    0    0 -3.0420649289e+01 +8.3924203809e+00 +3.3118545065e+01 4.5746014190e+01 1.0566000000e-01 0.0000e+00 1.0000e+00
      994  1    1    2    0    0 +3.3461796872e+01 -1.5494800480e+01 +1.9642370592e+01 1.3750128514e+02 1.3100000000e+02 0.0000e+00 0.0000e+00
      997  1    1    2    0    0 -3.0411475832e+00 +7.1023800991e+00 +4.4723907318e+02 4.4775270067e+02 2.0000000000e+01 0.0000e+00 0.0000e+00
</event>
<event>
 5      1 +2.3375200e-06 2.05206400e+02 7.95774700e-02 4.94572100e-01
       13 -1    0    0    0    0 +0.0000000000e+00 +0.0000000000e+00 +4.9999998884e+02 5.0000000000e+02 1.0566000000e-01 0.0000e+00 -1.0000e+00
      994 -1    0    0    0    0 -0.0000000000e+00 -0.0000000000e+00 +0.0000000000e+00 1.3100000000e+02 1.3100000000e+02 0.0000e+00 0.0000e+00
       13  1    1    2    0    0 -2.6176329948e+01 +5.9633165327e-01 +3.5502651251e+01 4.4113549743e+01 1.0566000000e-01 0.0000e+00 1.0000e+00
      994  1    1    2    0    0 +4.2255513774e+01 +1.2768515603e+01 +1.7944412733e+01 1.3939714984e+02 1.3100000000e+02 0.0000e+00 0.0000e+00
      997  1    1    2    0    0 -1.6079183826e+01 -1.3364847256e+01 +4.4655292485e+02 4.4748930042e+02 2.0000000000e+01 0.0000e+00 0.0000e+00
</event>
<event>
 5      1 +2.3375200e-06 2.09216300e+02 7.95774700e-02 4.87752900e-01
       13 -1    0    0    0    0 +0.0000000000e+00 +0.0000000000e+00 +4.9999998884e+02 5.0000000000e+02 1.0566000000e-01 0.0000e+00 1.0000e+00
      994 -1    0    0    0    0 -0.0000000000e+00 -0.0000000000e+00 +0.0000000000e+00 1.3100000000e+02 1.3100000000e+02 0.0000e+00 0.0000e+00
       13  1    1    2    0    0 -2.1461807258e+01 +4.2837130917e+00 +4.9338924997e+01 5.3974994697e+01 1.0566000000e-01 0.0000e+00 -1.0000e+00
      994  1    1    2    0    0 +2.4741627185e+01 -2.5756933290e+01 +1.0839380073e+01 1.3621328822e+02 1.3100000000e+02 0.0000e+00 0.0000e+00
      997  1    1    2    0    0 -3.2798199276e+00 +2.1473220198e+01 +4.3982168377e+02 4.4081171708e+02 2.0000000000e+01 0.0000e+00 0.0000e+00
</event>
<event>
 5      1 +2.3375200e-06 2.10346800e+02 7.95774700e-02 4.85890200e-01
       13 -1    0    0    0    0 +0.0000000000e+00 +0.0000000000e+00 +4.9999998884e+02 5.0000000000e+02 1.0566000000e-01 0.0000e+00 1.0000e+00
      994 -1    0    0    0    0 -0.0000000000e+00 -0.0000000000e+00 +0.0000000000e+00 1.3100000000e+02 1.3100000000e+02 0.0000e+00 0.0000e+00
       13  1    1    2    0    0 +7.7824111484e+00 -1.2436168170e+01 +3.5809243702e+01 3.8698027089e+01 1.0566000000e-01 0.0000e+00 -1.0000e+00
      994  1    1    2    0    0 +1.9289758771e+01 +1.9335568404e+01 +7.1883432920e+00 1.3400981784e+02 1.3100000000e+02 0.0000e+00 0.0000e+00
      997  1    1    2    0    0 -2.7072169919e+01 -6.8994002338e+00 +4.5700240184e+02 4.5829215507e+02 2.0000000000e+01 0.0000e+00 0.0000e+00
</event>
<event>
 5      1 +2.3375200e-06 2.07333000e+02 7.95774700e-02 4.90913700e-01
       13 -1    0    0    0    0 +0.0000000000e+00 +0.0000000000e+00 +4.9999998884e+02 5.0000000000e+02 1.0566000000e-01 0.0000e+00 1.0000e+00
      994 -1    0    0    0    0 -0.0000000000e+00 -0.0000000000e+00 +0.0000000000e+00 1.3100000000e+02 1.3100000000e+02 0.0000e+00 0.0000e+00
       13  1    1    2    0    0 +7.0926684178e+00 -9.2497931785e+00 +8.9666106401e+00 1.4706321414e+01 1.0566000000e-01 0.0000e+00 -1.0000e+00
      994  1    1    2    0    0 -3.6254193104e+00 +2.4980412549e+01 +9.1464045061e+00 1.3372292770e+02 1.3100000000e+02 0.0000e+00 0.0000e+00
      997  1    1    2    0    0 -3.4672491075e+00 -1.5730619371e+01 +4.8188697369e+02 4.8257075089e+02 2.0000000000e+01 0.0000e+00 0.0000e+00
</event>
<event>
 5      1 +2.3375200e-06 2.12096200e+02 7.95774700e-02 4.83056900e-01
       13 -1    0    0    0    0 +0.0000000000e+00 +0.0000000000e+00 +4.9999998884e+02 5.0000000000e+02 1.0566000000e-01 0.0000e+00 -1.0000e+00
      994 -1    0    0    0    0 -0.0000000000e+00 -0.0000000000e+00 +0.0000000000e+00 1.3100000000e+02 1.3100000000e+02 0.0000e+00 0.0000e+00
       13  1    1    2    0    0 +1.9289118484e+01 +1.3810307493e+01 +1.1336899517e+02 1.1582458683e+02 1.0566000000e-01 0.0000e+00 1.0000e+00
      994  1    1    2    0    0 -2.4897566702e+01 -1.9063032589e+01 +6.9389396749e+00 1.3487934209e+02 1.3100000000e+02 0.0000e+00 0.0000e+00
      997  1    1    2    0    0 +5.6084482174e+00 +5.2527250957e+00 +3.7969205399e+02 3.8029607108e+02 2.0000000000e+01 0.0000e+00 0.0000e+00
</event>
<event>
 5      1 +2.3375200e-06 2.08543400e+02 7.95774700e-02 4.88874000e-01
       13 -1    0    0    0    0 +0.0000000000e+00 +0.0000000000e+00 +4.9999998884e+02 5.0000000000e+02 1.0566000000e-01 0.0000e+00 1.0000e+00
      994 -1    0    0    0    0 -0.0000000000e+00 -0.0000000000e+00 +0.0000000000e+00 1.3100000000e+02 1.3100000000e+02 0.0000e+00 0.0000e+00
       13  1    1    2    0    0 -1.4615608780e+01 -1.0152210500e+01 +3.1100702910e+01 3.5832224094e+01 1.0566000000e-01 0.0000e+00 -1.0000e+00
      994  1    1    2    0    0 +4.6096742583e+00 +2.6403657336e+01 +8.5476165512e+00 1.3398680519e+02 1.3100000000e+02 0.0000e+00 0.0000e+00
      997  1    1    2    0    0 +1.0005934521e+01 -1.6251446836e+01 +4.6035166937e+02 4.6118097071e+02 2.0000000000e+01 0.0000e+00 0.0000e+00
</event>
<event>
 5      1 +2.3375200e-06 2.10531700e+02 7.95774700e-02 4.85587800e-01
       13 -1    0    0    0    0 +0.0000000000e+00 +0.0000000000e+00 +4.9999998884e+02 5.0000000000e+02 1.0566000000e-01 0.0000e+00 -1.0000e+00
      994 -1    0    0    0    0 -0.0000000000e+00 -0.0000000000e+00 +0.0000000000e+00 1.3100000000e+02 1.3100000000e+02 0.0000e+00 0.0000e+00
       13  1    1    2    0    0 +1.7380439983e+01 +6.6155753478e+00 +6.2073692326e+01 6.4799691158e+01 1.0566000000e-01 0.0000e+00 1.0000e+00
      994  1    1    2    0    0 -6.2462517330e+00 -5.5176731439e+00 +3.6456824282e+00 1.3131546511e+02 1.3100000000e+02 0.0000e+00 0.0000e+00
      997  1    1    2    0    0 -1.1134188250e+01 -1.0979022039e+00 +4.3428061408e+02 4.3488484373e+02 2.0000000000e+01 0.0000e+00 0.0000e+00
</event>
<event>
 5      1 +2.3375200e-06 2.06634700e+02 7.95774700e-02 4.92104400e-01
       13 -1    0    0    0    0 +0.0000000000e+00 +0.0000000000e+00 +4.9999998884e+02 5.0000000000e+02 1.0566000000e-01 0.0000e+00 1.0000e+00
      994 -1    0    0    0    0 -0.0000000000e+00 -0.0000000000e+00 +0.0000000000e+00 1.3100000000e+02 1.3100000000e+02 0.0000e+00 0.0000e+00
       13  1    1    2    0    0 +1.4861391474e+01 +1.8913558584e+01 +4.6132857463e+01 5.2027255901e+01 1.0566000000e-01 0.0000e+00 -1.0000e+00
      994  1    1    2    0    0 -2.0845815664e+01 -7.2820316311e-01 +8.6889515043e+00 1.3293448081e+02 1.3100000000e+02 0.0000e+00 0.0000e+00
      997  1    1    2    0    0 +5.9844241900e+00 -1.8185355421e+01 +4.4517817987e+02 4.4603826329e+02 2.0000000000e+01 0.0000e+00 0.0000e+00
</event>
<event>
 5      1 +2.3375200e-06 2.13177500e+02 7.95774700e-02 4.81334900e-01
       13 -1    0    0    0    0 +0.0000000000e+00 +0.0000000000e+00 +4.9999998884e+02 5.0000000000e+02 1.0566000000e-01 0.0000e+00 -1.0000e+00
      994 -1    0    0    0    0 -0.0000000000e+00 -0.0000000000e+00 +0.0000000000e+00 1.3100000000e+02 1.3100000000e+02 0.0000e+00 0.0000e+00
       13  1    1    2    0    0 +6.9522909598e+00 +9.9820919852e+00 +7.3393660613e+01 7.4395007173e+01 1.0566000000e-01 0.0000e+00 1.0000e+00
      994  1    1    2    0    0 +5.4977988571e+00 -2.8120301132e+01 +5.2485930126e+00 1.3419957100e+02 1.3100000000e+02 0.0000e+00 0.0000e+00
      997  1    1    2    0    0 -1.2450089817e+01 +1.8138209147e+01 +4.2135773521e+02 4.2240542183e+02 2.0000000000e+01 0.0000e+00 0.0000e+00
</event>
<event>
 5      1 +2.3375200e-06 2.12122000e+02 7.95774700e-02 4.83015600e-01
       13 -1    0    0    0    0 +0.0000000000e+00 +0.0000000000e+00 +4.9999998884e+02 5.0000000000e+02 1.0566000000e-01 0.0000e+00 -1.0000e+00
      994 -1    0    0    0    0 -0.0000000000e+00 -0.0000000000e+00 +0.0000000000e+00 1.3100000000e+02 1.3100000000e+02 0.0000e+00 0.0000e+00
       13  1    1    2    0    0 -1.1677735894e+01 +1.7342589400e+00 +3.1435820368e+01 3.3579742940e+01 1.0566000000e-01 0.0000e+00 1.0000e+00
      994  1    1    2    0    0 +2.9061209853e+01 -2.8816711596e+00 +6.2660658928e+00 1.3436190505e+02 1.3100000000e+02 0.0000e+00 0.0000e+00
      997  1    1    2    0    0 -1.7383473959e+01 +1.1474122196e+00 +4.6229810258e+02 4.6305835201e+02 2.0000000000e+01 0.0000e+00 0.0000e+00
</event>
<event>
 5      1 +2.3375200e-06 1.80732500e+02 7.95774700e-02 5.45044000e-01
       13 -1    0    0    0    0 +0.0000000000e+00 +0.0000000000e+00 +4.9999998884e+02 5.0000000000e+02 1.0566000000e-01 0.0000e+00 -1.0000e+00
      994 -1    0    0    0    0 -0.0000000000e+00 -0.0000000000e+00 +0.0000000000e+00 1.3100000000e+02 1.3100000000e+02 0.0000e+00 0.0000e+00
       13  1    1    2    0    0 +2.3783204741e+01 +7.7333770889e+01 +2.7022661080e+02 2.8207904087e+02 1.0566000000e-01 0.0000e+00 1.0000e+00
      994  1    1    2    0    0 -3.0031754887e+00 -6.1107592001e+01 +3.1589736322e+01 1.4799347386e+02 1.3100000000e+02 0.0000e+00 0.0000e+00
      997  1    1    2    0    0 -2.0780029252e+01 -1.6226178888e+01 +1.9818364171e+02 2.0092748527e+02 2.0000000000e+01 0.0000e+00 0.0000e+00
</event>
<event>
 5      1 +2.3375200e-06 2.09997700e+02 7.95774700e-02 4.86462600e-01
       13 -1    0    0    0    0 +0.0000000000e+00 +0.0000000000e+00 +4.9999998884e+02 5.0000000000e+02 1.0566000000e-01 0.0000e+00 1.0000e+00
      994 -1    0    0    0    0 -0.0000000000e+00 -0.0000000000e+00 +0.0000000000e+00 1.3100000000e+02 1.3100000000e+02 0.0000e+00 0.0000e+00
       13  1    1    2    0    0 +1.9432859683e+01 +4.2601225921e+01 +2.0064354587e+02 2.0603481296e+02 1.0566000000e-01 0.0000e+00 -1.0000e+00
      994  1    1    2    0    0 -4.8549656496e+01 -3.7168830100e+01 +2.3093147892e+01 1.4639974234e+02 1.3100000000e+02 0.0000e+00 0.0000e+00
      997  1    1    2    0    0 +2.9116796813e+01 -5.4323958205e+00 +2.7626329507e+02 2.7856544470e+02 2.0000000000e+01 0.0000e+00 0.0000e+00
</event>
<event>
 5      1 +2.3375200e-06 2.12744900e+02 7.95774700e-02 4.82021200e-01
       13 -1    0    0    0    0 +0.0000000000e+00 +0.0000000000e+00 +4.9999998884e+02 5.0000000000e+02 1.0566000000e-01 0.0000e+00 1.0000e+00
      994 -1    0    0    0    0 -0.0000000000e+00 -0.0000000000e+00 +0.0000000000e+00 1.3100000000e+02 1.3100000000e+02 0.0000e+00 0.0000e+00
       13  1    1    2    0    0 +2.9228685915e+00 +1.2701421562e+01 +5.6304639158e+01 5.7793536189e+01 1.0566000000e-01 0.0000e+00 -1.0000e+00
      994  1    1    2    0    0 -1.5905275773e+00 -2.2060340562e+01 +3.9579169719e+00 1.3291295464e+02 1.3100000000e+02 0.0000e+00 0.0000e+00
      997  1    1    2    0    0 -1.3323410142e+00 +9.3589190000e+00 +4.3973743271e+02 4.4029350917e+02 2.0000000000e+01 0.0000e+00 0.0000e+00
</event>
<event>
 5      1 +2.3375200e-06 1.66387300e+02 7.95774700e-02 5.84469600e-01
       13 -1    0    0    0    0 +0.0000000000e+00 +0.0000000000e+00 +4.9999998884e+02 5.0000000000e+02 1.0566000000e-01 0.0000e+00 -1.0000e+00
      994 -1    0    0    0    0 -0.0000000000e+00 -0.0000000000e+00 +0.0000000000e+00 1.3100000000e+02 1.3100000000e+02 0.0000e+00 0.0000e+00
       13  1    1    2    0    0 -1.1000502844e+02 +1.8258250400e+01 +8.8078156368e+01 1.4209941162e+02 1.0566000000e-01 0.0000e+00 1.0000e+00
      994  1    1    2    0    0 +8.9246656155e+01 -4.7788910514e+00 +1.2963776879e+02 2.0482859793e+02 1.3100000000e+02 0.0000e+00 0.0000e+00
      997  1    1    2    0    0 +2.0758372286e+01 -1.3479359349e+01 +2.8228406368e+02 2.8407199045e+02 2.0000000000e+01 0.0000e+00 0.0000e+00
</event>
<event>
 5      1 +2.3375200e-06 2.00040400e+02 7.95774700e-02 5.03878400e-01
       13 -1    0    0    0    0 +0.0000000000e+00 +0.0000000000e+00 +4.9999998884e+02 5.0000000000e+02 1.0566000000e-01 0.0000e+00 1.0000e+00
      994 -1    0    0    0    0 -0.0000000000e+00 -0.0000000000e+00 +0.0000000000e+00 1.3100000000e+02 1.3100000000e+02 0.0000e+00 0.0000e+00
       13  1    1    2    0    0 +1.9066588141e+01 +1.0368238955e+00 +9.8761909800e+00 2.1497909187e+01 1.0566000000e-01 0.0000e+00 -1.0000e+00
      994  1    1    2    0    0 -2.2393933756e+01 -6.9498915664e+00 +1.5017396545e+01 1.3392651515e+02 1.3100000000e+02 0.0000e+00 0.0000e+00
      997  1    1    2    0    0 +3.3273456159e+00 +5.9130676710e+00 +4.7510640131e+02 4.7557557566e+02 2.0000000000e+01 0.0000e+00 0.0000e+00
</event>
<event>
 5      1 +2.3375200e-06 2.10215800e+02 7.95774700e-02 4.86104700e-01
       13 -1    0    0    0    0 +0.0000000000e+00 +0.0000000000e+00 +4.9999998884e+02 5.0000000000e+02 1.0566000000e-01 0.0000e+00 1.0000e+00
      994 -1    0    0    0    0 -0.0000000000e+00 -0.0000000000e+00 +0.0000000000e+00 1.3100000000e+02 1.3100000000e+02 0.0000e+00 0.0000e+00
       13  1    1    2    0    0 -4.2583612194e-01 +1.9218104978e+01 +5.6674104070e+01 5.9845485474e+01 1.0566000000e-01 0.0000e+00 -1.0000e+00
      994  1    1    2    0    0 +2.1246078203e+00 -1.2776416543e+01 +4.3891455132e+00 1.3171186498e+02 1.3100000000e+02 0.0000e+00 0.0000e+00
      997  1    1    2    0    0 -1.6987716984e+00 -6.4416884348e+00 +4.3893673925e+02 4.3944264955e+02 2.0000000000e+01 0.0000e+00 0.0000e+00
</event>
<event>
 5      1 +2.3375200e-06 2.10522000e+02 7.95774700e-02 4.85603700e-01
       13 -1    0    0    0    0 +0.0000000000e+00 +0.0000000000e+00 +4.9999998884e+02 5.0000000000e+02 1.0566000000e-01 0.0000e+00 1.0000e+00
      994 -1    0    0    0    0 -0.0000000000e+00 -0.0000000000e+00 +0.0000000000e+00 1.3100000000e+02 1.3100000000e+02 0.0000e+00 0.0000e+00
       13  1    1    2    0    0 -1.0283739854e+01 +1.0136136111e+01 +4.1860102510e+01 4.4280649350e+01 1.0566000000e-01 0.0000e+00 -1.0000e+00
      994  1    1    2    0    0 -2.4751767978e+00 +5.3312489391e+00 +3.4796500937e+00 1.3117795806e+02 1.3100000000e+02 0.0000e+00 0.0000e+00
      997  1    1    2    0    0 +1.2758916652e+01 -1.5467385050e+01 +4.5466023623e+02 4.5554139259e+02 2.0000000000e+01 0.0000e+00 0.0000e+00
</event>
<event>
 5      1 +2.3375200e-06 2.13621800e+02 7.95774700e-02 4.80633800e-01
       13 -1    0    0    0    0 +0.0000000000e+00 +0.0000000000e+00 +4.9999998884e+02 5.0000000000e+02 1.0566000000e-01 0.0000e+00 -1.0000e+00
      994 -1    0    0    0    0 -0.0000000000e+00 -0.0000000000e+00 +0.0000000000e+00 1.3100000000e+02 1.3100000000e+02 0.0000e+00 0.0000e+00
       13  1    1    2    0    0 -2.2449962588e+01 +9.7119607201e+00 +1.3913714048e+02 1.4127093836e+02 1.0566000000e-01 0.0000e+00 1.0000e+00
      994  1    1    2    0    0 +5.1616639576e+01 -2.4907603949e+01 +1.7316471153e+01 1.4403307394e+02 1.3100000000e+02 0.0000e+00 0.0000e+00
      997  1    1    2    0    0 -2.9166676988e+01 +1.5195643229e+01 +3.4354637720e+02 3.4569598770e+02 2.0000000000e+01 0.0000e+00 0.0000e+00
</event>
<event>
 5      1 +2.3375200e-06 2.08255700e+02 7.95774700e-02 4.89356000e-01
       13 -1    0    0    0    0 +0.0000000000e+00 +0.0000000000e+00 +4.9999998884e+02 5.0000000000e+02 1.0566000000e-01 0.0000e+00 1.0000e+00
      994 -1    0    0    0    0 -0.0000000000e+00 -0.0000000000e+00 +0.0000000000e+00 1.3100000000e+02 1.3100000000e+02 0.0000e+00 0.0000e+00
       13  1    1    2    0    0 +2.5254019702e+01 -1.3794140131e+01 +1.0699977347e+02 1.1080165387e+02 1.0566000000e-01 0.0000e+00 -1.0000e+00
      994  1    1    2    0    0 -8.9893440660e-01 +8.9657767068e+00 +5.5376216479e+00 1.3142624733e+02 1.3100000000e+02 0.0000e+00 0.0000e+00
      997  1    1    2    0    0 -2.4355085295e+01 +4.8283634238e+00 +3.8746259371e+02 3.8877209879e+02 2.0000000000e+01 0.0000e+00 0.0000e+00
</event>
<event>
 5      1 +2.3375200e-06 2.11745100e+02 7.95774700e-02 4.83620700e-01
       13 -1    0    0    0    0 +0.0000000000e+00 +0.0000000000e+00 +4.9999998884e+02 5.0000000000e+02 1.0566000000e-01 0.0000e+00 -1.0000e+00
      994 -1    0    0    0    0 -0.0000000000e+00 -0.0000000000e+00 +0.0000000000e+00 1.3100000000e+02 1.3100000000e+02 0.0000e+00 0.0000e+00
       13  1    1    2    0    0 -1.3763620131e+00 +1.5752920333e+01 +8.3601145241e+01 8.5083556114e+01 1.0566000000e-01 0.0000e+00 1.0000e+00
      994  1    1    2    0    0 +6.8916720196e+00 +1.7243210445e+00 +2.5886112577e+00 1.3121802214e+02 1.3100000000e+02 0.0000e+00 0.0000e+00
      997  1    1    2    0    0 -5.5153100065e+00 -1.7477241378e+01 +4.1381023234e+02 4.1469842174e+02 2.0000000000e+01 0.0000e+00 0.0000e+00
</event>
<event>
 5      1 +2.3375200e-06 2.09930500e+02 7.95774700e-02 4.86573100e-01
       13 -1    0    0    0    0 +0.0000000000e+00 +0.0000000000e+00 +4.9999998884e+02 5.0000000000e+02 1.0566000000e-01 0.0000e+00 1.0000e+00
      994 -1    0    0    0    0 -0.0000000000e+00 -0.0000000000e+00 +0.0000000000e+00 1.3100000000e+02 1.3100000000e+02 0.0000e+00 0.0000e+00
       13  1    1    2    0    0 +3.0707556755e+01 +7.5042376052e+00 +1.2437865204e+02 1.2833287915e+02 1.0566000000e-01 0.0000e+00 -1.0000e+00
      994  1    1    2    0    0 -3.4366529301e+01 +1.4657961537e+01 +1.0846923460e+01 1.3665493010e+02 1.3100000000e+02 0.0000e+00 0.0000e+00
      997  1    1    2    0    0 +3.6589725463e+00 -2.2162199142e+01 +3.6477441334e+02 3.6601219075e+02 2.0000000000e+01 0.0000e+00 0.0000e+00
</event>
<event>
 5      1 +2.3375200e-06 2.07258800e+02 7.95774700e-02 4.91039700e-01
       13 -1    0    0    0    0 +0.0000000000e+00 +0.0000000000e+00 +4.9999998884e+02 5.0000000000e+02 1.0566000000e-01 0.0000e+00 1.0000e+00
      994 -1    0    0    0    0 -0.0000000000e+00 -0.0000000000e+00 +0.0000000000e+00 1.3100000000e+02 1.3100000000e+02 0.0000e+00 0.0000e+00
       13  1    1    2    0    0 -1.5336292288e+01 -1.5018167202e+01 +3.5303872250e+01 4.1317330106e+01 1.0566000000e-01 0.0000e+00 -1.0000e+00
      994  1    1    2    0    0 +2.3012135403e+01 +1.2198495835e+01 +9.4218718029e+00 1.3389597957e+02 1.3100000000e+02 0.0000e+00 0.0000e+00
      997  1    1    2    0    0 -7.6758431149e+00 +2.8196713670e+00 +4.5527424478e+02 4.5578669032e+02 2.0000000000e+01 0.0000e+00 0.0000e+00
</event>
<event>
 5      1 +2.3375200e-06 2.12145900e+02 7.95774700e-02 4.82977300e-01
       13 -1    0    0    0    0 +0.0000000000e+00 +0.0000000000e+00 +4.9999998884e+02 5.0000000000e+02 1.0566000000e-01 0.0000e+00 -1.0000e+00
      994 -1    0    0    0    0 -0.0000000000e+00 -0.0000000000e+00 +0.0000000000e+00 1.3100000000e+02 1.3100000000e+02 0.0000e+00 0.0000e+00
       13  1    1    2    0    0 +5.7451332962e+00 +1.1466284489e+01 +4.4236012469e+01 4.6057770243e+01 1.0566000000e-01 0.0000e+00 1.0000e+00
      994  1    1    2    0    0 -8.4668585044e+00 -1.3833355697e+01 +3.3198672656e+00 1.3204192873e+02 1.3100000000e+02 0.0000e+00 0.0000e+00
      997  1    1    2    0    0 +2.7217252082e+00 +2.3670712077e+00 +4.5244410910e+02 4.5290030103e+02 2.0000000000e+01 0.0000e+00 0.0000e+00
</event>
<event>
 5      1 +2.3375200e-06 2.08305000e+02 7.95774700e-02 4.89273400e-01
       13 -1    0    0    0    0 +0.0000000000e+00 +0.0000000000e+00 +4.9999998884e+02 5.0000000000e+02 1.0566000000e-01 0.0000e+00 1.0000e+00
      994 -1    0    0    0    0 -0.0000000000e+00 -0.0000000000e+00 +0.0000000000e+00 1.3100000000e+02 1.3100000000e+02 0.0000e+00 0.0000e+00
       13  1    1    2    0    0 +2.1263726470e+01 -6.4824684329e+00 +6.5025974776e+01 6.8720863062e+01 1.0566000000e-01 0.0000e+00 -1.0000e+00
      994  1    1    2    0    0 +8.6829317559e+00 +1.3785142672e+01 +6.4330937130e+00 1.3216583582e+02 1.3100000000e+02 0.0000e+00 0.0000e+00
      997  1    1    2    0    0 -2.9946658225e+01 -7.3026742394e+00 +4.2854092035e+02 4.3011330112e+02 2.0000000000e+01 0.0000e+00 0.0000e+00
</event>
<event>
 5      1 +2.3375200e-06 2.04652300e+02 7.95774700e-02 4.95541200e-01
       13 -1    0    0    0    0 +0.0000000000e+00 +0.0000000000e+00 +4.9999998884e+02 5.0000000000e+02 1.0566000000e-01 0.0000e+00 -1.0000e+00
      994 -1    0    0    0    0 -0.0000000000e+00 -0.0000000000e+00 +0.0000000000e+00 1.3100000000e+02 1.3100000000e+02 0.0000e+00 0.0000e+00
       13  1    1    2    0    0 -9.1989411592e-01 +1.5223880212e+01 +1.0690631422e+01 1.8625614033e+01 1.0566000000e-01 0.0000e+00 1.0000e+00
      994  1    1    2    0    0 +1.4212886118e+00 -2.2979562648e+01 +1.0866876269e+01 1.3345099985e+02 1.3100000000e+02 0.0000e+00 0.0000e+00
      997  1    1    2    0    0 -5.0139449590e-01 +7.7556824364e+00 +4.7844248114e+02 4.7892338612e+02 2.0000000000e+01 0.0000e+00 0.0000e+00
</event>
<event>
 5      1 +2.3375200e-06 2.10394100e+02 7.95774700e-02 4.85812800e-01
       13 -1    0    0    0    0 +0.0000000000e+00 +0.0000000000e+00 +4.9999998884e+02 5.0000000000e+02 1.0566000000e-01 0.0000e+00 1.0000e+00
      994 -1    0    0    0    0 -0.0000000000e+00 -0.0000000000e+00 +0.0000000000e+00 1.3100000000e+02 1.3100000000e+02 0.0000e+00 0.0000e+00
       13  1    1    2    0    0 +3.9832389818e+00 -9.3905161171e+00 +1.8830770251e+01 2.1416280210e+01 1.0566000000e-01 0.0000e+00 -1.0000e+00
      994  1    1    2    0    0 +6.5982024286e-01 -1.2427945764e+01 +4.1817623115e+00 1.3165628103e+02 1.3100000000e+02 0.0000e+00 0.0000e+00
      997  1    1    2    0    0 -4.6430592246e+00 +2.1818461881e+01 +4.7698745627e+02 4.7792743876e+02 2.0000000000e+01 0.0000e+00 0.0000e+00
</event>
<event>
 5      1 +2.3375200e-06 2.09326400e+02 7.95774700e-02 4.87570400e-01
       13 -1    0    0    0    0 +0.0000000000e+00 +0.0000000000e+00 +4.9999998884e+02 5.0000000000e+02 1.0566000000e-01 0.0000e+00 1.0000e+00
      994 -1    0    0    0    0 -0.0000000000e+00 -0.0000000000e+00 +0.0000000000e+00 1.3100000000e+02 1.3100000000e+02 0.0000e+00 0.0000e+00
       13  1    1    2    0    0 -1.4904255416e+01 +1.5521500097e+01 +6.4534310074e+01 6.8027510138e+01 1.0566000000e-01 0.0000e+00 -1.0000e+00
      994  1    1    2    0    0 +9.9851569752e-01 -7.5690803448e+00 +4.5557486672e+00 1.3130134370e+02 1.3100000000e+02 0.0000e+00 0.0000e+00
      997  1    1    2    0    0 +1.3905739718e+01 -7.9524197521e+00 +4.3090993009e+02 4.3167114616e+02 2.0000000000e+01 0.0000e+00 0.0000e+00
</event>
<event>
 5      1 +2.3375200e-06 2.09298400e+02 7.95774700e-02 4.87616800e-01
       13 -1    0    0    0    0 +0.0000000000e+00 +0.0000000000e+00 +4.9999998884e+02 5.0000000000e+02 1.0566000000e-01 0.0000e+00 1.0000e+00
      994 -1    0    0    0    0 -0.0000000000e+00 -0.0000000000e+00 +0.0000000000e+00 1.3100000000e+02 1.3100000000e+02 0.0000e+00 0.0000e+00
       13  1    1    2    0    0 -2.0210668752e+01 -2.1853088285e+00 +1.0887216197e+02 1.1075380590e+02 1.0566000000e-01 0.0000e+00 -1.0000e+00
      994  1    1    2    0    0 -2.2086987169e+01 -2.4434968193e-01 +6.7466846932e+00 1.3302034605e+02 1.3100000000e+02 0.0000e+00 0.0000e+00
      997  1    1    2    0    0 +4.2297655922e+01 +2.4296585104e+00 +3.8438114217e+02 3.8722584805e+02 2.0000000000e+01 0.0000e+00 0.0000e+00
</event>
<event>
 5      1 +2.3375200e-06 1.61800400e+02 7.95774700e-02 5.99253900e-01
       13 -1    0    0    0    0 +0.0000000000e+00 +0.0000000000e+00 +4.9999998884e+02 5.0000000000e+02 1.0566000000e-01 0.0000e+00 -1.0000e+00
      994 -1    0    0    0    0 -0.0000000000e+00 -0.0000000000e+00 +0.0000000000e+00 1.3100000000e+02 1.3100000000e+02 0.0000e+00 0.0000e+00
       13  1    1    2    0    0 -2.6659374593e+01 -7.1244672969e+01 +2.0765838902e+02 2.2115276027e+02 1.0566000000e-01 0.0000e+00 1.0000e+00
      994  1    1    2    0    0 -3.9876677723e+01 +2.6003130924e+01 +4.1153902988e+01 1.4533050600e+02 1.3100000000e+02 0.0000e+00 0.0000e+00
      997  1    1    2    0    0 +6.6536052315e+01 +4.5241542045e+01 +2.5118769682e+02 2.6451673372e+02 2.0000000000e+01 0.0000e+00 0.0000e+00
</event>
<event>
 5      1 +2.3375200e-06 2.07355700e+02 7.95774700e-02 4.90875200e-01
       13 -1    0    0    0    0 +0.0000000000e+00 +0.0000000000e+00 +4.9999998884e+02 5.0000000000e+02 1.0566000000e-01 0.0000e+00 -1.0000e+00
      994 -1    0    0    0    0 -0.0000000000e+00 -0.0000000000e+00 +0.0000000000e+00 1.3100000000e+02 1.3100000000e+02 0.0000e+00 0.0000e+00
       13  1    1    2    0    0 -8.7481467553e-01 -1.7150103026e+01 +2.5239973647e+01 3.0527999742e+01 1.0566000000e-01 0.0000e+00 1.0000e+00
      994  1    1    2    0    0 +3.0838640286e+00 +8.1210852090e+00 +6.2428669668e+00 1.3143605149e+02 1.3100000000e+02 0.0000e+00 0.0000e+00
      997  1    1    2    0    0 -2.2090493530e+00 +9.0290178173e+00 +4.6851714822e+02 4.6903594877e+02 2.0000000000e+01 0.0000e+00 0.0000e+00
</event>
<event>
 5      1 +2.3375200e-06 2.10553200e+02 7.95774700e-02 4.85552700e-01
       13 -1    0    0    0    0 +0.0000000000e+00 +0.0000000000e+00 +4.9999998884e+02 5.0000000000e+02 1.0566000000e-01 0.0000e+00 1.0000e+00
      994 -1    0    0    0    0 -0.0000000000e+00 -0.0000000000e+00 +0.0000000000e+00 1.3100000000e+02 1.3100000000e+02 0.0000e+00 0.0000e+00
       13  1    1    2    0    0 +7.6991741690e-01 +1.8543504237e+01 +6.2629842884e+01 6.5321992513e+01 1.0566000000e-01 0.0000e+00 -1.0000e+00
      994  1    1    2    0    0 +7.9652032054e+00 -7.8952595700e+00 +3.9091116348e+00 1.3153729790e+02 1.3100000000e+02 0.0000e+00 0.0000e+00
      997  1    1    2    0    0 -8.7351206223e+00 -1.0648244667e+01 +4.3346103432e+02 4.3414070958e+02 2.0000000000e+01 0.0000e+00 0.0000e+00
</event>
<event>
 5      1 +2.3375200e-06 2.05916600e+02 7.95774700e-02 4.93339600e-01
       13 -1    0    0    0    0 +0.0000000000e+00 +0.0000000000e+00 +4.9999998884e+02 5.0000000000e+02 1.0566000000e-01 0.0000e+00 -1.0000e+00
      994 -1    0    0    0    0 -0.0000000000e+00 -0.0000000000e+00 +0.0000000000e+00 1.3100000000e+02 1.3100000000e+02 0.0000e+00 0.0000e+00
       13  1    1    2    0    0 +1.9533640856e+01 -2.4726331571e+01 +1.6403314897e+02 1.6703245111e+02 1.0566000000e-01 0.0000e+00 1.0000e+00
      994  1    1    2    0    0 +1.0778895275e+01 -1.2958674666e+01 +8.5088926146e+00 1.3235374224e+02 1.3100000000e+02 0.0000e+00 0.0000e+00
      997  1    1    2    0    0 -3.0312536131e+01 +3.7685006236e+01 +3.2745794725e+02 3.3161380665e+02 2.0000000000e+01 0.0000e+00 0.0000e+00
</event>
<event>
 5      1 +2.3375200e-06 2.03590700e+02 7.95774700e-02 4.97417100e-01
       13 -1    0    0    0    0 +0.0000000000e+00 +0.0000000000e+00 +4.9999998884e+02 5.0000000000e+02 1.0566000000e-01 0.0000e+00 1.0000e+00
      994 -1    0    0    0    0 -0.0000000000e+00 -0.0000000000e+00 +0.0000000000e+00 1.3100000000e+02 1.3100000000e+02 0.0000e+00 0.0000e+00
       13  1    1    2    0    0 -5.6765339438e+01 +2.8405929420e+01 +1.4124545310e+02 1.5485312323e+02 1.0566000000e-01 0.0000e+00 -1.0000e+00
      994  1    1    2    0    0 +5.6202143087e+01 -4.4792202107e+01 +3.7765450775e+01 1.5411765483e+02 1.3100000000e+02 0.0000e+00 0.0000e+00
      997  1    1    2    0    0 +5.6319635144e-01 +1.6386272687e+01 +3.2098908496e+02 3.2202922195e+02 2.0000000000e+01 0.0000e+00 0.0000e+00
</event>
<event>
 5      1 +2.3375200e-06 1.97294500e+02 7.95774700e-02 5.09083900e-01
       13 -1    0    0    0    0 +0.0000000000e+00 +0.0000000000e+00 +4.9999998884e+02 5.0000000000e+02 1.0566000000e-01 0.0000e+00 1.0000e+00
      994 -1    0    0    0    0 -0.0000000000e+00 -0.0000000000e+00 +0.0000000000e+00 1.3100000000e+02 1.3100000000e+02 0.0000e+00 0.0000e+00
       13  1    1    2    0    0 +3.1467478225e+00 -3.5391319643e+01 +3.3530372614e+01 4.8854319968e+01 1.0566000000e-01 0.0000e+00 -1.0000e+00
      994  1    1    2    0    0 -7.7385548979e+00 +4.2630160857e+01 +2.5104202030e+01 1.4024420418e+02 1.3100000000e+02 0.0000e+00 0.0000e+00
      997  1    1    2    0    0 +4.5918070754e+00 -7.2388412146e+00 +4.4136541419e+02 4.4190147585e+02 2.0000000000e+01 0.0000e+00 0.0000e+00
</event>
<event>
 5      1 +2.3375200e-06 2.12320100e+02 7.95774700e-02 4.82698600e-01
       13 -1    0    0    0    0 +0.0000000000e+00 +0.0000000000e+00 +4.9999998884e+02 5.0000000000e+02 1.0566000000e-01 0.0000e+00 -1.0000e+00
      994 -1    0    0    0    0 -0.0000000000e+00 -0.0000000000e+00 +0.0000000000e+00 1.3100000000e+02 1.3100000000e+02 0.0000e+00 0.0000e+00
       13  1    1    2    0    0 +7.3670679164e+00 +1.1649277787e+01 +7.0711470486e+01 7.2042366598e+01 1.0566000000e-01 0.0000e+00 1.0000e+00
      994  1    1    2    0    0 +4.8322026757e+00 -9.0267418566e+00 +2.4027462119e+00 1.3142148013e+02 1.3100000000e+02 0.0000e+00 0.0000e+00
      997  1    1    2    0    0 -1.2199270592e+01 -2.6225359306e+00 +4.2688577214e+02 4.2753615327e+02 2.0000000000e+01 0.0000e+00 0.0000e+00
</event>
<event>
 5      1 +2.3375200e-06 1.55017300e+02 7.95774700e-02 6.23571400e-01
       13 -1    0    0    0    0 +0.0000000000e+00 +0.0000000000e+00 +4.9999998884e+02 5.0000000000e+02 1.0566000000e-01 0.0000e+00 -1.0000e+00
      994 -1    0    0    0    0 -0.0000000000e+00 -0.0000000000e+00 +0.0000000000e+00 1.3100000000e+02 1.3100000000e+02 0.0000e+00 0.0000e+00
       13  1    1    2    0    0 -1.1137289494e+01 +8.2759511196e+01 +1.0375699681e+02 1.3318671653e+02 1.0566000000e-01 0.0000e+00 1.0000e+00
      994  1    1    2    0    0 -2.2783410490e+01 -6.1465655105e+01 +5.9501627196e+01 1.5810931089e+02 1.3100000000e+02 0.0000e+00 0.0000e+00
      997  1    1    2    0    0 +3.3920699985e+01 -2.1293856090e+01 +3.3674136483e+02 3.3970397258e+02 2.0000000000e+01 0.0000e+00 0.0000e+00
</event>
<event>
 5      1 +2.3375200e-06 2.08150400e+02 7.95774700e-02 4.89532900e-01
       13 -1    0    0    0    0 +0.0000000000e+00 +0.0000000000e+00 +4.9999998884e+02 5.0000000000e+02 1.0566000000e-01 0.0000e+00 1.0000e+00
      994 -1    0    0    0    0 -0.0000000000e+00 -0.0000000000e+00 +0.0000000000e+00 1.3100000000e+02 1.3100000000e+02 0.0000e+00 0.0000e+00
       13  1    1    2    0    0 +8.1512610531e+00 -1.8224192666e+01 +3.5709812687e+01 4.0911687099e+01 1.0566000000e-01 0.0000e+00 -1.0000e+00
      994  1    1    2    0    0 -1.6391383023e+01 +1.7472568456e+01 +8.1360700881e+00 1.3342100180e+02 1.3100000000e+02 0.0000e+00 0.0000e+00
      997  1    1    2    0    0 +8.2401219701e+00 +7.5162421021e-01 +4.5615410606e+02 4.5666731110e+02 2.0000000000e+01 0.0000e+00 0.0000e+00
</event>
<event>
 5      1 +2.3375200e-06 2.11037700e+02 7.95774700e-02 4.84764100e-01
       13 -1    0    0    0    0 +0.0000000000e+00 +0.0000000000e+00 +4.9999998884e+02 5.0000000000e+02 1.0566000000e-01 0.0000e+00 1.0000e+00
      994 -1    0    0    0    0 -0.0000000000e+00 -0.0000000000e+00 +0.0000000000e+00 1.3100000000e+02 1.3100000000e+02 0.0000e+00 0.0000e+00
       13  1    1    2    0    0 +2.6273562097e+00 +1.1081695978e+01 +3.5407848873e+01 3.7194541431e+01 1.0566000000e-01 0.0000e+00 -1.0000e+00
      994  1    1    2    0    0 +3.3509656494e+01 +9.9174292461e+00 +9.0175301592e+00 1.3588071361e+02 1.3100000000e+02 0.0000e+00 0.0000e+00
      997  1    1    2    0    0 -3.6137012704e+01 -2.0999125224e+01 +4.5557460980e+02 4.5792474496e+02 2.0000000000e+01 0.0000e+00 0.0000e+00
</event>
<event>
 5      1 +2.3375200e-06 2.12836800e+02 7.95774700e-02 4.81875100e-01
       13 -1    0    0    0    0 +0.0000000000e+00 +0.0000000000e+00 +4.9999998884e+02 5.0000000000e+02 1.0566000000e-01 0.0000e+00 1.0000e+00
      994 -1    0    0    0    0 -0.0000000000e+00 -0.0000000000e+00 +0.0000000000e+00 1.3100000000e+02 1.3100000000e+02 0.0000e+00 0.0000e+00
       13  1    1    2    0    0 -1.1447957500e+01 +6.7115454973e+00 +7.4157029893e+01 7.5335096870e+01 1.0566000000e-01 0.0000e+00 -1.0000e+00
      994  1    1    2    0    0 +1.7823541242e+01 +2.8410414111e+00 +3.0800047399e+00 1.3227334035e+02 1.3100000000e+02 0.0000e+00 0.0000e+00
      997  1    1    2    0    0 -6.3755837426e+00 -9.5525869084e+00 +4.2276295420e+02 4.2339156278e+02 2.0000000000e+01 0.0000e+00 0.0000e+00
</event>
<event>
 5      1 +2.3375200e-06 2.05714400e+02 7.95774700e-02 4.93689400e-01
       13 -1    0    0    0    0 +0.0000000000e+00 +0.0000000000e+00 +4.9999998884e+02 5.0000000000e+02 1.0566000000e-01 0.0000e+00 1.0000e+00
      994 -1    0    0    0    0 -0.0000000000e+00 -0.0000000000e+00 +0.0000000000e+00 1.3100000000e+02 1.3100000000e+02 0.0000e+00 0.0000e+00
       13  1    1    2    0    0 +2.5111740830e+01 +1.2023331735e+00 +4.0231642086e+01 4.7440924543e+01 1.0566000000e-01 0.0000e+00 -1.0000e+00
      994  1    1    2    0    0 -2.5507456358e+01 +1.7039817522e+01 +1.2115143271e+01 1.3508798025e+02 1.3100000000e+02 0.0000e+00 0.0000e+00
      997  1    1    2    0    0 +3.9571552811e-01 -1.8242150696e+01 +4.4765320348e+02 4.4847109521e+02 2.0000000000e+01 0.0000e+00 0.0000e+00
</event>
<event>
 5      1 +2.3375200e-06 2.07110100e+02 7.95774700e-02 4.91292700e-01
       13 -1    0    0    0    0 +0.0000000000e+00 +0.0000000000e+00 +4.9999998884e+02 5.0000000000e+02 1.0566000000e-01 0.0000e+00 -1.0000e+00
      994 -1    0    0    0    0 -0.0000000000e+00 -0.0000000000e+00 +0.0000000000e+00 1.3100000000e+02 1.3100000000e+02 0.0000e+00 0.0000e+00
       13  1    1    2    0    0 +5.5453461466e+00 +1.2243235640e+01 +1.2993364840e+01 1.8694554735e+01 1.0566000000e-01 0.0000e+00 1.0000e+00
      994  1    1    2    0    0 +2.8793946573e-01 -1.5136053961e+01 +7.2320026728e+00 1.3207000000e+02 1.3100000000e+02 0.0000e+00 0.0000e+00
      997  1    1    2    0    0 -5.8332856123e+00 +2.8928183212e+00 +4.7977462132e+02 4.8023544526e+02 2.0000000000e+01 0.0000e+00 0.0000e+00
</event>
<event>
 5      1 +2.3375200e-06 2.08728700e+02 7.95774700e-02 4.88564400e-01
       13 -1    0    0    0    0 +0.0000000000e+00 +0.0000000000e+00 +4.9999998884e+02 5.0000000000e+02 1.0566000000e-01 0.0000e+00 -1.0000e+00
      994 -1    0    0    0    0 -0.0000000000e+00 -0.0000000000e+00 +0.0000000000e+00 1.3100000000e+02 1.3100000000e+02 0.0000e+00 0.0000e+00
       13  1    1    2    0    0 +1.6000361318e+01 +6.1516414208e+00 +2.6884221963e+01 3.1884585760e+01 1.0566000000e-01 0.0000e+00 1.0000e+00
      994  1    1    2    0    0 -3.2773984053e+01 +1.3572316018e+00 +1.0227645920e+01 1.3543109262e+02 1.3100000000e+02 0.0000e+00 0.0000e+00
      997  1    1    2    0    0 +1.6773622736e+01 -7.5088730227e+00 +4.6288812095e+02 4.6368432162e+02 2.0000000000e+01 0.0000e+00 0.0000e+00
</event>
<event>
 5      1 +2.3375200e-06 2.03376500e+02 7.95774700e-02 4.97798800e-01
       13 -1    0    0    0    0 +0.0000000000e+00 +0.0000000000e+00 +4.9999998884e+02 5.0000000000e+02 1.0566000000e-01 0.0000e+00 1.0000e+00
      994 -1    0    0    0    0 -0.0000000000e+00 -0.0000000000e+00 +0.0000000000e+00 1.3100000000e+02 1.3100000000e+02 0.0000e+00 0.0000e+00
       13  1    1    2    0    0 -3.9759681704e+01 +4.9134148092e+00 +1.0454239482e+02 1.1195578329e+02 1.0566000000e-01 0.0000e+00 -1.0000e+00
      994  1    1    2    0    0 +1.0601573407e+01 -9.2662390349e+00 +1.0206284612e+01 1.3214925195e+02 1.3100000000e+02 0.0000e+00 0.0000e+00
      997  1    1    2    0    0 +2.9158108297e+01 +4.3528242257e+00 +3.8525130940e+02 3.8689496476e+02 2.0000000000e+01 0.0000e+00 0.0000e+00
</event>
<event>
 5      1 +2.3375200e-06 2.12401600e+02 7.95774700e-02 4.82568300e-01
       13 -1    0    0    0    0 +0.0000000000e+00 +0.0000000000e+00 +4.9999998884e+02 5.0000000000e+02 1.0566000000e-01 0.0000e+00 1.0000e+00
      994 -1    0    0    0    0 -0.0000000000e+00 -0.0000000000e+00 +0.0000000000e+00 1.3100000000e+02 1.3100000000e+02 0.0000e+00 0.0000e+00
       13  1    1    2    0    0 +1.2745268122e+01 -1.2056731530e+01 +9.1469121268e+01 9.3136555360e+01 1.0566000000e-01 0.0000e+00 -1.0000e+00
      994  1    1    2    0    0 -1.3504507174e+01 +1.2696423328e+01 +3.5136321594e+00 1.3235148843e+02 1.3100000000e+02 0.0000e+00 0.0000e+00
      997  1    1    2    0    0 +7.5923905274e-01 -6.3969179833e-01 +4.0501723541e+02 4.0551195621e+02 2.0000000000e+01 0.0000e+00 0.0000e+00
</event>
<event>
 5      1 +2.3375200e-06 2.11477900e+02 7.95774700e-02 4.84051400e-01
       13 -1    0    0    0    0 +0.0000000000e+00 +0.0000000000e+00 +4.9999998884e+02 5.0000000000e+02 1.0566000000e-01 0.0000e+00 -1.0000e+00
      994 -1    0    0    0    0 -0.0000000000e+00 -0.0000000000e+00 +0.0000000000e+00 1.3100000000e+02 1.3100000000e+02 0.0000e+00 0.0000e+00
       13  1    1    2    0    0 +1.8291751824e+01 -1.9885806258e+01 +1.0272538454e+02 1.0621934507e+02 1.0566000000e-01 0.0000e+00 1.0000e+00
      994  1    1    2    0    0 -2.4341321781e+01 +3.3129818097e+01 +1.1026703708e+01 1.3774132636e+02 1.3100000000e+02 0.0000e+00 0.0000e+00
      997  1    1    2    0    0 +6.0495699573e+00 -1.3244011838e+01 +3.8624790059e+02 3.8703932856e+02 2.0000000000e+01 0.0000e+00 0.0000e+00
</event>
<event>
 5      1 +2.3375200e-06 2.11095100e+02 7.95774700e-02 4.84670900e-01
       13 -1    0    0    0    0 +0.0000000000e+00 +0.0000000000e+00 +4.9999998884e+02 5.0000000000e+02 1.0566000000e-01 0.0000e+00 -1.0000e+00
      994 -1    0    0    0    0 -0.0000000000e+00 -0.0000000000e+00 +0.0000000000e+00 1.3100000000e+02 1.3100000000e+02 0.0000e+00 0.0000e+00
       13  1    1    2    0    0 +2.3967712933e+01 -1.5302678557e+01 +1.1226070734e+02 1.1580630730e+02 1.0566000000e-01 0.0000e+00 1.0000e+00
      994  1    1    2    0    0 -2.8642568668e+01 +2.1388163277e+01 +9.2561606425e+00 1.3610483745e+02 1.3100000000e+02 0.0000e+00 0.0000e+00
      997  1    1    2    0    0 +4.6748557349e+00 -6.0854847203e+00 +3.7848312086e+02 3.7908885525e+02 2.0000000000e+01 0.0000e+00 0.0000e+00
</event>
<event>
 5      1 +2.3375200e-06 2.13184600e+02 7.95774700e-02 4.81323700e-01
       13 -1    0    0    0    0 +0.0000000000e+00 +0.0000000000e+00 +4.9999998884e+02 5.0000000000e+02 1.0566000000e-01 0.0000e+00 -1.0000e+00
      994 -1    0    0    0    0 -0.0000000000e+00 -0.0000000000e+00 +0.0000000000e+00 1.3100000000e+02 1.3100000000e+02 0.0000e+00 0.0000e+00
       13  1    1    2    0    0 +5.7177974858e+00 -1.1032196619e+01 +4.0901377503e+01 4.2747355661e+01 1.0566000000e-01 0.0000e+00 1.0000e+00
      994  1    1    2    0    0 +5.2208720678e+00 +7.0721153557e+01 +2.6918311083e+01 1.5137481474e+02 1.3100000000e+02 0.0000e+00 0.0000e+00
      997  1    1    2    0    0 -1.0938669554e+01 -5.9688956938e+01 +4.3218030025e+02 4.3687782960e+02 2.0000000000e+01 0.0000e+00 0.0000e+00
</event>
<event>
 5      1 +2.3375200e-06 2.10362500e+02 7.95774700e-02 4.85864500e-01
       13 -1    0    0    0    0 +0.0000000000e+00 +0.0000000000e+00 +4.9999998884e+02 5.0000000000e+02 1.0566000000e-01 0.0000e+00 -1.0000e+00
      994 -1    0    0    0    0 -0.0000000000e+00 -0.0000000000e+00 +0.0000000000e+00 1.3100000000e+02 1.3100000000e+02 0.0000e+00 0.0000e+00
       13  1    1    2    0    0 +7.5433334042e+00 -1.2446186039e+01 +3.4697371923e+01 3.7626163878e+01 1.0566000000e-01 0.0000e+00 1.0000e+00
      994  1    1    2    0    0 -1.2764179604e+01 +4.9562572437e-02 +4.2472531671e+00 1.3168889815e+02 1.3100000000e+02 0.0000e+00 0.0000e+00
      997  1    1    2    0    0 +5.2208462000e+00 +1.2396623466e+01 +4.6105536375e+02 4.6168493797e+02 2.0000000000e+01 0.0000e+00 0.0000e+00
</event>
<event>
 5      1 +2.3375200e-06 2.12348800e+02 7.95774700e-02 4.82652600e-01
       13 -1    0    0    0    0 +0.0000000000e+00 +0.0000000000e+00 +4.9999998884e+02 5.0000000000e+02 1.0566000000e-01 0.0000e+00 1.0000e+00
      994 -1    0    0    0    0 -0.0000000000e+00 -0.0000000000e+00 +0.0000000000e+00 1.3100000000e+02 1.3100000000e+02 0.0000e+00 0.0000e+00
       13  1    1    2    0    0 +1.0315983321e+01 -2.1019350229e+01 +1.2613135892e+02 1.2828625594e+02 1.0566000000e-01 0.0000e+00 -1.0000e+00
      994  1    1    2    0    0 -2.2800011672e+01 +2.2685259423e+01 +6.9867904097e+00 1.3507137657e+02 1.3100000000e+02 0.0000e+00 0.0000e+00
      997  1    1    2    0    0 +1.2484028350e+01 -1.6659091940e+00 +3.6688183950e+02 3.6764236749e+02 2.0000000000e+01 0.0000e+00 0.0000e+00
</event>
<event>
 5      1 +2.3375200e-06 2.08327200e+02 7.95774700e-02 4.89236000e-01
       13 -1    0    0    0    0 +0.0000000000e+00 +0.0000000000e+00 +4.9999998884e+02 5.0000000000e+02 1.0566000000e-01 0.0000e+00 -1.0000e+00
      994 -1    0    0    0    0 -0.0000000000e+00 -0.0000000000e+00 +0.0000000000e+00 1.3100000000e+02 1.3100000000e+02 0.0000e+00 0.0000e+00
       13  1    1    2    0    0 +8.8831072404e+00 -1.7199786509e+01 +4.0598772875e+01 4.4977925399e+01 1.0566000000e-01 0.0000e+00 1.0000e+00
      994  1    1    2    0    0 -6.7158222461e+00 +3.5107470238e+00 +5.3590868297e+00 1.3132839535e+02 1.3100000000e+02 0.0000e+00 0.0000e+00
      997  1    1    2    0    0 -2.1672849943e+00 +1.3689039485e+01 +4.5404212913e+02 4.5469367925e+02 2.0000000000e+01 0.0000e+00 0.0000e+00
</event>
<event>
 5      1 +2.3375200e-06 1.93490500e+02 7.95774700e-02 5.16617900e-01
       13 -1    0    0    0    0 +0.0000000000e+00 +0.0000000000e+00 +4.9999998884e+02 5.0000000000e+02 1.0566000000e-01 0.0000e+00 -1.0000e+00
      994 -1    0    0    0    0 -0.0000000000e+00 -0.0000000000e+00 +0.0000000000e+00 1.3100000000e+02 1.3100000000e+02 0.0000e+00 0.0000e+00
       13  1    1    2    0    0 -1.0123241516e+01 +2.6318667931e+01 +1.8307251618e+01 3.3620216036e+01 1.0566000000e-01 0.0000e+00 1.0000e+00
      994  1    1    2    0    0 -1.3457707822e+01 -3.3070206776e+00 +1.9011344497e+01 1.3309574563e+02 1.3100000000e+02 0.0000e+00 0.0000e+00
      997  1    1    2    0    0 +2.3580949338e+01 -2.3011647253e+01 +4.6268139272e+02 4.6428403833e+02 2.0000000000e+01 0.0000e+00 0.0000e+00
</event>
<event>
 5      1 +2.3375200e-06 2.06883900e+02 7.95774700e-02 4.91678200e-01
       13 -1    0    0    0    0 +0.0000000000e+00 +0.0000000000e+00 +4.9999998884e+02 5.0000000000e+02 1.0566000000e-01 0.0000e+00 1.0000e+00
      994 -1    0    0    0    0 -0.0000000000e+00 -0.0000000000e+00 +0.0000000000e+00 1.3100000000e+02 1.3100000000e+02 0.0000e+00 0.0000e+00
       13  1    1    2    0    0 +8.2114350669e+00 +1.1869865045e+01 +1.7372295474e+01 2.2586039407e+01 1.0566000000e-01 0.0000e+00 -1.0000e+00
      994  1    1    2    0    0 -4.0502453789e+01 +3.8515014030e+01 +2.2753220890e+01 1.4423094026e+02 1.3100000000e+02 0.0000e+00 0.0000e+00
      997  1    1    2    0    0 +3.2291018722e+01 -5.0384879075e+01 +4.5987447247e+02 4.6418302033e+02 2.0000000000e+01 0.0000e+00 0.0000e+00
</event>
<event>
 5      1 +2.3375200e-06 1.99203300e+02 7.95774700e-02 5.05445400e-01
       13 -1    0    0    0    0 +0.0000000000e+00 +0.0000000000e+00 +4.9999998884e+02 5.0000000000e+02 1.0566000000e-01 0.0000e+00 -1.0000e+00
      994 -1    0    0    0    0 -0.0000000000e+00 -0.0000000000e+00 +0.0000000000e+00 1.3100000000e+02 1.3100000000e+02 0.0000e+00 0.0000e+00
       13  1    1    2    0    0 -1.9453248001e+01 -3.2920538576e+01 +4.9763091200e+01 6.2758004492e+01 1.0566000000e-01 0.0000e+00 1.0000e+00
      994  1    1    2    0    0 +4.2454426779e+01 +1.4680941191e+01 +2.4029776040e+01 1.4055724287e+02 1.3100000000e+02 0.0000e+00 0.0000e+00
      997  1    1    2    0    0 -2.3001178777e+01 +1.8239597385e+01 +4.2620712160e+02 4.2768475264e+02 2.0000000000e+01 0.0000e+00 0.0000e+00
</event>
<event>
 5      1 +2.3375200e-06 2.12648200e+02 7.95774700e-02 4.82175100e-01
       13 -1    0    0    0    0 +0.0000000000e+00 +0.0000000000e+00 +4.9999998884e+02 5.0000000000e+02 1.0566000000e-01 0.0000e+00 -1.0000e+00
      994 -1    0    0    0    0 -0.0000000000e+00 -0.0000000000e+00 +0.0000000000e+00 1.3100000000e+02 1.3100000000e+02 0.0000e+00 0.0000e+00
       13  1    1    2    0    0 +4.6371803196e+00 -9.7575580073e+00 +4.8892087787e+01 5.0071556714e+01 1.0566000000e-01 0.0000e+00 1.0000e+00
      994  1    1    2    0    0 -1.4290261861e+01 +2.8697754786e-01 +2.6325611034e+00 1.3180373408e+02 1.3100000000e+02 0.0000e+00 0.0000e+00
      997  1    1    2    0    0 +9.6530815416e+00 +9.4705804594e+00 +4.4847533995e+02 4.4912470920e+02 2.0000000000e+01 0.0000e+00 0.0000e+00
</event>
<event>
 5      1 +2.3375200e-06 2.01853300e+02 7.95774700e-02 5.00542300e-01
       13 -1    0    0    0    0 +0.0000000000e+00 +0.0000000000e+00 +4.9999998884e+02 5.0000000000e+02 1.0566000000e-01 0.0000e+00 -1.0000e+00
      994 -1    0    0    0    0 -0.0000000000e+00 -0.0000000000e+00 +0.0000000000e+00 1.3100000000e+02 1.3100000000e+02 0.0000e+00 0.0000e+00
       13  1    1    2    0    0 +2.0156075846e+01 +1.4034102095e+01 +2.6194211430e+01 3.5907816581e+01 1.0566000000e-01 0.0000e+00 1.0000e+00
      994  1    1    2    0    0 -2.3203689428e+01 +8.8178250351e+00 +1.3764540206e+01 1.3403965014e+02 1.3100000000e+02 0.0000e+00 0.0000e+00
      997  1    1    2    0    0 +3.0476135821e+00 -2.2851927130e+01 +4.6004123720e+02 4.6105253328e+02 2.0000000000e+01 0.0000e+00 0.0000e+00
</event>
<event>
 5      1 +2.3375200e-06 2.11551500e+02 7.95774700e-02 4.83932700e-01
       13 -1    0    0    0    0 +0.0000000000e+00 +0.0000000000e+00 +4.9999998884e+02 5.0000000000e+02 1.0566000000e-01 0.0000e+00 1.0000e+00
      994 -1    0    0    0    0 -0.0000000000e+00 -0.0000000000e+00 +0.0000000000e+00 1.3100000000e+02 1.3100000000e+02 0.0000e+00 0.0000e+00
       13  1    1    2    0    0 -7.2136866858e+00 -1.6343400350e+01 +7.8419887853e+01 8.0429061822e+01 1.0566000000e-01 0.0000e+00 -1.0000e+00
      994  1    1    2    0    0 -2.6102917401e+00 +1.2035624570e+01 +3.2418723889e+00 1.3161755057e+02 1.3100000000e+02 0.0000e+00 0.0000e+00
      997  1    1    2    0    0 +9.8239784259e+00 +4.3077757805e+00 +4.1833822859e+02 4.1895338761e+02 2.0000000000e+01 0.0000e+00 0.0000e+00
</event>
<event>
 5      1 +2.3375200e-06 2.12396100e+02 7.95774700e-02 4.82577100e-01
       13 -1    0    0    0    0 +0.0000000000e+00 +0.0000000000e+00 +4.9999998884e+02 5.0000000000e+02 1.0566000000e-01 0.0000e+00 1.0000e+00
      994 -1    0    0    0    0 -0.0000000000e+00 -0.0000000000e+00 +0.0000000000e+00 1.3100000000e+02 1.3100000000e+02 0.0000e+00 0.0000e+00
       13  1    1    2    0    0 +6.6057566134e+00 -9.1730391978e+00 +5.4153473269e+01 5.5320796268e+01 1.0566000000e-01 0.0000e+00 -1.0000e+00
      994  1    1    2    0    0 +8.6550008836e+00 +4.1006557665e+00 +2.2784901966e+00 1.3136938736e+02 1.3100000000e+02 0.0000e+00 0.0000e+00
      997  1    1    2    0    0 -1.5260757497e+01 +5.0723834312e+00 +4.4356802537e+02 4.4430981637e+02 2.0000000000e+01 0.0000e+00 0.0000e+00
</event>
<event>
 5      1 +2.3375200e-06 2.04713600e+02 7.95774700e-02 4.95433800e-01
       13 -1    0    0    0    0 +0.0000000000e+00 +0.0000000000e+00 +4.9999998884e+02 5.0000000000e+02 1.0566000000e-01 0.0000e+00 1.0000e+00
      994 -1    0    0    0    0 -0.0000000000e+00 -0.0000000000e+00 +0.0000000000e+00 1.3100000000e+02 1.3100000000e+02 0.0000e+00 0.0000e+00
       13  1    1    2    0    0 +2.9168851595e+01 +3.4636181523e+01 +9.7948841500e+01 1.0790956255e+02 1.0566000000e-01 0.0000e+00 -1.0000e+00
      994  1    1    2    0    0 -1.2098018537e+01 -5.6208163703e+01 +2.5878880521e+01 1.4538375486e+02 1.3100000000e+02 0.0000e+00 0.0000e+00
      997  1    1    2    0    0 -1.7070833058e+01 +2.1571982181e+01 +3.7617226682e+02 3.7770668260e+02 2.0000000000e+01 0.0000e+00 0.0000e+00
</event>
<event>
 5      1 +2.3375200e-06 2.04886800e+02 7.95774700e-02 4.95130300e-01
       13 -1    0    0    0    0 +0.0000000000e+00 +0.0000000000e+00 +4.9999998884e+02 5.0000000000e+02 1.0566000000e-01 0.0000e+00 1.0000e+00
      994 -1    0    0    0    0 -0.0000000000e+00 -0.0000000000e+00 +0.0000000000e+00 1.3100000000e+02 1.3100000000e+02 0.0000e+00 0.0000e+00
       13  1    1    2    0    0 +1.2951293229e+01 -1.6021944756e+01 +2.6442785934e+01 3.3521199293e+01 1.0566000000e-01 0.0000e+00 -1.0000e+00
      994  1    1    2    0    0 -3.4572037884e+01 -1.9062000643e+01 +1.6133840983e+01 1.3776750886e+02 1.3100000000e+02 0.0000e+00 0.0000e+00
      997  1    1    2    0    0 +2.1620744655e+01 +3.5083945399e+01 +4.5742336192e+02 4.5971129185e+02 2.0000000000e+01 0.0000e+00 0.0000e+00
</event>
<event>
 5      1 +2.3375200e-06 2.08565300e+02 7.95774700e-02 4.88837400e-01
       13 -1    0    0    0    0 +0.0000000000e+00 +0.0000000000e+00 +4.9999998884e+02 5.0000000000e+02 1.0566000000e-01 0.0000e+00 1.0000e+00
      994 -1    0    0    0    0 -0.0000000000e+00 -0.0000000000e+00 +0.0000000000e+00 1.3100000000e+02 1.3100000000e+02 0.0000e+00 0.0000e+00
       13  1    1    2    0    0 -3.3295164717e+00 -1.4528121187e+01 +2.2828401759e+01 2.7263511807e+01 1.0566000000e-01 0.0000e+00 -1.0000e+00
      994  1    1    2    0    0 -1.1702199254e+01 +1.2837631974e+01 +6.4042619353e+00 1.3230177940e+02 1.3100000000e+02 0.0000e+00 0.0000e+00
      997  1    1    2    0    0 +1.5031715726e+01 +1.6904892125e+00 +4.7076732514e+02 4.7143470879e+02 2.0000000000e+01 0.0000e+00 0.0000e+00
</event>
<event>
 5      1 +2.3375200e-06 2.03794500e+02 7.95774700e-02 4.97055100e-01
       13 -1    0    0    0    0 +0.0000000000e+00 +0.0000000000e+00 +4.9999998884e+02 5.0000000000e+02 1.0566000000e-01 0.0000e+00 1.0000e+00
      994 -1    0    0    0    0 -0.0000000000e+00 -0.0000000000e+00 +0.0000000000e+00 1.3100000000e+02 1.3100000000e+02 0.0000e+00 0.0000e+00
       13  1    1    2    0    0 +1.7072299138e+01 +1.4693192953e+01 +9.8164614656e+01 1.0071571899e+02 1.0566000000e-01 0.0000e+00 -1.0000e+00
      994  1    1    2    0    0 +2.1617510792e+01 +6.8646099640e+01 +3.7624908580e+01 1.5413058591e+02 1.3100000000e+02 0.0000e+00 0.0000e+00
      997  1    1    2    0    0 -3.8689809929e+01 -8.3339292593e+01 +3.6421046560e+02 3.7615369510e+02 2.0000000000e+01 0.0000e+00 0.0000e+00
</event>
<event>
 5      1 +2.3375200e-06 2.13080900e+02 7.95774700e-02 4.81487900e-01
       13 -1    0    0    0    0 +0.0000000000e+00 +0.0000000000e+00 +4.9999998884e+02 5.0000000000e+02 1.0566000000e-01 0.0000e+00 1.0000e+00
      994 -1    0    0    0    0 -0.0000000000e+00 -0.0000000000e+00 +0.0000000000e+00 1.3100000000e+02 1.3100000000e+02 0.0000e+00 0.0000e+00
       13  1    1    2    0    0 +1.0038421951e+01 +8.2929980711e+00 +7.0429436275e+01 7.1623043710e+01 1.0566000000e-01 0.0000e+00 -1.0000e+00
      994  1    1    2    0    0 -2.0282197575e+01 -8.9429639129e+00 +3.7001446862e+00 1.3291363817e+02 1.3100000000e+02 0.0000e+00 0.0000e+00
      997  1    1    2    0    0 +1.0243775624e+01 +6.4996584183e-01 +4.2587040787e+02 4.2646331812e+02 2.0000000000e+01 0.0000e+00 0.0000e+00
</event>
<event>
 5      1 +2.3375200e-06 2.11355700e+02 7.95774700e-02 4.84248900e-01
       13 -1    0    0    0    0 +0.0000000000e+00 +0.0000000000e+00 +4.9999998884e+02 5.0000000000e+02 1.0566000000e-01 0.0000e+00 -1.0000e+00
      994 -1    0    0    0    0 -0.0000000000e+00 -0.0000000000e+00 +0.0000000000e+00 1.3100000000e+02 1.3100000000e+02 0.0000e+00 0.0000e+00
       13  1    1    2    0    0 +9.9295376052e+00 +8.8240393011e+00 +3.6442322937e+01 3.8788058107e+01 1.0566000000e-01 0.0000e+00 1.0000e+00
      994  1    1    2    0    0 -2.4765660113e+00 -1.6417918645e+01 +4.0127628487e+00 1.3210898417e+02 1.3100000000e+02 0.0000e+00 0.0000e+00
      997  1    1    2    0    0 -7.4529715938e+00 +7.5938793440e+00 +4.5954490305e+02 4.6010295773e+02 2.0000000000e+01 0.0000e+00 0.0000e+00
</event>
<event>
 5      1 +2.3375200e-06 2.08655300e+02 7.95774700e-02 4.88686900e-01
       13 -1    0    0    0    0 +0.0000000000e+00 +0.0000000000e+00 +4.9999998884e+02 5.0000000000e+02 1.0566000000e-01 0.0000e+00 -1.0000e+00
      994 -1    0    0    0    0 -0.0000000000e+00 -0.0000000000e+00 +0.0000000000e+00 1.3100000000e+02 1.3100000000e+02 0.0000e+00 0.0000e+00
       13  1    1    2    0    0 +9.7873151165e+00 -7.9630330045e+00 +1.4840720178e+01 1.9479722053e+01 1.0566000000e-01 0.0000e+00 1.0000e+00
      994  1    1    2    0    0 -1.7400309234e+01 +8.9843227134e+00 +6.7457355310e+00 1.3262727383e+02 1.3100000000e+02 0.0000e+00 0.0000e+00
      997  1    1    2    0    0 +7.6129941174e+00 -1.0212897089e+00 +4.7841353313e+02 4.7889300412e+02 2.0000000000e+01 0.0000e+00 0.0000e+00
</event>
<event>
 5      1 +2.3375200e-06 2.12145100e+02 7.95774700e-02 4.82978500e-01
       13 -1    0    0    0    0 +0.0000000000e+00 +0.0000000000e+00 +4.9999998884e+02 5.0000000000e+02 1.0566000000e-01 0.0000e+00 -1.0000e+00
      994 -1    0    0    0    0 -0.0000000000e+00 -0.0000000000e+00 +0.0000000000e+00 1.3100000000e+02 1.3100000000e+02 0.0000e+00 0.0000e+00
       13  1    1    2    0    0 +8.5982818920e+00 -9.6078285811e+00 +4.5131059056e+01 4.6936813666e+01 1.0566000000e-01 0.0000e+00 1.0000e+00
      994  1    1    2    0    0 -1.6736505059e+01 +6.1735929870e+00 +3.5928964824e+00 1.3225782683e+02 1.3100000000e+02 0.0000e+00 0.0000e+00
      997  1    1    2    0    0 +8.1382231672e+00 +3.4342355941e+00 +4.5127603330e+02 4.5180535951e+02 2.0000000000e+01 0.0000e+00 0.0000e+00
</event>
<event>
 5      1 +2.3375200e-06 2.12607200e+02 7.95774700e-02 4.82240400e-01
       13 -1    0    0    0    0 +0.0000000000e+00 +0.0000000000e+00 +4.9999998884e+02 5.0000000000e+02 1.0566000000e-01 0.0000e+00 -1.0000e+00
      994 -1    0    0    0    0 -0.0000000000e+00 -0.0000000000e+00 +0.0000000000e+00 1.3100000000e+02 1.3100000000e+02 0.0000e+00 0.0000e+00
       13  1    1    2    0    0 -1.5437150019e+01 +3.2163375359e+00 +8.4238689694e+01 8.5701916158e+01 1.0566000000e-01 0.0000e+00 1.0000e+00
      994  1    1    2    0    0 +2.1792537216e+01 +1.2419856482e+01 +4.7602651607e+00 1.3346470559e+02 1.3100000000e+02 0.0000e+00 0.0000e+00
      997  1    1    2    0    0 -6.3553871966e+00 -1.5636194018e+01 +4.1100103398e+02 4.1183337825e+02 2.0000000000e+01 0.0000e+00 0.0000e+00
</event>
<event>
 5      1 +2.3375200e-06 2.10798200e+02 7.95774700e-02 4.85153400e-01
       13 -1    0    0    0    0 +0.0000000000e+00 +0.0000000000e+00 +4.9999998884e+02 5.0000000000e+02 1.0566000000e-01 0.0000e+00 1.0000e+00
      994 -1    0    0    0    0 -0.0000000000e+00 -0.0000000000e+00 +0.0000000000e+00 1.3100000000e+02 1.3100000000e+02 0.0000e+00 0.0000e+00
       13  1    1    2    0    0 +1.8478422602e+00 -1.0039477549e+01 +1.8894871040e+01 2.1476334560e+01 1.0566000000e-01 0.0000e+00 -1.0000e+00
      994  1    1    2    0    0 +2.0229092876e+01 +6.8451224703e+00 +5.3614370969e+00 1.3283755835e+02 1.3100000000e+02 0.0000e+00 0.0000e+00
      997  1    1    2    0    0 -2.2076935137e+01 +3.1943550782e+00 +4.7574368070e+02 4.7668610709e+02 2.0000000000e+01 0.0000e+00 0.0000e+00
</event>
<event>
 5      1 +2.3375200e-06 2.08930600e+02 7.95774700e-02 4.88227700e-01
       13 -1    0    0    0    0 +0.0000000000e+00 +0.0000000000e+00 +4.9999998884e+02 5.0000000000e+02 1.0566000000e-01 0.0000e+00 1.0000e+00
      994 -1    0    0    0    0 -0.0000000000e+00 -0.0000000000e+00 +0.0000000000e+00 1.3100000000e+02 1.3100000000e+02 0.0000e+00 0.0000e+00
       13  1    1    2    0    0 +1.4385669956e+01 -1.7156941504e+01 +7.1658144617e+01 7.5074689448e+01 1.0566000000e-01 0.0000e+00 -1.0000e+00
      994  1    1    2    0    0 +6.0672791774e+00 +4.7428550467e+00 +4.8800494820e+00 1.3131687414e+02 1.3100000000e+02 0.0000e+00 0.0000e+00
      997  1    1    2    0    0 -2.0452949133e+01 +1.2414086457e+01 +4.2346179474e+02 4.2460843641e+02 2.0000000000e+01 0.0000e+00 0.0000e+00
</event>
<event>
 5      1 +2.3375200e-06 2.12504700e+02 7.95774700e-02 4.82403800e-01
       13 -1    0    0    0    0 +0.0000000000e+00 +0.0000000000e+00 +4.9999998884e+02 5.0000000000e+02 1.0566000000e-01 0.0000e+00 -1.0000e+00
      994 -1    0    0    0    0 -0.0000000000e+00 -0.0000000000e+00 +0.0000000000e+00 1.3100000000e+02 1.3100000000e+02 0.0000e+00 0.0000e+00
       13  1    1    2    0    0 -5.8774907230e+00 +1.6455911834e+01 +1.0471277234e+02 1.0616081098e+02 1.0566000000e-01 0.0000e+00 1.0000e+00
      994  1    1    2    0    0 +9.6894818729e+00 -1.2760306476e+01 +3.0037689343e+00 1.3201035606e+02 1.3100000000e+02 0.0000e+00 0.0000e+00
      997  1    1    2    0    0 -3.8119911499e+00 -3.6956053571e+00 +3.9228344756e+02 3.9282883296e+02 2.0000000000e+01 0.0000e+00 0.0000e+00
</event>
<event>
 5      1 +2.3375200e-06 2.07188900e+02 7.95774700e-02 4.91158500e-01
       13 -1    0    0    0    0 +0.0000000000e+00 +0.0000000000e+00 +4.9999998884e+02 5.0000000000e+02 1.0566000000e-01 0.0000e+00 1.0000e+00
      994 -1    0    0    0    0 -0.0000000000e+00 -0.0000000000e+00 +0.0000000000e+00 1.3100000000e+02 1.3100000000e+02 0.0000e+00 0.0000e+00
       13  1    1    2    0    0 -2.2055119546e+01 +3.1309893407e+01 +1.8576328342e+02 1.8967009874e+02 1.0566000000e-01 0.0000e+00 -1.0000e+00
      994  1    1    2    0    0 +1.6909360369e+01 -2.9983154268e-01 +7.4584740206e+00 1.3229756310e+02 1.3100000000e+02 0.0000e+00 0.0000e+00
      997  1    1    2    0    0 +5.1457591776e+00 -3.1010061864e+01 +3.0677823139e+02 3.0903233816e+02 2.0000000000e+01 0.0000e+00 0.0000e+00
</event>
<event>
 5      1 +2.3375200e-06 2.04611800e+02 7.95774700e-02 4.95612400e-01
       13 -1    0    0    0    0 +0.0000000000e+00 +0.0000000000e+00 +4.9999998884e+02 5.0000000000e+02 1.0566000000e-01 0.0000e+00 1.0000e+00
      994 -1    0    0    0    0 -0.0000000000e+00 -0.0000000000e+00 +0.0000000000e+00 1.3100000000e+02 1.3100000000e+02 0.0000e+00 0.0000e+00
       13  1    1    2    0    0 +1.2435321732e+01 +1.3217763123e+01 +1.9291535756e+01 2.6486241795e+01 1.0566000000e-01 0.0000e+00 -1.0000e+00
      994  1    1    2    0    0 -1.0030326648e+01 +6.1322147057e+00 +8.8441832579e+00 1.3182348458e+02 1.3100000000e+02 0.0000e+00 0.0000e+00
      997  1    1    2    0    0 -2.4049950837e+00 -1.9349977829e+01 +4.7186426982e+02 4.7269027362e+02 2.0000000000e+01 0.0000e+00 0.0000e+00
</event>
<event>
 5      1 +2.3375200e-06 2.11516300e+02 7.95774700e-02 4.83989400e-01
       13 -1    0    0    0    0 +0.0000000000e+00 +0.0000000000e+00 +4.9999998884e+02 5.0000000000e+02 1.0566000000e-01 0.0000e+00 -1.0000e+00
      994 -1    0    0    0    0 -0.0000000000e+00 -0.0000000000e+00 +0.0000000000e+00 1.3100000000e+02 1.3100000000e+02 0.0000e+00 0.0000e+00
       13  1    1    2    0    0 +1.4119075313e+01 -1.1989255783e+00 +4.4526277995e+01 4.6726719405e+01 1.0566000000e-01 0.0000e+00 1.0000e+00
      994  1    1    2    0    0 -1.2350097682e+01 -1.7510619643e+00 +3.2892015787e+00 1.3163362024e+02 1.3100000000e+02 0.0000e+00 0.0000e+00
      997  1    1    2    0    0 -1.7689776310e+00 +2.9499875426e+00 +4.5218450926e+02 4.5263966035e+02 2.0000000000e+01 0.0000e+00 0.0000e+00
</event>
<event>
 5      1 +2.3375200e-06 2.00826200e+02 7.95774700e-02 5.02422900e-01
       13 -1    0    0    0    0 +0.0000000000e+00 +0.0000000000e+00 +4.9999998884e+02 5.0000000000e+02 1.0566000000e-01 0.0000e+00 -1.0000e+00
      994 -1    0    0    0    0 -0.0000000000e+00 -0.0000000000e+00 +0.0000000000e+00 1.3100000000e+02 1.3100000000e+02 0.0000e+00 0.0000e+00
       13  1    1    2    0    0 +4.3373747483e+01 -3.0507946280e+01 +3.4946472026e+01 6.3508139857e+01 1.0566000000e-01 0.0000e+00 1.0000e+00
      994  1    1    2    0    0 -4.3393439078e+01 +3.9714342349e+01 +5.0301770141e+01 1.5215612910e+02 1.3100000000e+02 0.0000e+00 0.0000e+00
      997  1    1    2    0    0 +1.9691594871e-02 -9.2063960685e+00 +4.1475174667e+02 4.1533573104e+02 2.0000000000e+01 0.0000e+00 0.0000e+00
</event>
<event>
 5      1 +2.3375200e-06 1.88319500e+02 7.95774700e-02 5.27512700e-01
       13 -1    0    0    0    0 +0.0000000000e+00 +0.0000000000e+00 +4.9999998884e+02 5.0000000000e+02 1.0566000000e-01 0.0000e+00 1.0000e+00
      994 -1    0    0    0    0 -0.0000000000e+00 -0.0000000000e+00 +0.0000000000e+00 1.3100000000e+02 1.3100000000e+02 0.0000e+00 0.0000e+00
       13  1    1    2    0    0 +1.1861407507e+02 -9.0717957928e+00 +2.1737519106e+02 2.4779745991e+02 1.0566000000e-01 0.0000e+00 -1.0000e+00
      994  1    1    2    0    0 -1.3375970856e+02 -1.3933429868e+01 +1.3381630085e+02 2.3055065056e+02 1.3100000000e+02 0.0000e+00 0.0000e+00
      997  1    1    2    0    0 +1.5145633490e+01 +2.3005225661e+01 +1.4880849692e+02 1.5265188953e+02 2.0000000000e+01 0.0000e+00 0.0000e+00
</event>
<event>
 5      1 +2.3375200e-06 2.11092900e+02 7.95774700e-02 4.84674500e-01
       13 -1    0    0    0    0 +0.0000000000e+00 +0.0000000000e+00 +4.9999998884e+02 5.0000000000e+02 1.0566000000e-01 0.0000e+00 -1.0000e+00
      994 -1    0    0    0    0 -0.0000000000e+00 -0.0000000000e+00 +0.0000000000e+00 1.3100000000e+02 1.3100000000e+02 0.0000e+00 0.0000e+00
       13  1    1    2    0    0 -1.0759524644e+01 +2.4172814440e-01 +4.4875815034e+01 4.6148409963e+01 1.0566000000e-01 0.0000e+00 1.0000e+00
      994  1    1    2    0    0 -3.5133873717e+01 +1.6469642799e+01 +1.0415790594e+01 1.3702235916e+02 1.3100000000e+02 0.0000e+00 0.0000e+00
      997  1    1    2    0    0 +4.5893398361e+01 -1.6711370943e+01 +4.4470838321e+02 4.4782923088e+02 2.0000000000e+01 0.0000e+00 0.0000e+00
</event>
<event>
 5      1 +2.3375200e-06 2.12049000e+02 7.95774700e-02 4.83132600e-01
       13 -1    0    0    0    0 +0.0000000000e+00 +0.0000000000e+00 +4.9999998884e+02 5.0000000000e+02 1.0566000000e-01 0.0000e+00 -1.0000e+00
      994 -1    0    0    0    0 -0.0000000000e+00 -0.0000000000e+00 +0.0000000000e+00 1.3100000000e+02 1.3100000000e+02 0.0000e+00 0.0000e+00
       13  1    1    2    0    0 +8.9736073297e+00 -1.3055523665e+01 +5.6074600823e+01 5.8269583388e+01 1.0566000000e-01 0.0000e+00 1.0000e+00
      994  1    1    2    0    0 -1.6920703199e+01 +1.9567941053e+01 +5.4104406784e+00 1.3363939308e+02 1.3100000000e+02 0.0000e+00 0.0000e+00
      997  1    1    2    0    0 +7.9470958696e+00 -6.5124173884e+00 +4.3851494733e+02 4.3909102353e+02 2.0000000000e+01 0.0000e+00 0.0000e+00
</event>
<event>
 5      1 +2.3375200e-06 2.10120400e+02 7.95774700e-02 4.86261200e-01
       13 -1    0    0    0    0 +0.0000000000e+00 +0.0000000000e+00 +4.9999998884e+02 5.0000000000e+02 1.0566000000e-01 0.0000e+00 1.0000e+00
      994 -1    0    0    0    0 -0.0000000000e+00 -0.0000000000e+00 +0.0000000000e+00 1.3100000000e+02 1.3100000000e+02 0.0000e+00 0.0000e+00
       13  1    1    2    0    0 +2.0094581921e+01 +9.0374531504e+00 +6.7879776622e+01 7.1366259678e+01 1.0566000000e-01 0.0000e+00 -1.0000e+00
      994  1    1    2    0    0 -2.5222522252e+01 +7.0843662745e+00 +7.0741144351e+00 1.3378119064e+02 1.3100000000e+02 0.0000e+00 0.0000e+00
      997  1    1    2    0    0 +5.1279403315e+00 -1.6121819425e+01 +4.2504609778e+02 4.2585254968e+02 2.0000000000e+01 0.0000e+00 0.0000e+00
</event>
<event>
 5      1 +2.3375200e-06 2.11064600e+02 7.95774700e-02 4.84720500e-01
       13 -1    0    0    0    0 +0.0000000000e+00 +0.0000000000e+00 +4.9999998884e+02 5.0000000000e+02 1.0566000000e-01 0.0000e+00 1.0000e+00
      994 -1    0    0    0    0 -0.0000000000e+00 -0.0000000000e+00 +0.0000000000e+00 1.3100000000e+02 1.3100000000e+02 0.0000e+00 0.0000e+00
       13  1    1    2    0    0 -5.2164004467e-01 -1.0373047893e+01 +2.1007846421e+01 2.3435294028e+01 1.0566000000e-01 0.0000e+00 -1.0000e+00
      994  1    1    2    0    0 -1.3988820762e+01 +6.2539567889e+00 +4.0426724548e+00 1.3195507676e+02 1.3100000000e+02 0.0000e+00 0.0000e+00
      997  1    1    2    0    0 +1.4510460807e+01 +4.1190911038e+00 +4.7494946996e+02 4.7560962921e+02 2.0000000000e+01 0.0000e+00 0.0000e+00
</event>
<event>
 5      1 +2.3375200e-06 2.10782900e+02 7.95774700e-02 4.85178300e-01
       13 -1    0    0    0    0 +0.0000000000e+00 +0.0000000000e+00 +4.9999998884e+02 5.0000000000e+02 1.0566000000e-01 0.0000e+00 -1.0000e+00
      994 -1    0    0    0    0 -0.0000000000e+00 -0.0000000000e+00 +0.0000000000e+00 1.3100000000e+02 1.3100000000e+02 0.0000e+00 0.0000e+00
       13  1    1    2    0    0 -1.0510861522e+01 +7.9552381587e+00 +3.2060986331e+01 3.4665285700e+01 1.0566000000e-01 0.0000e+00 1.0000e+00
      994  1    1    2    0    0 +1.2267170771e+01 +6.4591914164e+00 +4.0562399656e+00 1.3179399727e+02 1.3100000000e+02 0.0000e+00 0.0000e+00
      997  1    1    2    0    0 -1.7563092495e+00 -1.4414429575e+01 +4.6388276254e+02 4.6454071704e+02 2.0000000000e+01 0.0000e+00 0.0000e+00
</event>
<event>
 5      1 +2.3375200e-06 2.07458600e+02 7.95774700e-02 4.90700600e-01
       13 -1    0    0    0    0 +0.0000000000e+00 +0.0000000000e+00 +4.9999998884e+02 5.0000000000e+02 1.0566000000e-01 0.0000e+00 1.0000e+00
      994 -1    0    0    0    0 -0.0000000000e+00 -0.0000000000e+00 +0.0000000000e+00 1.3100000000e+02 1.3100000000e+02 0.0000e+00 0.0000e+00
       13  1    1    2    0    0 +8.1985675382e+00 +7.4895439863e+00 +1.0108835653e+01 1.5016973766e+01 1.0566000000e-01 0.0000e+00 -1.0000e+00
      994  1    1    2    0    0 +3.0376838853e+01 -1.8836251638e+01 +1.2365743223e+01 1.3635053473e+02 1.3100000000e+02 0.0000e+00 0.0000e+00
      997  1    1    2    0    0 -3.8575406392e+01 +1.1346707651e+01 +4.7752540996e+02 4.7963249151e+02 2.0000000000e+01 0.0000e+00 0.0000e+00
</event>
<event>
 5      1 +2.3375200e-06 2.03887700e+02 7.95774700e-02 4.96889900e-01
       13 -1    0    0    0    0 +0.0000000000e+00 +0.0000000000e+00 +4.9999998884e+02 5.0000000000e+02 1.0566000000e-01 0.0000e+00 1.0000e+00
      994 -1    0    0    0    0 -0.0000000000e+00 -0.0000000000e+00 +0.0000000000e+00 1.3100000000e+02 1.3100000000e+02 0.0000e+00 0.0000e+00
       13  1    1    2    0    0 -1.8121997203e+01 -9.8507608189e+00 +2.7229009060e+01 3.4159542880e+01 1.0566000000e-01 0.0000e+00 -1.0000e+00
      994  1    1    2    0    0 -6.7781626966e+00 -1.6756120973e+01 +1.0448790554e+01 1.3265326345e+02 1.3100000000e+02 0.0000e+00 0.0000e+00
      997  1    1    2    0    0 +2.4900159899e+01 +2.6606881792e+01 +4.6232218922e+02 4.6418719367e+02 2.0000000000e+01 0.0000e+00 0.0000e+00
</event>
<event>
 5      1 +2.3375200e-06 1.98809000e+02 7.95774700e-02 5.06189600e-01
       13 -1    0    0    0    0 +0.0000000000e+00 +0.0000000000e+00 +4.9999998884e+02 5.0000000000e+02 1.0566000000e-01 0.0000e+00 1.0000e+00
      994 -1    0    0    0    0 -0.0000000000e+00 -0.0000000000e+00 +0.0000000000e+00 1.3100000000e+02 1.3100000000e+02 0.0000e+00 0.0000e+00
       13  1    1    2    0    0 +1.0966568722e+01 -1.8512861310e+01 +1.3614955396e+01 2.5463107388e+01 1.0566000000e-01 0.0000e+00 -1.0000e+00
      994  1    1    2    0    0 -1.0353360381e+01 +1.7381840466e+00 +1.3701003558e+01 1.3213224759e+02 1.3100000000e+02 0.0000e+00 0.0000e+00
      997  1    1    2    0    0 -6.1320834051e-01 +1.6774677263e+01 +4.7268402988e+02 4.7340464502e+02 2.0000000000e+01 0.0000e+00 0.0000e+00
</event>
<event>
 5      1 +2.3375200e-06 2.10654000e+02 7.95774700e-02 4.85388300e-01
       13 -1    0    0    0    0 +0.0000000000e+00 +0.0000000000e+00 +4.9999998884e+02 5.0000000000e+02 1.0566000000e-01 0.0000e+00 -1.0000e+00
      994 -1    0    0    0    0 -0.0000000000e+00 -0.0000000000e+00 +0.0000000000e+00 1.3100000000e+02 1.3100000000e+02 0.0000e+00 0.0000e+00
       13  1    1    2    0    0 +1.6051495424e+01 -7.9279222551e+00 +5.6066092341e+01 5.8855079059e+01 1.0566000000e-01 0.0000e+00 1.0000e+00
      994  1    1    2    0    0 -1.3097967134e+01 -9.0007765380e-01 +4.0606581935e+00 1.3171885145e+02 1.3100000000e+02 0.0000e+00 0.0000e+00
      997  1    1    2    0    0 -2.9535282900e+00 +8.8279999089e+00 +4.3987323830e+02 4.4042606949e+02 2.0000000000e+01 0.0000e+00 0.0000e+00
</event>
<event>
 5      1 +2.3375200e-06 2.11235000e+02 7.95774700e-02 4.84444200e-01
       13 -1    0    0    0    0 +0.0000000000e+00 +0.0000000000e+00 +4.9999998884e+02 5.0000000000e+02 1.0566000000e-01 0.0000e+00 1.0000e+00
      994 -1    0    0    0    0 -0.0000000000e+00 -0.0000000000e+00 +0.0000000000e+00 1.3100000000e+02 1.3100000000e+02 0.0000e+00 0.0000e+00
       13  1    1    2    0    0 +5.3600962767e+00 +1.3400127669e+01 +4.2164369579e+01 4.4566122556e+01 1.0566000000e-01 0.0000e+00 -1.0000e+00
      994  1    1    2    0    0 -5.3244461736e-01 -1.2269308003e+01 +3.4893993827e+00 1.3162064931e+02 1.3100000000e+02 0.0000e+00 0.0000e+00
      997  1    1    2    0    0 -4.8276516593e+00 -1.1308196658e+00 +4.5434621987e+02 4.5481322814e+02 2.0000000000e+01 0.0000e+00 0.0000e+00
</event>
<event>
 5      1 +2.3375200e-06 2.10484800e+02 7.95774700e-02 4.85664500e-01
       13 -1    0    0    0    0 +0.0000000000e+00 +0.0000000000e+00 +4.9999998884e+02 5.0000000000e+02 1.0566000000e-01 0.0000e+00 1.0000e+00
      994 -1    0    0    0    0 -0.0000000000e+00 -0.0000000000e+00 +0.0000000000e+00 1.3100000000e+02 1.3100000000e+02 0.0000e+00 0.0000e+00
       13  1    1    2    0    0 -1.5645472690e+01 +6.2127017712e+00 +2.6679240455e+01 3.1546339158e+01 1.0566000000e-01 0.0000e+00 -1.0000e+00
      994  1    1    2    0    0 +1.0634265217e+02 +6.7948154420e+01 +9.9794443619e+01 2.0747443779e+02 1.3100000000e+02 0.0000e+00 0.0000e+00
      997  1    1    2    0    0 -9.0697179476e+01 -7.4160856191e+01 +3.7352630476e+02 3.9197922305e+02 2.0000000000e+01 0.0000e+00 0.0000e+00
</event>
<event>
 5      1 +2.3375200e-06 2.09646200e+02 7.95774700e-02 4.87041500e-01
       13 -1    0    0    0    0 +0.0000000000e+00 +0.0000000000e+00 +4.9999998884e+02 5.0000000000e+02 1.0566000000e-01 0.0000e+00 1.0000e+00
      994 -1    0    0    0    0 -0.0000000000e+00 -0.0000000000e+00 +0.0000000000e+00 1.3100000000e+02 1.3100000000e+02 0.0000e+00 0.0000e+00
       13  1    1    2    0    0 -6.5191357715e+00 +1.6489458628e+01 +8.5917146255e+01 8.7727809512e+01 1.0566000000e-01 0.0000e+00 -1.0000e+00
      994  1    1    2    0    0 -6.7726403495e-01 +2.7498544858e+01 +7.8226859749e+00 1.3408513367e+02 1.3100000000e+02 0.0000e+00 0.0000e+00
      997  1    1    2    0    0 +7.1963998065e+00 -4.3988003486e+01 +4.0626015661e+02 4.0918705682e+02 2.0000000000e+01 0.0000e+00 0.0000e+00
</event>
<event>
 5      1 +2.3375200e-06 2.12652400e+02 7.95774700e-02 4.82168400e-01
       13 -1    0    0    0    0 +0.0000000000e+00 +0.0000000000e+00 +4.9999998884e+02 5.0000000000e+02 1.0566000000e-01 0.0000e+00 -1.0000e+00
      994 -1    0    0    0    0 -0.0000000000e+00 -0.0000000000e+00 +0.0000000000e+00 1.3100000000e+02 1.3100000000e+02 0.0000e+00 0.0000e+00
       13  1    1    2    0    0 +6.3517288145e-01 -1.3120537444e+01 +5.8805278836e+01 6.0254658993e+01 1.0566000000e-01 0.0000e+00 1.0000e+00
      994  1    1    2    0    0 +4.5902799433e+00 +1.7799341254e+01 +3.2861270639e+00 1.3232416956e+02 1.3100000000e+02 0.0000e+00 0.0000e+00
      997  1    1    2    0    0 -5.2254528248e+00 -4.6788038098e+00 +4.3790858294e+02 4.3842117145e+02 2.0000000000e+01 0.0000e+00 0.0000e+00
</event>
<event>
 5      1 +2.3375200e-06 2.12626200e+02 7.95774700e-02 4.82210100e-01
       13 -1    0    0    0    0 +0.0000000000e+00 +0.0000000000e+00 +4.9999998884e+02 5.0000000000e+02 1.0566000000e-01 0.0000e+00 -1.0000e+00
      994 -1    0    0    0    0 -0.0000000000e+00 -0.0000000000e+00 +0.0000000000e+00 1.3100000000e+02 1.3100000000e+02 0.0000e+00 0.0000e+00
       13  1    1    2    0    0 -1.0073077063e+01 -4.6702356619e+00 +5.1913149885e+01 5.3087326903e+01 1.0566000000e-01 0.0000e+00 1.0000e+00
      994  1    1    2    0    0 +7.6240021503e+00 -4.0038746998e+00 +2.0113956813e+00 1.3129814216e+02 1.3100000000e+02 0.0000e+00 0.0000e+00
      997  1    1    2    0    0 +2.4490749124e+00 +8.6741103617e+00 +4.4607544327e+02 4.4661453094e+02 2.0000000000e+01 0.0000e+00 0.0000e+00
</event>
<event>
 5      1 +2.3375200e-06 2.10529100e+02 7.95774700e-02 4.85592000e-01
       13 -1    0    0    0    0 +0.0000000000e+00 +0.0000000000e+00 +4.9999998884e+02 5.0000000000e+02 1.0566000000e-01 0.0000e+00 1.0000e+00
      994 -1    0    0    0    0 -0.0000000000e+00 -0.0000000000e+00 +0.0000000000e+00 1.3100000000e+02 1.3100000000e+02 0.0000e+00 0.0000e+00
       13  1    1    2    0    0 +9.5092456227e+00 -7.0790679962e+00 +2.3509536453e+01 2.6329611169e+01 1.0566000000e-01 0.0000e+00 -1.0000e+00
      994  1    1    2    0    0 -6.5976697679e+00 -5.3947872306e-02 +3.5186571478e+00 1.3121323525e+02 1.3100000000e+02 0.0000e+00 0.0000e+00
      997  1    1    2    0    0 -2.9115758547e+00 +7.1330158685e+00 +4.7297179523e+02 4.7345715358e+02 2.0000000000e+01 0.0000e+00 0.0000e+00
</event>
<event>
 5      1 +2.3375200e-06 2.08710400e+02 7.95774700e-02 4.88594800e-01
       13 -1    0    0    0    0 +0.0000000000e+00 +0.0000000000e+00 +4.9999998884e+02 5.0000000000e+02 1.0566000000e-01 0.0000e+00 -1.0000e+00
      994 -1    0    0    0    0 -0.0000000000e+00 -0.0000000000e+00 +0.0000000000e+00 1.3100000000e+02 1.3100000000e+02 0.0000e+00 0.0000e+00
       13  1    1    2    0    0 -1.0016216909e+00 -1.7684909144e+01 +3.5824992506e+01 3.9964991049e+01 1.0566000000e-01 0.0000e+00 1.0000e+00
      994  1    1    2    0    0 +6.9306717716e+00 +6.0512373018e+00 +5.1861010848e+00 1.3142506355e+02 1.3100000000e+02 0.0000e+00 0.0000e+00
      997  1    1    2    0    0 -5.9290500807e+00 +1.1633671842e+01 +4.5898889524e+02 4.5960994540e+02 2.0000000000e+01 0.0000e+00 0.0000e+00
</event>
<event>
 5      1 +2.3375200e-06 2.11733000e+02 7.95774700e-02 4.83640300e-01
       13 -1    0    0    0    0 +0.0000000000e+00 +0.0000000000e+00 +4.9999998884e+02 5.0000000000e+02 1.0566000000e-01 0.0000e+00 1.0000e+00
      994 -1    0    0    0    0 -0.0000000000e+00 -0.0000000000e+00 +0.0000000000e+00 1.3100000000e+02 1.3100000000e+02 0.0000e+00 0.0000e+00
       13  1    1    2    0    0 -1.9425833305e+01 +1.3884453462e+00 +8.7872819554e+01 9.0005190742e+01 1.0566000000e-01 0.0000e+00 -1.0000e+00
      994  1    1    2    0    0 +1.9179761444e+01 +1.3337975480e+01 +5.0520506474e+00 1.3316263761e+02 1.3100000000e+02 0.0000e+00 0.0000e+00
      997  1    1    2    0    0 +2.4607186092e-01 -1.4726420827e+01 +4.0707511863e+02 4.0783217165e+02 2.0000000000e+01 0.0000e+00 0.0000e+00
</event>
<event>
 5      1 +2.3375200e-06 2.11007000e+02 7.95774700e-02 4.84814000e-01
       13 -1    0    0    0    0 +0.0000000000e+00 +0.0000000000e+00 +4.9999998884e+02 5.0000000000e+02 1.0566000000e-01 0.0000e+00 -1.0000e+00
      994 -1    0    0    0    0 -0.0000000000e+00 -0.0000000000e+00 +0.0000000000e+00 1.3100000000e+02 1.3100000000e+02 0.0000e+00 0.0000e+00
       13  1    1    2    0    0 +1.3377451420e+01 -1.4646439503e+01 +9.0244100572e+01 9.2398502416e+01 1.0566000000e-01 0.0000e+00 1.0000e+00
      994  1    1    2    0    0 -5.7417924208e+01 -2.2957037820e+01 +2.2583021587e+01 1.4661117444e+02 1.3100000000e+02 0.0000e+00 0.0000e+00
      997  1    1    2    0    0 +4.4040472788e+01 +3.7603477323e+01 +3.8717286668e+02 3.9199032315e+02 2.0000000000e+01 0.0000e+00 0.0000e+00
</event>
<event>
 5      1 +2.3375200e-06 2.10951600e+02 7.95774700e-02 4.84903900e-01
       13 -1    0    0    0    0 +0.0000000000e+00 +0.0000000000e+00 +4.9999998884e+02 5.0000000000e+02 1.0566000000e-01 0.0000e+00 1.0000e+00
      994 -1    0    0    0    0 -0.0000000000e+00 -0.0000000000e+00 +0.0000000000e+00 1.3100000000e+02 1.3100000000e+02 0.0000e+00 0.0000e+00
       13  1    1    2    0    0 +9.0648467707e+00 +9.1788907909e+00 +4.4067360553e+01 4.5916956708e+01 1.0566000000e-01 0.0000e+00 -1.0000e+00
      994  1    1    2    0    0 +3.4951963778e+01 -1.8407665755e+01 +1.0815977820e+01 1.3725329616e+02 1.3100000000e+02 0.0000e+00 0.0000e+00
      997  1    1    2    0    0 -4.4016810548e+01 +9.2287749640e+00 +4.4511665046e+02 4.4782974713e+02 2.0000000000e+01 0.0000e+00 0.0000e+00
</event>
<event>
 5      1 +2.3375200e-06 2.06076900e+02 7.95774700e-02 4.93062900e-01
       13 -1    0    0    0    0 +0.0000000000e+00 +0.0000000000e+00 +4.9999998884e+02 5.0000000000e+02 1.0566000000e-01 0.0000e+00 1.0000e+00
      994 -1    0    0    0    0 -0.0000000000e+00 -0.0000000000e+00 +0.0000000000e+00 1.3100000000e+02 1.3100000000e+02 0.0000e+00 0.0000e+00
       13  1    1    2    0    0 +1.3110650866e-01 +1.9845548653e+01 +2.7349545887e+01 3.3791593844e+01 1.0566000000e-01 0.0000e+00 -1.0000e+00
      994  1    1    2    0    0 +3.2990421456e+00 -1.3415227401e+01 +7.8918773800e+00 1.3196262249e+02 1.3100000000e+02 0.0000e+00 0.0000e+00
      997  1    1    2    0    0 -3.4301486542e+00 -6.4303212519e+00 +4.6475856557e+02 4.6524578367e+02 2.0000000000e+01 0.0000e+00 0.0000e+00
</event>
<event>
 5      1 +2.3375200e-06 2.08882100e+02 7.95774700e-02 4.88308500e-01
       13 -1    0    0    0    0 +0.0000000000e+00 +0.0000000000e+00 +4.9999998884e+02 5.0000000000e+02 1.0566000000e-01 0.0000e+00 1.0000e+00
      994 -1    0    0    0    0 -0.0000000000e+00 -0.0000000000e+00 +0.0000000000e+00 1.3100000000e+02 1.3100000000e+02 0.0000e+00 0.0000e+00
       13  1    1    2    0    0 +1.9186905840e+01 +4.1222067198e+00 +4.7611587334e+01 5.1497615056e+01 1.0566000000e-01 0.0000e+00 -1.0000e+00
      994  1    1    2    0    0 -9.1090784595e-01 -2.5462735256e+01 +7.9110829146e+00 1.3368906415e+02 1.3100000000e+02 0.0000e+00 0.0000e+00
      997  1    1    2    0    0 -1.8275997994e+01 +2.1340528536e+01 +4.4447731859e+02 4.4581332080e+02 2.0000000000e+01 0.0000e+00 0.0000e+00
</event>
<event>
 5      1 +2.3375200e-06 2.12233400e+02 7.95774700e-02 4.82837100e-01
       13 -1    0    0    0    0 +0.0000000000e+00 +0.0000000000e+00 +4.9999998884e+02 5.0000000000e+02 1.0566000000e-01 0.0000e+00 -1.0000e+00
      994 -1    0    0    0    0 -0.0000000000e+00 -0.0000000000e+00 +0.0000000000e+00 1.3100000000e+02 1.3100000000e+02 0.0000e+00 0.0000e+00
       13  1    1    2    0    0 -7.7072525098e-01 +1.2278906439e+01 +4.5391912398e+01 4.7029803699e+01 1.0566000000e-01 0.0000e+00 1.0000e+00
      994  1    1    2    0    0 +5.0115007273e+00 -1.1454775333e+01 +2.7243990824e+00 1.3162351373e+02 1.3100000000e+02 0.0000e+00 0.0000e+00
      997  1    1    2    0    0 -4.2407754763e+00 -8.2413110679e-01 +4.5188367736e+02 4.5234668257e+02 2.0000000000e+01 0.0000e+00 0.0000e+00
</event>
<event>
 5      1 +2.3375200e-06 2.04872100e+02 7.95774700e-02 4.95156000e-01
       13 -1    0    0    0    0 +0.0000000000e+00 +0.0000000000e+00 +4.9999998884e+02 5.0000000000e+02 1.0566000000e-01 0.0000e+00 1.0000e+00
      994 -1    0    0    0    0 -0.0000000000e+00 -0.0000000000e+00 +0.0000000000e+00 1.3100000000e+02 1.3100000000e+02 0.0000e+00 0.0000e+00
       13  1    1    2    0    0 -2.0881194728e+01 -1.8055634590e+01 +6.2002115311e+01 6.7869755420e+01 1.0566000000e-01 0.0000e+00 -1.0000e+00
      994  1    1    2    0    0 -9.6414004825e-01 -9.4428828484e+00 +8.3745403972e+00 1.3161014600e+02 1.3100000000e+02 0.0000e+00 0.0000e+00
      997  1    1    2    0    0 +2.1845334777e+01 +2.7498517439e+01 +4.2962333313e+02 4.3152009858e+02 2.0000000000e+01 0.0000e+00 0.0000e+00
</event>
<event>
 5      1 +2.3375200e-06 2.01925200e+02 7.95774700e-02 5.00411700e-01
       13 -1    0    0    0    0 +0.0000000000e+00 +0.0000000000e+00 +4.9999998884e+02 5.0000000000e+02 1.0566000000e-01 0.0000e+00 1.0000e+00
      994 -1    0    0    0    0 -0.0000000000e+00 -0.0000000000e+00 +0.0000000000e+00 1.3100000000e+02 1.3100000000e+02 0.0000e+00 0.0000e+00
       13  1    1    2    0    0 -2.6763386584e+01 -5.1087519034e+01 +1.1501818786e+02 1.2866782102e+02 1.0566000000e-01 0.0000e+00 -1.0000e+00
      994  1    1    2    0    0 +3.5424564944e+01 +5.0025070130e+01 +3.1302753972e+01 1.4798064012e+02 1.3100000000e+02 0.0000e+00 0.0000e+00
      997  1    1    2    0    0 -8.6611783593e+00 +1.0624489049e+00 +3.5367904700e+02 3.5435153887e+02 2.0000000000e+01 0.0000e+00 0.0000e+00
</event>
<event>
 5      1 +2.3375200e-06 2.12066000e+02 7.95774700e-02 4.83105300e-01
       13 -1    0    0    0    0 +0.0000000000e+00 +0.0000000000e+00 +4.9999998884e+02 5.0000000000e+02 1.0566000000e-01 0.0000e+00 -1.0000e+00
      994 -1    0    0    0    0 -0.0000000000e+00 -0.0000000000e+00 +0.0000000000e+00 1.3100000000e+02 1.3100000000e+02 0.0000e+00 0.0000e+00
       13  1    1    2    0    0 +2.4282553233e+00 +1.4723659086e+01 +7.8556573948e+01 7.9961422169e+01 1.0566000000e-01 0.0000e+00 1.0000e+00
      994  1    1    2    0    0 -8.3692093597e+00 -1.1451808901e+00 +2.4383489370e+00 1.3129470915e+02 1.3100000000e+02 0.0000e+00 0.0000e+00
      997  1    1    2    0    0 +5.9409540364e+00 -1.3578478196e+01 +4.1900506595e+02 4.1974386868e+02 2.0000000000e+01 0.0000e+00 0.0000e+00
</event>
<event>
 5      1 +2.3375200e-06 2.11034800e+02 7.95774700e-02 4.84768700e-01
       13 -1    0    0    0    0 +0.0000000000e+00 +0.0000000000e+00 +4.9999998884e+02 5.0000000000e+02 1.0566000000e-01 0.0000e+00 1.0000e+00
      994 -1    0    0    0    0 -0.0000000000e+00 -0.0000000000e+00 +0.0000000000e+00 1.3100000000e+02 1.3100000000e+02 0.0000e+00 0.0000e+00
       13  1    1    2    0    0 +1.6165592877e+01 +1.3099124391e+01 +1.1224721760e+02 1.1415937314e+02 1.0566000000e-01 0.0000e+00 -1.0000e+00
      994  1    1    2    0    0 +7.2495483299e+00 -1.4859515800e+01 +4.2584314216e+00 1.3210789302e+02 1.3100000000e+02 0.0000e+00 0.0000e+00
      997  1    1    2    0    0 -2.3415141207e+01 +1.7603914090e+00 +3.8349433981e+02 3.8473273383e+02 2.0000000000e+01 0.0000e+00 0.0000e+00
</event>
<event>
 5      1 +2.3375200e-06 2.07174000e+02 7.95774700e-02 4.91183900e-01
       13 -1    0    0    0    0 +0.0000000000e+00 +0.0000000000e+00 +4.9999998884e+02 5.0000000000e+02 1.0566000000e-01 0.0000e+00 1.0000e+00
      994 -1    0    0    0    0 -0.0000000000e+00 -0.0000000000e+00 +0.0000000000e+00 1.3100000000e+02 1.3100000000e+02 0.0000e+00 0.0000e+00
       13  1    1    2    0    0 -1.6148086067e+00 -1.5061726009e+01 +2.2091912860e+01 2.6786693993e+01 1.0566000000e-01 0.0000e+00 -1.0000e+00
      994  1    1    2    0    0 -2.9089606771e+00 -1.5538396073e+01 +7.2854566060e+00 1.3215135899e+02 1.3100000000e+02 0.0000e+00 0.0000e+00
      997  1    1    2    0    0 +4.5237692838e+00 +3.0600122082e+01 +4.7062261937e+02 4.7206194702e+02 2.0000000000e+01 0.0000e+00 0.0000e+00
</event>
<event>
 5      1 +2.3375200e-06 2.03580200e+02 7.95774700e-02 4.97435900e-01
       13 -1    0    0    0    0 +0.0000000000e+00 +0.0000000000e+00 +4.9999998884e+02 5.0000000000e+02 1.0566000000e-01 0.0000e+00 1.0000e+00
      994 -1    0    0    0    0 -0.0000000000e+00 -0.0000000000e+00 +0.0000000000e+00 1.3100000000e+02 1.3100000000e+02 0.0000e+00 0.0000e+00
       13  1    1    2    0    0 -2.1228018193e+01 +1.6317859993e+00 +2.2250253638e+01 3.0795721017e+01 1.0566000000e-01 0.0000e+00 -1.0000e+00
      994  1    1    2    0    0 +1.7672828436e+01 +9.9019855784e+00 +1.1155471363e+01 1.3302564687e+02 1.3100000000e+02 0.0000e+00 0.0000e+00
      997  1    1    2    0    0 +3.5551897566e+00 -1.1533771578e+01 +4.6659426384e+02 4.6717863212e+02 2.0000000000e+01 0.0000e+00 0.0000e+00
</event>
<event>
 5      1 +2.3375200e-06 2.11228400e+02 7.95774700e-02 4.84455000e-01
       13 -1    0    0    0    0 +0.0000000000e+00 +0.0000000000e+00 +4.9999998884e+02 5.0000000000e+02 1.0566000000e-01 0.0000e+00 1.0000e+00
      994 -1    0    0    0    0 -0.0000000000e+00 -0.0000000000e+00 +0.0000000000e+00 1.3100000000e+02 1.3100000000e+02 0.0000e+00 0.0000e+00
       13  1    1    2    0    0 +6.5738619501e+01 +1.2534861801e+01 +2.5957428731e+02 2.6806251258e+02 1.0566000000e-01 0.0000e+00 -1.0000e+00
      994  1    1    2    0    0 -8.1123875665e+01 -1.0398878136e+01 +3.8142901992e+01 1.5907577076e+02 1.3100000000e+02 0.0000e+00 0.0000e+00
      997  1    1    2    0    0 +1.5385256165e+01 -2.1359836643e+00 +2.0228279953e+02 2.0386171666e+02 2.0000000000e+01 0.0000e+00 0.0000e+00
</event>
<event>
 5      1 +2.3375200e-06 1.99765500e+02 7.95774700e-02 5.04391100e-01
       13 -1    0    0    0    0 +0.0000000000e+00 +0.0000000000e+00 +4.9999998884e+02 5.0000000000e+02 1.0566000000e-01 0.0000e+00 1.0000e+00
      994 -1    0    0    0    0 -0.0000000000e+00 -0.0000000000e+00 +0.0000000000e+00 1.3100000000e+02 1.3100000000e+02 0.0000e+00 0.0000e+00
       13  1    1    2    0    0 +1.3170851284e+01 +6.3620289979e+00 +3.3652736099e+00 1.5009429270e+01 1.0566000000e-01 0.0000e+00 -1.0000e+00
      994  1    1    2    0    0 -2.1449365839e+01 +2.7410073055e+00 +1.4812397201e+01 1.3359639040e+02 1.3100000000e+02 0.0000e+00 0.0000e+00
      997  1    1    2    0    0 +8.2785145554e+00 -9.1030363033e+00 +4.8182231803e+02 4.8239418033e+02 2.0000000000e+01 0.0000e+00 0.0000e+00
</event>
<event>
 5      1 +2.3375200e-06 2.12001500e+02 7.95774700e-02 4.83208800e-01
       13 -1    0    0    0    0 +0.0000000000e+00 +0.0000000000e+00 +4.9999998884e+02 5.0000000000e+02 1.0566000000e-01 0.0000e+00 -1.0000e+00
      994 -1    0    0    0    0 -0.0000000000e+00 -0.0000000000e+00 +0.0000000000e+00 1.3100000000e+02 1.3100000000e+02 0.0000e+00 0.0000e+00
       13  1    1    2    0    0 +9.5294889552e+00 +8.4031828387e+00 +4.4687257562e+01 4.6458441580e+01 1.0566000000e-01 0.0000e+00 1.0000e+00
      994  1    1    2    0    0 -8.9214423485e+00 -4.9111624010e+00 +2.6485915613e+00 1.3142194142e+02 1.3100000000e+02 0.0000e+00 0.0000e+00
      997  1    1    2    0    0 -6.0804660674e-01 -3.4920204377e+00 +4.5266413971e+02 4.5311961700e+02 2.0000000000e+01 0.0000e+00 0.0000e+00
</event>
<event>
 5      1 +2.3375200e-06 2.11338200e+02 7.95774700e-02 4.84277200e-01
       13 -1    0    0    0    0 +0.0000000000e+00 +0.0000000000e+00 +4.9999998884e+02 5.0000000000e+02 1.0566000000e-01 0.0000e+00 -1.0000e+00
      994 -1    0    0    0    0 -0.0000000000e+00 -0.0000000000e+00 +0.0000000000e+00 1.3100000000e+02 1.3100000000e+02 0.0000e+00 0.0000e+00
       13  1    1    2    0    0 +2.1073391097e+00 +1.9044959165e+01 +1.0345542238e+02 1.0521495583e+02 1.0566000000e-01 0.0000e+00 1.0000e+00
      994  1    1    2    0    0 +6.4906200992e+00 -3.0243723458e+00 +2.9143649012e+00 1.3122792576e+02 1.3100000000e+02 0.0000e+00 0.0000e+00
      997  1    1    2    0    0 -8.5979592089e+00 -1.6020586819e+01 +3.9363020156e+02 3.9455711841e+02 2.0000000000e+01 0.0000e+00 0.0000e+00
</event>
<event>
 5      1 +2.3375200e-06 2.09400600e+02 7.95774700e-02 4.87447600e-01
       13 -1    0    0    0    0 +0.0000000000e+00 +0.0000000000e+00 +4.9999998884e+02 5.0000000000e+02 1.0566000000e-01 0.0000e+00 1.0000e+00
      994 -1    0    0    0    0 -0.0000000000e+00 -0.0000000000e+00 +0.0000000000e+00 1.3100000000e+02 1.3100000000e+02 0.0000e+00 0.0000e+00
       13  1    1    2    0    0 +5.4369265599e+00 +9.2278630715e+00 +1.3358407540e+01 1.7122261630e+01 1.0566000000e-01 0.0000e+00 -1.0000e+00
      994  1    1    2    0    0 -1.0825927337e+01 -2.0309862262e+00 +4.8128856601e+00 1.3155033058e+02 1.3100000000e+02 0.0000e+00 0.0000e+00
      997  1    1    2    0    0 +5.3890007766e+00 -7.1968768453e+00 +4.8182869564e+02 4.8232740779e+02 2.0000000000e+01 0.0000e+00 0.0000e+00
</event>
<event>
 5      1 +2.3375200e-06 2.11722200e+02 7.95774700e-02 4.83657700e-01
       13 -1    0    0    0    0 +0.0000000000e+00 +0.0000000000e+00 +4.9999998884e+02 5.0000000000e+02 1.0566000000e-01 0.0000e+00 1.0000e+00
      994 -1    0    0    0    0 -0.0000000000e+00 -0.0000000000e+00 +0.0000000000e+00 1.3100000000e+02 1.3100000000e+02 0.0000e+00 0.0000e+00
       13  1    1    2    0    0 -1.2822239253e+01 +4.5366047152e+00 +6.5372689843e+01 6.6772676621e+01 1.0566000000e-01 0.0000e+00 -1.0000e+00
      994  1    1    2    0    0 -1.1622021270e+01 -1.1645627892e+01 +3.6951345279e+00 1.3208083149e+02 1.3100000000e+02 0.0000e+00 0.0000e+00
      997  1    1    2    0    0 +2.4444260523e+01 +7.1090231765e+00 +4.3093216447e+02 4.3214649189e+02 2.0000000000e+01 0.0000e+00 0.0000e+00
</event>
<event>
 5      1 +2.3375200e-06 2.05126900e+02 7.95774700e-02 4.94710800e-01
       13 -1    0    0    0    0 +0.0000000000e+00 +0.0000000000e+00 +4.9999998884e+02 5.0000000000e+02 1.0566000000e-01 0.0000e+00 -1.0000e+00
      994 -1    0    0    0    0 -0.0000000000e+00 -0.0000000000e+00 +0.0000000000e+00 1.3100000000e+02 1.3100000000e+02 0.0000e+00 0.0000e+00
       13  1    1    2    0    0 +2.5113384444e+01 -1.1313374108e+01 +9.7483867155e+01 1.0130049374e+02 1.0566000000e-01 0.0000e+00 1.0000e+00
      994  1    1    2    0    0 +4.0720851545e+01 +4.0769834415e+01 +2.5551128097e+01 1.4537615793e+02 1.3100000000e+02 0.0000e+00 0.0000e+00
      997  1    1    2    0    0 -6.5834235989e+01 -2.9456460308e+01 +3.7696499358e+02 3.8432334833e+02 2.0000000000e+01 0.0000e+00 0.0000e+00
</event>
<event>
 5      1 +2.3375200e-06 2.01212900e+02 7.95774700e-02 5.01711900e-01
       13 -1    0    0    0    0 +0.0000000000e+00 +0.0000000000e+00 +4.9999998884e+02 5.0000000000e+02 1.0566000000e-01 0.0000e+00 -1.0000e+00
      994 -1    0    0    0    0 -0.0000000000e+00 -0.0000000000e+00 +0.0000000000e+00 1.3100000000e+02 1.3100000000e+02 0.0000e+00 0.0000e+00
       13  1    1    2    0    0 -1.7261302092e+01 -1.2609175678e+01 +1.8359213031e+01 2.8178284695e+01 1.0566000000e-01 0.0000e+00 1.0000e+00
      994  1    1    2    0    0 -1.8298020747e+00 +9.3148009730e+00 +1.1487803751e+01 1.3184492151e+02 1.3100000000e+02 0.0000e+00 0.0000e+00
      997  1    1    2    0    0 +1.9091104167e+01 +3.2943747055e+00 +4.7015297205e+02 4.7097679380e+02 2.0000000000e+01 0.0000e+00 0.0000e+00
</event>
<event>
 5      1 +2.3375200e-06 2.16073300e+02 7.95774700e-02 4.76829900e-01
       13 -1    0    0    0    0 +0.0000000000e+00 +0.0000000000e+00 +4.9999998884e+02 5.0000000000e+02 1.0566000000e-01 0.0000e+00 -1.0000e+00
      994 -1    0    0    0    0 -0.0000000000e+00 -0.0000000000e+00 +0.0000000000e+00 1.3100000000e+02 1.3100000000e+02 0.0000e+00 0.0000e+00
       13  1    1    2    0    0 -1.0135762713e+01 +6.1418073282e-01 -1.7128821954e+01 1.9912775028e+01 1.0566000000e-01 0.0000e+00 1.0000e+00
      994  1    1    2    0    0 +9.1021180031e+00 -8.5658640534e+00 +4.5906126462e+01 1.3937214580e+02 1.3100000000e+02 0.0000e+00 0.0000e+00
      997  1    1    2    0    0 +1.0336447099e+00 +7.9516833206e+00 +4.7122268433e+02 4.7171507917e+02 2.0000000000e+01 0.0000e+00 0.0000e+00
</event>
<event>
 5      1 +2.3375200e-06 2.10595500e+02 7.95774700e-02 4.85483700e-01
       13 -1    0    0    0    0 +0.0000000000e+00 +0.0000000000e+00 +4.9999998884e+02 5.0000000000e+02 1.0566000000e-01 0.0000e+00 1.0000e+00
      994 -1    0    0    0    0 -0.0000000000e+00 -0.0000000000e+00 +0.0000000000e+00 1.3100000000e+02 1.3100000000e+02 0.0000e+00 0.0000e+00
       13  1    1    2    0    0 -1.7796119032e+01 +1.5390622854e+01 +1.3422520978e+02 1.3627175507e+02 1.0566000000e-01 0.0000e+00 -1.0000e+00
      994  1    1    2    0    0 +5.7715489355e+00 +2.7736813854e+00 +3.4532397259e+00 1.3120186336e+02 1.3100000000e+02 0.0000e+00 0.0000e+00
      997  1    1    2    0    0 +1.2024570097e+01 -1.8164304239e+01 +3.6232153933e+02 3.6352638157e+02 2.0000000000e+01 0.0000e+00 0.0000e+00
</event>
<event>
 5      1 +2.3375200e-06 2.10880600e+02 7.95774700e-02 4.85019300e-01
       13 -1    0    0    0    0 +0.0000000000e+00 +0.0000000000e+00 +4.9999998884e+02 5.0000000000e+02 1.0566000000e-01 0.0000e+00 1.0000e+00
      994 -1    0    0    0    0 -0.0000000000e+00 -0.0000000000e+00 +0.0000000000e+00 1.3100000000e+02 1.3100000000e+02 0.0000e+00 0.0000e+00
       13  1    1    2    0    0 +8.0722890753e+00 +1.0329377706e+01 +3.1847432986e+01 3.4440209734e+01 1.0566000000e-01 0.0000e+00 -1.0000e+00
      994  1    1    2    0    0 -7.6962049115e+00 -4.0217763890e+00 +3.3972557689e+00 1.3133144179e+02 1.3100000000e+02 0.0000e+00 0.0000e+00
      997  1    1    2    0    0 -3.7608416375e-01 -6.3076013175e+00 +4.6475530008e+02 4.6522834848e+02 2.0000000000e+01 0.0000e+00 0.0000e+00
</event>
<event>
 5      1 +2.3375200e-06 2.13537800e+02 7.95774700e-02 4.80766100e-01
       13 -1    0    0    0    0 +0.0000000000e+00 +0.0000000000e+00 +4.9999998884e+02 5.0000000000e+02 1.0566000000e-01 0.0000e+00 1.0000e+00
      994 -1    0    0    0    0 -0.0000000000e+00 -0.0000000000e+00 +0.0000000000e+00 1.3100000000e+02 1.3100000000e+02 0.0000e+00 0.0000e+00
       13  1    1    2    0    0 -1.0009050260e+01 +4.0989758126e-01 +5.7541583625e+01 5.8407140943e+01 1.0566000000e-01 0.0000e+00 -1.0000e+00
      994  1    1    2    0    0 +2.5568169973e+01 +2.2554284409e-01 +4.1338561364e+00 1.3353602867e+02 1.3100000000e+02 0.0000e+00 0.0000e+00
      997  1    1    2    0    0 -1.5559119713e+01 -6.3544042536e-01 +4.3832454908e+02 4.3905683039e+02 2.0000000000e+01 0.0000e+00 0.0000e+00
</event>
<event>
 5      1 +2.3375200e-06 2.09757300e+02 7.95774700e-02 4.86858400e-01
       13 -1    0    0    0    0 +0.0000000000e+00 +0.0000000000e+00 +4.9999998884e+02 5.0000000000e+02 1.0566000000e-01 0.0000e+00 1.0000e+00
      994 -1    0    0    0    0 -0.0000000000e+00 -0.0000000000e+00 +0.0000000000e+00 1.3100000000e+02 1.3100000000e+02 0.0000e+00 0.0000e+00
       13  1    1    2    0    0 +6.1551893699e+00 -2.9762387089e+01 +8.6257152653e+01 9.1454871873e+01 1.0566000000e-01 0.0000e+00 -1.0000e+00
      994  1    1    2    0    0 +7.6659141611e+01 +1.0610096548e+02 +1.1099152266e+02 2.1590311941e+02 1.3100000000e+02 0.0000e+00 0.0000e+00
      997  1    1    2    0    0 -8.2814330981e+01 -7.6338578395e+01 +3.0275131352e+02 3.2364200871e+02 2.0000000000e+01 0.0000e+00 0.0000e+00
</event>
<event>
 5      1 +2.3375200e-06 2.04758100e+02 7.95774700e-02 4.95355600e-01
       13 -1    0    0    0    0 +0.0000000000e+00 +0.0000000000e+00 +4.9999998884e+02 5.0000000000e+02 1.0566000000e-01 0.0000e+00 1.0000e+00
      994 -1    0    0    0    0 -0.0000000000e+00 -0.0000000000e+00 +0.0000000000e+00 1.3100000000e+02 1.3100000000e+02 0.0000e+00 0.0000e+00
       13  1    1    2    0    0 +1.0082746219e+01 -1.2136143632e+01 +1.4343603234e+01 2.1323645827e+01 1.0566000000e-01 0.0000e+00 -1.0000e+00
      994  1    1    2    0    0 -7.2027169129e+00 -9.9880222585e+00 +8.7913040531e+00 1.3187087149e+02 1.3100000000e+02 0.0000e+00 0.0000e+00
      997  1    1    2    0    0 -2.8800293062e+00 +2.2124165891e+01 +4.7686508155e+02 4.7780548269e+02 2.0000000000e+01 0.0000e+00 0.0000e+00
</event>
<event>
 5      1 +2.3375200e-06 2.09201500e+02 7.95774700e-02 4.87777600e-01
       13 -1    0    0    0    0 +0.0000000000e+00 +0.0000000000e+00 +4.9999998884e+02 5.0000000000e+02 1.0566000000e-01 0.0000e+00 -1.0000e+00
      994 -1    0    0    0    0 -0.0000000000e+00 -0.0000000000e+00 +0.0000000000e+00 1.3100000000e+02 1.3100000000e+02 0.0000e+00 0.0000e+00
       13  1    1    2    0    0 -1.2329589737e+01 -1.9099094257e+01 +7.3786642528e+01 7.7209286773e+01 1.0566000000e-01 0.0000e+00 1.0000e+00
      994  1    1    2    0    0 +1.9843085662e+01 -6.5473346589e+00 +6.5665022794e+00 1.3281842715e+02 1.3100000000e+02 0.0000e+00 0.0000e+00
      997  1    1    2    0    0 -7.5134959248e+00 +2.5646428915e+01 +4.1964684403e+02 4.2097228607e+02 2.0000000000e+01 0.0000e+00 0.0000e+00
</event>
<event>
 5      1 +2.3375200e-06 2.00519900e+02 7.95774700e-02 5.02988300e-01
       13 -1    0    0    0    0 +0.0000000000e+00 +0.0000000000e+00 +4.9999998884e+02 5.0000000000e+02 1.0566000000e-01 0.0000e+00 -1.0000e+00
      994 -1    0    0    0    0 -0.0000000000e+00 -0.0000000000e+00 +0.0000000000e+00 1.3100000000e+02 1.3100000000e+02 0.0000e+00 0.0000e+00
       13  1    1    2    0    0 +2.1032849484e+01 +2.7695923410e+01 +6.1271761228e+01 7.0453423047e+01 1.0566000000e-01 0.0000e+00 1.0000e+00
      994  1    1    2    0    0 +9.5271317781e+00 -6.9528164650e+00 +1.2354289015e+01 1.3210880498e+02 1.3100000000e+02 0.0000e+00 0.0000e+00
      997  1    1    2    0    0 -3.0559981262e+01 -2.0743106945e+01 +4.2637393859e+02 4.2843777197e+02 2.0000000000e+01 0.0000e+00 0.0000e+00
</event>
<event>
 5      1 +2.3375200e-06 2.07811200e+02 7.95774700e-02 4.90104300e-01
       13 -1    0    0    0    0 +0.0000000000e+00 +0.0000000000e+00 +4.9999998884e+02 5.0000000000e+02 1.0566000000e-01 0.0000e+00 -1.0000e+00
      994 -1    0    0    0    0 -0.0000000000e+00 -0.0000000000e+00 +0.0000000000e+00 1.3100000000e+02 1.3100000000e+02 0.0000e+00 0.0000e+00
       13  1    1    2    0    0 -2.6080298222e+01 +6.1129408308e-01 +1.1955407162e+02 1.2236724578e+02 1.0566000000e-01 0.0000e+00 1.0000e+00
      994  1    1    2    0    0 -1.4648892677e+01 -1.4616775585e+01 +7.6717757095e+00 1.3284613780e+02 1.3100000000e+02 0.0000e+00 0.0000e+00
      997  1    1    2    0    0 +4.0729190899e+01 +1.4005481502e+01 +3.7277414151e+02 3.7578661642e+02 2.0000000000e+01 0.0000e+00 0.0000e+00
</event>
<event>
 5      1 +2.3375200e-06 2.08227000e+02 7.95774700e-02 4.89404200e-01
       13 -1    0    0    0    0 +0.0000000000e+00 +0.0000000000e+00 +4.9999998884e+02 5.0000000000e+02 1.0566000000e-01 0.0000e+00 -1.0000e+00
      994 -1    0    0    0    0 -0.0000000000e+00 -0.0000000000e+00 +0.0000000000e+00 1.3100000000e+02 1.3100000000e+02 0.0000e+00 0.0000e+00
       13  1    1    2    0    0 +1.8599221238e+01 -2.1825063463e+01 +7.6078914957e+01 8.1303609335e+01 1.0566000000e-01 0.0000e+00 1.0000e+00
      994  1    1    2    0    0 -3.6813336639e+01 +3.7655545651e+00 +1.2177343276e+01 1.3666999980e+02 1.3100000000e+02 0.0000e+00 0.0000e+00
      997  1    1    2    0    0 +1.8214115401e+01 +1.8059508898e+01 +4.1174373060e+02 4.1302639087e+02 2.0000000000e+01 0.0000e+00 0.0000e+00
</event>
<event>
 5      1 +2.3375200e-06 1.97150500e+02 7.95774700e-02 5.09362200e-01
       13 -1    0    0    0    0 +0.0000000000e+00 +0.0000000000e+00 +4.9999998884e+02 5.0000000000e+02 1.0566000000e-01 0.0000e+00 1.0000e+00
      994 -1    0    0    0    0 -0.0000000000e+00 -0.0000000000e+00 +0.0000000000e+00 1.3100000000e+02 1.3100000000e+02 0.0000e+00 0.0000e+00
       13  1    1    2    0    0 -1.1792681151e+01 +8.4406458050e+00 +1.2298540584e+00 1.4554570945e+01 1.0566000000e-01 0.0000e+00 -1.0000e+00
      994  1    1    2    0    0 -4.4320570487e+00 -1.5554304287e+01 +1.6027656222e+01 1.3296415034e+02 1.3100000000e+02 0.0000e+00 0.0000e+00
      997  1    1    2    0    0 +1.6224738200e+01 +7.1136584823e+00 +4.8274247856e+02 4.8348127872e+02 2.0000000000e+01 0.0000e+00 0.0000e+00
</event>
<event>
 5      1 +2.3375200e-06 2.10824000e+02 7.95774700e-02 4.85111300e-01
       13 -1    0    0    0    0 +0.0000000000e+00 +0.0000000000e+00 +4.9999998884e+02 5.0000000000e+02 1.0566000000e-01 0.0000e+00 1.0000e+00
      994 -1    0    0    0    0 -0.0000000000e+00 -0.0000000000e+00 +0.0000000000e+00 1.3100000000e+02 1.3100000000e+02 0.0000e+00 0.0000e+00
       13  1    1    2    0    0 +1.0267304586e+01 +9.4361002317e+00 +2.3322937952e+01 2.7174034110e+01 1.0566000000e-01 0.0000e+00 -1.0000e+00
      994  1    1    2    0    0 -6.2567412979e+01 -8.3988574620e+00 +2.3623023155e+01 1.4732368851e+02 1.3100000000e+02 0.0000e+00 0.0000e+00
      997  1    1    2    0    0 +5.2300108393e+01 -1.0372427697e+00 +4.5305402773e+02 4.5650227738e+02 2.0000000000e+01 0.0000e+00 0.0000e+00
</event>
<event>
 5      1 +2.3375200e-06 2.10109200e+02 7.95774700e-02 4.86279400e-01
       13 -1    0    0    0    0 +0.0000000000e+00 +0.0000000000e+00 +4.9999998884e+02 5.0000000000e+02 1.0566000000e-01 0.0000e+00 1.0000e+00
      994 -1    0    0    0    0 -0.0000000000e+00 -0.0000000000e+00 +0.0000000000e+00 1.3100000000e+02 1.3100000000e+02 0.0000e+00 0.0000e+00
       13  1    1    2    0    0 -4.1769493831e+01 +1.9841219421e+01 +1.7595634283e+02 1.8193133416e+02 1.0566000000e-01 0.0000e+00 -1.0000e+00
      994  1    1    2    0    0 +6.2293303242e+01 -3.6057786845e+00 +2.3819947940e+01 1.4704369143e+02 1.3100000000e+02 0.0000e+00 0.0000e+00
      997  1    1    2    0    0 -2.0523809411e+01 -1.6235440736e+01 +3.0022369807e+02 3.0202497441e+02 2.0000000000e+01 0.0000e+00 0.0000e+00
</event>
<event>
 5      1 +2.3375200e-06 2.12181400e+02 7.95774700e-02 4.82920400e-01
       13 -1    0    0    0    0 +0.0000000000e+00 +0.0000000000e+00 +4.9999998884e+02 5.0000000000e+02 1.0566000000e-01 0.0000e+00 1.0000e+00
      994 -1    0    0    0    0 -0.0000000000e+00 -0.0000000000e+00 +0.0000000000e+00 1.3100000000e+02 1.3100000000e+02 0.0000e+00 0.0000e+00
       13  1    1    2    0    0 +1.8570966589e+01 +1.0458558122e+01 +1.0113323889e+02 1.0335475514e+02 1.0566000000e-01 0.0000e+00 -1.0000e+00
      994  1    1    2    0    0 -2.6533967784e+01 -1.0173815890e+01 +5.9916226974e+00 1.3418068981e+02 1.3100000000e+02 0.0000e+00 0.0000e+00
      997  1    1    2    0    0 +7.9630011955e+00 -2.8474223256e-01 +3.9287512725e+02 3.9346455505e+02 2.0000000000e+01 0.0000e+00 0.0000e+00
</event>
<event>
 5      1 +2.3375200e-06 2.11236700e+02 7.95774700e-02 4.84441500e-01
       13 -1    0    0    0    0 +0.0000000000e+00 +0.0000000000e+00 +4.9999998884e+02 5.0000000000e+02 1.0566000000e-01 0.0000e+00 -1.0000e+00
      994 -1    0    0    0    0 -0.0000000000e+00 -0.0000000000e+00 +0.0000000000e+00 1.3100000000e+02 1.3100000000e+02 0.0000e+00 0.0000e+00
       13  1    1    2    0    0 -5.3397622141e+00 +1.2685620341e+01 +3.8187798158e+01 4.0592574643e+01 1.0566000000e-01 0.0000e+00 1.0000e+00
      994  1    1    2    0    0 -1.7585838358e+01 -2.1304454387e+01 +6.5423788628e+00 1.3404083038e+02 1.3100000000e+02 0.0000e+00 0.0000e+00
      997  1    1    2    0    0 +2.2925600572e+01 +8.6188340454e+00 +4.5526981182e+02 4.5636659498e+02 2.0000000000e+01 0.0000e+00 0.0000e+00
</event>
<event>
 5      1 +2.3375200e-06 2.10262300e+02 7.95774700e-02 4.86028500e-01
       13 -1    0    0    0    0 +0.0000000000e+00 +0.0000000000e+00 +4.9999998884e+02 5.0000000000e+02 1.0566000000e-01 0.0000e+00 -1.0000e+00
      994 -1    0    0    0    0 -0.0000000000e+00 -0.0000000000e+00 +0.0000000000e+00 1.3100000000e+02 1.3100000000e+02 0.0000e+00 0.0000e+00
       13  1    1    2    0    0 +2.2542223227e+01 +9.0242178196e+00 +8.9182265665e+01 9.2428761803e+01 1.0566000000e-01 0.0000e+00 1.0000e+00
      994  1    1    2    0    0 -1.3390148606e+01 -1.4977133970e+01 +5.5335298693e+00 1.3264701495e+02 1.3100000000e+02 0.0000e+00 0.0000e+00
      997  1    1    2    0    0 -9.1520746212e+00 +5.9529161507e+00 +4.0528419330e+02 4.0592422325e+02 2.0000000000e+01 0.0000e+00 0.0000e+00
</event>
<event>
 5      1 +2.3375200e-06 1.97115600e+02 7.95774700e-02 5.09429700e-01
       13 -1    0    0    0    0 +0.0000000000e+00 +0.0000000000e+00 +4.9999998884e+02 5.0000000000e+02 1.0566000000e-01 0.0000e+00 -1.0000e+00
      994 -1    0    0    0    0 -0.0000000000e+00 -0.0000000000e+00 +0.0000000000e+00 1.3100000000e+02 1.3100000000e+02 0.0000e+00 0.0000e+00
       13  1    1    2    0    0 +1.9693420133e+01 -5.9961989711e+01 +1.3551979784e+02 1.4949547745e+02 1.0566000000e-01 0.0000e+00 1.0000e+00
      994  1    1    2    0    0 -1.3443043236e+01 +3.5556138031e+01 +2.2778961490e+01 1.3829257193e+02 1.3100000000e+02 0.0000e+00 0.0000e+00
      997  1    1    2    0    0 -6.2503768976e+00 +2.4405851680e+01 +3.4170122951e+02 3.4321195063e+02 2.0000000000e+01 0.0000e+00 0.0000e+00
</event>
<event>
 5      1 +2.3375200e-06 2.12617700e+02 7.95774700e-02 4.82223600e-01
       13 -1    0    0    0    0 +0.0000000000e+00 +0.0000000000e+00 +4.9999998884e+02 5.0000000000e+02 1.0566000000e-01 0.0000e+00 1.0000e+00
      994 -1    0    0    0    0 -0.0000000000e+00 -0.0000000000e+00 +0.0000000000e+00 1.3100000000e+02 1.3100000000e+02 0.0000e+00 0.0000e+00
       13  1    1    2    0    0 -1.0933222007e+01 +2.8340446367e+00 +3.9706127295e+01 4.1281410602e+01 1.0566000000e-01 0.0000e+00 -1.0000e+00
      994  1    1    2    0    0 +2.5669942814e+01 +8.2946508435e+00 +5.2401909049e+00 1.3385143554e+02 1.3100000000e+02 0.0000e+00 0.0000e+00
      997  1    1    2    0    0 -1.4736720807e+01 -1.1128695480e+01 +4.5505367064e+02 4.5586715385e+02 2.0000000000e+01 0.0000e+00 0.0000e+00
</event>
<event>
 5      1 +2.3375200e-06 2.00440600e+02 7.95774700e-02 5.03135100e-01
       13 -1    0    0    0    0 +0.0000000000e+00 +0.0000000000e+00 +4.9999998884e+02 5.0000000000e+02 1.0566000000e-01 0.0000e+00 -1.0000e+00
      994 -1    0    0    0    0 -0.0000000000e+00 -0.0000000000e+00 +0.0000000000e+00 1.3100000000e+02 1.3100000000e+02 0.0000e+00 0.0000e+00
       13  1    1    2    0    0 -2.3440700650e+01 -1.4480867673e+01 +2.8698787555e+01 3.9784337957e+01 1.0566000000e-01 0.0000e+00 1.0000e+00
      994  1    1    2    0    0 +2.1261420368e+01 +3.0100134886e+00 +1.4174719495e+01 1.3350292450e+02 1.3100000000e+02 0.0000e+00 0.0000e+00
      997  1    1    2    0    0 +2.1792802824e+00 +1.1470854185e+01 +4.5712648179e+02 4.5771273754e+02 2.0000000000e+01 0.0000e+00 0.0000e+00
</event>
<event>
 5      1 +2.3375200e-06 2.12263700e+02 7.95774700e-02 4.82788600e-01
       13 -1    0    0    0    0 +0.0000000000e+00 +0.0000000000e+00 +4.9999998884e+02 5.0000000000e+02 1.0566000000e-01 0.0000e+00 1.0000e+00
      994 -1    0    0    0    0 -0.0000000000e+00 -0.0000000000e+00 +0.0000000000e+00 1.3100000000e+02 1.3100000000e+02 0.0000e+00 0.0000e+00
       13  1    1    2    0    0 +1.3893130207e+01 +5.2998844546e+00 +8.5196505170e+01 8.6484469701e+01 1.0566000000e-01 0.0000e+00 -1.0000e+00
      994  1    1    2    0    0 -5.6083454171e+00 +4.4312575962e+00 +2.1830325759e+00 1.3121301465e+02 1.3100000000e+02 0.0000e+00 0.0000e+00
      997  1    1    2    0    0 -8.2847847904e+00 -9.7311420508e+00 +4.1262045109e+02 4.1330251565e+02 2.0000000000e+01 0.0000e+00 0.0000e+00
</event>
<event>
 5      1 +2.3375200e-06 2.12304200e+02 7.95774700e-02 4.82723900e-01
       13 -1    0    0    0    0 +0.0000000000e+00 +0.0000000000e+00 +4.9999998884e+02 5.0000000000e+02 1.0566000000e-01 0.0000e+00 1.0000e+00
      994 -1    0    0    0    0 -0.0000000000e+00 -0.0000000000e+00 +0.0000000000e+00 1.3100000000e+02 1.3100000000e+02 0.0000e+00 0.0000e+00
       13  1    1    2    0    0 -7.2658759438e+00 -2.0046691938e+01 +1.2397067070e+02 1.2579110131e+02 1.0566000000e-01 0.0000e+00 -1.0000e+00
      994  1    1    2    0    0 +6.4632509802e+00 +2.0495567062e+01 +4.1757229520e+00 1.3281671034e+02 1.3100000000e+02 0.0000e+00 0.0000e+00
      997  1    1    2    0    0 +8.0262496356e-01 -4.4887512354e-01 +3.7185359518e+02 3.7239218835e+02 2.0000000000e+01 0.0000e+00 0.0000e+00
</event>
<event>
 5      1 +2.3375200e-06 2.11275000e+02 7.95774700e-02 4.84379500e-01
       13 -1    0    0    0    0 +0.0000000000e+00 +0.0000000000e+00 +4.9999998884e+02 5.0000000000e+02 1.0566000000e-01 0.0000e+00 1.0000e+00
      994 -1    0    0    0    0 -0.0000000000e+00 -0.0000000000e+00 +0.0000000000e+00 1.3100000000e+02 1.3100000000e+02 0.0000e+00 0.0000e+00
       13  1    1    2    0    0 +1.4718485585e+01 -3.7793615629e-01 +6.2243156715e+01 6.3960912873e+01 1.0566000000e-01 0.0000e+00 -1.0000e+00
      994  1    1    2    0    0 +7.3832440520e+00 +6.8643965036e+00 +3.2138001351e+00 1.3142663635e+02 1.3100000000e+02 0.0000e+00 0.0000e+00
      997  1    1    2    0    0 -2.2101729637e+01 -6.4864603473e+00 +4.3454303199e+02 4.3561245077e+02 2.0000000000e+01 0.0000e+00 0.0000e+00
</event>
<event>
 5      1 +2.3375200e-06 1.98641800e+02 7.95774700e-02 5.06506200e-01
       13 -1    0    0    0    0 +0.0000000000e+00 +0.0000000000e+00 +4.9999998884e+02 5.0000000000e+02 1.0566000000e-01 0.0000e+00 1.0000e+00
      994 -1    0    0    0    0 -0.0000000000e+00 -0.0000000000e+00 +0.0000000000e+00 1.3100000000e+02 1.3100000000e+02 0.0000e+00 0.0000e+00
       13  1    1    2    0    0 -2.0598035980e+01 +3.4666280374e+01 +2.7094345174e+01 4.8581321366e+01 1.0566000000e-01 0.0000e+00 -1.0000e+00
      994  1    1    2    0    0 +1.1542068100e+01 -8.3940870679e+00 +2.6139664093e+01 1.3434270383e+02 1.3100000000e+02 0.0000e+00 0.0000e+00
      997  1    1    2    0    0 +9.0559678806e+00 -2.6272193306e+01 +4.4676597957e+02 4.4807597480e+02 2.0000000000e+01 0.0000e+00 0.0000e+00
</event>
<event>
 5      1 +2.3375200e-06 1.99121800e+02 7.95774700e-02 5.05598900e-01
       13 -1    0    0    0    0 +0.0000000000e+00 +0.0000000000e+00 +4.9999998884e+02 5.0000000000e+02 1.0566000000e-01 0.0000e+00 1.0000e+00
      994 -1    0    0    0    0 -0.0000000000e+00 -0.0000000000e+00 +0.0000000000e+00 1.3100000000e+02 1.3100000000e+02 0.0000e+00 0.0000e+00
       13  1    1    2    0    0 +3.0488671092e+01 +1.4983686661e+01 +7.8479387361e+01 8.5516637770e+01 1.0566000000e-01 0.0000e+00 -1.0000e+00
      994  1    1    2    0    0 +4.1902474138e+01 -2.5717612712e+00 +2.2650778243e+01 1.3941480929e+02 1.3100000000e+02 0.0000e+00 0.0000e+00
      997  1    1    2    0    0 -7.2391145231e+01 -1.2411925389e+01 +3.9886982323e+02 4.0606855294e+02 2.0000000000e+01 0.0000e+00 0.0000e+00
</event>
<event>
 5      1 +2.3375200e-06 2.10110300e+02 7.95774700e-02 4.86277700e-01
       13 -1    0    0    0    0 +0.0000000000e+00 +0.0000000000e+00 +4.9999998884e+02 5.0000000000e+02 1.0566000000e-01 0.0000e+00 1.0000e+00
      994 -1    0    0    0    0 -0.0000000000e+00 -0.0000000000e+00 +0.0000000000e+00 1.3100000000e+02 1.3100000000e+02 0.0000e+00 0.0000e+00
       13  1    1    2    0    0 -1.1518145601e+01 +8.3565596989e+00 +3.1035082993e+01 3.4142163208e+01 1.0566000000e-01 0.0000e+00 -1.0000e+00
      994  1    1    2    0    0 +6.7809145921e+00 -1.7404892623e-01 +3.8653245217e+00 1.3123243437e+02 1.3100000000e+02 0.0000e+00 0.0000e+00
      997  1    1    2    0    0 +4.7372310091e+00 -8.1825107727e+00 +4.6509958132e+02 4.6562540243e+02 2.0000000000e+01 0.0000e+00 0.0000e+00
</event>
<event>
 5      1 +2.3375200e-06 2.11254100e+02 7.95774700e-02 4.84413300e-01
       13 -1    0    0    0    0 +0.0000000000e+00 +0.0000000000e+00 +4.9999998884e+02 5.0000000000e+02 1.0566000000e-01 0.0000e+00 1.0000e+00
      994 -1    0    0    0    0 -0.0000000000e+00 -0.0000000000e+00 +0.0000000000e+00 1.3100000000e+02 1.3100000000e+02 0.0000e+00 0.0000e+00
       13  1    1    2    0    0 +1.5526667042e+01 +1.5933306745e+01 +1.3430393244e+02 1.3613414372e+02 1.0566000000e-01 0.0000e+00 -1.0000e+00
      994  1    1    2    0    0 -1.7596495960e-01 -8.7247881300e+00 +3.1041764057e+00 1.3132702998e+02 1.3100000000e+02 0.0000e+00 0.0000e+00
      997  1    1    2    0    0 -1.5350702082e+01 -7.2085186151e+00 +3.6259187999e+02 3.6353882631e+02 2.0000000000e+01 0.0000e+00 0.0000e+00
</event>
<event>
 5      1 +2.3375200e-06 2.09235400e+02 7.95774700e-02 4.87721300e-01
       13 -1    0    0    0    0 +0.0000000000e+00 +0.0000000000e+00 +4.9999998884e+02 5.0000000000e+02 1.0566000000e-01 0.0000e+00 1.0000e+00
      994 -1    0    0    0    0 -0.0000000000e+00 -0.0000000000e+00 +0.0000000000e+00 1.3100000000e+02 1.3100000000e+02 0.0000e+00 0.0000e+00
       13  1    1    2    0    0 +1.9791844283e+01 +9.8954956577e+00 +6.3381580846e+01 6.7133254718e+01 1.0566000000e-01 0.0000e+00 -1.0000e+00
      994  1    1    2    0    0 -1.4014430787e+01 +4.3708896510e+00 +5.4209716654e+00 1.3193140597e+02 1.3100000000e+02 0.0000e+00 0.0000e+00
      997  1    1    2    0    0 -5.7774134962e+00 -1.4266385309e+01 +4.3119743632e+02 4.3193533932e+02 2.0000000000e+01 0.0000e+00 0.0000e+00
</event>
<event>
 5      1 +2.3375200e-06 2.12322500e+02 7.95774700e-02 4.82694700e-01
       13 -1    0    0    0    0 +0.0000000000e+00 +0.0000000000e+00 +4.9999998884e+02 5.0000000000e+02 1.0566000000e-01 0.0000e+00 1.0000e+00
      994 -1    0    0    0    0 -0.0000000000e+00 -0.0000000000e+00 +0.0000000000e+00 1.3100000000e+02 1.3100000000e+02 0.0000e+00 0.0000e+00
       13  1    1    2    0    0 -1.4495359465e+01 -8.0517455898e+00 +7.1946999894e+01 7.3833109177e+01 1.0566000000e-01 0.0000e+00 -1.0000e+00
      994  1    1    2    0    0 +2.4615480613e+01 +3.4012959180e+00 +4.9321002475e+00 1.3342719480e+02 1.3100000000e+02 0.0000e+00 0.0000e+00
      997  1    1    2    0    0 -1.0120121148e+01 +4.6504496717e+00 +4.2312088869e+02 4.2373969602e+02 2.0000000000e+01 0.0000e+00 0.0000e+00
</event>
<event>
 5      1 +2.3375200e-06 2.08376000e+02 7.95774700e-02 4.89154200e-01
       13 -1    0    0    0    0 +0.0000000000e+00 +0.0000000000e+00 +4.9999998884e+02 5.0000000000e+02 1.0566000000e-01 0.0000e+00 1.0000e+00
      994 -1    0    0    0    0 -0.0000000000e+00 -0.0000000000e+00 +0.0000000000e+00 1.3100000000e+02 1.3100000000e+02 0.0000e+00 0.0000e+00
       13  1    1    2    0    0 +3.4066195894e+01 +2.0630639276e+01 +1.0472337944e+02 1.1204073520e+02 1.0566000000e-01 0.0000e+00 -1.0000e+00
      994  1    1    2    0    0 -4.5158140237e+01 -3.0499435497e+01 +2.0499289208e+01 1.4335513264e+02 1.3100000000e+02 0.0000e+00 0.0000e+00
      997  1    1    2    0    0 +1.1091944342e+01 +9.8687962204e+00 +3.7477732019e+02 3.7560413216e+02 2.0000000000e+01 0.0000e+00 0.0000e+00
</event>
<event>
 5      1 +2.3375200e-06 2.11915000e+02 7.95774700e-02 4.83347600e-01
       13 -1    0    0    0    0 +0.0000000000e+00 +0.0000000000e+00 +4.9999998884e+02 5.0000000000e+02 1.0566000000e-01 0.0000e+00 -1.0000e+00
      994 -1    0    0    0    0 -0.0000000000e+00 -0.0000000000e+00 +0.0000000000e+00 1.3100000000e+02 1.3100000000e+02 0.0000e+00 0.0000e+00
       13  1    1    2    0    0 -4.2569324365e+00 -1.1318220970e+01 +3.5201364577e+01 3.7220570010e+01 1.0566000000e-01 0.0000e+00 1.0000e+00
      994  1    1    2    0    0 +4.0956490638e+00 +1.6420686479e+01 +3.6191166520e+00 1.3213822797e+02 1.3100000000e+02 0.0000e+00 0.0000e+00
      997  1    1    2    0    0 +1.6128337272e-01 -5.1024655094e+00 +4.6117950761e+02 4.6164120202e+02 2.0000000000e+01 0.0000e+00 0.0000e+00
</event>
<event>
 5      1 +2.3375200e-06 2.10338500e+02 7.95774700e-02 4.85903700e-01
       13 -1    0    0    0    0 +0.0000000000e+00 +0.0000000000e+00 +4.9999998884e+02 5.0000000000e+02 1.0566000000e-01 0.0000e+00 -1.0000e+00
      994 -1    0    0    0    0 -0.0000000000e+00 -0.0000000000e+00 +0.0000000000e+00 1.3100000000e+02 1.3100000000e+02 0.0000e+00 0.0000e+00
       13  1    1    2    0    0 +1.5336076182e+01 +1.4812424254e+01 +8.3806964282e+01 8.6476711149e+01 1.0566000000e-01 0.0000e+00 1.0000e+00
      994  1    1    2    0    0 -1.1830313599e+01 +3.2238493912e+00 +4.2036680475e+00 1.3163973697e+02 1.3100000000e+02 0.0000e+00 0.0000e+00
      997  1    1    2    0    0 -3.5057625828e+00 -1.8036273646e+01 +4.1198935651e+02 4.1288355188e+02 2.0000000000e+01 0.0000e+00 0.0000e+00
</event>
<event>
 5      1 +2.3375200e-06 2.11270200e+02 7.95774700e-02 4.84387200e-01
       13 -1    0    0    0    0 +0.0000000000e+00 +0.0000000000e+00 +4.9999998884e+02 5.0000000000e+02 1.0566000000e-01 0.0000e+00 1.0000e+00
      994 -1    0    0    0    0 -0.0000000000e+00 -0.0000000000e+00 +0.0000000000e+00 1.3100000000e+02 1.3100000000e+02 0.0000e+00 0.0000e+00
       13  1    1    2    0    0 -7.6760270131e-01 -1.1261977569e+01 +2.7185575271e+01 2.9436168560e+01 1.0566000000e-01 0.0000e+00 -1.0000e+00
      994  1    1    2    0    0 -7.1647632267e+00 +5.8489309255e+00 +3.1378724829e+00 1.3136357969e+02 1.3100000000e+02 0.0000e+00 0.0000e+00
      997  1    1    2    0    0 +7.9323659280e+00 +5.4130466434e+00 +4.6967654108e+02 4.7020025175e+02 2.0000000000e+01 0.0000e+00 0.0000e+00
</event>
<event>
 5      1 +2.3375200e-06 2.09855700e+02 7.95774700e-02 4.86696300e-01
       13 -1    0    0    0    0 +0.0000000000e+00 +0.0000000000e+00 +4.9999998884e+02 5.0000000000e+02 1.0566000000e-01 0.0000e+00 -1.0000e+00
      994 -1    0    0    0    0 -0.0000000000e+00 -0.0000000000e+00 +0.0000000000e+00 1.3100000000e+02 1.3100000000e+02 0.0000e+00 0.0000e+00
       13  1    1    2    0    0 -1.4948268533e+01 +1.4458368110e+01 +4.9875475550e+01 5.4037666177e+01 1.0566000000e-01 0.0000e+00 1.0000e+00
      994  1    1    2    0    0 +1.6841980583e+01 -2.5364957506e+01 +8.5144199585e+00 1.3476100596e+02 1.3100000000e+02 0.0000e+00 0.0000e+00
      997  1    1    2    0    0 -1.8937120498e+00 +1.0906589396e+01 +4.4161009333e+02 4.4220132787e+02 2.0000000000e+01 0.0000e+00 0.0000e+00
</event>
<event>
 5      1 +2.3375200e-06 2.09902200e+02 7.95774700e-02 4.86619700e-01
       13 -1    0    0    0    0 +0.0000000000e+00 +0.0000000000e+00 +4.9999998884e+02 5.0000000000e+02 1.0566000000e-01 0.0000e+00 1.0000e+00
      994 -1    0    0    0    0 -0.0000000000e+00 -0.0000000000e+00 +0.0000000000e+00 1.3100000000e+02 1.3100000000e+02 0.0000e+00 0.0000e+00
       13  1    1    2    0    0 -5.5542407729e+00 -1.1275215332e+01 +2.1348228223e+01 2.4773737781e+01 1.0566000000e-01 0.0000e+00 -1.0000e+00
      994  1    1    2    0    0 +1.1457229717e+01 +5.6954699503e+00 +4.6212003819e+00 1.3170444937e+02 1.3100000000e+02 0.0000e+00 0.0000e+00
      997  1    1    2    0    0 -5.9029889439e+00 +5.5797453816e+00 +4.7403056023e+02 4.7452181285e+02 2.0000000000e+01 0.0000e+00 0.0000e+00
</event>
<event>
 5      1 +2.3375200e-06 2.07613800e+02 7.95774700e-02 4.90437900e-01
       13 -1    0    0    0    0 +0.0000000000e+00 +0.0000000000e+00 +4.9999998884e+02 5.0000000000e+02 1.0566000000e-01 0.0000e+00 -1.0000e+00
      994 -1    0    0    0    0 -0.0000000000e+00 -0.0000000000e+00 +0.0000000000e+00 1.3100000000e+02 1.3100000000e+02 0.0000e+00 0.0000e+00
       13  1    1    2    0    0 -1.9685954054e+01 +6.5055662061e+00 +3.9789811846e+01 4.4867577040e+01 1.0566000000e-01 0.0000e+00 1.0000e+00
      994  1    1    2    0    0 +1.0302149274e+01 -1.6465125406e+00 +6.2019521243e+00 1.3156104854e+02 1.3100000000e+02 0.0000e+00 0.0000e+00
      997  1    1    2    0    0 +9.3838047801e+00 -4.8590536655e+00 +4.5400822487e+02 4.5457137442e+02 2.0000000000e+01 0.0000e+00 0.0000e+00
</event>
<event>
 5      1 +2.3375200e-06 2.09102900e+02 7.95774700e-02 4.87941100e-01
       13 -1    0    0    0    0 +0.0000000000e+00 +0.0000000000e+00 +4.9999998884e+02 5.0000000000e+02 1.0566000000e-01 0.0000e+00 -1.0000e+00
      994 -1    0    0    0    0 -0.0000000000e+00 -0.0000000000e+00 +0.0000000000e+00 1.3100000000e+02 1.3100000000e+02 0.0000e+00 0.0000e+00
       13  1    1    2    0    0 -1.3501110682e+01 -5.1662916540e+00 +2.5711073494e+01 2.9496457810e+01 1.0566000000e-01 0.0000e+00 1.0000e+00
      994  1    1    2    0    0 -6.9919590263e+00 +2.5911456221e+01 +8.0898625071e+00 1.3396543185e+02 1.3100000000e+02 0.0000e+00 0.0000e+00
      997  1    1    2    0    0 +2.0493069708e+01 -2.0745164567e+01 +4.6619905283e+02 4.6753811034e+02 2.0000000000e+01 0.0000e+00 0.0000e+00
</event>
<event>
 5      1 +2.3375200e-06 2.11114600e+02 7.95774700e-02 4.84639300e-01
       13 -1    0    0    0    0 +0.0000000000e+00 +0.0000000000e+00 +4.9999998884e+02 5.0000000000e+02 1.0566000000e-01 0.0000e+00 1.0000e+00
      994 -1    0    0    0    0 -0.0000000000e+00 -0.0000000000e+00 +0.0000000000e+00 1.3100000000e+02 1.3100000000e+02 0.0000e+00 0.0000e+00
       13  1    1    2    0    0 +9.3282386695e-01 -1.5859967166e+01 +5.8548610313e+01 6.0665967828e+01 1.0566000000e-01 0.0000e+00 -1.0000e+00
      994  1    1    2    0    0 +1.4035813404e+01 +2.9829780781e+00 +3.8589749288e+00 1.3184003149e+02 1.3100000000e+02 0.0000e+00 0.0000e+00
      997  1    1    2    0    0 -1.4968637271e+01 +1.2876989088e+01 +4.3759240359e+02 4.3849400068e+02 2.0000000000e+01 0.0000e+00 0.0000e+00
</event>
<event>
 5      1 +2.3375200e-06 2.12089800e+02 7.95774700e-02 4.83067100e-01
       13 -1    0    0    0    0 +0.0000000000e+00 +0.0000000000e+00 +4.9999998884e+02 5.0000000000e+02 1.0566000000e-01 0.0000e+00 1.0000e+00
      994 -1    0    0    0    0 -0.0000000000e+00 -0.0000000000e+00 +0.0000000000e+00 1.3100000000e+02 1.3100000000e+02 0.0000e+00 0.0000e+00
       13  1    1    2    0    0 -8.3397994331e+00 -1.3676752899e+01 +8.6016902233e+01 8.7495853949e+01 1.0566000000e-01 0.0000e+00 -1.0000e+00
      994  1    1    2    0    0 -1.1945012282e+00 +7.8256498184e+00 +2.3768535800e+00 1.3126049315e+02 1.3100000000e+02 0.0000e+00 0.0000e+00
      997  1    1    2    0    0 +9.5343006613e+00 +5.8511030802e+00 +4.1160623302e+02 4.1224365290e+02 2.0000000000e+01 0.0000e+00 0.0000e+00
</event>
<event>
 5      1 +2.3375200e-06 2.10196400e+02 7.95774700e-02 4.86136400e-01
       13 -1    0    0    0    0 +0.0000000000e+00 +0.0000000000e+00 +4.9999998884e+02 5.0000000000e+02 1.0566000000e-01 0.0000e+00 -1.0000e+00
      994 -1    0    0    0    0 -0.0000000000e+00 -0.0000000000e+00 +0.0000000000e+00 1.3100000000e+02 1.3100000000e+02 0.0000e+00 0.0000e+00
       13  1    1    2    0    0 -1.1352306393e+01 +1.6242035869e+01 +7.6360102346e+01 7.8889511241e+01 1.0566000000e-01 0.0000e+00 1.0000e+00
      994  1    1    2    0    0 -1.2270297081e+01 -8.3039839891e+00 +4.6637783740e+00 1.3191765299e+02 1.3100000000e+02 0.0000e+00 0.0000e+00
      997  1    1    2    0    0 +2.3622603474e+01 -7.9380518800e+00 +4.1897610812e+02 4.2019283577e+02 2.0000000000e+01 0.0000e+00 0.0000e+00
</event>
<event>
 5      1 +2.3375200e-06 2.08290900e+02 7.95774700e-02 4.89296900e-01
       13 -1    0    0    0    0 +0.0000000000e+00 +0.0000000000e+00 +4.9999998884e+02 5.0000000000e+02 1.0566000000e-01 0.0000e+00 1.0000e+00
      994 -1    0    0    0    0 -0.0000000000e+00 -0.0000000000e+00 +0.0000000000e+00 1.3100000000e+02 1.3100000000e+02 0.0000e+00 0.0000e+00
       13  1    1    2    0    0 +9.6828217548e+00 -3.3325027419e+00 +9.5776211936e+00 1.4021576353e+01 1.0566000000e-01 0.0000e+00 -1.0000e+00
      994  1    1    2    0    0 -8.2916611457e-01 -7.6162213781e+00 +5.3949693895e+00 1.3133468711e+02 1.3100000000e+02 0.0000e+00 0.0000e+00
      997  1    1    2    0    0 -8.8536556403e+00 +1.0948724120e+01 +4.8502739825e+02 4.8564373653e+02 2.0000000000e+01 0.0000e+00 0.0000e+00
</event>
<event>
 5      1 +2.3375200e-06 1.98822500e+02 7.95774700e-02 5.06164100e-01
       13 -1    0    0    0    0 +0.0000000000e+00 +0.0000000000e+00 +4.9999998884e+02 5.0000000000e+02 1.0566000000e-01 0.0000e+00 1.0000e+00
      994 -1    0    0    0    0 -0.0000000000e+00 -0.0000000000e+00 +0.0000000000e+00 1.3100000000e+02 1.3100000000e+02 0.0000e+00 0.0000e+00
       13  1    1    2    0    0 -4.7666973804e+01 -4.3885779991e+00 +9.0482076556e+01 1.0236414094e+02 1.0566000000e-01 0.0000e+00 -1.0000e+00
      994  1    1    2    0    0 +2.9562363910e+01 -3.7146736216e+01 +2.5763785393e+01 1.4169892734e+02 1.3100000000e+02 0.0000e+00 0.0000e+00
      997  1    1    2    0    0 +1.8104609894e+01 +4.1535314215e+01 +3.8375412689e+02 3.8693693172e+02 2.0000000000e+01 0.0000e+00 0.0000e+00
</event>
<event>
 5      1 +2.3375200e-06 2.12368200e+02 7.95774700e-02 4.82621700e-01
       13 -1    0    0    0    0 +0.0000000000e+00 +0.0000000000e+00 +4.9999998884e+02 5.0000000000e+02 1.0566000000e-01 0.0000e+00 1.0000e+00
      994 -1    0    0    0    0 -0.0000000000e+00 -0.0000000000e+00 +0.0000000000e+00 1.3100000000e+02 1.3100000000e+02 0.0000e+00 0.0000e+00
       13  1    1    2    0    0 -1.5250164733e+01 +5.3728936210e-01 +6.6351636838e+01 6.8083823918e+01 1.0566000000e-01 0.0000e+00 -1.0000e+00
      994  1    1    2    0    0 +2.6943185786e+01 -4.3509946505e+01 +1.5009343194e+01 1.4144020323e+02 1.3100000000e+02 0.0000e+00 0.0000e+00
      997  1    1    2    0    0 -1.1693021053e+01 +4.2972657143e+01 +4.1863900880e+02 4.2147597286e+02 2.0000000000e+01 0.0000e+00 0.0000e+00
</event>
<event>
 5      1 +2.3375200e-06 1.97643200e+02 7.95774700e-02 5.08412300e-01
       13 -1    0    0    0    0 +0.0000000000e+00 +0.0000000000e+00 +4.9999998884e+02 5.0000000000e+02 1.0566000000e-01 0.0000e+00 -1.0000e+00
      994 -1    0    0    0    0 -0.0000000000e+00 -0.0000000000e+00 +0.0000000000e+00 1.3100000000e+02 1.3100000000e+02 0.0000e+00 0.0000e+00
       13  1    1    2    0    0 -3.7621910951e+01 +2.5672890876e+01 +1.0410357424e+02 1.1363129342e+02 1.0566000000e-01 0.0000e+00 1.0000e+00
      994  1    1    2    0    0 -3.2567467588e+01 -4.9696327041e+01 +3.4539819718e+01 1.4793364733e+02 1.3100000000e+02 0.0000e+00 0.0000e+00
      997  1    1    2    0    0 +7.0189378539e+01 +2.4023436166e+01 +3.6135659487e+02 3.6943505925e+02 2.0000000000e+01 0.0000e+00 0.0000e+00
</event>
<event>
 5      1 +2.3375200e-06 2.10126700e+02 7.95774700e-02 4.86250800e-01
       13 -1    0    0    0    0 +0.0000000000e+00 +0.0000000000e+00 +4.9999998884e+02 5.0000000000e+02 1.0566000000e-01 0.0000e+00 -1.0000e+00
      994 -1    0    0    0    0 -0.0000000000e+00 -0.0000000000e+00 +0.0000000000e+00 1.3100000000e+02 1.3100000000e+02 0.0000e+00 0.0000e+00
       13  1    1    2    0    0 -6.4191834378e+00 +1.1800091891e+01 +2.4206549726e+01 2.7684224719e+01 1.0566000000e-01 0.0000e+00 1.0000e+00
      994  1    1    2    0    0 +1.1780266562e+01 -1.4733573728e+01 +5.4038311910e+00 1.3246151995e+02 1.3100000000e+02 0.0000e+00 0.0000e+00
      997  1    1    2    0    0 -5.3610831243e+00 +2.9334818369e+00 +4.7038960792e+02 4.7085425533e+02 2.0000000000e+01 0.0000e+00 0.0000e+00
</event>
<event>
 5      1 +2.3375200e-06 2.13053700e+02 7.95774700e-02 4.81531000e-01
       13 -1    0    0    0    0 +0.0000000000e+00 +0.0000000000e+00 +4.9999998884e+02 5.0000000000e+02 1.0566000000e-01 0.0000e+00 -1.0000e+00
      994 -1    0    0    0    0 -0.0000000000e+00 -0.0000000000e+00 +0.0000000000e+00 1.3100000000e+02 1.3100000000e+02 0.0000e+00 0.0000e+00
       13  1    1    2    0    0 -5.9240058171e+00 -1.2256785533e+01 +7.5293192168e+01 7.6514041767e+01 1.0566000000e-01 0.0000e+00 1.0000e+00
      994  1    1    2    0    0 +8.0936856737e+00 +1.9595207423e+01 +3.5158989348e+00 1.3275105064e+02 1.3100000000e+02 0.0000e+00 0.0000e+00
      997  1    1    2    0    0 -2.1696798566e+00 -7.3384218898e+00 +4.2119089773e+02 4.2173490759e+02 2.0000000000e+01 0.0000e+00 0.0000e+00
</event>
<event>
 5      1 +2.3375200e-06 2.04799600e+02 7.95774700e-02 4.95283000e-01
       13 -1    0    0    0    0 +0.0000000000e+00 +0.0000000000e+00 +4.9999998884e+02 5.0000000000e+02 1.0566000000e-01 0.0000e+00 -1.0000e+00
      994 -1    0    0    0    0 -0.0000000000e+00 -0.0000000000e+00 +0.0000000000e+00 1.3100000000e+02 1.3100000000e+02 0.0000e+00 0.0000e+00
       13  1    1    2    0    0 -9.7211805838e+01 +1.6543876646e+01 +2.3833245438e+02 2.5792674353e+02 1.0566000000e-01 0.0000e+00 1.0000e+00
      994  1    1    2    0    0 +9.9714639455e+01 -3.2176251001e+01 +7.3430242757e+01 1.8311559464e+02 1.3100000000e+02 0.0000e+00 0.0000e+00
      997  1    1    2    0    0 -2.5028336172e+00 +1.5632374354e+01 +1.8823729170e+02 1.8995766183e+02 2.0000000000e+01 0.0000e+00 0.0000e+00
</event>
<event>
 5      1 +2.3375200e-06 2.11673200e+02 7.95774700e-02 4.83736500e-01
       13 -1    0    0    0    0 +0.0000000000e+00 +0.0000000000e+00 +4.9999998884e+02 5.0000000000e+02 1.0566000000e-01 0.0000e+00 -1.0000e+00
      994 -1    0    0    0    0 -0.0000000000e+00 -0.0000000000e+00 +0.0000000000e+00 1.3100000000e+02 1.3100000000e+02 0.0000e+00 0.0000e+00
       13  1    1    2    0    0 -9.7330204732e+00 +3.9259589376e+00 +2.7956232544e+01 2.9861462509e+01 1.0566000000e-01 0.0000e+00 1.0000e+00
      994  1    1    2    0    0 -1.0275122452e+00 -1.2147899273e+01 +3.1301585449e+00 1.3160328693e+02 1.3100000000e+02 0.0000e+00 0.0000e+00
      997  1    1    2    0    0 +1.0760532718e+01 +8.2219403349e+00 +4.6891359775e+02 4.6953525056e+02 2.0000000000e+01 0.0000e+00 0.0000e+00
</event>
<event>
 5      1 +2.3375200e-06 2.09855700e+02 7.95774700e-02 4.86696200e-01
       13 -1    0    0    0    0 +0.0000000000e+00 +0.0000000000e+00 +4.9999998884e+02 5.0000000000e+02 1.0566000000e-01 0.0000e+00 1.0000e+00
      994 -1    0    0    0    0 -0.0000000000e+00 -0.0000000000e+00 +0.0000000000e+00 1.3100000000e+02 1.3100000000e+02 0.0000e+00 0.0000e+00
       13  1    1    2    0    0 -5.3345649396e+00 -1.5428849205e+01 +3.6447957315e+01 3.9937097132e+01 1.0566000000e-01 0.0000e+00 -1.0000e+00
      994  1    1    2    0    0 -2.6625506406e+00 +1.4090022791e+01 +4.8689265070e+00 1.3187237908e+02 1.3100000000e+02 0.0000e+00 0.0000e+00
      997  1    1    2    0    0 +7.9971155802e+00 +1.3388264142e+00 +4.5868310501e+02 4.5919052379e+02 2.0000000000e+01 0.0000e+00 0.0000e+00
</event>
<event>
 5      1 +2.3375200e-06 2.11276600e+02 7.95774700e-02 4.84376900e-01
       13 -1    0    0    0    0 +0.0000000000e+00 +0.0000000000e+00 +4.9999998884e+02 5.0000000000e+02 1.0566000000e-01 0.0000e+00 1.0000e+00
      994 -1    0    0    0    0 -0.0000000000e+00 -0.0000000000e+00 +0.0000000000e+00 1.3100000000e+02 1.3100000000e+02 0.0000e+00 0.0000e+00
       13  1    1    2    0    0 +2.5458440920e+00 -1.2439883697e+01 +3.1239361203e+01 3.3721519552e+01 1.0566000000e-01 0.0000e+00 -1.0000e+00
      994  1    1    2    0    0 +3.1590582561e+00 +1.6227372275e+01 +4.0643148731e+00 1.3210157424e+02 1.3100000000e+02 0.0000e+00 0.0000e+00
      997  1    1    2    0    0 -5.7049023480e+00 -3.7874885780e+00 +4.6469631276e+02 4.6517690621e+02 2.0000000000e+01 0.0000e+00 0.0000e+00
</event>
<event>
 5      1 +2.3375200e-06 2.10249200e+02 7.95774700e-02 4.86049900e-01
       13 -1    0    0    0    0 +0.0000000000e+00 +0.0000000000e+00 +4.9999998884e+02 5.0000000000e+02 1.0566000000e-01 0.0000e+00 -1.0000e+00
      994 -1    0    0    0    0 -0.0000000000e+00 -0.0000000000e+00 +0.0000000000e+00 1.3100000000e+02 1.3100000000e+02 0.0000e+00 0.0000e+00
       13  1    1    2    0    0 +1.3500590164e+01 -5.0415299202e+00 +3.2828578836e+01 3.5852610939e+01 1.0566000000e-01 0.0000e+00 1.0000e+00
      994  1    1    2    0    0 -3.6941213071e+00 +9.0747418532e+00 +4.0037654779e+00 1.3142689074e+02 1.3100000000e+02 0.0000e+00 0.0000e+00
      997  1    1    2    0    0 -9.8064688565e+00 -4.0332119330e+00 +4.6316764452e+02 4.6372049832e+02 2.0000000000e+01 0.0000e+00 0.0000e+00
</event>
<event>
 5      1 +2.3375200e-06 2.06942400e+02 7.95774700e-02 4.91578500e-01
       13 -1    0    0    0    0 +0.0000000000e+00 +0.0000000000e+00 +4.9999998884e+02 5.0000000000e+02 1.0566000000e-01 0.0000e+00 1.0000e+00
      994 -1    0    0    0    0 -0.0000000000e+00 -0.0000000000e+00 +0.0000000000e+00 1.3100000000e+02 1.3100000000e+02 0.0000e+00 0.0000e+00
       13  1    1    2    0    0 -1.1345630568e+01 -9.7044219699e-02 +8.9998074854e+00 1.4482418630e+01 1.0566000000e-01 0.0000e+00 -1.0000e+00
      994  1    1    2    0    0 -1.0922855647e+00 +9.0810266247e+00 +6.6239383083e+00 1.3148587259e+02 1.3100000000e+02 0.0000e+00 0.0000e+00
      997  1    1    2    0    0 +1.2437916132e+01 -8.9839824050e+00 +4.8437624304e+02 4.8503170878e+02 2.0000000000e+01 0.0000e+00 0.0000e+00
</event>
<event>
 5      1 +2.3375200e-06 2.11894000e+02 7.95774700e-02 4.83381400e-01
       13 -1    0    0    0    0 +0.0000000000e+00 +0.0000000000e+00 +4.9999998884e+02 5.0000000000e+02 1.0566000000e-01 0.0000e+00 1.0000e+00
      994 -1    0    0    0    0 -0.0000000000e+00 -0.0000000000e+00 +0.0000000000e+00 1.3100000000e+02 1.3100000000e+02 0.0000e+00 0.0000e+00
       13  1    1    2    0    0 +7.9077293054e+00 -1.6321347123e+01 +8.0010643669e+01 8.2040434050e+01 1.0566000000e-01 0.0000e+00 -1.0000e+00
      994  1    1    2    0    0 -1.0887185084e+01 +1.4030781006e+01 +3.7792981954e+00 1.3225232213e+02 1.3100000000e+02 0.0000e+00 0.0000e+00
      997  1    1    2    0    0 +2.9794557785e+00 +2.2905661173e+00 +4.1621004697e+02 4.1670724382e+02 2.0000000000e+01 0.0000e+00 0.0000e+00
</event>
<event>
 5      1 +2.3375200e-06 2.09767200e+02 7.95774700e-02 4.86842100e-01
       13 -1    0    0    0    0 +0.0000000000e+00 +0.0000000000e+00 +4.9999998884e+02 5.0000000000e+02 1.0566000000e-01 0.0000e+00 -1.0000e+00
      994 -1    0    0    0    0 -0.0000000000e+00 -0.0000000000e+00 +0.0000000000e+00 1.3100000000e+02 1.3100000000e+02 0.0000e+00 0.0000e+00
       13  1    1    2    0    0 -4.1086823799e+00 +1.8644710259e+01 +4.5722814250e+01 4.9548899065e+01 1.0566000000e-01 0.0000e+00 1.0000e+00
      994  1    1    2    0    0 +3.1335634920e-01 -2.0555823352e+01 +6.0326292446e+00 1.3274047115e+02 1.3100000000e+02 0.0000e+00 0.0000e+00
      997  1    1    2    0    0 +3.7953260307e+00 +1.9111130938e+00 +4.4824454534e+02 4.4871062978e+02 2.0000000000e+01 0.0000e+00 0.0000e+00
</event>
<event>
 5      1 +2.3375200e-06 2.05707100e+02 7.95774700e-02 4.93702100e-01
       13 -1    0    0    0    0 +0.0000000000e+00 +0.0000000000e+00 +4.9999998884e+02 5.0000000000e+02 1.0566000000e-01 0.0000e+00 -1.0000e+00
      994 -1    0    0    0    0 -0.0000000000e+00 -0.0000000000e+00 +0.0000000000e+00 1.3100000000e+02 1.3100000000e+02 0.0000e+00 0.0000e+00
       13  1    1    2    0    0 +1.2488487627e+01 -1.6357081800e-01 +8.1442270760e+00 1.4910690035e+01 1.0566000000e-01 0.0000e+00 1.0000e+00
      994  1    1    2    0    0 -1.2208183354e+01 +8.6195430977e+00 +8.3689004605e+00 1.3211500581e+02 1.3100000000e+02 0.0000e+00 0.0000e+00
      997  1    1    2    0    0 -2.8030427334e-01 -8.4559722797e+00 +4.8348686130e+02 4.8397430416e+02 2.0000000000e+01 0.0000e+00 0.0000e+00
</event>
<event>
 5      1 +2.3375200e-06 2.12509600e+02 7.95774700e-02 4.82395900e-01
       13 -1    0    0    0    0 +0.0000000000e+00 +0.0000000000e+00 +4.9999998884e+02 5.0000000000e+02 1.0566000000e-01 0.0000e+00 -1.0000e+00
      994 -1    0    0    0    0 -0.0000000000e+00 -0.0000000000e+00 +0.0000000000e+00 1.3100000000e+02 1.3100000000e+02 0.0000e+00 0.0000e+00
       13  1    1    2    0    0 -1.0303008898e+01 +7.7779016645e+00 +5.9549869968e+01 6.0933126655e+01 1.0566000000e-01 0.0000e+00 1.0000e+00
      994  1    1    2    0    0 +3.5668339035e+00 -1.3671385916e+01 +2.7191029692e+00 1.3178779389e+02 1.3100000000e+02 0.0000e+00 0.0000e+00
      997  1    1    2    0    0 +6.7361749946e+00 +5.8934842517e+00 +4.3773101590e+02 4.3827907946e+02 2.0000000000e+01 0.0000e+00 0.0000e+00
</event>
<event>
 5      1 +2.3375200e-06 2.11958400e+02 7.95774700e-02 4.83277900e-01
       13 -1    0    0    0    0 +0.0000000000e+00 +0.0000000000e+00 +4.9999998884e+02 5.0000000000e+02 1.0566000000e-01 0.0000e+00 -1.0000e+00
      994 -1    0    0    0    0 -0.0000000000e+00 -0.0000000000e+00 +0.0000000000e+00 1.3100000000e+02 1.3100000000e+02 0.0000e+00 0.0000e+00
       13  1    1    2    0    0 -9.3359006610e-01 -1.1561288726e+01 +3.3327668201e+01 3.5288519651e+01 1.0566000000e-01 0.0000e+00 1.0000e+00
      994  1    1    2    0    0 -1.1895944467e+00 +1.6043947305e+01 +3.4481383216e+00 1.3202921282e+02 1.3100000000e+02 0.0000e+00 0.0000e+00
      997  1    1    2    0    0 +2.1231845128e+00 -4.4826585783e+00 +4.6322418231e+02 4.6368226753e+02 2.0000000000e+01 0.0000e+00 0.0000e+00
</event>
<event>
 5      1 +2.3375200e-06 2.06442200e+02 7.95774700e-02 4.92434400e-01
       13 -1    0    0    0    0 +0.0000000000e+00 +0.0000000000e+00 +4.9999998884e+02 5.0000000000e+02 1.0566000000e-01 0.0000e+00 1.0000e+00
      994 -1    0    0    0    0 -0.0000000000e+00 -0.0000000000e+00 +0.0000000000e+00 1.3100000000e+02 1.3100000000e+02 0.0000e+00 0.0000e+00
       13  1    1    2    0    0 -1.6228992878e+01 -2.9280415758e+01 +1.1401043687e+02 1.1882387739e+02 1.0566000000e-01 0.0000e+00 -1.0000e+00
      994  1    1    2    0    0 +4.9148923388e+00 +2.2324078779e+00 +6.7556335776e+00 1.3128510348e+02 1.3100000000e+02 0.0000e+00 0.0000e+00
      997  1    1    2    0    0 +1.1314100539e+01 +2.7048007880e+01 +3.7923391838e+02 3.8089101913e+02 2.0000000000e+01 0.0000e+00 0.0000e+00
</event>
<event>
 5      1 +2.3375200e-06 2.06770000e+02 7.95774700e-02 4.91872900e-01
       13 -1    0    0    0    0 +0.0000000000e+00 +0.0000000000e+00 +4.9999998884e+02 5.0000000000e+02 1.0566000000e-01 0.0000e+00 1.0000e+00
      994 -1    0    0    0    0 -0.0000000000e+00 -0.0000000000e+00 +0.0000000000e+00 1.3100000000e+02 1.3100000000e+02 0.0000e+00 0.0000e+00
       13  1    1    2    0    0 +2.9048858964e+00 +2.2996038856e+01 +4.2150017588e+01 4.8102924151e+01 1.0566000000e-01 0.0000e+00 -1.0000e+00
      994  1    1    2    0    0 -1.0649949908e+00 -1.5943083814e+01 +7.6481915445e+00 1.3219232568e+02 1.3100000000e+02 0.0000e+00 0.0000e+00
      997  1    1    2    0    0 -1.8398909056e+00 -7.0529550429e+00 +4.5020177970e+02 4.5070475017e+02 2.0000000000e+01 0.0000e+00 0.0000e+00
</event>
<event>
 5      1 +2.3375200e-06 2.11305400e+02 7.95774700e-02 4.84330300e-01
       13 -1    0    0    0    0 +0.0000000000e+00 +0.0000000000e+00 +4.9999998884e+02 5.0000000000e+02 1.0566000000e-01 0.0000e+00 -1.0000e+00
      994 -1    0    0    0    0 -0.0000000000e+00 -0.0000000000e+00 +0.0000000000e+00 1.3100000000e+02 1.3100000000e+02 0.0000e+00 0.0000e+00
       13  1    1    2    0    0 +2.8029770703e+00 -1.3571586917e+01 +4.8336114622e+01 5.0283553899e+01 1.0566000000e-01 0.0000e+00 1.0000e+00
      994  1    1    2    0    0 -1.4439861302e+01 -4.0384818882e+00 +3.8004508856e+00 1.3191005404e+02 1.3100000000e+02 0.0000e+00 0.0000e+00
      997  1    1    2    0    0 +1.1636884232e+01 +1.7610068805e+01 +4.4786342333e+02 4.4880639206e+02 2.0000000000e+01 0.0000e+00 0.0000e+00
</event>
<event>
 5      1 +2.3375200e-06 2.02187100e+02 7.95774700e-02 4.99936500e-01
       13 -1    0    0    0    0 +0.0000000000e+00 +0.0000000000e+00 +4.9999998884e+02 5.0000000000e+02 1.0566000000e-01 0.0000e+00 -1.0000e+00
      994 -1    0    0    0    0 -0.0000000000e+00 -0.0000000000e+00 +0.0000000000e+00 1.3100000000e+02 1.3100000000e+02 0.0000e+00 0.0000e+00
       13  1    1    2    0    0 -8.5125683426e+00 +7.2063806980e+00 +1.8811824330e+00 1.1311310885e+01 1.0566000000e-01 0.0000e+00 1.0000e+00
      994  1    1    2    0    0 +1.0491007266e+01 -6.9348716415e-02 +1.0755340020e+01 1.3185880093e+02 1.3100000000e+02 0.0000e+00 0.0000e+00
      997  1    1    2    0    0 -1.9784389230e+00 -7.1370319816e+00 +4.8736346638e+02 4.8782988819e+02 2.0000000000e+01 0.0000e+00 0.0000e+00
</event>
<event>
 5      1 +2.3375200e-06 2.06410300e+02 7.95774700e-02 4.92489100e-01
       13 -1    0    0    0    0 +0.0000000000e+00 +0.0000000000e+00 +4.9999998884e+02 5.0000000000e+02 1.0566000000e-01 0.0000e+00 1.0000e+00
      994 -1    0    0    0    0 -0.0000000000e+00 -0.0000000000e+00 +0.0000000000e+00 1.3100000000e+02 1.3100000000e+02 0.0000e+00 0.0000e+00
       13  1    1    2    0    0 -1.1585903871e+01 -1.6064824609e+01 +2.7363434253e+01 3.3779882421e+01 1.0566000000e-01 0.0000e+00 -1.0000e+00
      994  1    1    2    0    0 +1.6961109621e+01 +1.1117091100e+01 +8.7540215201e+00 1.3284916954e+02 1.3100000000e+02 0.0000e+00 0.0000e+00
      997  1    1    2    0    0 -5.3752057496e+00 +4.9477335098e+00 +4.6388253306e+02 4.6437094804e+02 2.0000000000e+01 0.0000e+00 0.0000e+00
</event>
<event>
 5      1 +2.3375200e-06 1.98436800e+02 7.95774700e-02 5.06895600e-01
       13 -1    0    0    0    0 +0.0000000000e+00 +0.0000000000e+00 +4.9999998884e+02 5.0000000000e+02 1.0566000000e-01 0.0000e+00 -1.0000e+00
      994 -1    0    0    0    0 -0.0000000000e+00 -0.0000000000e+00 +0.0000000000e+00 1.3100000000e+02 1.3100000000e+02 0.0000e+00 0.0000e+00
       13  1    1    2    0    0 +3.4051756127e+01 +2.0073684299e+01 +5.7595711859e+01 6.9855222319e+01 1.0566000000e-01 0.0000e+00 1.0000e+00
      994  1    1    2    0    0 -1.5207961279e+01 -1.3092530448e+01 +1.5649079109e+01 1.3344882958e+02 1.3100000000e+02 0.0000e+00 0.0000e+00
      997  1    1    2    0    0 -1.8843794848e+01 -6.9811538503e+00 +4.2675519787e+02 4.2769594810e+02 2.0000000000e+01 0.0000e+00 0.0000e+00
</event>
<event>
 5      1 +2.3375200e-06 2.12498000e+02 7.95774700e-02 4.82414500e-01
       13 -1    0    0    0    0 +0.0000000000e+00 +0.0000000000e+00 +4.9999998884e+02 5.0000000000e+02 1.0566000000e-01 0.0000e+00 -1.0000e+00
      994 -1    0    0    0    0 -0.0000000000e+00 -0.0000000000e+00 +0.0000000000e+00 1.3100000000e+02 1.3100000000e+02 0.0000e+00 0.0000e+00
       13  1    1    2    0    0 -1.5579174172e+01 +9.9190181898e+00 +7.3723588321e+01 7.6001817273e+01 1.0566000000e-01 0.0000e+00 1.0000e+00
      994  1    1    2    0    0 +5.2253670708e+01 +2.8332510301e+00 +1.5509238332e+01 1.4191550263e+02 1.3100000000e+02 0.0000e+00 0.0000e+00
      997  1    1    2    0    0 -3.6674496536e+01 -1.2752269220e+01 +4.1076716218e+02 4.1308268009e+02 2.0000000000e+01 0.0000e+00 0.0000e+00
</event>
<event>
 5      1 +2.3375200e-06 2.11110300e+02 7.95774700e-02 4.84646300e-01
       13 -1    0    0    0    0 +0.0000000000e+00 +0.0000000000e+00 +4.9999998884e+02 5.0000000000e+02 1.0566000000e-01 0.0000e+00 -1.0000e+00
      994 -1    0    0    0    0 -0.0000000000e+00 -0.0000000000e+00 +0.0000000000e+00 1.3100000000e+02 1.3100000000e+02 0.0000e+00 0.0000e+00
       13  1    1    2    0    0 -1.1003008604e+01 +9.1498262583e-01 +2.0913682484e+01 2.3649453918e+01 1.0566000000e-01 0.0000e+00 1.0000e+00
      994  1    1    2    0    0 +1.9717001919e+01 -1.7581033564e+01 +6.3185028430e+00 1.3378630866e+02 1.3100000000e+02 0.0000e+00 0.0000e+00
      997  1    1    2    0    0 -8.7139933147e+00 +1.6666050938e+01 +4.7276780351e+02 4.7356423743e+02 2.0000000000e+01 0.0000e+00 0.0000e+00
</event>
<event>
 5      1 +2.3375200e-06 2.09957200e+02 7.95774700e-02 4.86529200e-01
       13 -1    0    0    0    0 +0.0000000000e+00 +0.0000000000e+00 +4.9999998884e+02 5.0000000000e+02 1.0566000000e-01 0.0000e+00 -1.0000e+00
      994 -1    0    0    0    0 -0.0000000000e+00 -0.0000000000e+00 +0.0000000000e+00 1.3100000000e+02 1.3100000000e+02 0.0000e+00 0.0000e+00
       13  1    1    2    0    0 +5.9016589995e+00 -1.0280234538e+01 +2.0769722904e+01 2.3914542744e+01 1.0566000000e-01 0.0000e+00 1.0000e+00
      994  1    1    2    0    0 +8.7780606579e+00 +5.5465142099e+00 +4.2970158540e+00 1.3148111086e+02 1.3100000000e+02 0.0000e+00 0.0000e+00
      997  1    1    2    0    0 -1.4679719657e+01 +4.7337203282e+00 +4.7493325008e+02 4.7560434639e+02 2.0000000000e+01 0.0000e+00 0.0000e+00
</event>
<event>
 5      1 +2.3375200e-06 2.11570700e+02 7.95774700e-02 4.83901700e-01
       13 -1    0    0    0    0 +0.0000000000e+00 +0.0000000000e+00 +4.9999998884e+02 5.0000000000e+02 1.0566000000e-01 0.0000e+00 -1.0000e+00
      994 -1    0    0    0    0 -0.0000000000e+00 -0.0000000000e+00 +0.0000000000e+00 1.3100000000e+02 1.3100000000e+02 0.0000e+00 0.0000e+00
       13  1    1    2    0    0 +1.1864508909e+01 -7.8599246759e+00 +4.5996462699e+01 4.8148008603e+01 1.0566000000e-01 0.0000e+00 1.0000e+00
      994  1    1    2    0    0 -5.7956090984e+00 +1.3237986744e+01 +3.5095601583e+00 1.3184138345e+02 1.3100000000e+02 0.0000e+00 0.0000e+00
      997  1    1    2    0    0 -6.0688998104e+00 -5.3780620679e+00 +4.5049396598e+02 4.5101060795e+02 2.0000000000e+01 0.0000e+00 0.0000e+00
</event>
<event>
 5      1 +2.3375200e-06 1.96227500e+02 7.95774700e-02 5.11158500e-01
       13 -1    0    0    0    0 +0.0000000000e+00 +0.0000000000e+00 +4.9999998884e+02 5.0000000000e+02 1.0566000000e-01 0.0000e+00 -1.0000e+00
      994 -1    0    0    0    0 -0.0000000000e+00 -0.0000000000e+00 +0.0000000000e+00 1.3100000000e+02 1.3100000000e+02 0.0000e+00 0.0000e+00
       13  1    1    2    0    0 +2.1870764151e+00 +5.2707361870e+01 +1.1098091518e+02 1.2288052733e+02 1.0566000000e-01 0.0000e+00 1.0000e+00
      994  1    1    2    0    0 -3.3463610436e+01 -1.2204418492e+01 +2.2624827654e+01 1.3762864484e+02 1.3100000000e+02 0.0000e+00 0.0000e+00
      997  1    1    2    0    0 +3.1276534021e+01 -4.0502943378e+01 +3.6639424600e+02 3.7049082783e+02 2.0000000000e+01 0.0000e+00 0.0000e+00
</event>
<event>
 5      1 +2.3375200e-06 2.05652900e+02 7.95774700e-02 4.93795900e-01
       13 -1    0    0    0    0 +0.0000000000e+00 +0.0000000000e+00 +4.9999998884e+02 5.0000000000e+02 1.0566000000e-01 0.0000e+00 -1.0000e+00
      994 -1    0    0    0    0 -0.0000000000e+00 -0.0000000000e+00 +0.0000000000e+00 1.3100000000e+02 1.3100000000e+02 0.0000e+00 0.0000e+00
       13  1    1    2    0    0 +7.3791254411e+01 -1.5817530997e+01 +2.4115208914e+02 2.5268495162e+02 1.0566000000e-01 0.0000e+00 1.0000e+00
      994  1    1    2    0    0 -7.6476998045e+01 +6.9864909937e+01 +7.0406013336e+01 1.8123974063e+02 1.3100000000e+02 0.0000e+00 0.0000e+00
      997  1    1    2    0    0 +2.6857436334e+00 -5.4047378940e+01 +1.8844188636e+02 1.9707530774e+02 2.0000000000e+01 0.0000e+00 0.0000e+00
</event>
<event>
 5      1 +2.3375200e-06 2.11609300e+02 7.95774700e-02 4.83839400e-01
       13 -1    0    0    0    0 +0.0000000000e+00 +0.0000000000e+00 +4.9999998884e+02 5.0000000000e+02 1.0566000000e-01 0.0000e+00 -1.0000e+00
      994 -1    0    0    0    0 -0.0000000000e+00 -0.0000000000e+00 +0.0000000000e+00 1.3100000000e+02 1.3100000000e+02 0.0000e+00 0.0000e+00
       13  1    1    2    0    0 +1.3315068378e+00 -1.1029951872e+01 +2.9396838386e+01 3.1426390501e+01 1.0566000000e-01 0.0000e+00 1.0000e+00
      994  1    1    2    0    0 +6.1628417799e+00 +7.9263239012e+00 +2.9444739102e+00 1.3141718745e+02 1.3100000000e+02 0.0000e+00 0.0000e+00
      997  1    1    2    0    0 -7.4943486176e+00 +3.1036279711e+00 +4.6765867654e+02 4.6815642205e+02 2.0000000000e+01 0.0000e+00 0.0000e+00
</event>
<event>
 5      1 +2.3375200e-06 2.11980400e+02 7.95774700e-02 4.83242500e-01
       13 -1    0    0    0    0 +0.0000000000e+00 +0.0000000000e+00 +4.9999998884e+02 5.0000000000e+02 1.0566000000e-01 0.0000e+00 1.0000e+00
      994 -1    0    0    0    0 -0.0000000000e+00 -0.0000000000e+00 +0.0000000000e+00 1.3100000000e+02 1.3100000000e+02 0.0000e+00 0.0000e+00
       13  1    1    2    0    0 +3.0692918540e+00 +1.1000624837e+01 +4.3771903366e+01 4.5237429056e+01 1.0566000000e-01 0.0000e+00 -1.0000e+00
      994  1    1    2    0    0 +9.6968342235e+00 +5.8556605434e-01 +2.6191955382e+00 1.3138581227e+02 1.3100000000e+02 0.0000e+00 0.0000e+00
      997  1    1    2    0    0 -1.2766126077e+01 -1.1586190892e+01 +4.5360888993e+02 4.5437675867e+02 2.0000000000e+01 0.0000e+00 0.0000e+00
</event>
<event>
 5      1 +2.3375200e-06 2.06637100e+02 7.95774700e-02 4.92100200e-01
       13 -1    0    0    0    0 +0.0000000000e+00 +0.0000000000e+00 +4.9999998884e+02 5.0000000000e+02 1.0566000000e-01 0.0000e+00 -1.0000e+00
      994 -1    0    0    0    0 -0.0000000000e+00 -0.0000000000e+00 +0.0000000000e+00 1.3100000000e+02 1.3100000000e+02 0.0000e+00 0.0000e+00
       13  1    1    2    0    0 +3.0188128057e+01 -1.3851504396e+01 +6.0168682381e+01 6.8727496340e+01 1.0566000000e-01 0.0000e+00 1.0000e+00
      994  1    1    2    0    0 -5.4239784809e+01 +1.3771552786e+01 +2.3033219867e+01 1.4430224925e+02 1.3100000000e+02 0.0000e+00 0.0000e+00
      997  1    1    2    0    0 +2.4051656752e+01 +7.9951609402e-02 +4.1679808659e+02 4.1797025441e+02 2.0000000000e+01 0.0000e+00 0.0000e+00
</event>
<event>
 5      1 +2.3375200e-06 2.09649600e+02 7.95774700e-02 4.87036000e-01
       13 -1    0    0    0    0 +0.0000000000e+00 +0.0000000000e+00 +4.9999998884e+02 5.0000000000e+02 1.0566000000e-01 0.0000e+00 1.0000e+00
      994 -1    0    0    0    0 -0.0000000000e+00 -0.0000000000e+00 +0.0000000000e+00 1.3100000000e+02 1.3100000000e+02 0.0000e+00 0.0000e+00
       13  1    1    2    0    0 +9.7740750731e+00 -1.2347397205e+01 +7.8070445062e+01 7.9642930116e+01 1.0566000000e-01 0.0000e+00 -1.0000e+00
      994  1    1    2    0    0 +2.1448242393e+01 -2.9178000765e+01 +1.0653157769e+01 1.3633001357e+02 1.3100000000e+02 0.0000e+00 0.0000e+00
      997  1    1    2    0    0 -3.1222317466e+01 +4.1525397970e+01 +4.1127638601e+02 4.1502705631e+02 2.0000000000e+01 0.0000e+00 0.0000e+00
</event>
<event>
 5      1 +2.3375200e-06 2.09009400e+02 7.95774700e-02 4.88096600e-01
       13 -1    0    0    0    0 +0.0000000000e+00 +0.0000000000e+00 +4.9999998884e+02 5.0000000000e+02 1.0566000000e-01 0.0000e+00 -1.0000e+00
      994 -1    0    0    0    0 -0.0000000000e+00 -0.0000000000e+00 +0.0000000000e+00 1.3100000000e+02 1.3100000000e+02 0.0000e+00 0.0000e+00
       13  1    1    2    0    0 -1.4956126548e+01 +2.9543724764e+00 +7.2636525874e+01 7.4219202995e+01 1.0566000000e-01 0.0000e+00 1.0000e+00
      994  1    1    2    0    0 -4.9805459243e+01 -2.7346465756e+01 +2.1292856430e+01 1.4437035255e+02 1.3100000000e+02 0.0000e+00 0.0000e+00
      997  1    1    2    0    0 +6.4761585791e+01 +2.4392093280e+01 +4.0607060653e+02 4.1241044446e+02 2.0000000000e+01 0.0000e+00 0.0000e+00
</event>
<event>
 5      1 +2.3375200e-06 1.96188000e+02 7.95774700e-02 5.11235800e-01
       13 -1    0    0    0    0 +0.0000000000e+00 +0.0000000000e+00 +4.9999998884e+02 5.0000000000e+02 1.0566000000e-01 0.0000e+00 1.0000e+00
      994 -1    0    0    0    0 -0.0000000000e+00 -0.0000000000e+00 +0.0000000000e+00 1.3100000000e+02 1.3100000000e+02 0.0000e+00 0.0000e+00
       13  1    1    2    0    0 +9.8057549114e+00 +1.2008924344e+01 +1.5717724794e+00 1.5583604399e+01 1.0566000000e-01 0.0000e+00 -1.0000e+00
      994  1    1    2    0    0 +3.4729177180e+00 -8.3455337333e+00 +1.5892214518e+01 1.3226969257e+02 1.3100000000e+02 0.0000e+00 0.0000e+00
      997  1    1    2    0    0 -1.3278672629e+01 -3.6633906112e+00 +4.8253600184e+02 4.8314670303e+02 2.0000000000e+01 0.0000e+00 0.0000e+00
</event>
<event>
 5      1 +2.3375200e-06 2.10394100e+02 7.95774700e-02 4.85812800e-01
       13 -1    0    0    0    0 +0.0000000000e+00 +0.0000000000e+00 +4.9999998884e+02 5.0000000000e+02 1.0566000000e-01 0.0000e+00 -1.0000e+00
      994 -1    0    0    0    0 -0.0000000000e+00 -0.0000000000e+00 +0.0000000000e+00 1.3100000000e+02 1.3100000000e+02 0.0000e+00 0.0000e+00
       13  1    1    2    0    0 -1.0209488217e+01 +1.7126116066e+01 +6.6951432468e+01 6.9857304376e+01 1.0566000000e-01 0.0000e+00 1.0000e+00
      994  1    1    2    0    0 +1.1533115170e+01 -5.4289410428e+00 +4.2197025805e+00 1.3168633960e+02 1.3100000000e+02 0.0000e+00 0.0000e+00
      997  1    1    2    0    0 -1.3236269536e+00 -1.1697175023e+01 +4.2882885379e+02 4.2945635603e+02 2.0000000000e+01 0.0000e+00 0.0000e+00
</event>
<event>
 5      1 +2.3375200e-06 2.08565900e+02 7.95774700e-02 4.88836200e-01
       13 -1    0    0    0    0 +0.0000000000e+00 +0.0000000000e+00 +4.9999998884e+02 5.0000000000e+02 1.0566000000e-01 0.0000e+00 -1.0000e+00
      994 -1    0    0    0    0 -0.0000000000e+00 -0.0000000000e+00 +0.0000000000e+00 1.3100000000e+02 1.3100000000e+02 0.0000e+00 0.0000e+00
       13  1    1    2    0    0 -1.5376985481e+00 -2.1394832237e+01 +6.0831463535e+01 6.4502569585e+01 1.0566000000e-01 0.0000e+00 1.0000e+00
      994  1    1    2    0    0 +1.1380849919e+01 -3.0317438634e+00 +5.5768568489e+00 1.3164655920e+02 1.3100000000e+02 0.0000e+00 0.0000e+00
      997  1    1    2    0    0 -9.8431513704e+00 +2.4426576100e+01 +4.3359166845e+02 4.3485087122e+02 2.0000000000e+01 0.0000e+00 0.0000e+00
</event>
<event>
 5      1 +2.3375200e-06 2.07660700e+02 7.95774700e-02 4.90358400e-01
       13 -1    0    0    0    0 +0.0000000000e+00 +0.0000000000e+00 +4.9999998884e+02 5.0000000000e+02 1.0566000000e-01 0.0000e+00 -1.0000e+00
      994 -1    0    0    0    0 -0.0000000000e+00 -0.0000000000e+00 +0.0000000000e+00 1.3100000000e+02 1.3100000000e+02 0.0000e+00 0.0000e+00
       13  1    1    2    0    0 +7.7707310979e+00 -1.7952550410e+01 +3.7226713788e+01 4.2053747889e+01 1.0566000000e-01 0.0000e+00 1.0000e+00
      994  1    1    2    0    0 -4.7145655964e+00 +2.9170664044e+00 +5.7656435442e+00 1.3124396767e+02 1.3100000000e+02 0.0000e+00 0.0000e+00
      997  1    1    2    0    0 -3.0561655015e+00 +1.5035484006e+01 +4.5700763150e+02 4.5770228444e+02 2.0000000000e+01 0.0000e+00 0.0000e+00
</event>
<event>
 5      1 +2.3375200e-06 2.07685400e+02 7.95774700e-02 4.90316700e-01
       13 -1    0    0    0    0 +0.0000000000e+00 +0.0000000000e+00 +4.9999998884e+02 5.0000000000e+02 1.0566000000e-01 0.0000e+00 1.0000e+00
      994 -1    0    0    0    0 -0.0000000000e+00 -0.0000000000e+00 +0.0000000000e+00 1.3100000000e+02 1.3100000000e+02 0.0000e+00 0.0000e+00
       13  1    1    2    0    0 -1.9221346658e+01 -2.0142911727e+01 +7.3534063391e+01 7.8628663368e+01 1.0566000000e-01 0.0000e+00 -1.0000e+00
      994  1    1    2    0    0 +1.4572030100e+01 +8.2147197725e+00 +7.0162020140e+00 1.3224996322e+02 1.3100000000e+02 0.0000e+00 0.0000e+00
      997  1    1    2    0    0 +4.6493165574e+00 +1.1928191954e+01 +4.1944972343e+02 4.2012137341e+02 2.0000000000e+01 0.0000e+00 0.0000e+00
</event>
<event>
 5      1 +2.3375200e-06 2.10455200e+02 7.95774700e-02 4.85712900e-01
       13 -1    0    0    0    0 +0.0000000000e+00 +0.0000000000e+00 +4.9999998884e+02 5.0000000000e+02 1.0566000000e-01 0.0000e+00 1.0000e+00
      994 -1    0    0    0    0 -0.0000000000e+00 -0.0000000000e+00 +0.0000000000e+00 1.3100000000e+02 1.3100000000e+02 0.0000e+00 0.0000e+00
       13  1    1    2    0    0 +2.2366629932e+01 +1.0913233004e+01 +9.3011284646e+01 9.6283306054e+01 1.0566000000e-01 0.0000e+00 -1.0000e+00
      994  1    1    2    0    0 -2.2213024091e+01 -3.3487812504e+00 +5.8838844813e+00 1.3304229730e+02 1.3100000000e+02 0.0000e+00 0.0000e+00
      997  1    1    2    0    0 -1.5360584159e-01 -7.5644517532e+00 +4.0110481971e+02 4.0167439664e+02 2.0000000000e+01 0.0000e+00 0.0000e+00
</event>
<event>
 5      1 +2.3375200e-06 2.11529100e+02 7.95774700e-02 4.83968800e-01
       13 -1    0    0    0    0 +0.0000000000e+00 +0.0000000000e+00 +4.9999998884e+02 5.0000000000e+02 1.0566000000e-01 0.0000e+00 1.0000e+00
      994 -1    0    0    0    0 -0.0000000000e+00 -0.0000000000e+00 +0.0000000000e+00 1.3100000000e+02 1.3100000000e+02 0.0000e+00 0.0000e+00
       13  1    1    2    0    0 -1.6308405760e+01 -5.3814621172e-01 +5.3645009791e+01 5.6071846227e+01 1.0566000000e-01 0.0000e+00 -1.0000e+00
      994  1    1    2    0    0 +1.9827555059e+01 +7.6719246386e+00 +4.7499676074e+00 1.3279891776e+02 1.3100000000e+02 0.0000e+00 0.0000e+00
      997  1    1    2    0    0 -3.5191492992e+00 -7.1337784268e+00 +4.4160501144e+02 4.4212923601e+02 2.0000000000e+01 0.0000e+00 0.0000e+00
</event>
<event>
 5      1 +2.3375200e-06 2.09507900e+02 7.95774700e-02 4.87270000e-01
       13 -1    0    0    0    0 +0.0000000000e+00 +0.0000000000e+00 +4.9999998884e+02 5.0000000000e+02 1.0566000000e-01 0.0000e+00 -1.0000e+00
      994 -1    0    0    0    0 -0.0000000000e+00 -0.0000000000e+00 +0.0000000000e+00 1.3100000000e+02 1.3100000000e+02 0.0000e+00 0.0000e+00
       13  1    1    2    0    0 +1.6832072047e+00 +2.0591910210e+01 +5.0432862930e+01 5.4500869533e+01 1.0566000000e-01 0.0000e+00 1.0000e+00
      994  1    1    2    0    0 +3.4432647992e+01 -2.6626668284e+01 +1.3789793683e+01 1.3872903489e+02 1.3100000000e+02 0.0000e+00 0.0000e+00
      997  1    1    2    0    0 -3.6115855197e+01 +6.0347580740e+00 +4.3577733222e+02 4.3777009558e+02 2.0000000000e+01 0.0000e+00 0.0000e+00
</event>
<event>
 5      1 +2.3375200e-06 2.01904500e+02 7.95774700e-02 5.00449200e-01
       13 -1    0    0    0    0 +0.0000000000e+00 +0.0000000000e+00 +4.9999998884e+02 5.0000000000e+02 1.0566000000e-01 0.0000e+00 1.0000e+00
      994 -1    0    0    0    0 -0.0000000000e+00 -0.0000000000e+00 +0.0000000000e+00 1.3100000000e+02 1.3100000000e+02 0.0000e+00 0.0000e+00
       13  1    1    2    0    0 -1.4973941248e+01 +2.4383344021e+01 +3.4609538458e+01 4.4906544050e+01 1.0566000000e-01 0.0000e+00 -1.0000e+00
      994  1    1    2    0    0 +8.4479843961e+00 -2.5242022762e+01 +1.4219095672e+01 1.3443106351e+02 1.3100000000e+02 0.0000e+00 0.0000e+00
      997  1    1    2    0    0 +6.5259568517e+00 +8.5867874030e-01 +4.5117135471e+02 4.5166239244e+02 2.0000000000e+01 0.0000e+00 0.0000e+00
</event>
<event>
 5      1 +2.3375200e-06 2.04738100e+02 7.95774700e-02 4.95390800e-01
       13 -1    0    0    0    0 +0.0000000000e+00 +0.0000000000e+00 +4.9999998884e+02 5.0000000000e+02 1.0566000000e-01 0.0000e+00 -1.0000e+00
      994 -1    0    0    0    0 -0.0000000000e+00 -0.0000000000e+00 +0.0000000000e+00 1.3100000000e+02 1.3100000000e+02 0.0000e+00 0.0000e+00
       13  1    1    2    0    0 -1.2891295103e+01 -5.7584035102e+00 +1.0774349356e+01 1.7760700113e+01 1.0566000000e-01 0.0000e+00 1.0000e+00
      994  1    1    2    0    0 -6.9766454020e+00 +1.8026574705e+00 +8.2876356045e+00 1.3145953012e+02 1.3100000000e+02 0.0000e+00 0.0000e+00
      997  1    1    2    0    0 +1.9867940505e+01 +3.9557460397e+00 +4.8093800387e+02 4.8177976977e+02 2.0000000000e+01 0.0000e+00 0.0000e+00
</event>
<event>
 5      1 +2.3375200e-06 2.06565000e+02 7.95774700e-02 4.92223800e-01
       13 -1    0    0    0    0 +0.0000000000e+00 +0.0000000000e+00 +4.9999998884e+02 5.0000000000e+02 1.0566000000e-01 0.0000e+00 -1.0000e+00
      994 -1    0    0    0    0 -0.0000000000e+00 -0.0000000000e+00 +0.0000000000e+00 1.3100000000e+02 1.3100000000e+02 0.0000e+00 0.0000e+00
       13  1    1    2    0    0 -1.6181549868e+01 -1.3968859338e+01 +3.3596004196e+01 3.9820525477e+01 1.0566000000e-01 0.0000e+00 1.0000e+00
      994  1    1    2    0    0 +6.0351243582e+00 +2.0094714630e+01 +8.7740546497e+00 1.3295940853e+02 1.3100000000e+02 0.0000e+00 0.0000e+00
      997  1    1    2    0    0 +1.0146425510e+01 -6.1258552913e+00 +4.5762992999e+02 4.5822006599e+02 2.0000000000e+01 0.0000e+00 0.0000e+00
</event>
<event>
 5      1 +2.3375200e-06 2.07280100e+02 7.95774700e-02 4.91003500e-01
       13 -1    0    0    0    0 +0.0000000000e+00 +0.0000000000e+00 +4.9999998884e+02 5.0000000000e+02 1.0566000000e-01 0.0000e+00 -1.0000e+00
      994 -1    0    0    0    0 -0.0000000000e+00 -0.0000000000e+00 +0.0000000000e+00 1.3100000000e+02 1.3100000000e+02 0.0000e+00 0.0000e+00
       13  1    1    2    0    0 -5.0007204384e+00 -2.0323338990e+01 +3.6679037725e+01 4.2230418954e+01 1.0566000000e-01 0.0000e+00 1.0000e+00
      994  1    1    2    0    0 +7.2848754761e+00 +1.3744113588e+01 +7.1570272946e+00 1.3211431833e+02 1.3100000000e+02 0.0000e+00 0.0000e+00
      997  1    1    2    0    0 -2.2841550377e+00 +6.5792254022e+00 +4.5616392382e+02 4.5665526271e+02 2.0000000000e+01 0.0000e+00 0.0000e+00
</event>
<event>
 5      1 +2.3375200e-06 2.10570000e+02 7.95774700e-02 4.85525300e-01
       13 -1    0    0    0    0 +0.0000000000e+00 +0.0000000000e+00 +4.9999998884e+02 5.0000000000e+02 1.0566000000e-01 0.0000e+00 1.0000e+00
      994 -1    0    0    0    0 -0.0000000000e+00 -0.0000000000e+00 +0.0000000000e+00 1.3100000000e+02 1.3100000000e+02 0.0000e+00 0.0000e+00
       13  1    1    2    0    0 +2.6226707065e+00 -1.5861590866e+01 +3.8586047436e+01 4.1801467524e+01 1.0566000000e-01 0.0000e+00 -1.0000e+00
      994  1    1    2    0    0 -2.8381694746e+00 +2.0648085626e+01 +5.4380372680e+00 1.3275907086e+02 1.3100000000e+02 0.0000e+00 0.0000e+00
      997  1    1    2    0    0 +2.1549876809e-01 -4.7864947602e+00 +4.5597590413e+02 4.5643946162e+02 2.0000000000e+01 0.0000e+00 0.0000e+00
</event>
<event>
 5      1 +2.3375200e-06 2.09516600e+02 7.95774700e-02 4.87255700e-01
       13 -1    0    0    0    0 +0.0000000000e+00 +0.0000000000e+00 +4.9999998884e+02 5.0000000000e+02 1.0566000000e-01 0.0000e+00 1.0000e+00
      994 -1    0    0    0    0 -0.0000000000e+00 -0.0000000000e+00 +0.0000000000e+00 1.3100000000e+02 1.3100000000e+02 0.0000e+00 0.0000e+00
       13  1    1    2    0    0 -1.0193235159e+01 +1.2379131656e+01 +3.3410234442e+01 3.7059410047e+01 1.0566000000e-01 0.0000e+00 -1.0000e+00
      994  1    1    2    0    0 +1.0791336644e+01 -3.0316664941e+00 +4.7410186451e+00 1.3156413343e+02 1.3100000000e+02 0.0000e+00 0.0000e+00
      997  1    1    2    0    0 -5.9810148560e-01 -9.3474651621e+00 +4.6184873575e+02 4.6237645652e+02 2.0000000000e+01 0.0000e+00 0.0000e+00
</event>
<event>
 5      1 +2.3375200e-06 2.05601400e+02 7.95774700e-02 4.93885200e-01
       13 -1    0    0    0    0 +0.0000000000e+00 +0.0000000000e+00 +4.9999998884e+02 5.0000000000e+02 1.0566000000e-01 0.0000e+00 1.0000e+00
      994 -1    0    0    0    0 -0.0000000000e+00 -0.0000000000e+00 +0.0000000000e+00 1.3100000000e+02 1.3100000000e+02 0.0000e+00 0.0000e+00
       13  1    1    2    0    0 -7.4857375303e+00 +1.5233782020e+01 +1.8643646017e+01 2.5213113292e+01 1.0566000000e-01 0.0000e+00 -1.0000e+00
      994  1    1    2    0    0 +8.5193615274e+00 -1.9587723252e+00 +7.6951176274e+00 1.3151665729e+02 1.3100000000e+02 0.0000e+00 0.0000e+00
      997  1    1    2    0    0 -1.0336239971e+00 -1.3275009695e+01 +4.7366122519e+02 4.7427022942e+02 2.0000000000e+01 0.0000e+00 0.0000e+00
</event>
<event>
 5      1 +2.3375200e-06 2.06128700e+02 7.95774700e-02 4.92973500e-01
       13 -1    0    0    0    0 +0.0000000000e+00 +0.0000000000e+00 +4.9999998884e+02 5.0000000000e+02 1.0566000000e-01 0.0000e+00 -1.0000e+00
      994 -1    0    0    0    0 -0.0000000000e+00 -0.0000000000e+00 +0.0000000000e+00 1.3100000000e+02 1.3100000000e+02 0.0000e+00 0.0000e+00
       13  1    1    2    0    0 -1.6217260805e+01 +8.6610938793e+00 +2.0025881637e+01 2.7185679954e+01 1.0566000000e-01 0.0000e+00 1.0000e+00
      994  1    1    2    0    0 +2.9890492164e+01 -1.1663980346e+01 +1.2221099872e+01 1.3542468476e+02 1.3100000000e+02 0.0000e+00 0.0000e+00
      997  1    1    2    0    0 -1.3673231359e+01 +3.0028864666e+00 +4.6775300733e+02 4.6838963529e+02 2.0000000000e+01 0.0000e+00 0.0000e+00
</event>
<event>
 5      1 +2.3375200e-06 2.13713600e+02 7.95774700e-02 4.80489300e-01
       13 -1    0    0    0    0 +0.0000000000e+00 +0.0000000000e+00 +4.9999998884e+02 5.0000000000e+02 1.0566000000e-01 0.0000e+00 1.0000e+00
      994 -1    0    0    0    0 -0.0000000000e+00 -0.0000000000e+00 +0.0000000000e+00 1.3100000000e+02 1.3100000000e+02 0.0000e+00 0.0000e+00
       13  1    1    2    0    0 -4.3214059160e+00 -9.6757140846e+00 +4.3175729523e+01 4.4457269102e+01 1.0566000000e-01 0.0000e+00 -1.0000e+00
      994  1    1    2    0    0 +9.0851207045e+01 +6.6727840888e+01 +7.1512486064e+01 1.8703363931e+02 1.3100000000e+02 0.0000e+00 0.0000e+00
      997  1    1    2    0    0 -8.6529801129e+01 -5.7052126803e+01 +3.8531177325e+02 3.9950909159e+02 2.0000000000e+01 0.0000e+00 0.0000e+00
</event>
<event>
 5      1 +2.3375200e-06 2.10306500e+02 7.95774700e-02 4.85956000e-01
       13 -1    0    0    0    0 +0.0000000000e+00 +0.0000000000e+00 +4.9999998884e+02 5.0000000000e+02 1.0566000000e-01 0.0000e+00 -1.0000e+00
      994 -1    0    0    0    0 -0.0000000000e+00 -0.0000000000e+00 +0.0000000000e+00 1.3100000000e+02 1.3100000000e+02 0.0000e+00 0.0000e+00
       13  1    1    2    0    0 -5.4552594356e+01 +2.7530956053e+01 +3.0400546531e+02 3.1008591260e+02 1.0566000000e-01 0.0000e+00 1.0000e+00
      994  1    1    2    0    0 +5.4535444763e+01 -6.0920973464e+01 +3.9144606095e+01 1.5930718731e+02 1.3100000000e+02 0.0000e+00 0.0000e+00
      997  1    1    2    0    0 +1.7149592947e-02 +3.3390017411e+01 +1.5684991743e+02 1.6160690009e+02 2.0000000000e+01 0.0000e+00 0.0000e+00
</event>
<event>
 5      1 +2.3375200e-06 2.10003000e+02 7.95774700e-02 4.86453900e-01
       13 -1    0    0    0    0 +0.0000000000e+00 +0.0000000000e+00 +4.9999998884e+02 5.0000000000e+02 1.0566000000e-01 0.0000e+00 1.0000e+00
      994 -1    0    0    0    0 -0.0000000000e+00 -0.0000000000e+00 +0.0000000000e+00 1.3100000000e+02 1.3100000000e+02 0.0000e+00 0.0000e+00
       13  1    1    2    0    0 +8.7331667946e+00 +2.5054646813e+01 +1.3614503948e+02 1.3870647594e+02 1.0566000000e-01 0.0000e+00 -1.0000e+00
      994  1    1    2    0    0 -2.8604423337e+00 -5.2874102712e+00 +3.9018065825e+00 1.3119589526e+02 1.3100000000e+02 0.0000e+00 0.0000e+00
      997  1    1    2    0    0 -5.8727244609e+00 -1.9767236542e+01 +3.5995314277e+02 3.6109762880e+02 2.0000000000e+01 0.0000e+00 0.0000e+00
</event>
<event>
 5      1 +2.3375200e-06 2.12334800e+02 7.95774700e-02 4.82675000e-01
       13 -1    0    0    0    0 +0.0000000000e+00 +0.0000000000e+00 +4.9999998884e+02 5.0000000000e+02 1.0566000000e-01 0.0000e+00 1.0000e+00
      994 -1    0    0    0    0 -0.0000000000e+00 -0.0000000000e+00 +0.0000000000e+00 1.3100000000e+02 1.3100000000e+02 0.0000e+00 0.0000e+00
       13  1    1    2    0    0 +5.5294530952e+00 +1.0653766622e+01 +5.0034175839e+01 5.1453935813e+01 1.0566000000e-01 0.0000e+00 -1.0000e+00
      994  1    1    2    0    0 +2.0676018385e+00 -8.2640548580e+00 +2.2326499066e+00 1.3129567512e+02 1.3100000000e+02 0.0000e+00 0.0000e+00
      997  1    1    2    0    0 -7.5970549336e+00 -2.3897117638e+00 +4.4773316309e+02 4.4825038907e+02 2.0000000000e+01 0.0000e+00 0.0000e+00
</event>
<event>
 5      1 +2.3375200e-06 2.11448700e+02 7.95774700e-02 4.84098600e-01
       13 -1    0    0    0    0 +0.0000000000e+00 +0.0000000000e+00 +4.9999998884e+02 5.0000000000e+02 1.0566000000e-01 0.0000e+00 1.0000e+00
      994 -1    0    0    0    0 -0.0000000000e+00 -0.0000000000e+00 +0.0000000000e+00 1.3100000000e+02 1.3100000000e+02 0.0000e+00 0.0000e+00
       13  1    1    2    0    0 +2.6227533157e+01 +3.2215623758e+01 +2.2312509462e+02 2.2695935522e+02 1.0566000000e-01 0.0000e+00 -1.0000e+00
      994  1    1    2    0    0 -1.8120409281e+01 -4.5339836459e+01 +1.4612975340e+01 1.4056524838e+02 1.3100000000e+02 0.0000e+00 0.0000e+00
      997  1    1    2    0    0 -8.1071238766e+00 +1.3124212701e+01 +2.6226191888e+02 2.6347539641e+02 2.0000000000e+01 0.0000e+00 0.0000e+00
</event>
<event>
 5      1 +2.3375200e-06 2.12080800e+02 7.95774700e-02 4.83081500e-01
       13 -1    0    0    0    0 +0.0000000000e+00 +0.0000000000e+00 +4.9999998884e+02 5.0000000000e+02 1.0566000000e-01 0.0000e+00 1.0000e+00
      994 -1    0    0    0    0 -0.0000000000e+00 -0.0000000000e+00 +0.0000000000e+00 1.3100000000e+02 1.3100000000e+02 0.0000e+00 0.0000e+00
       13  1    1    2    0    0 +6.1042050409e+00 -1.3851791461e+01 +6.5842295404e+01 6.7559991666e+01 1.0566000000e-01 0.0000e+00 -1.0000e+00
      994  1    1    2    0    0 -1.1247364542e+01 +7.9191536638e+00 +3.0072650499e+00 1.3175454393e+02 1.3100000000e+02 0.0000e+00 0.0000e+00
      997  1    1    2    0    0 +5.1431595009e+00 +5.9326377969e+00 +4.3115042838e+02 4.3168546440e+02 2.0000000000e+01 0.0000e+00 0.0000e+00
</event>
<event>
 5      1 +2.3375200e-06 2.11552700e+02 7.95774700e-02 4.83930700e-01
       13 -1    0    0    0    0 +0.0000000000e+00 +0.0000000000e+00 +4.9999998884e+02 5.0000000000e+02 1.0566000000e-01 0.0000e+00 1.0000e+00
      994 -1    0    0    0    0 -0.0000000000e+00 -0.0000000000e+00 +0.0000000000e+00 1.3100000000e+02 1.3100000000e+02 0.0000e+00 0.0000e+00
       13  1    1    2    0    0 +2.9729934526e+00 -1.8668015411e+01 +5.5158479552e+01 5.8307825547e+01 1.0566000000e-01 0.0000e+00 -1.0000e+00
      994  1    1    2    0    0 -2.2503163921e+01 +3.7434626219e+01 +1.2073507659e+01 1.3861642476e+02 1.3100000000e+02 0.0000e+00 0.0000e+00
      997  1    1    2    0    0 +1.9530170469e+01 -1.8766610808e+01 +4.3276800162e+02 4.3407574969e+02 2.0000000000e+01 0.0000e+00 0.0000e+00
</event>
<event>
 5      1 +2.3375200e-06 2.12936200e+02 7.95774700e-02 4.81717400e-01
       13 -1    0    0    0    0 +0.0000000000e+00 +0.0000000000e+00 +4.9999998884e+02 5.0000000000e+02 1.0566000000e-01 0.0000e+00 -1.0000e+00
      994 -1    0    0    0    0 -0.0000000000e+00 -0.0000000000e+00 +0.0000000000e+00 1.3100000000e+02 1.3100000000e+02 0.0000e+00 0.0000e+00
       13  1    1    2    0    0 +2.7973026170e+00 +1.3440864927e+01 +7.4709666633e+01 7.5960695128e+01 1.0566000000e-01 0.0000e+00 1.0000e+00
      994  1    1    2    0    0 -5.6790151181e+00 -1.7928171734e+01 +3.1383702525e+00 1.3238020971e+02 1.3100000000e+02 0.0000e+00 0.0000e+00
      997  1    1    2    0    0 +2.8817125012e+00 +4.4873068072e+00 +4.2215195195e+02 4.2265909516e+02 2.0000000000e+01 0.0000e+00 0.0000e+00
</event>
<event>
 5      1 +2.3375200e-06 1.64690100e+02 7.95774700e-02 5.89798100e-01
       13 -1    0    0    0    0 +0.0000000000e+00 +0.0000000000e+00 +4.9999998884e+02 5.0000000000e+02 1.0566000000e-01 0.0000e+00 -1.0000e+00
      994 -1    0    0    0    0 -0.0000000000e+00 -0.0000000000e+00 +0.0000000000e+00 1.3100000000e+02 1.3100000000e+02 0.0000e+00 0.0000e+00
       13  1    1    2    0    0 -2.6254486317e+00 +5.9256794455e+01 +2.1758601727e+02 2.2552593364e+02 1.0566000000e-01 0.0000e+00 1.0000e+00
      994  1    1    2    0    0 +7.3112928451e+00 -1.3201300012e+00 +1.6143074054e+01 1.3219983580e+02 1.3100000000e+02 0.0000e+00 0.0000e+00
      997  1    1    2    0    0 -4.6858442134e+00 -5.7936664454e+01 +2.6627089751e+02 2.7327423056e+02 2.0000000000e+01 0.0000e+00 0.0000e+00
</event>
<event>
 5      1 +2.3375200e-06 2.09967600e+02 7.95774700e-02 4.86512200e-01
       13 -1    0    0    0    0 +0.0000000000e+00 +0.0000000000e+00 +4.9999998884e+02 5.0000000000e+02 1.0566000000e-01 0.0000e+00 -1.0000e+00
      994 -1    0    0    0    0 -0.0000000000e+00 -0.0000000000e+00 +0.0000000000e+00 1.3100000000e+02 1.3100000000e+02 0.0000e+00 0.0000e+00
       13  1    1    2    0    0 +2.2157934480e+01 -2.1703751769e+01 +1.0388877132e+02 1.0842008519e+02 1.0566000000e-01 0.0000e+00 1.0000e+00
      994  1    1    2    0    0 -1.1964671017e+01 +4.2446197866e+01 +1.3646439380e+01 1.3889585441e+02 1.3100000000e+02 0.0000e+00 0.0000e+00
      997  1    1    2    0    0 -1.0193263462e+01 -2.0742446097e+01 +3.8246477814e+02 3.8368406040e+02 2.0000000000e+01 0.0000e+00 0.0000e+00
</event>
<event>
 5      1 +2.3375200e-06 2.09872100e+02 7.95774700e-02 4.86669200e-01
       13 -1    0    0    0    0 +0.0000000000e+00 +0.0000000000e+00 +4.9999998884e+02 5.0000000000e+02 1.0566000000e-01 0.0000e+00 -1.0000e+00
      994 -1    0    0    0    0 -0.0000000000e+00 -0.0000000000e+00 +0.0000000000e+00 1.3100000000e+02 1.3100000000e+02 0.0000e+00 0.0000e+00
       13  1    1    2    0    0 +8.0837740894e+00 -1.6767216247e+01 +9.4441488552e+01 9.6258469073e+01 1.0566000000e-01 0.0000e+00 1.0000e+00
      994  1    1    2    0    0 +2.9800622943e+01 -5.2751543997e+00 +8.4440203454e+00 1.3471527702e+02 1.3100000000e+02 0.0000e+00 0.0000e+00
      997  1    1    2    0    0 -3.7884397032e+01 +2.2042370647e+01 +3.9711447994e+02 4.0002625391e+02 2.0000000000e+01 0.0000e+00 0.0000e+00
</event>
<event>
 5      1 +2.3375200e-06 2.12979500e+02 7.95774700e-02 4.81648600e-01
       13 -1    0    0    0    0 +0.0000000000e+00 +0.0000000000e+00 +4.9999998884e+02 5.0000000000e+02 1.0566000000e-01 0.0000e+00 1.0000e+00
      994 -1    0    0    0    0 -0.0000000000e+00 -0.0000000000e+00 +0.0000000000e+00 1.3100000000e+02 1.3100000000e+02 0.0000e+00 0.0000e+00
       13  1    1    2    0    0 -5.3635536763e+00 +9.7805059596e+00 +4.8139758854e+01 4.9415316972e+01 1.0566000000e-01 0.0000e+00 -1.0000e+00
      994  1    1    2    0    0 +2.0649795105e+01 -1.4193020405e+01 +4.4540921886e+00 1.3344922182e+02 1.3100000000e+02 0.0000e+00 0.0000e+00
      997  1    1    2    0    0 -1.5286241428e+01 +4.4125144452e+00 +4.4740613779e+02 4.4813546121e+02 2.0000000000e+01 0.0000e+00 0.0000e+00
</event>
<event>
 5      1 +2.3375200e-06 2.09773300e+02 7.95774700e-02 4.86831900e-01
       13 -1    0    0    0    0 +0.0000000000e+00 +0.0000000000e+00 +4.9999998884e+02 5.0000000000e+02 1.0566000000e-01 0.0000e+00 -1.0000e+00
      994 -1    0    0    0    0 -0.0000000000e+00 -0.0000000000e+00 +0.0000000000e+00 1.3100000000e+02 1.3100000000e+02 0.0000e+00 0.0000e+00
       13  1    1    2    0    0 -1.6049160475e+01 -1.5163222209e+01 +6.6926735434e+01 7.0474803579e+01 1.0566000000e-01 0.0000e+00 1.0000e+00
      994  1    1    2    0    0 +1.4822943251e+01 +6.0609928019e+00 +5.1909270057e+00 1.3207725392e+02 1.3100000000e+02 0.0000e+00 0.0000e+00
      997  1    1    2    0    0 +1.2262172243e+00 +9.1022294073e+00 +4.2788232640e+02 4.2844794250e+02 2.0000000000e+01 0.0000e+00 0.0000e+00
</event>
<event>
 5      1 +2.3375200e-06 2.10934200e+02 7.95774700e-02 4.84932200e-01
       13 -1    0    0    0    0 +0.0000000000e+00 +0.0000000000e+00 +4.9999998884e+02 5.0000000000e+02 1.0566000000e-01 0.0000e+00 -1.0000e+00
      994 -1    0    0    0    0 -0.0000000000e+00 -0.0000000000e+00 +0.0000000000e+00 1.3100000000e+02 1.3100000000e+02 0.0000e+00 0.0000e+00
       13  1    1    2    0    0 -1.0586986038e+01 +1.3843091844e+01 +6.3176375717e+01 6.5536105148e+01 1.0566000000e-01 0.0000e+00 1.0000e+00
      994  1    1    2    0    0 +6.2884371878e+00 -2.3845595510e+00 +3.2048618918e+00 1.3121166757e+02 1.3100000000e+02 0.0000e+00 0.0000e+00
      997  1    1    2    0    0 +4.2985488506e+00 -1.1458532293e+01 +4.3361875123e+02 4.3425222728e+02 2.0000000000e+01 0.0000e+00 0.0000e+00
</event>
<event>
 5      1 +2.3375200e-06 2.11293900e+02 7.95774700e-02 4.84348900e-01
       13 -1    0    0    0    0 +0.0000000000e+00 +0.0000000000e+00 +4.9999998884e+02 5.0000000000e+02 1.0566000000e-01 0.0000e+00 1.0000e+00
      994 -1    0    0    0    0 -0.0000000000e+00 -0.0000000000e+00 +0.0000000000e+00 1.3100000000e+02 1.3100000000e+02 0.0000e+00 0.0000e+00
       13  1    1    2    0    0 -9.8585737335e+00 -2.5883440116e+00 +2.1232754674e+01 2.3552750070e+01 1.0566000000e-01 0.0000e+00 -1.0000e+00
      994  1    1    2    0    0 +9.7476858335e+00 -3.3233286268e+00 +3.2207487667e+00 1.3144365757e+02 1.3100000000e+02 0.0000e+00 0.0000e+00
      997  1    1    2    0    0 +1.1088789998e-01 +5.9116726384e+00 +4.7554648540e+02 4.7600359236e+02 2.0000000000e+01 0.0000e+00 0.0000e+00
</event>
<event>
 5      1 +2.3375200e-06 1.98133900e+02 7.95774700e-02 5.07472600e-01
       13 -1    0    0    0    0 +0.0000000000e+00 +0.0000000000e+00 +4.9999998884e+02 5.0000000000e+02 1.0566000000e-01 0.0000e+00 1.0000e+00
      994 -1    0    0    0    0 -0.0000000000e+00 -0.0000000000e+00 +0.0000000000e+00 1.3100000000e+02 1.3100000000e+02 0.0000e+00 0.0000e+00
       13  1    1    2    0    0 +3.6561572625e+00 -1.8892433322e+01 +1.0981825243e+01 2.2156334815e+01 1.0566000000e-01 0.0000e+00 -1.0000e+00
      994  1    1    2    0    0 -1.1039992165e+01 -2.9113110948e+01 +1.9098073670e+01 1.3599702597e+02 1.3100000000e+02 0.0000e+00 0.0000e+00
      997  1    1    2    0    0 +7.3838349029e+00 +4.8005544270e+01 +4.6992008992e+02 4.7284663921e+02 2.0000000000e+01 0.0000e+00 0.0000e+00
</event>
<event>
 5      1 +2.3375200e-06 2.11010800e+02 7.95774700e-02 4.84807800e-01
       13 -1    0    0    0    0 +0.0000000000e+00 +0.0000000000e+00 +4.9999998884e+02 5.0000000000e+02 1.0566000000e-01 0.0000e+00 1.0000e+00
      994 -1    0    0    0    0 -0.0000000000e+00 -0.0000000000e+00 +0.0000000000e+00 1.3100000000e+02 1.3100000000e+02 0.0000e+00 0.0000e+00
       13  1    1    2    0    0 +2.2319982313e+01 -3.3243960918e+01 +1.5999528842e+02 1.6492982152e+02 1.0566000000e-01 0.0000e+00 -1.0000e+00
      994  1    1    2    0    0 -1.3127168876e+01 +5.7985358883e+01 +2.1039021752e+01 1.4539004383e+02 1.3100000000e+02 0.0000e+00 0.0000e+00
      997  1    1    2    0    0 -9.1928134373e+00 -2.4741397964e+01 +3.1896567867e+02 3.2068013465e+02 2.0000000000e+01 0.0000e+00 0.0000e+00
</event>
<event>
 5      1 +2.3375200e-06 2.10719900e+02 7.95774700e-02 4.85280800e-01
       13 -1    0    0    0    0 +0.0000000000e+00 +0.0000000000e+00 +4.9999998884e+02 5.0000000000e+02 1.0566000000e-01 0.0000e+00 -1.0000e+00
      994 -1    0    0    0    0 -0.0000000000e+00 -0.0000000000e+00 +0.0000000000e+00 1.3100000000e+02 1.3100000000e+02 0.0000e+00 0.0000e+00
       13  1    1    2    0    0 +1.2861377324e+01 +6.2040257317e+00 +4.2405925126e+01 4.4745710540e+01 1.0566000000e-01 0.0000e+00 1.0000e+00
      994  1    1    2    0    0 +5.8807984450e+00 -4.5085126705e+00 +3.4233247050e+00 1.3125406519e+02 1.3100000000e+02 0.0000e+00 0.0000e+00
      997  1    1    2    0    0 -1.8742175769e+01 -1.6955130612e+00 +4.5417073901e+02 4.5500022427e+02 2.0000000000e+01 0.0000e+00 0.0000e+00
</event>
<event>
 5      1 +2.3375200e-06 2.11834700e+02 7.95774700e-02 4.83476700e-01
       13 -1    0    0    0    0 +0.0000000000e+00 +0.0000000000e+00 +4.9999998884e+02 5.0000000000e+02 1.0566000000e-01 0.0000e+00 1.0000e+00
      994 -1    0    0    0    0 -0.0000000000e+00 -0.0000000000e+00 +0.0000000000e+00 1.3100000000e+02 1.3100000000e+02 0.0000e+00 0.0000e+00
       13  1    1    2    0    0 +1.0961228116e+01 -7.0277533272e+00 +4.3788942876e+01 4.5683919719e+01 1.0566000000e-01 0.0000e+00 -1.0000e+00
      994  1    1    2    0    0 -1.4357107874e+00 +1.6892983480e+01 +3.6882577860e+00 1.3214400252e+02 1.3100000000e+02 0.0000e+00 0.0000e+00
      997  1    1    2    0    0 -9.5255173285e+00 -9.8652301525e+00 +4.5252278817e+02 4.5317207776e+02 2.0000000000e+01 0.0000e+00 0.0000e+00
</event>
<event>
 5      1 +2.3375200e-06 2.10265500e+02 7.95774700e-02 4.86023300e-01
       13 -1    0    0    0    0 +0.0000000000e+00 +0.0000000000e+00 +4.9999998884e+02 5.0000000000e+02 1.0566000000e-01 0.0000e+00 1.0000e+00
      994 -1    0    0    0    0 -0.0000000000e+00 -0.0000000000e+00 +0.0000000000e+00 1.3100000000e+02 1.3100000000e+02 0.0000e+00 0.0000e+00
       13  1    1    2    0    0 +1.5565959070e+00 +1.5850505713e+01 +3.6587390291e+01 3.9903756897e+01 1.0566000000e-01 0.0000e+00 -1.0000e+00
      994  1    1    2    0    0 -1.4795016299e+01 -1.5580997968e+01 +5.8225727402e+00 1.3287799802e+02 1.3100000000e+02 0.0000e+00 0.0000e+00
      997  1    1    2    0    0 +1.3238420392e+01 -2.6950774478e-01 +4.5759002580e+02 4.5821824508e+02 2.0000000000e+01 0.0000e+00 0.0000e+00
</event>
<event>
 5      1 +2.3375200e-06 2.12393700e+02 7.95774700e-02 4.82580900e-01
       13 -1    0    0    0    0 +0.0000000000e+00 +0.0000000000e+00 +4.9999998884e+02 5.0000000000e+02 1.0566000000e-01 0.0000e+00 1.0000e+00
      994 -1    0    0    0    0 -0.0000000000e+00 -0.0000000000e+00 +0.0000000000e+00 1.3100000000e+02 1.3100000000e+02 0.0000e+00 0.0000e+00
       13  1    1    2    0    0 +1.5386557742e+01 +1.0823544774e+01 +1.0674713731e+02 1.0839214810e+02 1.0566000000e-01 0.0000e+00 -1.0000e+00
      994  1    1    2    0    0 -2.2032183406e+01 -1.9073505713e+00 +4.2385893685e+00 1.3292110717e+02 1.3100000000e+02 0.0000e+00 0.0000e+00
      997  1    1    2    0    0 +6.6456256646e+00 -8.9161942027e+00 +3.8901426215e+02 3.8968674473e+02 2.0000000000e+01 0.0000e+00 0.0000e+00
</event>
<event>
 5      1 +2.3375200e-06 2.11807800e+02 7.95774700e-02 4.83519800e-01
       13 -1    0    0    0    0 +0.0000000000e+00 +0.0000000000e+00 +4.9999998884e+02 5.0000000000e+02 1.0566000000e-01 0.0000e+00 -1.0000e+00
      994 -1    0    0    0    0 -0.0000000000e+00 -0.0000000000e+00 +0.0000000000e+00 1.3100000000e+02 1.3100000000e+02 0.0000e+00 0.0000e+00
       13  1    1    2    0    0 +1.3497240891e+01 -9.9958236528e+00 +6.6390526884e+01 6.8482152610e+01 1.0566000000e-01 0.0000e+00 1.0000e+00
      994  1    1    2    0    0 -1.8410232261e+01 +3.6543272832e+00 +4.0309145020e+00 1.3239916552e+02 1.3100000000e+02 0.0000e+00 0.0000e+00
      997  1    1    2    0    0 +4.9129913701e+00 +6.3414963696e+00 +4.2957854745e+02 4.3011868187e+02 2.0000000000e+01 0.0000e+00 0.0000e+00
</event>
<event>
 5      1 +2.3375200e-06 2.05232400e+02 7.95774700e-02 4.94526700e-01
       13 -1    0    0    0    0 +0.0000000000e+00 +0.0000000000e+00 +4.9999998884e+02 5.0000000000e+02 1.0566000000e-01 0.0000e+00 1.0000e+00
      994 -1    0    0    0    0 -0.0000000000e+00 -0.0000000000e+00 +0.0000000000e+00 1.3100000000e+02 1.3100000000e+02 0.0000e+00 0.0000e+00
       13  1    1    2    0    0 +3.7504968003e+00 -2.7987519441e+01 +5.5561427765e+01 6.2325363136e+01 1.0566000000e-01 0.0000e+00 -1.0000e+00
      994  1    1    2    0    0 +8.1229919569e-01 +1.1965109033e+01 +8.3527909529e+00 1.3181271859e+02 1.3100000000e+02 0.0000e+00 0.0000e+00
      997  1    1    2    0    0 -4.5627959960e+00 +1.6022410409e+01 +4.3608577012e+02 4.3686191828e+02 2.0000000000e+01 0.0000e+00 0.0000e+00
</event>
<event>
 5      1 +2.3375200e-06 2.03206800e+02 7.95774700e-02 4.98101700e-01
       13 -1    0    0    0    0 +0.0000000000e+00 +0.0000000000e+00 +4.9999998884e+02 5.0000000000e+02 1.0566000000e-01 0.0000e+00 1.0000e+00
      994 -1    0    0    0    0 -0.0000000000e+00 -0.0000000000e+00 +0.0000000000e+00 1.3100000000e+02 1.3100000000e+02 0.0000e+00 0.0000e+00
       13  1    1    2    0    0 -2.8526199634e+01 -2.6059911829e+01 +6.8128639154e+01 7.8322319342e+01 1.0566000000e-01 0.0000e+00 -1.0000e+00
      994  1    1    2    0    0 +1.7763267053e+01 +3.8932638371e+01 +1.9156005779e+01 1.3913747354e+02 1.3100000000e+02 0.0000e+00 0.0000e+00
      997  1    1    2    0    0 +1.0762932581e+01 -1.2872726542e+01 +4.1271534390e+02 4.1354020711e+02 2.0000000000e+01 0.0000e+00 0.0000e+00
</event>
<event>
 5      1 +2.3375200e-06 2.13029700e+02 7.95774700e-02 4.81569100e-01
       13 -1    0    0    0    0 +0.0000000000e+00 +0.0000000000e+00 +4.9999998884e+02 5.0000000000e+02 1.0566000000e-01 0.0000e+00 1.0000e+00
      994 -1    0    0    0    0 -0.0000000000e+00 -0.0000000000e+00 +0.0000000000e+00 1.3100000000e+02 1.3100000000e+02 0.0000e+00 0.0000e+00
       13  1    1    2    0    0 +1.2564989598e+01 -6.1121056042e+00 +4.8507251052e+01 5.0479712431e+01 1.0566000000e-01 0.0000e+00 -1.0000e+00
      994  1    1    2    0    0 -6.0058345889e+01 -1.8608821787e+00 +1.9551984285e+01 1.4544328064e+02 1.3100000000e+02 0.0000e+00 0.0000e+00
      997  1    1    2    0    0 +4.7493356292e+01 +7.9729877829e+00 +4.3194075350e+02 4.3507700693e+02 2.0000000000e+01 0.0000e+00 0.0000e+00
</event>
<event>
 5      1 +2.3375200e-06 2.07847700e+02 7.95774700e-02 4.90042700e-01
       13 -1    0    0    0    0 +0.0000000000e+00 +0.0000000000e+00 +4.9999998884e+02 5.0000000000e+02 1.0566000000e-01 0.0000e+00 -1.0000e+00
      994 -1    0    0    0    0 -0.0000000000e+00 -0.0000000000e+00 +0.0000000000e+00 1.3100000000e+02 1.3100000000e+02 0.0000e+00 0.0000e+00
       13  1    1    2    0    0 +1.4470498404e+01 -8.3926988777e+00 +3.2563234567e+01 3.6608853137e+01 1.0566000000e-01 0.0000e+00 1.0000e+00
      994  1    1    2    0    0 +2.4092172749e+01 +1.2064263126e+01 +9.1708509634e+00 1.3405627080e+02 1.3100000000e+02 0.0000e+00 0.0000e+00
      997  1    1    2    0    0 -3.8562671153e+01 -3.6715642487e+00 +4.5826590331e+02 4.6033487607e+02 2.0000000000e+01 0.0000e+00 0.0000e+00
</event>
<event>
 5      1 +2.3375200e-06 1.92972400e+02 7.95774700e-02 5.17674400e-01
       13 -1    0    0    0    0 +0.0000000000e+00 +0.0000000000e+00 +4.9999998884e+02 5.0000000000e+02 1.0566000000e-01 0.0000e+00 -1.0000e+00
      994 -1    0    0    0    0 -0.0000000000e+00 -0.0000000000e+00 +0.0000000000e+00 1.3100000000e+02 1.3100000000e+02 0.0000e+00 0.0000e+00
       13  1    1    2    0    0 -5.6328120052e+00 +1.7011987006e+01 +1.2501953912e+00 1.7964142772e+01 1.0566000000e-01 0.0000e+00 1.0000e+00
      994  1    1    2    0    0 +4.2123454882e+00 +1.5662582710e+01 +2.0892630128e+01 1.3364341490e+02 1.3100000000e+02 0.0000e+00 0.0000e+00
      997  1    1    2    0    0 +1.4204665170e+00 -3.2674569716e+01 +4.7785716332e+02 4.7939244233e+02 2.0000000000e+01 0.0000e+00 0.0000e+00
</event>
<event>
 5      1 +2.3375200e-06 1.99068700e+02 7.95774700e-02 5.05699000e-01
       13 -1    0    0    0    0 +0.0000000000e+00 +0.0000000000e+00 +4.9999998884e+02 5.0000000000e+02 1.0566000000e-01 0.0000e+00 1.0000e+00
      994 -1    0    0    0    0 -0.0000000000e+00 -0.0000000000e+00 +0.0000000000e+00 1.3100000000e+02 1.3100000000e+02 0.0000e+00 0.0000e+00
       13  1    1    2    0    0 -1.7747748242e+01 +2.2069812242e+01 +4.3673534008e+00 2.8655612362e+01 1.0566000000e-01 0.0000e+00 -1.0000e+00
      994  1    1    2    0    0 +3.2142332534e+01 -2.2998253745e+01 +3.5247183131e+01 1.4129902029e+02 1.3100000000e+02 0.0000e+00 0.0000e+00
      997  1    1    2    0    0 -1.4394584293e+01 +9.2844150329e-01 +4.6038545230e+02 4.6104536735e+02 2.0000000000e+01 0.0000e+00 0.0000e+00
</event>
<event>
 5      1 +2.3375200e-06 2.07628200e+02 7.95774700e-02 4.90413500e-01
       13 -1    0    0    0    0 +0.0000000000e+00 +0.0000000000e+00 +4.9999998884e+02 5.0000000000e+02 1.0566000000e-01 0.0000e+00 1.0000e+00
      994 -1    0    0    0    0 -0.0000000000e+00 -0.0000000000e+00 +0.0000000000e+00 1.3100000000e+02 1.3100000000e+02 0.0000e+00 0.0000e+00
       13  1    1    2    0    0 +2.6262982300e+01 -1.0054362710e+00 +6.9473949265e+01 7.4279175628e+01 1.0566000000e-01 0.0000e+00 -1.0000e+00
      994  1    1    2    0    0 -9.4807806034e+00 +1.8915032038e+01 +7.9235260708e+00 1.3293399077e+02 1.3100000000e+02 0.0000e+00 0.0000e+00
      997  1    1    2    0    0 -1.6782201697e+01 -1.7909595767e+01 +4.2260251350e+02 4.2378683360e+02 2.0000000000e+01 0.0000e+00 0.0000e+00
</event>
<event>
 5      1 +2.3375200e-06 2.08768400e+02 7.95774700e-02 4.88498200e-01
       13 -1    0    0    0    0 +0.0000000000e+00 +0.0000000000e+00 +4.9999998884e+02 5.0000000000e+02 1.0566000000e-01 0.0000e+00 1.0000e+00
      994 -1    0    0    0    0 -0.0000000000e+00 -0.0000000000e+00 +0.0000000000e+00 1.3100000000e+02 1.3100000000e+02 0.0000e+00 0.0000e+00
       13  1    1    2    0    0 -4.4110783419e+01 -3.4109868951e+01 +1.7096363739e+02 1.7982719719e+02 1.0566000000e-01 0.0000e+00 -1.0000e+00
      994  1    1    2    0    0 +4.4291916345e+01 +5.7677233495e+01 +3.2865795964e+01 1.5339360372e+02 1.3100000000e+02 0.0000e+00 0.0000e+00
      997  1    1    2    0    0 -1.8113292546e-01 -2.3567364545e+01 +2.9617055548e+02 2.9777919910e+02 2.0000000000e+01 0.0000e+00 0.0000e+00
</event>
<event>
 5      1 +2.3375200e-06 2.10286700e+02 7.95774700e-02 4.85988500e-01
       13 -1    0    0    0    0 +0.0000000000e+00 +0.0000000000e+00 +4.9999998884e+02 5.0000000000e+02 1.0566000000e-01 0.0000e+00 1.0000e+00
      994 -1    0    0    0    0 -0.0000000000e+00 -0.0000000000e+00 +0.0000000000e+00 1.3100000000e+02 1.3100000000e+02 0.0000e+00 0.0000e+00
       13  1    1    2    0    0 -2.9953768576e+01 +1.3031611684e+01 +1.1484460522e+02 1.1939993998e+02 1.0566000000e-01 0.0000e+00 -1.0000e+00
      994  1    1    2    0    0 +3.9749314862e+01 -1.0598158363e+01 +1.2063662649e+01 1.3783635569e+02 1.3100000000e+02 0.0000e+00 0.0000e+00
      997  1    1    2    0    0 -9.7955462864e+00 -2.4334533216e+00 +3.7309172097e+02 3.7376370434e+02 2.0000000000e+01 0.0000e+00 0.0000e+00
</event>
<event>
 5      1 +2.3375200e-06 2.02276500e+02 7.95774700e-02 4.99774600e-01
       13 -1    0    0    0    0 +0.0000000000e+00 +0.0000000000e+00 +4.9999998884e+02 5.0000000000e+02 1.0566000000e-01 0.0000e+00 1.0000e+00
      994 -1    0    0    0    0 -0.0000000000e+00 -0.0000000000e+00 +0.0000000000e+00 1.3100000000e+02 1.3100000000e+02 0.0000e+00 0.0000e+00
       13  1    1    2    0    0 +1.1473592101e+01 -3.2293166352e+01 +6.2789693580e+01 7.1533549420e+01 1.0566000000e-01 0.0000e+00 -1.0000e+00
      994  1    1    2    0    0 -1.6897065378e+01 +5.9801115635e+00 +1.1806976101e+01 1.3274666564e+02 1.3100000000e+02 0.0000e+00 0.0000e+00
      997  1    1    2    0    0 +5.4234732778e+00 +2.6313054789e+01 +4.2540331916e+02 4.2671978494e+02 2.0000000000e+01 0.0000e+00 0.0000e+00
</event>
<event>
 5      1 +2.3375200e-06 2.11788600e+02 7.95774700e-02 4.83550800e-01
       13 -1    0    0    0    0 +0.0000000000e+00 +0.0000000000e+00 +4.9999998884e+02 5.0000000000e+02 1.0566000000e-01 0.0000e+00 -1.0000e+00
      994 -1    0    0    0    0 -0.0000000000e+00 -0.0000000000e+00 +0.0000000000e+00 1.3100000000e+02 1.3100000000e+02 0.0000e+00 0.0000e+00
       13  1    1    2    0    0 -1.6353945503e+01 -1.9976349087e+01 +1.0195451227e+02 1.0517242886e+02 1.0566000000e-01 0.0000e+00 1.0000e+00
      994  1    1    2    0    0 +3.3430777855e+01 +2.6198675296e+01 +1.1340646668e+01 1.3817958519e+02 1.3100000000e+02 0.0000e+00 0.0000e+00
      997  1    1    2    0    0 -1.7076832352e+01 -6.2223262090e+00 +3.8670482990e+02 3.8764798596e+02 2.0000000000e+01 0.0000e+00 0.0000e+00
</event>
<event>
 5      1 +2.3375200e-06 2.01987800e+02 7.95774700e-02 5.00297900e-01
       13 -1    0    0    0    0 +0.0000000000e+00 +0.0000000000e+00 +4.9999998884e+02 5.0000000000e+02 1.0566000000e-01 0.0000e+00 1.0000e+00
      994 -1    0    0    0    0 -0.0000000000e+00 -0.0000000000e+00 +0.0000000000e+00 1.3100000000e+02 1.3100000000e+02 0.0000e+00 0.0000e+00
       13  1    1    2    0    0 +7.2077168974e+00 +1.2848235289e+01 +6.6190304401e+00 1.6150884214e+01 1.0566000000e-01 0.0000e+00 -1.0000e+00
      994  1    1    2    0    0 -1.2154494126e+01 -1.7664969409e+00 +1.1144596311e+01 1.3204565220e+02 1.3100000000e+02 0.0000e+00 0.0000e+00
      997  1    1    2    0    0 +4.9467772286e+00 -1.1081738348e+01 +4.8223636209e+02 4.8280346358e+02 2.0000000000e+01 0.0000e+00 0.0000e+00
</event>
<event>
 5      1 +2.3375200e-06 2.12073900e+02 7.95774700e-02 4.83092600e-01
       13 -1    0    0    0    0 +0.0000000000e+00 +0.0000000000e+00 +4.9999998884e+02 5.0000000000e+02 1.0566000000e-01 0.0000e+00 -1.0000e+00
      994 -1    0    0    0    0 -0.0000000000e+00 -0.0000000000e+00 +0.0000000000e+00 1.3100000000e+02 1.3100000000e+02 0.0000e+00 0.0000e+00
       13  1    1    2    0    0 -7.6372736050e+00 -2.3685796671e+01 +1.2946442242e+02 1.3183471754e+02 1.0566000000e-01 0.0000e+00 1.0000e+00
      994  1    1    2    0    0 +1.5732285945e+01 +2.6039168792e+01 +6.6684608846e+00 1.3465144449e+02 1.3100000000e+02 0.0000e+00 0.0000e+00
      997  1    1    2    0    0 -8.0950123397e+00 -2.3533721212e+00 +3.6386710553e+02 3.6451383797e+02 2.0000000000e+01 0.0000e+00 0.0000e+00
</event>
<event>
 5      1 +2.3375200e-06 2.12630800e+02 7.95774700e-02 4.82202700e-01
       13 -1    0    0    0    0 +0.0000000000e+00 +0.0000000000e+00 +4.9999998884e+02 5.0000000000e+02 1.0566000000e-01 0.0000e+00 -1.0000e+00
      994 -1    0    0    0    0 -0.0000000000e+00 -0.0000000000e+00 +0.0000000000e+00 1.3100000000e+02 1.3100000000e+02 0.0000e+00 0.0000e+00
       13  1    1    2    0    0 +6.6395788927e+00 -8.4318747224e+00 +5.9596962574e+01 6.0555673816e+01 1.0566000000e-01 0.0000e+00 1.0000e+00
      994  1    1    2    0    0 +1.0567841831e+01 +4.5837849808e+00 +2.2947800223e+00 1.3152549708e+02 1.3100000000e+02 0.0000e+00 0.0000e+00
      997  1    1    2    0    0 -1.7207420723e+01 +3.8480897416e+00 +4.3810824624e+02 4.3891882911e+02 2.0000000000e+01 0.0000e+00 0.0000e+00
</event>
<event>
 5      1 +2.3375200e-06 2.07308100e+02 7.95774700e-02 4.90956000e-01
       13 -1    0    0    0    0 +0.0000000000e+00 +0.0000000000e+00 +4.9999998884e+02 5.0000000000e+02 1.0566000000e-01 0.0000e+00 1.0000e+00
      994 -1    0    0    0    0 -0.0000000000e+00 -0.0000000000e+00 +0.0000000000e+00 1.3100000000e+02 1.3100000000e+02 0.0000e+00 0.0000e+00
       13  1    1    2    0    0 -1.2572605338e+01 +2.1905440123e+00 +1.2837634681e+01 1.8102069392e+01 1.0566000000e-01 0.0000e+00 -1.0000e+00
      994  1    1    2    0    0 +2.9891842852e+00 -1.4676402238e+00 +5.9532181006e+00 1.3117747519e+02 1.3100000000e+02 0.0000e+00 0.0000e+00
      997  1    1    2    0    0 +9.5834210527e+00 -7.2290378849e-01 +4.8120913605e+02 4.8172045542e+02 2.0000000000e+01 0.0000e+00 0.0000e+00
</event>
<event>
 5      1 +2.3375200e-06 1.92650500e+02 7.95774700e-02 5.18334600e-01
       13 -1    0    0    0    0 +0.0000000000e+00 +0.0000000000e+00 +4.9999998884e+02 5.0000000000e+02 1.0566000000e-01 0.0000e+00 1.0000e+00
      994 -1    0    0    0    0 -0.0000000000e+00 -0.0000000000e+00 +0.0000000000e+00 1.3100000000e+02 1.3100000000e+02 0.0000e+00 0.0000e+00
       13  1    1    2    0    0 -1.7843187493e+01 +3.0157723900e+01 +1.7348507315e+01 3.9100505379e+01 1.0566000000e-01 0.0000e+00 -1.0000e+00
      994  1    1    2    0    0 +5.6480718431e+01 -4.5858733826e+01 +5.1762840864e+01 1.5853544309e+02 1.3100000000e+02 0.0000e+00 0.0000e+00
      997  1    1    2    0    0 -3.8637530938e+01 +1.5701009925e+01 +4.3088864066e+02 4.3336405153e+02 2.0000000000e+01 0.0000e+00 0.0000e+00
</event>
<event>
 5      1 +2.3375200e-06 2.06297300e+02 7.95774700e-02 4.92683300e-01
       13 -1    0    0    0    0 +0.0000000000e+00 +0.0000000000e+00 +4.9999998884e+02 5.0000000000e+02 1.0566000000e-01 0.0000e+00 -1.0000e+00
      994 -1    0    0    0    0 -0.0000000000e+00 -0.0000000000e+00 +0.0000000000e+00 1.3100000000e+02 1.3100000000e+02 0.0000e+00 0.0000e+00
       13  1    1    2    0    0 +4.2359458013e+00 +1.0790044751e+01 +7.6824394498e+00 1.3906809214e+01 1.0566000000e-01 0.0000e+00 1.0000e+00
      994  1    1    2    0    0 -8.8008438030e+00 -6.3442677058e+00 +7.3311534262e+00 1.3165276448e+02 1.3100000000e+02 0.0000e+00 0.0000e+00
      997  1    1    2    0    0 +4.5648980017e+00 -4.4457770456e+00 +4.8498639596e+02 4.8544042631e+02 2.0000000000e+01 0.0000e+00 0.0000e+00
</event>
<event>
 5      1 +2.3375200e-06 2.08351900e+02 7.95774700e-02 4.89194600e-01
       13 -1    0    0    0    0 +0.0000000000e+00 +0.0000000000e+00 +4.9999998884e+02 5.0000000000e+02 1.0566000000e-01 0.0000e+00 -1.0000e+00
      994 -1    0    0    0    0 -0.0000000000e+00 -0.0000000000e+00 +0.0000000000e+00 1.3100000000e+02 1.3100000000e+02 0.0000e+00 0.0000e+00
       13  1    1    2    0    0 +1.0171488263e+01 -2.0951867402e+01 +4.5021599255e+01 5.0689204813e+01 1.0566000000e-01 0.0000e+00 1.0000e+00
      994  1    1    2    0    0 -1.8202931321e+01 +3.0526081678e+01 +1.1517748788e+01 1.3622351819e+02 1.3100000000e+02 0.0000e+00 0.0000e+00
      997  1    1    2    0    0 +8.0314430581e+00 -9.5742142760e+00 +4.4346064079e+02 4.4408727700e+02 2.0000000000e+01 0.0000e+00 0.0000e+00
</event>
<event>
 5      1 +2.3375200e-06 2.05688600e+02 7.95774700e-02 4.93734100e-01
       13 -1    0    0    0    0 +0.0000000000e+00 +0.0000000000e+00 +4.9999998884e+02 5.0000000000e+02 1.0566000000e-01 0.0000e+00 -1.0000e+00
      994 -1    0    0    0    0 -0.0000000000e+00 -0.0000000000e+00 +0.0000000000e+00 1.3100000000e+02 1.3100000000e+02 0.0000e+00 0.0000e+00
       13  1    1    2    0    0 -2.3504102269e+00 -1.7010603237e+01 +1.8503954077e+01 2.5244653517e+01 1.0566000000e-01 0.0000e+00 1.0000e+00
      994  1    1    2    0    0 +6.5616262276e+00 +1.1421229427e+01 +8.1257412692e+00 1.3191105750e+02 1.3100000000e+02 0.0000e+00 0.0000e+00
      997  1    1    2    0    0 -4.2112160006e+00 +5.5893738100e+00 +4.7337029349e+02 4.7384428898e+02 2.0000000000e+01 0.0000e+00 0.0000e+00
</event>
<event>
 5      1 +2.3375200e-06 2.10064600e+02 7.95774700e-02 4.86352800e-01
       13 -1    0    0    0    0 +0.0000000000e+00 +0.0000000000e+00 +4.9999998884e+02 5.0000000000e+02 1.0566000000e-01 0.0000e+00 1.0000e+00
      994 -1    0    0    0    0 -0.0000000000e+00 -0.0000000000e+00 +0.0000000000e+00 1.3100000000e+02 1.3100000000e+02 0.0000e+00 0.0000e+00
       13  1    1    2    0    0 -1.5948019512e+01 +2.2841197620e+01 +9.4741011015e+01 9.8751860576e+01 1.0566000000e-01 0.0000e+00 -1.0000e+00
      994  1    1    2    0    0 +4.3343237270e+00 -3.3806373178e+01 +9.5342855115e+00 1.3569657265e+02 1.3100000000e+02 0.0000e+00 0.0000e+00
      997  1    1    2    0    0 +1.1613695785e+01 +1.0965175558e+01 +3.9572469231e+02 3.9655156677e+02 2.0000000000e+01 0.0000e+00 0.0000e+00
</event>
<event>
 5      1 +2.3375200e-06 2.12446200e+02 7.95774700e-02 4.82497000e-01
       13 -1    0    0    0    0 +0.0000000000e+00 +0.0000000000e+00 +4.9999998884e+02 5.0000000000e+02 1.0566000000e-01 0.0000e+00 -1.0000e+00
      994 -1    0    0    0    0 -0.0000000000e+00 -0.0000000000e+00 +0.0000000000e+00 1.3100000000e+02 1.3100000000e+02 0.0000e+00 0.0000e+00
       13  1    1    2    0    0 -1.2087822221e+01 +7.3094519570e+00 +4.6513886090e+01 4.8611688895e+01 1.0566000000e-01 0.0000e+00 1.0000e+00
      994  1    1    2    0    0 +2.8304878672e+01 -2.0686900326e+01 +7.8804487838e+00 1.3583893210e+02 1.3100000000e+02 0.0000e+00 0.0000e+00
      997  1    1    2    0    0 -1.6217056451e+01 +1.3377448369e+01 +4.4560565396e+02 4.4654937900e+02 2.0000000000e+01 0.0000e+00 0.0000e+00
</event>
<event>
 5      1 +2.3375200e-06 2.09005400e+02 7.95774700e-02 4.88103200e-01
       13 -1    0    0    0    0 +0.0000000000e+00 +0.0000000000e+00 +4.9999998884e+02 5.0000000000e+02 1.0566000000e-01 0.0000e+00 -1.0000e+00
      994 -1    0    0    0    0 -0.0000000000e+00 -0.0000000000e+00 +0.0000000000e+00 1.3100000000e+02 1.3100000000e+02 0.0000e+00 0.0000e+00
       13  1    1    2    0    0 -4.4340810934e+00 +4.1216079833e+01 +2.4971288230e+02 2.5313032427e+02 1.0566000000e-01 0.0000e+00 1.0000e+00
      994  1    1    2    0    0 -7.0886365038e+00 -2.4160402125e+01 +7.7310658324e+00 1.3362164187e+02 1.3100000000e+02 0.0000e+00 0.0000e+00
      997  1    1    2    0    0 +1.1522717597e+01 -1.7055677708e+01 +2.4255604070e+02 2.4424803386e+02 2.0000000000e+01 0.0000e+00 0.0000e+00
</event>
<event>
 5      1 +2.3375200e-06 2.09983200e+02 7.95774700e-02 4.86486500e-01
       13 -1    0    0    0    0 +0.0000000000e+00 +0.0000000000e+00 +4.9999998884e+02 5.0000000000e+02 1.0566000000e-01 0.0000e+00 -1.0000e+00
      994 -1    0    0    0    0 -0.0000000000e+00 -0.0000000000e+00 +0.0000000000e+00 1.3100000000e+02 1.3100000000e+02 0.0000e+00 0.0000e+00
       13  1    1    2    0    0 -1.2948536123e+01 -6.0482563024e+00 +3.0008480601e+01 3.3238021362e+01 1.0566000000e-01 0.0000e+00 1.0000e+00
      994  1    1    2    0    0 +6.6834099948e+00 +7.4336580609e-01 +3.9630624060e+00 1.3123233758e+02 1.3100000000e+02 0.0000e+00 0.0000e+00
      997  1    1    2    0    0 +6.2651261277e+00 +5.3048904963e+00 +4.6602844583e+02 4.6652964106e+02 2.0000000000e+01 0.0000e+00 0.0000e+00
</event>
<event>
 5      1 +2.3375200e-06 2.12457100e+02 7.95774700e-02 4.82479700e-01
       13 -1    0    0    0    0 +0.0000000000e+00 +0.0000000000e+00 +4.9999998884e+02 5.0000000000e+02 1.0566000000e-01 0.0000e+00 1.0000e+00
      994 -1    0    0    0    0 -0.0000000000e+00 -0.0000000000e+00 +0.0000000000e+00 1.3100000000e+02 1.3100000000e+02 0.0000e+00 0.0000e+00
       13  1    1    2    0    0 -8.5846686771e+00 -1.9129813474e+01 +1.2619949006e+02 1.2792954606e+02 1.0566000000e-01 0.0000e+00 -1.0000e+00
      994  1    1    2    0    0 +1.8472735072e+01 +1.6922996338e+01 +4.8736793919e+00 1.3346303794e+02 1.3100000000e+02 0.0000e+00 0.0000e+00
      997  1    1    2    0    0 -9.8880663945e+00 +2.2068171360e+00 +3.6892681938e+02 3.6960741599e+02 2.0000000000e+01 0.0000e+00 0.0000e+00
</event>
<event>
 5      1 +2.3375200e-06 2.07708800e+02 7.95774700e-02 4.90277100e-01
       13 -1    0    0    0    0 +0.0000000000e+00 +0.0000000000e+00 +4.9999998884e+02 5.0000000000e+02 1.0566000000e-01 0.0000e+00 -1.0000e+00
      994 -1    0    0    0    0 -0.0000000000e+00 -0.0000000000e+00 +0.0000000000e+00 1.3100000000e+02 1.3100000000e+02 0.0000e+00 0.0000e+00
       13  1    1    2    0    0 -1.3713958367e+00 +2.4866541684e+01 +7.2129883277e+01 7.6308301302e+01 1.0566000000e-01 0.0000e+00 1.0000e+00
      994  1    1    2    0    0 -3.4641764419e+00 +9.2147115292e-01 +5.6354567480e+00 1.3117014904e+02 1.3100000000e+02 0.0000e+00 0.0000e+00
      997  1    1    2    0    0 +4.8355722786e+00 -2.5788012837e+01 +4.2223464881e+02 4.2352154965e+02 2.0000000000e+01 0.0000e+00 0.0000e+00
</event>
<event>
 5      1 +2.3375200e-06 2.10455500e+02 7.95774700e-02 4.85712300e-01
       13 -1    0    0    0    0 +0.0000000000e+00 +0.0000000000e+00 +4.9999998884e+02 5.0000000000e+02 1.0566000000e-01 0.0000e+00 -1.0000e+00
      994 -1    0    0    0    0 -0.0000000000e+00 -0.0000000000e+00 +0.0000000000e+00 1.3100000000e+02 1.3100000000e+02 0.0000e+00 0.0000e+00
       13  1    1    2    0    0 +8.8809469441e+00 -1.4956035533e+01 +6.3609220772e+01 6.5944661260e+01 1.0566000000e-01 0.0000e+00 1.0000e+00
      994  1    1    2    0    0 -2.7696926382e+00 -6.4388228142e+00 +3.6052095579e+00 1.3123691239e+02 1.3100000000e+02 0.0000e+00 0.0000e+00
      997  1    1    2    0    0 -6.1112543059e+00 +2.1394858347e+01 +4.3278555851e+02 4.3381842635e+02 2.0000000000e+01 0.0000e+00 0.0000e+00
</event>
<event>
 5      1 +2.3375200e-06 2.03287400e+02 7.95774700e-02 4.97957800e-01
       13 -1    0    0    0    0 +0.0000000000e+00 +0.0000000000e+00 +4.9999998884e+02 5.0000000000e+02 1.0566000000e-01 0.0000e+00 -1.0000e+00
      994 -1    0    0    0    0 -0.0000000000e+00 -0.0000000000e+00 +0.0000000000e+00 1.3100000000e+02 1.3100000000e+02 0.0000e+00 0.0000e+00
       13  1    1    2    0    0 -2.8955501770e+01 +1.6079761685e+00 +5.3046294067e+01 6.0455993486e+01 1.0566000000e-01 0.0000e+00 1.0000e+00
      994  1    1    2    0    0 -1.9761502109e+00 -1.7994289137e+01 +1.0968578280e+01 1.3269894242e+02 1.3100000000e+02 0.0000e+00 0.0000e+00
      997  1    1    2    0    0 +3.0931651981e+01 +1.6386312969e+01 +4.3598511649e+02 4.3784506409e+02 2.0000000000e+01 0.0000e+00 0.0000e+00
</event>
<event>
 5      1 +2.3375200e-06 2.08694300e+02 7.95774700e-02 4.88621800e-01
       13 -1    0    0    0    0 +0.0000000000e+00 +0.0000000000e+00 +4.9999998884e+02 5.0000000000e+02 1.0566000000e-01 0.0000e+00 -1.0000e+00
      994 -1    0    0    0    0 -0.0000000000e+00 -0.0000000000e+00 +0.0000000000e+00 1.3100000000e+02 1.3100000000e+02 0.0000e+00 0.0000e+00
       13  1    1    2    0    0 +1.3071334705e+01 -2.2796965268e+01 +1.2428353334e+02 1.2703137109e+02 1.0566000000e-01 0.0000e+00 1.0000e+00
      994  1    1    2    0    0 +8.5891680073e+00 -2.3423103500e+00 +5.1719260250e+00 1.3140399173e+02 1.3100000000e+02 0.0000e+00 0.0000e+00
      997  1    1    2    0    0 -2.1660502712e+01 +2.5139275618e+01 +3.7054452947e+02 3.7256463718e+02 2.0000000000e+01 0.0000e+00 0.0000e+00
</event>
<event>
 5      1 +2.3375200e-06 2.11124700e+02 7.95774700e-02 4.84623000e-01
       13 -1    0    0    0    0 +0.0000000000e+00 +0.0000000000e+00 +4.9999998884e+02 5.0000000000e+02 1.0566000000e-01 0.0000e+00 1.0000e+00
      994 -1    0    0    0    0 -0.0000000000e+00 -0.0000000000e+00 +0.0000000000e+00 1.3100000000e+02 1.3100000000e+02 0.0000e+00 0.0000e+00
       13  1    1    2    0    0 -1.9597604541e+01 +4.1333680106e+00 +8.5994214293e+01 8.8295905288e+01 1.0566000000e-01 0.0000e+00 -1.0000e+00
      994  1    1    2    0    0 +7.5334961450e+00 -2.2875982086e+01 +5.7166911010e+00 1.3331820835e+02 1.3100000000e+02 0.0000e+00 0.0000e+00
      997  1    1    2    0    0 +1.2064108396e+01 +1.8742614076e+01 +4.0828908344e+02 4.0938588636e+02 2.0000000000e+01 0.0000e+00 0.0000e+00
</event>
<event>
 5      1 +2.3375200e-06 2.01086800e+02 7.95774700e-02 5.01943200e-01
       13 -1    0    0    0    0 +0.0000000000e+00 +0.0000000000e+00 +4.9999998884e+02 5.0000000000e+02 1.0566000000e-01 0.0000e+00 -1.0000e+00
      994 -1    0    0    0    0 -0.0000000000e+00 -0.0000000000e+00 +0.0000000000e+00 1.3100000000e+02 1.3100000000e+02 0.0000e+00 0.0000e+00
       13  1    1    2    0    0 +3.1147680538e+01 -1.4577711023e+01 +7.4479743317e+01 8.2036156603e+01 1.0566000000e-01 0.0000e+00 1.0000e+00
      994  1    1    2    0    0 +1.9106090289e+01 +8.6113786707e+00 +1.3483186842e+01 1.3334914644e+02 1.3100000000e+02 0.0000e+00 0.0000e+00
      997  1    1    2    0    0 -5.0253770828e+01 +5.9663323524e+00 +4.1203705868e+02 4.1561469696e+02 2.0000000000e+01 0.0000e+00 0.0000e+00
</event>
<event>
 5      1 +2.3375200e-06 2.04152600e+02 7.95774700e-02 4.96421200e-01
       13 -1    0    0    0    0 +0.0000000000e+00 +0.0000000000e+00 +4.9999998884e+02 5.0000000000e+02 1.0566000000e-01 0.0000e+00 1.0000e+00
      994 -1    0    0    0    0 -0.0000000000e+00 -0.0000000000e+00 +0.0000000000e+00 1.3100000000e+02 1.3100000000e+02 0.0000e+00 0.0000e+00
       13  1    1    2    0    0 -1.6483168125e+01 -1.9222548648e+01 +4.3376647327e+01 5.0226944018e+01 1.0566000000e-01 0.0000e+00 -1.0000e+00
      994  1    1    2    0    0 +7.5948541771e+00 -1.1476034213e+01 +9.4999481680e+00 1.3206297811e+02 1.3100000000e+02 0.0000e+00 0.0000e+00
      997  1    1    2    0    0 +8.8883139479e+00 +3.0698582862e+01 +4.4712339334e+02 4.4871007788e+02 2.0000000000e+01 0.0000e+00 0.0000e+00
</event>
<event>
 5      1 +2.3375200e-06 2.11540600e+02 7.95774700e-02 4.83950300e-01
       13 -1    0    0    0    0 +0.0000000000e+00 +0.0000000000e+00 +4.9999998884e+02 5.0000000000e+02 1.0566000000e-01 0.0000e+00 1.0000e+00
      994 -1    0    0    0    0 -0.0000000000e+00 -0.0000000000e+00 +0.0000000000e+00 1.3100000000e+02 1.3100000000e+02 0.0000e+00 0.0000e+00
       13  1    1    2    0    0 -1.6438959827e+00 -1.0111444219e+01 +2.2689866569e+01 2.4895479653e+01 1.0566000000e-01 0.0000e+00 -1.0000e+00
      994  1    1    2    0    0 -3.8393487984e+00 +1.3107478321e+01 +3.4231732483e+00 1.3175456236e+02 1.3100000000e+02 0.0000e+00 0.0000e+00
      997  1    1    2    0    0 +5.4832447811e+00 -2.9960341013e+00 +4.7388694902e+02 4.7434995799e+02 2.0000000000e+01 0.0000e+00 0.0000e+00
</event>
</LesHouchesEvents>
