<event>
 5    1  0.1535793E-008  0.3851993E+03  0.7957747E-01  0.3428827E+00
         13   -1    0    0    0    0  0.00000000000E+00  0.00000000000E+00  0.14999999963E+04  0.15000000000E+04  0.10566000000E+00 0. -1.
        994   -1    0    0    0    0 -0.00000000000E+00 -0.00000000000E+00  0.11368683772E-12  0.17120000000E+03  0.17120000000E+03 0.  0.
         13    1    1    2    0    0  0.14094566722E+02  0.12327745255E+01  0.63046874660E+02  0.64614983653E+02  0.10566000000E+00 0. -1.
        994    1    1    2    0    0 -0.15034238375E+02 -0.40588662999E+01  0.23286039949E+01  0.17192255558E+03  0.17120000000E+03 0.  0.
        998    1    1    2    0    0  0.93967165324E+00  0.28260917745E+01  0.14346245176E+04  0.14346624608E+04  0.10000000000E+02 0. -1.
</event>
<event>
 5    1  0.1535793E-008  0.3717111E+03  0.7957747E-01  0.3488064E+00
         13   -1    0    0    0    0  0.00000000000E+00  0.00000000000E+00  0.14999999963E+04  0.15000000000E+04  0.10566000000E+00 0. -1.
        994   -1    0    0    0    0 -0.00000000000E+00 -0.00000000000E+00  0.11368683772E-12  0.17120000000E+03  0.17120000000E+03 0.  0.
         13    1    1    2    0    0  0.32376594370E+02 -0.58000431941E+02  0.20213964110E+03  0.21277391672E+03  0.10566000000E+00 0. -1.
        994    1    1    2    0    0 -0.91015571223E+01  0.16245954476E+02  0.13066987359E+02  0.17270482199E+03  0.17120000000E+03 0.  0.
        998    1    1    2    0    0 -0.23275037248E+02  0.41754477465E+02  0.12847933678E+04  0.12857212613E+04  0.10000000000E+02 0. -1.
</event>
<event>
 5    1  0.1535793E-008  0.3798374E+03  0.7957747E-01  0.3451867E+00
         13   -1    0    0    0    0  0.00000000000E+00  0.00000000000E+00  0.14999999963E+04  0.15000000000E+04  0.10566000000E+00 0.  1.
        994   -1    0    0    0    0 -0.00000000000E+00 -0.00000000000E+00  0.11368683772E-12  0.17120000000E+03  0.17120000000E+03 0.  0.
         13    1    1    2    0    0  0.24151839953E+02  0.10827273621E+02  0.87803511488E+02  0.91706101328E+02  0.10566000000E+00 0.  1.
        994    1    1    2    0    0 -0.13568698432E+02  0.25770355460E+02  0.70574786598E+01  0.17380295971E+03  0.17120000000E+03 0.  0.
        998    1    1    2    0    0 -0.10583141521E+02 -0.36597629081E+02  0.14051390061E+04  0.14056909390E+04  0.10000000000E+02 0.  1.
</event>
<event>
 5    1  0.1535793E-008  0.3790548E+03  0.7957747E-01  0.3455284E+00
         13   -1    0    0    0    0  0.00000000000E+00  0.00000000000E+00  0.14999999963E+04  0.15000000000E+04  0.10566000000E+00 0.  1.
        994   -1    0    0    0    0 -0.00000000000E+00 -0.00000000000E+00  0.11368683772E-12  0.17120000000E+03  0.17120000000E+03 0.  0.
         13    1    1    2    0    0  0.77178237951E+01 -0.27663339146E+02  0.18894866962E+02  0.34378078748E+02  0.10566000000E+00 0.  1.
        994    1    1    2    0    0 -0.39059034886E+02  0.23839827107E+02  0.23408831322E+02  0.17874943062E+03  0.17120000000E+03 0.  0.
        998    1    1    2    0    0  0.31341211091E+02  0.38235120392E+01  0.14576962980E+04  0.14580724906E+04  0.10000000000E+02 0.  1.
</event>
<event>
 5    1  0.1535793E-008  0.3994753E+03  0.7957747E-01  0.3370509E+00
         13   -1    0    0    0    0  0.00000000000E+00  0.00000000000E+00  0.14999999963E+04  0.15000000000E+04  0.10566000000E+00 0. -1.
        994   -1    0    0    0    0 -0.00000000000E+00 -0.00000000000E+00  0.11368683772E-12  0.17120000000E+03  0.17120000000E+03 0.  0.
         13    1    1    2    0    0 -0.28808185504E+02  0.32612274390E+02  0.21619841938E+02  0.48589100860E+02  0.10566000000E+00 0. -1.
        994    1    1    2    0    0  0.11032980075E+02 -0.78949032024E+02  0.52744712123E+02  0.19607682414E+03  0.17120000000E+03 0.  0.
        998    1    1    2    0    0  0.17775205429E+02  0.46336757635E+02  0.14256354422E+04  0.14265340750E+04  0.10000000000E+02 0. -1.
</event>
<event>
 5    1  0.1535793E-008  0.3833403E+03  0.7957747E-01  0.3436742E+00
         13   -1    0    0    0    0  0.00000000000E+00  0.00000000000E+00  0.14999999963E+04  0.15000000000E+04  0.10566000000E+00 0.  1.
        994   -1    0    0    0    0 -0.00000000000E+00 -0.00000000000E+00  0.11368683772E-12  0.17120000000E+03  0.17120000000E+03 0.  0.
         13    1    1    2    0    0  0.12317702257E+02 -0.17452157266E+02  0.90104699706E+02  0.92602222734E+02  0.10566000000E+00 0.  1.
        994    1    1    2    0    0 -0.12400402361E+02  0.12329199373E+02  0.34680735222E+01  0.17212567115E+03  0.17120000000E+03 0.  0.
        998    1    1    2    0    0  0.82700103777E-01  0.51229578930E+01  0.14064272231E+04  0.14064721061E+04  0.10000000000E+02 0.  1.
</event>
<event>
 5    1  0.1535793E-008  0.4112842E+03  0.7957747E-01  0.3325314E+00
         13   -1    0    0    0    0  0.00000000000E+00  0.00000000000E+00  0.14999999963E+04  0.15000000000E+04  0.10566000000E+00 0. -1.
        994   -1    0    0    0    0 -0.00000000000E+00 -0.00000000000E+00  0.11368683772E-12  0.17120000000E+03  0.17120000000E+03 0.  0.
         13    1    1    2    0    0  0.10942744323E+02 -0.14331088580E+03  0.27408449161E+03  0.30948355909E+03  0.10566000000E+00 0. -1.
        994    1    1    2    0    0 -0.29086789450E+02  0.10354810199E+03  0.84026955164E+02  0.21894798455E+03  0.17120000000E+03 0.  0.
        998    1    1    2    0    0  0.18144045127E+02  0.39762783809E+02  0.11418885495E+04  0.11427684564E+04  0.10000000000E+02 0. -1.
</event>
<event>
 5    1  0.1535793E-008  0.3834308E+03  0.7957747E-01  0.3436355E+00
         13   -1    0    0    0    0  0.00000000000E+00  0.00000000000E+00  0.14999999963E+04  0.15000000000E+04  0.10566000000E+00 0. -1.
        994   -1    0    0    0    0 -0.00000000000E+00 -0.00000000000E+00  0.11368683772E-12  0.17120000000E+03  0.17120000000E+03 0.  0.
         13    1    1    2    0    0 -0.18015520180E+02  0.14043377240E+02  0.11053233533E+03  0.11286799249E+03  0.10566000000E+00 0. -1.
        994    1    1    2    0    0  0.29382553036E+01 -0.12963031871E+02  0.29954465569E+01  0.17174133527E+03  0.17120000000E+03 0.  0.
        998    1    1    2    0    0  0.15077264876E+02 -0.10803453689E+01  0.13864722144E+04  0.13865906722E+04  0.10000000000E+02 0. -1.
</event>
<event>
 5    1  0.1535793E-008  0.3840012E+03  0.7957747E-01  0.3433919E+00
         13   -1    0    0    0    0  0.00000000000E+00  0.00000000000E+00  0.14999999963E+04  0.15000000000E+04  0.10566000000E+00 0. -1.
        994   -1    0    0    0    0 -0.00000000000E+00 -0.00000000000E+00  0.11368683772E-12  0.17120000000E+03  0.17120000000E+03 0.  0.
         13    1    1    2    0    0 -0.59396196188E+01 -0.18830512078E+02  0.80923019601E+02  0.83297139997E+02  0.10566000000E+00 0. -1.
        994    1    1    2    0    0  0.89367229035E+01  0.30908982124E+02  0.55498710061E+01  0.17428560256E+03  0.17120000000E+03 0.  0.
        998    1    1    2    0    0 -0.29971032847E+01 -0.12078470046E+02  0.14135271057E+04  0.14136172574E+04  0.10000000000E+02 0. -1.
</event>
<event>
 5    1  0.1535793E-008  0.3820917E+03  0.7957747E-01  0.3442101E+00
         13   -1    0    0    0    0  0.00000000000E+00  0.00000000000E+00  0.14999999963E+04  0.15000000000E+04  0.10566000000E+00 0. -1.
        994   -1    0    0    0    0 -0.00000000000E+00 -0.00000000000E+00  0.11368683772E-12  0.17120000000E+03  0.17120000000E+03 0.  0.
         13    1    1    2    0    0 -0.13407442849E+01 -0.14111310924E+02  0.32168743628E+02  0.35153462445E+02  0.10566000000E+00 0. -1.
        994    1    1    2    0    0  0.26560329700E+00  0.35215119369E+01  0.31224119376E+01  0.17126488562E+03  0.17120000000E+03 0.  0.
        998    1    1    2    0    0  0.10751409879E+01  0.10589798988E+02  0.14647088407E+04  0.14647816519E+04  0.10000000000E+02 0. -1.
</event>
<event>
 5    1  0.1535793E-008  0.3787116E+03  0.7957747E-01  0.3456788E+00
         13   -1    0    0    0    0  0.00000000000E+00  0.00000000000E+00  0.14999999963E+04  0.15000000000E+04  0.10566000000E+00 0. -1.
        994   -1    0    0    0    0 -0.00000000000E+00 -0.00000000000E+00  0.11368683772E-12  0.17120000000E+03  0.17120000000E+03 0.  0.
         13    1    1    2    0    0  0.92930758963E+01  0.13476264938E+02  0.25719209302E+02  0.30487044255E+02  0.10566000000E+00 0. -1.
        994    1    1    2    0    0 -0.95140495417E+01 -0.12417189123E+02  0.56068686211E+01  0.17200459500E+03  0.17120000000E+03 0.  0.
        998    1    1    2    0    0  0.22097364534E+00 -0.10590758148E+01  0.14686739184E+04  0.14687083607E+04  0.10000000000E+02 0. -1.
</event>
<event>
 5    1  0.1535793E-008  0.3849191E+03  0.7957747E-01  0.3430015E+00
         13   -1    0    0    0    0  0.00000000000E+00  0.00000000000E+00  0.14999999963E+04  0.15000000000E+04  0.10566000000E+00 0.  1.
        994   -1    0    0    0    0 -0.00000000000E+00 -0.00000000000E+00  0.11368683772E-12  0.17120000000E+03  0.17120000000E+03 0.  0.
         13    1    1    2    0    0  0.32389840637E+01 -0.16760928751E+02  0.81770824767E+02  0.83533817687E+02  0.10566000000E+00 0.  1.
        994    1    1    2    0    0 -0.11349242809E+02  0.18641688962E+02  0.32387112276E+01  0.17261589478E+03  0.17120000000E+03 0.  0.
        998    1    1    2    0    0  0.81102587450E+01 -0.18807602111E+01  0.14149904603E+04  0.14150502875E+04  0.10000000000E+02 0.  1.
</event>
<event>
 5    1  0.1535793E-008  0.3709815E+03  0.7957747E-01  0.3491392E+00
         13   -1    0    0    0    0  0.00000000000E+00  0.00000000000E+00  0.14999999963E+04  0.15000000000E+04  0.10566000000E+00 0.  1.
        994   -1    0    0    0    0 -0.00000000000E+00 -0.00000000000E+00  0.11368683772E-12  0.17120000000E+03  0.17120000000E+03 0.  0.
         13    1    1    2    0    0 -0.50026811250E+02 -0.77116047089E+02  0.35074441011E+03  0.36258960127E+03  0.10566000000E+00 0.  1.
        994    1    1    2    0    0  0.43547563659E+02  0.87049785317E+02  0.42149111587E+02  0.20139524084E+03  0.17120000000E+03 0.  0.
        998    1    1    2    0    0  0.64792475915E+01 -0.99337382274E+01  0.11071064746E+04  0.11072151579E+04  0.10000000000E+02 0.  1.
</event>
<event>
 5    1  0.1535793E-008  0.3704471E+03  0.7957747E-01  0.3493839E+00
         13   -1    0    0    0    0  0.00000000000E+00  0.00000000000E+00  0.14999999963E+04  0.15000000000E+04  0.10566000000E+00 0. -1.
        994   -1    0    0    0    0 -0.00000000000E+00 -0.00000000000E+00  0.11368683772E-12  0.17120000000E+03  0.17120000000E+03 0.  0.
         13    1    1    2    0    0 -0.42117345617E+02  0.84088457622E+02  0.28865336016E+03  0.30358773527E+03  0.10566000000E+00 0. -1.
        994    1    1    2    0    0  0.71893837604E+02 -0.84465528998E+02  0.55592235316E+02  0.21143104337E+03  0.17120000000E+03 0.  0.
        998    1    1    2    0    0 -0.29776491987E+02  0.37707137616E+00  0.11557544008E+04  0.11561812214E+04  0.10000000000E+02 0. -1.
</event>
<event>
 5    1  0.1535793E-008  0.3739231E+03  0.7957747E-01  0.3478053E+00
         13   -1    0    0    0    0  0.00000000000E+00  0.00000000000E+00  0.14999999963E+04  0.15000000000E+04  0.10566000000E+00 0. -1.
        994   -1    0    0    0    0 -0.00000000000E+00 -0.00000000000E+00  0.11368683772E-12  0.17120000000E+03  0.17120000000E+03 0.  0.
         13    1    1    2    0    0  0.25422952915E+02  0.98374179944E+01  0.49737394740E+02  0.56717906584E+02  0.10566000000E+00 0. -1.
        994    1    1    2    0    0 -0.66197693703E+01 -0.11067561272E+02  0.78003904943E+01  0.17186214927E+03  0.17120000000E+03 0.  0.
        998    1    1    2    0    0 -0.18803183545E+02  0.12301432775E+01  0.14424622110E+04  0.14426199441E+04  0.10000000000E+02 0. -1.
</event>
<event>
 5    1  0.1535793E-008  0.3759630E+03  0.7957747E-01  0.3468927E+00
         13   -1    0    0    0    0  0.00000000000E+00  0.00000000000E+00  0.14999999963E+04  0.15000000000E+04  0.10566000000E+00 0.  1.
        994   -1    0    0    0    0 -0.00000000000E+00 -0.00000000000E+00  0.11368683772E-12  0.17120000000E+03  0.17120000000E+03 0.  0.
         13    1    1    2    0    0  0.27280037417E+01 -0.12091627979E+02  0.95597600734E+01  0.15654061718E+02  0.10566000000E+00 0.  1.
        994    1    1    2    0    0 -0.26091977955E+01  0.12270642737E+02  0.67184488351E+01  0.17179043670E+03  0.17120000000E+03 0.  0.
        998    1    1    2    0    0 -0.11880594617E+00 -0.17901475803E+00  0.14837217874E+04  0.14837555016E+04  0.10000000000E+02 0.  1.
</event>
<event>
 5    1  0.1535793E-008  0.3710756E+03  0.7957747E-01  0.3490962E+00
         13   -1    0    0    0    0  0.00000000000E+00  0.00000000000E+00  0.14999999963E+04  0.15000000000E+04  0.10566000000E+00 0. -1.
        994   -1    0    0    0    0 -0.00000000000E+00 -0.00000000000E+00  0.11368683772E-12  0.17120000000E+03  0.17120000000E+03 0.  0.
         13    1    1    2    0    0 -0.18820350029E+02  0.13092106497E+02  0.25983981294E+02  0.34652377634E+02  0.10566000000E+00 0. -1.
        994    1    1    2    0    0  0.16626723009E+02 -0.19447945807E+02  0.10966495156E+02  0.17344847803E+03  0.17120000000E+03 0.  0.
        998    1    1    2    0    0  0.21936270202E+01  0.63558393098E+01  0.14630495198E+04  0.14630991443E+04  0.10000000000E+02 0. -1.
</event>
<event>
 5    1  0.1535793E-008  0.3835810E+03  0.7957747E-01  0.3435713E+00
         13   -1    0    0    0    0  0.00000000000E+00  0.00000000000E+00  0.14999999963E+04  0.15000000000E+04  0.10566000000E+00 0.  1.
        994   -1    0    0    0    0 -0.00000000000E+00 -0.00000000000E+00  0.11368683772E-12  0.17120000000E+03  0.17120000000E+03 0.  0.
         13    1    1    2    0    0  0.13850178966E+02 -0.23448188512E+02  0.14805279306E+03  0.15053665899E+03  0.10566000000E+00 0.  1.
        994    1    1    2    0    0 -0.13850723660E+02  0.20275937924E+02  0.43309204835E+01  0.17300622265E+03  0.17120000000E+03 0.  0.
        998    1    1    2    0    0  0.54469360678E-03  0.31722505883E+01  0.13476162827E+04  0.13476571184E+04  0.10000000000E+02 0.  1.
</event>
<event>
 5    1  0.1535793E-008  0.3826781E+03  0.7957747E-01  0.3439580E+00
         13   -1    0    0    0    0  0.00000000000E+00  0.00000000000E+00  0.14999999963E+04  0.15000000000E+04  0.10566000000E+00 0.  1.
        994   -1    0    0    0    0 -0.00000000000E+00 -0.00000000000E+00  0.11368683772E-12  0.17120000000E+03  0.17120000000E+03 0.  0.
         13    1    1    2    0    0  0.57878499549E+00  0.14215463733E+02  0.35997138720E+02  0.38706841272E+02  0.10566000000E+00 0.  1.
        994    1    1    2    0    0 -0.32950671354E+01 -0.48671757231E+01  0.29017911797E+01  0.17132544253E+03  0.17120000000E+03 0.  0.
        998    1    1    2    0    0  0.27162821399E+01 -0.93482880096E+01  0.14611010664E+04  0.14611677162E+04  0.10000000000E+02 0.  1.
</event>
<event>
 5    1  0.1535793E-008  0.3846963E+03  0.7957747E-01  0.3430961E+00
         13   -1    0    0    0    0  0.00000000000E+00  0.00000000000E+00  0.14999999963E+04  0.15000000000E+04  0.10566000000E+00 0.  1.
        994   -1    0    0    0    0 -0.00000000000E+00 -0.00000000000E+00  0.11368683772E-12  0.17120000000E+03  0.17120000000E+03 0.  0.
         13    1    1    2    0    0  0.75578077323E+01 -0.94636169963E+01  0.41043996428E+02  0.42793706444E+02  0.10566000000E+00 0.  1.
        994    1    1    2    0    0 -0.12736803535E+01  0.86975378495E+01  0.20353829386E+01  0.17143760442E+03  0.17120000000E+03 0.  0.
        998    1    1    2    0    0 -0.62841273788E+01  0.76607914685E+00  0.14569206169E+04  0.14569686891E+04  0.10000000000E+02 0.  1.
</event>
<event>
 5    1  0.1535793E-008  0.3815287E+03  0.7957747E-01  0.3444529E+00
         13   -1    0    0    0    0  0.00000000000E+00  0.00000000000E+00  0.14999999963E+04  0.15000000000E+04  0.10566000000E+00 0.  1.
        994   -1    0    0    0    0 -0.00000000000E+00 -0.00000000000E+00  0.11368683772E-12  0.17120000000E+03  0.17120000000E+03 0.  0.
         13    1    1    2    0    0 -0.14849243750E+02 -0.17996565406E+02  0.82044505746E+02  0.85297646471E+02  0.10566000000E+00 0.  1.
        994    1    1    2    0    0  0.13360202561E+02  0.98467012629E+00  0.39606158226E+01  0.17176900496E+03  0.17120000000E+03 0.  0.
        998    1    1    2    0    0  0.14890411894E+01  0.17011895280E+02  0.14139948747E+04  0.14141333486E+04  0.10000000000E+02 0.  1.
</event>
<event>
 5    1  0.1535793E-008  0.3721227E+03  0.7957747E-01  0.3486192E+00
         13   -1    0    0    0    0  0.00000000000E+00  0.00000000000E+00  0.14999999963E+04  0.15000000000E+04  0.10566000000E+00 0.  1.
        994   -1    0    0    0    0 -0.00000000000E+00 -0.00000000000E+00  0.11368683772E-12  0.17120000000E+03  0.17120000000E+03 0.  0.
         13    1    1    2    0    0  0.12096550208E+02 -0.19351821086E+02  0.28973787966E+02  0.36882394979E+02  0.10566000000E+00 0.  1.
        994    1    1    2    0    0 -0.28874130060E+02 -0.72412164532E+01  0.11211529719E+02  0.17413009218E+03  0.17120000000E+03 0.  0.
        998    1    1    2    0    0  0.16777579852E+02  0.26593037539E+02  0.14598146786E+04  0.14601875128E+04  0.10000000000E+02 0.  1.
</event>
<event>
 5    1  0.1535793E-008  0.3740541E+03  0.7957747E-01  0.3477464E+00
         13   -1    0    0    0    0  0.00000000000E+00  0.00000000000E+00  0.14999999963E+04  0.15000000000E+04  0.10566000000E+00 0. -1.
        994   -1    0    0    0    0 -0.00000000000E+00 -0.00000000000E+00  0.11368683772E-12  0.17120000000E+03  0.17120000000E+03 0.  0.
         13    1    1    2    0    0  0.11859882409E+03 -0.96449242993E+01  0.65664894201E+03  0.66734290275E+03  0.10566000000E+00 0. -1.
        994    1    1    2    0    0 -0.50407306435E+02  0.13128003088E+02  0.22784072330E+02  0.18039344489E+03  0.17120000000E+03 0.  0.
        998    1    1    2    0    0 -0.68191517651E+02 -0.34830787885E+01  0.82056698194E+03  0.82346365237E+03  0.10000000000E+02 0. -1.
</event>
<event>
 5    1  0.1535793E-008  0.3755980E+03  0.7957747E-01  0.3470552E+00
         13   -1    0    0    0    0  0.00000000000E+00  0.00000000000E+00  0.14999999963E+04  0.15000000000E+04  0.10566000000E+00 0. -1.
        994   -1    0    0    0    0 -0.00000000000E+00 -0.00000000000E+00  0.11368683772E-12  0.17120000000E+03  0.17120000000E+03 0.  0.
         13    1    1    2    0    0 -0.12001744217E+02 -0.40691941959E+01  0.10121254673E+02  0.16218852174E+02  0.10566000000E+00 0. -1.
        994    1    1    2    0    0 -0.95692399009E+01  0.30618843476E+01  0.67144561726E+01  0.17162595786E+03  0.17120000000E+03 0.  0.
        998    1    1    2    0    0  0.21570984118E+02  0.10073098484E+01  0.14831642854E+04  0.14833551900E+04  0.10000000000E+02 0. -1.
</event>
<event>
 5    1  0.1535793E-008  0.2430872E+03  0.7957747E-01  0.4410391E+00
         13   -1    0    0    0    0  0.00000000000E+00  0.00000000000E+00  0.14999999963E+04  0.15000000000E+04  0.10566000000E+00 0. -1.
        994   -1    0    0    0    0 -0.00000000000E+00 -0.00000000000E+00  0.11368683772E-12  0.17120000000E+03  0.17120000000E+03 0.  0.
         13    1    1    2    0    0  0.27117805404E+02  0.17428748004E+03  0.14729922057E+03  0.22980115886E+03  0.10566000000E+00 0. -1.
        994    1    1    2    0    0 -0.26179462881E+02 -0.16168054236E+03  0.27258170245E+03  0.36115950294E+03  0.17120000000E+03 0.  0.
        998    1    1    2    0    0 -0.93834252272E+00 -0.12606937678E+02  0.10801190733E+04  0.10802393382E+04  0.10000000000E+02 0.  0.
</event>
<event>
 5    1  0.1535793E-008  0.3851803E+03  0.7957747E-01  0.3428908E+00
         13   -1    0    0    0    0  0.00000000000E+00  0.00000000000E+00  0.14999999963E+04  0.15000000000E+04  0.10566000000E+00 0. -1.
        994   -1    0    0    0    0 -0.00000000000E+00 -0.00000000000E+00  0.11368683772E-12  0.17120000000E+03  0.17120000000E+03 0.  0.
         13    1    1    2    0    0 -0.10974742458E+02  0.60338542386E+01  0.49951519579E+02  0.51497745982E+02  0.10566000000E+00 0. -1.
        994    1    1    2    0    0  0.12365497022E+02 -0.21188345006E+01  0.20581168834E+01  0.17167140362E+03  0.17120000000E+03 0.  0.
        998    1    1    2    0    0 -0.13907545639E+01 -0.39150197380E+01  0.14479903598E+04  0.14480308504E+04  0.10000000000E+02 0. -1.
</event>
<event>
 5    1  0.1535793E-008  0.3854439E+03  0.7957747E-01  0.3427792E+00
         13   -1    0    0    0    0  0.00000000000E+00  0.00000000000E+00  0.14999999963E+04  0.15000000000E+04  0.10566000000E+00 0.  1.
        994   -1    0    0    0    0 -0.00000000000E+00 -0.00000000000E+00  0.11368683772E-12  0.17120000000E+03  0.17120000000E+03 0.  0.
         13    1    1    2    0    0 -0.12559937463E+02  0.60631963827E+01  0.73307121759E+02  0.74622112300E+02  0.10566000000E+00 0.  1.
        994    1    1    2    0    0  0.31551302042E+01  0.31291283228E+01  0.14747507789E+01  0.17126401017E+03  0.17120000000E+03 0.  0.
        998    1    1    2    0    0  0.94048072585E+01 -0.91923247056E+01  0.14252181237E+04  0.14253138775E+04  0.10000000000E+02 0.  1.
</event>
<event>
 5    1  0.1535793E-008  0.3812284E+03  0.7957747E-01  0.3445827E+00
         13   -1    0    0    0    0  0.00000000000E+00  0.00000000000E+00  0.14999999963E+04  0.15000000000E+04  0.10566000000E+00 0. -1.
        994   -1    0    0    0    0 -0.00000000000E+00 -0.00000000000E+00  0.11368683772E-12  0.17120000000E+03  0.17120000000E+03 0.  0.
         13    1    1    2    0    0  0.10039614144E+02 -0.57687819391E+01  0.17713242528E+02  0.21162297184E+02  0.10566000000E+00 0. -1.
        994    1    1    2    0    0 -0.50286759561E+01  0.40153836015E+01  0.36522206024E+01  0.17135982494E+03  0.17120000000E+03 0.  0.
        998    1    1    2    0    0 -0.50109381881E+01  0.17533983376E+01  0.14786345331E+04  0.14786778779E+04  0.10000000000E+02 0. -1.
</event>
<event>
 5    1  0.1535793E-008  0.3870651E+03  0.7957747E-01  0.3420961E+00
         13   -1    0    0    0    0  0.00000000000E+00  0.00000000000E+00  0.14999999963E+04  0.15000000000E+04  0.10566000000E+00 0.  1.
        994   -1    0    0    0    0 -0.00000000000E+00 -0.00000000000E+00  0.11368683772E-12  0.17120000000E+03  0.17120000000E+03 0.  0.
         13    1    1    2    0    0 -0.71946939346E+02  0.41698817755E+02  0.16264540940E+03  0.18267099892E+03  0.10566000000E+00 0.  1.
        994    1    1    2    0    0  0.41047296362E+02 -0.43080791213E+02  0.33557614009E+02  0.18432685254E+03  0.17120000000E+03 0.  0.
        998    1    1    2    0    0  0.30899642984E+02  0.13819734585E+01  0.13037969729E+04  0.13042021485E+04  0.10000000000E+02 0.  1.
</event>
<event>
 5    1  0.1535793E-008  0.3803614E+03  0.7957747E-01  0.3449586E+00
         13   -1    0    0    0    0  0.00000000000E+00  0.00000000000E+00  0.14999999963E+04  0.15000000000E+04  0.10566000000E+00 0. -1.
        994   -1    0    0    0    0 -0.00000000000E+00 -0.00000000000E+00  0.11368683772E-12  0.17120000000E+03  0.17120000000E+03 0.  0.
         13    1    1    2    0    0  0.21191166137E+02  0.63078551668E+01  0.61219148204E+02  0.65089552387E+02  0.10566000000E+00 0. -1.
        994    1    1    2    0    0 -0.88985552329E+01 -0.90914122255E+01  0.44913865441E+01  0.17173075035E+03  0.17120000000E+03 0.  0.
        998    1    1    2    0    0 -0.12292610905E+02  0.27835570587E+01  0.14342894615E+04  0.14343796973E+04  0.10000000000E+02 0. -1.
</event>
<event>
 5    1  0.1535793E-008  0.3800053E+03  0.7957747E-01  0.3451135E+00
         13   -1    0    0    0    0  0.00000000000E+00  0.00000000000E+00  0.14999999963E+04  0.15000000000E+04  0.10566000000E+00 0.  1.
        994   -1    0    0    0    0 -0.00000000000E+00 -0.00000000000E+00  0.11368683772E-12  0.17120000000E+03  0.17120000000E+03 0.  0.
         13    1    1    2    0    0 -0.10015588014E+01  0.58400932094E+02  0.31205155286E+03  0.31747102985E+03  0.10566000000E+00 0.  1.
        994    1    1    2    0    0  0.22690084440E+02 -0.64031434802E+02  0.19714760669E+02  0.18523762135E+03  0.17120000000E+03 0.  0.
        998    1    1    2    0    0 -0.21688525639E+02  0.56305027088E+01  0.11682336828E+04  0.11684913488E+04  0.10000000000E+02 0. -1.
</event>
<event>
 5    1  0.1535793E-008  0.3850733E+03  0.7957747E-01  0.3429361E+00
         13   -1    0    0    0    0  0.00000000000E+00  0.00000000000E+00  0.14999999963E+04  0.15000000000E+04  0.10566000000E+00 0.  1.
        994   -1    0    0    0    0 -0.00000000000E+00 -0.00000000000E+00  0.11368683772E-12  0.17120000000E+03  0.17120000000E+03 0.  0.
         13    1    1    2    0    0  0.10287014430E+02 -0.98772202555E+01  0.67063757228E+02  0.68563407467E+02  0.10566000000E+00 0.  1.
        994    1    1    2    0    0 -0.58452061654E+01 -0.32120103153E+01  0.17400292482E+01  0.17133870300E+03  0.17120000000E+03 0.  0.
        998    1    1    2    0    0 -0.44418082650E+01  0.13089230571E+02  0.14311962098E+04  0.14312978895E+04  0.10000000000E+02 0.  1.
</event>
<event>
 5    1  0.2251934E-008  0.3858906E+03  0.7957747E-01  0.3425904E+00
         13   -1    0    0    0    0  0.00000000000E+00  0.00000000000E+00  0.14999999963E+04  0.15000000000E+04  0.10566000000E+00 0. -1.
        994   -1    0    0    0    0 -0.00000000000E+00 -0.00000000000E+00  0.11368683772E-12  0.17120000000E+03  0.17120000000E+03 0.  0.
         13    1    1    2    0    0 -0.99188434573E+01  0.55767436730E+01  0.52810842707E+02  0.54022956204E+02  0.10566000000E+00 0. -1.
        994    1    1    2    0    0  0.12597872835E+02 -0.58206592299E+01  0.18203918394E+01  0.17177118588E+03  0.17120000000E+03 0.  0.
        998    1    1    2    0    0 -0.26790293780E+01  0.24391555687E+00  0.14453687617E+04  0.14454058579E+04  0.10000000000E+02 0. -1.
</event>
<event>
 5    1  0.3041062E-008  0.3864650E+03  0.7957747E-01  0.3423483E+00
         13   -1    0    0    0    0  0.00000000000E+00  0.00000000000E+00  0.14999999963E+04  0.15000000000E+04  0.10566000000E+00 0.  1.
        994   -1    0    0    0    0 -0.00000000000E+00 -0.00000000000E+00  0.11368683772E-12  0.17120000000E+03  0.17120000000E+03 0.  0.
         13    1    1    2    0    0 -0.37522020098E+01 -0.10158336999E+02  0.63147250550E+02  0.64069159871E+02  0.10566000000E+00 0.  1.
        994    1    1    2    0    0  0.70595890947E+01  0.11197006097E+02  0.14782394472E+01  0.17171731402E+03  0.17120000000E+03 0.  0.
        998    1    1    2    0    0 -0.33073870849E+01 -0.10386690977E+01  0.14353745063E+04  0.14354135261E+04  0.10000000000E+02 0.  1.
</event>
<event>
 5    1  0.1535793E-008  0.3789252E+03  0.7957747E-01  0.3455852E+00
         13   -1    0    0    0    0  0.00000000000E+00  0.00000000000E+00  0.14999999963E+04  0.15000000000E+04  0.10566000000E+00 0. -1.
        994   -1    0    0    0    0 -0.00000000000E+00 -0.00000000000E+00  0.11368683772E-12  0.17120000000E+03  0.17120000000E+03 0.  0.
         13    1    1    2    0    0  0.47281022925E+02 -0.73038496703E+01  0.26752672840E+03  0.27177086474E+03  0.10566000000E+00 0. -1.
        994    1    1    2    0    0 -0.18863674633E+02 -0.14438857867E+02  0.65721490014E+01  0.17296517563E+03  0.17120000000E+03 0.  0.
        998    1    1    2    0    0 -0.28417348292E+02  0.21742707538E+02  0.12259011189E+04  0.12264639596E+04  0.10000000000E+02 0. -1.
</event>
<event>
 5    1  0.1535793E-008  0.3836576E+03  0.7957747E-01  0.3435385E+00
         13   -1    0    0    0    0  0.00000000000E+00  0.00000000000E+00  0.14999999963E+04  0.15000000000E+04  0.10566000000E+00 0. -1.
        994   -1    0    0    0    0 -0.00000000000E+00 -0.00000000000E+00  0.11368683772E-12  0.17120000000E+03  0.17120000000E+03 0.  0.
         13    1    1    2    0    0  0.78409137942E+02  0.53739574811E+02  0.21152429749E+03  0.23190186374E+03  0.10566000000E+00 0. -1.
        994    1    1    2    0    0 -0.73927425082E+02 -0.49999698114E+02  0.48231487485E+02  0.19899987532E+03  0.17120000000E+03 0.  0.
        998    1    1    2    0    0 -0.44817128602E+01 -0.37398766973E+01  0.12402442113E+04  0.12402982609E+04  0.10000000000E+02 0. -1.
</event>
<event>
 5    1  0.1535793E-008  0.3846510E+03  0.7957747E-01  0.3431154E+00
         13   -1    0    0    0    0  0.00000000000E+00  0.00000000000E+00  0.14999999963E+04  0.15000000000E+04  0.10566000000E+00 0.  1.
        994   -1    0    0    0    0 -0.00000000000E+00 -0.00000000000E+00  0.11368683772E-12  0.17120000000E+03  0.17120000000E+03 0.  0.
         13    1    1    2    0    0 -0.11284606899E+02 -0.21394833931E+01  0.36065190550E+02  0.37850084221E+02  0.10566000000E+00 0.  1.
        994    1    1    2    0    0  0.11259208641E+02 -0.10660714584E+02  0.25954845799E+01  0.17192032211E+03  0.17120000000E+03 0.  0.
        998    1    1    2    0    0  0.25398258061E-01  0.12800197977E+02  0.14613393211E+04  0.14614295937E+04  0.10000000000E+02 0.  1.
</event>
<event>
 5    1  0.1535793E-008  0.3818755E+03  0.7957747E-01  0.3443032E+00
         13   -1    0    0    0    0  0.00000000000E+00  0.00000000000E+00  0.14999999963E+04  0.15000000000E+04  0.10566000000E+00 0. -1.
        994   -1    0    0    0    0 -0.00000000000E+00 -0.00000000000E+00  0.11368683772E-12  0.17120000000E+03  0.17120000000E+03 0.  0.
         13    1    1    2    0    0 -0.50838385851E+01  0.23053445892E+02  0.86710827743E+02  0.89867043983E+02  0.10566000000E+00 0. -1.
        994    1    1    2    0    0  0.13997944645E+02 -0.11238693778E+02  0.42607261420E+01  0.17219130199E+03  0.17120000000E+03 0.  0.
        998    1    1    2    0    0 -0.89141060594E+01 -0.11814752114E+02  0.14090284424E+04  0.14091416540E+04  0.10000000000E+02 0. -1.
</event>
<event>
 5    1  0.1535793E-008  0.3837064E+03  0.7957747E-01  0.3435177E+00
         13   -1    0    0    0    0  0.00000000000E+00  0.00000000000E+00  0.14999999963E+04  0.15000000000E+04  0.10566000000E+00 0.  1.
        994   -1    0    0    0    0 -0.00000000000E+00 -0.00000000000E+00  0.11368683772E-12  0.17120000000E+03  0.17120000000E+03 0.  0.
         13    1    1    2    0    0 -0.16697681341E+02  0.20608861523E+02  0.13625144757E+03  0.13880924272E+03  0.10566000000E+00 0.  1.
        994    1    1    2    0    0  0.23791245934E+02 -0.21941913818E+02  0.57406851519E+01  0.17432689532E+03  0.17120000000E+03 0.  0.
        998    1    1    2    0    0 -0.70935645923E+01  0.13330522954E+01  0.13580078636E+04  0.13580638620E+04  0.10000000000E+02 0.  1.
</event>
<event>
 5    1  0.1535793E-008  0.3745519E+03  0.7957747E-01  0.3475229E+00
         13   -1    0    0    0    0  0.00000000000E+00  0.00000000000E+00  0.14999999963E+04  0.15000000000E+04  0.10566000000E+00 0. -1.
        994   -1    0    0    0    0 -0.00000000000E+00 -0.00000000000E+00  0.11368683772E-12  0.17120000000E+03  0.17120000000E+03 0.  0.
         13    1    1    2    0    0  0.14776668264E+02  0.25971962979E+02  0.61739172438E+02  0.68590300796E+02  0.10566000000E+00 0. -1.
        994    1    1    2    0    0 -0.62262438672E+01 -0.20070366275E+02  0.84137823688E+01  0.17268994600E+03  0.17120000000E+03 0.  0.
        998    1    1    2    0    0 -0.85504243965E+01 -0.59015967041E+01  0.14298470415E+04  0.14299197532E+04  0.10000000000E+02 0. -1.
</event>
<event>
 5    1  0.1535793E-008  0.3768425E+03  0.7957747E-01  0.3465023E+00
         13   -1    0    0    0    0  0.00000000000E+00  0.00000000000E+00  0.14999999963E+04  0.15000000000E+04  0.10566000000E+00 0.  1.
        994   -1    0    0    0    0 -0.00000000000E+00 -0.00000000000E+00  0.11368683772E-12  0.17120000000E+03  0.17120000000E+03 0.  0.
         13    1    1    2    0    0 -0.14266362535E+02  0.10082991510E+02  0.24028580710E+02  0.29708242505E+02  0.10566000000E+00 0.  1.
        994    1    1    2    0    0  0.71050969569E+01 -0.15627625991E+02  0.67317944567E+01  0.17219019180E+03  0.17120000000E+03 0.  0.
        998    1    1    2    0    0  0.71612655784E+01  0.55446344817E+01  0.14692396211E+04  0.14693015657E+04  0.10000000000E+02 0.  1.
</event>
<event>
 5    1  0.1614147E-008  0.3858571E+03  0.7957747E-01  0.3426045E+00
         13   -1    0    0    0    0  0.00000000000E+00  0.00000000000E+00  0.14999999963E+04  0.15000000000E+04  0.10566000000E+00 0. -1.
        994   -1    0    0    0    0 -0.00000000000E+00 -0.00000000000E+00  0.11368683772E-12  0.17120000000E+03  0.17120000000E+03 0.  0.
         13    1    1    2    0    0 -0.10388468273E+02  0.89658422402E+01  0.75063981370E+02  0.76308053725E+02  0.10566000000E+00 0. -1.
        994    1    1    2    0    0  0.12545005014E+02 -0.89572781528E+01  0.19848534077E+01  0.17190401283E+03  0.17120000000E+03 0.  0.
        998    1    1    2    0    0 -0.21565367410E+01 -0.85640874342E-02  0.14229511615E+04  0.14229879334E+04  0.10000000000E+02 0.  0.
</event>
<event>
 5    1  0.1535793E-008  0.3837329E+03  0.7957747E-01  0.3435064E+00
         13   -1    0    0    0    0  0.00000000000E+00  0.00000000000E+00  0.14999999963E+04  0.15000000000E+04  0.10566000000E+00 0.  1.
        994   -1    0    0    0    0 -0.00000000000E+00 -0.00000000000E+00  0.11368683772E-12  0.17120000000E+03  0.17120000000E+03 0.  0.
         13    1    1    2    0    0  0.98656483786E+01  0.28033984064E+01  0.22517228626E+02  0.24743217446E+02  0.10566000000E+00 0.  1.
        994    1    1    2    0    0 -0.74974799511E+01  0.96210630122E-01  0.24462115047E+01  0.17138157839E+03  0.17120000000E+03 0.  0.
        998    1    1    2    0    0 -0.23681684275E+01 -0.28996090365E+01  0.14750365561E+04  0.14750752042E+04  0.10000000000E+02 0.  1.
</event>
<event>
 5    1  0.1535793E-008  0.3746789E+03  0.7957747E-01  0.3474660E+00
         13   -1    0    0    0    0  0.00000000000E+00  0.00000000000E+00  0.14999999963E+04  0.15000000000E+04  0.10566000000E+00 0. -1.
        994   -1    0    0    0    0 -0.00000000000E+00 -0.00000000000E+00  0.11368683772E-12  0.17120000000E+03  0.17120000000E+03 0.  0.
         13    1    1    2    0    0  0.44652120419E+02  0.39488903703E+01  0.14246122101E+03  0.14934730077E+03  0.10566000000E+00 0. -1.
        994    1    1    2    0    0 -0.27978191236E+02 -0.20822767435E+02  0.10994066951E+02  0.17506192144E+03  0.17120000000E+03 0.  0.
        998    1    1    2    0    0 -0.16673929183E+02  0.16873877065E+02  0.13465447083E+04  0.13467907778E+04  0.10000000000E+02 0. -1.
</event>
<event>
 5    1  0.3641981E-008  0.3861740E+03  0.7957747E-01  0.3424708E+00
         13   -1    0    0    0    0  0.00000000000E+00  0.00000000000E+00  0.14999999963E+04  0.15000000000E+04  0.10566000000E+00 0. -1.
        994   -1    0    0    0    0 -0.00000000000E+00 -0.00000000000E+00  0.11368683772E-12  0.17120000000E+03  0.17120000000E+03 0.  0.
         13    1    1    2    0    0  0.56351903502E+01  0.91814317303E+01  0.55221608432E+02  0.56262698662E+02  0.10566000000E+00 0. -1.
        994    1    1    2    0    0 -0.30320442614E+01 -0.94307040103E+01  0.13699263390E+01  0.17149183120E+03  0.17120000000E+03 0.  0.
        998    1    1    2    0    0 -0.26031460888E+01  0.24927228002E+00  0.14434084615E+04  0.14434454701E+04  0.10000000000E+02 0. -1.
</event>
<event>
 5    1  0.1535793E-008  0.3817781E+03  0.7957747E-01  0.3443452E+00
         13   -1    0    0    0    0  0.00000000000E+00  0.00000000000E+00  0.14999999963E+04  0.15000000000E+04  0.10566000000E+00 0.  1.
        994   -1    0    0    0    0 -0.00000000000E+00 -0.00000000000E+00  0.11368683772E-12  0.17120000000E+03  0.17120000000E+03 0.  0.
         13    1    1    2    0    0  0.31168091725E+00  0.19447467583E+02  0.55407466488E+02  0.58722224473E+02  0.10566000000E+00 0.  1.
        994    1    1    2    0    0  0.39012166013E+01 -0.20501435862E+02  0.46869990592E+01  0.17253097207E+03  0.17120000000E+03 0.  0.
        998    1    1    2    0    0 -0.42128975186E+01  0.10539682796E+01  0.14399055307E+04  0.14399468035E+04  0.10000000000E+02 0.  1.
</event>
<event>
 5    1  0.1535793E-008  0.3513800E+03  0.7957747E-01  0.3586101E+00
         13   -1    0    0    0    0  0.00000000000E+00  0.00000000000E+00  0.14999999963E+04  0.15000000000E+04  0.10566000000E+00 0. -1.
        994   -1    0    0    0    0 -0.00000000000E+00 -0.00000000000E+00  0.11368683772E-12  0.17120000000E+03  0.17120000000E+03 0.  0.
         13    1    1    2    0    0 -0.25847849252E+03  0.18662985734E+01  0.88171905765E+03  0.91882703593E+03  0.10566000000E+00 0. -1.
        994    1    1    2    0    0  0.26846857888E+03 -0.42262489160E+02  0.32846076926E+03  0.45940985273E+03  0.17120000000E+03 0.  0.
        998    1    1    2    0    0 -0.99900863651E+01  0.40396190587E+02  0.28982016936E+03  0.29296311135E+03  0.10000000000E+02 0. -1.
</event>
<event>
 5    1  0.1535793E-008  0.3828692E+03  0.7957747E-01  0.3438760E+00
         13   -1    0    0    0    0  0.00000000000E+00  0.00000000000E+00  0.14999999963E+04  0.15000000000E+04  0.10566000000E+00 0. -1.
        994   -1    0    0    0    0 -0.00000000000E+00 -0.00000000000E+00  0.11368683772E-12  0.17120000000E+03  0.17120000000E+03 0.  0.
         13    1    1    2    0    0  0.16255410916E+02  0.62665928039E+01  0.57102662749E+02  0.59701204565E+02  0.10566000000E+00 0. -1.
        994    1    1    2    0    0 -0.10877048799E+01 -0.13134479263E+02  0.32671730994E+01  0.17173762566E+03  0.17120000000E+03 0.  0.
        998    1    1    2    0    0 -0.15167706036E+02  0.68678864595E+01  0.14396301604E+04  0.14397611698E+04  0.10000000000E+02 0. -1.
</event>
<event>
 5    1  0.1535793E-008  0.3959807E+03  0.7957747E-01  0.3384396E+00
         13   -1    0    0    0    0  0.00000000000E+00  0.00000000000E+00  0.14999999963E+04  0.15000000000E+04  0.10566000000E+00 0.  1.
        994   -1    0    0    0    0 -0.00000000000E+00 -0.00000000000E+00  0.11368683772E-12  0.17120000000E+03  0.17120000000E+03 0.  0.
         13    1    1    2    0    0  0.62355989874E+01  0.59504231981E+02  0.58416483799E+02  0.83618975489E+02  0.10566000000E+00 0.  1.
        994    1    1    2    0    0 -0.61418723044E+00 -0.65988539555E+02  0.42371968393E+02  0.18830743024E+03  0.17120000000E+03 0.  0.
        998    1    1    2    0    0 -0.56214117570E+01  0.64843075738E+01  0.13992115441E+04  0.13992735943E+04  0.10000000000E+02 0.  1.
</event>
<event>
 5    1  0.1535793E-008  0.3697153E+03  0.7957747E-01  0.3497200E+00
         13   -1    0    0    0    0  0.00000000000E+00  0.00000000000E+00  0.14999999963E+04  0.15000000000E+04  0.10566000000E+00 0. -1.
        994   -1    0    0    0    0 -0.00000000000E+00 -0.00000000000E+00  0.11368683772E-12  0.17120000000E+03  0.17120000000E+03 0.  0.
         13    1    1    2    0    0 -0.26181945547E+02 -0.72321216130E+01  0.34671953764E+02  0.44044902060E+02  0.10566000000E+00 0. -1.
        994    1    1    2    0    0  0.26406320432E+02  0.37082297638E+01  0.11882836626E+02  0.17367120237E+03  0.17120000000E+03 0.  0.
        998    1    1    2    0    0 -0.22437488530E+00  0.35238918492E+01  0.14534452059E+04  0.14534838956E+04  0.10000000000E+02 0. -1.
</event>
<event>
 5    1  0.1535793E-008  0.3842424E+03  0.7957747E-01  0.3432892E+00
         13   -1    0    0    0    0  0.00000000000E+00  0.00000000000E+00  0.14999999963E+04  0.15000000000E+04  0.10566000000E+00 0. -1.
        994   -1    0    0    0    0 -0.00000000000E+00 -0.00000000000E+00  0.11368683772E-12  0.17120000000E+03  0.17120000000E+03 0.  0.
         13    1    1    2    0    0 -0.82587929464E+01  0.18499815815E+02  0.93502164311E+02  0.95671922427E+02  0.10566000000E+00 0. -1.
        994    1    1    2    0    0  0.10625743740E+02 -0.23208539338E+02  0.41576479853E+01  0.17314233672E+03  0.17120000000E+03 0.  0.
        998    1    1    2    0    0 -0.23669507935E+01  0.47087235230E+01  0.14023401840E+04  0.14023857409E+04  0.10000000000E+02 0. -1.
</event>
<event>
 5    1  0.1535793E-008  0.3849133E+03  0.7957747E-01  0.3430040E+00
         13   -1    0    0    0    0  0.00000000000E+00  0.00000000000E+00  0.14999999963E+04  0.15000000000E+04  0.10566000000E+00 0.  1.
        994   -1    0    0    0    0 -0.00000000000E+00 -0.00000000000E+00  0.11368683772E-12  0.17120000000E+03  0.17120000000E+03 0.  0.
         13    1    1    2    0    0 -0.75690954734E+00 -0.11075282562E+02  0.39277348662E+02  0.40816125218E+02  0.10566000000E+00 0.  1.
        994    1    1    2    0    0  0.21428121853E+01 -0.66633932496E+01  0.18343842050E+01  0.17135284479E+03  0.17120000000E+03 0.  0.
        998    1    1    2    0    0 -0.13859026380E+01  0.17738675812E+02  0.14588882634E+04  0.14590310300E+04  0.10000000000E+02 0.  1.
</event>
<event>
 5    1  0.1535793E-008  0.3740045E+03  0.7957747E-01  0.3477687E+00
         13   -1    0    0    0    0  0.00000000000E+00  0.00000000000E+00  0.14999999963E+04  0.15000000000E+04  0.10566000000E+00 0. -1.
        994   -1    0    0    0    0 -0.00000000000E+00 -0.00000000000E+00  0.11368683772E-12  0.17120000000E+03  0.17120000000E+03 0.  0.
         13    1    1    2    0    0 -0.19062125361E+02 -0.61612582658E+02  0.12557536669E+03  0.14116890185E+03  0.10566000000E+00 0. -1.
        994    1    1    2    0    0 -0.60805802688E+02  0.11881030096E+03  0.79240261801E+02  0.23108806189E+03  0.17120000000E+03 0.  0.
        998    1    1    2    0    0  0.79867928049E+02 -0.57197718306E+02  0.12951843678E+04  0.12989430363E+04  0.10000000000E+02 0. -1.
</event>
<event>
 5    1  0.1535793E-008  0.3699817E+03  0.7957747E-01  0.3495975E+00
         13   -1    0    0    0    0  0.00000000000E+00  0.00000000000E+00  0.14999999963E+04  0.15000000000E+04  0.10566000000E+00 0. -1.
        994   -1    0    0    0    0 -0.00000000000E+00 -0.00000000000E+00  0.11368683772E-12  0.17120000000E+03  0.17120000000E+03 0.  0.
         13    1    1    2    0    0  0.50249723687E+02 -0.84025257910E+02  0.39353911159E+03  0.40553461284E+03  0.10566000000E+00 0. -1.
        994    1    1    2    0    0 -0.24944733435E+02  0.92929690292E+02  0.42009782518E+02  0.20082935266E+03  0.17120000000E+03 0.  0.
        998    1    1    2    0    0 -0.25304990253E+02 -0.89044323827E+01  0.10644511022E+04  0.10648360345E+04  0.10000000000E+02 0. -1.
</event>
<event>
 5    1  0.1535793E-008  0.3842395E+03  0.7957747E-01  0.3432904E+00
         13   -1    0    0    0    0  0.00000000000E+00  0.00000000000E+00  0.14999999963E+04  0.15000000000E+04  0.10566000000E+00 0. -1.
        994   -1    0    0    0    0 -0.00000000000E+00 -0.00000000000E+00  0.11368683772E-12  0.17120000000E+03  0.17120000000E+03 0.  0.
         13    1    1    2    0    0 -0.13775692798E+02  0.81370494925E+01  0.66786433181E+02  0.68676197533E+02  0.10566000000E+00 0. -1.
        994    1    1    2    0    0 -0.40298163788E+01 -0.10186551573E+02  0.24039220378E+01  0.17156696679E+03  0.17120000000E+03 0.  0.
        998    1    1    2    0    0  0.17805509177E+02  0.20495020805E+01  0.14308096411E+04  0.14309568357E+04  0.10000000000E+02 0. -1.
</event>
<event>
 5    1  0.1535793E-008  0.3836556E+03  0.7957747E-01  0.3435394E+00
         13   -1    0    0    0    0  0.00000000000E+00  0.00000000000E+00  0.14999999963E+04  0.15000000000E+04  0.10566000000E+00 0.  1.
        994   -1    0    0    0    0 -0.00000000000E+00 -0.00000000000E+00  0.11368683772E-12  0.17120000000E+03  0.17120000000E+03 0.  0.
         13    1    1    2    0    0 -0.25798975464E+02 -0.12494820130E+02  0.16394256141E+03  0.16642981185E+03  0.10566000000E+00 0.  1.
        994    1    1    2    0    0  0.21626074380E+02  0.16861240798E+02  0.47868912935E+01  0.17344838674E+03  0.17120000000E+03 0.  0.
        998    1    1    2    0    0  0.41729010837E+01 -0.43664206680E+01  0.13312705436E+04  0.13313218014E+04  0.10000000000E+02 0.  1.
</event>
<event>
 5    1  0.1535793E-008  0.3798447E+03  0.7957747E-01  0.3451835E+00
         13   -1    0    0    0    0  0.00000000000E+00  0.00000000000E+00  0.14999999963E+04  0.15000000000E+04  0.10566000000E+00 0. -1.
        994   -1    0    0    0    0 -0.00000000000E+00 -0.00000000000E+00  0.11368683772E-12  0.17120000000E+03  0.17120000000E+03 0.  0.
         13    1    1    2    0    0  0.31595584505E+01  0.38275062883E+02  0.19334972824E+03  0.19712709560E+03  0.10566000000E+00 0. -1.
        994    1    1    2    0    0 -0.16661255425E+02 -0.66461180331E+01  0.52884924758E+01  0.17221839759E+03  0.17120000000E+03 0.  0.
        998    1    1    2    0    0  0.13501696975E+02 -0.31628944850E+02  0.13013617756E+04  0.13018545068E+04  0.10000000000E+02 0. -1.
</event>
<event>
 5    1  0.1535793E-008  0.3850864E+03  0.7957747E-01  0.3429306E+00
         13   -1    0    0    0    0  0.00000000000E+00  0.00000000000E+00  0.14999999963E+04  0.15000000000E+04  0.10566000000E+00 0. -1.
        994   -1    0    0    0    0 -0.00000000000E+00 -0.00000000000E+00  0.11368683772E-12  0.17120000000E+03  0.17120000000E+03 0.  0.
         13    1    1    2    0    0  0.15805362036E+02  0.12727989837E+02  0.11357632968E+03  0.11537506239E+03  0.10566000000E+00 0. -1.
        994    1    1    2    0    0 -0.22600812642E+02 -0.18016744844E+02  0.43386237811E+01  0.17367689392E+03  0.17120000000E+03 0.  0.
        998    1    1    2    0    0  0.67954506063E+01  0.52887550065E+01  0.13820850428E+04  0.13821480437E+04  0.10000000000E+02 0. -1.
</event>
<event>
 5    1  0.1535793E-008  0.3735258E+03  0.7957747E-01  0.3479842E+00
         13   -1    0    0    0    0  0.00000000000E+00  0.00000000000E+00  0.14999999963E+04  0.15000000000E+04  0.10566000000E+00 0. -1.
        994   -1    0    0    0    0 -0.00000000000E+00 -0.00000000000E+00  0.11368683772E-12  0.17120000000E+03  0.17120000000E+03 0.  0.
         13    1    1    2    0    0 -0.36417094999E+01  0.19073283274E+02  0.88966484490E+01  0.21359159641E+02  0.10566000000E+00 0. -1.
        994    1    1    2    0    0 -0.34899456062E+01 -0.21990974211E+02  0.14572280530E+02  0.17325580518E+03  0.17120000000E+03 0.  0.
        998    1    1    2    0    0  0.71316551062E+01  0.29176909372E+01  0.14765310673E+04  0.14765850352E+04  0.10000000000E+02 0. -1.
</event>
<event>
 5    1  0.1535793E-008  0.3852987E+03  0.7957747E-01  0.3428406E+00
         13   -1    0    0    0    0  0.00000000000E+00  0.00000000000E+00  0.14999999963E+04  0.15000000000E+04  0.10566000000E+00 0.  1.
        994   -1    0    0    0    0 -0.00000000000E+00 -0.00000000000E+00  0.11368683772E-12  0.17120000000E+03  0.17120000000E+03 0.  0.
         13    1    1    2    0    0 -0.10258387764E+01  0.11872494697E+02  0.47700829942E+02  0.49166948418E+02  0.10566000000E+00 0.  1.
        994    1    1    2    0    0  0.54330331667E+02 -0.73406510585E+01  0.11419977350E+02  0.18012641666E+03  0.17120000000E+03 0.  0.
        998    1    1    2    0    0 -0.53304492891E+02 -0.45318436388E+01  0.14408791890E+04  0.14419066349E+04  0.10000000000E+02 0.  1.
</event>
<event>
 5    1  0.1535793E-008  0.3820636E+03  0.7957747E-01  0.3442222E+00
         13   -1    0    0    0    0  0.00000000000E+00  0.00000000000E+00  0.14999999963E+04  0.15000000000E+04  0.10566000000E+00 0.  1.
        994   -1    0    0    0    0 -0.00000000000E+00 -0.00000000000E+00  0.11368683772E-12  0.17120000000E+03  0.17120000000E+03 0.  0.
         13    1    1    2    0    0 -0.15236495201E+02 -0.34955742437E+02  0.19485997706E+03  0.19855597835E+03  0.10566000000E+00 0.  1.
        994    1    1    2    0    0  0.16297238139E+02  0.41731545070E+02  0.97881002462E+01  0.17723534842E+03  0.17120000000E+03 0.  0.
        998    1    1    2    0    0 -0.10607429379E+01 -0.67758026328E+01  0.12953519190E+04  0.12954086732E+04  0.10000000000E+02 0.  1.
</event>
<event>
 5    1  0.1535793E-008  0.3766427E+03  0.7957747E-01  0.3465908E+00
         13   -1    0    0    0    0  0.00000000000E+00  0.00000000000E+00  0.14999999963E+04  0.15000000000E+04  0.10566000000E+00 0.  1.
        994   -1    0    0    0    0 -0.00000000000E+00 -0.00000000000E+00  0.11368683772E-12  0.17120000000E+03  0.17120000000E+03 0.  0.
         13    1    1    2    0    0 -0.19401028879E+02 -0.47492375834E+02  0.85446003170E+02  0.99664217780E+02  0.10566000000E+00 0.  1.
        994    1    1    2    0    0 -0.23199805035E+02  0.47281402371E+02  0.24491284484E+02  0.18078447107E+03  0.17120000000E+03 0.  0.
        998    1    1    2    0    0  0.42600833915E+02  0.21097346309E+00  0.13900627086E+04  0.13907513112E+04  0.10000000000E+02 0.  1.
</event>
<event>
 5    1  0.1535793E-008  0.3820824E+03  0.7957747E-01  0.3442141E+00
         13   -1    0    0    0    0  0.00000000000E+00  0.00000000000E+00  0.14999999963E+04  0.15000000000E+04  0.10566000000E+00 0.  1.
        994   -1    0    0    0    0 -0.00000000000E+00 -0.00000000000E+00  0.11368683772E-12  0.17120000000E+03  0.17120000000E+03 0.  0.
         13    1    1    2    0    0 -0.11750444218E+03 -0.19882960535E+03  0.97993476738E+03  0.10067833259E+04  0.10566000000E+00 0.  1.
        994    1    1    2    0    0  0.12572043463E+03  0.21190027176E+03  0.24123928122E+03  0.38498465379E+03  0.17120000000E+03 0.  0.
        998    1    1    2    0    0 -0.82159924482E+01 -0.13070666407E+02  0.27882594769E+03  0.27943202027E+03  0.10000000000E+02 0. -1.
</event>
<event>
 5    1  0.1535793E-008  0.3892449E+03  0.7957747E-01  0.3411866E+00
         13   -1    0    0    0    0  0.00000000000E+00  0.00000000000E+00  0.14999999963E+04  0.15000000000E+04  0.10566000000E+00 0.  1.
        994   -1    0    0    0    0 -0.00000000000E+00 -0.00000000000E+00  0.11368683772E-12  0.17120000000E+03  0.17120000000E+03 0.  0.
         13    1    1    2    0    0 -0.66186976499E+02  0.20820190765E+02  0.91069452567E+02  0.11448953034E+03  0.10566000000E+00 0.  1.
        994    1    1    2    0    0  0.87537396346E+02 -0.37369326478E+02  0.56350371202E+02  0.20382361653E+03  0.17120000000E+03 0.  0.
        998    1    1    2    0    0 -0.21350419846E+02  0.16549135712E+02  0.13525801725E+04  0.13528868531E+04  0.10000000000E+02 0.  1.
</event>
<event>
 5    1  0.1535793E-008  0.4134434E+03  0.7957747E-01  0.3317327E+00
         13   -1    0    0    0    0  0.00000000000E+00  0.00000000000E+00  0.14999999963E+04  0.15000000000E+04  0.10566000000E+00 0.  1.
        994   -1    0    0    0    0 -0.00000000000E+00 -0.00000000000E+00  0.11368683772E-12  0.17120000000E+03  0.17120000000E+03 0.  0.
         13    1    1    2    0    0  0.42466324786E+02  0.25239529776E+01  0.10143673701E+02  0.43734018334E+02  0.10566000000E+00 0.  1.
        994    1    1    2    0    0 -0.56784986207E+02  0.67726440099E+00  0.49556735652E+02  0.18705695227E+03  0.17120000000E+03 0.  0.
        998    1    1    2    0    0  0.14318661421E+02 -0.32012173786E+01  0.14402995869E+04  0.14404090294E+04  0.10000000000E+02 0.  1.
</event>
<event>
 5    1  0.1535793E-008  0.3829122E+03  0.7957747E-01  0.3438575E+00
         13   -1    0    0    0    0  0.00000000000E+00  0.00000000000E+00  0.14999999963E+04  0.15000000000E+04  0.10566000000E+00 0. -1.
        994   -1    0    0    0    0 -0.00000000000E+00 -0.00000000000E+00  0.11368683772E-12  0.17120000000E+03  0.17120000000E+03 0.  0.
         13    1    1    2    0    0  0.25219197505E+02 -0.16117924798E+02  0.16444385738E+03  0.16714541219E+03  0.10566000000E+00 0. -1.
        994    1    1    2    0    0 -0.14770569761E+02  0.13259892056E+02  0.39758559734E+01  0.17239269677E+03  0.17120000000E+03 0.  0.
        998    1    1    2    0    0 -0.10448627744E+02  0.28580327425E+01  0.13315802829E+04  0.13316618910E+04  0.10000000000E+02 0. -1.
</event>
<event>
 5    1  0.1535793E-008  0.3746022E+03  0.7957747E-01  0.3475004E+00
         13   -1    0    0    0    0  0.00000000000E+00  0.00000000000E+00  0.14999999963E+04  0.15000000000E+04  0.10566000000E+00 0. -1.
        994   -1    0    0    0    0 -0.00000000000E+00 -0.00000000000E+00  0.11368683772E-12  0.17120000000E+03  0.17120000000E+03 0.  0.
         13    1    1    2    0    0 -0.17805828277E+02  0.65969438325E+02  0.16551183366E+03  0.17906197966E+03  0.10566000000E+00 0. -1.
        994    1    1    2    0    0  0.11952490110E+02 -0.47145748098E+02  0.21846892750E+02  0.17931065308E+03  0.17120000000E+03 0.  0.
        998    1    1    2    0    0  0.58533381672E+01 -0.18823690227E+02  0.13126412699E+04  0.13128273673E+04  0.10000000000E+02 0.  0.
</event>
<event>
 5    1  0.1535793E-008  0.3808756E+03  0.7957747E-01  0.3447355E+00
         13   -1    0    0    0    0  0.00000000000E+00  0.00000000000E+00  0.14999999963E+04  0.15000000000E+04  0.10566000000E+00 0.  1.
        994   -1    0    0    0    0 -0.00000000000E+00 -0.00000000000E+00  0.11368683772E-12  0.17120000000E+03  0.17120000000E+03 0.  0.
         13    1    1    2    0    0 -0.23550388239E+02  0.16430655043E+00  0.76211763862E+02  0.79767737199E+02  0.10566000000E+00 0.  1.
        994    1    1    2    0    0  0.81315436180E+01 -0.54050703658E+01  0.40096608419E+01  0.17152508320E+03  0.17120000000E+03 0.  0.
        998    1    1    2    0    0  0.15418844621E+02  0.52407638153E+01  0.14197785716E+04  0.14199071796E+04  0.10000000000E+02 0.  1.
</event>
<event>
 5    1  0.1535793E-008  0.3810613E+03  0.7957747E-01  0.3446550E+00
         13   -1    0    0    0    0  0.00000000000E+00  0.00000000000E+00  0.14999999963E+04  0.15000000000E+04  0.10566000000E+00 0. -1.
        994   -1    0    0    0    0 -0.00000000000E+00 -0.00000000000E+00  0.11368683772E-12  0.17120000000E+03  0.17120000000E+03 0.  0.
         13    1    1    2    0    0 -0.88992934524E+00 -0.17098230911E+02  0.47787162133E+02  0.50761850866E+02  0.10566000000E+00 0. -1.
        994    1    1    2    0    0 -0.94407481636E+01 -0.37024781399E+02  0.84771679507E+01  0.17561681167E+03  0.17120000000E+03 0.  0.
        998    1    1    2    0    0  0.10330677509E+02  0.54123012310E+02  0.14437356662E+04  0.14448213375E+04  0.10000000000E+02 0. -1.
</event>
<event>
 5    1  0.1535793E-008  0.3853427E+03  0.7957747E-01  0.3428220E+00
         13   -1    0    0    0    0  0.00000000000E+00  0.00000000000E+00  0.14999999963E+04  0.15000000000E+04  0.10566000000E+00 0. -1.
        994   -1    0    0    0    0 -0.00000000000E+00 -0.00000000000E+00  0.11368683772E-12  0.17120000000E+03  0.17120000000E+03 0.  0.
         13    1    1    2    0    0 -0.81424552290E+01  0.73307510840E+01  0.38318300565E+02  0.39854018754E+02  0.10566000000E+00 0. -1.
        994    1    1    2    0    0  0.18259718603E+02 -0.11566977370E+02  0.29963671761E+01  0.17258513987E+03  0.17120000000E+03 0.  0.
        998    1    1    2    0    0 -0.10117263374E+02  0.42362262862E+01  0.14586853285E+04  0.14587608414E+04  0.10000000000E+02 0. -1.
</event>
<event>
 5    1  0.1535793E-008  0.3791043E+03  0.7957747E-01  0.3455068E+00
         13   -1    0    0    0    0  0.00000000000E+00  0.00000000000E+00  0.14999999963E+04  0.15000000000E+04  0.10566000000E+00 0.  1.
        994   -1    0    0    0    0 -0.00000000000E+00 -0.00000000000E+00  0.11368683772E-12  0.17120000000E+03  0.17120000000E+03 0.  0.
         13    1    1    2    0    0  0.27664512617E+02  0.83813339113E+02  0.25215824943E+03  0.26715874493E+03  0.10566000000E+00 0.  1.
        994    1    1    2    0    0  0.21137102618E+02 -0.54329028537E+02  0.28214172985E+02  0.18304070587E+03  0.17120000000E+03 0.  0.
        998    1    1    2    0    0 -0.48801615235E+02 -0.29484310576E+02  0.12196275739E+04  0.12210005492E+04  0.10000000000E+02 0.  1.
</event>
<event>
 5    1  0.1535793E-008  0.3841435E+03  0.7957747E-01  0.3433313E+00
         13   -1    0    0    0    0  0.00000000000E+00  0.00000000000E+00  0.14999999963E+04  0.15000000000E+04  0.10566000000E+00 0.  1.
        994   -1    0    0    0    0 -0.00000000000E+00 -0.00000000000E+00  0.11368683772E-12  0.17120000000E+03  0.17120000000E+03 0.  0.
         13    1    1    2    0    0  0.20200817041E+01 -0.10434472099E+02  0.27225311270E+02  0.29226489284E+02  0.10566000000E+00 0.  1.
        994    1    1    2    0    0 -0.30031182169E+01  0.36449227132E+01  0.21295407404E+01  0.17127836736E+03  0.17120000000E+03 0.  0.
        998    1    1    2    0    0  0.98303651286E+00  0.67895493855E+01  0.14706451443E+04  0.14706951434E+04  0.10000000000E+02 0.  1.
</event>
<event>
 5    1  0.1535793E-008  0.3857861E+03  0.7957747E-01  0.3426345E+00
         13   -1    0    0    0    0  0.00000000000E+00  0.00000000000E+00  0.14999999963E+04  0.15000000000E+04  0.10566000000E+00 0. -1.
        994   -1    0    0    0    0 -0.00000000000E+00 -0.00000000000E+00  0.11368683772E-12  0.17120000000E+03  0.17120000000E+03 0.  0.
         13    1    1    2    0    0 -0.54860977721E+01  0.11934515554E+02  0.71701344169E+02  0.72894607825E+02  0.10566000000E+00 0. -1.
        994    1    1    2    0    0 -0.54877662603E+01 -0.90418655496E+01  0.16073867232E+01  0.17153394592E+03  0.17120000000E+03 0.  0.
        998    1    1    2    0    0  0.10973864032E+02 -0.28926500043E+01  0.14266912654E+04  0.14267714463E+04  0.10000000000E+02 0. -1.
</event>
<event>
 5    1  0.1535793E-008  0.3844520E+03  0.7957747E-01  0.3431999E+00
         13   -1    0    0    0    0  0.00000000000E+00  0.00000000000E+00  0.14999999963E+04  0.15000000000E+04  0.10566000000E+00 0. -1.
        994   -1    0    0    0    0 -0.00000000000E+00 -0.00000000000E+00  0.11368683772E-12  0.17120000000E+03  0.17120000000E+03 0.  0.
         13    1    1    2    0    0  0.63952375155E+01  0.16415049827E+02  0.75502411080E+02  0.77530498300E+02  0.10566000000E+00 0. -1.
        994    1    1    2    0    0 -0.29876834428E+00 -0.24926337790E+02  0.39523508622E+01  0.17305049164E+03  0.17120000000E+03 0.  0.
        998    1    1    2    0    0 -0.60964691712E+01  0.85112879627E+01  0.14205452343E+04  0.14206190101E+04  0.10000000000E+02 0. -1.
</event>
<event>
 5    1  0.1535793E-008  0.3812800E+03  0.7957747E-01  0.3445604E+00
         13   -1    0    0    0    0  0.00000000000E+00  0.00000000000E+00  0.14999999963E+04  0.15000000000E+04  0.10566000000E+00 0.  1.
        994   -1    0    0    0    0 -0.00000000000E+00 -0.00000000000E+00  0.11368683772E-12  0.17120000000E+03  0.17120000000E+03 0.  0.
         13    1    1    2    0    0 -0.32536258131E+01  0.21557677902E+02  0.72514393636E+02  0.75720987882E+02  0.10566000000E+00 0.  1.
        994    1    1    2    0    0  0.48521671898E+00  0.29919224202E+01  0.35189797601E+01  0.17126298565E+03  0.17120000000E+03 0.  0.
        998    1    1    2    0    0  0.27684090941E+01 -0.24549600322E+02  0.14239666229E+04  0.14242160265E+04  0.10000000000E+02 0.  1.
</event>
<event>
 5    1  0.1535793E-008  0.3722711E+03  0.7957747E-01  0.3485518E+00
         13   -1    0    0    0    0  0.00000000000E+00  0.00000000000E+00  0.14999999963E+04  0.15000000000E+04  0.10566000000E+00 0. -1.
        994   -1    0    0    0    0 -0.00000000000E+00 -0.00000000000E+00  0.11368683772E-12  0.17120000000E+03  0.17120000000E+03 0.  0.
         13    1    1    2    0    0 -0.17104284725E+02 -0.52705480912E+02  0.21287019319E+03  0.21996398475E+03  0.10566000000E+00 0. -1.
        994    1    1    2    0    0  0.88959964779E+01  0.78598829329E+01  0.85703746759E+01  0.17182493368E+03  0.17120000000E+03 0.  0.
        998    1    1    2    0    0  0.82082882476E+01  0.44845597980E+02  0.12785594284E+04  0.12794110816E+04  0.10000000000E+02 0. -1.
</event>
<event>
 5    1  0.1535793E-008  0.3760992E+03  0.7957747E-01  0.3468321E+00
         13   -1    0    0    0    0  0.00000000000E+00  0.00000000000E+00  0.14999999963E+04  0.15000000000E+04  0.10566000000E+00 0. -1.
        994   -1    0    0    0    0 -0.00000000000E+00 -0.00000000000E+00  0.11368683772E-12  0.17120000000E+03  0.17120000000E+03 0.  0.
         13    1    1    2    0    0 -0.30540469029E+02  0.20535554650E+02  0.11137091159E+03  0.11729416169E+03  0.10566000000E+00 0. -1.
        994    1    1    2    0    0  0.33610264875E+02  0.18666835199E+02  0.11137582321E+02  0.17581691153E+03  0.17120000000E+03 0.  0.
        998    1    1    2    0    0 -0.30697958457E+01 -0.39202389850E+02  0.13774915024E+04  0.13780889268E+04  0.10000000000E+02 0. -1.
</event>
<event>
 5    1  0.1535793E-008  0.3754455E+03  0.7957747E-01  0.3471233E+00
         13   -1    0    0    0    0  0.00000000000E+00  0.00000000000E+00  0.14999999963E+04  0.15000000000E+04  0.10566000000E+00 0.  1.
        994   -1    0    0    0    0 -0.00000000000E+00 -0.00000000000E+00  0.11368683772E-12  0.17120000000E+03  0.17120000000E+03 0.  0.
         13    1    1    2    0    0  0.32334739233E+01  0.11471943297E+02  0.79522060943E+01  0.14328628072E+02  0.10566000000E+00 0.  1.
        994    1    1    2    0    0 -0.54174796138E+01 -0.14840910924E+02  0.72977671504E+01  0.17208224524E+03  0.17120000000E+03 0.  0.
        998    1    1    2    0    0  0.21840056905E+01  0.33689676273E+01  0.14847500230E+04  0.14847891267E+04  0.10000000000E+02 0.  1.
</event>
<event>
 5    1  0.1535793E-008  0.3860097E+03  0.7957747E-01  0.3425401E+00
         13   -1    0    0    0    0  0.00000000000E+00  0.00000000000E+00  0.14999999963E+04  0.15000000000E+04  0.10566000000E+00 0.  1.
        994   -1    0    0    0    0 -0.00000000000E+00 -0.00000000000E+00  0.11368683772E-12  0.17120000000E+03  0.17120000000E+03 0.  0.
         13    1    1    2    0    0  0.10069729172E+02  0.25090733021E+01  0.49346806174E+02  0.50426315928E+02  0.10566000000E+00 0.  1.
        994    1    1    2    0    0 -0.16401817268E+01 -0.83824157207E+01  0.13688224290E+01  0.17141840264E+03  0.17120000000E+03 0.  0.
        998    1    1    2    0    0 -0.84295474456E+01  0.58733424186E+01  0.14492843677E+04  0.14493552814E+04  0.10000000000E+02 0.  1.
</event>
<event>
 5    1  0.1535793E-008  0.3838323E+03  0.7957747E-01  0.3434640E+00
         13   -1    0    0    0    0  0.00000000000E+00  0.00000000000E+00  0.14999999963E+04  0.15000000000E+04  0.10566000000E+00 0.  1.
        994   -1    0    0    0    0 -0.00000000000E+00 -0.00000000000E+00  0.11368683772E-12  0.17120000000E+03  0.17120000000E+03 0.  0.
         13    1    1    2    0    0  0.14328812900E+02  0.83311293317E+01  0.69949041148E+02  0.71886035616E+02  0.10566000000E+00 0.  1.
        994    1    1    2    0    0  0.90740797998E+01  0.61618878130E+01  0.26082394342E+01  0.17157083289E+03  0.17120000000E+03 0.  0.
        998    1    1    2    0    0 -0.23402892700E+02 -0.14493017145E+02  0.14274427157E+04  0.14277431315E+04  0.10000000000E+02 0.  1.
</event>
<event>
 5    1  0.1535793E-008  0.3794824E+03  0.7957747E-01  0.3453416E+00
         13   -1    0    0    0    0  0.00000000000E+00  0.00000000000E+00  0.14999999963E+04  0.15000000000E+04  0.10566000000E+00 0. -1.
        994   -1    0    0    0    0 -0.00000000000E+00 -0.00000000000E+00  0.11368683772E-12  0.17120000000E+03  0.17120000000E+03 0.  0.
         13    1    1    2    0    0 -0.64414908867E+01 -0.11848492800E+02  0.19069365838E+02  0.23356614994E+02  0.10566000000E+00 0. -1.
        994    1    1    2    0    0 -0.29077839791E+01  0.70837354486E+01  0.45910498577E+01  0.17143264641E+03  0.17120000000E+03 0.  0.
        998    1    1    2    0    0  0.93492748658E+01  0.47647573511E+01  0.14763395806E+04  0.14764107386E+04  0.10000000000E+02 0. -1.
</event>
<event>
 5    1  0.1535793E-008  0.3716917E+03  0.7957747E-01  0.3488152E+00
         13   -1    0    0    0    0  0.00000000000E+00  0.00000000000E+00  0.14999999963E+04  0.15000000000E+04  0.10566000000E+00 0.  1.
        994   -1    0    0    0    0 -0.00000000000E+00 -0.00000000000E+00  0.11368683772E-12  0.17120000000E+03  0.17120000000E+03 0.  0.
         13    1    1    2    0    0  0.44182546340E+02 -0.21079118998E+01  0.11152623110E+03  0.11997771494E+03  0.10566000000E+00 0.  1.
        994    1    1    2    0    0 -0.32661518698E+02 -0.12771304402E+02  0.12627137153E+02  0.17521063213E+03  0.17120000000E+03 0.  0.
        998    1    1    2    0    0 -0.11521027642E+02  0.14879216302E+02  0.13758466280E+04  0.13760116529E+04  0.10000000000E+02 0.  1.
</event>
<event>
 5    1  0.1535793E-008  0.3858636E+03  0.7957747E-01  0.3426018E+00
         13   -1    0    0    0    0  0.00000000000E+00  0.00000000000E+00  0.14999999963E+04  0.15000000000E+04  0.10566000000E+00 0. -1.
        994   -1    0    0    0    0 -0.00000000000E+00 -0.00000000000E+00  0.11368683772E-12  0.17120000000E+03  0.17120000000E+03 0.  0.
         13    1    1    2    0    0  0.44323364093E+01 -0.91576455030E+01  0.45830270247E+02  0.46946063863E+02  0.10566000000E+00 0. -1.
        994    1    1    2    0    0 -0.68510925061E+01 -0.51147249783E+01  0.14417441947E+01  0.17141941695E+03  0.17120000000E+03 0.  0.
        998    1    1    2    0    0  0.24187560969E+01  0.14272370481E+02  0.14527279818E+04  0.14528345192E+04  0.10000000000E+02 0. -1.
</event>
<event>
 5    1  0.1535793E-008  0.3797680E+03  0.7957747E-01  0.3452169E+00
         13   -1    0    0    0    0  0.00000000000E+00  0.00000000000E+00  0.14999999963E+04  0.15000000000E+04  0.10566000000E+00 0.  1.
        994   -1    0    0    0    0 -0.00000000000E+00 -0.00000000000E+00  0.11368683772E-12  0.17120000000E+03  0.17120000000E+03 0.  0.
         13    1    1    2    0    0  0.10798484938E+02  0.51811674032E+01  0.15011668152E+02  0.19204507735E+02  0.10566000000E+00 0.  1.
        994    1    1    2    0    0 -0.65117312453E+01 -0.84135290386E+01  0.46290568815E+01  0.17159271046E+03  0.17120000000E+03 0.  0.
        998    1    1    2    0    0 -0.42867536927E+01  0.32323616354E+01  0.14803592712E+04  0.14804027818E+04  0.10000000000E+02 0.  1.
</event>
<event>
 5    1  0.1535793E-008  0.3823148E+03  0.7957747E-01  0.3441141E+00
         13   -1    0    0    0    0  0.00000000000E+00  0.00000000000E+00  0.14999999963E+04  0.15000000000E+04  0.10566000000E+00 0.  1.
        994   -1    0    0    0    0 -0.00000000000E+00 -0.00000000000E+00  0.11368683772E-12  0.17120000000E+03  0.17120000000E+03 0.  0.
         13    1    1    2    0    0  0.17722420860E+02 -0.17508270427E+02  0.13236257239E+03  0.13468661948E+03  0.10566000000E+00 0.  1.
        994    1    1    2    0    0  0.20358052688E+02 -0.61210788351E+01  0.44698984228E+01  0.17257270325E+03  0.17120000000E+03 0.  0.
        998    1    1    2    0    0 -0.38080473548E+02  0.23629349262E+02  0.13631675255E+04  0.13639406773E+04  0.10000000000E+02 0.  1.
</event>
<event>
 5    1  0.1535793E-008  0.3854633E+03  0.7957747E-01  0.3427710E+00
         13   -1    0    0    0    0  0.00000000000E+00  0.00000000000E+00  0.14999999963E+04  0.15000000000E+04  0.10566000000E+00 0.  1.
        994   -1    0    0    0    0 -0.00000000000E+00 -0.00000000000E+00  0.11368683772E-12  0.17120000000E+03  0.17120000000E+03 0.  0.
         13    1    1    2    0    0  0.10533301102E+02 -0.50260157463E+01  0.47182694907E+02  0.48604826192E+02  0.10566000000E+00 0.  1.
        994    1    1    2    0    0 -0.11344928907E+02  0.81379730307E+01  0.20406504555E+01  0.17178049444E+03  0.17120000000E+03 0.  0.
        998    1    1    2    0    0  0.81162780491E+00 -0.31119572844E+01  0.14507766509E+04  0.14508146794E+04  0.10000000000E+02 0.  1.
</event>
<event>
 5    1  0.1535793E-008  0.3837515E+03  0.7957747E-01  0.3434984E+00
         13   -1    0    0    0    0  0.00000000000E+00  0.00000000000E+00  0.14999999963E+04  0.15000000000E+04  0.10566000000E+00 0. -1.
        994   -1    0    0    0    0 -0.00000000000E+00 -0.00000000000E+00  0.11368683772E-12  0.17120000000E+03  0.17120000000E+03 0.  0.
         13    1    1    2    0    0 -0.10663008037E+02  0.14390642522E+02  0.67197530953E+02  0.69543581032E+02  0.10566000000E+00 0. -1.
        994    1    1    2    0    0  0.12328863563E+02 -0.16858414755E+02  0.36929304260E+01  0.17250879618E+03  0.17120000000E+03 0.  0.
        998    1    1    2    0    0 -0.16658555254E+01  0.24677722328E+01  0.14291095349E+04  0.14291476228E+04  0.10000000000E+02 0. -1.
</event>
<event>
 5    1  0.1535793E-008  0.3783013E+03  0.7957747E-01  0.3458588E+00
         13   -1    0    0    0    0  0.00000000000E+00  0.00000000000E+00  0.14999999963E+04  0.15000000000E+04  0.10566000000E+00 0.  1.
        994   -1    0    0    0    0 -0.00000000000E+00 -0.00000000000E+00  0.11368683772E-12  0.17120000000E+03  0.17120000000E+03 0.  0.
         13    1    1    2    0    0  0.54761270679E+01 -0.14038349558E+02  0.20824421561E+02  0.25704686797E+02  0.10566000000E+00 0.  1.
        994    1    1    2    0    0  0.98904495908E+01  0.11182627304E+02  0.57426921937E+01  0.17194560378E+03  0.17120000000E+03 0.  0.
        998    1    1    2    0    0 -0.15366576659E+02  0.28557222538E+01  0.14734328825E+04  0.14735497094E+04  0.10000000000E+02 0.  1.
</event>
<event>
 5    1  0.1535793E-008  0.3687999E+03  0.7957747E-01  0.3501425E+00
         13   -1    0    0    0    0  0.00000000000E+00  0.00000000000E+00  0.14999999963E+04  0.15000000000E+04  0.10566000000E+00 0.  1.
        994   -1    0    0    0    0 -0.00000000000E+00 -0.00000000000E+00  0.11368683772E-12  0.17120000000E+03  0.17120000000E+03 0.  0.
         13    1    1    2    0    0 -0.46058098879E+02 -0.26919293930E+02  0.16930129725E+03  0.17750756963E+03  0.10566000000E+00 0.  1.
        994    1    1    2    0    0 -0.88951206120E+01 -0.17402057533E+02  0.11636457108E+02  0.17270437722E+03  0.17120000000E+03 0.  0.
        998    1    1    2    0    0  0.54953219491E+02  0.44321351463E+02  0.13190622419E+04  0.13209880532E+04  0.10000000000E+02 0.  1.
</event>
<event>
 5    1  0.1535793E-008  0.3759961E+03  0.7957747E-01  0.3468780E+00
         13   -1    0    0    0    0  0.00000000000E+00  0.00000000000E+00  0.14999999963E+04  0.15000000000E+04  0.10566000000E+00 0.  1.
        994   -1    0    0    0    0 -0.00000000000E+00 -0.00000000000E+00  0.11368683772E-12  0.17120000000E+03  0.17120000000E+03 0.  0.
         13    1    1    2    0    0  0.43336017722E+02 -0.13845388149E+02  0.18069053353E+03  0.18632977561E+03  0.10566000000E+00 0.  1.
        994    1    1    2    0    0 -0.12706041086E+02 -0.51198685974E+00  0.67160932988E+01  0.17180294386E+03  0.17120000000E+03 0.  0.
        998    1    1    2    0    0 -0.30629976636E+02  0.14357375009E+02  0.13125933694E+04  0.13130672805E+04  0.10000000000E+02 0.  1.
</event>
<event>
 5    1  0.1535793E-008  0.3780348E+03  0.7957747E-01  0.3459760E+00
         13   -1    0    0    0    0  0.00000000000E+00  0.00000000000E+00  0.14999999963E+04  0.15000000000E+04  0.10566000000E+00 0. -1.
        994   -1    0    0    0    0 -0.00000000000E+00 -0.00000000000E+00  0.11368683772E-12  0.17120000000E+03  0.17120000000E+03 0.  0.
         13    1    1    2    0    0 -0.13089480932E+02 -0.22508207753E-02  0.14469227894E+02  0.19511643601E+02  0.10566000000E+00 0. -1.
        994    1    1    2    0    0  0.92394916151E+01 -0.41096641707E+01  0.54725967621E+01  0.17158568373E+03  0.17120000000E+03 0.  0.
        998    1    1    2    0    0  0.38499893166E+01  0.41119149915E+01  0.14800581716E+04  0.14801026727E+04  0.10000000000E+02 0. -1.
</event>
<event>
 5    1  0.1535793E-008  0.3817485E+03  0.7957747E-01  0.3443580E+00
         13   -1    0    0    0    0  0.00000000000E+00  0.00000000000E+00  0.14999999963E+04  0.15000000000E+04  0.10566000000E+00 0. -1.
        994   -1    0    0    0    0 -0.00000000000E+00 -0.00000000000E+00  0.11368683772E-12  0.17120000000E+03  0.17120000000E+03 0.  0.
         13    1    1    2    0    0  0.13052841239E+02  0.11439192824E+02  0.43661379105E+02  0.46984667566E+02  0.10566000000E+00 0. -1.
        994    1    1    2    0    0 -0.15287456272E+02 -0.13106130178E+02  0.46019727962E+01  0.17244157017E+03  0.17120000000E+03 0.  0.
        998    1    1    2    0    0  0.22346150334E+01  0.16669373539E+01  0.14517366444E+04  0.14517737623E+04  0.10000000000E+02 0. -1.
</event>
<event>
 5    1  0.1535793E-008  0.3730777E+03  0.7957747E-01  0.3481865E+00
         13   -1    0    0    0    0  0.00000000000E+00  0.00000000000E+00  0.14999999963E+04  0.15000000000E+04  0.10566000000E+00 0.  1.
        994   -1    0    0    0    0 -0.00000000000E+00 -0.00000000000E+00  0.11368683772E-12  0.17120000000E+03  0.17120000000E+03 0.  0.
         13    1    1    2    0    0 -0.60155656689E+02  0.30922256456E+02  0.33548707413E+03  0.34223745711E+03  0.10566000000E+00 0.  1.
        994    1    1    2    0    0  0.39815479340E+02  0.23150280840E+02  0.14961700460E+02  0.17791711660E+03  0.17120000000E+03 0.  0.
        998    1    1    2    0    0  0.20340177349E+02 -0.54072537296E+02  0.11495512217E+04  0.11510454263E+04  0.10000000000E+02 0.  1.
</event>
<event>
 5    1  0.1540113E-008  0.3848302E+03  0.7957747E-01  0.3430393E+00
         13   -1    0    0    0    0  0.00000000000E+00  0.00000000000E+00  0.14999999963E+04  0.15000000000E+04  0.10566000000E+00 0. -1.
        994   -1    0    0    0    0 -0.00000000000E+00 -0.00000000000E+00  0.11368683772E-12  0.17120000000E+03  0.17120000000E+03 0.  0.
         13    1    1    2    0    0  0.71066659962E+01  0.71853626838E+01  0.28557578059E+02  0.30293242928E+02  0.10566000000E+00 0. -1.
        994    1    1    2    0    0 -0.11323801856E+02 -0.90910211902E+01  0.24086377896E+01  0.17183165218E+03  0.17120000000E+03 0.  0.
        998    1    1    2    0    0  0.42171358602E+01  0.19056585064E+01  0.14690337804E+04  0.14690751049E+04  0.10000000000E+02 0. -1.
</event>
<event>
 5    1  0.1535793E-008  0.3920399E+03  0.7957747E-01  0.3400353E+00
         13   -1    0    0    0    0  0.00000000000E+00  0.00000000000E+00  0.14999999963E+04  0.15000000000E+04  0.10566000000E+00 0. -1.
        994   -1    0    0    0    0 -0.00000000000E+00 -0.00000000000E+00  0.11368683772E-12  0.17120000000E+03  0.17120000000E+03 0.  0.
         13    1    1    2    0    0 -0.46547874156E+02  0.87744562558E+02  0.17613861203E+03  0.20221432852E+03  0.10566000000E+00 0. -1.
        994    1    1    2    0    0  0.67759094098E+02 -0.84937708236E+02  0.69421293481E+02  0.21432327242E+03  0.17120000000E+03 0.  0.
        998    1    1    2    0    0 -0.21211219942E+02 -0.28068543219E+01  0.12544400908E+04  0.12546623991E+04  0.10000000000E+02 0. -1.
</event>
<event>
 5    1  0.1535793E-008  0.3825952E+03  0.7957747E-01  0.3439936E+00
         13   -1    0    0    0    0  0.00000000000E+00  0.00000000000E+00  0.14999999963E+04  0.15000000000E+04  0.10566000000E+00 0. -1.
        994   -1    0    0    0    0 -0.00000000000E+00 -0.00000000000E+00  0.11368683772E-12  0.17120000000E+03  0.17120000000E+03 0.  0.
         13    1    1    2    0    0 -0.23124162336E+02 -0.19539247915E+01  0.95362692611E+02  0.98145804861E+02  0.10566000000E+00 0. -1.
        994    1    1    2    0    0  0.11245565297E+02  0.21664845528E+02  0.48061540284E+01  0.17299817163E+03  0.17120000000E+03 0.  0.
        998    1    1    2    0    0  0.11878597040E+02 -0.19710920736E+02  0.13998311496E+04  0.14000560235E+04  0.10000000000E+02 0. -1.
</event>
<event>
 5    1  0.1535793E-008  0.3812574E+03  0.7957747E-01  0.3445702E+00
         13   -1    0    0    0    0  0.00000000000E+00  0.00000000000E+00  0.14999999963E+04  0.15000000000E+04  0.10566000000E+00 0. -1.
        994   -1    0    0    0    0 -0.00000000000E+00 -0.00000000000E+00  0.11368683772E-12  0.17120000000E+03  0.17120000000E+03 0.  0.
         13    1    1    2    0    0 -0.21896612783E+02 -0.18561686474E+02  0.11114376295E+03  0.11479087534E+03  0.10566000000E+00 0. -1.
        994    1    1    2    0    0  0.20526343149E+02  0.15296292419E+02  0.56843822245E+01  0.17319659213E+03  0.17120000000E+03 0.  0.
        998    1    1    2    0    0  0.13702696336E+01  0.32653940553E+01  0.13831718511E+04  0.13832125325E+04  0.10000000000E+02 0. -1.
</event>
<event>
 5    1  0.1535793E-008  0.3848637E+03  0.7957747E-01  0.3430251E+00
         13   -1    0    0    0    0  0.00000000000E+00  0.00000000000E+00  0.14999999963E+04  0.15000000000E+04  0.10566000000E+00 0.  1.
        994   -1    0    0    0    0 -0.00000000000E+00 -0.00000000000E+00  0.11368683772E-12  0.17120000000E+03  0.17120000000E+03 0.  0.
         13    1    1    2    0    0  0.14034219715E+02 -0.78351440113E+01  0.81527383367E+02  0.83096776156E+02  0.10566000000E+00 0.  1.
        994    1    1    2    0    0  0.23536115824E+01  0.54830313991E+01  0.18149809317E+01  0.17131356419E+03  0.17120000000E+03 0.  0.
        998    1    1    2    0    0 -0.16387831298E+02  0.23521126122E+01  0.14166576320E+04  0.14167896597E+04  0.10000000000E+02 0.  1.
</event>
<event>
 5    1  0.1535793E-008  0.3819477E+03  0.7957747E-01  0.3442721E+00
         13   -1    0    0    0    0  0.00000000000E+00  0.00000000000E+00  0.14999999963E+04  0.15000000000E+04  0.10566000000E+00 0.  1.
        994   -1    0    0    0    0 -0.00000000000E+00 -0.00000000000E+00  0.11368683772E-12  0.17120000000E+03  0.17120000000E+03 0.  0.
         13    1    1    2    0    0  0.53713666781E+01  0.32818413145E+02  0.15708121810E+03  0.16056282279E+03  0.10566000000E+00 0.  1.
        994    1    1    2    0    0 -0.18022106267E+02 -0.31769214533E+02  0.75970575698E+01  0.17521767773E+03  0.17120000000E+03 0.  0.
        998    1    1    2    0    0  0.12650739589E+02 -0.10491986122E+01  0.13353217206E+04  0.13354194995E+04  0.10000000000E+02 0.  1.
</event>
<event>
 5    1  0.1535793E-008  0.3762290E+03  0.7957747E-01  0.3467744E+00
         13   -1    0    0    0    0  0.00000000000E+00  0.00000000000E+00  0.14999999963E+04  0.15000000000E+04  0.10566000000E+00 0. -1.
        994   -1    0    0    0    0 -0.00000000000E+00 -0.00000000000E+00  0.11368683772E-12  0.17120000000E+03  0.17120000000E+03 0.  0.
         13    1    1    2    0    0 -0.18041040099E+02  0.48539776680E+02  0.21172317758E+03  0.21796399734E+03  0.10566000000E+00 0. -1.
        994    1    1    2    0    0 -0.12017209714E+02 -0.43282210123E+02  0.12910141348E+02  0.17746513684E+03  0.17120000000E+03 0.  0.
        998    1    1    2    0    0  0.30058249812E+02 -0.52575665564E+01  0.12753666774E+04  0.12757708658E+04  0.10000000000E+02 0. -1.
</event>
<event>
 5    1  0.1535793E-008  0.3834737E+03  0.7957747E-01  0.3436171E+00
         13   -1    0    0    0    0  0.00000000000E+00  0.00000000000E+00  0.14999999963E+04  0.15000000000E+04  0.10566000000E+00 0. -1.
        994   -1    0    0    0    0 -0.00000000000E+00 -0.00000000000E+00  0.11368683772E-12  0.17120000000E+03  0.17120000000E+03 0.  0.
         13    1    1    2    0    0  0.19165356219E+02 -0.78806040021E+01  0.52667972949E+01  0.21381419883E+02  0.10566000000E+00 0. -1.
        994    1    1    2    0    0  0.10862172653E+03  0.49234310768E+00  0.62962957794E+02  0.21230331116E+03  0.17120000000E+03 0.  0.
        998    1    1    2    0    0 -0.12778708275E+03  0.73882608944E+01  0.14317702412E+04  0.14375152690E+04  0.10000000000E+02 0. -1.
</event>
<event>
 5    1  0.1535793E-008  0.3702733E+03  0.7957747E-01  0.3494636E+00
         13   -1    0    0    0    0  0.00000000000E+00  0.00000000000E+00  0.14999999963E+04  0.15000000000E+04  0.10566000000E+00 0. -1.
        994   -1    0    0    0    0 -0.00000000000E+00 -0.00000000000E+00  0.11368683772E-12  0.17120000000E+03  0.17120000000E+03 0.  0.
         13    1    1    2    0    0 -0.99406016236E+02  0.22092092950E+01  0.55564279824E+03  0.56446910196E+03  0.10566000000E+00 0. -1.
        994    1    1    2    0    0  0.55892875388E+02  0.16533726642E+02  0.20955292443E+02  0.18206027001E+03  0.17120000000E+03 0.  0.
        998    1    1    2    0    0  0.43513140848E+02 -0.18742935937E+02  0.92340190560E+03  0.92467062803E+03  0.10000000000E+02 0. -1.
</event>
<event>
 5    1  0.1535793E-008  0.3832934E+03  0.7957747E-01  0.3436942E+00
         13   -1    0    0    0    0  0.00000000000E+00  0.00000000000E+00  0.14999999963E+04  0.15000000000E+04  0.10566000000E+00 0.  1.
        994   -1    0    0    0    0 -0.00000000000E+00 -0.00000000000E+00  0.11368683772E-12  0.17120000000E+03  0.17120000000E+03 0.  0.
         13    1    1    2    0    0 -0.85158983889E+01  0.41950665759E+02  0.25197021220E+03  0.25558047243E+03  0.10566000000E+00 0.  1.
        994    1    1    2    0    0  0.15666679556E+01 -0.64198302479E+02  0.16238799463E+02  0.18356746743E+03  0.17120000000E+03 0.  0.
        998    1    1    2    0    0  0.69492304333E+01  0.22247636720E+02  0.12317909846E+04  0.12320520601E+04  0.10000000000E+02 0.  1.
</event>
<event>
 5    1  0.1535793E-008  0.3816710E+03  0.7957747E-01  0.3443915E+00
         13   -1    0    0    0    0  0.00000000000E+00  0.00000000000E+00  0.14999999963E+04  0.15000000000E+04  0.10566000000E+00 0. -1.
        994   -1    0    0    0    0 -0.00000000000E+00 -0.00000000000E+00  0.11368683772E-12  0.17120000000E+03  0.17120000000E+03 0.  0.
         13    1    1    2    0    0 -0.46447802166E+01  0.21714387215E+02  0.71497119876E+02  0.74866133264E+02  0.10566000000E+00 0. -1.
        994    1    1    2    0    0  0.25803541656E+01 -0.20515998222E+02  0.47147754270E+01  0.17250864766E+03  0.17120000000E+03 0.  0.
        998    1    1    2    0    0  0.20644260510E+01 -0.11983889924E+01  0.14237881010E+04  0.14238252191E+04  0.10000000000E+02 0. -1.
</event>
<event>
 5    1  0.1535793E-008  0.3722352E+03  0.7957747E-01  0.3485681E+00
         13   -1    0    0    0    0  0.00000000000E+00  0.00000000000E+00  0.14999999963E+04  0.15000000000E+04  0.10566000000E+00 0.  1.
        994   -1    0    0    0    0 -0.00000000000E+00 -0.00000000000E+00  0.11368683772E-12  0.17120000000E+03  0.17120000000E+03 0.  0.
         13    1    1    2    0    0 -0.34344996736E+02 -0.10747360876E+02  0.77995836203E+02  0.85897882370E+02  0.10566000000E+00 0.  1.
        994    1    1    2    0    0  0.19737237634E+02  0.41157423853E+00  0.94438052194E+01  0.17259302825E+03  0.17120000000E+03 0.  0.
        998    1    1    2    0    0  0.14607759102E+02  0.10335786637E+02  0.14125603549E+04  0.14127090894E+04  0.10000000000E+02 0.  1.
</event>
<event>
 5    1  0.1535793E-008  0.3817167E+03  0.7957747E-01  0.3443717E+00
         13   -1    0    0    0    0  0.00000000000E+00  0.00000000000E+00  0.14999999963E+04  0.15000000000E+04  0.10566000000E+00 0.  1.
        994   -1    0    0    0    0 -0.00000000000E+00 -0.00000000000E+00  0.11368683772E-12  0.17120000000E+03  0.17120000000E+03 0.  0.
         13    1    1    2    0    0 -0.35213589122E+02  0.16650404950E+02  0.18895882275E+03  0.19293180325E+03  0.10566000000E+00 0.  1.
        994    1    1    2    0    0  0.46581638109E+02 -0.15399458484E+02  0.11311717836E+02  0.17844995739E+03  0.17120000000E+03 0.  0.
        998    1    1    2    0    0 -0.11368048987E+02 -0.12509464659E+01  0.12997294557E+04  0.12998182394E+04  0.10000000000E+02 0.  1.
</event>
<event>
 5    1  0.1535793E-008  0.3850705E+03  0.7957747E-01  0.3429373E+00
         13   -1    0    0    0    0  0.00000000000E+00  0.00000000000E+00  0.14999999963E+04  0.15000000000E+04  0.10566000000E+00 0. -1.
        994   -1    0    0    0    0 -0.00000000000E+00 -0.00000000000E+00  0.11368683772E-12  0.17120000000E+03  0.17120000000E+03 0.  0.
         13    1    1    2    0    0  0.15385856843E+02  0.55082015579E+01  0.80764520409E+02  0.82401357975E+02  0.10566000000E+00 0. -1.
        994    1    1    2    0    0 -0.15255214103E+02 -0.43674466095E+01  0.24234815953E+01  0.17195089244E+03  0.17120000000E+03 0.  0.
        998    1    1    2    0    0 -0.13064273979E+00 -0.11407549484E+01  0.14168119943E+04  0.14168477496E+04  0.10000000000E+02 0.  0.
</event>
<event>
 5    1  0.1535793E-008  0.3736463E+03  0.7957747E-01  0.3479299E+00
         13   -1    0    0    0    0  0.00000000000E+00  0.00000000000E+00  0.14999999963E+04  0.15000000000E+04  0.10566000000E+00 0.  1.
        994   -1    0    0    0    0 -0.00000000000E+00 -0.00000000000E+00  0.11368683772E-12  0.17120000000E+03  0.17120000000E+03 0.  0.
         13    1    1    2    0    0 -0.26627232622E+02 -0.70483439287E+00  0.43901953677E+02  0.51350744974E+02  0.10566000000E+00 0.  1.
        994    1    1    2    0    0  0.27422307577E+02  0.67015036966E+01  0.10101584976E+02  0.17380556701E+03  0.17120000000E+03 0.  0.
        998    1    1    2    0    0 -0.79507495416E+00 -0.59966693038E+01  0.14459964576E+04  0.14460436880E+04  0.10000000000E+02 0.  1.
</event>
<event>
 5    1  0.1535793E-008  0.3846801E+03  0.7957747E-01  0.3431030E+00
         13   -1    0    0    0    0  0.00000000000E+00  0.00000000000E+00  0.14999999963E+04  0.15000000000E+04  0.10566000000E+00 0. -1.
        994   -1    0    0    0    0 -0.00000000000E+00 -0.00000000000E+00  0.11368683772E-12  0.17120000000E+03  0.17120000000E+03 0.  0.
         13    1    1    2    0    0  0.90377281708E+01  0.13128757595E+02  0.79112435668E+02  0.80702127902E+02  0.10566000000E+00 0. -1.
        994    1    1    2    0    0 -0.14116634775E+01  0.79186647924E+01  0.20020551785E+01  0.17140054338E+03  0.17120000000E+03 0.  0.
        998    1    1    2    0    0 -0.76260646932E+01 -0.21047422387E+02  0.14188855054E+04  0.14190973287E+04  0.10000000000E+02 0. -1.
</event>
<event>
 5    1  0.1535793E-008  0.3807843E+03  0.7957747E-01  0.3447751E+00
         13   -1    0    0    0    0  0.00000000000E+00  0.00000000000E+00  0.14999999963E+04  0.15000000000E+04  0.10566000000E+00 0. -1.
        994   -1    0    0    0    0 -0.00000000000E+00 -0.00000000000E+00  0.11368683772E-12  0.17120000000E+03  0.17120000000E+03 0.  0.
         13    1    1    2    0    0  0.55308434814E+02 -0.82545055812E+02  0.55276114432E+03  0.56162051515E+03  0.10566000000E+00 0. -1.
        994    1    1    2    0    0 -0.10013096129E+03  0.88891633253E+02  0.66027918863E+02  0.22714985789E+03  0.17120000000E+03 0.  0.
        998    1    1    2    0    0  0.44822526481E+02 -0.63465774415E+01  0.88121093310E+03  0.88242962696E+03  0.10000000000E+02 0. -1.
</event>
<event>
 5    1  0.1535793E-008  0.3785404E+03  0.7957747E-01  0.3457539E+00
         13   -1    0    0    0    0  0.00000000000E+00  0.00000000000E+00  0.14999999963E+04  0.15000000000E+04  0.10566000000E+00 0.  1.
        994   -1    0    0    0    0 -0.00000000000E+00 -0.00000000000E+00  0.11368683772E-12  0.17120000000E+03  0.17120000000E+03 0.  0.
         13    1    1    2    0    0  0.55113463401E+01  0.17779402364E+02  0.37077194487E+02  0.41487487294E+02  0.10566000000E+00 0.  1.
        994    1    1    2    0    0  0.25146268971E+02  0.11838959786E+02  0.74710267690E+01  0.17360228124E+03  0.17120000000E+03 0.  0.
        998    1    1    2    0    0 -0.30657615311E+02 -0.29618362150E+02  0.14554517750E+04  0.14561102315E+04  0.10000000000E+02 0.  1.
</event>
<event>
 5    1  0.1535793E-008  0.3844152E+03  0.7957747E-01  0.3432156E+00
         13   -1    0    0    0    0  0.00000000000E+00  0.00000000000E+00  0.14999999963E+04  0.15000000000E+04  0.10566000000E+00 0.  1.
        994   -1    0    0    0    0 -0.00000000000E+00 -0.00000000000E+00  0.11368683772E-12  0.17120000000E+03  0.17120000000E+03 0.  0.
         13    1    1    2    0    0  0.13257346010E+02  0.87101843586E+01  0.61737258873E+02  0.63742645316E+02  0.10566000000E+00 0.  1.
        994    1    1    2    0    0 -0.13164927543E+02 -0.16650737665E+02  0.34067133785E+01  0.17254451043E+03  0.17120000000E+03 0.  0.
        998    1    1    2    0    0 -0.92418467480E-01  0.79405533067E+01  0.14348560240E+04  0.14349128443E+04  0.10000000000E+02 0.  1.
</event>
<event>
 5    1  0.1535793E-008  0.3730701E+03  0.7957747E-01  0.3481899E+00
         13   -1    0    0    0    0  0.00000000000E+00  0.00000000000E+00  0.14999999963E+04  0.15000000000E+04  0.10566000000E+00 0.  1.
        994   -1    0    0    0    0 -0.00000000000E+00 -0.00000000000E+00  0.11368683772E-12  0.17120000000E+03  0.17120000000E+03 0.  0.
         13    1    1    2    0    0 -0.89759867656E+01 -0.13821519246E+02  0.14800049819E+02  0.22150742005E+02  0.10566000000E+00 0.  1.
        994    1    1    2    0    0 -0.11714906873E+02  0.47515538246E+01  0.82201176721E+01  0.17186281343E+03  0.17120000000E+03 0.  0.
        998    1    1    2    0    0  0.20690893639E+02  0.90699654209E+01  0.14769798288E+04  0.14771864446E+04  0.10000000000E+02 0.  1.
</event>
<event>
 5    1  0.1535793E-008  0.3839305E+03  0.7957747E-01  0.3434221E+00
         13   -1    0    0    0    0  0.00000000000E+00  0.00000000000E+00  0.14999999963E+04  0.15000000000E+04  0.10566000000E+00 0.  1.
        994   -1    0    0    0    0 -0.00000000000E+00 -0.00000000000E+00  0.11368683772E-12  0.17120000000E+03  0.17120000000E+03 0.  0.
         13    1    1    2    0    0  0.23976397340E+02 -0.84189655652E+01  0.13533140092E+03  0.13769657167E+03  0.10566000000E+00 0.  1.
        994    1    1    2    0    0 -0.25558973646E+02  0.10054077147E+02  0.46554378826E+01  0.17345160335E+03  0.17120000000E+03 0.  0.
        998    1    1    2    0    0  0.15825763064E+01 -0.16351115818E+01  0.13600131575E+04  0.13600518250E+04  0.10000000000E+02 0.  1.
</event>
<event>
 5    1  0.1535793E-008  0.3873497E+03  0.7957747E-01  0.3419768E+00
         13   -1    0    0    0    0  0.00000000000E+00  0.00000000000E+00  0.14999999963E+04  0.15000000000E+04  0.10566000000E+00 0. -1.
        994   -1    0    0    0    0 -0.00000000000E+00 -0.00000000000E+00  0.11368683772E-12  0.17120000000E+03  0.17120000000E+03 0.  0.
         13    1    1    2    0    0 -0.15594933716E+03  0.56951794758E+02  0.34126408117E+03  0.37950610924E+03  0.10566000000E+00 0. -1.
        994    1    1    2    0    0  0.19062180229E+03 -0.10035304899E+03  0.22279972850E+03  0.35405729052E+03  0.17120000000E+03 0.  0.
        998    1    1    2    0    0 -0.34672465129E+02  0.43401254229E+02  0.93593618661E+03  0.93763660024E+03  0.10000000000E+02 0. -1.
</event>
<event>
 5    1  0.1535793E-008  0.3833405E+03  0.7957747E-01  0.3436741E+00
         13   -1    0    0    0    0  0.00000000000E+00  0.00000000000E+00  0.14999999963E+04  0.15000000000E+04  0.10566000000E+00 0.  1.
        994   -1    0    0    0    0 -0.00000000000E+00 -0.00000000000E+00  0.11368683772E-12  0.17120000000E+03  0.17120000000E+03 0.  0.
         13    1    1    2    0    0 -0.31148668857E+02  0.54021543387E+01  0.18039397809E+03  0.18314317169E+03  0.10566000000E+00 0.  1.
        994    1    1    2    0    0  0.31982366457E+02 -0.31893396478E+01  0.58795155162E+01  0.17429013843E+03  0.17120000000E+03 0.  0.
        998    1    1    2    0    0 -0.83369759984E+00 -0.22128146909E+01  0.13137265027E+04  0.13137666899E+04  0.10000000000E+02 0.  1.
</event>
<event>
 5    1  0.1535793E-008  0.3825801E+03  0.7957747E-01  0.3440000E+00
         13   -1    0    0    0    0  0.00000000000E+00  0.00000000000E+00  0.14999999963E+04  0.15000000000E+04  0.10566000000E+00 0.  1.
        994   -1    0    0    0    0 -0.00000000000E+00 -0.00000000000E+00  0.11368683772E-12  0.17120000000E+03  0.17120000000E+03 0.  0.
         13    1    1    2    0    0  0.72672455922E+01 -0.23681835283E+02  0.99586976840E+02  0.10262172919E+03  0.10566000000E+00 0.  1.
        994    1    1    2    0    0 -0.47394169366E+01  0.27524723028E+02  0.54263153638E+01  0.17354814130E+03  0.17120000000E+03 0.  0.
        998    1    1    2    0    0 -0.25278286557E+01 -0.38428877447E+01  0.13949867041E+04  0.13950301295E+04  0.10000000000E+02 0.  1.
</event>
<event>
 5    1  0.1535793E-008  0.3824698E+03  0.7957747E-01  0.3440475E+00
         13   -1    0    0    0    0  0.00000000000E+00  0.00000000000E+00  0.14999999963E+04  0.15000000000E+04  0.10566000000E+00 0. -1.
        994   -1    0    0    0    0 -0.00000000000E+00 -0.00000000000E+00  0.11368683772E-12  0.17120000000E+03  0.17120000000E+03 0.  0.
         13    1    1    2    0    0  0.18034335624E+02  0.10270272927E+02  0.76901630104E+02  0.79652919872E+02  0.10566000000E+00 0. -1.
        994    1    1    2    0    0 -0.29547925402E+01 -0.46758099101E+01  0.29930466081E+01  0.17131547602E+03  0.17120000000E+03 0.  0.
        998    1    1    2    0    0 -0.15079543084E+02 -0.55944630165E+01  0.14201053196E+04  0.14202316041E+04  0.10000000000E+02 0. -1.
</event>
<event>
 5    1  0.1535793E-008  0.3695061E+03  0.7957747E-01  0.3498164E+00
         13   -1    0    0    0    0  0.00000000000E+00  0.00000000000E+00  0.14999999963E+04  0.15000000000E+04  0.10566000000E+00 0. -1.
        994   -1    0    0    0    0 -0.00000000000E+00 -0.00000000000E+00  0.11368683772E-12  0.17120000000E+03  0.17120000000E+03 0.  0.
         13    1    1    2    0    0  0.96149363435E+02 -0.36606283168E+02  0.58952185007E+03  0.59843190333E+03  0.10566000000E+00 0. -1.
        994    1    1    2    0    0 -0.58756193585E+02  0.18813334385E+00  0.21581624309E+02  0.18228420718E+03  0.17120000000E+03 0.  0.
        998    1    1    2    0    0 -0.37393169850E+02  0.36418149824E+02  0.88889652190E+03  0.89048388949E+03  0.10000000000E+02 0. -1.
</event>
<event>
 5    1  0.1535793E-008  0.3789048E+03  0.7957747E-01  0.3455941E+00
         13   -1    0    0    0    0  0.00000000000E+00  0.00000000000E+00  0.14999999963E+04  0.15000000000E+04  0.10566000000E+00 0.  1.
        994   -1    0    0    0    0 -0.00000000000E+00 -0.00000000000E+00  0.11368683772E-12  0.17120000000E+03  0.17120000000E+03 0.  0.
         13    1    1    2    0    0  0.32459524988E+02 -0.45149166799E-04  0.11295253749E+03  0.11752407265E+03  0.10566000000E+00 0.  1.
        994    1    1    2    0    0 -0.15779494365E+02  0.23288494930E+01  0.55410685986E+01  0.17203069326E+03  0.17120000000E+03 0.  0.
        998    1    1    2    0    0 -0.16680030623E+02 -0.23288043439E+01  0.13815063902E+04  0.13816452341E+04  0.10000000000E+02 0.  1.
</event>
<event>
 5    1  0.1535793E-008  0.3839501E+03  0.7957747E-01  0.3434137E+00
         13   -1    0    0    0    0  0.00000000000E+00  0.00000000000E+00  0.14999999963E+04  0.15000000000E+04  0.10566000000E+00 0.  1.
        994   -1    0    0    0    0 -0.00000000000E+00 -0.00000000000E+00  0.11368683772E-12  0.17120000000E+03  0.17120000000E+03 0.  0.
         13    1    1    2    0    0 -0.36546041850E+01  0.13755158880E+02  0.46346619613E+02  0.48482789123E+02  0.10566000000E+00 0.  1.
        994    1    1    2    0    0  0.20797786551E+01 -0.10243155376E+02  0.25129001701E+01  0.17153717492E+03  0.17120000000E+03 0.  0.
        998    1    1    2    0    0  0.15748255299E+01 -0.35120035042E+01  0.14511404765E+04  0.14511800360E+04  0.10000000000E+02 0.  1.
</event>
<event>
 5    1  0.1535793E-008  0.3803106E+03  0.7957747E-01  0.3449807E+00
         13   -1    0    0    0    0  0.00000000000E+00  0.00000000000E+00  0.14999999963E+04  0.15000000000E+04  0.10566000000E+00 0.  1.
        994   -1    0    0    0    0 -0.00000000000E+00 -0.00000000000E+00  0.11368683772E-12  0.17120000000E+03  0.17120000000E+03 0.  0.
         13    1    1    2    0    0 -0.32081503042E+01 -0.11961151875E+02  0.17162918360E+02  0.21164553225E+02  0.10566000000E+00 0.  1.
        994    1    1    2    0    0  0.77993981256E+01  0.17142781899E+02  0.51618418484E+01  0.17231015697E+03  0.17120000000E+03 0.  0.
        998    1    1    2    0    0 -0.45912478214E+01 -0.51816300249E+01  0.14776752361E+04  0.14777252898E+04  0.10000000000E+02 0.  1.
</event>
<event>
 5    1  0.1535793E-008  0.3848807E+03  0.7957747E-01  0.3430178E+00
         13   -1    0    0    0    0  0.00000000000E+00  0.00000000000E+00  0.14999999963E+04  0.15000000000E+04  0.10566000000E+00 0.  1.
        994   -1    0    0    0    0 -0.00000000000E+00 -0.00000000000E+00  0.11368683772E-12  0.17120000000E+03  0.17120000000E+03 0.  0.
         13    1    1    2    0    0 -0.12811599340E+02  0.11699517145E+00  0.47173099781E+02  0.48882136538E+02  0.10566000000E+00 0.  1.
        994    1    1    2    0    0  0.13681431994E+02  0.35324532051E+01  0.23465102915E+01  0.17179815458E+03  0.17120000000E+03 0.  0.
        998    1    1    2    0    0 -0.86983265337E+00 -0.36494483765E+01  0.14504803862E+04  0.14505197089E+04  0.10000000000E+02 0.  1.
</event>
<event>
 5    1  0.1535793E-008  0.3719328E+03  0.7957747E-01  0.3487055E+00
         13   -1    0    0    0    0  0.00000000000E+00  0.00000000000E+00  0.14999999963E+04  0.15000000000E+04  0.10566000000E+00 0. -1.
        994   -1    0    0    0    0 -0.00000000000E+00 -0.00000000000E+00  0.11368683772E-12  0.17120000000E+03  0.17120000000E+03 0.  0.
         13    1    1    2    0    0  0.73331466334E+00  0.85839394065E+02  0.34098912281E+03  0.35162840096E+03  0.10566000000E+00 0. -1.
        994    1    1    2    0    0 -0.77842686413E+01 -0.85565031438E+02  0.34060546687E+02  0.19455469741E+03  0.17120000000E+03 0.  0.
        998    1    1    2    0    0  0.70509539780E+01 -0.27436262705E+00  0.11249503268E+04  0.11250169016E+04  0.10000000000E+02 0. -1.
</event>
<event>
 5    1  0.1535793E-008  0.3820841E+03  0.7957747E-01  0.3442134E+00
         13   -1    0    0    0    0  0.00000000000E+00  0.00000000000E+00  0.14999999963E+04  0.15000000000E+04  0.10566000000E+00 0. -1.
        994   -1    0    0    0    0 -0.00000000000E+00 -0.00000000000E+00  0.11368683772E-12  0.17120000000E+03  0.17120000000E+03 0.  0.
         13    1    1    2    0    0  0.10018424118E+02  0.17609166365E+02  0.68864480102E+02  0.71782862478E+02  0.10566000000E+00 0. -1.
        994    1    1    2    0    0 -0.44959666531E+01 -0.71059136098E+00  0.31535840501E+01  0.17128953193E+03  0.17120000000E+03 0.  0.
        998    1    1    2    0    0 -0.55224574648E+01 -0.16898575004E+02  0.14279819321E+04  0.14281276056E+04  0.10000000000E+02 0. -1.
</event>
<event>
 5    1  0.1535793E-008  0.3750232E+03  0.7957747E-01  0.3473119E+00
         13   -1    0    0    0    0  0.00000000000E+00  0.00000000000E+00  0.14999999963E+04  0.15000000000E+04  0.10566000000E+00 0.  1.
        994   -1    0    0    0    0 -0.00000000000E+00 -0.00000000000E+00  0.11368683772E-12  0.17120000000E+03  0.17120000000E+03 0.  0.
         13    1    1    2    0    0  0.57858195053E+02  0.41233586446E+02  0.42906685943E+03  0.43490937035E+03  0.10566000000E+00 0.  1.
        994    1    1    2    0    0 -0.32587881283E+01 -0.47050488284E+02  0.14265079025E+02  0.17814965795E+03  0.17120000000E+03 0.  0.
        998    1    1    2    0    0 -0.54599406925E+02  0.58169018384E+01  0.10566680578E+04  0.10581409717E+04  0.10000000000E+02 0.  1.
</event>
<event>
 5    1  0.1535793E-008  0.3837819E+03  0.7957747E-01  0.3434855E+00
         13   -1    0    0    0    0  0.00000000000E+00  0.00000000000E+00  0.14999999963E+04  0.15000000000E+04  0.10566000000E+00 0. -1.
        994   -1    0    0    0    0 -0.00000000000E+00 -0.00000000000E+00  0.11368683772E-12  0.17120000000E+03  0.17120000000E+03 0.  0.
         13    1    1    2    0    0 -0.36735456149E+01  0.18556962671E+02  0.84260607401E+02  0.86358073882E+02  0.10566000000E+00 0. -1.
        994    1    1    2    0    0 -0.44832880416E+01 -0.38157488302E+01  0.23505648451E+01  0.17131732243E+03  0.17120000000E+03 0.  0.
        998    1    1    2    0    0  0.81568336565E+01 -0.14741213841E+02  0.14133888240E+04  0.14135246037E+04  0.10000000000E+02 0. -1.
</event>
<event>
 5    1  0.1535793E-008  0.3745499E+03  0.7957747E-01  0.3475238E+00
         13   -1    0    0    0    0  0.00000000000E+00  0.00000000000E+00  0.14999999963E+04  0.15000000000E+04  0.10566000000E+00 0. -1.
        994   -1    0    0    0    0 -0.00000000000E+00 -0.00000000000E+00  0.11368683772E-12  0.17120000000E+03  0.17120000000E+03 0.  0.
         13    1    1    2    0    0  0.14065703413E+02  0.66386975460E+01  0.14341319725E+02  0.21156581319E+02  0.10566000000E+00 0. -1.
        994    1    1    2    0    0 -0.21639885655E+02  0.11597037760E+02  0.89647993676E+01  0.17318367003E+03  0.17120000000E+03 0.  0.
        998    1    1    2    0    0  0.75741822418E+01 -0.18235735306E+02  0.14766938772E+04  0.14768597487E+04  0.10000000000E+02 0. -1.
</event>
<event>
 5    1  0.1535793E-008  0.3861225E+03  0.7957747E-01  0.3424926E+00
         13   -1    0    0    0    0  0.00000000000E+00  0.00000000000E+00  0.14999999963E+04  0.15000000000E+04  0.10566000000E+00 0.  1.
        994   -1    0    0    0    0 -0.00000000000E+00 -0.00000000000E+00  0.11368683772E-12  0.17120000000E+03  0.17120000000E+03 0.  0.
         13    1    1    2    0    0  0.10755536234E+02 -0.60811375494E+01  0.72970373474E+02  0.74009109997E+02  0.10566000000E+00 0.  1.
        994    1    1    2    0    0 -0.72070437614E+01  0.76269035634E+00  0.12459940657E+01  0.17135785852E+03  0.17120000000E+03 0.  0.
        998    1    1    2    0    0 -0.35484924729E+01  0.53184471930E+01  0.14257836287E+04  0.14258330315E+04  0.10000000000E+02 0.  1.
</event>
<event>
 5    1  0.1535793E-008  0.3300812E+03  0.7957747E-01  0.3702210E+00
         13   -1    0    0    0    0  0.00000000000E+00  0.00000000000E+00  0.14999999963E+04  0.15000000000E+04  0.10566000000E+00 0.  1.
        994   -1    0    0    0    0 -0.00000000000E+00 -0.00000000000E+00  0.11368683772E-12  0.17120000000E+03  0.17120000000E+03 0.  0.
         13    1    1    2    0    0  0.58894607167E+02 -0.23459770672E+03  0.83935264689E+03  0.87350874967E+03  0.10566000000E+00 0.  1.
        994    1    1    2    0    0 -0.30290353437E+02  0.19929173270E+03  0.19218436942E+03  0.32692349577E+03  0.17120000000E+03 0.  0.
        998    1    1    2    0    0 -0.28604253731E+02  0.35305974015E+02  0.46846297997E+03  0.47076775456E+03  0.10000000000E+02 0. -1.
</event>
<event>
 5    1  0.1535793E-008  0.3716135E+03  0.7957747E-01  0.3488508E+00
         13   -1    0    0    0    0  0.00000000000E+00  0.00000000000E+00  0.14999999963E+04  0.15000000000E+04  0.10566000000E+00 0.  1.
        994   -1    0    0    0    0 -0.00000000000E+00 -0.00000000000E+00  0.11368683772E-12  0.17120000000E+03  0.17120000000E+03 0.  0.
         13    1    1    2    0    0 -0.12568400015E+03  0.72668920184E+02  0.70998572894E+03  0.72467716007E+03  0.10566000000E+00 0.  1.
        994    1    1    2    0    0  0.11340860651E+03 -0.72029509788E+02  0.73301865402E+02  0.22963528863E+03  0.17120000000E+03 0.  0.
        998    1    1    2    0    0  0.12275393642E+02 -0.63941039554E+00  0.71671240193E+03  0.71688755131E+03  0.10000000000E+02 0. -1.
</event>
<event>
 5    1  0.1535793E-008  0.3838586E+03  0.7957747E-01  0.3434527E+00
         13   -1    0    0    0    0  0.00000000000E+00  0.00000000000E+00  0.14999999963E+04  0.15000000000E+04  0.10566000000E+00 0.  1.
        994   -1    0    0    0    0 -0.00000000000E+00 -0.00000000000E+00  0.11368683772E-12  0.17120000000E+03  0.17120000000E+03 0.  0.
         13    1    1    2    0    0 -0.82240930370E+01  0.15752868115E+02  0.72108211039E+02  0.74265697488E+02  0.10566000000E+00 0.  1.
        994    1    1    2    0    0  0.77007058318E+01 -0.69207076760E+01  0.25517928961E+01  0.17153177173E+03  0.17120000000E+03 0.  0.
        998    1    1    2    0    0  0.52338720519E+00 -0.88321604387E+01  0.14253399923E+04  0.14254025308E+04  0.10000000000E+02 0.  1.
</event>
<event>
 5    1  0.1535793E-008  0.3743050E+03  0.7957747E-01  0.3476337E+00
         13   -1    0    0    0    0  0.00000000000E+00  0.00000000000E+00  0.14999999963E+04  0.15000000000E+04  0.10566000000E+00 0. -1.
        994   -1    0    0    0    0 -0.00000000000E+00 -0.00000000000E+00  0.11368683772E-12  0.17120000000E+03  0.17120000000E+03 0.  0.
         13    1    1    2    0    0 -0.94729216147E+01  0.11812104344E+02  0.13008968577E+02  0.19962627092E+02  0.10566000000E+00 0. -1.
        994    1    1    2    0    0 -0.22903089868E+00 -0.21261613403E+02  0.85779930054E+01  0.17272848816E+03  0.17120000000E+03 0.  0.
        998    1    1    2    0    0  0.97019525134E+01  0.94495090591E+01  0.14784130347E+04  0.14785088847E+04  0.10000000000E+02 0. -1.
</event>
<event>
 5    1  0.1535793E-008  0.3719642E+03  0.7957747E-01  0.3486912E+00
         13   -1    0    0    0    0  0.00000000000E+00  0.00000000000E+00  0.14999999963E+04  0.15000000000E+04  0.10566000000E+00 0. -1.
        994   -1    0    0    0    0 -0.00000000000E+00 -0.00000000000E+00  0.11368683772E-12  0.17120000000E+03  0.17120000000E+03 0.  0.
         13    1    1    2    0    0 -0.42921532106E+02  0.31163416117E+02  0.18296420560E+03  0.19049758034E+03  0.10566000000E+00 0. -1.
        994    1    1    2    0    0  0.26882702213E+02  0.10769881905E+02  0.11131729415E+02  0.17398857846E+03  0.17120000000E+03 0.  0.
        998    1    1    2    0    0  0.16038829893E+02 -0.41933298022E+02  0.13059040613E+04  0.13067138412E+04  0.10000000000E+02 0. -1.
</event>
<event>
 5    1  0.1535793E-008  0.3844537E+03  0.7957747E-01  0.3431992E+00
         13   -1    0    0    0    0  0.00000000000E+00  0.00000000000E+00  0.14999999963E+04  0.15000000000E+04  0.10566000000E+00 0.  1.
        994   -1    0    0    0    0 -0.00000000000E+00 -0.00000000000E+00  0.11368683772E-12  0.17120000000E+03  0.17120000000E+03 0.  0.
         13    1    1    2    0    0 -0.65529955432E+01  0.21715472167E+02  0.13075992217E+03  0.13271274201E+03  0.10566000000E+00 0.  1.
        994    1    1    2    0    0  0.56974907863E+01 -0.16879982258E+02  0.29479539791E+01  0.17214971866E+03  0.17120000000E+03 0.  0.
        998    1    1    2    0    0  0.85550475692E+00 -0.48354899090E+01  0.13662921201E+04  0.13663375393E+04  0.10000000000E+02 0.  0.
</event>
<event>
 5    1  0.1535793E-008  0.3835748E+03  0.7957747E-01  0.3435739E+00
         13   -1    0    0    0    0  0.00000000000E+00  0.00000000000E+00  0.14999999963E+04  0.15000000000E+04  0.10566000000E+00 0. -1.
        994   -1    0    0    0    0 -0.00000000000E+00 -0.00000000000E+00  0.11368683772E-12  0.17120000000E+03  0.17120000000E+03 0.  0.
         13    1    1    2    0    0 -0.22371216177E+02  0.90024095227E+01  0.12193298373E+03  0.12429472384E+03  0.10566000000E+00 0. -1.
        994    1    1    2    0    0  0.16027369404E+02 -0.49530787639E+01  0.32696861447E+01  0.17205098200E+03  0.17120000000E+03 0.  0.
        998    1    1    2    0    0  0.63438467729E+01 -0.40493307587E+01  0.13747973264E+04  0.13748542942E+04  0.10000000000E+02 0. -1.
</event>
<event>
 5    1  0.1535793E-008  0.3849813E+03  0.7957747E-01  0.3429751E+00
         13   -1    0    0    0    0  0.00000000000E+00  0.00000000000E+00  0.14999999963E+04  0.15000000000E+04  0.10566000000E+00 0. -1.
        994   -1    0    0    0    0 -0.00000000000E+00 -0.00000000000E+00  0.11368683772E-12  0.17120000000E+03  0.17120000000E+03 0.  0.
         13    1    1    2    0    0  0.72078532239E+01  0.72399920075E+01  0.31379507417E+02  0.33000837598E+02  0.10566000000E+00 0. -1.
        994    1    1    2    0    0 -0.78292301051E+01 -0.43094400697E+01  0.19021281509E+01  0.17144365316E+03  0.17120000000E+03 0.  0.
        998    1    1    2    0    0  0.62137688127E+00 -0.29305519378E+01  0.14667183607E+04  0.14667555092E+04  0.10000000000E+02 0. -1.
</event>
<event>
 5    1  0.1535793E-008  0.3816790E+03  0.7957747E-01  0.3443880E+00
         13   -1    0    0    0    0  0.00000000000E+00  0.00000000000E+00  0.14999999963E+04  0.15000000000E+04  0.10566000000E+00 0.  1.
        994   -1    0    0    0    0 -0.00000000000E+00 -0.00000000000E+00  0.11368683772E-12  0.17120000000E+03  0.17120000000E+03 0.  0.
         13    1    1    2    0    0  0.26418585125E+02  0.47531575593E+01  0.99506323811E+02  0.10306334843E+03  0.10566000000E+00 0.  1.
        994    1    1    2    0    0 -0.30718305749E+02 -0.89494110221E+01  0.66987553883E+01  0.17429291319E+03  0.17120000000E+03 0.  0.
        998    1    1    2    0    0  0.42997206247E+01  0.41962534628E+01  0.13937949171E+04  0.13938437384E+04  0.10000000000E+02 0.  1.
</event>
<event>
 5    1  0.1535793E-008  0.3858789E+03  0.7957747E-01  0.3425953E+00
         13   -1    0    0    0    0  0.00000000000E+00  0.00000000000E+00  0.14999999963E+04  0.15000000000E+04  0.10566000000E+00 0. -1.
        994   -1    0    0    0    0 -0.00000000000E+00 -0.00000000000E+00  0.11368683772E-12  0.17120000000E+03  0.17120000000E+03 0.  0.
         13    1    1    2    0    0 -0.64299353057E-02  0.14878773747E+02  0.88218738628E+02  0.89464713483E+02  0.10566000000E+00 0. -1.
        994    1    1    2    0    0 -0.11459325075E+01 -0.16565224426E+02  0.20990990069E+01  0.17201617958E+03  0.17120000000E+03 0.  0.
        998    1    1    2    0    0  0.11523624428E+01  0.16864506784E+01  0.14096821586E+04  0.14097191069E+04  0.10000000000E+02 0. -1.
</event>
<event>
 5    1  0.1535793E-008  0.3822829E+03  0.7957747E-01  0.3441278E+00
         13   -1    0    0    0    0  0.00000000000E+00  0.00000000000E+00  0.14999999963E+04  0.15000000000E+04  0.10566000000E+00 0. -1.
        994   -1    0    0    0    0 -0.00000000000E+00 -0.00000000000E+00  0.11368683772E-12  0.17120000000E+03  0.17120000000E+03 0.  0.
         13    1    1    2    0    0 -0.49693393191E+01 -0.24636958089E+02  0.10131757883E+03  0.10438839486E+03  0.10566000000E+00 0. -1.
        994    1    1    2    0    0 -0.26536908828E+01  0.22224905054E+02  0.46491581572E+01  0.17271955058E+03  0.17120000000E+03 0.  0.
        998    1    1    2    0    0  0.76230302020E+01  0.24120530347E+01  0.13940332593E+04  0.13940920546E+04  0.10000000000E+02 0. -1.
</event>
<event>
 5    1  0.1535793E-008  0.3824674E+03  0.7957747E-01  0.3440485E+00
         13   -1    0    0    0    0  0.00000000000E+00  0.00000000000E+00  0.14999999963E+04  0.15000000000E+04  0.10566000000E+00 0. -1.
        994   -1    0    0    0    0 -0.00000000000E+00 -0.00000000000E+00  0.11368683772E-12  0.17120000000E+03  0.17120000000E+03 0.  0.
         13    1    1    2    0    0 -0.24769321886E+02  0.12516790350E+02  0.14435057682E+03  0.14699418199E+03  0.10566000000E+00 0. -1.
        994    1    1    2    0    0  0.52609852043E+01 -0.15034348976E+00  0.29846344519E+01  0.17130688431E+03  0.17120000000E+03 0.  0.
        998    1    1    2    0    0  0.19508336682E+02 -0.12366446860E+02  0.13526647850E+04  0.13528989337E+04  0.10000000000E+02 0. -1.
</event>
<event>
 5    1  0.1535793E-008  0.3826317E+03  0.7957747E-01  0.3439779E+00
         13   -1    0    0    0    0  0.00000000000E+00  0.00000000000E+00  0.14999999963E+04  0.15000000000E+04  0.10566000000E+00 0.  1.
        994   -1    0    0    0    0 -0.00000000000E+00 -0.00000000000E+00  0.11368683772E-12  0.17120000000E+03  0.17120000000E+03 0.  0.
         13    1    1    2    0    0  0.93751816567E+01  0.12889419198E+02  0.45484549613E+02  0.48196333635E+02  0.10566000000E+00 0.  1.
        994    1    1    2    0    0 -0.10920162860E+02  0.26633727301E+01  0.32293732885E+01  0.17159898707E+03  0.17120000000E+03 0.  0.
        998    1    1    2    0    0  0.15449812035E+01 -0.15552791928E+02  0.14512860734E+04  0.14514046793E+04  0.10000000000E+02 0.  1.
</event>
<event>
 5    1  0.1535793E-008  0.3705033E+03  0.7957747E-01  0.3493581E+00
         13   -1    0    0    0    0  0.00000000000E+00  0.00000000000E+00  0.14999999963E+04  0.15000000000E+04  0.10566000000E+00 0. -1.
        994   -1    0    0    0    0 -0.00000000000E+00 -0.00000000000E+00  0.11368683772E-12  0.17120000000E+03  0.17120000000E+03 0.  0.
         13    1    1    2    0    0 -0.53578288735E+02  0.15242791046E+02  0.14533428621E+03  0.15564395785E+03  0.10566000000E+00 0. -1.
        994    1    1    2    0    0  0.19307393100E+02  0.88703041330E+01  0.12787813522E+02  0.17298677955E+03  0.17120000000E+03 0.  0.
        998    1    1    2    0    0  0.34270895635E+02 -0.24113095179E+02  0.13418778965E+04  0.13425692626E+04  0.10000000000E+02 0. -1.
</event>
<event>
 5    1  0.1535793E-008  0.3832231E+03  0.7957747E-01  0.3437244E+00
         13   -1    0    0    0    0  0.00000000000E+00  0.00000000000E+00  0.14999999963E+04  0.15000000000E+04  0.10566000000E+00 0.  1.
        994   -1    0    0    0    0 -0.00000000000E+00 -0.00000000000E+00  0.11368683772E-12  0.17120000000E+03  0.17120000000E+03 0.  0.
         13    1    1    2    0    0  0.17725107358E+02 -0.28783662440E+01  0.61649126029E+02  0.64211294390E+02  0.10566000000E+00 0.  1.
        994    1    1    2    0    0 -0.15983904406E+02  0.93080166340E+01  0.36473987034E+01  0.17223492065E+03  0.17120000000E+03 0.  0.
        998    1    1    2    0    0 -0.17412029522E+01 -0.64296503900E+01  0.14347034715E+04  0.14347537850E+04  0.10000000000E+02 0.  1.
</event>
<event>
 5    1  0.1535793E-008  0.3861947E+03  0.7957747E-01  0.3424621E+00
         13   -1    0    0    0    0  0.00000000000E+00  0.00000000000E+00  0.14999999963E+04  0.15000000000E+04  0.10566000000E+00 0. -1.
        994   -1    0    0    0    0 -0.00000000000E+00 -0.00000000000E+00  0.11368683772E-12  0.17120000000E+03  0.17120000000E+03 0.  0.
         13    1    1    2    0    0  0.83022516990E+01  0.80692970927E+01  0.63025740529E+02  0.64080387577E+02  0.10566000000E+00 0. -1.
        994    1    1    2    0    0 -0.42569507933E+01 -0.14103766654E+02  0.17494760474E+01  0.17184160884E+03  0.17120000000E+03 0.  0.
        998    1    1    2    0    0 -0.40453009056E+01  0.60344695615E+01  0.14352247797E+04  0.14352780036E+04  0.10000000000E+02 0. -1.
</event>
<event>
 5    1  0.1535793E-008  0.3745468E+03  0.7957747E-01  0.3475252E+00
         13   -1    0    0    0    0  0.00000000000E+00  0.00000000000E+00  0.14999999963E+04  0.15000000000E+04  0.10566000000E+00 0.  1.
        994   -1    0    0    0    0 -0.00000000000E+00 -0.00000000000E+00  0.11368683772E-12  0.17120000000E+03  0.17120000000E+03 0.  0.
         13    1    1    2    0    0 -0.87515503211E+02  0.21132084752E+02  0.52279121614E+03  0.53048675303E+03  0.10566000000E+00 0.  1.
        994    1    1    2    0    0 -0.12033039727E+02 -0.10603894228E+02  0.14277850006E+02  0.17254139683E+03  0.17120000000E+03 0.  0.
        998    1    1    2    0    0  0.99548542937E+02 -0.10528190524E+02  0.96293093013E+03  0.96817185014E+03  0.10000000000E+02 0.  1.
</event>
<event>
 5    1  0.1535793E-008  0.3844504E+03  0.7957747E-01  0.3432007E+00
         13   -1    0    0    0    0  0.00000000000E+00  0.00000000000E+00  0.14999999963E+04  0.15000000000E+04  0.10566000000E+00 0.  1.
        994   -1    0    0    0    0 -0.00000000000E+00 -0.00000000000E+00  0.11368683772E-12  0.17120000000E+03  0.17120000000E+03 0.  0.
         13    1    1    2    0    0 -0.71602452913E+01  0.15462056589E+02  0.79100424341E+02  0.80914971430E+02  0.10566000000E+00 0.  1.
        994    1    1    2    0    0  0.26207074272E+01 -0.42717726273E+01  0.19860185007E+01  0.17128485169E+03  0.17120000000E+03 0.  0.
        998    1    1    2    0    0  0.45395378641E+01 -0.11190283962E+02  0.14189135534E+04  0.14190001769E+04  0.10000000000E+02 0.  1.
</event>
<event>
 5    1  0.1535793E-008  0.3750661E+03  0.7957747E-01  0.3472927E+00
         13   -1    0    0    0    0  0.00000000000E+00  0.00000000000E+00  0.14999999963E+04  0.15000000000E+04  0.10566000000E+00 0. -1.
        994   -1    0    0    0    0 -0.00000000000E+00 -0.00000000000E+00  0.11368683772E-12  0.17120000000E+03  0.17120000000E+03 0.  0.
         13    1    1    2    0    0 -0.74211101770E+02  0.73884503160E+02  0.25674229810E+03  0.27727752565E+03  0.10566000000E+00 0. -1.
        994    1    1    2    0    0  0.87742937033E+02 -0.11889357068E+03  0.96038914828E+02  0.24569781706E+03  0.17120000000E+03 0.  0.
        998    1    1    2    0    0 -0.13531835263E+02  0.45009067522E+02  0.11472187834E+04  0.11482246573E+04  0.10000000000E+02 0. -1.
</event>
<event>
 5    1  0.1535793E-008  0.3847468E+03  0.7957747E-01  0.3430747E+00
         13   -1    0    0    0    0  0.00000000000E+00  0.00000000000E+00  0.14999999963E+04  0.15000000000E+04  0.10566000000E+00 0. -1.
        994   -1    0    0    0    0 -0.00000000000E+00 -0.00000000000E+00  0.11368683772E-12  0.17120000000E+03  0.17120000000E+03 0.  0.
         13    1    1    2    0    0 -0.90420794009E+01  0.13731259084E+02  0.56390515512E+02  0.58738471887E+02  0.10566000000E+00 0. -1.
        994    1    1    2    0    0  0.40760768416E+02 -0.53788164630E+02  0.16893229839E+02  0.18479563878E+03  0.17120000000E+03 0.  0.
        998    1    1    2    0    0 -0.31718689015E+02  0.40056905546E+02  0.14267162509E+04  0.14276658893E+04  0.10000000000E+02 0. -1.
</event>
<event>
 5    1  0.1535793E-008  0.3768337E+03  0.7957747E-01  0.3465062E+00
         13   -1    0    0    0    0  0.00000000000E+00  0.00000000000E+00  0.14999999963E+04  0.15000000000E+04  0.10566000000E+00 0. -1.
        994   -1    0    0    0    0 -0.00000000000E+00 -0.00000000000E+00  0.11368683772E-12  0.17120000000E+03  0.17120000000E+03 0.  0.
         13    1    1    2    0    0 -0.63509414107E+02  0.46127607110E+02  0.36795079262E+03  0.37622998122E+03  0.10566000000E+00 0. -1.
        994    1    1    2    0    0  0.63380394427E+02 -0.62861244230E+02  0.33153011780E+02  0.19590092551E+03  0.17120000000E+03 0.  0.
        998    1    1    2    0    0  0.12901968016E+00  0.16733637120E+02  0.10988961919E+04  0.10990690933E+04  0.10000000000E+02 0. -1.
</event>
<event>
 5    1  0.1535793E-008  0.3856494E+03  0.7957747E-01  0.3426923E+00
         13   -1    0    0    0    0  0.00000000000E+00  0.00000000000E+00  0.14999999963E+04  0.15000000000E+04  0.10566000000E+00 0. -1.
        994   -1    0    0    0    0 -0.00000000000E+00 -0.00000000000E+00  0.11368683772E-12  0.17120000000E+03  0.17120000000E+03 0.  0.
         13    1    1    2    0    0  0.93308657781E+00 -0.99914061964E+01  0.36530312637E+02  0.37883687172E+02  0.10566000000E+00 0. -1.
        994    1    1    2    0    0  0.29272734476E+01  0.17951278048E+02  0.23944849429E+01  0.17218011172E+03  0.17120000000E+03 0.  0.
        998    1    1    2    0    0 -0.38603600254E+01 -0.79598718513E+01  0.14610751987E+04  0.14611362011E+04  0.10000000000E+02 0. -1.
</event>
<event>
 5    1  0.1535793E-008  0.3822632E+03  0.7957747E-01  0.3441363E+00
         13   -1    0    0    0    0  0.00000000000E+00  0.00000000000E+00  0.14999999963E+04  0.15000000000E+04  0.10566000000E+00 0. -1.
        994   -1    0    0    0    0 -0.00000000000E+00 -0.00000000000E+00  0.11368683772E-12  0.17120000000E+03  0.17120000000E+03 0.  0.
         13    1    1    2    0    0 -0.73535143554E+01  0.15871902970E+02  0.49929357308E+02  0.52905040993E+02  0.10566000000E+00 0. -1.
        994    1    1    2    0    0 -0.13385187510E+01 -0.14137794005E+02  0.36644593813E+01  0.17182705583E+03  0.17120000000E+03 0.  0.
        998    1    1    2    0    0  0.86920331064E+01 -0.17341089652E+01  0.14464061796E+04  0.14464679032E+04  0.10000000000E+02 0. -1.
</event>
<event>
 5    1  0.1535793E-008  0.3852150E+03  0.7957747E-01  0.3428761E+00
         13   -1    0    0    0    0  0.00000000000E+00  0.00000000000E+00  0.14999999963E+04  0.15000000000E+04  0.10566000000E+00 0. -1.
        994   -1    0    0    0    0 -0.00000000000E+00 -0.00000000000E+00  0.11368683772E-12  0.17120000000E+03  0.17120000000E+03 0.  0.
         13    1    1    2    0    0  0.10443033740E+02  0.46184071337E+00  0.37250296082E+02  0.38689352189E+02  0.10566000000E+00 0. -1.
        994    1    1    2    0    0  0.10139383148E+01 -0.42890005936E+01  0.15872724637E+01  0.17126407396E+03  0.17120000000E+03 0.  0.
        998    1    1    2    0    0 -0.11456972055E+02  0.38271598802E+01  0.14611624277E+04  0.14612465738E+04  0.10000000000E+02 0. -1.
</event>
<event>
 5    1  0.1535793E-008  0.3844920E+03  0.7957747E-01  0.3431830E+00
         13   -1    0    0    0    0  0.00000000000E+00  0.00000000000E+00  0.14999999963E+04  0.15000000000E+04  0.10566000000E+00 0. -1.
        994   -1    0    0    0    0 -0.00000000000E+00 -0.00000000000E+00  0.11368683772E-12  0.17120000000E+03  0.17120000000E+03 0.  0.
         13    1    1    2    0    0 -0.99782313151E+01 -0.87639053653E+00  0.25001178941E+02  0.26933311586E+02  0.10566000000E+00 0. -1.
        994    1    1    2    0    0  0.19702676143E+02 -0.79475061311E+01  0.33707968399E+01  0.17254611144E+03  0.17120000000E+03 0.  0.
        998    1    1    2    0    0 -0.97244448281E+01  0.88238966676E+01  0.14716280205E+04  0.14717205770E+04  0.10000000000E+02 0. -1.
</event>
<event>
 5    1  0.1535793E-008  0.3715967E+03  0.7957747E-01  0.3488585E+00
         13   -1    0    0    0    0  0.00000000000E+00  0.00000000000E+00  0.14999999963E+04  0.15000000000E+04  0.10566000000E+00 0. -1.
        994   -1    0    0    0    0 -0.00000000000E+00 -0.00000000000E+00  0.11368683772E-12  0.17120000000E+03  0.17120000000E+03 0.  0.
         13    1    1    2    0    0 -0.20981095722E+02  0.16663080809E+02  0.38152634518E+02  0.46620803558E+02  0.10566000000E+00 0. -1.
        994    1    1    2    0    0  0.20177387263E+02 -0.19385694076E+02  0.11133873021E+02  0.17382846493E+03  0.17120000000E+03 0.  0.
        998    1    1    2    0    0  0.80370845883E+00  0.27226132677E+01  0.14507134887E+04  0.14507507315E+04  0.10000000000E+02 0. -1.
</event>
<event>
 5    1  0.1535793E-008  0.3847613E+03  0.7957747E-01  0.3430685E+00
         13   -1    0    0    0    0  0.00000000000E+00  0.00000000000E+00  0.14999999963E+04  0.15000000000E+04  0.10566000000E+00 0.  1.
        994   -1    0    0    0    0 -0.00000000000E+00 -0.00000000000E+00  0.11368683772E-12  0.17120000000E+03  0.17120000000E+03 0.  0.
         13    1    1    2    0    0 -0.17382799907E+02  0.74301045187E+01  0.99054162052E+02  0.10084198714E+03  0.10566000000E+00 0.  1.
        994    1    1    2    0    0  0.14674307908E+02 -0.64749790003E+01  0.25958230847E+01  0.17196929657E+03  0.17120000000E+03 0.  0.
        998    1    1    2    0    0  0.27084919987E+01 -0.95512551834E+00  0.13983500111E+04  0.13983887163E+04  0.10000000000E+02 0.  1.
</event>
<event>
 5    1  0.1535793E-008  0.3762498E+03  0.7957747E-01  0.3467652E+00
         13   -1    0    0    0    0  0.00000000000E+00  0.00000000000E+00  0.14999999963E+04  0.15000000000E+04  0.10566000000E+00 0.  1.
        994   -1    0    0    0    0 -0.00000000000E+00 -0.00000000000E+00  0.11368683772E-12  0.17120000000E+03  0.17120000000E+03 0.  0.
         13    1    1    2    0    0  0.33911653854E+02 -0.16592223404E+02  0.10599721950E+03  0.11251988202E+03  0.10566000000E+00 0.  1.
        994    1    1    2    0    0 -0.34478272160E+02  0.26865000133E+02  0.12532666336E+02  0.17713550522E+03  0.17120000000E+03 0.  0.
        998    1    1    2    0    0  0.56661830527E+00 -0.10272776729E+02  0.13814701104E+04  0.13815446128E+04  0.10000000000E+02 0.  1.
</event>
<event>
 5    1  0.1535793E-008  0.3802470E+03  0.7957747E-01  0.3450084E+00
         13   -1    0    0    0    0  0.00000000000E+00  0.00000000000E+00  0.14999999963E+04  0.15000000000E+04  0.10566000000E+00 0. -1.
        994   -1    0    0    0    0 -0.00000000000E+00 -0.00000000000E+00  0.11368683772E-12  0.17120000000E+03  0.17120000000E+03 0.  0.
         13    1    1    2    0    0 -0.13404339721E+02 -0.10170161012E+02  0.33407495418E+02  0.37405620066E+02  0.10566000000E+00 0. -1.
        994    1    1    2    0    0  0.12403473625E+02  0.77276444680E+01  0.47221741143E+01  0.17188746777E+03  0.17120000000E+03 0.  0.
        998    1    1    2    0    0  0.10008660965E+01  0.24425165444E+01  0.14618703267E+04  0.14619069122E+04  0.10000000000E+02 0. -1.
</event>
<event>
 5    1  0.1535793E-008  0.3849488E+03  0.7957747E-01  0.3429889E+00
         13   -1    0    0    0    0  0.00000000000E+00  0.00000000000E+00  0.14999999963E+04  0.15000000000E+04  0.10566000000E+00 0.  1.
        994   -1    0    0    0    0 -0.00000000000E+00 -0.00000000000E+00  0.11368683772E-12  0.17120000000E+03  0.17120000000E+03 0.  0.
         13    1    1    2    0    0 -0.11756832033E+02  0.11262262127E+02  0.80719543367E+02  0.82345112138E+02  0.10566000000E+00 0.  1.
        994    1    1    2    0    0 -0.19122543436E+01 -0.15947447548E+02  0.25045672560E+01  0.17197002837E+03  0.17120000000E+03 0.  0.
        998    1    1    2    0    0  0.13669086377E+02  0.46851854209E+01  0.14167758857E+04  0.14168848595E+04  0.10000000000E+02 0.  1.
</event>
<event>
 5    1  0.1535793E-008  0.3840708E+03  0.7957747E-01  0.3433623E+00
         13   -1    0    0    0    0  0.00000000000E+00  0.00000000000E+00  0.14999999963E+04  0.15000000000E+04  0.10566000000E+00 0.  1.
        994   -1    0    0    0    0 -0.00000000000E+00 -0.00000000000E+00  0.11368683772E-12  0.17120000000E+03  0.17120000000E+03 0.  0.
         13    1    1    2    0    0  0.11384858109E+02  0.34037977875E+01  0.34922632840E+02  0.36889053689E+02  0.10566000000E+00 0.  1.
        994    1    1    2    0    0  0.73540847247E+01 -0.11801050171E+02  0.27302226545E+01  0.17178545184E+03  0.17120000000E+03 0.  0.
        998    1    1    2    0    0 -0.18738942833E+02  0.83972523833E+01  0.14623471408E+04  0.14625254945E+04  0.10000000000E+02 0.  1.
</event>
<event>
 5    1  0.1535793E-008  0.3852044E+03  0.7957747E-01  0.3428806E+00
         13   -1    0    0    0    0  0.00000000000E+00  0.00000000000E+00  0.14999999963E+04  0.15000000000E+04  0.10566000000E+00 0.  1.
        994   -1    0    0    0    0 -0.00000000000E+00 -0.00000000000E+00  0.11368683772E-12  0.17120000000E+03  0.17120000000E+03 0.  0.
         13    1    1    2    0    0 -0.10886586792E+02 -0.93184994271E+01  0.71289321550E+02  0.72715409197E+02  0.10566000000E+00 0.  1.
        994    1    1    2    0    0 -0.67783878493E+01  0.99393176728E+01  0.20045153661E+01  0.17163389718E+03  0.17120000000E+03 0.  0.
        998    1    1    2    0    0  0.17664974641E+02 -0.62081824572E+00  0.14267061594E+04  0.14268506936E+04  0.10000000000E+02 0.  1.
</event>
<event>
 5    1  0.1535793E-008  0.3769175E+03  0.7957747E-01  0.3464691E+00
         13   -1    0    0    0    0  0.00000000000E+00  0.00000000000E+00  0.14999999963E+04  0.15000000000E+04  0.10566000000E+00 0. -1.
        994   -1    0    0    0    0 -0.00000000000E+00 -0.00000000000E+00  0.11368683772E-12  0.17120000000E+03  0.17120000000E+03 0.  0.
         13    1    1    2    0    0  0.45726823530E+01  0.10987098759E+02  0.98272317786E+01  0.15434098986E+02  0.10566000000E+00 0. -1.
        994    1    1    2    0    0 -0.75925392051E+01 -0.82638332536E+01  0.61227570285E+01  0.17167663133E+03  0.17120000000E+03 0.  0.
        998    1    1    2    0    0  0.30198568522E+01 -0.27232655059E+01  0.14840500075E+04  0.14840892697E+04  0.10000000000E+02 0. -1.
</event>
<event>
 5    1  0.1535793E-008  0.3840566E+03  0.7957747E-01  0.3433683E+00
         13   -1    0    0    0    0  0.00000000000E+00  0.00000000000E+00  0.14999999963E+04  0.15000000000E+04  0.10566000000E+00 0. -1.
        994   -1    0    0    0    0 -0.00000000000E+00 -0.00000000000E+00  0.11368683772E-12  0.17120000000E+03  0.17120000000E+03 0.  0.
         13    1    1    2    0    0  0.90032256114E+02 -0.70332226252E+02  0.31789659559E+03  0.33780273214E+03  0.10566000000E+00 0. -1.
        994    1    1    2    0    0 -0.67271359961E+02  0.51642788094E+02  0.45538311975E+02  0.19640669869E+03  0.17120000000E+03 0.  0.
        998    1    1    2    0    0 -0.22760896153E+02  0.18689438158E+02  0.11365650887E+04  0.11369905692E+04  0.10000000000E+02 0. -1.
</event>
<event>
 5    1  0.1535793E-008  0.3811895E+03  0.7957747E-01  0.3445995E+00
         13   -1    0    0    0    0  0.00000000000E+00  0.00000000000E+00  0.14999999963E+04  0.15000000000E+04  0.10566000000E+00 0. -1.
        994   -1    0    0    0    0 -0.00000000000E+00 -0.00000000000E+00  0.11368683772E-12  0.17120000000E+03  0.17120000000E+03 0.  0.
         13    1    1    2    0    0  0.25486465131E+01 -0.16167155364E+02  0.36547879186E+02  0.40045363634E+02  0.10566000000E+00 0. -1.
        994    1    1    2    0    0  0.96709440378E+01  0.12940519345E+02  0.44033848138E+01  0.17201690032E+03  0.17120000000E+03 0.  0.
        998    1    1    2    0    0 -0.12219590551E+02  0.32266360182E+01  0.14590487323E+04  0.14591377360E+04  0.10000000000E+02 0. -1.
</event>
<event>
 5    1  0.1535793E-008  0.3794466E+03  0.7957747E-01  0.3453572E+00
         13   -1    0    0    0    0  0.00000000000E+00  0.00000000000E+00  0.14999999963E+04  0.15000000000E+04  0.10566000000E+00 0.  1.
        994   -1    0    0    0    0 -0.00000000000E+00 -0.00000000000E+00  0.11368683772E-12  0.17120000000E+03  0.17120000000E+03 0.  0.
         13    1    1    2    0    0  0.16302450246E+02 -0.59753210733E+01  0.31965388307E+02  0.36376799744E+02  0.10566000000E+00 0.  1.
        994    1    1    2    0    0 -0.17241468705E+02  0.39494553262E-01  0.54089371372E+01  0.17215099885E+03  0.17120000000E+03 0.  0.
        998    1    1    2    0    0  0.93901845896E+00  0.59358265201E+01  0.14626256708E+04  0.14626722014E+04  0.10000000000E+02 0.  1.
</event>
<event>
 5    1  0.1535793E-008  0.3776401E+03  0.7957747E-01  0.3461499E+00
         13   -1    0    0    0    0  0.00000000000E+00  0.00000000000E+00  0.14999999963E+04  0.15000000000E+04  0.10566000000E+00 0.  1.
        994   -1    0    0    0    0 -0.00000000000E+00 -0.00000000000E+00  0.11368683772E-12  0.17120000000E+03  0.17120000000E+03 0.  0.
         13    1    1    2    0    0 -0.23514973747E+02 -0.20844764344E+02  0.93776065261E+02  0.98901060514E+02  0.10566000000E+00 0.  1.
        994    1    1    2    0    0  0.13330210601E+02  0.30476863757E+01  0.59594135081E+01  0.17184858893E+03  0.17120000000E+03 0.  0.
        998    1    1    2    0    0  0.10184763145E+02  0.17797077969E+02  0.14002645175E+04  0.14004503506E+04  0.10000000000E+02 0.  1.
</event>
<event>
 5    1  0.1535793E-008  0.3818900E+03  0.7957747E-01  0.3442970E+00
         13   -1    0    0    0    0  0.00000000000E+00  0.00000000000E+00  0.14999999963E+04  0.15000000000E+04  0.10566000000E+00 0.  1.
        994   -1    0    0    0    0 -0.00000000000E+00 -0.00000000000E+00  0.11368683772E-12  0.17120000000E+03  0.17120000000E+03 0.  0.
         13    1    1    2    0    0 -0.14410010105E+02  0.16063800731E+02  0.72559468734E+02  0.75700606022E+02  0.10566000000E+00 0.  1.
        994    1    1    2    0    0  0.16157254029E+01 -0.15372713134E+02  0.39763016956E+01  0.17194237946E+03  0.17120000000E+03 0.  0.
        998    1    1    2    0    0  0.12794284702E+02 -0.69108759736E+00  0.14234642258E+04  0.14235570145E+04  0.10000000000E+02 0.  1.
</event>
<event>
 5    1  0.1535793E-008  0.3831221E+03  0.7957747E-01  0.3437676E+00
         13   -1    0    0    0    0  0.00000000000E+00  0.00000000000E+00  0.14999999963E+04  0.15000000000E+04  0.10566000000E+00 0.  1.
        994   -1    0    0    0    0 -0.00000000000E+00 -0.00000000000E+00  0.11368683772E-12  0.17120000000E+03  0.17120000000E+03 0.  0.
         13    1    1    2    0    0  0.27654473757E+02  0.17884505114E+02  0.16665238216E+03  0.16987540460E+03  0.10566000000E+00 0.  1.
        994    1    1    2    0    0 -0.41433044343E+02 -0.25667543321E+02  0.10465547959E+02  0.17831008844E+03  0.17120000000E+03 0.  0.
        998    1    1    2    0    0  0.13778570587E+02  0.77830382065E+01  0.13228820662E+04  0.13230145070E+04  0.10000000000E+02 0.  1.
</event>
<event>
 5    1  0.1535793E-008  0.3853966E+03  0.7957747E-01  0.3427992E+00
         13   -1    0    0    0    0  0.00000000000E+00  0.00000000000E+00  0.14999999963E+04  0.15000000000E+04  0.10566000000E+00 0. -1.
        994   -1    0    0    0    0 -0.00000000000E+00 -0.00000000000E+00  0.11368683772E-12  0.17120000000E+03  0.17120000000E+03 0.  0.
         13    1    1    2    0    0 -0.57527607086E+01 -0.12619369304E+02  0.69582875197E+02  0.70951606198E+02  0.10566000000E+00 0. -1.
        994    1    1    2    0    0  0.14420625632E+01  0.43200746232E+01  0.15014721011E+01  0.17126715099E+03  0.17120000000E+03 0.  0.
        998    1    1    2    0    0  0.43106981454E+01  0.82992946813E+01  0.14289156490E+04  0.14289812428E+04  0.10000000000E+02 0. -1.
</event>
<event>
 5    1  0.1535793E-008  0.3773100E+03  0.7957747E-01  0.3462955E+00
         13   -1    0    0    0    0  0.00000000000E+00  0.00000000000E+00  0.14999999963E+04  0.15000000000E+04  0.10566000000E+00 0. -1.
        994   -1    0    0    0    0 -0.00000000000E+00 -0.00000000000E+00  0.11368683772E-12  0.17120000000E+03  0.17120000000E+03 0.  0.
         13    1    1    2    0    0 -0.62154042476E+01  0.16457039784E+02  0.25351020647E+02  0.30856941202E+02  0.10566000000E+00 0. -1.
        994    1    1    2    0    0  0.71627941899E+01 -0.18203578543E+02  0.67890168798E+01  0.17244769248E+03  0.17120000000E+03 0.  0.
        998    1    1    2    0    0 -0.94738994232E+00  0.17465387581E+01  0.14678599588E+04  0.14678953663E+04  0.10000000000E+02 0. -1.
</event>
<event>
 5    1  0.1535793E-008  0.3802804E+03  0.7957747E-01  0.3449938E+00
         13   -1    0    0    0    0  0.00000000000E+00  0.00000000000E+00  0.14999999963E+04  0.15000000000E+04  0.10566000000E+00 0.  1.
        994   -1    0    0    0    0 -0.00000000000E+00 -0.00000000000E+00  0.11368683772E-12  0.17120000000E+03  0.17120000000E+03 0.  0.
         13    1    1    2    0    0  0.21036475751E+02 -0.12057152101E+02  0.75934453838E+02  0.79711734848E+02  0.10566000000E+00 0.  1.
        994    1    1    2    0    0 -0.70915260412E+01 -0.35402809808E+01  0.42015021980E+01  0.17143487379E+03  0.17120000000E+03 0.  0.
        998    1    1    2    0    0 -0.13944949709E+02  0.15597433082E+02  0.14198640402E+04  0.14200533914E+04  0.10000000000E+02 0.  1.
</event>
<event>
 5    1  0.1535793E-008  0.3835522E+03  0.7957747E-01  0.3435836E+00
         13   -1    0    0    0    0  0.00000000000E+00  0.00000000000E+00  0.14999999963E+04  0.15000000000E+04  0.10566000000E+00 0.  1.
        994   -1    0    0    0    0 -0.00000000000E+00 -0.00000000000E+00  0.11368683772E-12  0.17120000000E+03  0.17120000000E+03 0.  0.
         13    1    1    2    0    0 -0.15812486593E+02 -0.20975647192E+01  0.54170903501E+02  0.56470633609E+02  0.10566000000E+00 0.  1.
        994    1    1    2    0    0  0.70359739690E+01  0.81302896362E+01  0.27327397123E+01  0.17155906973E+03  0.17120000000E+03 0.  0.
        998    1    1    2    0    0  0.87765126242E+01 -0.60327249170E+01  0.14430963531E+04  0.14431702967E+04  0.10000000000E+02 0.  1.
</event>
<event>
 5    1  0.1535793E-008  0.3814633E+03  0.7957747E-01  0.3444812E+00
         13   -1    0    0    0    0  0.00000000000E+00  0.00000000000E+00  0.14999999963E+04  0.15000000000E+04  0.10566000000E+00 0. -1.
        994   -1    0    0    0    0 -0.00000000000E+00 -0.00000000000E+00  0.11368683772E-12  0.17120000000E+03  0.17120000000E+03 0.  0.
         13    1    1    2    0    0  0.35989545954E+01 -0.12993330954E+02  0.25202145423E+02  0.28582134654E+02  0.10566000000E+00 0. -1.
        994    1    1    2    0    0  0.23077936413E+01  0.13427700317E+02  0.40140946873E+01  0.17178818936E+03  0.17120000000E+03 0.  0.
        998    1    1    2    0    0 -0.59067482367E+01 -0.43436936291E+00  0.14707837562E+04  0.14708296760E+04  0.10000000000E+02 0. -1.
</event>
<event>
 5    1  0.1535793E-008  0.3850354E+03  0.7957747E-01  0.3429522E+00
         13   -1    0    0    0    0  0.00000000000E+00  0.00000000000E+00  0.14999999963E+04  0.15000000000E+04  0.10566000000E+00 0. -1.
        994   -1    0    0    0    0 -0.00000000000E+00 -0.00000000000E+00  0.11368683772E-12  0.17120000000E+03  0.17120000000E+03 0.  0.
         13    1    1    2    0    0  0.78753847127E+01 -0.72808183339E+01  0.34956627855E+02  0.36565133598E+02  0.10566000000E+00 0. -1.
        994    1    1    2    0    0 -0.19376126656E+01  0.13566349490E+02  0.22303237310E+01  0.17176208698E+03  0.17120000000E+03 0.  0.
        998    1    1    2    0    0 -0.59377720471E+01 -0.62855311560E+01  0.14628130447E+04  0.14628727794E+04  0.10000000000E+02 0. -1.
</event>
<event>
 5    1  0.1535793E-008  0.3802723E+03  0.7957747E-01  0.3449974E+00
         13   -1    0    0    0    0  0.00000000000E+00  0.00000000000E+00  0.14999999963E+04  0.15000000000E+04  0.10566000000E+00 0.  1.
        994   -1    0    0    0    0 -0.00000000000E+00 -0.00000000000E+00  0.11368683772E-12  0.17120000000E+03  0.17120000000E+03 0.  0.
         13    1    1    2    0    0 -0.41174098222E+02  0.28896381196E+02  0.26567352229E+03  0.27039367378E+03  0.10566000000E+00 0.  1.
        994    1    1    2    0    0  0.23825912467E+02 -0.53583575243E+02  0.15567957551E+02  0.18163335306E+03  0.17120000000E+03 0.  0.
        998    1    1    2    0    0  0.17348185754E+02  0.24687194047E+02  0.12187585164E+04  0.12191729732E+04  0.10000000000E+02 0.  1.
</event>
<event>
 5    1  0.1535793E-008  0.3139752E+03  0.7957747E-01  0.3801038E+00
         13   -1    0    0    0    0  0.00000000000E+00  0.00000000000E+00  0.14999999963E+04  0.15000000000E+04  0.10566000000E+00 0.  1.
        994   -1    0    0    0    0 -0.00000000000E+00 -0.00000000000E+00  0.11368683772E-12  0.17120000000E+03  0.17120000000E+03 0.  0.
         13    1    1    2    0    0  0.20786844924E+02  0.18250486562E+03  0.78530979333E+03  0.80650579760E+03  0.10566000000E+00 0.  1.
        994    1    1    2    0    0 -0.16637724008E+02 -0.15773458963E+03  0.10757977901E+03  0.25698222405E+03  0.17120000000E+03 0.  0.
        998    1    1    2    0    0 -0.41491209151E+01 -0.24770275989E+02  0.60711042394E+03  0.60771197835E+03  0.10000000000E+02 0. -1.
</event>
<event>
 5    1  0.1535793E-008  0.3847788E+03  0.7957747E-01  0.3430611E+00
         13   -1    0    0    0    0  0.00000000000E+00  0.00000000000E+00  0.14999999963E+04  0.15000000000E+04  0.10566000000E+00 0.  1.
        994   -1    0    0    0    0 -0.00000000000E+00 -0.00000000000E+00  0.11368683772E-12  0.17120000000E+03  0.17120000000E+03 0.  0.
         13    1    1    2    0    0 -0.70354774509E+01 -0.81235092796E+01  0.31942880742E+02  0.33702346211E+02  0.10566000000E+00 0.  1.
        994    1    1    2    0    0  0.60019174278E+01  0.13319658835E+02  0.24427379942E+01  0.17183958593E+03  0.17120000000E+03 0.  0.
        998    1    1    2    0    0  0.10335600231E+01 -0.51961495558E+01  0.14656143775E+04  0.14656580679E+04  0.10000000000E+02 0.  1.
</event>
<event>
 5    1  0.1535793E-008  0.3771129E+03  0.7957747E-01  0.3463827E+00
         13   -1    0    0    0    0  0.00000000000E+00  0.00000000000E+00  0.14999999963E+04  0.15000000000E+04  0.10566000000E+00 0.  1.
        994   -1    0    0    0    0 -0.00000000000E+00 -0.00000000000E+00  0.11368683772E-12  0.17120000000E+03  0.17120000000E+03 0.  0.
         13    1    1    2    0    0  0.88625394618E+02  0.50735122834E+02  0.52831282834E+03  0.53809197078E+03  0.10566000000E+00 0.  1.
        994    1    1    2    0    0 -0.92680939348E+02 -0.61414895408E+02  0.48527478010E+02  0.20982350206E+03  0.17120000000E+03 0.  0.
        998    1    1    2    0    0  0.40555447306E+01  0.10679772574E+02  0.92315968993E+03  0.92328452716E+03  0.10000000000E+02 0.  1.
</event>
<event>
 5    1  0.1535793E-008  0.3802238E+03  0.7957747E-01  0.3450184E+00
         13   -1    0    0    0    0  0.00000000000E+00  0.00000000000E+00  0.14999999963E+04  0.15000000000E+04  0.10566000000E+00 0.  1.
        994   -1    0    0    0    0 -0.00000000000E+00 -0.00000000000E+00  0.11368683772E-12  0.17120000000E+03  0.17120000000E+03 0.  0.
         13    1    1    2    0    0  0.55449929851E+01  0.31119839487E+02  0.13458584761E+03  0.13824815694E+03  0.10566000000E+00 0.  1.
        994    1    1    2    0    0  0.72644680493E+01 -0.54541908186E+01  0.42959037257E+01  0.17149465147E+03  0.17120000000E+03 0.  0.
        998    1    1    2    0    0 -0.12809461034E+02 -0.25665648669E+02  0.13611182449E+04  0.13614571916E+04  0.10000000000E+02 0.  1.
</event>
<event>
 5    1  0.1535793E-008  0.3840082E+03  0.7957747E-01  0.3433890E+00
         13   -1    0    0    0    0  0.00000000000E+00  0.00000000000E+00  0.14999999963E+04  0.15000000000E+04  0.10566000000E+00 0. -1.
        994   -1    0    0    0    0 -0.00000000000E+00 -0.00000000000E+00  0.11368683772E-12  0.17120000000E+03  0.17120000000E+03 0.  0.
         13    1    1    2    0    0  0.32360132610E+01  0.17989348431E+02  0.98877720089E+02  0.10055298669E+03  0.10566000000E+00 0. -1.
        994    1    1    2    0    0  0.14022993048E+01  0.20822426075E+02  0.35616395306E+01  0.17250410183E+03  0.17120000000E+03 0.  0.
        998    1    1    2    0    0 -0.46383125658E+01 -0.38811774506E+02  0.13975606367E+04  0.13981429115E+04  0.10000000000E+02 0. -1.
</event>
<event>
 5    1  0.1535793E-008  0.3856826E+03  0.7957747E-01  0.3426783E+00
         13   -1    0    0    0    0  0.00000000000E+00  0.00000000000E+00  0.14999999963E+04  0.15000000000E+04  0.10566000000E+00 0.  1.
        994   -1    0    0    0    0 -0.00000000000E+00 -0.00000000000E+00  0.11368683772E-12  0.17120000000E+03  0.17120000000E+03 0.  0.
         13    1    1    2    0    0 -0.65016554400E+01  0.87408120368E+01  0.50491271294E+02  0.51653198928E+02  0.10566000000E+00 0.  1.
        994    1    1    2    0    0 -0.10862580702E+02 -0.86624108254E-01  0.16789458442E+01  0.17155250515E+03  0.17120000000E+03 0.  0.
        998    1    1    2    0    0  0.17364236142E+02 -0.86541879286E+01  0.14478297791E+04  0.14479942959E+04  0.10000000000E+02 0.  1.
</event>
<event>
 5    1  0.1535793E-008  0.3846882E+03  0.7957747E-01  0.3430996E+00
         13   -1    0    0    0    0  0.00000000000E+00  0.00000000000E+00  0.14999999963E+04  0.15000000000E+04  0.10566000000E+00 0. -1.
        994   -1    0    0    0    0 -0.00000000000E+00 -0.00000000000E+00  0.11368683772E-12  0.17120000000E+03  0.17120000000E+03 0.  0.
         13    1    1    2    0    0 -0.12395402875E+02  0.31808561191E+01  0.49415197360E+02  0.51045438114E+02  0.10566000000E+00 0. -1.
        994    1    1    2    0    0 -0.58019788182E+01  0.20500882801E+01  0.19096764290E+01  0.17132119742E+03  0.17120000000E+03 0.  0.
        998    1    1    2    0    0  0.18197381693E+02 -0.52309443992E+01  0.14486751225E+04  0.14488333645E+04  0.10000000000E+02 0. -1.
</event>
<event>
 5    1  0.1535793E-008  0.3734211E+03  0.7957747E-01  0.3480314E+00
         13   -1    0    0    0    0  0.00000000000E+00  0.00000000000E+00  0.14999999963E+04  0.15000000000E+04  0.10566000000E+00 0.  1.
        994   -1    0    0    0    0 -0.00000000000E+00 -0.00000000000E+00  0.11368683772E-12  0.17120000000E+03  0.17120000000E+03 0.  0.
         13    1    1    2    0    0  0.83088630197E+00 -0.30608779601E+02  0.58647441193E+02  0.66159816227E+02  0.10566000000E+00 0.  1.
        994    1    1    2    0    0  0.19281597259E+01  0.25586737585E+02  0.97450519178E+01  0.17338628832E+03  0.17120000000E+03 0.  0.
        998    1    1    2    0    0 -0.27590460279E+01  0.50220420159E+01  0.14316075032E+04  0.14316538955E+04  0.10000000000E+02 0.  1.
</event>
<event>
 5    1  0.1535793E-008  0.3844786E+03  0.7957747E-01  0.3431886E+00
         13   -1    0    0    0    0  0.00000000000E+00  0.00000000000E+00  0.14999999963E+04  0.15000000000E+04  0.10566000000E+00 0.  1.
        994   -1    0    0    0    0 -0.00000000000E+00 -0.00000000000E+00  0.11368683772E-12  0.17120000000E+03  0.17120000000E+03 0.  0.
         13    1    1    2    0    0  0.46462658999E+01 -0.12505611080E+02  0.46562737543E+02  0.48436327140E+02  0.10566000000E+00 0.  1.
        994    1    1    2    0    0 -0.48676201092E+01  0.87828565622E+01  0.22214522211E+01  0.17150862120E+03  0.17120000000E+03 0.  0.
        998    1    1    2    0    0  0.22135420932E+00  0.37227545181E+01  0.14512158065E+04  0.14512550517E+04  0.10000000000E+02 0.  1.
</event>
<event>
 5    1  0.1535793E-008  0.3816521E+03  0.7957747E-01  0.3443996E+00
         13   -1    0    0    0    0  0.00000000000E+00  0.00000000000E+00  0.14999999963E+04  0.15000000000E+04  0.10566000000E+00 0.  1.
        994   -1    0    0    0    0 -0.00000000000E+00 -0.00000000000E+00  0.11368683772E-12  0.17120000000E+03  0.17120000000E+03 0.  0.
         13    1    1    2    0    0 -0.23029941371E+02  0.67516787464E+01  0.88490845018E+02  0.91687535584E+02  0.10566000000E+00 0.  1.
        994    1    1    2    0    0  0.35103169378E+01 -0.24778773086E+02  0.53865956558E+01  0.17310333715E+03  0.17120000000E+03 0.  0.
        998    1    1    2    0    0  0.19519624433E+02  0.18027094340E+02  0.14061225556E+04  0.14064091273E+04  0.10000000000E+02 0.  1.
</event>
<event>
 5    1  0.1535793E-008  0.3826230E+03  0.7957747E-01  0.3439816E+00
         13   -1    0    0    0    0  0.00000000000E+00  0.00000000000E+00  0.14999999963E+04  0.15000000000E+04  0.10566000000E+00 0.  1.
        994   -1    0    0    0    0 -0.00000000000E+00 -0.00000000000E+00  0.11368683772E-12  0.17120000000E+03  0.17120000000E+03 0.  0.
         13    1    1    2    0    0 -0.25657877104E+01 -0.23632068264E+02  0.91545000973E+02  0.94580950958E+02  0.10566000000E+00 0.  1.
        994    1    1    2    0    0 -0.16963303062E+01  0.29600269393E+02  0.57337049580E+01  0.17384294308E+03  0.17120000000E+03 0.  0.
        998    1    1    2    0    0  0.42621180166E+01 -0.59682011294E+01  0.14027212903E+04  0.14027761060E+04  0.10000000000E+02 0.  1.
</event>
<event>
 5    1  0.1535793E-008  0.3820827E+03  0.7957747E-01  0.3442140E+00
         13   -1    0    0    0    0  0.00000000000E+00  0.00000000000E+00  0.14999999963E+04  0.15000000000E+04  0.10566000000E+00 0. -1.
        994   -1    0    0    0    0 -0.00000000000E+00 -0.00000000000E+00  0.11368683772E-12  0.17120000000E+03  0.17120000000E+03 0.  0.
         13    1    1    2    0    0 -0.10323627619E+02 -0.22180888722E+02  0.98387112303E+02  0.10138345103E+03  0.10566000000E+00 0. -1.
        994    1    1    2    0    0  0.48972361208E+01  0.97311284023E+01  0.34795948981E+01  0.17158154144E+03  0.17120000000E+03 0.  0.
        998    1    1    2    0    0  0.54263914982E+01  0.12449760320E+02  0.13981332891E+04  0.13982350075E+04  0.10000000000E+02 0. -1.
</event>
<event>
 5    1  0.1535793E-008  0.3835592E+03  0.7957747E-01  0.3435806E+00
         13   -1    0    0    0    0  0.00000000000E+00  0.00000000000E+00  0.14999999963E+04  0.15000000000E+04  0.10566000000E+00 0. -1.
        994   -1    0    0    0    0 -0.00000000000E+00 -0.00000000000E+00  0.11368683772E-12  0.17120000000E+03  0.17120000000E+03 0.  0.
         13    1    1    2    0    0  0.11435147477E+02  0.10923645982E+02  0.52791610471E+02  0.55109472322E+02  0.10566000000E+00 0. -1.
        994    1    1    2    0    0 -0.53696109512E+01 -0.87604367678E+01  0.26960849063E+01  0.17152925945E+03  0.17120000000E+03 0.  0.
        998    1    1    2    0    0 -0.60655365256E+01 -0.21632092145E+01  0.14445123009E+04  0.14445612682E+04  0.10000000000E+02 0. -1.
</event>
<event>
 5    1  0.1535793E-008  0.3842798E+03  0.7957747E-01  0.3432732E+00
         13   -1    0    0    0    0  0.00000000000E+00  0.00000000000E+00  0.14999999963E+04  0.15000000000E+04  0.10566000000E+00 0. -1.
        994   -1    0    0    0    0 -0.00000000000E+00 -0.00000000000E+00  0.11368683772E-12  0.17120000000E+03  0.17120000000E+03 0.  0.
         13    1    1    2    0    0 -0.17592435866E+02  0.12600532050E+02  0.12292471813E+03  0.12481492178E+03  0.10566000000E+00 0. -1.
        994    1    1    2    0    0  0.47994106109E+01 -0.66128249288E+01  0.22082217651E+01  0.17140910139E+03  0.17120000000E+03 0.  0.
        998    1    1    2    0    0  0.12793025255E+02 -0.59877071216E+01  0.13748670564E+04  0.13749759768E+04  0.10000000000E+02 0. -1.
</event>
<event>
 5    1  0.1535793E-008  0.3876520E+03  0.7957747E-01  0.3418502E+00
         13   -1    0    0    0    0  0.00000000000E+00  0.00000000000E+00  0.14999999963E+04  0.15000000000E+04  0.10566000000E+00 0.  1.
        994   -1    0    0    0    0 -0.00000000000E+00 -0.00000000000E+00  0.11368683772E-12  0.17120000000E+03  0.17120000000E+03 0.  0.
         13    1    1    2    0    0  0.33695208194E+02 -0.36983672624E+02  0.56197559090E+02  0.75241849444E+02  0.10566000000E+00 0.  1.
        994    1    1    2    0    0 -0.27924658411E+02 -0.33709066189E+01  0.23550730386E+02  0.17508634002E+03  0.17120000000E+03 0.  0.
        998    1    1    2    0    0 -0.57705497832E+01  0.40354579243E+02  0.14202517068E+04  0.14208718105E+04  0.10000000000E+02 0.  1.
</event>
<event>
 5    1  0.1535793E-008  0.3784726E+03  0.7957747E-01  0.3457836E+00
         13   -1    0    0    0    0  0.00000000000E+00  0.00000000000E+00  0.14999999963E+04  0.15000000000E+04  0.10566000000E+00 0. -1.
        994   -1    0    0    0    0 -0.00000000000E+00 -0.00000000000E+00  0.11368683772E-12  0.17120000000E+03  0.17120000000E+03 0.  0.
         13    1    1    2    0    0  0.10814637539E+03  0.44318680189E+02  0.66552995803E+03  0.67571437762E+03  0.10566000000E+00 0. -1.
        994    1    1    2    0    0 -0.32940803411E+02  0.51715963235E+01  0.19507527447E+02  0.17550448873E+03  0.17120000000E+03 0.  0.
        998    1    1    2    0    0 -0.75205571978E+02 -0.49490276513E+02  0.81496251080E+03  0.81998113364E+03  0.10000000000E+02 0. -1.
</event>
<event>
 5    1  0.1535793E-008  0.3851205E+03  0.7957747E-01  0.3429161E+00
         13   -1    0    0    0    0  0.00000000000E+00  0.00000000000E+00  0.14999999963E+04  0.15000000000E+04  0.10566000000E+00 0. -1.
        994   -1    0    0    0    0 -0.00000000000E+00 -0.00000000000E+00  0.11368683772E-12  0.17120000000E+03  0.17120000000E+03 0.  0.
         13    1    1    2    0    0 -0.92646885960E+01 -0.15811757799E+02  0.10744124067E+03  0.10899301583E+03  0.10566000000E+00 0. -1.
        994    1    1    2    0    0  0.16057827984E+02  0.39212753719E+01  0.24690444052E+01  0.17201385532E+03  0.17120000000E+03 0.  0.
        998    1    1    2    0    0 -0.67931393877E+01  0.11890482428E+02  0.13900897112E+04  0.13901931289E+04  0.10000000000E+02 0. -1.
</event>
<event>
 5    1  0.1535793E-008  0.3795554E+03  0.7957747E-01  0.3453097E+00
         13   -1    0    0    0    0  0.00000000000E+00  0.00000000000E+00  0.14999999963E+04  0.15000000000E+04  0.10566000000E+00 0.  1.
        994   -1    0    0    0    0 -0.00000000000E+00 -0.00000000000E+00  0.11368683772E-12  0.17120000000E+03  0.17120000000E+03 0.  0.
         13    1    1    2    0    0  0.11057181139E+02 -0.15286966075E+01  0.12006580914E+02  0.16394124476E+02  0.10566000000E+00 0.  1.
        994    1    1    2    0    0 -0.21831120559E+02 -0.46585116566E+01  0.60277276078E+01  0.17275437203E+03  0.17120000000E+03 0.  0.
        998    1    1    2    0    0  0.10773939419E+02  0.61872082641E+01  0.14819656878E+04  0.14820515035E+04  0.10000000000E+02 0.  1.
</event>
<event>
 5    1  0.1535793E-008  0.3766206E+03  0.7957747E-01  0.3466007E+00
         13   -1    0    0    0    0  0.00000000000E+00  0.00000000000E+00  0.14999999963E+04  0.15000000000E+04  0.10566000000E+00 0.  1.
        994   -1    0    0    0    0 -0.00000000000E+00 -0.00000000000E+00  0.11368683772E-12  0.17120000000E+03  0.17120000000E+03 0.  0.
         13    1    1    2    0    0 -0.16123678234E+02 -0.58736890819E+00  0.19799657426E+02  0.25541252910E+02  0.10566000000E+00 0.  1.
        994    1    1    2    0    0  0.10545646199E+02 -0.36242477549E+01  0.62693728229E+01  0.17167728697E+03  0.17120000000E+03 0.  0.
        998    1    1    2    0    0  0.55780320343E+01  0.42116166631E+01  0.14739309660E+04  0.14739814601E+04  0.10000000000E+02 0.  1.
</event>
<event>
 5    1  0.1535793E-008  0.3760088E+03  0.7957747E-01  0.3468723E+00
         13   -1    0    0    0    0  0.00000000000E+00  0.00000000000E+00  0.14999999963E+04  0.15000000000E+04  0.10566000000E+00 0. -1.
        994   -1    0    0    0    0 -0.00000000000E+00 -0.00000000000E+00  0.11368683772E-12  0.17120000000E+03  0.17120000000E+03 0.  0.
         13    1    1    2    0    0  0.17916031032E+02  0.14011013880E+02  0.12089788637E+02  0.25757849895E+02  0.10566000000E+00 0. -1.
        994    1    1    2    0    0 -0.14548518208E+02 -0.12874042082E+02  0.15500862821E+02  0.17299455798E+03  0.17120000000E+03 0.  0.
        998    1    1    2    0    0 -0.33675128247E+01 -0.11369717985E+01  0.14724093448E+04  0.14724475921E+04  0.10000000000E+02 0. -1.
</event>
<event>
 5    1  0.1535793E-008  0.3824834E+03  0.7957747E-01  0.3440416E+00
         13   -1    0    0    0    0  0.00000000000E+00  0.00000000000E+00  0.14999999963E+04  0.15000000000E+04  0.10566000000E+00 0. -1.
        994   -1    0    0    0    0 -0.00000000000E+00 -0.00000000000E+00  0.11368683772E-12  0.17120000000E+03  0.17120000000E+03 0.  0.
         13    1    1    2    0    0 -0.39773324467E+02 -0.96862934901E+01  0.22950216081E+03  0.23312441872E+03  0.10566000000E+00 0. -1.
        994    1    1    2    0    0  0.46880642074E+02  0.15912135760E+02  0.11054478025E+02  0.17855708373E+03  0.17120000000E+03 0.  0.
        998    1    1    2    0    0 -0.71073176073E+01 -0.62258422697E+01  0.12594433574E+04  0.12595184976E+04  0.10000000000E+02 0. -1.
</event>
<event>
 5    1  0.1535793E-008  0.3841161E+03  0.7957747E-01  0.3433430E+00
         13   -1    0    0    0    0  0.00000000000E+00  0.00000000000E+00  0.14999999963E+04  0.15000000000E+04  0.10566000000E+00 0. -1.
        994   -1    0    0    0    0 -0.00000000000E+00 -0.00000000000E+00  0.11368683772E-12  0.17120000000E+03  0.17120000000E+03 0.  0.
         13    1    1    2    0    0 -0.76046598165E+01  0.71665087962E+01  0.25905358320E+02  0.27933643747E+02  0.10566000000E+00 0. -1.
        994    1    1    2    0    0  0.52230080091E+01 -0.31409388470E+01  0.21921587189E+01  0.17132247625E+03  0.17120000000E+03 0.  0.
        998    1    1    2    0    0  0.23816518074E+01 -0.40255699492E+01  0.14719024792E+04  0.14719438800E+04  0.10000000000E+02 0. -1.
</event>
<event>
 5    1  0.1535793E-008  0.3863847E+03  0.7957747E-01  0.3423821E+00
         13   -1    0    0    0    0  0.00000000000E+00  0.00000000000E+00  0.14999999963E+04  0.15000000000E+04  0.10566000000E+00 0.  1.
        994   -1    0    0    0    0 -0.00000000000E+00 -0.00000000000E+00  0.11368683772E-12  0.17120000000E+03  0.17120000000E+03 0.  0.
         13    1    1    2    0    0  0.10034767018E+02 -0.44705291664E+01  0.65437028536E+02  0.66352829991E+02  0.10566000000E+00 0.  1.
        994    1    1    2    0    0  0.27991171650E+01  0.25536989864E+02  0.31079096398E+01  0.17314465632E+03  0.17120000000E+03 0.  0.
        998    1    1    2    0    0 -0.12833884183E+02 -0.21066460697E+02  0.14314550581E+04  0.14317025137E+04  0.10000000000E+02 0.  1.
</event>
<event>
 5    1  0.1535793E-008  0.3818281E+03  0.7957747E-01  0.3443237E+00
         13   -1    0    0    0    0  0.00000000000E+00  0.00000000000E+00  0.14999999963E+04  0.15000000000E+04  0.10566000000E+00 0. -1.
        994   -1    0    0    0    0 -0.00000000000E+00 -0.00000000000E+00  0.11368683772E-12  0.17120000000E+03  0.17120000000E+03 0.  0.
         13    1    1    2    0    0 -0.67382123809E+01 -0.23964698941E+02  0.91610493039E+02  0.94932628218E+02  0.10566000000E+00 0. -1.
        994    1    1    2    0    0  0.14086784299E+02  0.19734824573E+02  0.51691028702E+01  0.17298572316E+03  0.17120000000E+03 0.  0.
        998    1    1    2    0    0 -0.73485719178E+01  0.42298743677E+01  0.14032204004E+04  0.14032816486E+04  0.10000000000E+02 0. -1.
</event>
<event>
 5    1  0.1535793E-008  0.3861668E+03  0.7957747E-01  0.3424739E+00
         13   -1    0    0    0    0  0.00000000000E+00  0.00000000000E+00  0.14999999963E+04  0.15000000000E+04  0.10566000000E+00 0.  1.
        994   -1    0    0    0    0 -0.00000000000E+00 -0.00000000000E+00  0.11368683772E-12  0.17120000000E+03  0.17120000000E+03 0.  0.
         13    1    1    2    0    0 -0.25681158019E+01 -0.11267449249E+02  0.66035143730E+02  0.67038809676E+02  0.10566000000E+00 0.  1.
        994    1    1    2    0    0  0.15071067271E+01  0.43287037973E+01  0.11207650734E+01  0.17126501441E+03  0.17120000000E+03 0.  0.
        998    1    1    2    0    0  0.10610090748E+01  0.69387454520E+01  0.14328440875E+04  0.14328961759E+04  0.10000000000E+02 0.  1.
</event>
<event>
 5    1  0.1535793E-008  0.3731683E+03  0.7957747E-01  0.3481456E+00
         13   -1    0    0    0    0  0.00000000000E+00  0.00000000000E+00  0.14999999963E+04  0.15000000000E+04  0.10566000000E+00 0. -1.
        994   -1    0    0    0    0 -0.00000000000E+00 -0.00000000000E+00  0.11368683772E-12  0.17120000000E+03  0.17120000000E+03 0.  0.
         13    1    1    2    0    0 -0.32868126753E+02  0.35880020715E+02  0.90440208086E+02  0.10269923099E+03  0.10566000000E+00 0. -1.
        994    1    1    2    0    0  0.33267886687E+02 -0.75976286611E+01  0.16751811347E+02  0.17536972210E+03  0.17120000000E+03 0.  0.
        998    1    1    2    0    0 -0.39975993414E+00 -0.28282392053E+02  0.13928079768E+04  0.13931310469E+04  0.10000000000E+02 0. -1.
</event>
<event>
 5    1  0.1535793E-008  0.3788958E+03  0.7957747E-01  0.3455981E+00
         13   -1    0    0    0    0  0.00000000000E+00  0.00000000000E+00  0.14999999963E+04  0.15000000000E+04  0.10566000000E+00 0.  1.
        994   -1    0    0    0    0 -0.00000000000E+00 -0.00000000000E+00  0.11368683772E-12  0.17120000000E+03  0.17120000000E+03 0.  0.
         13    1    1    2    0    0  0.30021758361E+02 -0.11774748702E+02  0.10491172273E+03  0.10975623632E+03  0.10566000000E+00 0.  1.
        994    1    1    2    0    0 -0.23157978986E+02  0.16483295588E+02  0.74072544656E+01  0.17370175141E+03  0.17120000000E+03 0.  0.
        998    1    1    2    0    0 -0.68637793743E+01 -0.47085468855E+01  0.13876810191E+04  0.13877420123E+04  0.10000000000E+02 0.  1.
</event>
<event>
 5    1  0.1535793E-008  0.3826361E+03  0.7957747E-01  0.3439760E+00
         13   -1    0    0    0    0  0.00000000000E+00  0.00000000000E+00  0.14999999963E+04  0.15000000000E+04  0.10566000000E+00 0. -1.
        994   -1    0    0    0    0 -0.00000000000E+00 -0.00000000000E+00  0.11368683772E-12  0.17120000000E+03  0.17120000000E+03 0.  0.
         13    1    1    2    0    0 -0.19285588388E+02  0.85058259125E+01  0.10632552285E+03  0.10839469990E+03  0.10566000000E+00 0. -1.
        994    1    1    2    0    0 -0.32605850232E+02  0.72701747969E+01  0.65156211080E+01  0.17455053775E+03  0.17120000000E+03 0.  0.
        998    1    1    2    0    0  0.51891438620E+02 -0.15776000709E+02  0.13871588523E+04  0.13882547623E+04  0.10000000000E+02 0. -1.
</event>
<event>
 5    1  0.1535793E-008  0.3748119E+03  0.7957747E-01  0.3474065E+00
         13   -1    0    0    0    0  0.00000000000E+00  0.00000000000E+00  0.14999999963E+04  0.15000000000E+04  0.10566000000E+00 0.  1.
        994   -1    0    0    0    0 -0.00000000000E+00 -0.00000000000E+00  0.11368683772E-12  0.17120000000E+03  0.17120000000E+03 0.  0.
         13    1    1    2    0    0  0.12310996417E+03 -0.43585587926E+02  0.67740382434E+03  0.68987804657E+03  0.10566000000E+00 0.  1.
        994    1    1    2    0    0 -0.12495869977E+03  0.30934488545E+02  0.65411984717E+02  0.22396380729E+03  0.17120000000E+03 0.  0.
        998    1    1    2    0    0  0.18487356048E+01  0.12651099381E+02  0.75718418722E+03  0.75735814614E+03  0.10000000000E+02 0.  1.
</event>
<event>
 5    1  0.1535793E-008  0.3684409E+03  0.7957747E-01  0.3503087E+00
         13   -1    0    0    0    0  0.00000000000E+00  0.00000000000E+00  0.14999999963E+04  0.15000000000E+04  0.10566000000E+00 0.  1.
        994   -1    0    0    0    0 -0.00000000000E+00 -0.00000000000E+00  0.11368683772E-12  0.17120000000E+03  0.17120000000E+03 0.  0.
         13    1    1    2    0    0  0.10756908153E+03  0.20476364088E+03  0.74327068870E+03  0.77842827786E+03  0.10566000000E+00 0.  1.
        994    1    1    2    0    0 -0.10798689634E+03 -0.21969484084E+03  0.26090164405E+03  0.39661833133E+03  0.17120000000E+03 0.  0.
        998    1    1    2    0    0  0.41781481429E+00  0.14931199959E+02  0.49582766352E+03  0.49615339081E+03  0.10000000000E+02 0.  1.
</event>
<event>
 5    1  0.1535793E-008  0.3763240E+03  0.7957747E-01  0.3467322E+00
         13   -1    0    0    0    0  0.00000000000E+00  0.00000000000E+00  0.14999999963E+04  0.15000000000E+04  0.10566000000E+00 0. -1.
        994   -1    0    0    0    0 -0.00000000000E+00 -0.00000000000E+00  0.11368683772E-12  0.17120000000E+03  0.17120000000E+03 0.  0.
         13    1    1    2    0    0 -0.34103350043E+02 -0.25702273302E+02  0.13559415259E+03  0.14215987732E+03  0.10566000000E+00 0. -1.
        994    1    1    2    0    0  0.34691446606E+02  0.28977950566E+02  0.12946288149E+02  0.17753947297E+03  0.17120000000E+03 0.  0.
        998    1    1    2    0    0 -0.58809656247E+00 -0.32756772638E+01  0.13514595555E+04  0.13515006497E+04  0.10000000000E+02 0.  0.
</event>
<event>
 5    1  0.1535793E-008  0.3913924E+03  0.7957747E-01  0.3403006E+00
         13   -1    0    0    0    0  0.00000000000E+00  0.00000000000E+00  0.14999999963E+04  0.15000000000E+04  0.10566000000E+00 0.  1.
        994   -1    0    0    0    0 -0.00000000000E+00 -0.00000000000E+00  0.11368683772E-12  0.17120000000E+03  0.17120000000E+03 0.  0.
         13    1    1    2    0    0 -0.68176476854E+02 -0.50917706023E+02  0.14744946534E+03  0.17024100792E+03  0.10566000000E+00 0.  1.
        994    1    1    2    0    0  0.47469921188E+02  0.47476868734E+02  0.39988829423E+02  0.18819137324E+03  0.17120000000E+03 0.  0.
        998    1    1    2    0    0  0.20706555666E+02  0.34408372887E+01  0.13125617015E+04  0.13127676188E+04  0.10000000000E+02 0.  1.
</event>
<event>
 5    1  0.1535793E-008  0.3812235E+03  0.7957747E-01  0.3445848E+00
         13   -1    0    0    0    0  0.00000000000E+00  0.00000000000E+00  0.14999999963E+04  0.15000000000E+04  0.10566000000E+00 0.  1.
        994   -1    0    0    0    0 -0.00000000000E+00 -0.00000000000E+00  0.11368683772E-12  0.17120000000E+03  0.17120000000E+03 0.  0.
         13    1    1    2    0    0  0.20994359715E+02 -0.25202948344E+02  0.14910771690E+03  0.15267309570E+03  0.10566000000E+00 0.  1.
        994    1    1    2    0    0 -0.16532624529E+02  0.14874586607E+02  0.51652219988E+01  0.17271566379E+03  0.17120000000E+03 0.  0.
        998    1    1    2    0    0 -0.44617351865E+01  0.10328361737E+02  0.13457270574E+04  0.13458112405E+04  0.10000000000E+02 0.  1.
</event>
<event>
 5    1  0.1535793E-008  0.3816254E+03  0.7957747E-01  0.3444112E+00
         13   -1    0    0    0    0  0.00000000000E+00  0.00000000000E+00  0.14999999963E+04  0.15000000000E+04  0.10566000000E+00 0. -1.
        994   -1    0    0    0    0 -0.00000000000E+00 -0.00000000000E+00  0.11368683772E-12  0.17120000000E+03  0.17120000000E+03 0.  0.
         13    1    1    2    0    0 -0.73834530418E+01  0.91957154122E+01  0.19296071560E+02  0.22614731978E+02  0.10566000000E+00 0. -1.
        994    1    1    2    0    0  0.12197781293E+02 -0.88817884975E+01  0.40722814965E+01  0.17191188299E+03  0.17120000000E+03 0.  0.
        998    1    1    2    0    0 -0.48143282508E+01 -0.31392691470E+00  0.14766316432E+04  0.14766733850E+04  0.10000000000E+02 0. -1.
</event>
<event>
 5    1  0.1535793E-008  0.3838123E+03  0.7957747E-01  0.3434725E+00
         13   -1    0    0    0    0  0.00000000000E+00  0.00000000000E+00  0.14999999963E+04  0.15000000000E+04  0.10566000000E+00 0.  1.
        994   -1    0    0    0    0 -0.00000000000E+00 -0.00000000000E+00  0.11368683772E-12  0.17120000000E+03  0.17120000000E+03 0.  0.
         13    1    1    2    0    0 -0.11343324629E+02  0.78989645236E+01  0.43139581763E+02  0.45300103012E+02  0.10566000000E+00 0.  1.
        994    1    1    2    0    0  0.62792188178E+01 -0.97259332539E+00  0.23542506904E+01  0.17133405097E+03  0.17120000000E+03 0.  0.
        998    1    1    2    0    0  0.50641058109E+01 -0.69263711982E+01  0.14545061638E+04  0.14545658460E+04  0.10000000000E+02 0.  1.
</event>
<event>
 5    1  0.1535793E-008  0.3789436E+03  0.7957747E-01  0.3455771E+00
         13   -1    0    0    0    0  0.00000000000E+00  0.00000000000E+00  0.14999999963E+04  0.15000000000E+04  0.10566000000E+00 0.  1.
        994   -1    0    0    0    0 -0.00000000000E+00 -0.00000000000E+00  0.11368683772E-12  0.17120000000E+03  0.17120000000E+03 0.  0.
         13    1    1    2    0    0 -0.52981868994E+02  0.29347059622E+02  0.12650136378E+03  0.14025310889E+03  0.10566000000E+00 0.  1.
        994    1    1    2    0    0 -0.72674244888E+01 -0.18388108713E+02  0.17160538465E+02  0.17319024823E+03  0.17120000000E+03 0.  0.
        998    1    1    2    0    0  0.60249293483E+02 -0.10958950909E+02  0.13563380940E+04  0.13577566429E+04  0.10000000000E+02 0.  1.
</event>
<event>
 5    1  0.1535793E-008  0.3812489E+03  0.7957747E-01  0.3445738E+00
         13   -1    0    0    0    0  0.00000000000E+00  0.00000000000E+00  0.14999999963E+04  0.15000000000E+04  0.10566000000E+00 0.  1.
        994   -1    0    0    0    0 -0.00000000000E+00 -0.00000000000E+00  0.11368683772E-12  0.17120000000E+03  0.17120000000E+03 0.  0.
         13    1    1    2    0    0 -0.22627804034E+02  0.27453542032E+02  0.17307421217E+03  0.17669297826E+03  0.10566000000E+00 0.  1.
        994    1    1    2    0    0  0.22255573265E+02 -0.15058280925E+02  0.59116121739E+01  0.17339679791E+03  0.17120000000E+03 0.  0.
        998    1    1    2    0    0  0.37223076974E+00 -0.12395261107E+02  0.13210141719E+04  0.13211102238E+04  0.10000000000E+02 0.  1.
</event>
<event>
 5    1  0.1535793E-008  0.3837397E+03  0.7957747E-01  0.3435035E+00
         13   -1    0    0    0    0  0.00000000000E+00  0.00000000000E+00  0.14999999963E+04  0.15000000000E+04  0.10566000000E+00 0. -1.
        994   -1    0    0    0    0 -0.00000000000E+00 -0.00000000000E+00  0.11368683772E-12  0.17120000000E+03  0.17120000000E+03 0.  0.
         13    1    1    2    0    0 -0.12087523886E+02  0.47812027692E+01  0.35535929877E+02  0.37838890178E+02  0.10566000000E+00 0. -1.
        994    1    1    2    0    0  0.16668061936E+02 -0.48705578065E+01  0.32535431162E+01  0.17210918675E+03  0.17120000000E+03 0.  0.
        998    1    1    2    0    0 -0.45805380497E+01  0.89355037357E-01  0.14612105233E+04  0.14612519231E+04  0.10000000000E+02 0. -1.
</event>
<event>
 5    1  0.1535793E-008  0.3735922E+03  0.7957747E-01  0.3479543E+00
         13   -1    0    0    0    0  0.00000000000E+00  0.00000000000E+00  0.14999999963E+04  0.15000000000E+04  0.10566000000E+00 0.  1.
        994   -1    0    0    0    0 -0.00000000000E+00 -0.00000000000E+00  0.11368683772E-12  0.17120000000E+03  0.17120000000E+03 0.  0.
         13    1    1    2    0    0 -0.48113898765E+01  0.38206206972E+02  0.99589905899E+02  0.10677557888E+03  0.10566000000E+00 0.  1.
        994    1    1    2    0    0  0.38867708578E+01 -0.18235177101E+02  0.85916319831E+01  0.17242646204E+03  0.17120000000E+03 0.  0.
        998    1    1    2    0    0  0.92461901870E+00 -0.19971029871E+02  0.13918184584E+04  0.13919979591E+04  0.10000000000E+02 0.  1.
</event>
<event>
 5    1  0.1535793E-008  0.3762782E+03  0.7957747E-01  0.3467526E+00
         13   -1    0    0    0    0  0.00000000000E+00  0.00000000000E+00  0.14999999963E+04  0.15000000000E+04  0.10566000000E+00 0. -1.
        994   -1    0    0    0    0 -0.00000000000E+00 -0.00000000000E+00  0.11368683772E-12  0.17120000000E+03  0.17120000000E+03 0.  0.
         13    1    1    2    0    0 -0.16228952472E+01 -0.12674205310E+02  0.10735553902E+02  0.16689294499E+02  0.10566000000E+00 0. -1.
        994    1    1    2    0    0 -0.48799953119E+01  0.14928976756E+02  0.68591812149E+01  0.17205573826E+03  0.17120000000E+03 0.  0.
        998    1    1    2    0    0  0.65028905591E+01 -0.22547714455E+01  0.14824052612E+04  0.14824549672E+04  0.10000000000E+02 0. -1.
</event>
<event>
 5    1  0.1535793E-008  0.3794400E+03  0.7957747E-01  0.3453601E+00
         13   -1    0    0    0    0  0.00000000000E+00  0.00000000000E+00  0.14999999963E+04  0.15000000000E+04  0.10566000000E+00 0. -1.
        994   -1    0    0    0    0 -0.00000000000E+00 -0.00000000000E+00  0.11368683772E-12  0.17120000000E+03  0.17120000000E+03 0.  0.
         13    1    1    2    0    0 -0.15481570186E+02  0.27090792001E+01  0.26636709750E+02  0.30928038991E+02  0.10566000000E+00 0. -1.
        994    1    1    2    0    0  0.31286811643E+01 -0.92476133066E+01  0.47353689731E+01  0.17154349512E+03  0.17120000000E+03 0.  0.
        998    1    1    2    0    0  0.12352889021E+02  0.65385341065E+01  0.14686279176E+04  0.14687284659E+04  0.10000000000E+02 0. -1.
</event>
<event>
 5    1  0.1535793E-008  0.3817103E+03  0.7957747E-01  0.3443745E+00
         13   -1    0    0    0    0  0.00000000000E+00  0.00000000000E+00  0.14999999963E+04  0.15000000000E+04  0.10566000000E+00 0.  1.
        994   -1    0    0    0    0 -0.00000000000E+00 -0.00000000000E+00  0.11368683772E-12  0.17120000000E+03  0.17120000000E+03 0.  0.
         13    1    1    2    0    0 -0.21874028923E+02 -0.10802206484E+02  0.97289161674E+02  0.10030131081E+03  0.10566000000E+00 0.  1.
        994    1    1    2    0    0  0.58907223190E+01 -0.91391239263E+01  0.36653629414E+01  0.17158408749E+03  0.17120000000E+03 0.  0.
        998    1    1    2    0    0  0.15983306604E+02  0.19941330410E+02  0.13990454717E+04  0.13993146017E+04  0.10000000000E+02 0.  1.
</event>
<event>
 5    1  0.1535793E-008  0.3992842E+03  0.7957747E-01  0.3371262E+00
         13   -1    0    0    0    0  0.00000000000E+00  0.00000000000E+00  0.14999999963E+04  0.15000000000E+04  0.10566000000E+00 0.  1.
        994   -1    0    0    0    0 -0.00000000000E+00 -0.00000000000E+00  0.11368683772E-12  0.17120000000E+03  0.17120000000E+03 0.  0.
         13    1    1    2    0    0  0.23311797991E+02 -0.10885100236E+03  0.23823447904E+03  0.26295942426E+03  0.10566000000E+00 0.  1.
        994    1    1    2    0    0 -0.80227349701E+02  0.35633930911E+02  0.58113136332E+02  0.20097955440E+03  0.17120000000E+03 0.  0.
        998    1    1    2    0    0  0.56915551711E+02  0.73217071454E+02  0.12036523809E+04  0.12072610213E+04  0.10000000000E+02 0.  1.
</event>
<event>
 5    1  0.1535793E-008  0.3810170E+03  0.7957747E-01  0.3446742E+00
         13   -1    0    0    0    0  0.00000000000E+00  0.00000000000E+00  0.14999999963E+04  0.15000000000E+04  0.10566000000E+00 0. -1.
        994   -1    0    0    0    0 -0.00000000000E+00 -0.00000000000E+00  0.11368683772E-12  0.17120000000E+03  0.17120000000E+03 0.  0.
         13    1    1    2    0    0  0.12798073198E+02 -0.44741279492E+00  0.21254474926E+02  0.24814405578E+02  0.10566000000E+00 0. -1.
        994    1    1    2    0    0 -0.76919688434E+01  0.50267288458E+00  0.38186545548E+01  0.17141598872E+03  0.17120000000E+03 0.  0.
        998    1    1    2    0    0 -0.51061043542E+01 -0.55260089658E-01  0.14749268668E+04  0.14749696057E+04  0.10000000000E+02 0. -1.
</event>
<event>
 5    1  0.1535793E-008  0.3830967E+03  0.7957747E-01  0.3437785E+00
         13   -1    0    0    0    0  0.00000000000E+00  0.00000000000E+00  0.14999999963E+04  0.15000000000E+04  0.10566000000E+00 0. -1.
        994   -1    0    0    0    0 -0.00000000000E+00 -0.00000000000E+00  0.11368683772E-12  0.17120000000E+03  0.17120000000E+03 0.  0.
         13    1    1    2    0    0 -0.28234704276E+02 -0.14006979410E+01  0.13128874060E+03  0.13429782221E+03  0.10566000000E+00 0. -1.
        994    1    1    2    0    0  0.39297954437E+02  0.99338844659E+01  0.80339806913E+01  0.17611642777E+03  0.17120000000E+03 0.  0.
        998    1    1    2    0    0 -0.11063250161E+02 -0.85331865250E+01  0.13606772750E+04  0.13607857500E+04  0.10000000000E+02 0. -1.
</event>
<event>
 5    1  0.1535793E-008  0.3836591E+03  0.7957747E-01  0.3435379E+00
         13   -1    0    0    0    0  0.00000000000E+00  0.00000000000E+00  0.14999999963E+04  0.15000000000E+04  0.10566000000E+00 0. -1.
        994   -1    0    0    0    0 -0.00000000000E+00 -0.00000000000E+00  0.11368683772E-12  0.17120000000E+03  0.17120000000E+03 0.  0.
         13    1    1    2    0    0  0.10668419824E+02 -0.20205110972E+02  0.12655334231E+03  0.12859946075E+03  0.10566000000E+00 0. -1.
        994    1    1    2    0    0  0.37471213294E+01  0.13989747666E+01  0.23501586925E+01  0.17126284271E+03  0.17120000000E+03 0.  0.
        998    1    1    2    0    0 -0.14415541154E+02  0.18806136205E+02  0.13710964953E+04  0.13713376965E+04  0.10000000000E+02 0. -1.
</event>
<event>
 5    1  0.1535793E-008  0.3706168E+03  0.7957747E-01  0.3493061E+00
         13   -1    0    0    0    0  0.00000000000E+00  0.00000000000E+00  0.14999999963E+04  0.15000000000E+04  0.10566000000E+00 0. -1.
        994   -1    0    0    0    0 -0.00000000000E+00 -0.00000000000E+00  0.11368683772E-12  0.17120000000E+03  0.17120000000E+03 0.  0.
         13    1    1    2    0    0 -0.63281305521E+02 -0.24172452369E+02  0.21206173407E+03  0.22261855562E+03  0.10566000000E+00 0. -1.
        994    1    1    2    0    0  0.27285694725E+02  0.91587328904E+01  0.14173102285E+02  0.17418010321E+03  0.17120000000E+03 0.  0.
        998    1    1    2    0    0  0.35995610795E+02  0.15013719479E+02  0.12737651599E+04  0.12744013412E+04  0.10000000000E+02 0. -1.
</event>
<event>
 5    1  0.1692713E-008  0.3858107E+03  0.7957747E-01  0.3426241E+00
         13   -1    0    0    0    0  0.00000000000E+00  0.00000000000E+00  0.14999999963E+04  0.15000000000E+04  0.10566000000E+00 0.  1.
        994   -1    0    0    0    0 -0.00000000000E+00 -0.00000000000E+00  0.11368683772E-12  0.17120000000E+03  0.17120000000E+03 0.  0.
         13    1    1    2    0    0  0.76723261896E+01  0.10104027955E+02  0.64163264934E+02  0.65405593806E+02  0.10566000000E+00 0.  1.
        994    1    1    2    0    0 -0.46633745900E+01 -0.12310919121E+02  0.17968516222E+01  0.17171480562E+03  0.17120000000E+03 0.  0.
        998    1    1    2    0    0 -0.30089515996E+01  0.22068911659E+01  0.14340398797E+04  0.14340796006E+04  0.10000000000E+02 0.  1.
</event>
<event>
 5    1  0.1535793E-008  0.3751237E+03  0.7957747E-01  0.3472670E+00
         13   -1    0    0    0    0  0.00000000000E+00  0.00000000000E+00  0.14999999963E+04  0.15000000000E+04  0.10566000000E+00 0.  1.
        994   -1    0    0    0    0 -0.00000000000E+00 -0.00000000000E+00  0.11368683772E-12  0.17120000000E+03  0.17120000000E+03 0.  0.
         13    1    1    2    0    0  0.55902908068E+01  0.18454061609E+02  0.24799861269E+02  0.31414137330E+02  0.10566000000E+00 0.  1.
        994    1    1    2    0    0 -0.53973951461E+01 -0.20945242622E+02  0.82064402181E+01  0.17275595713E+03  0.17120000000E+03 0.  0.
        998    1    1    2    0    0 -0.19289566070E+00  0.24911810134E+01  0.14669936948E+04  0.14670299055E+04  0.10000000000E+02 0.  1.
</event>
<event>
 5    1  0.1535793E-008  0.3785376E+03  0.7957747E-01  0.3457551E+00
         13   -1    0    0    0    0  0.00000000000E+00  0.00000000000E+00  0.14999999963E+04  0.15000000000E+04  0.10566000000E+00 0.  1.
        994   -1    0    0    0    0 -0.00000000000E+00 -0.00000000000E+00  0.11368683772E-12  0.17120000000E+03  0.17120000000E+03 0.  0.
         13    1    1    2    0    0  0.79381168863E+01 -0.63563237585E+01  0.83758870215E+01  0.13175097679E+02  0.10566000000E+00 0.  1.
        994    1    1    2    0    0 -0.63118335988E+01  0.68736861895E+01  0.51657796517E+01  0.17153195645E+03  0.17120000000E+03 0.  0.
        998    1    1    2    0    0 -0.16262832875E+01 -0.51736243096E+00  0.14864583296E+04  0.14864929459E+04  0.10000000000E+02 0.  1.
</event>
<event>
 5    1  0.1535793E-008  0.3776887E+03  0.7957747E-01  0.3461285E+00
         13   -1    0    0    0    0  0.00000000000E+00  0.00000000000E+00  0.14999999963E+04  0.15000000000E+04  0.10566000000E+00 0. -1.
        994   -1    0    0    0    0 -0.00000000000E+00 -0.00000000000E+00  0.11368683772E-12  0.17120000000E+03  0.17120000000E+03 0.  0.
         13    1    1    2    0    0 -0.11907202096E+02 -0.25620240541E+02  0.64322643982E+02  0.70253767728E+02  0.10566000000E+00 0. -1.
        994    1    1    2    0    0  0.23595236423E+02  0.46582090852E+02  0.14545190170E+02  0.17957624823E+03  0.17120000000E+03 0.  0.
        998    1    1    2    0    0 -0.11688034327E+02 -0.20961850311E+02  0.14211321621E+04  0.14213699840E+04  0.10000000000E+02 0. -1.
</event>
<event>
 5    1  0.1535793E-008  0.3857875E+03  0.7957747E-01  0.3426339E+00
         13   -1    0    0    0    0  0.00000000000E+00  0.00000000000E+00  0.14999999963E+04  0.15000000000E+04  0.10566000000E+00 0. -1.
        994   -1    0    0    0    0 -0.00000000000E+00 -0.00000000000E+00  0.11368683772E-12  0.17120000000E+03  0.17120000000E+03 0.  0.
         13    1    1    2    0    0  0.11471689357E+02 -0.11001953710E+01  0.53613711708E+02  0.54838411116E+02  0.10566000000E+00 0. -1.
        994    1    1    2    0    0 -0.95073020238E+01 -0.55202672008E+01  0.16362321178E+01  0.17156042492E+03  0.17120000000E+03 0.  0.
        998    1    1    2    0    0 -0.19643873329E+01  0.66204625718E+01  0.14447500525E+04  0.14448011640E+04  0.10000000000E+02 0. -1.
</event>
<event>
 5    1  0.1535793E-008  0.3816733E+03  0.7957747E-01  0.3443905E+00
         13   -1    0    0    0    0  0.00000000000E+00  0.00000000000E+00  0.14999999963E+04  0.15000000000E+04  0.10566000000E+00 0.  1.
        994   -1    0    0    0    0 -0.00000000000E+00 -0.00000000000E+00  0.11368683772E-12  0.17120000000E+03  0.17120000000E+03 0.  0.
         13    1    1    2    0    0  0.19161901443E+02  0.51470529727E+01  0.55493464733E+02  0.58933915645E+02  0.10566000000E+00 0.  1.
        994    1    1    2    0    0 -0.49562910048E+02  0.72633522549E+02  0.29437915066E+02  0.19470013224E+03  0.17120000000E+03 0.  0.
        998    1    1    2    0    0  0.30401008605E+02 -0.77780575522E+02  0.14150686165E+04  0.14175659521E+04  0.10000000000E+02 0.  1.
</event>
<event>
 5    1  0.1535793E-008  0.2356484E+03  0.7957747E-01  0.4499093E+00
         13   -1    0    0    0    0  0.00000000000E+00  0.00000000000E+00  0.14999999963E+04  0.15000000000E+04  0.10566000000E+00 0. -1.
        994   -1    0    0    0    0 -0.00000000000E+00 -0.00000000000E+00  0.11368683772E-12  0.17120000000E+03  0.17120000000E+03 0.  0.
         13    1    1    2    0    0 -0.16027971876E+03 -0.44313445050E+02  0.12778043267E+03  0.20971676088E+03  0.10566000000E+00 0. -1.
        994    1    1    2    0    0  0.94231426834E+02  0.25763385545E+01  0.17701303620E+03  0.26368400465E+03  0.17120000000E+03 0.  0.
        998    1    1    2    0    0  0.66048291927E+02  0.41737106495E+02  0.11952065274E+04  0.11977992345E+04  0.10000000000E+02 0. -1.
</event>
<event>
 5    1  0.1535793E-008  0.3824927E+03  0.7957747E-01  0.3440376E+00
         13   -1    0    0    0    0  0.00000000000E+00  0.00000000000E+00  0.14999999963E+04  0.15000000000E+04  0.10566000000E+00 0.  1.
        994   -1    0    0    0    0 -0.00000000000E+00 -0.00000000000E+00  0.11368683772E-12  0.17120000000E+03  0.17120000000E+03 0.  0.
         13    1    1    2    0    0  0.11142570303E+02  0.12149228339E+02  0.47381958575E+02  0.50167935822E+02  0.10566000000E+00 0.  1.
        994    1    1    2    0    0 -0.56255296115E+01 -0.18196639950E+01  0.29960278418E+01  0.17132826370E+03  0.17120000000E+03 0.  0.
        998    1    1    2    0    0 -0.55170406916E+01 -0.10329564344E+02  0.14496220099E+04  0.14497038005E+04  0.10000000000E+02 0.  1.
</event>
<event>
 5    1  0.1535793E-008  0.3835164E+03  0.7957747E-01  0.3435989E+00
         13   -1    0    0    0    0  0.00000000000E+00  0.00000000000E+00  0.14999999963E+04  0.15000000000E+04  0.10566000000E+00 0. -1.
        994   -1    0    0    0    0 -0.00000000000E+00 -0.00000000000E+00  0.11368683772E-12  0.17120000000E+03  0.17120000000E+03 0.  0.
         13    1    1    2    0    0  0.13412195345E+02 -0.26816205253E+02  0.16775054745E+03  0.17040907599E+03  0.10566000000E+00 0. -1.
        994    1    1    2    0    0 -0.15864414562E+02  0.27752027504E+02  0.57526155172E+01  0.17425380129E+03  0.17120000000E+03 0.  0.
        998    1    1    2    0    0  0.24522192166E+01 -0.93582225169E+00  0.13264968333E+04  0.13265371227E+04  0.10000000000E+02 0. -1.
</event>
<event>
 5    1  0.1535793E-008  0.3775943E+03  0.7957747E-01  0.3461701E+00
         13   -1    0    0    0    0  0.00000000000E+00  0.00000000000E+00  0.14999999963E+04  0.15000000000E+04  0.10566000000E+00 0.  1.
        994   -1    0    0    0    0 -0.00000000000E+00 -0.00000000000E+00  0.11368683772E-12  0.17120000000E+03  0.17120000000E+03 0.  0.
         13    1    1    2    0    0  0.25844818190E+02 -0.78587732588E+02  0.45019257779E+03  0.45773065727E+03  0.10566000000E+00 0.  1.
        994    1    1    2    0    0 -0.32329068621E+02  0.75134655034E+02  0.28239665553E+02  0.19182623328E+03  0.17120000000E+03 0.  0.
        998    1    1    2    0    0  0.64842504311E+01  0.34530775542E+01  0.10215677529E+04  0.10216431094E+04  0.10000000000E+02 0. -1.
</event>
<event>
 5    1  0.1535793E-008  0.3716399E+03  0.7957747E-01  0.3488388E+00
         13   -1    0    0    0    0  0.00000000000E+00  0.00000000000E+00  0.14999999963E+04  0.15000000000E+04  0.10566000000E+00 0. -1.
        994   -1    0    0    0    0 -0.00000000000E+00 -0.00000000000E+00  0.11368683772E-12  0.17120000000E+03  0.17120000000E+03 0.  0.
         13    1    1    2    0    0  0.48039942375E+02  0.14281781029E+03  0.75631277354E+03  0.77117688346E+03  0.10566000000E+00 0. -1.
        994    1    1    2    0    0 -0.91424796780E+02 -0.95724675811E+02  0.76247788683E+02  0.22944470424E+03  0.17120000000E+03 0.  0.
        998    1    1    2    0    0  0.43384854405E+02 -0.47093134481E+02  0.66743943406E+03  0.67057841230E+03  0.10000000000E+02 0. -1.
</event>
<event>
 5    1  0.1535793E-008  0.3814748E+03  0.7957747E-01  0.3444762E+00
         13   -1    0    0    0    0  0.00000000000E+00  0.00000000000E+00  0.14999999963E+04  0.15000000000E+04  0.10566000000E+00 0. -1.
        994   -1    0    0    0    0 -0.00000000000E+00 -0.00000000000E+00  0.11368683772E-12  0.17120000000E+03  0.17120000000E+03 0.  0.
         13    1    1    2    0    0 -0.27868346219E+02 -0.34868226667E+02  0.26220798221E+03  0.26598021553E+03  0.10566000000E+00 0. -1.
        994    1    1    2    0    0  0.21124381817E+02  0.30978663058E+02  0.80817441508E+01  0.17544421239E+03  0.17120000000E+03 0.  0.
        998    1    1    2    0    0  0.67439644015E+01  0.38895636094E+01  0.12297102699E+04  0.12297755721E+04  0.10000000000E+02 0. -1.
</event>
<event>
 5    1  0.1535793E-008  0.3824076E+03  0.7957747E-01  0.3440742E+00
         13   -1    0    0    0    0  0.00000000000E+00  0.00000000000E+00  0.14999999963E+04  0.15000000000E+04  0.10566000000E+00 0. -1.
        994   -1    0    0    0    0 -0.00000000000E+00 -0.00000000000E+00  0.11368683772E-12  0.17120000000E+03  0.17120000000E+03 0.  0.
         13    1    1    2    0    0  0.13828899086E+02 -0.12289865941E+02  0.62383545854E+02  0.65069172517E+02  0.10566000000E+00 0. -1.
        994    1    1    2    0    0  0.38080778419E+01 -0.24675889312E+01  0.29910150971E+01  0.17128624178E+03  0.17120000000E+03 0.  0.
        998    1    1    2    0    0 -0.17636976928E+02  0.14757454872E+02  0.14346254353E+04  0.14348445857E+04  0.10000000000E+02 0. -1.
</event>
<event>
 5    1  0.1535793E-008  0.3689065E+03  0.7957747E-01  0.3500931E+00
         13   -1    0    0    0    0  0.00000000000E+00  0.00000000000E+00  0.14999999963E+04  0.15000000000E+04  0.10566000000E+00 0. -1.
        994   -1    0    0    0    0 -0.00000000000E+00 -0.00000000000E+00  0.11368683772E-12  0.17120000000E+03  0.17120000000E+03 0.  0.
         13    1    1    2    0    0  0.14367447723E+02  0.28224450561E+02  0.44946232227E+02  0.54983798696E+02  0.10566000000E+00 0. -1.
        994    1    1    2    0    0 -0.14805275346E+02 -0.35687080418E+02  0.15040550420E+02  0.17614886331E+03  0.17120000000E+03 0.  0.
        998    1    1    2    0    0  0.43782762272E+00  0.74626298563E+01  0.14400132136E+04  0.14400673380E+04  0.10000000000E+02 0. -1.
</event>
<event>
 5    1  0.1535793E-008  0.3803642E+03  0.7957747E-01  0.3449574E+00
         13   -1    0    0    0    0  0.00000000000E+00  0.00000000000E+00  0.14999999963E+04  0.15000000000E+04  0.10566000000E+00 0.  1.
        994   -1    0    0    0    0 -0.00000000000E+00 -0.00000000000E+00  0.11368683772E-12  0.17120000000E+03  0.17120000000E+03 0.  0.
         13    1    1    2    0    0 -0.14776620320E+02  0.89475815455E+01  0.36074285146E+02  0.39997161604E+02  0.10566000000E+00 0.  1.
        994    1    1    2    0    0  0.31940846271E+01 -0.20118691384E+02  0.53361408308E+01  0.17249022673E+03  0.17120000000E+03 0.  0.
        998    1    1    2    0    0  0.11582535693E+02  0.11171109838E+02  0.14585895703E+04  0.14587126117E+04  0.10000000000E+02 0.  1.
</event>
<event>
 5    1  0.1535793E-008  0.3848860E+03  0.7957747E-01  0.3430156E+00
         13   -1    0    0    0    0  0.00000000000E+00  0.00000000000E+00  0.14999999963E+04  0.15000000000E+04  0.10566000000E+00 0. -1.
        994   -1    0    0    0    0 -0.00000000000E+00 -0.00000000000E+00  0.11368683772E-12  0.17120000000E+03  0.17120000000E+03 0.  0.
         13    1    1    2    0    0  0.12200079751E+02  0.94276776559E+01  0.75629629626E+02  0.77185329521E+02  0.10566000000E+00 0. -1.
        994    1    1    2    0    0  0.56357053774E+01 -0.68584840846E+01  0.19460118425E+01  0.17144103051E+03  0.17120000000E+03 0.  0.
        998    1    1    2    0    0 -0.17835785128E+02 -0.25691935713E+01  0.14224243548E+04  0.14225736400E+04  0.10000000000E+02 0. -1.
</event>
<event>
 5    1  0.1535793E-008  0.3824994E+03  0.7957747E-01  0.3440347E+00
         13   -1    0    0    0    0  0.00000000000E+00  0.00000000000E+00  0.14999999963E+04  0.15000000000E+04  0.10566000000E+00 0.  1.
        994   -1    0    0    0    0 -0.00000000000E+00 -0.00000000000E+00  0.11368683772E-12  0.17120000000E+03  0.17120000000E+03 0.  0.
         13    1    1    2    0    0 -0.21881049946E+02  0.20102044876E+01  0.81288989635E+02  0.84206485907E+02  0.10566000000E+00 0.  1.
        994    1    1    2    0    0  0.17482690858E+02 -0.33761906302E+01  0.39286108176E+01  0.17216828142E+03  0.17120000000E+03 0.  0.
        998    1    1    2    0    0  0.43983590879E+01  0.13659861427E+01  0.14147823958E+04  0.14148252327E+04  0.10000000000E+02 0.  0.
</event>
<event>
 5    1  0.1535793E-008  0.3793526E+03  0.7957747E-01  0.3453982E+00
         13   -1    0    0    0    0  0.00000000000E+00  0.00000000000E+00  0.14999999963E+04  0.15000000000E+04  0.10566000000E+00 0.  1.
        994   -1    0    0    0    0 -0.00000000000E+00 -0.00000000000E+00  0.11368683772E-12  0.17120000000E+03  0.17120000000E+03 0.  0.
         13    1    1    2    0    0 -0.12755393434E+03  0.14318095791E+03  0.92917963559E+03  0.94876003249E+03  0.10566000000E+00 0.  1.
        994    1    1    2    0    0  0.12152012676E+03 -0.16359878499E+03  0.15917993808E+03  0.31012803218E+03  0.17120000000E+03 0.  0.
        998    1    1    2    0    0  0.60338075815E+01  0.20417827075E+02  0.41164042260E+03  0.41231193533E+03  0.10000000000E+02 0.  1.
</event>
<event>
 5    1  0.1535793E-008  0.3808022E+03  0.7957747E-01  0.3447673E+00
         13   -1    0    0    0    0  0.00000000000E+00  0.00000000000E+00  0.14999999963E+04  0.15000000000E+04  0.10566000000E+00 0. -1.
        994   -1    0    0    0    0 -0.00000000000E+00 -0.00000000000E+00  0.11368683772E-12  0.17120000000E+03  0.17120000000E+03 0.  0.
         13    1    1    2    0    0 -0.23510755531E+02 -0.16246501717E+02  0.11150753591E+03  0.11511145110E+03  0.10566000000E+00 0. -1.
        994    1    1    2    0    0  0.25489945580E+02 -0.14410894350E+02  0.65926720157E+01  0.17381114615E+03  0.17120000000E+03 0.  0.
        998    1    1    2    0    0 -0.19791900490E+01  0.30657396067E+02  0.13818997883E+04  0.13822774028E+04  0.10000000000E+02 0. -1.
</event>
<event>
 5    1  0.1535793E-008  0.3751716E+03  0.7957747E-01  0.3472455E+00
         13   -1    0    0    0    0  0.00000000000E+00  0.00000000000E+00  0.14999999963E+04  0.15000000000E+04  0.10566000000E+00 0.  1.
        994   -1    0    0    0    0 -0.00000000000E+00 -0.00000000000E+00  0.11368683772E-12  0.17120000000E+03  0.17120000000E+03 0.  0.
         13    1    1    2    0    0 -0.16603204837E+02  0.60672951492E+02  0.17936649801E+03  0.19007689293E+03  0.10566000000E+00 0.  1.
        994    1    1    2    0    0 -0.18233733188E+02  0.13965494232E+02  0.15580343673E+02  0.17343497676E+03  0.17120000000E+03 0.  0.
        998    1    1    2    0    0  0.34836938025E+02 -0.74638445724E+02  0.13050531546E+04  0.13076881303E+04  0.10000000000E+02 0.  1.
</event>
<event>
 5    1  0.1535793E-008  0.3828930E+03  0.7957747E-01  0.3438658E+00
         13   -1    0    0    0    0  0.00000000000E+00  0.00000000000E+00  0.14999999963E+04  0.15000000000E+04  0.10566000000E+00 0.  1.
        994   -1    0    0    0    0 -0.00000000000E+00 -0.00000000000E+00  0.11368683772E-12  0.17120000000E+03  0.17120000000E+03 0.  0.
         13    1    1    2    0    0 -0.64255172777E+01  0.11194724900E+02  0.31214858023E+02  0.33778508897E+02  0.10566000000E+00 0.  1.
        994    1    1    2    0    0  0.46871115588E+01  0.32454726402E+01  0.27874758762E+01  0.17131757682E+03  0.17120000000E+03 0.  0.
        998    1    1    2    0    0  0.17384057188E+01 -0.14440197540E+02  0.14659976624E+04  0.14661039143E+04  0.10000000000E+02 0.  1.
</event>
<event>
 5    1  0.1535793E-008  0.4253914E+03  0.7957747E-01  0.3274570E+00
         13   -1    0    0    0    0  0.00000000000E+00  0.00000000000E+00  0.14999999963E+04  0.15000000000E+04  0.10566000000E+00 0. -1.
        994   -1    0    0    0    0 -0.00000000000E+00 -0.00000000000E+00  0.11368683772E-12  0.17120000000E+03  0.17120000000E+03 0.  0.
         13    1    1    2    0    0 -0.28059165823E+02  0.33227447350E+01 -0.93732619781E+01  0.29769558670E+02  0.10566000000E+00 0. -1.
        994    1    1    2    0    0  0.44094679663E+02 -0.91665736965E+00  0.52482850713E+02  0.18441548377E+03  0.17120000000E+03 0.  0.
        998    1    1    2    0    0 -0.16035513840E+02 -0.24060873654E+01  0.14568904075E+04  0.14570149576E+04  0.10000000000E+02 0. -1.
</event>
<event>
 5    1  0.1535793E-008  0.4020736E+03  0.7957747E-01  0.3360339E+00
         13   -1    0    0    0    0  0.00000000000E+00  0.00000000000E+00  0.14999999963E+04  0.15000000000E+04  0.10566000000E+00 0. -1.
        994   -1    0    0    0    0 -0.00000000000E+00 -0.00000000000E+00  0.11368683772E-12  0.17120000000E+03  0.17120000000E+03 0.  0.
         13    1    1    2    0    0 -0.36504623634E+02 -0.29084539997E+02  0.24748916660E+02  0.52830086630E+02  0.10566000000E+00 0. -1.
        994    1    1    2    0    0  0.52435312516E+02  0.35337004536E+02  0.44984485148E+02  0.18796598041E+03  0.17120000000E+03 0.  0.
        998    1    1    2    0    0 -0.15930688883E+02 -0.62524645398E+01  0.14302665945E+04  0.14304039330E+04  0.10000000000E+02 0. -1.
</event>
<event>
 5    1  0.1535793E-008  0.3838758E+03  0.7957747E-01  0.3434454E+00
         13   -1    0    0    0    0  0.00000000000E+00  0.00000000000E+00  0.14999999963E+04  0.15000000000E+04  0.10566000000E+00 0. -1.
        994   -1    0    0    0    0 -0.00000000000E+00 -0.00000000000E+00  0.11368683772E-12  0.17120000000E+03  0.17120000000E+03 0.  0.
         13    1    1    2    0    0 -0.10645664308E+02 -0.16213389740E+02  0.83805852760E+02  0.86021138659E+02  0.10566000000E+00 0. -1.
        994    1    1    2    0    0  0.44338542758E+01  0.15613512902E+02  0.30593284387E+01  0.17199488463E+03  0.17120000000E+03 0.  0.
        998    1    1    2    0    0  0.62118100319E+01  0.59987683834E+00  0.14131348151E+04  0.14131839767E+04  0.10000000000E+02 0. -1.
</event>
<event>
 5    1  0.1535793E-008  0.3761543E+03  0.7957747E-01  0.3468076E+00
         13   -1    0    0    0    0  0.00000000000E+00  0.00000000000E+00  0.14999999963E+04  0.15000000000E+04  0.10566000000E+00 0. -1.
        994   -1    0    0    0    0 -0.00000000000E+00 -0.00000000000E+00  0.11368683772E-12  0.17120000000E+03  0.17120000000E+03 0.  0.
         13    1    1    2    0    0 -0.32212878588E+02  0.53095257000E+02  0.11968430052E+03  0.13483737915E+03  0.10566000000E+00 0. -1.
        994    1    1    2    0    0  0.30100291834E+02 -0.57514388920E+02  0.29445479253E+02  0.18544651183E+03  0.17120000000E+03 0.  0.
        998    1    1    2    0    0  0.21125867534E+01  0.44191319200E+01  0.13508702165E+04  0.13509161090E+04  0.10000000000E+02 0.  0.
</event>
<event>
 5    1  0.1535793E-008  0.3843286E+03  0.7957747E-01  0.3432525E+00
         13   -1    0    0    0    0  0.00000000000E+00  0.00000000000E+00  0.14999999963E+04  0.15000000000E+04  0.10566000000E+00 0. -1.
        994   -1    0    0    0    0 -0.00000000000E+00 -0.00000000000E+00  0.11368683772E-12  0.17120000000E+03  0.17120000000E+03 0.  0.
         13    1    1    2    0    0 -0.85357673928E+01  0.13369414035E+02  0.69236797068E+02  0.71030597554E+02  0.10566000000E+00 0. -1.
        994    1    1    2    0    0 -0.56183085841E+01  0.19349059159E+00  0.20680300570E+01  0.17130475644E+03  0.17120000000E+03 0.  0.
        998    1    1    2    0    0  0.14154075977E+02 -0.13562904626E+02  0.14286951692E+04  0.14288646460E+04  0.10000000000E+02 0. -1.
</event>
<event>
 5    1  0.1535793E-008  0.3845232E+03  0.7957747E-01  0.3431697E+00
         13   -1    0    0    0    0  0.00000000000E+00  0.00000000000E+00  0.14999999963E+04  0.15000000000E+04  0.10566000000E+00 0.  1.
        994   -1    0    0    0    0 -0.00000000000E+00 -0.00000000000E+00  0.11368683772E-12  0.17120000000E+03  0.17120000000E+03 0.  0.
         13    1    1    2    0    0  0.10401350918E+02  0.42328441870E+00  0.29258266319E+02  0.31055186083E+02  0.10566000000E+00 0.  1.
        994    1    1    2    0    0 -0.17317196875E+01  0.42371827173E+01  0.19360610841E+01  0.17127212529E+03  0.17120000000E+03 0.  0.
        998    1    1    2    0    0 -0.86696312304E+01 -0.46604671360E+01  0.14688056689E+04  0.14688726886E+04  0.10000000000E+02 0.  1.
</event>
<event>
 5    1  0.1535793E-008  0.3776000E+03  0.7957747E-01  0.3461676E+00
         13   -1    0    0    0    0  0.00000000000E+00  0.00000000000E+00  0.14999999963E+04  0.15000000000E+04  0.10566000000E+00 0.  1.
        994   -1    0    0    0    0 -0.00000000000E+00 -0.00000000000E+00  0.11368683772E-12  0.17120000000E+03  0.17120000000E+03 0.  0.
         13    1    1    2    0    0 -0.18422784327E+01  0.18515957276E+02  0.29651668254E+02  0.35006674477E+02  0.10566000000E+00 0.  1.
        994    1    1    2    0    0 -0.80493532126E+00 -0.19050821011E+02  0.65757043981E+01  0.17238405260E+03  0.17120000000E+03 0.  0.
        998    1    1    2    0    0  0.26472137539E+01  0.53486373511E+00  0.14637726236E+04  0.14638092729E+04  0.10000000000E+02 0.  1.
</event>
<event>
 5    1  0.1535793E-008  0.3856393E+03  0.7957747E-01  0.3426965E+00
         13   -1    0    0    0    0  0.00000000000E+00  0.00000000000E+00  0.14999999963E+04  0.15000000000E+04  0.10566000000E+00 0. -1.
        994   -1    0    0    0    0 -0.00000000000E+00 -0.00000000000E+00  0.11368683772E-12  0.17120000000E+03  0.17120000000E+03 0.  0.
         13    1    1    2    0    0  0.99161060334E+01 -0.34465482034E+01  0.42634153042E+02  0.43907744454E+02  0.10566000000E+00 0. -1.
        994    1    1    2    0    0 -0.28986202351E+01  0.78264561108E+01  0.15416783324E+01  0.17141024528E+03  0.17120000000E+03 0.  0.
        998    1    1    2    0    0 -0.70174857983E+01 -0.43799079074E+01  0.14558241649E+04  0.14558820103E+04  0.10000000000E+02 0. -1.
</event>
<event>
 5    1  0.1535793E-008  0.3777650E+03  0.7957747E-01  0.3460948E+00
         13   -1    0    0    0    0  0.00000000000E+00  0.00000000000E+00  0.14999999963E+04  0.15000000000E+04  0.10566000000E+00 0.  1.
        994   -1    0    0    0    0 -0.00000000000E+00 -0.00000000000E+00  0.11368683772E-12  0.17120000000E+03  0.17120000000E+03 0.  0.
         13    1    1    2    0    0  0.85879000444E+02 -0.16379580973E+02  0.52782158462E+03  0.53501320521E+03  0.10566000000E+00 0.  1.
        994    1    1    2    0    0 -0.74376301926E+02  0.26850969997E+02  0.26621814711E+02  0.19044938933E+03  0.17120000000E+03 0.  0.
        998    1    1    2    0    0 -0.11502698518E+02 -0.10471389024E+02  0.94555659694E+03  0.94573740546E+03  0.10000000000E+02 0.  1.
</event>
<event>
 5    1  0.1535793E-008  0.3713969E+03  0.7957747E-01  0.3489496E+00
         13   -1    0    0    0    0  0.00000000000E+00  0.00000000000E+00  0.14999999963E+04  0.15000000000E+04  0.10566000000E+00 0.  1.
        994   -1    0    0    0    0 -0.00000000000E+00 -0.00000000000E+00  0.11368683772E-12  0.17120000000E+03  0.17120000000E+03 0.  0.
         13    1    1    2    0    0  0.17129284590E+02  0.41028885451E+02  0.10353931605E+03  0.11268177743E+03  0.10566000000E+00 0.  1.
        994    1    1    2    0    0 -0.35034068481E+02 -0.38783227753E+02  0.17999429155E+02  0.17990259631E+03  0.17120000000E+03 0.  0.
        998    1    1    2    0    0  0.17904783891E+02 -0.22456576984E+01  0.13784612511E+04  0.13786156263E+04  0.10000000000E+02 0.  1.
</event>
<event>
 5    1  0.1535793E-008  0.3841870E+03  0.7957747E-01  0.3433128E+00
         13   -1    0    0    0    0  0.00000000000E+00  0.00000000000E+00  0.14999999963E+04  0.15000000000E+04  0.10566000000E+00 0. -1.
        994   -1    0    0    0    0 -0.00000000000E+00 -0.00000000000E+00  0.11368683772E-12  0.17120000000E+03  0.17120000000E+03 0.  0.
         13    1    1    2    0    0 -0.12470218761E+02  0.10866761171E+02  0.63284391079E+02  0.65410382759E+02  0.10566000000E+00 0. -1.
        994    1    1    2    0    0  0.15671353225E+02 -0.13496620984E+02  0.34460334974E+01  0.17247917334E+03  0.17120000000E+03 0.  0.
        998    1    1    2    0    0 -0.32011344638E+01  0.26298598130E+01  0.14332695717E+04  0.14333104439E+04  0.10000000000E+02 0. -1.
</event>
<event>
 5    1  0.1535793E-008  0.3841858E+03  0.7957747E-01  0.3433133E+00
         13   -1    0    0    0    0  0.00000000000E+00  0.00000000000E+00  0.14999999963E+04  0.15000000000E+04  0.10566000000E+00 0.  1.
        994   -1    0    0    0    0 -0.00000000000E+00 -0.00000000000E+00  0.11368683772E-12  0.17120000000E+03  0.17120000000E+03 0.  0.
         13    1    1    2    0    0 -0.15762061334E+02  0.13388050586E+02  0.98717680249E+02  0.10086066643E+03  0.10566000000E+00 0.  1.
        994    1    1    2    0    0  0.17409307278E+02 -0.12704163166E+02  0.35679868752E+01  0.17258809424E+03  0.17120000000E+03 0.  0.
        998    1    1    2    0    0 -0.16472459432E+01 -0.68388741993E+00  0.13977143292E+04  0.13977512393E+04  0.10000000000E+02 0.  0.
</event>
<event>
 5    1  0.1535793E-008  0.3774147E+03  0.7957747E-01  0.3462493E+00
         13   -1    0    0    0    0  0.00000000000E+00  0.00000000000E+00  0.14999999963E+04  0.15000000000E+04  0.10566000000E+00 0.  1.
        994   -1    0    0    0    0 -0.00000000000E+00 -0.00000000000E+00  0.11368683772E-12  0.17120000000E+03  0.17120000000E+03 0.  0.
         13    1    1    2    0    0 -0.24896367087E+02  0.22366926075E+02  0.74879183759E+02  0.82018362582E+02  0.10566000000E+00 0.  1.
        994    1    1    2    0    0  0.59867420120E+02 -0.75462804438E+02  0.37397728683E+02  0.19996692966E+03  0.17120000000E+03 0.  0.
        998    1    1    2    0    0 -0.34971053033E+02  0.53095878363E+02  0.13877230838E+04  0.13892147078E+04  0.10000000000E+02 0.  1.
</event>
<event>
 5    1  0.1535793E-008  0.3782500E+03  0.7957747E-01  0.3458814E+00
         13   -1    0    0    0    0  0.00000000000E+00  0.00000000000E+00  0.14999999963E+04  0.15000000000E+04  0.10566000000E+00 0. -1.
        994   -1    0    0    0    0 -0.00000000000E+00 -0.00000000000E+00  0.11368683772E-12  0.17120000000E+03  0.17120000000E+03 0.  0.
         13    1    1    2    0    0 -0.30290524990E+02 -0.57510863476E+02  0.14287668787E+03  0.15696743109E+03  0.10566000000E+00 0. -1.
        994    1    1    2    0    0 -0.78874800722E+00  0.24316867732E+02  0.17503327399E+02  0.17380373601E+03  0.17120000000E+03 0.  0.
        998    1    1    2    0    0  0.31079272997E+02  0.33193995743E+02  0.13396199810E+04  0.13404288329E+04  0.10000000000E+02 0. -1.
</event>
<event>
 5    1  0.1535793E-008  0.3799158E+03  0.7957747E-01  0.3451525E+00
         13   -1    0    0    0    0  0.00000000000E+00  0.00000000000E+00  0.14999999963E+04  0.15000000000E+04  0.10566000000E+00 0.  1.
        994   -1    0    0    0    0 -0.00000000000E+00 -0.00000000000E+00  0.11368683772E-12  0.17120000000E+03  0.17120000000E+03 0.  0.
         13    1    1    2    0    0  0.71085663060E+01  0.55409900177E+02  0.32441878408E+03  0.32919348016E+03  0.10566000000E+00 0.  1.
        994    1    1    2    0    0  0.26124914097E+00 -0.46653652137E+02  0.11488576783E+02  0.17781467573E+03  0.17120000000E+03 0.  0.
        998    1    1    2    0    0 -0.73698154470E+01 -0.87562480400E+01  0.11640926354E+04  0.11641918441E+04  0.10000000000E+02 0.  1.
</event>
<event>
 5    1  0.1535793E-008  0.3831600E+03  0.7957747E-01  0.3437513E+00
         13   -1    0    0    0    0  0.00000000000E+00  0.00000000000E+00  0.14999999963E+04  0.15000000000E+04  0.10566000000E+00 0.  1.
        994   -1    0    0    0    0 -0.00000000000E+00 -0.00000000000E+00  0.11368683772E-12  0.17120000000E+03  0.17120000000E+03 0.  0.
         13    1    1    2    0    0 -0.12828101052E+02 -0.85516730757E+01  0.49355516241E+02  0.51707537521E+02  0.10566000000E+00 0.  1.
        994    1    1    2    0    0 -0.81206135886E+01  0.22916830850E+01  0.27820024022E+01  0.17143038154E+03  0.17120000000E+03 0.  0.
        998    1    1    2    0    0  0.20948714641E+02  0.62599899907E+01  0.14478624776E+04  0.14480620809E+04  0.10000000000E+02 0.  1.
</event>
<event>
 5    1  0.1535793E-008  0.3851194E+03  0.7957747E-01  0.3429166E+00
         13   -1    0    0    0    0  0.00000000000E+00  0.00000000000E+00  0.14999999963E+04  0.15000000000E+04  0.10566000000E+00 0. -1.
        994   -1    0    0    0    0 -0.00000000000E+00 -0.00000000000E+00  0.11368683772E-12  0.17120000000E+03  0.17120000000E+03 0.  0.
         13    1    1    2    0    0 -0.14171816180E+02 -0.26818764505E+01  0.63426003007E+02  0.65045383053E+02  0.10566000000E+00 0. -1.
        994    1    1    2    0    0  0.14131187903E+02  0.15237063247E+02  0.29918371905E+01  0.17248260683E+03  0.17120000000E+03 0.  0.
        998    1    1    2    0    0  0.40628276753E-01 -0.12555186797E+02  0.14335821561E+04  0.14336720101E+04  0.10000000000E+02 0. -1.
</event>
<event>
 5    1  0.1535793E-008  0.3705545E+03  0.7957747E-01  0.3493346E+00
         13   -1    0    0    0    0  0.00000000000E+00  0.00000000000E+00  0.14999999963E+04  0.15000000000E+04  0.10566000000E+00 0. -1.
        994   -1    0    0    0    0 -0.00000000000E+00 -0.00000000000E+00  0.11368683772E-12  0.17120000000E+03  0.17120000000E+03 0.  0.
         13    1    1    2    0    0  0.15186179190E+02  0.97010888109E+02  0.33030465934E+03  0.34459093371E+03  0.10566000000E+00 0. -1.
        994    1    1    2    0    0 -0.14375311656E+02 -0.96093822259E+02  0.45077066988E+02  0.20194567148E+03  0.17120000000E+03 0.  0.
        998    1    1    2    0    0 -0.81086753393E+00 -0.91706585015E+00  0.11246182699E+04  0.11246633948E+04  0.10000000000E+02 0.  0.
</event>
<event>
 5    1  0.1535793E-008  0.3726105E+03  0.7957747E-01  0.3483979E+00
         13   -1    0    0    0    0  0.00000000000E+00  0.00000000000E+00  0.14999999963E+04  0.15000000000E+04  0.10566000000E+00 0.  1.
        994   -1    0    0    0    0 -0.00000000000E+00 -0.00000000000E+00  0.11368683772E-12  0.17120000000E+03  0.17120000000E+03 0.  0.
         13    1    1    2    0    0 -0.73870761696E+01 -0.12496166395E+03  0.53698767884E+03  0.55138531422E+03  0.10566000000E+00 0.  1.
        994    1    1    2    0    0  0.18250846944E+02  0.13534780124E+03  0.74805998350E+02  0.23142492974E+03  0.17120000000E+03 0.  0.
        998    1    1    2    0    0 -0.10863770774E+02 -0.10386137290E+02  0.88820631909E+03  0.88838975604E+03  0.10000000000E+02 0.  0.
</event>
<event>
 5    1  0.1535793E-008  0.3741481E+03  0.7957747E-01  0.3477041E+00
         13   -1    0    0    0    0  0.00000000000E+00  0.00000000000E+00  0.14999999963E+04  0.15000000000E+04  0.10566000000E+00 0.  1.
        994   -1    0    0    0    0 -0.00000000000E+00 -0.00000000000E+00  0.11368683772E-12  0.17120000000E+03  0.17120000000E+03 0.  0.
         13    1    1    2    0    0 -0.98344910968E+02  0.49708191819E+02  0.61251977487E+03  0.62235288352E+03  0.10566000000E+00 0.  1.
        994    1    1    2    0    0  0.91296593980E+02 -0.27500434846E+02  0.38771667007E+02  0.19975991628E+03  0.17120000000E+03 0.  0.
        998    1    1    2    0    0  0.70483169886E+01 -0.22207756973E+02  0.84870855440E+03  0.84908720020E+03  0.10000000000E+02 0. -1.
</event>
<event>
 5    1  0.1535793E-008  0.3860028E+03  0.7957747E-01  0.3425430E+00
         13   -1    0    0    0    0  0.00000000000E+00  0.00000000000E+00  0.14999999963E+04  0.15000000000E+04  0.10566000000E+00 0.  1.
        994   -1    0    0    0    0 -0.00000000000E+00 -0.00000000000E+00  0.11368683772E-12  0.17120000000E+03  0.17120000000E+03 0.  0.
         13    1    1    2    0    0  0.47940369923E+01  0.89264400835E+01  0.46596083091E+02  0.47685115568E+02  0.10566000000E+00 0.  1.
        994    1    1    2    0    0  0.80218529915E-01 -0.48732594146E+01  0.12109401657E+01  0.17127364499E+03  0.17120000000E+03 0.  0.
        998    1    1    2    0    0 -0.48742555222E+01 -0.40531806689E+01  0.14521929730E+04  0.14522412394E+04  0.10000000000E+02 0.  1.
</event>
<event>
 5    1  0.1535793E-008  0.3753825E+03  0.7957747E-01  0.3471514E+00
         13   -1    0    0    0    0  0.00000000000E+00  0.00000000000E+00  0.14999999963E+04  0.15000000000E+04  0.10566000000E+00 0.  1.
        994   -1    0    0    0    0 -0.00000000000E+00 -0.00000000000E+00  0.11368683772E-12  0.17120000000E+03  0.17120000000E+03 0.  0.
         13    1    1    2    0    0 -0.29556877616E+02  0.27015915253E+02  0.14233900981E+03  0.14786437559E+03  0.10566000000E+00 0.  1.
        994    1    1    2    0    0 -0.17067116904E+02 -0.89028883925E+01  0.77413857840E+01  0.17245265134E+03  0.17120000000E+03 0.  0.
        998    1    1    2    0    0  0.46623994520E+02 -0.18113026860E+02  0.13499196007E+04  0.13508829731E+04  0.10000000000E+02 0.  0.
</event>
<event>
 5    1  0.1802415E-008  0.3862704E+03  0.7957747E-01  0.3424302E+00
         13   -1    0    0    0    0  0.00000000000E+00  0.00000000000E+00  0.14999999963E+04  0.15000000000E+04  0.10566000000E+00 0. -1.
        994   -1    0    0    0    0 -0.00000000000E+00 -0.00000000000E+00  0.11368683772E-12  0.17120000000E+03  0.17120000000E+03 0.  0.
         13    1    1    2    0    0 -0.20603635931E+01  0.99199082325E+01  0.51855172468E+02  0.52835780994E+02  0.10566000000E+00 0. -1.
        994    1    1    2    0    0 -0.27704370131E+01 -0.84006168517E+01  0.12570005503E+01  0.17143297739E+03  0.17120000000E+03 0.  0.
        998    1    1    2    0    0  0.48308006062E+01 -0.15192913808E+01  0.14468878233E+04  0.14469312416E+04  0.10000000000E+02 0. -1.
</event>
<event>
 5    1  0.1535793E-008  0.3801440E+03  0.7957747E-01  0.3450532E+00
         13   -1    0    0    0    0  0.00000000000E+00  0.00000000000E+00  0.14999999963E+04  0.15000000000E+04  0.10566000000E+00 0.  1.
        994   -1    0    0    0    0 -0.00000000000E+00 -0.00000000000E+00  0.11368683772E-12  0.17120000000E+03  0.17120000000E+03 0.  0.
         13    1    1    2    0    0 -0.22279073459E+02 -0.21250493903E+02  0.10787569233E+03  0.11218340682E+03  0.10566000000E+00 0.  1.
        994    1    1    2    0    0  0.17040766875E+02  0.27251695345E+02  0.75199162770E+01  0.17435318115E+03  0.17120000000E+03 0.  0.
        998    1    1    2    0    0  0.52383065837E+01 -0.60012014420E+01  0.13846043877E+04  0.13846634120E+04  0.10000000000E+02 0.  1.
</event>
<event>
 5    1  0.1535793E-008  0.3829083E+03  0.7957747E-01  0.3438592E+00
         13   -1    0    0    0    0  0.00000000000E+00  0.00000000000E+00  0.14999999963E+04  0.15000000000E+04  0.10566000000E+00 0. -1.
        994   -1    0    0    0    0 -0.00000000000E+00 -0.00000000000E+00  0.11368683772E-12  0.17120000000E+03  0.17120000000E+03 0.  0.
         13    1    1    2    0    0 -0.11226189898E+02  0.11026994818E+02  0.45472382592E+02  0.48118298983E+02  0.10566000000E+00 0. -1.
        994    1    1    2    0    0  0.64960536461E+01 -0.85107801042E+01  0.30518577961E+01  0.17156160971E+03  0.17120000000E+03 0.  0.
        998    1    1    2    0    0  0.47301362519E+01 -0.25162147139E+01  0.14514757559E+04  0.14515200913E+04  0.10000000000E+02 0. -1.
</event>
<event>
 5    1  0.1535793E-008  0.2651659E+03  0.7957747E-01  0.4181075E+00
         13   -1    0    0    0    0  0.00000000000E+00  0.00000000000E+00  0.14999999963E+04  0.15000000000E+04  0.10566000000E+00 0.  1.
        994   -1    0    0    0    0 -0.00000000000E+00 -0.00000000000E+00  0.11368683772E-12  0.17120000000E+03  0.17120000000E+03 0.  0.
         13    1    1    2    0    0 -0.79592977798E+02  0.77015235777E+02  0.65332534465E+03  0.66264651647E+03  0.10566000000E+00 0.  1.
        994    1    1    2    0    0 -0.34094783842E+02  0.17195233689E+02  0.29235545434E+02  0.17782656569E+03  0.17120000000E+03 0.  0.
        998    1    1    2    0    0  0.11368776164E+03 -0.94210469466E+02  0.81743910619E+03  0.83072691785E+03  0.10000000000E+02 0.  1.
</event>
<event>
 5    1  0.1535793E-008  0.3809433E+03  0.7957747E-01  0.3447061E+00
         13   -1    0    0    0    0  0.00000000000E+00  0.00000000000E+00  0.14999999963E+04  0.15000000000E+04  0.10566000000E+00 0.  1.
        994   -1    0    0    0    0 -0.00000000000E+00 -0.00000000000E+00  0.11368683772E-12  0.17120000000E+03  0.17120000000E+03 0.  0.
         13    1    1    2    0    0  0.29498077194E+02  0.12726632985E+02  0.17979329245E+03  0.18264102201E+03  0.10566000000E+00 0.  1.
        994    1    1    2    0    0  0.15509061037E+02 -0.16617726154E+01  0.44689087135E+01  0.17196715851E+03  0.17120000000E+03 0.  0.
        998    1    1    2    0    0 -0.45007138230E+02 -0.11064860369E+02  0.13157377951E+04  0.13165918195E+04  0.10000000000E+02 0.  1.
</event>
<event>
 5    1  0.1535793E-008  0.3748775E+03  0.7957747E-01  0.3473771E+00
         13   -1    0    0    0    0  0.00000000000E+00  0.00000000000E+00  0.14999999963E+04  0.15000000000E+04  0.10566000000E+00 0.  1.
        994   -1    0    0    0    0 -0.00000000000E+00 -0.00000000000E+00  0.11368683772E-12  0.17120000000E+03  0.17120000000E+03 0.  0.
         13    1    1    2    0    0  0.26144357541E+02 -0.74486111188E+02  0.45586644152E+03  0.46265098277E+03  0.10566000000E+00 0.  1.
        994    1    1    2    0    0  0.16118341939E+02  0.57207145050E+02  0.18850493157E+02  0.18220109628E+03  0.17120000000E+03 0.  0.
        998    1    1    2    0    0 -0.42262699480E+02  0.17278966138E+02  0.10252830616E+04  0.10263479210E+04  0.10000000000E+02 0.  1.
</event>
<event>
 5    1  0.1535793E-008  0.3737246E+03  0.7957747E-01  0.3478947E+00
         13   -1    0    0    0    0  0.00000000000E+00  0.00000000000E+00  0.14999999963E+04  0.15000000000E+04  0.10566000000E+00 0. -1.
        994   -1    0    0    0    0 -0.00000000000E+00 -0.00000000000E+00  0.11368683772E-12  0.17120000000E+03  0.17120000000E+03 0.  0.
         13    1    1    2    0    0 -0.63256079379E+01  0.14059422685E+03  0.63872228732E+03  0.65404351645E+03  0.10566000000E+00 0. -1.
        994    1    1    2    0    0  0.54517550159E+01 -0.14940694022E+03  0.87951820395E+02  0.24371523984E+03  0.17120000000E+03 0.  0.
        998    1    1    2    0    0  0.87385292204E+00  0.88127133764E+01  0.77332588857E+03  0.77344124371E+03  0.10000000000E+02 0.  0.
</event>
<event>
 5    1  0.1535793E-008  0.3815174E+03  0.7957747E-01  0.3444578E+00
         13   -1    0    0    0    0  0.00000000000E+00  0.00000000000E+00  0.14999999963E+04  0.15000000000E+04  0.10566000000E+00 0.  1.
        994   -1    0    0    0    0 -0.00000000000E+00 -0.00000000000E+00  0.11368683772E-12  0.17120000000E+03  0.17120000000E+03 0.  0.
         13    1    1    2    0    0  0.15211625883E+02 -0.59108550437E+01  0.38955235647E+02  0.42235687726E+02  0.10566000000E+00 0.  1.
        994    1    1    2    0    0 -0.50642850931E+01  0.42804443612E+01  0.35154145623E+01  0.17136442842E+03  0.17120000000E+03 0.  0.
        998    1    1    2    0    0 -0.10147340789E+02  0.16304106825E+01  0.14575293461E+04  0.14575998839E+04  0.10000000000E+02 0.  1.
</event>
<event>
 5    1  0.1766623E-008  0.3853544E+03  0.7957747E-01  0.3428171E+00
         13   -1    0    0    0    0  0.00000000000E+00  0.00000000000E+00  0.14999999963E+04  0.15000000000E+04  0.10566000000E+00 0. -1.
        994   -1    0    0    0    0 -0.00000000000E+00 -0.00000000000E+00  0.11368683772E-12  0.17120000000E+03  0.17120000000E+03 0.  0.
         13    1    1    2    0    0  0.10265958111E+02  0.17848800119E+01  0.36891008581E+02  0.38334493224E+02  0.10566000000E+00 0. -1.
        994    1    1    2    0    0 -0.94445330276E+01 -0.72459767727E+00  0.17490764862E+01  0.17147076577E+03  0.17120000000E+03 0.  0.
        998    1    1    2    0    0 -0.82142508331E+00 -0.10602823346E+01  0.14613599112E+04  0.14613947410E+04  0.10000000000E+02 0. -1.
</event>
<event>
 5    1  0.1535793E-008  0.3701247E+03  0.7957747E-01  0.3495318E+00
         13   -1    0    0    0    0  0.00000000000E+00  0.00000000000E+00  0.14999999963E+04  0.15000000000E+04  0.10566000000E+00 0.  1.
        994   -1    0    0    0    0 -0.00000000000E+00 -0.00000000000E+00  0.11368683772E-12  0.17120000000E+03  0.17120000000E+03 0.  0.
         13    1    1    2    0    0 -0.26540931228E+02 -0.23470011312E+01  0.36691686170E+02  0.45345566958E+02  0.10566000000E+00 0.  1.
        994    1    1    2    0    0 -0.43554019969E+00 -0.10875534512E+02  0.96134704739E+01  0.17181480076E+03  0.17120000000E+03 0.  0.
        998    1    1    2    0    0  0.26976471428E+02  0.13222535643E+02  0.14536948396E+04  0.14540396323E+04  0.10000000000E+02 0.  1.
</event>
<event>
 5    1  0.1535793E-008  0.3800372E+03  0.7957747E-01  0.3450996E+00
         13   -1    0    0    0    0  0.00000000000E+00  0.00000000000E+00  0.14999999963E+04  0.15000000000E+04  0.10566000000E+00 0. -1.
        994   -1    0    0    0    0 -0.00000000000E+00 -0.00000000000E+00  0.11368683772E-12  0.17120000000E+03  0.17120000000E+03 0.  0.
         13    1    1    2    0    0 -0.17622611362E+02 -0.42847286759E+01  0.37479791434E+02  0.41637258087E+02  0.10566000000E+00 0. -1.
        994    1    1    2    0    0  0.19636962414E+02  0.81624554901E+00  0.54065407647E+01  0.17240924347E+03  0.17120000000E+03 0.  0.
        998    1    1    2    0    0 -0.20143510511E+01  0.34684831269E+01  0.14571136641E+04  0.14571534984E+04  0.10000000000E+02 0. -1.
</event>
<event>
 5    1  0.1535793E-008  0.3742862E+03  0.7957747E-01  0.3476421E+00
         13   -1    0    0    0    0  0.00000000000E+00  0.00000000000E+00  0.14999999963E+04  0.15000000000E+04  0.10566000000E+00 0.  1.
        994   -1    0    0    0    0 -0.00000000000E+00 -0.00000000000E+00  0.11368683772E-12  0.17120000000E+03  0.17120000000E+03 0.  0.
         13    1    1    2    0    0  0.66670907028E+02 -0.17624256525E+02  0.41599660194E+03  0.42167381736E+03  0.10566000000E+00 0.  1.
        994    1    1    2    0    0 -0.15655171255E+02  0.57375044398E+01  0.79935490966E+01  0.17219564504E+03  0.17120000000E+03 0.  0.
        998    1    1    2    0    0 -0.51015735774E+02  0.11886752085E+02  0.10760098452E+04  0.10773305376E+04  0.10000000000E+02 0.  1.
</event>
<event>
 5    1  0.1535793E-008  0.3742433E+03  0.7957747E-01  0.3476614E+00
         13   -1    0    0    0    0  0.00000000000E+00  0.00000000000E+00  0.14999999963E+04  0.15000000000E+04  0.10566000000E+00 0. -1.
        994   -1    0    0    0    0 -0.00000000000E+00 -0.00000000000E+00  0.11368683772E-12  0.17120000000E+03  0.17120000000E+03 0.  0.
         13    1    1    2    0    0 -0.64053881272E+02 -0.26513071582E+02  0.35955850926E+03  0.36618052299E+03  0.10566000000E+00 0. -1.
        994    1    1    2    0    0  0.23572368959E+02  0.28099967346E+02  0.11666141636E+02  0.17547308513E+03  0.17120000000E+03 0.  0.
        998    1    1    2    0    0  0.40481512313E+02 -0.15868957634E+01  0.11287753454E+04  0.11295463919E+04  0.10000000000E+02 0. -1.
</event>
<event>
 5    1  0.1535793E-008  0.3783902E+03  0.7957747E-01  0.3458198E+00
         13   -1    0    0    0    0  0.00000000000E+00  0.00000000000E+00  0.14999999963E+04  0.15000000000E+04  0.10566000000E+00 0. -1.
        994   -1    0    0    0    0 -0.00000000000E+00 -0.00000000000E+00  0.11368683772E-12  0.17120000000E+03  0.17120000000E+03 0.  0.
         13    1    1    2    0    0  0.35216011133E+01  0.10779655634E+02  0.10712478063E+02  0.15600352568E+02  0.10566000000E+00 0. -1.
        994    1    1    2    0    0 -0.26789434846E+01 -0.11160577505E+02  0.53908264616E+01  0.17166897285E+03  0.17120000000E+03 0.  0.
        998    1    1    2    0    0 -0.84265762868E+00  0.38092187164E+00  0.14838966918E+04  0.14839306746E+04  0.10000000000E+02 0. -1.
</event>
<event>
 5    1  0.1535793E-008  0.3800464E+03  0.7957747E-01  0.3450956E+00
         13   -1    0    0    0    0  0.00000000000E+00  0.00000000000E+00  0.14999999963E+04  0.15000000000E+04  0.10566000000E+00 0. -1.
        994   -1    0    0    0    0 -0.00000000000E+00 -0.00000000000E+00  0.11368683772E-12  0.17120000000E+03  0.17120000000E+03 0.  0.
         13    1    1    2    0    0  0.55326462068E+01 -0.11779822910E+02  0.18708716712E+02  0.22790384966E+02  0.10566000000E+00 0. -1.
        994    1    1    2    0    0 -0.31441655292E+01  0.12541226833E+02  0.46686485902E+01  0.17175099542E+03  0.17120000000E+03 0.  0.
        998    1    1    2    0    0 -0.23884806776E+01 -0.76140392255E+00  0.14766226310E+04  0.14766586196E+04  0.10000000000E+02 0. -1.
</event>
<event>
 5    1  0.1535793E-008  0.3828507E+03  0.7957747E-01  0.3438839E+00
         13   -1    0    0    0    0  0.00000000000E+00  0.00000000000E+00  0.14999999963E+04  0.15000000000E+04  0.10566000000E+00 0. -1.
        994   -1    0    0    0    0 -0.00000000000E+00 -0.00000000000E+00  0.11368683772E-12  0.17120000000E+03  0.17120000000E+03 0.  0.
         13    1    1    2    0    0 -0.17076692142E+02  0.12463570670E+02  0.99176413229E+02  0.10140476376E+03  0.10566000000E+00 0. -1.
        994    1    1    2    0    0 -0.15630710087E+02  0.66530130278E+01  0.36572678275E+01  0.17207962485E+03  0.17120000000E+03 0.  0.
        998    1    1    2    0    0  0.32707402229E+02 -0.19116583698E+02  0.13971663152E+04  0.13977156114E+04  0.10000000000E+02 0. -1.
</event>
<event>
 5    1  0.1535793E-008  0.3844833E+03  0.7957747E-01  0.3431867E+00
         13   -1    0    0    0    0  0.00000000000E+00  0.00000000000E+00  0.14999999963E+04  0.15000000000E+04  0.10566000000E+00 0. -1.
        994   -1    0    0    0    0 -0.00000000000E+00 -0.00000000000E+00  0.11368683772E-12  0.17120000000E+03  0.17120000000E+03 0.  0.
         13    1    1    2    0    0 -0.11098834990E+02  0.11321595325E+02  0.62387780530E+02  0.64370870604E+02  0.10566000000E+00 0. -1.
        994    1    1    2    0    0  0.22033240706E+02 -0.81739548472E+01  0.37083159742E+01  0.17284521643E+03  0.17120000000E+03 0.  0.
        998    1    1    2    0    0 -0.10934405715E+02 -0.31476404781E+01  0.14339038998E+04  0.14339839130E+04  0.10000000000E+02 0. -1.
</event>
<event>
 5    1  0.1535793E-008  0.3743004E+03  0.7957747E-01  0.3476358E+00
         13   -1    0    0    0    0  0.00000000000E+00  0.00000000000E+00  0.14999999963E+04  0.15000000000E+04  0.10566000000E+00 0.  1.
        994   -1    0    0    0    0 -0.00000000000E+00 -0.00000000000E+00  0.11368683772E-12  0.17120000000E+03  0.17120000000E+03 0.  0.
         13    1    1    2    0    0 -0.19838433495E+02 -0.24358078864E+02  0.33034050570E+02  0.45586611089E+02  0.10566000000E+00 0.  1.
        994    1    1    2    0    0  0.15308154371E+02 -0.45484708021E+00  0.14063947384E+02  0.17245805604E+03  0.17120000000E+03 0.  0.
        998    1    1    2    0    0  0.45302791238E+01  0.24812925944E+02  0.14529019983E+04  0.14531553329E+04  0.10000000000E+02 0.  1.
</event>
<event>
 5    1  0.1535793E-008  0.3824023E+03  0.7957747E-01  0.3440764E+00
         13   -1    0    0    0    0  0.00000000000E+00  0.00000000000E+00  0.14999999963E+04  0.15000000000E+04  0.10566000000E+00 0.  1.
        994   -1    0    0    0    0 -0.00000000000E+00 -0.00000000000E+00  0.11368683772E-12  0.17120000000E+03  0.17120000000E+03 0.  0.
         13    1    1    2    0    0 -0.26331719053E+02 -0.97056266306E+01  0.14716467406E+03  0.14981659144E+03  0.10566000000E+00 0.  1.
        994    1    1    2    0    0  0.45186014647E+01 -0.99998157226E+00  0.29963823029E+01  0.17128875045E+03  0.17120000000E+03 0.  0.
        998    1    1    2    0    0  0.21813117589E+02  0.10705608203E+02  0.13498389399E+04  0.13500946581E+04  0.10000000000E+02 0.  1.
</event>
<event>
 5    1  0.1535793E-008  0.3739259E+03  0.7957747E-01  0.3478040E+00
         13   -1    0    0    0    0  0.00000000000E+00  0.00000000000E+00  0.14999999963E+04  0.15000000000E+04  0.10566000000E+00 0. -1.
        994   -1    0    0    0    0 -0.00000000000E+00 -0.00000000000E+00  0.11368683772E-12  0.17120000000E+03  0.17120000000E+03 0.  0.
         13    1    1    2    0    0  0.11467110073E+03 -0.25965306653E+02  0.52896808306E+03  0.54187720246E+03  0.10566000000E+00 0. -1.
        994    1    1    2    0    0 -0.12348530815E+03  0.34066849237E+02  0.65457672051E+02  0.22361421774E+03  0.17120000000E+03 0.  0.
        998    1    1    2    0    0  0.88142074227E+01 -0.81015425834E+01  0.90557424117E+03  0.90570857979E+03  0.10000000000E+02 0. -1.
</event>
<event>
 5    1  0.1535793E-008  0.3858018E+03  0.7957747E-01  0.3426279E+00
         13   -1    0    0    0    0  0.00000000000E+00  0.00000000000E+00  0.14999999963E+04  0.15000000000E+04  0.10566000000E+00 0. -1.
        994   -1    0    0    0    0 -0.00000000000E+00 -0.00000000000E+00  0.11368683772E-12  0.17120000000E+03  0.17120000000E+03 0.  0.
         13    1    1    2    0    0  0.11307810256E+02  0.74114309935E+01  0.80195288371E+02  0.81327063903E+02  0.10566000000E+00 0. -1.
        994    1    1    2    0    0 -0.34041757239E+01  0.44621135274E+01  0.13359101576E+01  0.17129717898E+03  0.17120000000E+03 0.  0.
        998    1    1    2    0    0 -0.79036345317E+01 -0.11873544521E+02  0.14184687978E+04  0.14185757571E+04  0.10000000000E+02 0. -1.
</event>
<event>
 5    1  0.1535793E-008  0.3824380E+03  0.7957747E-01  0.3440611E+00
         13   -1    0    0    0    0  0.00000000000E+00  0.00000000000E+00  0.14999999963E+04  0.15000000000E+04  0.10566000000E+00 0.  1.
        994   -1    0    0    0    0 -0.00000000000E+00 -0.00000000000E+00  0.11368683772E-12  0.17120000000E+03  0.17120000000E+03 0.  0.
         13    1    1    2    0    0  0.23613876938E+02 -0.25925789376E+02  0.18944037286E+03  0.19265883777E+03  0.10566000000E+00 0.  1.
        994    1    1    2    0    0 -0.16297497170E+02  0.30227593425E+02  0.68281927784E+01  0.17474375535E+03  0.17120000000E+03 0.  0.
        998    1    1    2    0    0 -0.73163797684E+01 -0.43018040496E+01  0.13037314306E+04  0.13037974069E+04  0.10000000000E+02 0.  1.
</event>
<event>
 5    1  0.1535793E-008  0.3745264E+03  0.7957747E-01  0.3475343E+00
         13   -1    0    0    0    0  0.00000000000E+00  0.00000000000E+00  0.14999999963E+04  0.15000000000E+04  0.10566000000E+00 0.  1.
        994   -1    0    0    0    0 -0.00000000000E+00 -0.00000000000E+00  0.11368683772E-12  0.17120000000E+03  0.17120000000E+03 0.  0.
         13    1    1    2    0    0 -0.23212187165E+02  0.25770055101E+02  0.38874837236E+02  0.52097653566E+02  0.10566000000E+00 0.  1.
        994    1    1    2    0    0  0.19754072901E+02 -0.28113524127E+02  0.17557983820E+02  0.17549449117E+03  0.17120000000E+03 0.  0.
        998    1    1    2    0    0  0.34581142645E+01  0.23434690254E+01  0.14435671752E+04  0.14436078553E+04  0.10000000000E+02 0.  1.
</event>
<event>
 5    1  0.1535793E-008  0.3750093E+03  0.7957747E-01  0.3473181E+00
         13   -1    0    0    0    0  0.00000000000E+00  0.00000000000E+00  0.14999999963E+04  0.15000000000E+04  0.10566000000E+00 0.  1.
        994   -1    0    0    0    0 -0.00000000000E+00 -0.00000000000E+00  0.11368683772E-12  0.17120000000E+03  0.17120000000E+03 0.  0.
         13    1    1    2    0    0  0.48462093007E+02  0.51869316969E+01  0.14034410702E+03  0.14856634296E+03  0.10566000000E+00 0.  1.
        994    1    1    2    0    0 -0.71768919224E+02 -0.35371587018E+02  0.28755899723E+02  0.19114985928E+03  0.17120000000E+03 0.  0.
        998    1    1    2    0    0  0.23306826217E+02  0.30184655321E+02  0.13308999895E+04  0.13314837978E+04  0.10000000000E+02 0.  1.
</event>
<event>
 5    1  0.1535793E-008  0.3731595E+03  0.7957747E-01  0.3481495E+00
         13   -1    0    0    0    0  0.00000000000E+00  0.00000000000E+00  0.14999999963E+04  0.15000000000E+04  0.10566000000E+00 0.  1.
        994   -1    0    0    0    0 -0.00000000000E+00 -0.00000000000E+00  0.11368683772E-12  0.17120000000E+03  0.17120000000E+03 0.  0.
         13    1    1    2    0    0 -0.33198171910E+02  0.32995968405E+02  0.15505161126E+03  0.16196254464E+03  0.10566000000E+00 0.  1.
        994    1    1    2    0    0 -0.33301310876E+02 -0.49699831871E+02  0.19969490925E+02  0.18244799577E+03  0.17120000000E+03 0.  0.
        998    1    1    2    0    0  0.66499482787E+02  0.16703863466E+02  0.13249788941E+04  0.13267894596E+04  0.10000000000E+02 0.  1.
</event>
<event>
 5    1  0.1535793E-008  0.3811090E+03  0.7957747E-01  0.3446344E+00
         13   -1    0    0    0    0  0.00000000000E+00  0.00000000000E+00  0.14999999963E+04  0.15000000000E+04  0.10566000000E+00 0. -1.
        994   -1    0    0    0    0 -0.00000000000E+00 -0.00000000000E+00  0.11368683772E-12  0.17120000000E+03  0.17120000000E+03 0.  0.
         13    1    1    2    0    0 -0.33617400111E+02  0.33589554351E+02  0.23515856970E+03  0.23991238363E+03  0.10566000000E+00 0. -1.
        994    1    1    2    0    0  0.49668403640E+02 -0.38962860334E+02  0.16963262692E+02  0.18325459636E+03  0.17120000000E+03 0.  0.
        998    1    1    2    0    0 -0.16051003530E+02  0.53733059828E+01  0.12478781639E+04  0.12480330200E+04  0.10000000000E+02 0. -1.
</event>
<event>
 5    1  0.1535793E-008  0.3765496E+03  0.7957747E-01  0.3466321E+00
         13   -1    0    0    0    0  0.00000000000E+00  0.00000000000E+00  0.14999999963E+04  0.15000000000E+04  0.10566000000E+00 0. -1.
        994   -1    0    0    0    0 -0.00000000000E+00 -0.00000000000E+00  0.11368683772E-12  0.17120000000E+03  0.17120000000E+03 0.  0.
         13    1    1    2    0    0  0.28746539462E+02 -0.56044184296E+02  0.12869751454E+03  0.14328424735E+03  0.10566000000E+00 0. -1.
        994    1    1    2    0    0 -0.23847144436E+02  0.42225421390E+02  0.22907744242E+02  0.17940422864E+03  0.17120000000E+03 0.  0.
        998    1    1    2    0    0 -0.48993950255E+01  0.13818762907E+02  0.13483947375E+04  0.13485115240E+04  0.10000000000E+02 0. -1.
</event>
<event>
 5    1  0.1535793E-008  0.3768157E+03  0.7957747E-01  0.3465142E+00
         13   -1    0    0    0    0  0.00000000000E+00  0.00000000000E+00  0.14999999963E+04  0.15000000000E+04  0.10566000000E+00 0. -1.
        994   -1    0    0    0    0 -0.00000000000E+00 -0.00000000000E+00  0.11368683772E-12  0.17120000000E+03  0.17120000000E+03 0.  0.
         13    1    1    2    0    0  0.20074820614E+02  0.16620134924E+02  0.49518701025E+02  0.55958379380E+02  0.10566000000E+00 0. -1.
        994    1    1    2    0    0 -0.51967135452E+02 -0.28547506830E+02  0.17720283516E+02  0.18204118150E+03  0.17120000000E+03 0.  0.
        998    1    1    2    0    0  0.31892314838E+02  0.11927371906E+02  0.14327610117E+04  0.14332004391E+04  0.10000000000E+02 0. -1.
</event>
<event>
 5    1  0.1535793E-008  0.3709399E+03  0.7957747E-01  0.3491582E+00
         13   -1    0    0    0    0  0.00000000000E+00  0.00000000000E+00  0.14999999963E+04  0.15000000000E+04  0.10566000000E+00 0. -1.
        994   -1    0    0    0    0 -0.00000000000E+00 -0.00000000000E+00  0.11368683772E-12  0.17120000000E+03  0.17120000000E+03 0.  0.
         13    1    1    2    0    0 -0.23853440981E+02 -0.38095068657E+02  0.11054120358E+03  0.11932975218E+03  0.10566000000E+00 0. -1.
        994    1    1    2    0    0  0.11354122823E+02  0.29540794131E+02  0.12238333555E+02  0.17453020206E+03  0.17120000000E+03 0.  0.
        998    1    1    2    0    0  0.12499318158E+02  0.85542745263E+01  0.13772204591E+04  0.13773400458E+04  0.10000000000E+02 0. -1.
</event>
<event>
 5    1  0.1535793E-008  0.3806294E+03  0.7957747E-01  0.3448422E+00
         13   -1    0    0    0    0  0.00000000000E+00  0.00000000000E+00  0.14999999963E+04  0.15000000000E+04  0.10566000000E+00 0.  1.
        994   -1    0    0    0    0 -0.00000000000E+00 -0.00000000000E+00  0.11368683772E-12  0.17120000000E+03  0.17120000000E+03 0.  0.
         13    1    1    2    0    0  0.24938651972E+02 -0.15774304938E+02  0.13127387760E+03  0.13454964572E+03  0.10566000000E+00 0.  1.
        994    1    1    2    0    0  0.79935475227E+01  0.49778624108E+00  0.40297634649E+01  0.17143460440E+03  0.17120000000E+03 0.  0.
        998    1    1    2    0    0 -0.32932199494E+02  0.15276518697E+02  0.13646963552E+04  0.13652157499E+04  0.10000000000E+02 0.  1.
</event>
<event>
 5    1  0.1535793E-008  0.3767423E+03  0.7957747E-01  0.3465467E+00
         13   -1    0    0    0    0  0.00000000000E+00  0.00000000000E+00  0.14999999963E+04  0.15000000000E+04  0.10566000000E+00 0.  1.
        994   -1    0    0    0    0 -0.00000000000E+00 -0.00000000000E+00  0.11368683772E-12  0.17120000000E+03  0.17120000000E+03 0.  0.
         13    1    1    2    0    0  0.42723853189E+02 -0.14633790418E+02  0.22073282942E+03  0.22530527868E+03  0.10566000000E+00 0.  1.
        994    1    1    2    0    0  0.91704111796E+01  0.30697439727E+01  0.61028029893E+01  0.17158147911E+03  0.17120000000E+03 0.  0.
        998    1    1    2    0    0 -0.51894264369E+02  0.11564046446E+02  0.12731643639E+04  0.12743132422E+04  0.10000000000E+02 0.  1.
</event>
<event>
 5    1  0.1535793E-008  0.3849655E+03  0.7957747E-01  0.3429819E+00
         13   -1    0    0    0    0  0.00000000000E+00  0.00000000000E+00  0.14999999963E+04  0.15000000000E+04  0.10566000000E+00 0.  1.
        994   -1    0    0    0    0 -0.00000000000E+00 -0.00000000000E+00  0.11368683772E-12  0.17120000000E+03  0.17120000000E+03 0.  0.
         13    1    1    2    0    0 -0.15854968210E+02  0.27532154479E+01  0.84545086366E+02  0.86063017637E+02  0.10566000000E+00 0.  1.
        994    1    1    2    0    0 -0.31458630259E+00 -0.48457239519E+01  0.17248456094E+01  0.17127753822E+03  0.17120000000E+03 0.  0.
        998    1    1    2    0    0  0.16169554513E+02  0.20925085041E+01  0.14137300643E+04  0.14138594441E+04  0.10000000000E+02 0.  1.
</event>
<event>
 5    1  0.1535793E-008  0.3771069E+03  0.7957747E-01  0.3463853E+00
         13   -1    0    0    0    0  0.00000000000E+00  0.00000000000E+00  0.14999999963E+04  0.15000000000E+04  0.10566000000E+00 0. -1.
        994   -1    0    0    0    0 -0.00000000000E+00 -0.00000000000E+00  0.11368683772E-12  0.17120000000E+03  0.17120000000E+03 0.  0.
         13    1    1    2    0    0  0.24446924877E+02 -0.39113183070E+02  0.19379813089E+03  0.19921149547E+03  0.10566000000E+00 0. -1.
        994    1    1    2    0    0 -0.16366481688E+02  0.15727461124E+02  0.73416315347E+01  0.17285414172E+03  0.17120000000E+03 0.  0.
        998    1    1    2    0    0 -0.80804431890E+01  0.23385721946E+02  0.12988602339E+04  0.12991343628E+04  0.10000000000E+02 0. -1.
</event>
<event>
 5    1  0.1535793E-008  0.3907120E+03  0.7957747E-01  0.3405802E+00
         13   -1    0    0    0    0  0.00000000000E+00  0.00000000000E+00  0.14999999963E+04  0.15000000000E+04  0.10566000000E+00 0. -1.
        994   -1    0    0    0    0 -0.00000000000E+00 -0.00000000000E+00  0.11368683772E-12  0.17120000000E+03  0.17120000000E+03 0.  0.
         13    1    1    2    0    0  0.12061729092E+03 -0.73662120494E+02  0.39085130597E+03  0.41561928902E+03  0.10566000000E+00 0. -1.
        994    1    1    2    0    0 -0.17002212170E+03 -0.53004719652E+02  0.15476857085E+03  0.29151290313E+03  0.17120000000E+03 0.  0.
        998    1    1    2    0    0  0.49404830775E+02  0.12666684015E+03  0.95438011947E+03  0.96406780785E+03  0.10000000000E+02 0.  1.
</event>
<event>
 5    1  0.1535793E-008  0.3846815E+03  0.7957747E-01  0.3431024E+00
         13   -1    0    0    0    0  0.00000000000E+00  0.00000000000E+00  0.14999999963E+04  0.15000000000E+04  0.10566000000E+00 0. -1.
        994   -1    0    0    0    0 -0.00000000000E+00 -0.00000000000E+00  0.11368683772E-12  0.17120000000E+03  0.17120000000E+03 0.  0.
         13    1    1    2    0    0  0.58300803520E+01  0.10135050240E+02  0.38945035402E+02  0.40662464593E+02  0.10566000000E+00 0. -1.
        994    1    1    2    0    0 -0.84952870545E+01  0.20193673736E+01  0.20394260893E+01  0.17143467271E+03  0.17120000000E+03 0.  0.
        998    1    1    2    0    0  0.26652067025E+01 -0.12154417613E+02  0.14590155348E+04  0.14591028627E+04  0.10000000000E+02 0. -1.
</event>
<event>
 5    1  0.1535793E-008  0.3811752E+03  0.7957747E-01  0.3446057E+00
         13   -1    0    0    0    0  0.00000000000E+00  0.00000000000E+00  0.14999999963E+04  0.15000000000E+04  0.10566000000E+00 0. -1.
        994   -1    0    0    0    0 -0.00000000000E+00 -0.00000000000E+00  0.11368683772E-12  0.17120000000E+03  0.17120000000E+03 0.  0.
         13    1    1    2    0    0  0.20472441098E+02  0.30852314122E+02  0.18050766509E+03  0.18426615113E+03  0.10566000000E+00 0. -1.
        994    1    1    2    0    0 -0.23058459699E+02 -0.20960058406E+02  0.67812780220E+01  0.17414488894E+03  0.17120000000E+03 0.  0.
        998    1    1    2    0    0  0.25860186014E+01 -0.98922557158E+01  0.13127110532E+04  0.13127889599E+04  0.10000000000E+02 0. -1.
</event>
<event>
 5    1  0.1535793E-008  0.3762280E+03  0.7957747E-01  0.3467749E+00
         13   -1    0    0    0    0  0.00000000000E+00  0.00000000000E+00  0.14999999963E+04  0.15000000000E+04  0.10566000000E+00 0. -1.
        994   -1    0    0    0    0 -0.00000000000E+00 -0.00000000000E+00  0.11368683772E-12  0.17120000000E+03  0.17120000000E+03 0.  0.
         13    1    1    2    0    0 -0.12196094643E+02 -0.74520606233E+01  0.13617065939E+02  0.19741164629E+02  0.10566000000E+00 0. -1.
        994    1    1    2    0    0  0.16253284721E+02  0.27913732993E+02  0.95894902284E+01  0.17448422300E+03  0.17120000000E+03 0.  0.
        998    1    1    2    0    0 -0.40571900781E+01 -0.20461672370E+02  0.14767934401E+04  0.14769746124E+04  0.10000000000E+02 0. -1.
</event>
<event>
 5    1  0.1535793E-008  0.3712663E+03  0.7957747E-01  0.3490092E+00
         13   -1    0    0    0    0  0.00000000000E+00  0.00000000000E+00  0.14999999963E+04  0.15000000000E+04  0.10566000000E+00 0. -1.
        994   -1    0    0    0    0 -0.00000000000E+00 -0.00000000000E+00  0.11368683772E-12  0.17120000000E+03  0.17120000000E+03 0.  0.
         13    1    1    2    0    0 -0.41559675436E+02  0.43643403816E+02  0.18952415649E+03  0.19887526336E+03  0.10566000000E+00 0. -1.
        994    1    1    2    0    0  0.46183683487E+02 -0.30019633471E+02  0.19127385445E+02  0.18085742420E+03  0.17120000000E+03 0.  0.
        998    1    1    2    0    0 -0.46240080507E+01 -0.13623770345E+02  0.12913484543E+04  0.12914673124E+04  0.10000000000E+02 0. -1.
</event>
<event>
 5    1  0.1535793E-008  0.3767648E+03  0.7957747E-01  0.3465367E+00
         13   -1    0    0    0    0  0.00000000000E+00  0.00000000000E+00  0.14999999963E+04  0.15000000000E+04  0.10566000000E+00 0.  1.
        994   -1    0    0    0    0 -0.00000000000E+00 -0.00000000000E+00  0.11368683772E-12  0.17120000000E+03  0.17120000000E+03 0.  0.
         13    1    1    2    0    0  0.12192747214E+01 -0.16403482779E+02  0.21063384215E+02  0.26725235204E+02  0.10566000000E+00 0.  1.
        994    1    1    2    0    0  0.11474716893E+02  0.10563560277E+02  0.65976463704E+01  0.17203553956E+03  0.17120000000E+03 0.  0.
        998    1    1    2    0    0 -0.12693991615E+02  0.58399225013E+01  0.14723389657E+04  0.14724392252E+04  0.10000000000E+02 0.  1.
</event>
<event>
 5    1  0.1535793E-008  0.3832965E+03  0.7957747E-01  0.3436929E+00
         13   -1    0    0    0    0  0.00000000000E+00  0.00000000000E+00  0.14999999963E+04  0.15000000000E+04  0.10566000000E+00 0.  1.
        994   -1    0    0    0    0 -0.00000000000E+00 -0.00000000000E+00  0.11368683772E-12  0.17120000000E+03  0.17120000000E+03 0.  0.
         13    1    1    2    0    0 -0.21277402416E+02  0.51892313875E+01  0.97456626256E+02  0.99887242134E+02  0.10566000000E+00 0.  1.
        994    1    1    2    0    0  0.11058856128E+02 -0.31526387613E+01  0.29156611057E+01  0.17161054312E+03  0.17120000000E+03 0.  0.
        998    1    1    2    0    0  0.10218546288E+02 -0.20365926261E+01  0.13996277089E+04  0.13997022147E+04  0.10000000000E+02 0.  1.
</event>
<event>
 5    1  0.1535793E-008  0.3843661E+03  0.7957747E-01  0.3432365E+00
         13   -1    0    0    0    0  0.00000000000E+00  0.00000000000E+00  0.14999999963E+04  0.15000000000E+04  0.10566000000E+00 0.  1.
        994   -1    0    0    0    0 -0.00000000000E+00 -0.00000000000E+00  0.11368683772E-12  0.17120000000E+03  0.17120000000E+03 0.  0.
         13    1    1    2    0    0 -0.16986437594E+02 -0.92140403252E+01  0.11542899050E+03  0.11703546733E+03  0.10566000000E+00 0.  1.
        994    1    1    2    0    0 -0.10389104532E+02 -0.38766614828E+01  0.23505235370E+01  0.17157484361E+03  0.17120000000E+03 0.  0.
        998    1    1    2    0    0  0.27375542126E+02  0.13090701808E+02  0.13822204822E+04  0.13825896891E+04  0.10000000000E+02 0.  1.
</event>
<event>
 5    1  0.1535793E-008  0.3793168E+03  0.7957747E-01  0.3454139E+00
         13   -1    0    0    0    0  0.00000000000E+00  0.00000000000E+00  0.14999999963E+04  0.15000000000E+04  0.10566000000E+00 0.  1.
        994   -1    0    0    0    0 -0.00000000000E+00 -0.00000000000E+00  0.11368683772E-12  0.17120000000E+03  0.17120000000E+03 0.  0.
         13    1    1    2    0    0  0.92934329728E+01 -0.10377122766E+02  0.19560472771E+02  0.24014075714E+02  0.10566000000E+00 0.  1.
        994    1    1    2    0    0 -0.89581282168E+01  0.10819582233E+02  0.51397655050E+01  0.17185217080E+03  0.17120000000E+03 0.  0.
        998    1    1    2    0    0 -0.33530475596E+00 -0.44245946720E+00  0.14752997580E+04  0.14753337535E+04  0.10000000000E+02 0.  1.
</event>
<event>
 5    1  0.1535793E-008  0.3854393E+03  0.7957747E-01  0.3427811E+00
         13   -1    0    0    0    0  0.00000000000E+00  0.00000000000E+00  0.14999999963E+04  0.15000000000E+04  0.10566000000E+00 0. -1.
        994   -1    0    0    0    0 -0.00000000000E+00 -0.00000000000E+00  0.11368683772E-12  0.17120000000E+03  0.17120000000E+03 0.  0.
         13    1    1    2    0    0 -0.46266996094E+01 -0.92225833095E+01  0.37479582494E+02  0.38874061533E+02  0.10566000000E+00 0. -1.
        994    1    1    2    0    0  0.12695772573E+00  0.93232196546E+01  0.16977625664E+01  0.17146212684E+03  0.17120000000E+03 0.  0.
        998    1    1    2    0    0  0.44997418837E+01 -0.10063634509E+00  0.14608226512E+04  0.14608638116E+04  0.10000000000E+02 0. -1.
</event>
<event>
 5    1  0.1535793E-008  0.3733624E+03  0.7957747E-01  0.3480579E+00
         13   -1    0    0    0    0  0.00000000000E+00  0.00000000000E+00  0.14999999963E+04  0.15000000000E+04  0.10566000000E+00 0. -1.
        994   -1    0    0    0    0 -0.00000000000E+00 -0.00000000000E+00  0.11368683772E-12  0.17120000000E+03  0.17120000000E+03 0.  0.
         13    1    1    2    0    0  0.10305188125E+02 -0.23662883103E+02  0.42376050651E+02  0.49617232609E+02  0.10566000000E+00 0. -1.
        994    1    1    2    0    0 -0.63812764299E+01  0.62899393412E+01  0.77965662115E+01  0.17161151031E+03  0.17120000000E+03 0.  0.
        998    1    1    2    0    0 -0.39239116947E+01  0.17372943762E+02  0.14498273794E+04  0.14499712571E+04  0.10000000000E+02 0. -1.
</event>
<event>
 5    1  0.1535793E-008  0.3825697E+03  0.7957747E-01  0.3440045E+00
         13   -1    0    0    0    0  0.00000000000E+00  0.00000000000E+00  0.14999999963E+04  0.15000000000E+04  0.10566000000E+00 0. -1.
        994   -1    0    0    0    0 -0.00000000000E+00 -0.00000000000E+00  0.11368683772E-12  0.17120000000E+03  0.17120000000E+03 0.  0.
         13    1    1    2    0    0 -0.16955096879E+02 -0.35170419138E+02  0.22644904932E+03  0.22979037577E+03  0.10566000000E+00 0. -1.
        994    1    1    2    0    0  0.18309447357E+02  0.36332992730E+02  0.83480809252E+01  0.17616598048E+03  0.17120000000E+03 0.  0.
        998    1    1    2    0    0 -0.13543504782E+01 -0.11625735915E+01  0.12652028660E+04  0.12652436438E+04  0.10000000000E+02 0.  0.
</event>
<event>
 5    1  0.1535793E-008  0.3825321E+03  0.7957747E-01  0.3440207E+00
         13   -1    0    0    0    0  0.00000000000E+00  0.00000000000E+00  0.14999999963E+04  0.15000000000E+04  0.10566000000E+00 0. -1.
        994   -1    0    0    0    0 -0.00000000000E+00 -0.00000000000E+00  0.11368683772E-12  0.17120000000E+03  0.17120000000E+03 0.  0.
         13    1    1    2    0    0  0.30847783886E+01  0.10021324096E+02  0.17867599931E+02  0.20717265401E+02  0.10566000000E+00 0. -1.
        994    1    1    2    0    0 -0.99810513222E+00 -0.12078094783E+02  0.33474424926E+01  0.17166106710E+03  0.17120000000E+03 0.  0.
        998    1    1    2    0    0 -0.20866732564E+01  0.20567706864E+01  0.14787849539E+04  0.14788216675E+04  0.10000000000E+02 0. -1.
</event>
<event>
 5    1  0.1535793E-008  0.3849425E+03  0.7957747E-01  0.3429916E+00
         13   -1    0    0    0    0  0.00000000000E+00  0.00000000000E+00  0.14999999963E+04  0.15000000000E+04  0.10566000000E+00 0. -1.
        994   -1    0    0    0    0 -0.00000000000E+00 -0.00000000000E+00  0.11368683772E-12  0.17120000000E+03  0.17120000000E+03 0.  0.
         13    1    1    2    0    0 -0.14055015517E+02  0.81376883295E+01  0.67983220027E+02  0.69896314651E+02  0.10566000000E+00 0. -1.
        994    1    1    2    0    0  0.17792342464E+02 -0.42212654934E+02  0.85918401990E+01  0.17743093136E+03  0.17120000000E+03 0.  0.
        998    1    1    2    0    0 -0.37373269477E+01  0.34074966605E+02  0.14234249361E+04  0.14238727540E+04  0.10000000000E+02 0. -1.
</event>
<event>
 5    1  0.1535793E-008  0.3816240E+03  0.7957747E-01  0.3444118E+00
         13   -1    0    0    0    0  0.00000000000E+00  0.00000000000E+00  0.14999999963E+04  0.15000000000E+04  0.10566000000E+00 0. -1.
        994   -1    0    0    0    0 -0.00000000000E+00 -0.00000000000E+00  0.11368683772E-12  0.17120000000E+03  0.17120000000E+03 0.  0.
         13    1    1    2    0    0  0.23543099288E+02  0.20622461172E+02  0.16176933293E+03  0.16476920728E+03  0.10566000000E+00 0. -1.
        994    1    1    2    0    0 -0.96309491030E+01  0.29561674841E+01  0.36531666055E+01  0.17153506852E+03  0.17120000000E+03 0.  0.
        998    1    1    2    0    0 -0.13912150185E+02 -0.23578628657E+02  0.13345774967E+04  0.13348957242E+04  0.10000000000E+02 0. -1.
</event>
<event>
 5    1  0.1535793E-008  0.3830648E+03  0.7957747E-01  0.3437921E+00
         13   -1    0    0    0    0  0.00000000000E+00  0.00000000000E+00  0.14999999963E+04  0.15000000000E+04  0.10566000000E+00 0. -1.
        994   -1    0    0    0    0 -0.00000000000E+00 -0.00000000000E+00  0.11368683772E-12  0.17120000000E+03  0.17120000000E+03 0.  0.
         13    1    1    2    0    0  0.95243771911E+01 -0.91589476196E+01  0.35543238169E+02  0.37920087368E+02  0.10566000000E+00 0. -1.
        994    1    1    2    0    0  0.69885419240E+00 -0.15675228686E+02  0.34092087142E+01  0.17195134165E+03  0.17120000000E+03 0.  0.
        998    1    1    2    0    0 -0.10223231384E+02  0.24834176305E+02  0.14610475494E+04  0.14613285710E+04  0.10000000000E+02 0. -1.
</event>
<event>
 5    1  0.1535793E-008  0.3840702E+03  0.7957747E-01  0.3433625E+00
         13   -1    0    0    0    0  0.00000000000E+00  0.00000000000E+00  0.14999999963E+04  0.15000000000E+04  0.10566000000E+00 0. -1.
        994   -1    0    0    0    0 -0.00000000000E+00 -0.00000000000E+00  0.11368683772E-12  0.17120000000E+03  0.17120000000E+03 0.  0.
         13    1    1    2    0    0  0.18036736674E+02 -0.58259092457E+01  0.83834176763E+02  0.85950249830E+02  0.10566000000E+00 0. -1.
        994    1    1    2    0    0 -0.12155725458E+02  0.11686562461E+02  0.30309601359E+01  0.17205511943E+03  0.17120000000E+03 0.  0.
        998    1    1    2    0    0 -0.58810112167E+01 -0.58606532158E+01  0.14131348594E+04  0.14131946307E+04  0.10000000000E+02 0. -1.
</event>
<event>
 5    1  0.1535793E-008  0.3790377E+03  0.7957747E-01  0.3455359E+00
         13   -1    0    0    0    0  0.00000000000E+00  0.00000000000E+00  0.14999999963E+04  0.15000000000E+04  0.10566000000E+00 0.  1.
        994   -1    0    0    0    0 -0.00000000000E+00 -0.00000000000E+00  0.11368683772E-12  0.17120000000E+03  0.17120000000E+03 0.  0.
         13    1    1    2    0    0  0.13328792596E+02  0.18712032658E+02  0.54216247703E+02  0.58883015865E+02  0.10566000000E+00 0.  1.
        994    1    1    2    0    0 -0.17714244781E+02 -0.12695860673E+02  0.62142208904E+01  0.17269347378E+03  0.17120000000E+03 0.  0.
        998    1    1    2    0    0  0.43854521847E+01 -0.60161719848E+01  0.14395695277E+04  0.14396235104E+04  0.10000000000E+02 0.  1.
</event>
<event>
 5    1  0.1535793E-008  0.3730776E+03  0.7957747E-01  0.3481865E+00
         13   -1    0    0    0    0  0.00000000000E+00  0.00000000000E+00  0.14999999963E+04  0.15000000000E+04  0.10566000000E+00 0.  1.
        994   -1    0    0    0    0 -0.00000000000E+00 -0.00000000000E+00  0.11368683772E-12  0.17120000000E+03  0.17120000000E+03 0.  0.
         13    1    1    2    0    0 -0.97031968173E+01  0.14355083695E+02  0.16408405557E+02  0.23863515946E+02  0.10566000000E+00 0.  1.
        994    1    1    2    0    0  0.67497646506E+01 -0.49285430866E+01  0.79082703745E+01  0.17158621914E+03  0.17120000000E+03 0.  0.
        998    1    1    2    0    0  0.29534321667E+01 -0.94265406087E+01  0.14756833203E+04  0.14757502649E+04  0.10000000000E+02 0.  1.
</event>
<event>
 5    1  0.1535793E-008  0.3816951E+03  0.7957747E-01  0.3443811E+00
         13   -1    0    0    0    0  0.00000000000E+00  0.00000000000E+00  0.14999999963E+04  0.15000000000E+04  0.10566000000E+00 0.  1.
        994   -1    0    0    0    0 -0.00000000000E+00 -0.00000000000E+00  0.11368683772E-12  0.17120000000E+03  0.17120000000E+03 0.  0.
         13    1    1    2    0    0 -0.10315235156E+02  0.25852835355E+02  0.10456993918E+03  0.10821116632E+03  0.10566000000E+00 0.  1.
        994    1    1    2    0    0  0.33626453368E+01 -0.38128011535E+02  0.81655302413E+01  0.17561653832E+03  0.17120000000E+03 0.  0.
        998    1    1    2    0    0  0.69525898195E+01  0.12275176180E+02  0.13872645269E+04  0.13873722954E+04  0.10000000000E+02 0.  1.
</event>
<event>
 5    1  0.1639819E-008  0.3847152E+03  0.7957747E-01  0.3430881E+00
         13   -1    0    0    0    0  0.00000000000E+00  0.00000000000E+00  0.14999999963E+04  0.15000000000E+04  0.10566000000E+00 0.  1.
        994   -1    0    0    0    0 -0.00000000000E+00 -0.00000000000E+00  0.11368683772E-12  0.17120000000E+03  0.17120000000E+03 0.  0.
         13    1    1    2    0    0 -0.12292749548E+02 -0.30435050427E+01  0.44096593761E+02  0.45879138611E+02  0.10566000000E+00 0.  1.
        994    1    1    2    0    0  0.11655988099E+02  0.58388135846E+01  0.23312345410E+01  0.17171146862E+03  0.17120000000E+03 0.  0.
        998    1    1    2    0    0  0.63676144910E+00 -0.27953085419E+01  0.14535721680E+04  0.14536093928E+04  0.10000000000E+02 0.  1.
</event>
<event>
 5    1  0.1535793E-008  0.3779413E+03  0.7957747E-01  0.3460172E+00
         13   -1    0    0    0    0  0.00000000000E+00  0.00000000000E+00  0.14999999963E+04  0.15000000000E+04  0.10566000000E+00 0. -1.
        994   -1    0    0    0    0 -0.00000000000E+00 -0.00000000000E+00  0.11368683772E-12  0.17120000000E+03  0.17120000000E+03 0.  0.
         13    1    1    2    0    0  0.48999200617E+02  0.22125193122E+02  0.26811390199E+03  0.27345113171E+03  0.10566000000E+00 0. -1.
        994    1    1    2    0    0 -0.36427121381E+02 -0.48555018988E+01  0.97350378214E+01  0.17537024272E+03  0.17120000000E+03 0.  0.
        998    1    1    2    0    0 -0.12572079236E+02 -0.17269691223E+02  0.12221510565E+04  0.12223786256E+04  0.10000000000E+02 0. -1.
</event>
<event>
 5    1  0.1535793E-008  0.3715388E+03  0.7957747E-01  0.3488848E+00
         13   -1    0    0    0    0  0.00000000000E+00  0.00000000000E+00  0.14999999963E+04  0.15000000000E+04  0.10566000000E+00 0.  1.
        994   -1    0    0    0    0 -0.00000000000E+00 -0.00000000000E+00  0.11368683772E-12  0.17120000000E+03  0.17120000000E+03 0.  0.
         13    1    1    2    0    0  0.73430221916E+02  0.40354089754E+02  0.25904040155E+03  0.27225427609E+03  0.10566000000E+00 0.  1.
        994    1    1    2    0    0 -0.54000581370E+02 -0.54234487102E+02  0.32638635599E+02  0.19034747940E+03  0.17120000000E+03 0.  0.
        998    1    1    2    0    0 -0.19429640546E+02  0.13880397348E+02  0.12083209591E+04  0.12085982445E+04  0.10000000000E+02 0.  1.
</event>
<event>
 5    1  0.1535793E-008  0.3718379E+03  0.7957747E-01  0.3487486E+00
         13   -1    0    0    0    0  0.00000000000E+00  0.00000000000E+00  0.14999999963E+04  0.15000000000E+04  0.10566000000E+00 0. -1.
        994   -1    0    0    0    0 -0.00000000000E+00 -0.00000000000E+00  0.11368683772E-12  0.17120000000E+03  0.17120000000E+03 0.  0.
         13    1    1    2    0    0  0.60366697236E+01  0.37233237044E+02  0.77896763835E+02  0.86548670135E+02  0.10566000000E+00 0. -1.
        994    1    1    2    0    0 -0.20296161283E+02 -0.37770570597E+02  0.14655109288E+02  0.17709534831E+03  0.17120000000E+03 0.  0.
        998    1    1    2    0    0  0.14259491560E+02  0.53733355302E+00  0.14074481232E+04  0.14075559816E+04  0.10000000000E+02 0. -1.
</event>
<event>
 5    1  0.1535793E-008  0.3809997E+03  0.7957747E-01  0.3446817E+00
         13   -1    0    0    0    0  0.00000000000E+00  0.00000000000E+00  0.14999999963E+04  0.15000000000E+04  0.10566000000E+00 0.  1.
        994   -1    0    0    0    0 -0.00000000000E+00 -0.00000000000E+00  0.11368683772E-12  0.17120000000E+03  0.17120000000E+03 0.  0.
         13    1    1    2    0    0  0.43989298326E+02  0.83702485291E+01  0.22388481931E+03  0.22831894995E+03  0.10566000000E+00 0.  1.
        994    1    1    2    0    0 -0.45817041400E+02 -0.43473367883E+02  0.17036955599E+02  0.18327256438E+03  0.17120000000E+03 0.  0.
        998    1    1    2    0    0  0.18277430741E+01  0.35103119354E+02  0.12590782214E+04  0.12596084857E+04  0.10000000000E+02 0.  1.
</event>
<event>
 5    1  0.1535793E-008  0.3864231E+03  0.7957747E-01  0.3423659E+00
         13   -1    0    0    0    0  0.00000000000E+00  0.00000000000E+00  0.14999999963E+04  0.15000000000E+04  0.10566000000E+00 0.  1.
        994   -1    0    0    0    0 -0.00000000000E+00 -0.00000000000E+00  0.11368683772E-12  0.17120000000E+03  0.17120000000E+03 0.  0.
         13    1    1    2    0    0  0.63734293923E+01  0.93894919814E+01  0.58352554217E+02  0.59445899014E+02  0.10566000000E+00 0.  1.
        994    1    1    2    0    0 -0.23040543054E+02 -0.24716728484E+02  0.46718373855E+01  0.17456531544E+03  0.17120000000E+03 0.  0.
        998    1    1    2    0    0  0.16667113662E+02  0.15327236502E+02  0.14369756047E+04  0.14371887855E+04  0.10000000000E+02 0.  1.
</event>
<event>
 5    1  0.1535793E-008  0.3760203E+03  0.7957747E-01  0.3468672E+00
         13   -1    0    0    0    0  0.00000000000E+00  0.00000000000E+00  0.14999999963E+04  0.15000000000E+04  0.10566000000E+00 0. -1.
        994   -1    0    0    0    0 -0.00000000000E+00 -0.00000000000E+00  0.11368683772E-12  0.17120000000E+03  0.17120000000E+03 0.  0.
         13    1    1    2    0    0  0.36816181827E+02  0.70814479976E+01  0.11810974902E+03  0.12391731973E+03  0.10566000000E+00 0. -1.
        994    1    1    2    0    0 -0.12110062294E+02  0.23014777348E+01  0.66706071848E+01  0.17177277843E+03  0.17120000000E+03 0.  0.
        998    1    1    2    0    0 -0.24706119533E+02 -0.93829257324E+01  0.13752196401E+04  0.13755099018E+04  0.10000000000E+02 0. -1.
</event>
<event>
 5    1  0.1535793E-008  0.3841578E+03  0.7957747E-01  0.3433252E+00
         13   -1    0    0    0    0  0.00000000000E+00  0.00000000000E+00  0.14999999963E+04  0.15000000000E+04  0.10566000000E+00 0.  1.
        994   -1    0    0    0    0 -0.00000000000E+00 -0.00000000000E+00  0.11368683772E-12  0.17120000000E+03  0.17120000000E+03 0.  0.
         13    1    1    2    0    0  0.41260343980E+01  0.16674811136E+02  0.70641475968E+02  0.72700087876E+02  0.10566000000E+00 0.  1.
        994    1    1    2    0    0 -0.49585906159E+01 -0.12699814955E+02  0.26620593876E+01  0.17176262539E+03  0.17120000000E+03 0.  0.
        998    1    1    2    0    0  0.83255621788E+00 -0.39749961804E+01  0.14266964609E+04  0.14267372867E+04  0.10000000000E+02 0.  1.
</event>
<event>
 5    1  0.1535793E-008  0.3818393E+03  0.7957747E-01  0.3443189E+00
         13   -1    0    0    0    0  0.00000000000E+00  0.00000000000E+00  0.14999999963E+04  0.15000000000E+04  0.10566000000E+00 0.  1.
        994   -1    0    0    0    0 -0.00000000000E+00 -0.00000000000E+00  0.11368683772E-12  0.17120000000E+03  0.17120000000E+03 0.  0.
         13    1    1    2    0    0 -0.81404901315E+01 -0.13341019622E+02  0.36114205890E+02  0.39350951897E+02  0.10566000000E+00 0.  1.
        994    1    1    2    0    0  0.78394647773E+01  0.14659736595E+02  0.41263559596E+01  0.17205473518E+03  0.17120000000E+03 0.  0.
        998    1    1    2    0    0  0.30102535424E+00 -0.13187169735E+01  0.14597594344E+04  0.14597943129E+04  0.10000000000E+02 0.  1.
</event>
<event>
 5    1  0.1535793E-008  0.3775966E+03  0.7957747E-01  0.3461691E+00
         13   -1    0    0    0    0  0.00000000000E+00  0.00000000000E+00  0.14999999963E+04  0.15000000000E+04  0.10566000000E+00 0. -1.
        994   -1    0    0    0    0 -0.00000000000E+00 -0.00000000000E+00  0.11368683772E-12  0.17120000000E+03  0.17120000000E+03 0.  0.
         13    1    1    2    0    0  0.10728817860E+02  0.37555171920E+02  0.16058451508E+03  0.16526613724E+03  0.10566000000E+00 0. -1.
        994    1    1    2    0    0 -0.24122539028E+01 -0.13427962244E+00  0.53710019230E+01  0.17130126871E+03  0.17120000000E+03 0.  0.
        998    1    1    2    0    0 -0.83165639576E+01 -0.37420892298E+02  0.13340444793E+04  0.13346325940E+04  0.10000000000E+02 0. -1.
</event>
<event>
 5    1  0.1535793E-008  0.3850581E+03  0.7957747E-01  0.3429426E+00
         13   -1    0    0    0    0  0.00000000000E+00  0.00000000000E+00  0.14999999963E+04  0.15000000000E+04  0.10566000000E+00 0. -1.
        994   -1    0    0    0    0 -0.00000000000E+00 -0.00000000000E+00  0.11368683772E-12  0.17120000000E+03  0.17120000000E+03 0.  0.
         13    1    1    2    0    0 -0.16965298857E+01 -0.13543332869E+02  0.59203814043E+02  0.60756915985E+02  0.10566000000E+00 0. -1.
        994    1    1    2    0    0  0.17380675280E+00  0.62649023701E+01  0.17304723820E+01  0.17132341855E+03  0.17120000000E+03 0.  0.
        998    1    1    2    0    0  0.15227231329E+01  0.72784304985E+01  0.14390657099E+04  0.14391196655E+04  0.10000000000E+02 0. -1.
</event>
<event>
 5    1  0.1535793E-008  0.3851903E+03  0.7957747E-01  0.3428865E+00
         13   -1    0    0    0    0  0.00000000000E+00  0.00000000000E+00  0.14999999963E+04  0.15000000000E+04  0.10566000000E+00 0.  1.
        994   -1    0    0    0    0 -0.00000000000E+00 -0.00000000000E+00  0.11368683772E-12  0.17120000000E+03  0.17120000000E+03 0.  0.
         13    1    1    2    0    0  0.14433486591E+02 -0.84445645355E+01  0.95693355477E+02  0.97143531189E+02  0.10566000000E+00 0.  1.
        994    1    1    2    0    0 -0.64333140306E+01 -0.14354401964E+01  0.16784960874E+01  0.17133506753E+03  0.17120000000E+03 0.  0.
        998    1    1    2    0    0 -0.80001725605E+01  0.98800047318E+01  0.14026281447E+04  0.14027214013E+04  0.10000000000E+02 0.  1.
</event>
<event>
 5    1  0.1535793E-008  0.3708384E+03  0.7957747E-01  0.3492047E+00
         13   -1    0    0    0    0  0.00000000000E+00  0.00000000000E+00  0.14999999963E+04  0.15000000000E+04  0.10566000000E+00 0.  1.
        994   -1    0    0    0    0 -0.00000000000E+00 -0.00000000000E+00  0.11368683772E-12  0.17120000000E+03  0.17120000000E+03 0.  0.
         13    1    1    2    0    0  0.29250979125E+02  0.14059892424E+01  0.33406654535E+02  0.44425356687E+02  0.10566000000E+00 0.  1.
        994    1    1    2    0    0 -0.17009812923E+02  0.39174886994E+01  0.12451785884E+02  0.17253743775E+03  0.17120000000E+03 0.  0.
        998    1    1    2    0    0 -0.12241166202E+02 -0.53234779418E+01  0.14541415559E+04  0.14542372056E+04  0.10000000000E+02 0.  1.
</event>
<event>
 5    1  0.1535793E-008  0.3808326E+03  0.7957747E-01  0.3447541E+00
         13   -1    0    0    0    0  0.00000000000E+00  0.00000000000E+00  0.14999999963E+04  0.15000000000E+04  0.10566000000E+00 0.  1.
        994   -1    0    0    0    0 -0.00000000000E+00 -0.00000000000E+00  0.11368683772E-12  0.17120000000E+03  0.17120000000E+03 0.  0.
         13    1    1    2    0    0  0.16770620299E+02  0.21964891524E+02  0.10891962514E+03  0.11237084173E+03  0.10566000000E+00 0.  1.
        994    1    1    2    0    0 -0.49190622738E+01 -0.19189509496E+01  0.38063843648E+01  0.17132369395E+03  0.17120000000E+03 0.  0.
        998    1    1    2    0    0 -0.11851558025E+02 -0.20045940574E+02  0.13872739868E+04  0.13875054643E+04  0.10000000000E+02 0.  1.
</event>
<event>
 5    1  0.1535793E-008  0.3768818E+03  0.7957747E-01  0.3464849E+00
         13   -1    0    0    0    0  0.00000000000E+00  0.00000000000E+00  0.14999999963E+04  0.15000000000E+04  0.10566000000E+00 0. -1.
        994   -1    0    0    0    0 -0.00000000000E+00 -0.00000000000E+00  0.11368683772E-12  0.17120000000E+03  0.17120000000E+03 0.  0.
         13    1    1    2    0    0 -0.61564099942E+01  0.30516292627E+02  0.91376115982E+02  0.96533679282E+02  0.10566000000E+00 0. -1.
        994    1    1    2    0    0  0.23805000009E+01  0.42212094928E+01  0.57948814134E+01  0.17136658379E+03  0.17120000000E+03 0.  0.
        998    1    1    2    0    0  0.37759099933E+01 -0.34737502120E+02  0.14028289989E+04  0.14032997369E+04  0.10000000000E+02 0. -1.
</event>
<event>
 5    1  0.1535793E-008  0.3821957E+03  0.7957747E-01  0.3441653E+00
         13   -1    0    0    0    0  0.00000000000E+00  0.00000000000E+00  0.14999999963E+04  0.15000000000E+04  0.10566000000E+00 0. -1.
        994   -1    0    0    0    0 -0.00000000000E+00 -0.00000000000E+00  0.11368683772E-12  0.17120000000E+03  0.17120000000E+03 0.  0.
         13    1    1    2    0    0 -0.54153128076E+01  0.12206986398E+02  0.28296599591E+02  0.31289692267E+02  0.10566000000E+00 0. -1.
        994    1    1    2    0    0  0.43474230761E+01 -0.83996716443E+01  0.33257737738E+01  0.17149330991E+03  0.17120000000E+03 0.  0.
        998    1    1    2    0    0  0.10678897315E+01 -0.38073147538E+01  0.14683776229E+04  0.14684169978E+04  0.10000000000E+02 0. -1.
</event>
<event>
 5    1  0.1535793E-008  0.3834838E+03  0.7957747E-01  0.3436128E+00
         13   -1    0    0    0    0  0.00000000000E+00  0.00000000000E+00  0.14999999963E+04  0.15000000000E+04  0.10566000000E+00 0. -1.
        994   -1    0    0    0    0 -0.00000000000E+00 -0.00000000000E+00  0.11368683772E-12  0.17120000000E+03  0.17120000000E+03 0.  0.
         13    1    1    2    0    0  0.91436576037E+01 -0.22472996016E+02  0.11742730307E+03  0.11990756729E+03  0.10566000000E+00 0. -1.
        994    1    1    2    0    0 -0.12722195817E+02  0.17716742352E+02  0.39585973821E+01  0.17262922035E+03  0.17120000000E+03 0.  0.
        998    1    1    2    0    0  0.35785382132E+01  0.47562536644E+01  0.13786140958E+04  0.13786632124E+04  0.10000000000E+02 0. -1.
</event>
<event>
 5    1  0.1535793E-008  0.3815168E+03  0.7957747E-01  0.3444581E+00
         13   -1    0    0    0    0  0.00000000000E+00  0.00000000000E+00  0.14999999963E+04  0.15000000000E+04  0.10566000000E+00 0.  1.
        994   -1    0    0    0    0 -0.00000000000E+00 -0.00000000000E+00  0.11368683772E-12  0.17120000000E+03  0.17120000000E+03 0.  0.
         13    1    1    2    0    0  0.12655488669E+02 -0.22782198918E+02  0.98899410525E+02  0.10227558138E+03  0.10566000000E+00 0.  1.
        994    1    1    2    0    0 -0.10780477436E+02  0.13879403033E+02  0.43974387918E+01  0.17215584216E+03  0.17120000000E+03 0.  0.
        998    1    1    2    0    0 -0.18750112326E+01  0.89027958848E+01  0.13967031470E+04  0.13967685765E+04  0.10000000000E+02 0.  1.
</event>
<event>
 5    1  0.1535793E-008  0.3803051E+03  0.7957747E-01  0.3449831E+00
         13   -1    0    0    0    0  0.00000000000E+00  0.00000000000E+00  0.14999999963E+04  0.15000000000E+04  0.10566000000E+00 0. -1.
        994   -1    0    0    0    0 -0.00000000000E+00 -0.00000000000E+00  0.11368683772E-12  0.17120000000E+03  0.17120000000E+03 0.  0.
         13    1    1    2    0    0 -0.30102559695E+01 -0.22862264806E+02  0.65100486080E+02  0.69063950401E+02  0.10566000000E+00 0. -1.
        994    1    1    2    0    0 -0.78779525706E+01  0.16920287169E+02  0.51434220771E+01  0.17229118679E+03  0.17120000000E+03 0.  0.
        998    1    1    2    0    0  0.10888208540E+02  0.59419776374E+01  0.14297560881E+04  0.14298448628E+04  0.10000000000E+02 0. -1.
</event>
<event>
 5    1  0.1535793E-008  0.3798856E+03  0.7957747E-01  0.3451657E+00
         13   -1    0    0    0    0  0.00000000000E+00  0.00000000000E+00  0.14999999963E+04  0.15000000000E+04  0.10566000000E+00 0. -1.
        994   -1    0    0    0    0 -0.00000000000E+00 -0.00000000000E+00  0.11368683772E-12  0.17120000000E+03  0.17120000000E+03 0.  0.
         13    1    1    2    0    0 -0.95576308269E+02  0.52225061157E+02  0.33347196662E+03  0.35080742780E+03  0.10566000000E+00 0. -1.
        994    1    1    2    0    0  0.46824399370E+02 -0.80893166669E+02  0.48634745796E+02  0.20102489221E+03  0.17120000000E+03 0.  0.
        998    1    1    2    0    0  0.48751908898E+02  0.28668105511E+02  0.11178932839E+04  0.11193676800E+04  0.10000000000E+02 0. -1.
</event>
<event>
 5    1  0.1535793E-008  0.3816551E+03  0.7957747E-01  0.3443983E+00
         13   -1    0    0    0    0  0.00000000000E+00  0.00000000000E+00  0.14999999963E+04  0.15000000000E+04  0.10566000000E+00 0.  1.
        994   -1    0    0    0    0 -0.00000000000E+00 -0.00000000000E+00  0.11368683772E-12  0.17120000000E+03  0.17120000000E+03 0.  0.
         13    1    1    2    0    0  0.34825400210E+01  0.16459756526E+02  0.40569975864E+02  0.43920220577E+02  0.10566000000E+00 0.  1.
        994    1    1    2    0    0 -0.29279906808E+01 -0.18355836257E+02  0.44495476969E+01  0.17226360129E+03  0.17120000000E+03 0.  0.
        998    1    1    2    0    0 -0.55454934022E+00  0.18960797310E+01  0.14549804727E+04  0.14550161781E+04  0.10000000000E+02 0.  1.
</event>
<event>
 5    1  0.1535793E-008  0.3828494E+03  0.7957747E-01  0.3438845E+00
         13   -1    0    0    0    0  0.00000000000E+00  0.00000000000E+00  0.14999999963E+04  0.15000000000E+04  0.10566000000E+00 0. -1.
        994   -1    0    0    0    0 -0.00000000000E+00 -0.00000000000E+00  0.11368683772E-12  0.17120000000E+03  0.17120000000E+03 0.  0.
         13    1    1    2    0    0 -0.48406874356E+00 -0.28656211691E+02  0.14085331597E+03  0.14373962771E+03  0.10566000000E+00 0. -1.
        994    1    1    2    0    0 -0.50482183904E+01  0.26940339733E+02  0.51936329548E+01  0.17345800713E+03  0.17120000000E+03 0.  0.
        998    1    1    2    0    0  0.55322871340E+01  0.17158719577E+01  0.13539530474E+04  0.13540023652E+04  0.10000000000E+02 0. -1.
</event>
<event>
 5    1  0.1828445E-008  0.3863031E+03  0.7957747E-01  0.3424164E+00
         13   -1    0    0    0    0  0.00000000000E+00  0.00000000000E+00  0.14999999963E+04  0.15000000000E+04  0.10566000000E+00 0. -1.
        994   -1    0    0    0    0 -0.00000000000E+00 -0.00000000000E+00  0.11368683772E-12  0.17120000000E+03  0.17120000000E+03 0.  0.
         13    1    1    2    0    0 -0.86401230868E+01  0.77922016322E+01  0.69401241614E+02  0.70369834694E+02  0.10566000000E+00 0. -1.
        994    1    1    2    0    0  0.67432610634E+01 -0.54148212646E+01  0.12295093210E+01  0.17142270431E+03  0.17120000000E+03 0.  0.
        998    1    1    2    0    0  0.18968620234E+01 -0.23773803676E+01  0.14293692453E+04  0.14294074610E+04  0.10000000000E+02 0. -1.
</event>
<event>
 5    1  0.1535793E-008  0.3853654E+03  0.7957747E-01  0.3428124E+00
         13   -1    0    0    0    0  0.00000000000E+00  0.00000000000E+00  0.14999999963E+04  0.15000000000E+04  0.10566000000E+00 0.  1.
        994   -1    0    0    0    0 -0.00000000000E+00 -0.00000000000E+00  0.11368683772E-12  0.17120000000E+03  0.17120000000E+03 0.  0.
         13    1    1    2    0    0  0.33702005469E+01 -0.11323567626E+02  0.46897613618E+02  0.48362989595E+02  0.10566000000E+00 0.  1.
        994    1    1    2    0    0 -0.31079803899E+01  0.12733209201E+02  0.20133429865E+01  0.17171280590E+03  0.17120000000E+03 0.  0.
        998    1    1    2    0    0 -0.26222015694E+00 -0.14096415754E+01  0.14510890397E+04  0.14511242045E+04  0.10000000000E+02 0.  1.
</event>
<event>
 5    1  0.1535793E-008  0.3839786E+03  0.7957747E-01  0.3434015E+00
         13   -1    0    0    0    0  0.00000000000E+00  0.00000000000E+00  0.14999999963E+04  0.15000000000E+04  0.10566000000E+00 0.  1.
        994   -1    0    0    0    0 -0.00000000000E+00 -0.00000000000E+00  0.11368683772E-12  0.17120000000E+03  0.17120000000E+03 0.  0.
         13    1    1    2    0    0 -0.97059931363E+01  0.75546980232E+01  0.34061310372E+02  0.36214138030E+02  0.10566000000E+00 0.  1.
        994    1    1    2    0    0  0.96217661483E+01 -0.98420653314E+01  0.27634089565E+01  0.17177462287E+03  0.17120000000E+03 0.  0.
        998    1    1    2    0    0  0.84226987981E-01  0.22873673081E+01  0.14631752770E+04  0.14632112391E+04  0.10000000000E+02 0.  1.
</event>
<event>
 5    1  0.1535793E-008  0.3790262E+03  0.7957747E-01  0.3455410E+00
         13   -1    0    0    0    0  0.00000000000E+00  0.00000000000E+00  0.14999999963E+04  0.15000000000E+04  0.10566000000E+00 0.  1.
        994   -1    0    0    0    0 -0.00000000000E+00 -0.00000000000E+00  0.11368683772E-12  0.17120000000E+03  0.17120000000E+03 0.  0.
         13    1    1    2    0    0  0.79669549056E+01  0.13907068183E+02  0.25350093247E+02  0.29991954048E+02  0.10566000000E+00 0.  1.
        994    1    1    2    0    0 -0.52619718311E+01 -0.18010939447E+02  0.58072064942E+01  0.17232308590E+03  0.17120000000E+03 0.  0.
        998    1    1    2    0    0 -0.27049830745E+01  0.41038712636E+01  0.14688426965E+04  0.14688849601E+04  0.10000000000E+02 0.  1.
</event>
<event>
 5    1  0.1535793E-008  0.3847972E+03  0.7957747E-01  0.3430533E+00
         13   -1    0    0    0    0  0.00000000000E+00  0.00000000000E+00  0.14999999963E+04  0.15000000000E+04  0.10566000000E+00 0. -1.
        994   -1    0    0    0    0 -0.00000000000E+00 -0.00000000000E+00  0.11368683772E-12  0.17120000000E+03  0.17120000000E+03 0.  0.
         13    1    1    2    0    0  0.12937184322E+02  0.13948643003E+01  0.46833156555E+02  0.48607325595E+02  0.10566000000E+00 0. -1.
        994    1    1    2    0    0 -0.16026674795E+02 -0.41243487100E+01  0.26326177401E+01  0.17201812472E+03  0.17120000000E+03 0.  0.
        998    1    1    2    0    0  0.30894904724E+01  0.27294844098E+01  0.14505342220E+04  0.14505745497E+04  0.10000000000E+02 0. -1.
</event>
<event>
 5    1  0.1535793E-008  0.3853977E+03  0.7957747E-01  0.3427987E+00
         13   -1    0    0    0    0  0.00000000000E+00  0.00000000000E+00  0.14999999963E+04  0.15000000000E+04  0.10566000000E+00 0. -1.
        994   -1    0    0    0    0 -0.00000000000E+00 -0.00000000000E+00  0.11368683772E-12  0.17120000000E+03  0.17120000000E+03 0.  0.
         13    1    1    2    0    0 -0.13124423975E+02  0.52009946499E+00  0.59629339765E+02  0.61058908711E+02  0.10566000000E+00 0. -1.
        994    1    1    2    0    0  0.11061956449E+02  0.50985848784E+01  0.19202726667E+01  0.17164349651E+03  0.17120000000E+03 0.  0.
        998    1    1    2    0    0  0.20624675259E+01 -0.56186843434E+01  0.14384503838E+04  0.14384975948E+04  0.10000000000E+02 0. -1.
</event>
<event>
 5    1  0.1535793E-008  0.2752602E+03  0.7957747E-01  0.4090175E+00
         13   -1    0    0    0    0  0.00000000000E+00  0.00000000000E+00  0.14999999963E+04  0.15000000000E+04  0.10566000000E+00 0.  1.
        994   -1    0    0    0    0 -0.00000000000E+00 -0.00000000000E+00  0.11368683772E-12  0.17120000000E+03  0.17120000000E+03 0.  0.
         13    1    1    2    0    0 -0.13971177544E+03 -0.95361825652E+02  0.49068012793E+03  0.51901855178E+03  0.10566000000E+00 0.  1.
        994    1    1    2    0    0  0.13341339060E+03  0.98834645839E+02  0.12779504966E+03  0.27057057255E+03  0.17120000000E+03 0.  0.
        998    1    1    2    0    0  0.62983848336E+01 -0.34728201874E+01  0.88152481869E+03  0.88161087567E+03  0.10000000000E+02 0.  0.
</event>
<event>
 5    1  0.1535793E-008  0.3844645E+03  0.7957747E-01  0.3431947E+00
         13   -1    0    0    0    0  0.00000000000E+00  0.00000000000E+00  0.14999999963E+04  0.15000000000E+04  0.10566000000E+00 0.  1.
        994   -1    0    0    0    0 -0.00000000000E+00 -0.00000000000E+00  0.11368683772E-12  0.17120000000E+03  0.17120000000E+03 0.  0.
         13    1    1    2    0    0  0.20211013761E+02 -0.56755859421E+01  0.10026785036E+03  0.10244193640E+03  0.10566000000E+00 0.  1.
        994    1    1    2    0    0 -0.26819113557E+02  0.31401362560E+02  0.75344885785E+01  0.17627115175E+03  0.17120000000E+03 0.  0.
        998    1    1    2    0    0  0.66080997960E+01 -0.25725776618E+02  0.13921976573E+04  0.13924869118E+04  0.10000000000E+02 0.  1.
</event>
<event>
 5    1  0.1535793E-008  0.3855013E+03  0.7957747E-01  0.3427549E+00
         13   -1    0    0    0    0  0.00000000000E+00  0.00000000000E+00  0.14999999963E+04  0.15000000000E+04  0.10566000000E+00 0.  1.
        994   -1    0    0    0    0 -0.00000000000E+00 -0.00000000000E+00  0.11368683772E-12  0.17120000000E+03  0.17120000000E+03 0.  0.
         13    1    1    2    0    0 -0.10070673551E+02 -0.84250824999E+00  0.38431389120E+02  0.39738031150E+02  0.10566000000E+00 0.  1.
        994    1    1    2    0    0 -0.50037138466E+00  0.63711973805E+01  0.15155620498E+01  0.17132594508E+03  0.17120000000E+03 0.  0.
        998    1    1    2    0    0  0.10571044935E+02 -0.55286891305E+01  0.14600530451E+04  0.14601360238E+04  0.10000000000E+02 0.  1.
</event>
<event>
 5    1  0.1535793E-008  0.3761702E+03  0.7957747E-01  0.3468006E+00
         13   -1    0    0    0    0  0.00000000000E+00  0.00000000000E+00  0.14999999963E+04  0.15000000000E+04  0.10566000000E+00 0. -1.
        994   -1    0    0    0    0 -0.00000000000E+00 -0.00000000000E+00  0.11368683772E-12  0.17120000000E+03  0.17120000000E+03 0.  0.
         13    1    1    2    0    0  0.11365776348E+03  0.21051519949E+02  0.59672965732E+03  0.60782197129E+03  0.10566000000E+00 0. -1.
        994    1    1    2    0    0 -0.11696222658E+03 -0.30102573405E+02  0.57182774296E+02  0.21717651127E+03  0.17120000000E+03 0.  0.
        998    1    1    2    0    0  0.33044630980E+01  0.90510534566E+01  0.84608756466E+03  0.84620151744E+03  0.10000000000E+02 0. -1.
</event>
<event>
 5    1  0.1535793E-008  0.3780006E+03  0.7957747E-01  0.3459911E+00
         13   -1    0    0    0    0  0.00000000000E+00  0.00000000000E+00  0.14999999963E+04  0.15000000000E+04  0.10566000000E+00 0.  1.
        994   -1    0    0    0    0 -0.00000000000E+00 -0.00000000000E+00  0.11368683772E-12  0.17120000000E+03  0.17120000000E+03 0.  0.
         13    1    1    2    0    0 -0.39521628616E+02 -0.54066110847E-01  0.16194034844E+03  0.16669328021E+03  0.10566000000E+00 0.  1.
        994    1    1    2    0    0  0.10676449631E+02  0.13595249662E+02  0.61520307634E+01  0.17218044277E+03  0.17120000000E+03 0.  0.
        998    1    1    2    0    0  0.28845178985E+02 -0.13541183551E+02  0.13319076171E+04  0.13323262770E+04  0.10000000000E+02 0. -1.
</event>
<event>
 5    1  0.1535793E-008  0.3827924E+03  0.7957747E-01  0.3439089E+00
         13   -1    0    0    0    0  0.00000000000E+00  0.00000000000E+00  0.14999999963E+04  0.15000000000E+04  0.10566000000E+00 0.  1.
        994   -1    0    0    0    0 -0.00000000000E+00 -0.00000000000E+00  0.11368683772E-12  0.17120000000E+03  0.17120000000E+03 0.  0.
         13    1    1    2    0    0  0.13664188782E+02 -0.22703559049E+02  0.12880999675E+03  0.13150736890E+03  0.10566000000E+00 0.  1.
        994    1    1    2    0    0  0.51160560431E+01  0.20802826435E+02  0.42517797531E+01  0.17258751185E+03  0.17120000000E+03 0.  0.
        998    1    1    2    0    0 -0.18780244825E+02  0.19007326134E+01  0.13669382198E+04  0.13671051192E+04  0.10000000000E+02 0.  1.
</event>
<event>
 5    1  0.1535793E-008  0.3851337E+03  0.7957747E-01  0.3429105E+00
         13   -1    0    0    0    0  0.00000000000E+00  0.00000000000E+00  0.14999999963E+04  0.15000000000E+04  0.10566000000E+00 0.  1.
        994   -1    0    0    0    0 -0.00000000000E+00 -0.00000000000E+00  0.11368683772E-12  0.17120000000E+03  0.17120000000E+03 0.  0.
         13    1    1    2    0    0  0.28142769473E+01  0.17788804745E+02  0.10700744913E+03  0.10851252031E+03  0.10566000000E+00 0.  1.
        994    1    1    2    0    0  0.10049280052E+02 -0.98365902030E+01  0.22140649285E+01  0.17179082810E+03  0.17120000000E+03 0.  0.
        998    1    1    2    0    0 -0.12863556999E+02 -0.79522145418E+01  0.13907784822E+04  0.13908966516E+04  0.10000000000E+02 0.  1.
</event>
<event>
 5    1  0.1535793E-008  0.3854145E+03  0.7957747E-01  0.3427916E+00
         13   -1    0    0    0    0  0.00000000000E+00  0.00000000000E+00  0.14999999963E+04  0.15000000000E+04  0.10566000000E+00 0.  1.
        994   -1    0    0    0    0 -0.00000000000E+00 -0.00000000000E+00  0.11368683772E-12  0.17120000000E+03  0.17120000000E+03 0.  0.
         13    1    1    2    0    0 -0.16460990832E+02  0.38668155687E+01  0.98952898354E+02  0.10038726881E+03  0.10566000000E+00 0.  1.
        994    1    1    2    0    0  0.10142774227E+02 -0.14886907778E+02  0.24909257284E+01  0.17216312208E+03  0.17120000000E+03 0.  0.
        998    1    1    2    0    0  0.63182166052E+01  0.11020092209E+02  0.13985561722E+04  0.13986496091E+04  0.10000000000E+02 0.  1.
</event>
<event>
 5    1  0.1535793E-008  0.3839144E+03  0.7957747E-01  0.3434290E+00
         13   -1    0    0    0    0  0.00000000000E+00  0.00000000000E+00  0.14999999963E+04  0.15000000000E+04  0.10566000000E+00 0. -1.
        994   -1    0    0    0    0 -0.00000000000E+00 -0.00000000000E+00  0.11368683772E-12  0.17120000000E+03  0.17120000000E+03 0.  0.
         13    1    1    2    0    0 -0.34958897811E+01  0.10846214693E+02  0.28591248292E+02  0.30778763157E+02  0.10566000000E+00 0. -1.
        994    1    1    2    0    0  0.42510103448E+01 -0.13508111880E+02  0.28322007123E+01  0.17180803688E+03  0.17120000000E+03 0.  0.
        998    1    1    2    0    0 -0.75512056372E+00  0.26618971868E+01  0.14685765473E+04  0.14686132000E+04  0.10000000000E+02 0. -1.
</event>
<event>
 5    1  0.1535793E-008  0.3815092E+03  0.7957747E-01  0.3444613E+00
         13   -1    0    0    0    0  0.00000000000E+00  0.00000000000E+00  0.14999999963E+04  0.15000000000E+04  0.10566000000E+00 0. -1.
        994   -1    0    0    0    0 -0.00000000000E+00 -0.00000000000E+00  0.11368683772E-12  0.17120000000E+03  0.17120000000E+03 0.  0.
         13    1    1    2    0    0 -0.35075697355E+02 -0.10495523183E+02  0.18492048355E+03  0.18851009774E+03  0.10566000000E+00 0. -1.
        994    1    1    2    0    0  0.31843547650E+02 -0.15324443357E+01  0.67613604643E+01  0.17427425486E+03  0.17120000000E+03 0.  0.
        998    1    1    2    0    0  0.32321497048E+01  0.12027967519E+02  0.13083181523E+04  0.13084156474E+04  0.10000000000E+02 0. -1.
</event>
<event>
 5    1  0.1535793E-008  0.3753112E+03  0.7957747E-01  0.3471832E+00
         13   -1    0    0    0    0  0.00000000000E+00  0.00000000000E+00  0.14999999963E+04  0.15000000000E+04  0.10566000000E+00 0. -1.
        994   -1    0    0    0    0 -0.00000000000E+00 -0.00000000000E+00  0.11368683772E-12  0.17120000000E+03  0.17120000000E+03 0.  0.
         13    1    1    2    0    0  0.32853391261E+01 -0.29137629530E+02  0.63760381627E+02  0.70179714570E+02  0.10566000000E+00 0. -1.
        994    1    1    2    0    0 -0.46595061362E+01  0.17168960270E+02  0.75944097304E+01  0.17228928943E+03  0.17120000000E+03 0.  0.
        998    1    1    2    0    0  0.13741670101E+01  0.11968669260E+02  0.14286452049E+04  0.14287309960E+04  0.10000000000E+02 0. -1.
</event>
<event>
 5    1  0.1535793E-008  0.3793725E+03  0.7957747E-01  0.3453895E+00
         13   -1    0    0    0    0  0.00000000000E+00  0.00000000000E+00  0.14999999963E+04  0.15000000000E+04  0.10566000000E+00 0. -1.
        994   -1    0    0    0    0 -0.00000000000E+00 -0.00000000000E+00  0.11368683772E-12  0.17120000000E+03  0.17120000000E+03 0.  0.
         13    1    1    2    0    0 -0.13397371565E+02 -0.70582737100E+01  0.23845151791E+02  0.28247322362E+02  0.10566000000E+00 0. -1.
        994    1    1    2    0    0  0.11493596452E+02  0.34411637631E+01  0.49325831075E+01  0.17169075323E+03  0.17120000000E+03 0.  0.
        998    1    1    2    0    0  0.19037751129E+01  0.36171099469E+01  0.14712222614E+04  0.14712619244E+04  0.10000000000E+02 0. -1.
</event>
<event>
 5    1  0.1535793E-008  0.3033182E+03  0.7957747E-01  0.3872611E+00
         13   -1    0    0    0    0  0.00000000000E+00  0.00000000000E+00  0.14999999963E+04  0.15000000000E+04  0.10566000000E+00 0. -1.
        994   -1    0    0    0    0 -0.00000000000E+00 -0.00000000000E+00  0.11368683772E-12  0.17120000000E+03  0.17120000000E+03 0.  0.
         13    1    1    2    0    0  0.16702731213E+03  0.10623089668E+03  0.63095124094E+03  0.66127347294E+03  0.10566000000E+00 0. -1.
        994    1    1    2    0    0 -0.15976354902E+03 -0.12747111849E+03  0.18285638679E+03  0.32329425580E+03  0.17120000000E+03 0.  0.
        998    1    1    2    0    0 -0.72637631041E+01  0.21240221814E+02  0.68619236855E+03  0.68663227126E+03  0.10000000000E+02 0. -1.
</event>
<event>
 5    1  0.1535793E-008  0.3852375E+03  0.7957747E-01  0.3428666E+00
         13   -1    0    0    0    0  0.00000000000E+00  0.00000000000E+00  0.14999999963E+04  0.15000000000E+04  0.10566000000E+00 0.  1.
        994   -1    0    0    0    0 -0.00000000000E+00 -0.00000000000E+00  0.11368683772E-12  0.17120000000E+03  0.17120000000E+03 0.  0.
         13    1    1    2    0    0 -0.81064404296E+01 -0.11173568493E+02  0.71746098523E+02  0.73062143595E+02  0.10566000000E+00 0.  1.
        994    1    1    2    0    0  0.12075282821E+02 -0.19042957256E+02  0.31848904003E+01  0.17270793324E+03  0.17120000000E+03 0.  0.
        998    1    1    2    0    0 -0.39688423916E+01  0.30216525750E+02  0.14250690074E+04  0.14254299232E+04  0.10000000000E+02 0.  1.
</event>
<event>
 5    1  0.1535793E-008  0.3793320E+03  0.7957747E-01  0.3454072E+00
         13   -1    0    0    0    0  0.00000000000E+00  0.00000000000E+00  0.14999999963E+04  0.15000000000E+04  0.10566000000E+00 0.  1.
        994   -1    0    0    0    0 -0.00000000000E+00 -0.00000000000E+00  0.11368683772E-12  0.17120000000E+03  0.17120000000E+03 0.  0.
         13    1    1    2    0    0  0.35999400365E+02 -0.89134632232E+02  0.23226650002E+03  0.25137358192E+03  0.10566000000E+00 0.  1.
        994    1    1    2    0    0 -0.39259777160E+02  0.93934073637E+02  0.54456429887E+02  0.20649426880E+03  0.17120000000E+03 0.  0.
        998    1    1    2    0    0  0.32603767952E+01 -0.47994414050E+01  0.12132770664E+04  0.12133321493E+04  0.10000000000E+02 0.  1.
</event>
<event>
 5    1  0.1535793E-008  0.3835762E+03  0.7957747E-01  0.3435733E+00
         13   -1    0    0    0    0  0.00000000000E+00  0.00000000000E+00  0.14999999963E+04  0.15000000000E+04  0.10566000000E+00 0. -1.
        994   -1    0    0    0    0 -0.00000000000E+00 -0.00000000000E+00  0.11368683772E-12  0.17120000000E+03  0.17120000000E+03 0.  0.
         13    1    1    2    0    0 -0.10197186686E+02 -0.61020685507E+01  0.29424101136E+02  0.31733369638E+02  0.10566000000E+00 0. -1.
        994    1    1    2    0    0  0.93338069698E+01  0.97194038915E+00  0.26297140771E+01  0.17147717054E+03  0.17120000000E+03 0.  0.
        998    1    1    2    0    0  0.86337971590E+00  0.51301281616E+01  0.14679461811E+04  0.14679894598E+04  0.10000000000E+02 0. -1.
</event>
<event>
 5    1  0.1535793E-008  0.3819211E+03  0.7957747E-01  0.3442836E+00
         13   -1    0    0    0    0  0.00000000000E+00  0.00000000000E+00  0.14999999963E+04  0.15000000000E+04  0.10566000000E+00 0. -1.
        994   -1    0    0    0    0 -0.00000000000E+00 -0.00000000000E+00  0.11368683772E-12  0.17120000000E+03  0.17120000000E+03 0.  0.
         13    1    1    2    0    0 -0.71767538190E+00  0.15618545083E+02  0.37555640929E+02  0.40680355678E+02  0.10566000000E+00 0. -1.
        994    1    1    2    0    0 -0.18552298010E+01 -0.99630663909E+01  0.35077741254E+01  0.17153556205E+03  0.17120000000E+03 0.  0.
        998    1    1    2    0    0  0.25729051829E+01 -0.56554786916E+01  0.14589365812E+04  0.14589840823E+04  0.10000000000E+02 0. -1.
</event>
<event>
 5    1  0.1535793E-008  0.3754695E+03  0.7957747E-01  0.3471126E+00
         13   -1    0    0    0    0  0.00000000000E+00  0.00000000000E+00  0.14999999963E+04  0.15000000000E+04  0.10566000000E+00 0.  1.
        994   -1    0    0    0    0 -0.00000000000E+00 -0.00000000000E+00  0.11368683772E-12  0.17120000000E+03  0.17120000000E+03 0.  0.
         13    1    1    2    0    0  0.13841575196E+02 -0.16706574027E+02  0.32979263792E+02  0.39475838482E+02  0.10566000000E+00 0.  1.
        994    1    1    2    0    0 -0.17801150478E+02  0.17729219075E+02  0.85829833516E+01  0.17324639613E+03  0.17120000000E+03 0.  0.
        998    1    1    2    0    0  0.39595752826E+01 -0.10226450485E+01  0.14584377491E+04  0.14584777654E+04  0.10000000000E+02 0.  1.
</event>
<event>
 5    1  0.1535793E-008  0.3851316E+03  0.7957747E-01  0.3429114E+00
         13   -1    0    0    0    0  0.00000000000E+00  0.00000000000E+00  0.14999999963E+04  0.15000000000E+04  0.10566000000E+00 0. -1.
        994   -1    0    0    0    0 -0.00000000000E+00 -0.00000000000E+00  0.11368683772E-12  0.17120000000E+03  0.17120000000E+03 0.  0.
         13    1    1    2    0    0 -0.66270027090E+01 -0.12181149366E+02  0.60152670808E+02  0.61730483022E+02  0.10566000000E+00 0. -1.
        994    1    1    2    0    0  0.94375391563E+01  0.94734731548E+01  0.21528193914E+01  0.17173493666E+03  0.17120000000E+03 0.  0.
        998    1    1    2    0    0 -0.28105364474E+01  0.27076762113E+01  0.14376945061E+04  0.14377345803E+04  0.10000000000E+02 0. -1.
</event>
<event>
 5    1  0.1535793E-008  0.3852475E+03  0.7957747E-01  0.3428623E+00
         13   -1    0    0    0    0  0.00000000000E+00  0.00000000000E+00  0.14999999963E+04  0.15000000000E+04  0.10566000000E+00 0. -1.
        994   -1    0    0    0    0 -0.00000000000E+00 -0.00000000000E+00  0.11368683772E-12  0.17120000000E+03  0.17120000000E+03 0.  0.
         13    1    1    2    0    0 -0.26006360107E+01 -0.12776196594E+02  0.56054465106E+02  0.57550922924E+02  0.10566000000E+00 0. -1.
        994    1    1    2    0    0 -0.16796821358E+01  0.10562114172E+02  0.18832430087E+01  0.17154406487E+03  0.17120000000E+03 0.  0.
        998    1    1    2    0    0  0.42803181465E+01  0.22140824219E+01  0.14420622882E+04  0.14421050122E+04  0.10000000000E+02 0. -1.
</event>
<event>
 5    1  0.1535793E-008  0.3846204E+03  0.7957747E-01  0.3431284E+00
         13   -1    0    0    0    0  0.00000000000E+00  0.00000000000E+00  0.14999999963E+04  0.15000000000E+04  0.10566000000E+00 0. -1.
        994   -1    0    0    0    0 -0.00000000000E+00 -0.00000000000E+00  0.11368683772E-12  0.17120000000E+03  0.17120000000E+03 0.  0.
         13    1    1    2    0    0  0.11050921203E+02 -0.18235842144E+02  0.12683291642E+03  0.12861286347E+03  0.10566000000E+00 0. -1.
        994    1    1    2    0    0 -0.76536877830E+01  0.86537202395E+01  0.22583232172E+01  0.17160421275E+03  0.17120000000E+03 0.  0.
        998    1    1    2    0    0 -0.33972334197E+01  0.95821219047E+01  0.13709087566E+04  0.13709829238E+04  0.10000000000E+02 0. -1.
</event>
<event>
 5    1  0.1535793E-008  0.4255392E+03  0.7957747E-01  0.3274056E+00
         13   -1    0    0    0    0  0.00000000000E+00  0.00000000000E+00  0.14999999963E+04  0.15000000000E+04  0.10566000000E+00 0.  1.
        994   -1    0    0    0    0 -0.00000000000E+00 -0.00000000000E+00  0.11368683772E-12  0.17120000000E+03  0.17120000000E+03 0.  0.
         13    1    1    2    0    0  0.65354261325E+01  0.99838396642E+02  0.11600825149E+03  0.15319380802E+03  0.10566000000E+00 0.  1.
        994    1    1    2    0    0 -0.23679982785E+02 -0.30460142760E+02  0.50571569264E+02  0.18263484196E+03  0.17120000000E+03 0.  0.
        998    1    1    2    0    0  0.17144556652E+02 -0.69378253883E+02  0.13334201755E+04  0.13353713500E+04  0.10000000000E+02 0.  1.
</event>
<event>
 5    1  0.1535793E-008  0.3069731E+03  0.7957747E-01  0.3847462E+00
         13   -1    0    0    0    0  0.00000000000E+00  0.00000000000E+00  0.14999999963E+04  0.15000000000E+04  0.10566000000E+00 0. -1.
        994   -1    0    0    0    0 -0.00000000000E+00 -0.00000000000E+00  0.11368683772E-12  0.17120000000E+03  0.17120000000E+03 0.  0.
         13    1    1    2    0    0  0.59389000952E+02 -0.13195081184E+03  0.87420977635E+03  0.88610429093E+03  0.10566000000E+00 0. -1.
        994    1    1    2    0    0 -0.38348431596E+02  0.42692845346E+02  0.31011683223E+02  0.18320601995E+03  0.17120000000E+03 0.  0.
        998    1    1    2    0    0 -0.21040569356E+02  0.89257966489E+02  0.59477853671E+03  0.60188968912E+03  0.10000000000E+02 0.  1.
</event>
<event>
 5    1  0.1535793E-008  0.3816912E+03  0.7957747E-01  0.3443828E+00
         13   -1    0    0    0    0  0.00000000000E+00  0.00000000000E+00  0.14999999963E+04  0.15000000000E+04  0.10566000000E+00 0.  1.
        994   -1    0    0    0    0 -0.00000000000E+00 -0.00000000000E+00  0.11368683772E-12  0.17120000000E+03  0.17120000000E+03 0.  0.
         13    1    1    2    0    0  0.28549849481E+01  0.33439580292E+02  0.16065399667E+03  0.16412213220E+03  0.10566000000E+00 0.  1.
        994    1    1    2    0    0  0.24837084814E+02 -0.31278882789E+02  0.86032316764E+01  0.17600768417E+03  0.17120000000E+03 0.  0.
        998    1    1    2    0    0 -0.27692069762E+02 -0.21606975033E+01  0.13307427679E+04  0.13310701836E+04  0.10000000000E+02 0.  1.
</event>
<event>
 5    1  0.1535793E-008  0.3861888E+03  0.7957747E-01  0.3424646E+00
         13   -1    0    0    0    0  0.00000000000E+00  0.00000000000E+00  0.14999999963E+04  0.15000000000E+04  0.10566000000E+00 0. -1.
        994   -1    0    0    0    0 -0.00000000000E+00 -0.00000000000E+00  0.11368683772E-12  0.17120000000E+03  0.17120000000E+03 0.  0.
         13    1    1    2    0    0  0.10716418461E+02  0.68919892526E+00  0.56437543991E+02  0.57450188473E+02  0.10566000000E+00 0. -1.
        994    1    1    2    0    0 -0.72759778484E+01  0.73291904342E+01  0.13905560687E+01  0.17151685204E+03  0.17120000000E+03 0.  0.
        998    1    1    2    0    0 -0.34404406127E+01 -0.80183893595E+01  0.14421718962E+04  0.14422329595E+04  0.10000000000E+02 0. -1.
</event>
<event>
 5    1  0.1535793E-008  0.3823259E+03  0.7957747E-01  0.3441093E+00
         13   -1    0    0    0    0  0.00000000000E+00  0.00000000000E+00  0.14999999963E+04  0.15000000000E+04  0.10566000000E+00 0.  1.
        994   -1    0    0    0    0 -0.00000000000E+00 -0.00000000000E+00  0.11368683772E-12  0.17120000000E+03  0.17120000000E+03 0.  0.
         13    1    1    2    0    0 -0.19556072722E+03  0.51920172342E+02  0.12086906010E+04  0.12255091524E+04  0.10566000000E+00 0.  1.
        994    1    1    2    0    0  0.18833109581E+03 -0.57994645495E+02  0.14474734464E+03  0.29848486450E+03  0.17120000000E+03 0.  0.
        998    1    1    2    0    0  0.72296314101E+01  0.60744731528E+01  0.14656205061E+03  0.14720598314E+03  0.10000000000E+02 0.  0.
</event>
<event>
 5    1  0.1947819E-008  0.3859507E+03  0.7957747E-01  0.3425650E+00
         13   -1    0    0    0    0  0.00000000000E+00  0.00000000000E+00  0.14999999963E+04  0.15000000000E+04  0.10566000000E+00 0.  1.
        994   -1    0    0    0    0 -0.00000000000E+00 -0.00000000000E+00  0.11368683772E-12  0.17120000000E+03  0.17120000000E+03 0.  0.
         13    1    1    2    0    0 -0.83029999452E+01  0.11619300957E+02  0.84771980209E+02  0.85966550213E+02  0.10566000000E+00 0.  1.
        994    1    1    2    0    0  0.78435716446E+01 -0.12780327453E+02  0.18964157150E+01  0.17186592093E+03  0.17120000000E+03 0.  0.
        998    1    1    2    0    0  0.45942830060E+00  0.11610264957E+01  0.14133316004E+04  0.14133675289E+04  0.10000000000E+02 0.  1.
</event>
<event>
 5    1  0.1535793E-008  0.3725634E+03  0.7957747E-01  0.3484192E+00
         13   -1    0    0    0    0  0.00000000000E+00  0.00000000000E+00  0.14999999963E+04  0.15000000000E+04  0.10566000000E+00 0. -1.
        994   -1    0    0    0    0 -0.00000000000E+00 -0.00000000000E+00  0.11368683772E-12  0.17120000000E+03  0.17120000000E+03 0.  0.
         13    1    1    2    0    0  0.31055479101E+02 -0.11145976077E+02  0.69938247527E+02  0.77330751943E+02  0.10566000000E+00 0. -1.
        994    1    1    2    0    0 -0.32349847581E+01 -0.15006625662E+01  0.79789037926E+01  0.17142292735E+03  0.17120000000E+03 0.  0.
        998    1    1    2    0    0 -0.27820494342E+02  0.12646638643E+02  0.14220828450E+04  0.14224463207E+04  0.10000000000E+02 0. -1.
</event>
<event>
 5    1  0.1535793E-008  0.3852974E+03  0.7957747E-01  0.3428412E+00
         13   -1    0    0    0    0  0.00000000000E+00  0.00000000000E+00  0.14999999963E+04  0.15000000000E+04  0.10566000000E+00 0. -1.
        994   -1    0    0    0    0 -0.00000000000E+00 -0.00000000000E+00  0.11368683772E-12  0.17120000000E+03  0.17120000000E+03 0.  0.
         13    1    1    2    0    0  0.97953584946E+01 -0.32394881562E+01  0.34778549997E+02  0.36276742349E+02  0.10566000000E+00 0. -1.
        994    1    1    2    0    0 -0.11854328077E+02  0.63838888990E+01  0.20783858182E+01  0.17174119721E+03  0.17120000000E+03 0.  0.
        998    1    1    2    0    0  0.20589695828E+01 -0.31444007427E+01  0.14631430605E+04  0.14631820604E+04  0.10000000000E+02 0. -1.
</event>
<event>
 5    1  0.1535793E-008  0.3820579E+03  0.7957747E-01  0.3442247E+00
         13   -1    0    0    0    0  0.00000000000E+00  0.00000000000E+00  0.14999999963E+04  0.15000000000E+04  0.10566000000E+00 0. -1.
        994   -1    0    0    0    0 -0.00000000000E+00 -0.00000000000E+00  0.11368683772E-12  0.17120000000E+03  0.17120000000E+03 0.  0.
         13    1    1    2    0    0 -0.96945349068E+01 -0.61629382476E+01  0.20132886311E+02  0.23179950175E+02  0.10566000000E+00 0. -1.
        994    1    1    2    0    0  0.32664197002E+01  0.81813353490E+01  0.33556314830E+01  0.17145933631E+03  0.17120000000E+03 0.  0.
        998    1    1    2    0    0  0.64281152066E+01 -0.20183971014E+01  0.14765114785E+04  0.14765607135E+04  0.10000000000E+02 0. -1.
</event>
<event>
 5    1  0.1535793E-008  0.3812377E+03  0.7957747E-01  0.3445787E+00
         13   -1    0    0    0    0  0.00000000000E+00  0.00000000000E+00  0.14999999963E+04  0.15000000000E+04  0.10566000000E+00 0. -1.
        994   -1    0    0    0    0 -0.00000000000E+00 -0.00000000000E+00  0.11368683772E-12  0.17120000000E+03  0.17120000000E+03 0.  0.
         13    1    1    2    0    0  0.72181209838E+01 -0.16558314038E+02  0.50361215122E+02  0.53502730649E+02  0.10566000000E+00 0. -1.
        994    1    1    2    0    0  0.13194016065E+00 -0.15964288846E+02  0.43586634672E+01  0.17199800544E+03  0.17120000000E+03 0.  0.
        998    1    1    2    0    0 -0.73500611445E+01  0.32522602884E+02  0.14452801177E+04  0.14456992639E+04  0.10000000000E+02 0. -1.
</event>
<event>
 5    1  0.1535793E-008  0.3845857E+03  0.7957747E-01  0.3431431E+00
         13   -1    0    0    0    0  0.00000000000E+00  0.00000000000E+00  0.14999999963E+04  0.15000000000E+04  0.10566000000E+00 0. -1.
        994   -1    0    0    0    0 -0.00000000000E+00 -0.00000000000E+00  0.11368683772E-12  0.17120000000E+03  0.17120000000E+03 0.  0.
         13    1    1    2    0    0 -0.87568314532E+01 -0.58624149438E+01  0.31752961981E+02  0.33456116999E+02  0.10566000000E+00 0. -1.
        994    1    1    2    0    0 -0.78323164708E+01 -0.10030638011E+01  0.20413279499E+01  0.17139416075E+03  0.17120000000E+03 0.  0.
        998    1    1    2    0    0  0.16589147924E+02  0.68654787449E+01  0.14662057063E+04  0.14663497223E+04  0.10000000000E+02 0. -1.
</event>
<event>
 5    1  0.1535793E-008  0.3860542E+03  0.7957747E-01  0.3425214E+00
         13   -1    0    0    0    0  0.00000000000E+00  0.00000000000E+00  0.14999999963E+04  0.15000000000E+04  0.10566000000E+00 0.  1.
        994   -1    0    0    0    0 -0.00000000000E+00 -0.00000000000E+00  0.11368683772E-12  0.17120000000E+03  0.17120000000E+03 0.  0.
         13    1    1    2    0    0  0.83233209279E+01  0.76494246206E+01  0.60205853123E+02  0.61258038514E+02  0.10566000000E+00 0.  1.
        994    1    1    2    0    0 -0.53596228984E+00 -0.45945417112E+01  0.11777862677E+01  0.17126652986E+03  0.17120000000E+03 0.  0.
        998    1    1    2    0    0 -0.77873586380E+01 -0.30548829094E+01  0.14386163569E+04  0.14386754316E+04  0.10000000000E+02 0.  1.
</event>
<event>
 5    1  0.1535793E-008  0.3689671E+03  0.7957747E-01  0.3500651E+00
         13   -1    0    0    0    0  0.00000000000E+00  0.00000000000E+00  0.14999999963E+04  0.15000000000E+04  0.10566000000E+00 0. -1.
        994   -1    0    0    0    0 -0.00000000000E+00 -0.00000000000E+00  0.11368683772E-12  0.17120000000E+03  0.17120000000E+03 0.  0.
         13    1    1    2    0    0 -0.67641642299E+02  0.15688253677E+03  0.69752824409E+03  0.71814565694E+03  0.10566000000E+00 0. -1.
        994    1    1    2    0    0  0.61611784483E+01 -0.19097529696E+03  0.15093195233E+03  0.29765654436E+03  0.17120000000E+03 0.  0.
        998    1    1    2    0    0  0.61480463851E+02  0.34092760192E+02  0.65153979987E+03  0.65539779870E+03  0.10000000000E+02 0.  1.
</event>
<event>
 5    1  0.1535793E-008  0.3813261E+03  0.7957747E-01  0.3445405E+00
         13   -1    0    0    0    0  0.00000000000E+00  0.00000000000E+00  0.14999999963E+04  0.15000000000E+04  0.10566000000E+00 0. -1.
        994   -1    0    0    0    0 -0.00000000000E+00 -0.00000000000E+00  0.11368683772E-12  0.17120000000E+03  0.17120000000E+03 0.  0.
         13    1    1    2    0    0  0.13237197756E+02  0.38557335538E+01  0.25688661747E+02  0.29154906826E+02  0.10566000000E+00 0. -1.
        994    1    1    2    0    0 -0.13317063773E+02 -0.55735049849E+01  0.41591833925E+01  0.17185792665E+03  0.17120000000E+03 0.  0.
        998    1    1    2    0    0  0.79866017050E-01  0.17177714311E+01  0.14701521511E+04  0.14701871665E+04  0.10000000000E+02 0. -1.
</event>
<event>
 5    1  0.1535793E-008  0.3822777E+03  0.7957747E-01  0.3441300E+00
         13   -1    0    0    0    0  0.00000000000E+00  0.00000000000E+00  0.14999999963E+04  0.15000000000E+04  0.10566000000E+00 0.  1.
        994   -1    0    0    0    0 -0.00000000000E+00 -0.00000000000E+00  0.11368683772E-12  0.17120000000E+03  0.17120000000E+03 0.  0.
         13    1    1    2    0    0  0.25574560186E+02 -0.75236784750E+01  0.11107030615E+03  0.11422472560E+03  0.10566000000E+00 0.  1.
        994    1    1    2    0    0 -0.24566569059E+02  0.84103118257E+01  0.52280989806E+01  0.17323689757E+03  0.17120000000E+03 0.  0.
        998    1    1    2    0    0 -0.10079911265E+01 -0.88663335074E+00  0.13837015912E+04  0.13837383768E+04  0.10000000000E+02 0.  1.
</event>
<event>
 5    1  0.1535793E-008  0.3789147E+03  0.7957747E-01  0.3455898E+00
         13   -1    0    0    0    0  0.00000000000E+00  0.00000000000E+00  0.14999999963E+04  0.15000000000E+04  0.10566000000E+00 0.  1.
        994   -1    0    0    0    0 -0.00000000000E+00 -0.00000000000E+00  0.11368683772E-12  0.17120000000E+03  0.17120000000E+03 0.  0.
         13    1    1    2    0    0  0.19376035456E+02 -0.72547107857E+01  0.42386096421E+02  0.47166236997E+02  0.10566000000E+00 0.  1.
        994    1    1    2    0    0 -0.23864571797E+02  0.51450119078E+01  0.66840615725E+01  0.17306098813E+03  0.17120000000E+03 0.  0.
        998    1    1    2    0    0  0.44885363402E+01  0.21096988779E+01  0.14509298383E+04  0.14509727749E+04  0.10000000000E+02 0.  1.
</event>
<event>
 5    1  0.2854501E-008  0.3864165E+03  0.7957747E-01  0.3423687E+00
         13   -1    0    0    0    0  0.00000000000E+00  0.00000000000E+00  0.14999999963E+04  0.15000000000E+04  0.10566000000E+00 0.  1.
        994   -1    0    0    0    0 -0.00000000000E+00 -0.00000000000E+00  0.11368683772E-12  0.17120000000E+03  0.17120000000E+03 0.  0.
         13    1    1    2    0    0 -0.85407398683E+00  0.11174765088E+02  0.66950599246E+02  0.67882241570E+02  0.10566000000E+00 0.  1.
        994    1    1    2    0    0  0.34763385300E+01 -0.10781760841E+02  0.13487078317E+01  0.17157969084E+03  0.17120000000E+03 0.  0.
        998    1    1    2    0    0 -0.26222645431E+01 -0.39300424639E+00  0.14317006892E+04  0.14317380676E+04  0.10000000000E+02 0.  1.
</event>
<event>
 5    1  0.1535793E-008  0.3744016E+03  0.7957747E-01  0.3475904E+00
         13   -1    0    0    0    0  0.00000000000E+00  0.00000000000E+00  0.14999999963E+04  0.15000000000E+04  0.10566000000E+00 0. -1.
        994   -1    0    0    0    0 -0.00000000000E+00 -0.00000000000E+00  0.11368683772E-12  0.17120000000E+03  0.17120000000E+03 0.  0.
         13    1    1    2    0    0  0.25796897762E+02  0.25901833595E+02  0.92363102390E+02  0.99334479235E+02  0.10566000000E+00 0. -1.
        994    1    1    2    0    0  0.59465967350E+01 -0.41279882595E+02  0.12934000561E+02  0.17668083962E+03  0.17120000000E+03 0.  0.
        998    1    1    2    0    0 -0.31743494497E+02  0.15378049000E+02  0.13947028933E+04  0.13951846811E+04  0.10000000000E+02 0. -1.
</event>
<event>
 5    1  0.1535793E-008  0.3824669E+03  0.7957747E-01  0.3440487E+00
         13   -1    0    0    0    0  0.00000000000E+00  0.00000000000E+00  0.14999999963E+04  0.15000000000E+04  0.10566000000E+00 0. -1.
        994   -1    0    0    0    0 -0.00000000000E+00 -0.00000000000E+00  0.11368683772E-12  0.17120000000E+03  0.17120000000E+03 0.  0.
         13    1    1    2    0    0 -0.18057359339E+02  0.98608489658E+01  0.75374836620E+02  0.78132462704E+02  0.10566000000E+00 0. -1.
        994    1    1    2    0    0 -0.60372831497E+00 -0.11893115972E+02  0.33633784354E+01  0.17164662248E+03  0.17120000000E+03 0.  0.
        998    1    1    2    0    0  0.18661087654E+02  0.20322670065E+01  0.14212617812E+04  0.14214209148E+04  0.10000000000E+02 0. -1.
</event>
<event>
 5    1  0.1535793E-008  0.3856285E+03  0.7957747E-01  0.3427011E+00
         13   -1    0    0    0    0  0.00000000000E+00  0.00000000000E+00  0.14999999963E+04  0.15000000000E+04  0.10566000000E+00 0. -1.
        994   -1    0    0    0    0 -0.00000000000E+00 -0.00000000000E+00  0.11368683772E-12  0.17120000000E+03  0.17120000000E+03 0.  0.
         13    1    1    2    0    0 -0.14852941391E+03  0.24861092054E+02  0.88712363074E+03  0.89981520773E+03  0.10566000000E+00 0. -1.
        994    1    1    2    0    0  0.18494404125E+03 -0.34180971247E+02  0.12758051705E+03  0.28453271432E+03  0.17120000000E+03 0.  0.
        998    1    1    2    0    0 -0.36414627347E+02  0.93198791932E+01  0.48529584849E+03  0.48685207794E+03  0.10000000000E+02 0. -1.
</event>
<event>
 5    1  0.1535793E-008  0.3842304E+03  0.7957747E-01  0.3432943E+00
         13   -1    0    0    0    0  0.00000000000E+00  0.00000000000E+00  0.14999999963E+04  0.15000000000E+04  0.10566000000E+00 0. -1.
        994   -1    0    0    0    0 -0.00000000000E+00 -0.00000000000E+00  0.11368683772E-12  0.17120000000E+03  0.17120000000E+03 0.  0.
         13    1    1    2    0    0  0.15223446124E+02 -0.17815251696E+01  0.57026990082E+02  0.59050960244E+02  0.10566000000E+00 0. -1.
        994    1    1    2    0    0 -0.12896566650E+02  0.38241341060E+01  0.26094812438E+01  0.17174747400E+03  0.17120000000E+03 0.  0.
        998    1    1    2    0    0 -0.23268794742E+01 -0.20426089364E+01  0.14403635250E+04  0.14404015658E+04  0.10000000000E+02 0. -1.
</event>
<event>
 5    1  0.1535793E-008  0.3740609E+03  0.7957747E-01  0.3477434E+00
         13   -1    0    0    0    0  0.00000000000E+00  0.00000000000E+00  0.14999999963E+04  0.15000000000E+04  0.10566000000E+00 0. -1.
        994   -1    0    0    0    0 -0.00000000000E+00 -0.00000000000E+00  0.11368683772E-12  0.17120000000E+03  0.17120000000E+03 0.  0.
         13    1    1    2    0    0 -0.88595694441E+01  0.11614967650E+02  0.11617880028E+02  0.18665094284E+02  0.10566000000E+00 0. -1.
        994    1    1    2    0    0  0.50730398137E+01 -0.13778707906E+02  0.78972764956E+01  0.17200987036E+03  0.17120000000E+03 0.  0.
        998    1    1    2    0    0  0.37865296304E+01  0.21637402567E+01  0.14804848398E+04  0.14805250354E+04  0.10000000000E+02 0. -1.
</event>
<event>
 5    1  0.1535793E-008  0.4438629E+03  0.7957747E-01  0.3212900E+00
         13   -1    0    0    0    0  0.00000000000E+00  0.00000000000E+00  0.14999999963E+04  0.15000000000E+04  0.10566000000E+00 0.  1.
        994   -1    0    0    0    0 -0.00000000000E+00 -0.00000000000E+00  0.11368683772E-12  0.17120000000E+03  0.17120000000E+03 0.  0.
         13    1    1    2    0    0  0.10783786979E+03 -0.32123067501E+01  0.80076210521E+02  0.13435600370E+03  0.10566000000E+00 0.  1.
        994    1    1    2    0    0 -0.11116574763E+03  0.60975278133E+01  0.11997867636E+03  0.23685296298E+03  0.17120000000E+03 0.  0.
        998    1    1    2    0    0  0.33278778421E+01 -0.28852210632E+01  0.12999451094E+04  0.12999910333E+04  0.10000000000E+02 0.  1.
</event>
<event>
 5    1  0.1535793E-008  0.3785986E+03  0.7957747E-01  0.3457283E+00
         13   -1    0    0    0    0  0.00000000000E+00  0.00000000000E+00  0.14999999963E+04  0.15000000000E+04  0.10566000000E+00 0. -1.
        994   -1    0    0    0    0 -0.00000000000E+00 -0.00000000000E+00  0.11368683772E-12  0.17120000000E+03  0.17120000000E+03 0.  0.
         13    1    1    2    0    0 -0.37137878610E+02 -0.66555825803E+02  0.40797932998E+03  0.41503740173E+03  0.10566000000E+00 0. -1.
        994    1    1    2    0    0  0.29411026247E+02  0.77834886907E+02  0.28457326158E+02  0.19246437981E+03  0.17120000000E+03 0.  0.
        998    1    1    2    0    0  0.77268523630E+01 -0.11279061104E+02  0.10635633401E+04  0.10636982185E+04  0.10000000000E+02 0. -1.
</event>
<event>
 5    1  0.1535793E-008  0.3717518E+03  0.7957747E-01  0.3487878E+00
         13   -1    0    0    0    0  0.00000000000E+00  0.00000000000E+00  0.14999999963E+04  0.15000000000E+04  0.10566000000E+00 0.  1.
        994   -1    0    0    0    0 -0.00000000000E+00 -0.00000000000E+00  0.11368683772E-12  0.17120000000E+03  0.17120000000E+03 0.  0.
         13    1    1    2    0    0  0.13850896092E+02  0.42018650668E+02  0.74620117826E+02  0.86750143947E+02  0.10566000000E+00 0.  1.
        994    1    1    2    0    0 -0.15004386993E+02 -0.41627126143E+02  0.18787210119E+02  0.17782111383E+03  0.17120000000E+03 0.  0.
        998    1    1    2    0    0  0.11534909012E+01 -0.39152452510E+00  0.14065926683E+04  0.14066287422E+04  0.10000000000E+02 0.  1.
</event>
<event>
 5    1  0.1535793E-008  0.3709272E+03  0.7957747E-01  0.3491640E+00
         13   -1    0    0    0    0  0.00000000000E+00  0.00000000000E+00  0.14999999963E+04  0.15000000000E+04  0.10566000000E+00 0. -1.
        994   -1    0    0    0    0 -0.00000000000E+00 -0.00000000000E+00  0.11368683772E-12  0.17120000000E+03  0.17120000000E+03 0.  0.
         13    1    1    2    0    0  0.11102260757E+02 -0.28269059963E+02  0.33310882974E+02  0.45077999441E+02  0.10566000000E+00 0. -1.
        994    1    1    2    0    0 -0.29905778222E+02  0.41005407839E+02  0.20519503085E+02  0.17973950331E+03  0.17120000000E+03 0.  0.
        998    1    1    2    0    0  0.18803517465E+02 -0.12736347877E+02  0.14461696102E+04  0.14463824972E+04  0.10000000000E+02 0. -1.
</event>
<event>
 5    1  0.1581117E-008  0.3855155E+03  0.7957747E-01  0.3427489E+00
         13   -1    0    0    0    0  0.00000000000E+00  0.00000000000E+00  0.14999999963E+04  0.15000000000E+04  0.10566000000E+00 0.  1.
        994   -1    0    0    0    0 -0.00000000000E+00 -0.00000000000E+00  0.11368683772E-12  0.17120000000E+03  0.17120000000E+03 0.  0.
         13    1    1    2    0    0  0.29561035560E+01 -0.98894526124E+01  0.38834723007E+02  0.40183164339E+02  0.10566000000E+00 0.  1.
        994    1    1    2    0    0 -0.64375765606E+00  0.72759618263E+01  0.15496236974E+01  0.17136275960E+03  0.17120000000E+03 0.  0.
        998    1    1    2    0    0 -0.23123458999E+01  0.26134907862E+01  0.14596156496E+04  0.14596540761E+04  0.10000000000E+02 0.  1.
</event>
<event>
 5    1  0.1535793E-008  0.3738057E+03  0.7957747E-01  0.3478581E+00
         13   -1    0    0    0    0  0.00000000000E+00  0.00000000000E+00  0.14999999963E+04  0.15000000000E+04  0.10566000000E+00 0. -1.
        994   -1    0    0    0    0 -0.00000000000E+00 -0.00000000000E+00  0.11368683772E-12  0.17120000000E+03  0.17120000000E+03 0.  0.
         13    1    1    2    0    0 -0.10155497888E+02 -0.23392685630E+02  0.19249955928E+02  0.31951898935E+02  0.10566000000E+00 0. -1.
        994    1    1    2    0    0  0.10481199301E+02  0.24679975829E+02  0.15517053656E+02  0.17398038884E+03  0.17120000000E+03 0.  0.
        998    1    1    2    0    0 -0.32570141306E+00 -0.12872901998E+01  0.14652329867E+04  0.14652677122E+04  0.10000000000E+02 0. -1.
</event>
<event>
 5    1  0.1535793E-008  0.3560469E+03  0.7957747E-01  0.3562582E+00
         13   -1    0    0    0    0  0.00000000000E+00  0.00000000000E+00  0.14999999963E+04  0.15000000000E+04  0.10566000000E+00 0.  1.
        994   -1    0    0    0    0 -0.00000000000E+00 -0.00000000000E+00  0.11368683772E-12  0.17120000000E+03  0.17120000000E+03 0.  0.
         13    1    1    2    0    0  0.21117534130E+03  0.14608485196E+03  0.94443643959E+03  0.97872161943E+03  0.10566000000E+00 0.  1.
        994    1    1    2    0    0 -0.21573845212E+03 -0.13632652290E+03  0.27759436170E+03  0.41412084011E+03  0.17120000000E+03 0.  0.
        998    1    1    2    0    0  0.45631108200E+01 -0.97583290659E+01  0.27796919499E+03  0.27835754046E+03  0.10000000000E+02 0.  0.
</event>
<event>
 5    1  0.1535793E-008  0.3798533E+03  0.7957747E-01  0.3451797E+00
         13   -1    0    0    0    0  0.00000000000E+00  0.00000000000E+00  0.14999999963E+04  0.15000000000E+04  0.10566000000E+00 0.  1.
        994   -1    0    0    0    0 -0.00000000000E+00 -0.00000000000E+00  0.11368683772E-12  0.17120000000E+03  0.17120000000E+03 0.  0.
         13    1    1    2    0    0  0.17563367628E+02 -0.12684748644E+02  0.67686397109E+02  0.71069221525E+02  0.10566000000E+00 0.  1.
        994    1    1    2    0    0 -0.31335675876E+01 -0.64577294308E+02  0.18316600902E+02  0.18391569823E+03  0.17120000000E+03 0.  0.
        998    1    1    2    0    0 -0.14429800040E+02  0.77262042951E+02  0.14139969983E+04  0.14162150802E+04  0.10000000000E+02 0.  1.
</event>
<event>
 5    1  0.1535793E-008  0.3819754E+03  0.7957747E-01  0.3442602E+00
         13   -1    0    0    0    0  0.00000000000E+00  0.00000000000E+00  0.14999999963E+04  0.15000000000E+04  0.10566000000E+00 0. -1.
        994   -1    0    0    0    0 -0.00000000000E+00 -0.00000000000E+00  0.11368683772E-12  0.17120000000E+03  0.17120000000E+03 0.  0.
         13    1    1    2    0    0  0.19618166088E+02 -0.30137666420E+02  0.19386521904E+03  0.19717222343E+03  0.10566000000E+00 0. -1.
        994    1    1    2    0    0 -0.61981082139E+01  0.29239708310E+02  0.61120565881E+01  0.17389702218E+03  0.17120000000E+03 0.  0.
        998    1    1    2    0    0 -0.13420057874E+02  0.89795811032E+00  0.13000227207E+04  0.13001307544E+04  0.10000000000E+02 0. -1.
</event>
<event>
 5    1  0.1535793E-008  0.3744392E+03  0.7957747E-01  0.3475735E+00
         13   -1    0    0    0    0  0.00000000000E+00  0.00000000000E+00  0.14999999963E+04  0.15000000000E+04  0.10566000000E+00 0. -1.
        994   -1    0    0    0    0 -0.00000000000E+00 -0.00000000000E+00  0.11368683772E-12  0.17120000000E+03  0.17120000000E+03 0.  0.
         13    1    1    2    0    0 -0.29085577782E+02  0.10908345397E+02  0.72821382897E+02  0.79170245707E+02  0.10566000000E+00 0. -1.
        994    1    1    2    0    0 -0.50719379855E+01 -0.31129498055E+00  0.70549427098E+01  0.17142063375E+03  0.17120000000E+03 0.  0.
        998    1    1    2    0    0  0.34157515767E+02 -0.10597050417E+02  0.14201236707E+04  0.14206091205E+04  0.10000000000E+02 0. -1.
</event>
<event>
 5    1  0.1535793E-008  0.3791934E+03  0.7957747E-01  0.3454678E+00
         13   -1    0    0    0    0  0.00000000000E+00  0.00000000000E+00  0.14999999963E+04  0.15000000000E+04  0.10566000000E+00 0.  1.
        994   -1    0    0    0    0 -0.00000000000E+00 -0.00000000000E+00  0.11368683772E-12  0.17120000000E+03  0.17120000000E+03 0.  0.
         13    1    1    2    0    0 -0.26466799902E+02 -0.38438539787E+02  0.21916204650E+03  0.22407593943E+03  0.10566000000E+00 0.  1.
        994    1    1    2    0    0  0.74028468250E+01  0.41758179521E+02  0.10593019904E+02  0.17669238741E+03  0.17120000000E+03 0.  0.
        998    1    1    2    0    0  0.19063953077E+02 -0.33196397335E+01  0.12702449299E+04  0.12704316732E+04  0.10000000000E+02 0.  1.
</event>
<event>
 5    1  0.1535793E-008  0.3855749E+03  0.7957747E-01  0.3427238E+00
         13   -1    0    0    0    0  0.00000000000E+00  0.00000000000E+00  0.14999999963E+04  0.15000000000E+04  0.10566000000E+00 0. -1.
        994   -1    0    0    0    0 -0.00000000000E+00 -0.00000000000E+00  0.11368683772E-12  0.17120000000E+03  0.17120000000E+03 0.  0.
         13    1    1    2    0    0 -0.64706548827E+00 -0.15402959233E+02  0.93142421587E+02  0.94409701355E+02  0.10566000000E+00 0. -1.
        994    1    1    2    0    0  0.42705487634E+01  0.42394970074E+01  0.14638370432E+01  0.17131197781E+03  0.17120000000E+03 0.  0.
        998    1    1    2    0    0 -0.36234832751E+01  0.11163462226E+02  0.14053937376E+04  0.14054783208E+04  0.10000000000E+02 0. -1.
</event>
<event>
 5    1  0.1535793E-008  0.3811437E+03  0.7957747E-01  0.3446194E+00
         13   -1    0    0    0    0  0.00000000000E+00  0.00000000000E+00  0.14999999963E+04  0.15000000000E+04  0.10566000000E+00 0.  1.
        994   -1    0    0    0    0 -0.00000000000E+00 -0.00000000000E+00  0.11368683772E-12  0.17120000000E+03  0.17120000000E+03 0.  0.
         13    1    1    2    0    0  0.25378472488E+02  0.27586567321E+02  0.18727744517E+03  0.19099198464E+03  0.10566000000E+00 0.  1.
        994    1    1    2    0    0 -0.21979291115E+02 -0.17825758258E+02  0.62285981480E+01  0.17363491104E+03  0.17120000000E+03 0.  0.
        998    1    1    2    0    0 -0.33991813730E+01 -0.97608090630E+01  0.13064939530E+04  0.13065731043E+04  0.10000000000E+02 0.  1.
</event>
<event>
 5    1  0.1799762E-008  0.3848972E+03  0.7957747E-01  0.3430108E+00
         13   -1    0    0    0    0  0.00000000000E+00  0.00000000000E+00  0.14999999963E+04  0.15000000000E+04  0.10566000000E+00 0. -1.
        994   -1    0    0    0    0 -0.00000000000E+00 -0.00000000000E+00  0.11368683772E-12  0.17120000000E+03  0.17120000000E+03 0.  0.
         13    1    1    2    0    0 -0.12877043350E+02 -0.10946469267E+02  0.81150623664E+02  0.82891967765E+02  0.10566000000E+00 0. -1.
        994    1    1    2    0    0  0.15660221413E+02  0.87003878212E+01  0.27377041183E+01  0.17215654012E+03  0.17120000000E+03 0.  0.
        998    1    1    2    0    0 -0.27831780625E+01  0.22460814463E+01  0.14161116685E+04  0.14161514921E+04  0.10000000000E+02 0. -1.
</event>
<event>
 5    1  0.1535793E-008  0.3831373E+03  0.7957747E-01  0.3437611E+00
         13   -1    0    0    0    0  0.00000000000E+00  0.00000000000E+00  0.14999999963E+04  0.15000000000E+04  0.10566000000E+00 0. -1.
        994   -1    0    0    0    0 -0.00000000000E+00 -0.00000000000E+00  0.11368683772E-12  0.17120000000E+03  0.17120000000E+03 0.  0.
         13    1    1    2    0    0  0.69982290727E+01 -0.15493209403E+02  0.55215364664E+02  0.57773371087E+02  0.10566000000E+00 0. -1.
        994    1    1    2    0    0 -0.18348519709E+01  0.13663035078E+02  0.31867981244E+01  0.17178370380E+03  0.17120000000E+03 0.  0.
        998    1    1    2    0    0 -0.51633771018E+01  0.18301743258E+01  0.14415978335E+04  0.14416429251E+04  0.10000000000E+02 0. -1.
</event>
<event>
 5    1  0.1535793E-008  0.3943565E+03  0.7957747E-01  0.3390934E+00
         13   -1    0    0    0    0  0.00000000000E+00  0.00000000000E+00  0.14999999963E+04  0.15000000000E+04  0.10566000000E+00 0. -1.
        994   -1    0    0    0    0 -0.00000000000E+00 -0.00000000000E+00  0.11368683772E-12  0.17120000000E+03  0.17120000000E+03 0.  0.
         13    1    1    2    0    0  0.54538108285E+01  0.14819072092E+02 -0.56580043002E+01  0.16774180365E+02  0.10566000000E+00 0. -1.
        994    1    1    2    0    0  0.39420904000E+02  0.10675373464E+02  0.30857386622E+02  0.17868852672E+03  0.17120000000E+03 0.  0.
        998    1    1    2    0    0 -0.44874714829E+02 -0.25494445556E+02  0.14748006140E+04  0.14757372929E+04  0.10000000000E+02 0. -1.
</event>
<event>
 5    1  0.1535793E-008  0.3845915E+03  0.7957747E-01  0.3431407E+00
         13   -1    0    0    0    0  0.00000000000E+00  0.00000000000E+00  0.14999999963E+04  0.15000000000E+04  0.10566000000E+00 0. -1.
        994   -1    0    0    0    0 -0.00000000000E+00 -0.00000000000E+00  0.11368683772E-12  0.17120000000E+03  0.17120000000E+03 0.  0.
         13    1    1    2    0    0  0.14632237760E+02 -0.24516102955E+01  0.58602640471E+02  0.60451579045E+02  0.10566000000E+00 0. -1.
        994    1    1    2    0    0 -0.13195353101E+02  0.26458248775E+01  0.24297509250E+01  0.17174533887E+03  0.17120000000E+03 0.  0.
        998    1    1    2    0    0 -0.14368846594E+01 -0.19421458201E+00  0.14389676049E+04  0.14390030821E+04  0.10000000000E+02 0.  0.
</event>
<event>
 5    1  0.1535793E-008  0.3805062E+03  0.7957747E-01  0.3448958E+00
         13   -1    0    0    0    0  0.00000000000E+00  0.00000000000E+00  0.14999999963E+04  0.15000000000E+04  0.10566000000E+00 0.  1.
        994   -1    0    0    0    0 -0.00000000000E+00 -0.00000000000E+00  0.11368683772E-12  0.17120000000E+03  0.17120000000E+03 0.  0.
         13    1    1    2    0    0  0.12981373016E+02  0.15411087315E+02  0.50988831472E+02  0.54825995262E+02  0.10566000000E+00 0.  1.
        994    1    1    2    0    0 -0.66981048962E+01 -0.11141274958E+02  0.44420430562E+01  0.17175029655E+03  0.17120000000E+03 0.  0.
        998    1    1    2    0    0 -0.62832681202E+01 -0.42698123565E+01  0.14445691218E+04  0.14446237082E+04  0.10000000000E+02 0.  1.
</event>
<event>
 5    1  0.1535793E-008  0.4186081E+03  0.7957747E-01  0.3298551E+00
         13   -1    0    0    0    0  0.00000000000E+00  0.00000000000E+00  0.14999999963E+04  0.15000000000E+04  0.10566000000E+00 0. -1.
        994   -1    0    0    0    0 -0.00000000000E+00 -0.00000000000E+00  0.11368683772E-12  0.17120000000E+03  0.17120000000E+03 0.  0.
         13    1    1    2    0    0 -0.31829279008E+02 -0.10337795057E+03  0.13733814544E+03  0.17481956706E+03  0.10566000000E+00 0. -1.
        994    1    1    2    0    0  0.12174446594E+02  0.80423023553E+02  0.68063135027E+02  0.20139044222E+03  0.17120000000E+03 0.  0.
        998    1    1    2    0    0  0.19654832415E+02  0.22954927021E+02  0.12945987158E+04  0.12949899907E+04  0.10000000000E+02 0. -1.
</event>
<event>
 5    1  0.1535793E-008  0.3812973E+03  0.7957747E-01  0.3445529E+00
         13   -1    0    0    0    0  0.00000000000E+00  0.00000000000E+00  0.14999999963E+04  0.15000000000E+04  0.10566000000E+00 0. -1.
        994   -1    0    0    0    0 -0.00000000000E+00 -0.00000000000E+00  0.11368683772E-12  0.17120000000E+03  0.17120000000E+03 0.  0.
         13    1    1    2    0    0  0.11731893604E+02  0.13263388923E+02  0.42743101680E+02  0.46265956367E+02  0.10566000000E+00 0. -1.
        994    1    1    2    0    0 -0.53904053959E+01 -0.19549417399E+02  0.48497813047E+01  0.17246505898E+03  0.17120000000E+03 0.  0.
        998    1    1    2    0    0 -0.63414882082E+01  0.62860284760E+01  0.14524071133E+04  0.14524689847E+04  0.10000000000E+02 0. -1.
</event>
<event>
 5    1  0.1535793E-008  0.3853413E+03  0.7957747E-01  0.3428226E+00
         13   -1    0    0    0    0  0.00000000000E+00  0.00000000000E+00  0.14999999963E+04  0.15000000000E+04  0.10566000000E+00 0. -1.
        994   -1    0    0    0    0 -0.00000000000E+00 -0.00000000000E+00  0.11368683772E-12  0.17120000000E+03  0.17120000000E+03 0.  0.
         13    1    1    2    0    0  0.65968638755E+01  0.90993859147E+01  0.41123136300E+02  0.42631454822E+02  0.10566000000E+00 0. -1.
        994    1    1    2    0    0 -0.10177132950E+02 -0.13977483799E+02  0.24434313320E+01  0.17208821704E+03  0.17120000000E+03 0.  0.
        998    1    1    2    0    0  0.35802690746E+01  0.48780978844E+01  0.14564334286E+04  0.14564803281E+04  0.10000000000E+02 0. -1.
</event>
<event>
 5    1  0.1535793E-008  0.3800717E+03  0.7957747E-01  0.3450846E+00
         13   -1    0    0    0    0  0.00000000000E+00  0.00000000000E+00  0.14999999963E+04  0.15000000000E+04  0.10566000000E+00 0. -1.
        994   -1    0    0    0    0 -0.00000000000E+00 -0.00000000000E+00  0.11368683772E-12  0.17120000000E+03  0.17120000000E+03 0.  0.
         13    1    1    2    0    0  0.37452558116E+02 -0.34028648719E+01  0.19197856390E+03  0.19562733388E+03  0.10566000000E+00 0. -1.
        994    1    1    2    0    0 -0.65331510590E+01 -0.16492921299E+01  0.42486911250E+01  0.17138521991E+03  0.17120000000E+03 0.  0.
        998    1    1    2    0    0 -0.30919407057E+02  0.50521570019E+01  0.13037727413E+04  0.13041874462E+04  0.10000000000E+02 0. -1.
</event>
<event>
 5    1  0.1535793E-008  0.3689891E+03  0.7957747E-01  0.3500550E+00
         13   -1    0    0    0    0  0.00000000000E+00  0.00000000000E+00  0.14999999963E+04  0.15000000000E+04  0.10566000000E+00 0. -1.
        994   -1    0    0    0    0 -0.00000000000E+00 -0.00000000000E+00  0.11368683772E-12  0.17120000000E+03  0.17120000000E+03 0.  0.
         13    1    1    2    0    0 -0.17221616818E+02  0.72312178468E+02  0.36273775092E+03  0.37027600833E+03  0.10566000000E+00 0. -1.
        994    1    1    2    0    0  0.29617081054E+02  0.66039251986E+01  0.13619693891E+02  0.17440103033E+03  0.17120000000E+03 0.  0.
        998    1    1    2    0    0 -0.12395464236E+02 -0.78916103667E+02  0.11236425515E+04  0.11265229613E+04  0.10000000000E+02 0.  1.
</event>
<event>
 5    1  0.1535793E-008  0.3755293E+03  0.7957747E-01  0.3470859E+00
         13   -1    0    0    0    0  0.00000000000E+00  0.00000000000E+00  0.14999999963E+04  0.15000000000E+04  0.10566000000E+00 0.  1.
        994   -1    0    0    0    0 -0.00000000000E+00 -0.00000000000E+00  0.11368683772E-12  0.17120000000E+03  0.17120000000E+03 0.  0.
         13    1    1    2    0    0 -0.24520572030E+02  0.15533526127E+02  0.60163895796E+02  0.66800107845E+02  0.10566000000E+00 0.  1.
        994    1    1    2    0    0  0.30565046536E+02 -0.14330628828E+02  0.10283736695E+02  0.17479926840E+03  0.17120000000E+03 0.  0.
        998    1    1    2    0    0 -0.60444745061E+01 -0.12028972993E+01  0.14295523638E+04  0.14296006238E+04  0.10000000000E+02 0.  1.
</event>
<event>
 5    1  0.1535793E-008  0.3843805E+03  0.7957747E-01  0.3432304E+00
         13   -1    0    0    0    0  0.00000000000E+00  0.00000000000E+00  0.14999999963E+04  0.15000000000E+04  0.10566000000E+00 0.  1.
        994   -1    0    0    0    0 -0.00000000000E+00 -0.00000000000E+00  0.11368683772E-12  0.17120000000E+03  0.17120000000E+03 0.  0.
         13    1    1    2    0    0  0.17426872655E+02 -0.79397585888E+01  0.85562810251E+02  0.87679765733E+02  0.10566000000E+00 0.  1.
        994    1    1    2    0    0 -0.30683120278E+02 -0.14782219006E+01  0.50537587055E+01  0.17400752710E+03  0.17120000000E+03 0.  0.
        998    1    1    2    0    0  0.13256247623E+02  0.94179804894E+01  0.14093834273E+04  0.14095127072E+04  0.10000000000E+02 0.  1.
</event>
<event>
 5    1  0.1535793E-008  0.3802653E+03  0.7957747E-01  0.3450004E+00
         13   -1    0    0    0    0  0.00000000000E+00  0.00000000000E+00  0.14999999963E+04  0.15000000000E+04  0.10566000000E+00 0.  1.
        994   -1    0    0    0    0 -0.00000000000E+00 -0.00000000000E+00  0.11368683772E-12  0.17120000000E+03  0.17120000000E+03 0.  0.
         13    1    1    2    0    0  0.24790644441E+01  0.11583803294E+02  0.16191540838E+02  0.20062587521E+02  0.10566000000E+00 0.  1.
        994    1    1    2    0    0  0.25902515374E+01 -0.50961472287E+00  0.40225475207E+01  0.17126759763E+03  0.17120000000E+03 0.  0.
        998    1    1    2    0    0 -0.50693159815E+01 -0.11074188571E+02  0.14797859079E+04  0.14798698148E+04  0.10000000000E+02 0.  1.
</event>
<event>
 5    1  0.1535793E-008  0.3822499E+03  0.7957747E-01  0.3441420E+00
         13   -1    0    0    0    0  0.00000000000E+00  0.00000000000E+00  0.14999999963E+04  0.15000000000E+04  0.10566000000E+00 0. -1.
        994   -1    0    0    0    0 -0.00000000000E+00 -0.00000000000E+00  0.11368683772E-12  0.17120000000E+03  0.17120000000E+03 0.  0.
         13    1    1    2    0    0 -0.43825376056E+01  0.27316679484E+02  0.14985434386E+03  0.15238682080E+03  0.10566000000E+00 0. -1.
        994    1    1    2    0    0  0.67072788367E+01  0.69339805226E+01  0.33105751189E+01  0.17150354977E+03  0.17120000000E+03 0.  0.
        998    1    1    2    0    0 -0.23247412312E+01 -0.34250660007E+02  0.13468350773E+04  0.13473096294E+04  0.10000000000E+02 0. -1.
</event>
<event>
 5    1  0.1535793E-008  0.3814191E+03  0.7957747E-01  0.3445003E+00
         13   -1    0    0    0    0  0.00000000000E+00  0.00000000000E+00  0.14999999963E+04  0.15000000000E+04  0.10566000000E+00 0. -1.
        994   -1    0    0    0    0 -0.00000000000E+00 -0.00000000000E+00  0.11368683772E-12  0.17120000000E+03  0.17120000000E+03 0.  0.
         13    1    1    2    0    0  0.32462618604E+01  0.18085070562E+02  0.46833160464E+02  0.50308687882E+02  0.10566000000E+00 0. -1.
        994    1    1    2    0    0 -0.70848716625E+01 -0.18249390748E+02  0.46947073751E+01  0.17237956940E+03  0.17120000000E+03 0.  0.
        998    1    1    2    0    0  0.38386098020E+01  0.16432018584E+00  0.14484721284E+04  0.14485117427E+04  0.10000000000E+02 0. -1.
</event>
<event>
 5    1  0.1535793E-008  0.3031087E+03  0.7957747E-01  0.3874073E+00
         13   -1    0    0    0    0  0.00000000000E+00  0.00000000000E+00  0.14999999963E+04  0.15000000000E+04  0.10566000000E+00 0. -1.
        994   -1    0    0    0    0 -0.00000000000E+00 -0.00000000000E+00  0.11368683772E-12  0.17120000000E+03  0.17120000000E+03 0.  0.
         13    1    1    2    0    0  0.24470521930E+03 -0.19431045234E+02  0.55577957098E+03  0.60757645819E+03  0.10566000000E+00 0. -1.
        994    1    1    2    0    0 -0.21231730600E+03  0.50047758173E+02  0.26726151062E+03  0.38512539722E+03  0.17120000000E+03 0.  0.
        998    1    1    2    0    0 -0.32387913307E+02 -0.30616712938E+02  0.67695891468E+03  0.67849814459E+03  0.10000000000E+02 0. -1.
</event>
<event>
 5    1  0.1535793E-008  0.3857721E+03  0.7957747E-01  0.3426404E+00
         13   -1    0    0    0    0  0.00000000000E+00  0.00000000000E+00  0.14999999963E+04  0.15000000000E+04  0.10566000000E+00 0. -1.
        994   -1    0    0    0    0 -0.00000000000E+00 -0.00000000000E+00  0.11368683772E-12  0.17120000000E+03  0.17120000000E+03 0.  0.
         13    1    1    2    0    0 -0.76703883571E+01  0.78915738784E+01  0.52367473601E+02  0.53511449721E+02  0.10566000000E+00 0. -1.
        994    1    1    2    0    0 -0.79770494191E+01 -0.38000889400E+01  0.15034451559E+01  0.17143446077E+03  0.17120000000E+03 0.  0.
        998    1    1    2    0    0  0.15647437776E+02 -0.40914849384E+01  0.14461290775E+04  0.14462540895E+04  0.10000000000E+02 0. -1.
</event>
<event>
 5    1  0.1535793E-008  0.3823419E+03  0.7957747E-01  0.3441024E+00
         13   -1    0    0    0    0  0.00000000000E+00  0.00000000000E+00  0.14999999963E+04  0.15000000000E+04  0.10566000000E+00 0.  1.
        994   -1    0    0    0    0 -0.00000000000E+00 -0.00000000000E+00  0.11368683772E-12  0.17120000000E+03  0.17120000000E+03 0.  0.
         13    1    1    2    0    0 -0.71384012924E+01  0.81093071672E+01  0.18347156940E+02  0.21291946073E+02  0.10566000000E+00 0.  1.
        994    1    1    2    0    0  0.87523298360E+01 -0.82855170184E+01  0.34376215676E+01  0.17165812044E+03  0.17120000000E+03 0.  0.
        998    1    1    2    0    0 -0.16139285436E+01  0.17620985128E+00  0.14782152178E+04  0.14782499335E+04  0.10000000000E+02 0.  1.
</event>
<event>
 5    1  0.1535793E-008  0.3848878E+03  0.7957747E-01  0.3430148E+00
         13   -1    0    0    0    0  0.00000000000E+00  0.00000000000E+00  0.14999999963E+04  0.15000000000E+04  0.10566000000E+00 0.  1.
        994   -1    0    0    0    0 -0.00000000000E+00 -0.00000000000E+00  0.11368683772E-12  0.17120000000E+03  0.17120000000E+03 0.  0.
         13    1    1    2    0    0 -0.68302429618E+01 -0.17263188010E+02  0.11202427101E+03  0.11355227139E+03  0.10566000000E+00 0.  1.
        994    1    1    2    0    0  0.44936757143E+01 -0.87041139617E+00  0.17547988868E+01  0.17127016686E+03  0.17120000000E+03 0.  0.
        998    1    1    2    0    0  0.23365672475E+01  0.18133599406E+02  0.13862209264E+04  0.13863775617E+04  0.10000000000E+02 0.  1.
</event>
<event>
 5    1  0.1535793E-008  0.3822714E+03  0.7957747E-01  0.3441327E+00
         13   -1    0    0    0    0  0.00000000000E+00  0.00000000000E+00  0.14999999963E+04  0.15000000000E+04  0.10566000000E+00 0.  1.
        994   -1    0    0    0    0 -0.00000000000E+00 -0.00000000000E+00  0.11368683772E-12  0.17120000000E+03  0.17120000000E+03 0.  0.
         13    1    1    2    0    0  0.16353855388E+02 -0.26041951960E+02  0.12778680418E+03  0.13143481401E+03  0.10566000000E+00 0.  1.
        994    1    1    2    0    0 -0.56418765365E+02  0.25385167458E+02  0.15796159415E+02  0.18271957329E+03  0.17120000000E+03 0.  0.
        998    1    1    2    0    0  0.40064909977E+02  0.65678450183E+00  0.13564170327E+04  0.13570456127E+04  0.10000000000E+02 0.  1.
</event>
<event>
 5    1  0.1535793E-008  0.3782595E+03  0.7957747E-01  0.3458772E+00
         13   -1    0    0    0    0  0.00000000000E+00  0.00000000000E+00  0.14999999963E+04  0.15000000000E+04  0.10566000000E+00 0. -1.
        994   -1    0    0    0    0 -0.00000000000E+00 -0.00000000000E+00  0.11368683772E-12  0.17120000000E+03  0.17120000000E+03 0.  0.
         13    1    1    2    0    0  0.15754955059E+02 -0.56616933499E+01  0.25372692366E+02  0.30398323349E+02  0.10566000000E+00 0. -1.
        994    1    1    2    0    0 -0.18689908560E+02  0.31564628940E+01  0.62232240947E+01  0.17235847661E+03  0.17120000000E+03 0.  0.
        998    1    1    2    0    0  0.29349535016E+01  0.25052304558E+01  0.14684040798E+04  0.14684432000E+04  0.10000000000E+02 0. -1.
</event>
<event>
 5    1  0.1535793E-008  0.3817434E+03  0.7957747E-01  0.3443602E+00
         13   -1    0    0    0    0  0.00000000000E+00  0.00000000000E+00  0.14999999963E+04  0.15000000000E+04  0.10566000000E+00 0.  1.
        994   -1    0    0    0    0 -0.00000000000E+00 -0.00000000000E+00  0.11368683772E-12  0.17120000000E+03  0.17120000000E+03 0.  0.
         13    1    1    2    0    0  0.18160862600E+01  0.27386853758E+02  0.13179152055E+03  0.13461929275E+03  0.10566000000E+00 0.  1.
        994    1    1    2    0    0 -0.13545133593E+02  0.48311232956E+01  0.39433718447E+01  0.17184819050E+03  0.17120000000E+03 0.  0.
        998    1    1    2    0    0  0.11729047333E+02 -0.32217977054E+02  0.13642651039E+04  0.13647325167E+04  0.10000000000E+02 0.  1.
</event>
<event>
 5    1  0.1535793E-008  0.3154032E+03  0.7957747E-01  0.3791842E+00
         13   -1    0    0    0    0  0.00000000000E+00  0.00000000000E+00  0.14999999963E+04  0.15000000000E+04  0.10566000000E+00 0.  1.
        994   -1    0    0    0    0 -0.00000000000E+00 -0.00000000000E+00  0.11368683772E-12  0.17120000000E+03  0.17120000000E+03 0.  0.
         13    1    1    2    0    0 -0.18553200865E+03  0.41237153101E+02  0.85065032601E+03  0.87162412617E+03  0.10566000000E+00 0.  1.
        994    1    1    2    0    0  0.12602148208E+03 -0.12171444258E+03  0.14365771771E+03  0.28397675844E+03  0.17120000000E+03 0.  0.
        998    1    1    2    0    0  0.59510526566E+02  0.80477289484E+02  0.50569195256E+03  0.51559911538E+03  0.10000000000E+02 0. -1.
</event>
<event>
 5    1  0.1535793E-008  0.3818261E+03  0.7957747E-01  0.3443246E+00
         13   -1    0    0    0    0  0.00000000000E+00  0.00000000000E+00  0.14999999963E+04  0.15000000000E+04  0.10566000000E+00 0. -1.
        994   -1    0    0    0    0 -0.00000000000E+00 -0.00000000000E+00  0.11368683772E-12  0.17120000000E+03  0.17120000000E+03 0.  0.
         13    1    1    2    0    0  0.15173651111E+02  0.22421439639E+02  0.10793495456E+03  0.11127859732E+03  0.10566000000E+00 0. -1.
        994    1    1    2    0    0 -0.11494744112E+02 -0.21388784160E+02  0.51758160847E+01  0.17299086190E+03  0.17120000000E+03 0.  0.
        998    1    1    2    0    0 -0.36789069999E+01 -0.10326554789E+01  0.13868892256E+04  0.13869305408E+04  0.10000000000E+02 0. -1.
</event>
<event>
 5    1  0.1535793E-008  0.3847818E+03  0.7957747E-01  0.3430598E+00
         13   -1    0    0    0    0  0.00000000000E+00  0.00000000000E+00  0.14999999963E+04  0.15000000000E+04  0.10566000000E+00 0. -1.
        994   -1    0    0    0    0 -0.00000000000E+00 -0.00000000000E+00  0.11368683772E-12  0.17120000000E+03  0.17120000000E+03 0.  0.
         13    1    1    2    0    0  0.11136448444E+02 -0.70285581935E+01  0.48870953866E+02  0.50614251056E+02  0.10566000000E+00 0. -1.
        994    1    1    2    0    0 -0.91428138669E+01  0.80056893463E+01  0.22246932589E+01  0.17164519034E+03  0.17120000000E+03 0.  0.
        998    1    1    2    0    0 -0.19936345773E+01 -0.97713115274E+00  0.14489043492E+04  0.14489405586E+04  0.10000000000E+02 0. -1.
</event>
<event>
 5    1  0.1535793E-008  0.3801307E+03  0.7957747E-01  0.3450589E+00
         13   -1    0    0    0    0  0.00000000000E+00  0.00000000000E+00  0.14999999963E+04  0.15000000000E+04  0.10566000000E+00 0. -1.
        994   -1    0    0    0    0 -0.00000000000E+00 -0.00000000000E+00  0.11368683772E-12  0.17120000000E+03  0.17120000000E+03 0.  0.
         13    1    1    2    0    0  0.86147450657E+01 -0.63743580690E+02  0.38328182524E+03  0.38864177160E+03  0.10566000000E+00 0. -1.
        994    1    1    2    0    0 -0.11350169612E+02  0.62436507702E+02  0.17643159132E+02  0.18343354357E+03  0.17120000000E+03 0.  0.
        998    1    1    2    0    0  0.27354245460E+01  0.13070729880E+01  0.10990750119E+04  0.10991246848E+04  0.10000000000E+02 0.  0.
</event>
<event>
 5    1  0.1535793E-008  0.3838689E+03  0.7957747E-01  0.3434484E+00
         13   -1    0    0    0    0  0.00000000000E+00  0.00000000000E+00  0.14999999963E+04  0.15000000000E+04  0.10566000000E+00 0.  1.
        994   -1    0    0    0    0 -0.00000000000E+00 -0.00000000000E+00  0.11368683772E-12  0.17120000000E+03  0.17120000000E+03 0.  0.
         13    1    1    2    0    0 -0.15000141364E+02  0.30821568627E+01  0.52461304473E+02  0.54650741650E+02  0.10566000000E+00 0.  1.
        994    1    1    2    0    0  0.12067441412E+02 -0.10898448713E+01  0.26775069337E+01  0.17164911869E+03  0.17120000000E+03 0.  0.
        998    1    1    2    0    0  0.29326999515E+01 -0.19923119914E+01  0.14448611849E+04  0.14449001397E+04  0.10000000000E+02 0.  1.
</event>
<event>
 5    1  0.1535793E-008  0.3858646E+03  0.7957747E-01  0.3426013E+00
         13   -1    0    0    0    0  0.00000000000E+00  0.00000000000E+00  0.14999999963E+04  0.15000000000E+04  0.10566000000E+00 0.  1.
        994   -1    0    0    0    0 -0.00000000000E+00 -0.00000000000E+00  0.11368683772E-12  0.17120000000E+03  0.17120000000E+03 0.  0.
         13    1    1    2    0    0  0.33622633433E+01 -0.11009699330E+02  0.56354531495E+02  0.57518368181E+02  0.10566000000E+00 0.  1.
        994    1    1    2    0    0  0.63834101316E+01  0.82841091065E+01  0.15602432487E+01  0.17152623341E+03  0.17120000000E+03 0.  0.
        998    1    1    2    0    0 -0.97456734750E+01  0.27255902230E+01  0.14420852215E+04  0.14421553984E+04  0.10000000000E+02 0.  1.
</event>
<event>
 5    1  0.1535793E-008  0.3839763E+03  0.7957747E-01  0.3434026E+00
         13   -1    0    0    0    0  0.00000000000E+00  0.00000000000E+00  0.14999999963E+04  0.15000000000E+04  0.10566000000E+00 0.  1.
        994   -1    0    0    0    0 -0.00000000000E+00 -0.00000000000E+00  0.11368683772E-12  0.17120000000E+03  0.17120000000E+03 0.  0.
         13    1    1    2    0    0  0.22361835042E+02  0.10366244500E+02  0.14657056113E+03  0.14862856806E+03  0.10566000000E+00 0.  1.
        994    1    1    2    0    0 -0.10590152099E+02 -0.29386323309E+01  0.25378944752E+01  0.17157117412E+03  0.17120000000E+03 0.  0.
        998    1    1    2    0    0 -0.11771682942E+02 -0.74276121695E+01  0.13508915407E+04  0.13510002578E+04  0.10000000000E+02 0.  1.
</event>
<event>
 5    1  0.1833860E-008  0.3851665E+03  0.7957747E-01  0.3428966E+00
         13   -1    0    0    0    0  0.00000000000E+00  0.00000000000E+00  0.14999999963E+04  0.15000000000E+04  0.10566000000E+00 0.  1.
        994   -1    0    0    0    0 -0.00000000000E+00 -0.00000000000E+00  0.11368683772E-12  0.17120000000E+03  0.17120000000E+03 0.  0.
         13    1    1    2    0    0 -0.10562060809E+02  0.61305173981E+01  0.47657714688E+02  0.49197655487E+02  0.10566000000E+00 0.  1.
        994    1    1    2    0    0  0.96642706167E+01 -0.37340956372E+01  0.19004056931E+01  0.17152373929E+03  0.17120000000E+03 0.  0.
        998    1    1    2    0    0  0.89779019231E+00 -0.23964217609E+01  0.14504418759E+04  0.14504786052E+04  0.10000000000E+02 0.  1.
</event>
<event>
 5    1  0.1535793E-008  0.3712832E+03  0.7957747E-01  0.3490014E+00
         13   -1    0    0    0    0  0.00000000000E+00  0.00000000000E+00  0.14999999963E+04  0.15000000000E+04  0.10566000000E+00 0.  1.
        994   -1    0    0    0    0 -0.00000000000E+00 -0.00000000000E+00  0.11368683772E-12  0.17120000000E+03  0.17120000000E+03 0.  0.
         13    1    1    2    0    0  0.50595369337E+02 -0.67699628873E+01  0.12753059482E+03  0.13736734537E+03  0.10566000000E+00 0.  1.
        994    1    1    2    0    0 -0.66122876412E+02  0.78137016414E+01  0.24019269717E+02  0.18525564509E+03  0.17120000000E+03 0.  0.
        998    1    1    2    0    0  0.15527507076E+02 -0.10437387541E+01  0.13484501317E+04  0.13485770095E+04  0.10000000000E+02 0.  1.
</event>
<event>
 5    1  0.1535793E-008  0.3788589E+03  0.7957747E-01  0.3456142E+00
         13   -1    0    0    0    0  0.00000000000E+00  0.00000000000E+00  0.14999999963E+04  0.15000000000E+04  0.10566000000E+00 0.  1.
        994   -1    0    0    0    0 -0.00000000000E+00 -0.00000000000E+00  0.11368683772E-12  0.17120000000E+03  0.17120000000E+03 0.  0.
         13    1    1    2    0    0  0.21932824692E+02 -0.84991738836E+00  0.49602502732E+02  0.54241963458E+02  0.10566000000E+00 0.  1.
        994    1    1    2    0    0 -0.13005064945E+02 -0.30043480814E+01  0.53083337851E+01  0.17180156061E+03  0.17120000000E+03 0.  0.
        998    1    1    2    0    0 -0.89277597465E+01  0.38542654698E+01  0.14450891598E+04  0.14451564759E+04  0.10000000000E+02 0.  1.
</event>
<event>
 5    1  0.1535793E-008  0.3713792E+03  0.7957747E-01  0.3489576E+00
         13   -1    0    0    0    0  0.00000000000E+00  0.00000000000E+00  0.14999999963E+04  0.15000000000E+04  0.10566000000E+00 0.  1.
        994   -1    0    0    0    0 -0.00000000000E+00 -0.00000000000E+00  0.11368683772E-12  0.17120000000E+03  0.17120000000E+03 0.  0.
         13    1    1    2    0    0 -0.13568050203E+02 -0.16814928977E+02  0.15009402224E+02  0.26308309371E+02  0.10566000000E+00 0.  1.
        994    1    1    2    0    0 -0.28440356254E+01  0.20660718473E+02  0.13199391696E+02  0.17296999095E+03  0.17120000000E+03 0.  0.
        998    1    1    2    0    0  0.16412085828E+02 -0.38457894958E+01  0.14717912024E+04  0.14719216997E+04  0.10000000000E+02 0.  1.
</event>
<event>
 5    1  0.1535793E-008  0.3816285E+03  0.7957747E-01  0.3444098E+00
         13   -1    0    0    0    0  0.00000000000E+00  0.00000000000E+00  0.14999999963E+04  0.15000000000E+04  0.10566000000E+00 0. -1.
        994   -1    0    0    0    0 -0.00000000000E+00 -0.00000000000E+00  0.11368683772E-12  0.17120000000E+03  0.17120000000E+03 0.  0.
         13    1    1    2    0    0  0.12394170073E+02  0.91339672722E+01  0.34058917135E+02  0.37377343543E+02  0.10566000000E+00 0. -1.
        994    1    1    2    0    0 -0.10121994259E+02 -0.10703700299E+02  0.40352704270E+01  0.17188003775E+03  0.17120000000E+03 0.  0.
        998    1    1    2    0    0 -0.22721758139E+01  0.15697330266E+01  0.14619058087E+04  0.14619426187E+04  0.10000000000E+02 0. -1.
</event>
<event>
 5    1  0.1535793E-008  0.3818781E+03  0.7957747E-01  0.3443022E+00
         13   -1    0    0    0    0  0.00000000000E+00  0.00000000000E+00  0.14999999963E+04  0.15000000000E+04  0.10566000000E+00 0. -1.
        994   -1    0    0    0    0 -0.00000000000E+00 -0.00000000000E+00  0.11368683772E-12  0.17120000000E+03  0.17120000000E+03 0.  0.
         13    1    1    2    0    0 -0.31560946191E+02  0.95584456465E+01  0.17114555928E+03  0.17429363395E+03  0.10566000000E+00 0. -1.
        994    1    1    2    0    0  0.45154214002E+02  0.59529009497E+02  0.21962541696E+02  0.18808083170E+03  0.17120000000E+03 0.  0.
        998    1    1    2    0    0 -0.13593267811E+02 -0.69087455143E+02  0.13068918953E+04  0.13088255344E+04  0.10000000000E+02 0. -1.
</event>
<event>
 5    1  0.1535793E-008  0.3853617E+03  0.7957747E-01  0.3428140E+00
         13   -1    0    0    0    0  0.00000000000E+00  0.00000000000E+00  0.14999999963E+04  0.15000000000E+04  0.10566000000E+00 0. -1.
        994   -1    0    0    0    0 -0.00000000000E+00 -0.00000000000E+00  0.11368683772E-12  0.17120000000E+03  0.17120000000E+03 0.  0.
         13    1    1    2    0    0 -0.50497139904E+01  0.91215163782E+01  0.38114938848E+02  0.39515331200E+02  0.10566000000E+00 0. -1.
        994    1    1    2    0    0 -0.26034754561E+01 -0.58555013010E+01  0.15855616696E+01  0.17132722780E+03  0.17120000000E+03 0.  0.
        998    1    1    2    0    0  0.76531894465E+01 -0.32660150772E+01  0.14602994958E+04  0.14603574410E+04  0.10000000000E+02 0. -1.
</event>
<event>
 5    1  0.1535793E-008  0.3687713E+03  0.7957747E-01  0.3501557E+00
         13   -1    0    0    0    0  0.00000000000E+00  0.00000000000E+00  0.14999999963E+04  0.15000000000E+04  0.10566000000E+00 0.  1.
        994   -1    0    0    0    0 -0.00000000000E+00 -0.00000000000E+00  0.11368683772E-12  0.17120000000E+03  0.17120000000E+03 0.  0.
         13    1    1    2    0    0 -0.15567426951E+02 -0.30713998975E+02  0.57154505020E+02  0.66725880459E+02  0.10566000000E+00 0.  1.
        994    1    1    2    0    0 -0.44009932140E+00  0.18498792804E+02  0.11102520699E+02  0.17255464349E+03  0.17120000000E+03 0.  0.
        998    1    1    2    0    0  0.16007526273E+02  0.12215206171E+02  0.14317429706E+04  0.14319194761E+04  0.10000000000E+02 0.  1.
</event>
<event>
 5    1  0.1535793E-008  0.3732379E+03  0.7957747E-01  0.3481141E+00
         13   -1    0    0    0    0  0.00000000000E+00  0.00000000000E+00  0.14999999963E+04  0.15000000000E+04  0.10566000000E+00 0.  1.
        994   -1    0    0    0    0 -0.00000000000E+00 -0.00000000000E+00  0.11368683772E-12  0.17120000000E+03  0.17120000000E+03 0.  0.
         13    1    1    2    0    0 -0.13317366833E+02 -0.50770338279E+02  0.26288533517E+03  0.26807403850E+03  0.10566000000E+00 0.  1.
        994    1    1    2    0    0 -0.29470563380E+02 -0.16484721323E+02  0.11495515124E+02  0.17487666228E+03  0.17120000000E+03 0.  0.
        998    1    1    2    0    0  0.42787930213E+02  0.67255059603E+02  0.12256191460E+04  0.12282492992E+04  0.10000000000E+02 0.  1.
</event>
<event>
 5    1  0.1773269E-008  0.3857422E+03  0.7957747E-01  0.3426531E+00
         13   -1    0    0    0    0  0.00000000000E+00  0.00000000000E+00  0.14999999963E+04  0.15000000000E+04  0.10566000000E+00 0.  1.
        994   -1    0    0    0    0 -0.00000000000E+00 -0.00000000000E+00  0.11368683772E-12  0.17120000000E+03  0.17120000000E+03 0.  0.
         13    1    1    2    0    0 -0.10135434940E+02 -0.58711926265E+01  0.52843893182E+02  0.54126575311E+02  0.10566000000E+00 0.  1.
        994    1    1    2    0    0  0.13031350478E+02  0.43627377351E+01  0.18819331650E+01  0.17176097126E+03  0.17120000000E+03 0.  0.
        998    1    1    2    0    0 -0.28959155377E+01  0.15084548913E+01  0.14452741699E+04  0.14453124534E+04  0.10000000000E+02 0.  1.
</event>
<event>
 5    1  0.1535793E-008  0.3690765E+03  0.7957747E-01  0.3500146E+00
         13   -1    0    0    0    0  0.00000000000E+00  0.00000000000E+00  0.14999999963E+04  0.15000000000E+04  0.10566000000E+00 0.  1.
        994   -1    0    0    0    0 -0.00000000000E+00 -0.00000000000E+00  0.11368683772E-12  0.17120000000E+03  0.17120000000E+03 0.  0.
         13    1    1    2    0    0 -0.28449799176E+02 -0.15949994229E+02  0.52040823885E+02  0.61417032685E+02  0.10566000000E+00 0.  1.
        994    1    1    2    0    0  0.54312028349E+00  0.26140036799E+02  0.12127416651E+02  0.17360907447E+03  0.17120000000E+03 0.  0.
        998    1    1    2    0    0  0.27906678893E+02 -0.10190042569E+02  0.14358317557E+04  0.14361738928E+04  0.10000000000E+02 0.  1.
</event>
<event>
 5    1  0.1535793E-008  0.4077976E+03  0.7957747E-01  0.3338388E+00
         13   -1    0    0    0    0  0.00000000000E+00  0.00000000000E+00  0.14999999963E+04  0.15000000000E+04  0.10566000000E+00 0.  1.
        994   -1    0    0    0    0 -0.00000000000E+00 -0.00000000000E+00  0.11368683772E-12  0.17120000000E+03  0.17120000000E+03 0.  0.
         13    1    1    2    0    0 -0.12084246972E+03 -0.57592108774E+02  0.19541419921E+03  0.23686805166E+03  0.10566000000E+00 0.  1.
        994    1    1    2    0    0  0.16214021247E+03  0.42241526845E+02  0.15823571129E+03  0.28709192851E+03  0.17120000000E+03 0.  0.
        998    1    1    2    0    0 -0.41297742751E+02  0.15350581930E+02  0.11463500858E+04  0.11472400198E+04  0.10000000000E+02 0.  1.
</event>
<event>
 5    1  0.1535793E-008  0.3805051E+03  0.7957747E-01  0.3448962E+00
         13   -1    0    0    0    0  0.00000000000E+00  0.00000000000E+00  0.14999999963E+04  0.15000000000E+04  0.10566000000E+00 0. -1.
        994   -1    0    0    0    0 -0.00000000000E+00 -0.00000000000E+00  0.11368683772E-12  0.17120000000E+03  0.17120000000E+03 0.  0.
         13    1    1    2    0    0  0.33144755114E+02  0.10108795277E+02  0.17409073450E+03  0.17750593662E+03  0.10566000000E+00 0. -1.
        994    1    1    2    0    0 -0.59167841221E+01  0.93071716426E+01  0.42843999588E+01  0.17160835604E+03  0.17120000000E+03 0.  0.
        998    1    1    2    0    0 -0.27227970992E+02 -0.19415966920E+02  0.13216248618E+04  0.13220857073E+04  0.10000000000E+02 0. -1.
</event>
<event>
 5    1  0.1535793E-008  0.3844842E+03  0.7957747E-01  0.3431863E+00
         13   -1    0    0    0    0  0.00000000000E+00  0.00000000000E+00  0.14999999963E+04  0.15000000000E+04  0.10566000000E+00 0.  1.
        994   -1    0    0    0    0 -0.00000000000E+00 -0.00000000000E+00  0.11368683772E-12  0.17120000000E+03  0.17120000000E+03 0.  0.
         13    1    1    2    0    0  0.12570368019E+02 -0.12480385588E+02  0.90870519287E+02  0.92580973294E+02  0.10566000000E+00 0.  1.
        994    1    1    2    0    0  0.45876320625E+01  0.25794205827E+01  0.19777093280E+01  0.17129229730E+03  0.17120000000E+03 0.  0.
        998    1    1    2    0    0 -0.17158000082E+02  0.99009650051E+01  0.14071517677E+04  0.14073267294E+04  0.10000000000E+02 0.  1.
</event>
<event>
 5    1  0.1535793E-008  0.3857749E+03  0.7957747E-01  0.3426392E+00
         13   -1    0    0    0    0  0.00000000000E+00  0.00000000000E+00  0.14999999963E+04  0.15000000000E+04  0.10566000000E+00 0. -1.
        994   -1    0    0    0    0 -0.00000000000E+00 -0.00000000000E+00  0.11368683772E-12  0.17120000000E+03  0.17120000000E+03 0.  0.
         13    1    1    2    0    0  0.36694831154E+01  0.97074912998E+01  0.49537278921E+02  0.50612781594E+02  0.10566000000E+00 0. -1.
        994    1    1    2    0    0 -0.61728222566E+01  0.15989872986E+02  0.22102036399E+01  0.17207005775E+03  0.17120000000E+03 0.  0.
        998    1    1    2    0    0  0.25033391412E+01 -0.25697364285E+02  0.14482525137E+04  0.14485171607E+04  0.10000000000E+02 0. -1.
</event>
<event>
 5    1  0.1535793E-008  0.3723582E+03  0.7957747E-01  0.3485123E+00
         13   -1    0    0    0    0  0.00000000000E+00  0.00000000000E+00  0.14999999963E+04  0.15000000000E+04  0.10566000000E+00 0. -1.
        994   -1    0    0    0    0 -0.00000000000E+00 -0.00000000000E+00  0.11368683772E-12  0.17120000000E+03  0.17120000000E+03 0.  0.
         13    1    1    2    0    0  0.86668823426E+02 -0.19210847742E+02  0.37717259133E+03  0.38747866578E+03  0.10566000000E+00 0. -1.
        994    1    1    2    0    0 -0.24374582197E+02  0.18907017765E+02  0.15553004853E+02  0.17465088473E+03  0.17120000000E+03 0.  0.
        998    1    1    2    0    0 -0.62294241229E+02  0.30382997637E+00  0.11072744001E+04  0.11090704495E+04  0.10000000000E+02 0. -1.
</event>
<event>
 5    1  0.1535793E-008  0.3842492E+03  0.7957747E-01  0.3432863E+00
         13   -1    0    0    0    0  0.00000000000E+00  0.00000000000E+00  0.14999999963E+04  0.15000000000E+04  0.10566000000E+00 0. -1.
        994   -1    0    0    0    0 -0.00000000000E+00 -0.00000000000E+00  0.11368683772E-12  0.17120000000E+03  0.17120000000E+03 0.  0.
         13    1    1    2    0    0  0.11149546098E+02  0.94223364452E+01  0.51141515555E+02  0.53184194829E+02  0.10566000000E+00 0. -1.
        994    1    1    2    0    0 -0.14718536446E+02 -0.73587612598E+01  0.28965512024E+01  0.17201342009E+03  0.17120000000E+03 0.  0.
        998    1    1    2    0    0  0.35689903488E+01 -0.20635751854E+01  0.14459619295E+04  0.14460023851E+04  0.10000000000E+02 0. -1.
</event>
<event>
 5    1  0.1535793E-008  0.3844681E+03  0.7957747E-01  0.3431931E+00
         13   -1    0    0    0    0  0.00000000000E+00  0.00000000000E+00  0.14999999963E+04  0.15000000000E+04  0.10566000000E+00 0. -1.
        994   -1    0    0    0    0 -0.00000000000E+00 -0.00000000000E+00  0.11368683772E-12  0.17120000000E+03  0.17120000000E+03 0.  0.
         13    1    1    2    0    0  0.53645982455E+01  0.12602687925E+02  0.49785214201E+02  0.51635117646E+02  0.10566000000E+00 0. -1.
        994    1    1    2    0    0 -0.88744004413E+01 -0.38032419834E+01  0.22015890617E+01  0.17148617037E+03  0.17120000000E+03 0.  0.
        998    1    1    2    0    0  0.35098021959E+01 -0.87994459418E+01  0.14480131930E+04  0.14480787120E+04  0.10000000000E+02 0. -1.
</event>
<event>
 5    1  0.1535793E-008  0.3812903E+03  0.7957747E-01  0.3445559E+00
         13   -1    0    0    0    0  0.00000000000E+00  0.00000000000E+00  0.14999999963E+04  0.15000000000E+04  0.10566000000E+00 0.  1.
        994   -1    0    0    0    0 -0.00000000000E+00 -0.00000000000E+00  0.11368683772E-12  0.17120000000E+03  0.17120000000E+03 0.  0.
         13    1    1    2    0    0 -0.31434778047E+02 -0.20728031618E+02  0.18652509661E+03  0.19028772791E+03  0.10566000000E+00 0.  1.
        994    1    1    2    0    0  0.21459036549E+02  0.26972493696E+02  0.74478603930E+01  0.17479392521E+03  0.17120000000E+03 0.  0.
        998    1    1    2    0    0  0.99757414982E+01 -0.62444620787E+01  0.13060270393E+04  0.13061183469E+04  0.10000000000E+02 0.  1.
</event>
<event>
 5    1  0.1535793E-008  0.3767424E+03  0.7957747E-01  0.3465467E+00
         13   -1    0    0    0    0  0.00000000000E+00  0.00000000000E+00  0.14999999963E+04  0.15000000000E+04  0.10566000000E+00 0.  1.
        994   -1    0    0    0    0 -0.00000000000E+00 -0.00000000000E+00  0.11368683772E-12  0.17120000000E+03  0.17120000000E+03 0.  0.
         13    1    1    2    0    0 -0.15965793320E+02  0.99731062029E+01  0.27554402407E+02  0.33371030247E+02  0.10566000000E+00 0.  1.
        994    1    1    2    0    0  0.17146101362E+02 -0.13719548618E+02  0.74179372268E+01  0.17276191883E+03  0.17120000000E+03 0.  0.
        998    1    1    2    0    0 -0.11803080422E+01  0.37464424152E+01  0.14650276566E+04  0.14650670509E+04  0.10000000000E+02 0.  1.
</event>
<event>
 5    1  0.1535793E-008  0.3812780E+03  0.7957747E-01  0.3445613E+00
         13   -1    0    0    0    0  0.00000000000E+00  0.00000000000E+00  0.14999999963E+04  0.15000000000E+04  0.10566000000E+00 0. -1.
        994   -1    0    0    0    0 -0.00000000000E+00 -0.00000000000E+00  0.11368683772E-12  0.17120000000E+03  0.17120000000E+03 0.  0.
         13    1    1    2    0    0  0.22571755956E+02 -0.27009606764E+01  0.66326370773E+02  0.70114035539E+02  0.10566000000E+00 0. -1.
        994    1    1    2    0    0 -0.32538005216E+02  0.26341094225E+02  0.93455893433E+01  0.17649179887E+03  0.17120000000E+03 0.  0.
        998    1    1    2    0    0  0.99662492598E+01 -0.23640133548E+02  0.14243280362E+04  0.14245941656E+04  0.10000000000E+02 0. -1.
</event>
<event>
 5    1  0.1741604E-008  0.3847203E+03  0.7957747E-01  0.3430859E+00
         13   -1    0    0    0    0  0.00000000000E+00  0.00000000000E+00  0.14999999963E+04  0.15000000000E+04  0.10566000000E+00 0.  1.
        994   -1    0    0    0    0 -0.00000000000E+00 -0.00000000000E+00  0.11368683772E-12  0.17120000000E+03  0.17120000000E+03 0.  0.
         13    1    1    2    0    0  0.89121102679E+01  0.47738703725E+01  0.28443286523E+02  0.30186872313E+02  0.10566000000E+00 0.  1.
        994    1    1    2    0    0 -0.67442300842E+01 -0.36162162483E+01  0.19618361634E+01  0.17138217661E+03  0.17120000000E+03 0.  0.
        998    1    1    2    0    0 -0.21678801838E+01 -0.11576541242E+01  0.14695948736E+04  0.14696309511E+04  0.10000000000E+02 0.  1.
</event>
<event>
 5    1  0.1535793E-008  0.3839596E+03  0.7957747E-01  0.3434097E+00
         13   -1    0    0    0    0  0.00000000000E+00  0.00000000000E+00  0.14999999963E+04  0.15000000000E+04  0.10566000000E+00 0. -1.
        994   -1    0    0    0    0 -0.00000000000E+00 -0.00000000000E+00  0.11368683772E-12  0.17120000000E+03  0.17120000000E+03 0.  0.
         13    1    1    2    0    0 -0.14800050813E+02  0.12044795367E+02  0.86288578876E+02  0.88373347837E+02  0.10566000000E+00 0. -1.
        994    1    1    2    0    0  0.48645511910E+01 -0.76664842107E+01  0.24196286000E+01  0.17145767245E+03  0.17120000000E+03 0.  0.
        998    1    1    2    0    0  0.99354996219E+01 -0.43783111566E+01  0.14112917888E+04  0.14113689797E+04  0.10000000000E+02 0. -1.
</event>
<event>
 5    1  0.1535793E-008  0.3824575E+03  0.7957747E-01  0.3440527E+00
         13   -1    0    0    0    0  0.00000000000E+00  0.00000000000E+00  0.14999999963E+04  0.15000000000E+04  0.10566000000E+00 0.  1.
        994   -1    0    0    0    0 -0.00000000000E+00 -0.00000000000E+00  0.11368683772E-12  0.17120000000E+03  0.17120000000E+03 0.  0.
         13    1    1    2    0    0  0.10508858789E+02 -0.80481623592E+00  0.18373725842E+02  0.21182275789E+02  0.10566000000E+00 0.  1.
        994    1    1    2    0    0 -0.47230533639E+00  0.61035964096E+01  0.30219891161E+01  0.17133607145E+03  0.17120000000E+03 0.  0.
        998    1    1    2    0    0 -0.10036553453E+02 -0.52987801737E+01  0.14786042813E+04  0.14786816528E+04  0.10000000000E+02 0.  1.
</event>
<event>
 5    1  0.1535793E-008  0.4103448E+03  0.7957747E-01  0.3328815E+00
         13   -1    0    0    0    0  0.00000000000E+00  0.00000000000E+00  0.14999999963E+04  0.15000000000E+04  0.10566000000E+00 0.  1.
        994   -1    0    0    0    0 -0.00000000000E+00 -0.00000000000E+00  0.11368683772E-12  0.17120000000E+03  0.17120000000E+03 0.  0.
         13    1    1    2    0    0 -0.32376787179E+02  0.11946105118E+03  0.20639935988E+03  0.24066554806E+03  0.10566000000E+00 0.  1.
        994    1    1    2    0    0  0.55677513659E+02 -0.83048225637E+02  0.76313133171E+02  0.21243852664E+03  0.17120000000E+03 0.  0.
        998    1    1    2    0    0 -0.23300726480E+02 -0.36412825548E+02  0.12172875032E+04  0.12180959253E+04  0.10000000000E+02 0.  1.
</event>
<event>
 5    1  0.1535793E-008  0.3860831E+03  0.7957747E-01  0.3425092E+00
         13   -1    0    0    0    0  0.00000000000E+00  0.00000000000E+00  0.14999999963E+04  0.15000000000E+04  0.10566000000E+00 0. -1.
        994   -1    0    0    0    0 -0.00000000000E+00 -0.00000000000E+00  0.11368683772E-12  0.17120000000E+03  0.17120000000E+03 0.  0.
         13    1    1    2    0    0  0.10945245834E+02  0.38341851730E+01  0.54514753757E+02  0.55734808904E+02  0.10566000000E+00 0. -1.
        994    1    1    2    0    0 -0.20734344266E+02 -0.24369156433E+02  0.44555953589E+01  0.17422129935E+03  0.17120000000E+03 0.  0.
        998    1    1    2    0    0  0.97890984317E+01  0.20534971260E+02  0.14410296472E+04  0.14412438917E+04  0.10000000000E+02 0. -1.
</event>
<event>
 5    1  0.1535793E-008  0.3742103E+03  0.7957747E-01  0.3476762E+00
         13   -1    0    0    0    0  0.00000000000E+00  0.00000000000E+00  0.14999999963E+04  0.15000000000E+04  0.10566000000E+00 0. -1.
        994   -1    0    0    0    0 -0.00000000000E+00 -0.00000000000E+00  0.11368683772E-12  0.17120000000E+03  0.17120000000E+03 0.  0.
         13    1    1    2    0    0  0.20499146221E+02 -0.28743853633E+01  0.28999534953E+02  0.35629500116E+02  0.10566000000E+00 0. -1.
        994    1    1    2    0    0  0.53379550077E+01 -0.30428150892E+02  0.10344448177E+02  0.17427224030E+03  0.17120000000E+03 0.  0.
        998    1    1    2    0    0 -0.25837101229E+02  0.33302536255E+02  0.14606560131E+04  0.14612982596E+04  0.10000000000E+02 0. -1.
</event>
<event>
 5    1  0.1535793E-008  0.3739928E+03  0.7957747E-01  0.3477740E+00
         13   -1    0    0    0    0  0.00000000000E+00  0.00000000000E+00  0.14999999963E+04  0.15000000000E+04  0.10566000000E+00 0. -1.
        994   -1    0    0    0    0 -0.00000000000E+00 -0.00000000000E+00  0.11368683772E-12  0.17120000000E+03  0.17120000000E+03 0.  0.
         13    1    1    2    0    0  0.10197180166E+02  0.21896348457E+02  0.36676681260E+02  0.43916086704E+02  0.10566000000E+00 0. -1.
        994    1    1    2    0    0 -0.11233797778E+02 -0.22976653098E+02  0.94311652915E+01  0.17335660264E+03  0.17120000000E+03 0.  0.
        998    1    1    2    0    0  0.10366176125E+01  0.10803046404E+01  0.14538921497E+04  0.14539273107E+04  0.10000000000E+02 0. -1.
</event>
<event>
 5    1  0.3026525E-008  0.3863552E+03  0.7957747E-01  0.3423945E+00
         13   -1    0    0    0    0  0.00000000000E+00  0.00000000000E+00  0.14999999963E+04  0.15000000000E+04  0.10566000000E+00 0. -1.
        994   -1    0    0    0    0 -0.00000000000E+00 -0.00000000000E+00  0.11368683772E-12  0.17120000000E+03  0.17120000000E+03 0.  0.
         13    1    1    2    0    0  0.54319767913E+01 -0.86936908907E+01  0.55602494824E+02  0.56539678349E+02  0.10566000000E+00 0. -1.
        994    1    1    2    0    0 -0.67592548303E+01  0.45516697148E+01  0.11762449215E+01  0.17139786689E+03  0.17120000000E+03 0.  0.
        998    1    1    2    0    0  0.13272780390E+01  0.41420211760E+01  0.14432212565E+04  0.14432624548E+04  0.10000000000E+02 0. -1.
</event>
<event>
 5    1  0.1535793E-008  0.3797547E+03  0.7957747E-01  0.3452227E+00
         13   -1    0    0    0    0  0.00000000000E+00  0.00000000000E+00  0.14999999963E+04  0.15000000000E+04  0.10566000000E+00 0.  1.
        994   -1    0    0    0    0 -0.00000000000E+00 -0.00000000000E+00  0.11368683772E-12  0.17120000000E+03  0.17120000000E+03 0.  0.
         13    1    1    2    0    0  0.11078898898E+02  0.19350096008E+02  0.59529580497E+02  0.63568469657E+02  0.10566000000E+00 0.  1.
        994    1    1    2    0    0 -0.37032549524E+01 -0.10513462109E+01  0.43066266745E+01  0.17129742105E+03  0.17120000000E+03 0.  0.
        998    1    1    2    0    0 -0.73756439460E+01 -0.18298749797E+02  0.14361637891E+04  0.14363341093E+04  0.10000000000E+02 0.  1.
</event>
<event>
 5    1  0.1535793E-008  0.3852426E+03  0.7957747E-01  0.3428644E+00
         13   -1    0    0    0    0  0.00000000000E+00  0.00000000000E+00  0.14999999963E+04  0.15000000000E+04  0.10566000000E+00 0.  1.
        994   -1    0    0    0    0 -0.00000000000E+00 -0.00000000000E+00  0.11368683772E-12  0.17120000000E+03  0.17120000000E+03 0.  0.
         13    1    1    2    0    0 -0.12243005526E+02 -0.16593120214E+01  0.49016692029E+02  0.50549893790E+02  0.10566000000E+00 0.  1.
        994    1    1    2    0    0  0.14023499584E+02  0.37703811954E+00  0.21567153850E+01  0.17178734563E+03  0.17120000000E+03 0.  0.
        998    1    1    2    0    0 -0.17804940581E+01  0.12822739019E+01  0.14488265889E+04  0.14488627606E+04  0.10000000000E+02 0.  1.
</event>
<event>
 5    1  0.1535793E-008  0.3823349E+03  0.7957747E-01  0.3441054E+00
         13   -1    0    0    0    0  0.00000000000E+00  0.00000000000E+00  0.14999999963E+04  0.15000000000E+04  0.10566000000E+00 0. -1.
        994   -1    0    0    0    0 -0.00000000000E+00 -0.00000000000E+00  0.11368683772E-12  0.17120000000E+03  0.17120000000E+03 0.  0.
         13    1    1    2    0    0 -0.18965450867E+02  0.17924028527E+02  0.10831502279E+03  0.11141415732E+03  0.10566000000E+00 0. -1.
        994    1    1    2    0    0  0.17155545089E+02 -0.17381339326E+02  0.49401398759E+01  0.17300366663E+03  0.17120000000E+03 0.  0.
        998    1    1    2    0    0  0.18099057782E+01 -0.54268920098E+00  0.13867448336E+04  0.13867821760E+04  0.10000000000E+02 0.  0.
</event>
<event>
 5    1  0.1535793E-008  0.3835000E+03  0.7957747E-01  0.3436059E+00
         13   -1    0    0    0    0  0.00000000000E+00  0.00000000000E+00  0.14999999963E+04  0.15000000000E+04  0.10566000000E+00 0. -1.
        994   -1    0    0    0    0 -0.00000000000E+00 -0.00000000000E+00  0.11368683772E-12  0.17120000000E+03  0.17120000000E+03 0.  0.
         13    1    1    2    0    0 -0.49656627883E+01 -0.18418415255E+02  0.71894094818E+02  0.74381905468E+02  0.10566000000E+00 0. -1.
        994    1    1    2    0    0  0.77117435476E+01  0.20848063858E+02  0.40112872326E+01  0.17268365059E+03  0.17120000000E+03 0.  0.
        998    1    1    2    0    0 -0.27460807593E+01 -0.24296486026E+01  0.14240946142E+04  0.14241344439E+04  0.10000000000E+02 0. -1.
</event>
<event>
 5    1  0.1535793E-008  0.3744878E+03  0.7957747E-01  0.3475516E+00
         13   -1    0    0    0    0  0.00000000000E+00  0.00000000000E+00  0.14999999963E+04  0.15000000000E+04  0.10566000000E+00 0. -1.
        994   -1    0    0    0    0 -0.00000000000E+00 -0.00000000000E+00  0.11368683772E-12  0.17120000000E+03  0.17120000000E+03 0.  0.
         13    1    1    2    0    0 -0.20514393884E+02  0.13522194488E+02  0.38751477825E+02  0.45884401465E+02  0.10566000000E+00 0. -1.
        994    1    1    2    0    0  0.29870281252E+02 -0.15668131155E+02  0.10825817207E+02  0.17482666374E+03  0.17120000000E+03 0.  0.
        998    1    1    2    0    0 -0.93558873683E+01  0.21459366678E+01  0.14504227012E+04  0.14504889348E+04  0.10000000000E+02 0. -1.
</event>
<event>
 5    1  0.1535793E-008  0.3339128E+03  0.7957747E-01  0.3680181E+00
         13   -1    0    0    0    0  0.00000000000E+00  0.00000000000E+00  0.14999999963E+04  0.15000000000E+04  0.10566000000E+00 0. -1.
        994   -1    0    0    0    0 -0.00000000000E+00 -0.00000000000E+00  0.11368683772E-12  0.17120000000E+03  0.17120000000E+03 0.  0.
         13    1    1    2    0    0 -0.11636296247E+02  0.25785132921E+03  0.73336320676E+03  0.77746016975E+03  0.10566000000E+00 0. -1.
        994    1    1    2    0    0  0.59476433030E+01 -0.25444418127E+03  0.30710303678E+03  0.43404945691E+03  0.17120000000E+03 0.  0.
        998    1    1    2    0    0  0.56886529438E+01 -0.34071479333E+01  0.45953375274E+03  0.45969037333E+03  0.10000000000E+02 0. -1.
</event>
<event>
 5    1  0.1535793E-008  0.3043903E+03  0.7957747E-01  0.3865166E+00
         13   -1    0    0    0    0  0.00000000000E+00  0.00000000000E+00  0.14999999963E+04  0.15000000000E+04  0.10566000000E+00 0.  1.
        994   -1    0    0    0    0 -0.00000000000E+00 -0.00000000000E+00  0.11368683772E-12  0.17120000000E+03  0.17120000000E+03 0.  0.
         13    1    1    2    0    0  0.18107680477E+02 -0.18075312065E+03  0.77520323572E+03  0.79620326962E+03  0.10566000000E+00 0.  1.
        994    1    1    2    0    0  0.70083810467E+02  0.14028743986E+03  0.11804551151E+03  0.26045438960E+03  0.17120000000E+03 0.  0.
        998    1    1    2    0    0 -0.88191490945E+02  0.40465680796E+02  0.60675124905E+03  0.61454234078E+03  0.10000000000E+02 0.  1.
</event>
<event>
 5    1  0.1535793E-008  0.3834071E+03  0.7957747E-01  0.3436456E+00
         13   -1    0    0    0    0  0.00000000000E+00  0.00000000000E+00  0.14999999963E+04  0.15000000000E+04  0.10566000000E+00 0. -1.
        994   -1    0    0    0    0 -0.00000000000E+00 -0.00000000000E+00  0.11368683772E-12  0.17120000000E+03  0.17120000000E+03 0.  0.
         13    1    1    2    0    0 -0.21658682510E+02  0.64416701698E+01  0.11378133943E+03  0.11600343964E+03  0.10566000000E+00 0. -1.
        994    1    1    2    0    0  0.33004913616E+01  0.30946458336E+01  0.24907444526E+01  0.17127788498E+03  0.17120000000E+03 0.  0.
        998    1    1    2    0    0  0.18358191149E+02 -0.95363160034E+01  0.13837279124E+04  0.13839186754E+04  0.10000000000E+02 0. -1.
</event>
<event>
 5    1  0.1535793E-008  0.3840439E+03  0.7957747E-01  0.3433737E+00
         13   -1    0    0    0    0  0.00000000000E+00  0.00000000000E+00  0.14999999963E+04  0.15000000000E+04  0.10566000000E+00 0. -1.
        994   -1    0    0    0    0 -0.00000000000E+00 -0.00000000000E+00  0.11368683772E-12  0.17120000000E+03  0.17120000000E+03 0.  0.
         13    1    1    2    0    0  0.12674479803E+02  0.64702591264E+01  0.45721768889E+02  0.47885258753E+02  0.10566000000E+00 0. -1.
        994    1    1    2    0    0 -0.22358346946E+02  0.37981727235E+01  0.38040956111E+01  0.17273746825E+03  0.17120000000E+03 0.  0.
        998    1    1    2    0    0  0.96838671425E+01 -0.10268431850E+02  0.14504741318E+04  0.14505772730E+04  0.10000000000E+02 0. -1.
</event>
<event>
 5    1  0.1535793E-008  0.3821665E+03  0.7957747E-01  0.3441779E+00
         13   -1    0    0    0    0  0.00000000000E+00  0.00000000000E+00  0.14999999963E+04  0.15000000000E+04  0.10566000000E+00 0.  1.
        994   -1    0    0    0    0 -0.00000000000E+00 -0.00000000000E+00  0.11368683772E-12  0.17120000000E+03  0.17120000000E+03 0.  0.
         13    1    1    2    0    0 -0.84806081516E+02  0.16439052786E+02  0.17601520733E+03  0.19607059518E+03  0.10566000000E+00 0.  1.
        994    1    1    2    0    0  0.95311297696E+02 -0.10378494864E+02  0.51924230187E+02  0.20297172785E+03  0.17120000000E+03 0.  0.
        998    1    1    2    0    0 -0.10505216179E+02 -0.60605579220E+01  0.12720605588E+04  0.12721576770E+04  0.10000000000E+02 0.  1.
</event>
<event>
 5    1  0.1535793E-008  0.3782045E+03  0.7957747E-01  0.3459014E+00
         13   -1    0    0    0    0  0.00000000000E+00  0.00000000000E+00  0.14999999963E+04  0.15000000000E+04  0.10566000000E+00 0.  1.
        994   -1    0    0    0    0 -0.00000000000E+00 -0.00000000000E+00  0.11368683772E-12  0.17120000000E+03  0.17120000000E+03 0.  0.
         13    1    1    2    0    0  0.42431840347E+02 -0.27246638135E+02  0.23335913825E+03  0.23874534327E+03  0.10566000000E+00 0.  1.
        994    1    1    2    0    0 -0.33438818787E+02  0.19304210644E+02  0.10072044542E+02  0.17578877448E+03  0.17120000000E+03 0.  0.
        998    1    1    2    0    0 -0.89930215605E+01  0.79424274910E+01  0.12565688135E+04  0.12566658823E+04  0.10000000000E+02 0.  0.
</event>
<event>
 5    1  0.1535793E-008  0.3863478E+03  0.7957747E-01  0.3423976E+00
         13   -1    0    0    0    0  0.00000000000E+00  0.00000000000E+00  0.14999999963E+04  0.15000000000E+04  0.10566000000E+00 0. -1.
        994   -1    0    0    0    0 -0.00000000000E+00 -0.00000000000E+00  0.11368683772E-12  0.17120000000E+03  0.17120000000E+03 0.  0.
         13    1    1    2    0    0 -0.10489226253E+02  0.63792734232E+00  0.54837729161E+02  0.55835638460E+02  0.10566000000E+00 0. -1.
        994    1    1    2    0    0  0.15287889175E+02 -0.67973670718E+01  0.18795279269E+01  0.17202585963E+03  0.17120000000E+03 0.  0.
        998    1    1    2    0    0 -0.47986629221E+01  0.61594397295E+01  0.14432827392E+04  0.14433385019E+04  0.10000000000E+02 0. -1.
</event>
<event>
 5    1  0.1535793E-008  0.3862639E+03  0.7957747E-01  0.3424330E+00
         13   -1    0    0    0    0  0.00000000000E+00  0.00000000000E+00  0.14999999963E+04  0.15000000000E+04  0.10566000000E+00 0.  1.
        994   -1    0    0    0    0 -0.00000000000E+00 -0.00000000000E+00  0.11368683772E-12  0.17120000000E+03  0.17120000000E+03 0.  0.
         13    1    1    2    0    0 -0.91300010122E+01  0.80294859583E+01  0.70898046692E+02  0.71933119993E+02  0.10566000000E+00 0.  1.
        994    1    1    2    0    0  0.14893795232E+02 -0.52000652472E+01  0.18194614531E+01  0.17193491866E+03  0.17120000000E+03 0.  0.
        998    1    1    2    0    0 -0.57637942199E+01 -0.28294207111E+01  0.14272824881E+04  0.14273319613E+04  0.10000000000E+02 0.  1.
</event>
<event>
 5    1  0.1535793E-008  0.3720679E+03  0.7957747E-01  0.3486441E+00
         13   -1    0    0    0    0  0.00000000000E+00  0.00000000000E+00  0.14999999963E+04  0.15000000000E+04  0.10566000000E+00 0.  1.
        994   -1    0    0    0    0 -0.00000000000E+00 -0.00000000000E+00  0.11368683772E-12  0.17120000000E+03  0.17120000000E+03 0.  0.
         13    1    1    2    0    0  0.49917257549E+02  0.75012670133E+02  0.37281419222E+03  0.38354799747E+03  0.10566000000E+00 0.  1.
        994    1    1    2    0    0 -0.46217678105E+02 -0.75179526876E+02  0.35423267806E+02  0.19583738901E+03  0.17120000000E+03 0.  0.
        998    1    1    2    0    0 -0.36995794439E+01  0.16685674285E+00  0.10917625363E+04  0.10918146135E+04  0.10000000000E+02 0.  1.
</event>
<event>
 5    1  0.1535793E-008  0.3810650E+03  0.7957747E-01  0.3446534E+00
         13   -1    0    0    0    0  0.00000000000E+00  0.00000000000E+00  0.14999999963E+04  0.15000000000E+04  0.10566000000E+00 0.  1.
        994   -1    0    0    0    0 -0.00000000000E+00 -0.00000000000E+00  0.11368683772E-12  0.17120000000E+03  0.17120000000E+03 0.  0.
         13    1    1    2    0    0  0.16929927344E+02  0.97254460233E+01  0.48178114718E+02  0.51984119133E+02  0.10566000000E+00 0.  1.
        994    1    1    2    0    0 -0.25779615009E+02 -0.17182175518E+02  0.68004107880E+01  0.17411347246E+03  0.17120000000E+03 0.  0.
        998    1    1    2    0    0  0.88496876645E+01  0.74567294947E+01  0.14450214708E+04  0.14451024084E+04  0.10000000000E+02 0.  1.
</event>
<event>
 5    1  0.1535793E-008  0.3774428E+03  0.7957747E-01  0.3462369E+00
         13   -1    0    0    0    0  0.00000000000E+00  0.00000000000E+00  0.14999999963E+04  0.15000000000E+04  0.10566000000E+00 0. -1.
        994   -1    0    0    0    0 -0.00000000000E+00 -0.00000000000E+00  0.11368683772E-12  0.17120000000E+03  0.17120000000E+03 0.  0.
         13    1    1    2    0    0 -0.11503343344E+02 -0.16629580445E+02  0.36973492312E+02  0.42141667642E+02  0.10566000000E+00 0. -1.
        994    1    1    2    0    0 -0.76941030903E+01  0.52341419412E+01  0.57216308157E+01  0.17154816386E+03  0.17120000000E+03 0.  0.
        998    1    1    2    0    0  0.19197446435E+02  0.11395438503E+02  0.14573048732E+04  0.14575101685E+04  0.10000000000E+02 0. -1.
</event>
<event>
 5    1  0.1535793E-008  0.3736655E+03  0.7957747E-01  0.3479212E+00
         13   -1    0    0    0    0  0.00000000000E+00  0.00000000000E+00  0.14999999963E+04  0.15000000000E+04  0.10566000000E+00 0.  1.
        994   -1    0    0    0    0 -0.00000000000E+00 -0.00000000000E+00  0.11368683772E-12  0.17120000000E+03  0.17120000000E+03 0.  0.
         13    1    1    2    0    0  0.82835444191E+01  0.12653360995E+02  0.29146179654E+01  0.15402299002E+02  0.10566000000E+00 0.  1.
        994    1    1    2    0    0 -0.80516220799E+01 -0.16314403521E+02  0.14063316934E+02  0.17273738815E+03  0.17120000000E+03 0.  0.
        998    1    1    2    0    0 -0.23192233925E+00  0.36610425258E+01  0.14830220614E+04  0.14830603129E+04  0.10000000000E+02 0.  1.
</event>
<event>
 5    1  0.1535793E-008  0.3811981E+03  0.7957747E-01  0.3445958E+00
         13   -1    0    0    0    0  0.00000000000E+00  0.00000000000E+00  0.14999999963E+04  0.15000000000E+04  0.10566000000E+00 0.  1.
        994   -1    0    0    0    0 -0.00000000000E+00 -0.00000000000E+00  0.11368683772E-12  0.17120000000E+03  0.17120000000E+03 0.  0.
         13    1    1    2    0    0  0.12689046071E+02  0.45491681428E+01  0.23982931800E+02  0.27511797519E+02  0.10566000000E+00 0.  1.
        994    1    1    2    0    0 -0.11993037502E+02 -0.89407417768E+01  0.42750065270E+01  0.17190545510E+03  0.17120000000E+03 0.  0.
        998    1    1    2    0    0 -0.69600856887E+00  0.43915736341E+01  0.14717420580E+04  0.14717827474E+04  0.10000000000E+02 0.  1.
</event>
<event>
 5    1  0.1535793E-008  0.3843296E+03  0.7957747E-01  0.3432521E+00
         13   -1    0    0    0    0  0.00000000000E+00  0.00000000000E+00  0.14999999963E+04  0.15000000000E+04  0.10566000000E+00 0.  1.
        994   -1    0    0    0    0 -0.00000000000E+00 -0.00000000000E+00  0.11368683772E-12  0.17120000000E+03  0.17120000000E+03 0.  0.
         13    1    1    2    0    0  0.41246232166E+01  0.11551398001E+02  0.38291561181E+02  0.40208234656E+02  0.10566000000E+00 0.  1.
        994    1    1    2    0    0 -0.86479306054E+00 -0.60777229395E+01  0.20875776040E+01  0.17132274970E+03  0.17120000000E+03 0.  0.
        998    1    1    2    0    0 -0.32598301560E+01 -0.54736750617E+01  0.14596208575E+04  0.14596690156E+04  0.10000000000E+02 0.  1.
</event>
<event>
 5    1  0.1535793E-008  0.3846217E+03  0.7957747E-01  0.3431278E+00
         13   -1    0    0    0    0  0.00000000000E+00  0.00000000000E+00  0.14999999963E+04  0.15000000000E+04  0.10566000000E+00 0.  1.
        994   -1    0    0    0    0 -0.00000000000E+00 -0.00000000000E+00  0.11368683772E-12  0.17120000000E+03  0.17120000000E+03 0.  0.
         13    1    1    2    0    0  0.92346797873E+01 -0.64574090361E+01  0.34941003120E+02  0.36713244277E+02  0.10566000000E+00 0.  1.
        994    1    1    2    0    0  0.23242138702E+01  0.12877742453E+02  0.23820881426E+01  0.17171590656E+03  0.17120000000E+03 0.  0.
        998    1    1    2    0    0 -0.11558893657E+02 -0.64203334171E+01  0.14626769050E+04  0.14627708492E+04  0.10000000000E+02 0.  1.
</event>
<event>
 5    1  0.1535793E-008  0.3739029E+03  0.7957747E-01  0.3478144E+00
         13   -1    0    0    0    0  0.00000000000E+00  0.00000000000E+00  0.14999999963E+04  0.15000000000E+04  0.10566000000E+00 0. -1.
        994   -1    0    0    0    0 -0.00000000000E+00 -0.00000000000E+00  0.11368683772E-12  0.17120000000E+03  0.17120000000E+03 0.  0.
         13    1    1    2    0    0 -0.45821772895E+02 -0.10259156986E+03  0.52199654657E+03  0.53395231142E+03  0.10566000000E+00 0. -1.
        994    1    1    2    0    0  0.44360658200E+02  0.10821244820E+03  0.55448249686E+02  0.21462001383E+03  0.17120000000E+03 0.  0.
        998    1    1    2    0    0  0.14611146959E+01 -0.56208783425E+01  0.92255520003E+03  0.92262767475E+03  0.10000000000E+02 0. -1.
</event>
<event>
 5    1  0.1565473E-008  0.3864841E+03  0.7957747E-01  0.3423402E+00
         13   -1    0    0    0    0  0.00000000000E+00  0.00000000000E+00  0.14999999963E+04  0.15000000000E+04  0.10566000000E+00 0.  1.
        994   -1    0    0    0    0 -0.00000000000E+00 -0.00000000000E+00  0.11368683772E-12  0.17120000000E+03  0.17120000000E+03 0.  0.
         13    1    1    2    0    0  0.73404690554E+01  0.78499588910E+01  0.61840625547E+02  0.62767654669E+02  0.10566000000E+00 0.  1.
        994    1    1    2    0    0 -0.89395520509E+01 -0.12166361131E+02  0.16414560608E+01  0.17187224998E+03  0.17120000000E+03 0.  0.
        998    1    1    2    0    0  0.15990829955E+01  0.43164022395E+01  0.14365179147E+04  0.14365600954E+04  0.10000000000E+02 0.  1.
</event>
<event>
 5    1  0.1535793E-008  0.3852018E+03  0.7957747E-01  0.3428817E+00
         13   -1    0    0    0    0  0.00000000000E+00  0.00000000000E+00  0.14999999963E+04  0.15000000000E+04  0.10566000000E+00 0. -1.
        994   -1    0    0    0    0 -0.00000000000E+00 -0.00000000000E+00  0.11368683772E-12  0.17120000000E+03  0.17120000000E+03 0.  0.
         13    1    1    2    0    0 -0.54210085153E+02  0.24222948308E+03  0.11976338928E+04  0.12230865906E+04  0.10566000000E+00 0. -1.
        994    1    1    2    0    0  0.48966394693E+02 -0.25236099337E+03  0.26208429576E+03  0.40506961978E+03  0.17120000000E+03 0.  0.
        998    1    1    2    0    0  0.52436904592E+01  0.10131510285E+02  0.40281807726E+02  0.43043789610E+02  0.10000000000E+02 0.  0.
</event>
<event>
 5    1  0.1535793E-008  0.3772683E+03  0.7957747E-01  0.3463140E+00
         13   -1    0    0    0    0  0.00000000000E+00  0.00000000000E+00  0.14999999963E+04  0.15000000000E+04  0.10566000000E+00 0. -1.
        994   -1    0    0    0    0 -0.00000000000E+00 -0.00000000000E+00  0.11368683772E-12  0.17120000000E+03  0.17120000000E+03 0.  0.
         13    1    1    2    0    0  0.14447490178E+02  0.12530636733E+02  0.29817931992E+02  0.35424102836E+02  0.10566000000E+00 0. -1.
        994    1    1    2    0    0 -0.18456398168E+02 -0.17595687722E+02  0.77151482266E+01  0.17326052745E+03  0.17120000000E+03 0.  0.
        998    1    1    2    0    0  0.40089079900E+01  0.50650509888E+01  0.14624669161E+04  0.14625153697E+04  0.10000000000E+02 0. -1.
</event>
<event>
 5    1  0.1535793E-008  0.3849463E+03  0.7957747E-01  0.3429900E+00
         13   -1    0    0    0    0  0.00000000000E+00  0.00000000000E+00  0.14999999963E+04  0.15000000000E+04  0.10566000000E+00 0.  1.
        994   -1    0    0    0    0 -0.00000000000E+00 -0.00000000000E+00  0.11368683772E-12  0.17120000000E+03  0.17120000000E+03 0.  0.
         13    1    1    2    0    0 -0.66353984746E+01 -0.98521990116E+01  0.42527631703E+02  0.44155463542E+02  0.10566000000E+00 0.  1.
        994    1    1    2    0    0  0.65328479822E+01  0.48026172647E+01  0.18730741899E+01  0.17140213430E+03  0.17120000000E+03 0.  0.
        998    1    1    2    0    0  0.10255049241E+00  0.50495817469E+01  0.14555992904E+04  0.14556424022E+04  0.10000000000E+02 0.  1.
</event>
<event>
 5    1  0.1535793E-008  0.3793785E+03  0.7957747E-01  0.3453869E+00
         13   -1    0    0    0    0  0.00000000000E+00  0.00000000000E+00  0.14999999963E+04  0.15000000000E+04  0.10566000000E+00 0. -1.
        994   -1    0    0    0    0 -0.00000000000E+00 -0.00000000000E+00  0.11368683772E-12  0.17120000000E+03  0.17120000000E+03 0.  0.
         13    1    1    2    0    0 -0.32293496493E+02 -0.18631045380E+02  0.19166878080E+03  0.19526115452E+03  0.10566000000E+00 0. -1.
        994    1    1    2    0    0 -0.10275000515E+02  0.23232080543E+01  0.48190261125E+01  0.17159147981E+03  0.17120000000E+03 0.  0.
        998    1    1    2    0    0  0.42568497008E+02  0.16307837326E+02  0.13035121894E+04  0.13043473657E+04  0.10000000000E+02 0.  1.
</event>
<event>
 5    1  0.1535793E-008  0.3846347E+03  0.7957747E-01  0.3431223E+00
         13   -1    0    0    0    0  0.00000000000E+00  0.00000000000E+00  0.14999999963E+04  0.15000000000E+04  0.10566000000E+00 0.  1.
        994   -1    0    0    0    0 -0.00000000000E+00 -0.00000000000E+00  0.11368683772E-12  0.17120000000E+03  0.17120000000E+03 0.  0.
         13    1    1    2    0    0 -0.80916468623E+01  0.10866395591E+02  0.44979619530E+02  0.46975851660E+02  0.10566000000E+00 0.  1.
        994    1    1    2    0    0  0.23011157678E+02 -0.22778160405E+02  0.52710186982E+01  0.17431460526E+03  0.17120000000E+03 0.  0.
        998    1    1    2    0    0 -0.14919510816E+02  0.11911764814E+02  0.14497493581E+04  0.14499095431E+04  0.10000000000E+02 0.  1.
</event>
<event>
 5    1  0.1535793E-008  0.3854484E+03  0.7957747E-01  0.3427773E+00
         13   -1    0    0    0    0  0.00000000000E+00  0.00000000000E+00  0.14999999963E+04  0.15000000000E+04  0.10566000000E+00 0. -1.
        994   -1    0    0    0    0 -0.00000000000E+00 -0.00000000000E+00  0.11368683772E-12  0.17120000000E+03  0.17120000000E+03 0.  0.
         13    1    1    2    0    0 -0.14045943067E+02 -0.46871089299E+01  0.81871404493E+02  0.83199732839E+02  0.10566000000E+00 0. -1.
        994    1    1    2    0    0  0.42917397110E+01 -0.94267164118E+00  0.14710817155E+01  0.17126269804E+03  0.17120000000E+03 0.  0.
        998    1    1    2    0    0  0.97542033563E+01  0.56297805711E+01  0.14166575101E+04  0.14167375691E+04  0.10000000000E+02 0. -1.
</event>
<event>
 5    1  0.1535793E-008  0.3769448E+03  0.7957747E-01  0.3464570E+00
         13   -1    0    0    0    0  0.00000000000E+00  0.00000000000E+00  0.14999999963E+04  0.15000000000E+04  0.10566000000E+00 0. -1.
        994   -1    0    0    0    0 -0.00000000000E+00 -0.00000000000E+00  0.11368683772E-12  0.17120000000E+03  0.17120000000E+03 0.  0.
         13    1    1    2    0    0 -0.50639432931E+02 -0.74047183857E+01  0.21133421645E+03  0.21744273781E+03  0.10566000000E+00 0. -1.
        994    1    1    2    0    0  0.41197771473E+02  0.45614764439E+01  0.11507471122E+02  0.17652174181E+03  0.17120000000E+03 0.  0.
        998    1    1    2    0    0  0.94416614578E+01  0.28432419418E+01  0.12771583087E+04  0.12772355204E+04  0.10000000000E+02 0. -1.
</event>
<event>
 5    1  0.1535793E-008  0.3838535E+03  0.7957747E-01  0.3434549E+00
         13   -1    0    0    0    0  0.00000000000E+00  0.00000000000E+00  0.14999999963E+04  0.15000000000E+04  0.10566000000E+00 0. -1.
        994   -1    0    0    0    0 -0.00000000000E+00 -0.00000000000E+00  0.11368683772E-12  0.17120000000E+03  0.17120000000E+03 0.  0.
         13    1    1    2    0    0  0.13312874277E+02  0.71392090214E+01  0.50337945529E+02  0.52555883126E+02  0.10566000000E+00 0. -1.
        994    1    1    2    0    0 -0.42692958363E+01 -0.22192568401E+02  0.38881252621E+01  0.17272896253E+03  0.17120000000E+03 0.  0.
        998    1    1    2    0    0 -0.90435784408E+01  0.15053359379E+02  0.14457739255E+04  0.14459151543E+04  0.10000000000E+02 0. -1.
</event>
<event>
 5    1  0.1535793E-008  0.3832515E+03  0.7957747E-01  0.3437122E+00
         13   -1    0    0    0    0  0.00000000000E+00  0.00000000000E+00  0.14999999963E+04  0.15000000000E+04  0.10566000000E+00 0. -1.
        994   -1    0    0    0    0 -0.00000000000E+00 -0.00000000000E+00  0.11368683772E-12  0.17120000000E+03  0.17120000000E+03 0.  0.
         13    1    1    2    0    0  0.31692916570E+02 -0.13801655820E+02  0.20747831244E+03  0.21033827032E+03  0.10566000000E+00 0. -1.
        994    1    1    2    0    0 -0.31895822549E+02  0.14453731822E+02  0.65670228808E+01  0.17486800636E+03  0.17120000000E+03 0.  0.
        998    1    1    2    0    0  0.20290597951E+00 -0.65207600233E+00  0.12859546610E+04  0.12859937233E+04  0.10000000000E+02 0.  0.
</event>
<event>
 5    1  0.1535793E-008  0.3759627E+03  0.7957747E-01  0.3468928E+00
         13   -1    0    0    0    0  0.00000000000E+00  0.00000000000E+00  0.14999999963E+04  0.15000000000E+04  0.10566000000E+00 0.  1.
        994   -1    0    0    0    0 -0.00000000000E+00 -0.00000000000E+00  0.11368683772E-12  0.17120000000E+03  0.17120000000E+03 0.  0.
         13    1    1    2    0    0 -0.12980186687E+01  0.12280108311E+02  0.10079946963E+02  0.15940589933E+02  0.10566000000E+00 0.  1.
        994    1    1    2    0    0 -0.10750733518E+02  0.14691518879E+02  0.73088995457E+01  0.17232028032E+03  0.17120000000E+03 0.  0.
        998    1    1    2    0    0  0.12048752187E+02 -0.26971627190E+02  0.14826111498E+04  0.14829391297E+04  0.10000000000E+02 0.  1.
</event>
<event>
 5    1  0.1535793E-008  0.3737464E+03  0.7957747E-01  0.3478848E+00
         13   -1    0    0    0    0  0.00000000000E+00  0.00000000000E+00  0.14999999963E+04  0.15000000000E+04  0.10566000000E+00 0. -1.
        994   -1    0    0    0    0 -0.00000000000E+00 -0.00000000000E+00  0.11368683772E-12  0.17120000000E+03  0.17120000000E+03 0.  0.
         13    1    1    2    0    0  0.66916208670E+01  0.59176142546E+02  0.24567693976E+03  0.25279193723E+03  0.10566000000E+00 0. -1.
        994    1    1    2    0    0 -0.76646018150E+01 -0.29875297103E+02  0.10578066781E+02  0.17427740816E+03  0.17120000000E+03 0.  0.
        998    1    1    2    0    0  0.97298094801E+00 -0.29300845443E+02  0.12437449897E+04  0.12441306546E+04  0.10000000000E+02 0. -1.
</event>
<event>
 5    1  0.1535793E-008  0.3835813E+03  0.7957747E-01  0.3435712E+00
         13   -1    0    0    0    0  0.00000000000E+00  0.00000000000E+00  0.14999999963E+04  0.15000000000E+04  0.10566000000E+00 0. -1.
        994   -1    0    0    0    0 -0.00000000000E+00 -0.00000000000E+00  0.11368683772E-12  0.17120000000E+03  0.17120000000E+03 0.  0.
         13    1    1    2    0    0  0.23664257814E+02 -0.56086517320E-01  0.11682323021E+03  0.11919596689E+03  0.10566000000E+00 0. -1.
        994    1    1    2    0    0 -0.17439500686E+02 -0.21766743695E+01  0.33572806782E+01  0.17213246477E+03  0.17120000000E+03 0.  0.
        998    1    1    2    0    0 -0.62247571286E+01  0.22327608868E+01  0.13798194854E+04  0.13798715683E+04  0.10000000000E+02 0. -1.
</event>
<event>
 5    1  0.1535793E-008  0.3765072E+03  0.7957747E-01  0.3466509E+00
         13   -1    0    0    0    0  0.00000000000E+00  0.00000000000E+00  0.14999999963E+04  0.15000000000E+04  0.10566000000E+00 0. -1.
        994   -1    0    0    0    0 -0.00000000000E+00 -0.00000000000E+00  0.11368683772E-12  0.17120000000E+03  0.17120000000E+03 0.  0.
         13    1    1    2    0    0 -0.62013731846E+00  0.13030880491E+02  0.11613653882E+02  0.17466440312E+02  0.10566000000E+00 0. -1.
        994    1    1    2    0    0 -0.17421340261E+01 -0.15635666462E+02  0.67442814935E+01  0.17205358011E+03  0.17120000000E+03 0.  0.
        998    1    1    2    0    0  0.23622713445E+01  0.26047859716E+01  0.14816420609E+04  0.14816799796E+04  0.10000000000E+02 0. -1.
</event>
<event>
 5    1  0.1535793E-008  0.3770356E+03  0.7957747E-01  0.3464169E+00
         13   -1    0    0    0    0  0.00000000000E+00  0.00000000000E+00  0.14999999963E+04  0.15000000000E+04  0.10566000000E+00 0. -1.
        994   -1    0    0    0    0 -0.00000000000E+00 -0.00000000000E+00  0.11368683772E-12  0.17120000000E+03  0.17120000000E+03 0.  0.
         13    1    1    2    0    0  0.46232950158E+01 -0.17744937235E+02  0.27233701942E+02  0.32832047450E+02  0.10566000000E+00 0. -1.
        994    1    1    2    0    0 -0.27655390084E+01  0.15924820708E+02  0.65195916206E+01  0.17208484302E+03  0.17120000000E+03 0.  0.
        998    1    1    2    0    0 -0.18577560073E+01  0.18201165263E+01  0.14662467027E+04  0.14662831095E+04  0.10000000000E+02 0. -1.
</event>
<event>
 5    1  0.1535793E-008  0.3841854E+03  0.7957747E-01  0.3433134E+00
         13   -1    0    0    0    0  0.00000000000E+00  0.00000000000E+00  0.14999999963E+04  0.15000000000E+04  0.10566000000E+00 0.  1.
        994   -1    0    0    0    0 -0.00000000000E+00 -0.00000000000E+00  0.11368683772E-12  0.17120000000E+03  0.17120000000E+03 0.  0.
         13    1    1    2    0    0  0.81762502086E+01 -0.11106933994E+02  0.47110664987E+02  0.49088093972E+02  0.10566000000E+00 0.  1.
        994    1    1    2    0    0 -0.29661957424E+01  0.49585982611E+01  0.21451829682E+01  0.17131090982E+03  0.17120000000E+03 0.  0.
        998    1    1    2    0    0 -0.52100544662E+01  0.61483357331E+01  0.14507441483E+04  0.14508009962E+04  0.10000000000E+02 0.  1.
</event>
<event>
 5    1  0.1535793E-008  0.3840218E+03  0.7957747E-01  0.3433832E+00
         13   -1    0    0    0    0  0.00000000000E+00  0.00000000000E+00  0.14999999963E+04  0.15000000000E+04  0.10566000000E+00 0. -1.
        994   -1    0    0    0    0 -0.00000000000E+00 -0.00000000000E+00  0.11368683772E-12  0.17120000000E+03  0.17120000000E+03 0.  0.
         13    1    1    2    0    0 -0.72821977369E+01  0.19392584201E+02  0.11757097616E+03  0.11938194304E+03  0.10566000000E+00 0. -1.
        994    1    1    2    0    0 -0.98708197898E+00  0.67309607215E+01  0.22692996726E+01  0.17135013827E+03  0.17120000000E+03 0.  0.
        998    1    1    2    0    0  0.82692797159E+01 -0.26123544922E+02  0.13801597204E+04  0.13804679187E+04  0.10000000000E+02 0. -1.
</event>
<event>
 5    1  0.1535793E-008  0.2855743E+03  0.7957747E-01  0.4004711E+00
         13   -1    0    0    0    0  0.00000000000E+00  0.00000000000E+00  0.14999999963E+04  0.15000000000E+04  0.10566000000E+00 0. -1.
        994   -1    0    0    0    0 -0.00000000000E+00 -0.00000000000E+00  0.11368683772E-12  0.17120000000E+03  0.17120000000E+03 0.  0.
         13    1    1    2    0    0  0.20531144273E+03  0.12935233155E+02  0.71148004923E+03  0.74062404794E+03  0.10566000000E+00 0. -1.
        994    1    1    2    0    0 -0.87030142382E+02  0.12073320226E+02  0.74538639879E+02  0.20636244711E+03  0.17120000000E+03 0.  0.
        998    1    1    2    0    0 -0.11828130035E+03 -0.25008553381E+02  0.71398130717E+03  0.72421350495E+03  0.10000000000E+02 0.  1.
</event>
<event>
 5    1  0.1535793E-008  0.3832231E+03  0.7957747E-01  0.3437244E+00
         13   -1    0    0    0    0  0.00000000000E+00  0.00000000000E+00  0.14999999963E+04  0.15000000000E+04  0.10566000000E+00 0. -1.
        994   -1    0    0    0    0 -0.00000000000E+00 -0.00000000000E+00  0.11368683772E-12  0.17120000000E+03  0.17120000000E+03 0.  0.
         13    1    1    2    0    0 -0.26872632594E+02 -0.44312841289E+01  0.14400990051E+03  0.14656274176E+03  0.10566000000E+00 0. -1.
        994    1    1    2    0    0  0.28707825034E+02 -0.39557735175E+02  0.10457368716E+02  0.17834727413E+03  0.17120000000E+03 0.  0.
        998    1    1    2    0    0 -0.18351924397E+01  0.43989019304E+02  0.13455327270E+04  0.13462899841E+04  0.10000000000E+02 0. -1.
</event>
<event>
 5    1  0.1840798E-008  0.3860140E+03  0.7957747E-01  0.3425383E+00
         13   -1    0    0    0    0  0.00000000000E+00  0.00000000000E+00  0.14999999963E+04  0.15000000000E+04  0.10566000000E+00 0.  1.
        994   -1    0    0    0    0 -0.00000000000E+00 -0.00000000000E+00  0.11368683772E-12  0.17120000000E+03  0.17120000000E+03 0.  0.
         13    1    1    2    0    0  0.36284664620E+01  0.11899002880E+02  0.68097326686E+02  0.69224338959E+02  0.10566000000E+00 0.  1.
        994    1    1    2    0    0 -0.52900623082E+01 -0.96746868511E+01  0.15261737490E+01  0.17156151530E+03  0.17120000000E+03 0.  0.
        998    1    1    2    0    0  0.16615958463E+01 -0.22243160292E+01  0.14303764958E+04  0.14304141457E+04  0.10000000000E+02 0.  0.
</event>
<event>
 5    1  0.1535793E-008  0.3828303E+03  0.7957747E-01  0.3438926E+00
         13   -1    0    0    0    0  0.00000000000E+00  0.00000000000E+00  0.14999999963E+04  0.15000000000E+04  0.10566000000E+00 0.  1.
        994   -1    0    0    0    0 -0.00000000000E+00 -0.00000000000E+00  0.11368683772E-12  0.17120000000E+03  0.17120000000E+03 0.  0.
         13    1    1    2    0    0 -0.13451710964E+02 -0.48939105279E+01  0.37877836447E+02  0.40492475179E+02  0.10566000000E+00 0.  1.
        994    1    1    2    0    0  0.43589762905E+01 -0.31899243652E+01  0.28078150583E+01  0.17130820213E+03  0.17120000000E+03 0.  0.
        998    1    1    2    0    0  0.90927346740E+01  0.80838348931E+01  0.14593143448E+04  0.14593993227E+04  0.10000000000E+02 0.  1.
</event>
<event>
 5    1  0.1535793E-008  0.3825608E+03  0.7957747E-01  0.3440084E+00
         13   -1    0    0    0    0  0.00000000000E+00  0.00000000000E+00  0.14999999963E+04  0.15000000000E+04  0.10566000000E+00 0.  1.
        994   -1    0    0    0    0 -0.00000000000E+00 -0.00000000000E+00  0.11368683772E-12  0.17120000000E+03  0.17120000000E+03 0.  0.
         13    1    1    2    0    0  0.42455919045E+01  0.19318887224E+02  0.75295567251E+02  0.77850356877E+02  0.10566000000E+00 0.  1.
        994    1    1    2    0    0  0.27192909984E+01  0.63406212239E+01  0.30038297964E+01  0.17136528532E+03  0.17120000000E+03 0.  0.
        998    1    1    2    0    0 -0.69648829029E+01 -0.25659508448E+02  0.14217005992E+04  0.14219843578E+04  0.10000000000E+02 0.  1.
</event>
<event>
 5    1  0.1535793E-008  0.3840784E+03  0.7957747E-01  0.3433590E+00
         13   -1    0    0    0    0  0.00000000000E+00  0.00000000000E+00  0.14999999963E+04  0.15000000000E+04  0.10566000000E+00 0.  1.
        994   -1    0    0    0    0 -0.00000000000E+00 -0.00000000000E+00  0.11368683772E-12  0.17120000000E+03  0.17120000000E+03 0.  0.
         13    1    1    2    0    0 -0.21118220385E+02  0.12482135659E+02  0.14263619081E+03  0.14473035976E+03  0.10566000000E+00 0.  1.
        994    1    1    2    0    0  0.19834450247E+02  0.20974855839E+01  0.34016569320E+01  0.17239146189E+03  0.17120000000E+03 0.  0.
        998    1    1    2    0    0  0.12837701383E+01 -0.14579621243E+02  0.13539621485E+04  0.13540781784E+04  0.10000000000E+02 0.  1.
</event>
<event>
 5    1  0.1535793E-008  0.3827466E+03  0.7957747E-01  0.3439286E+00
         13   -1    0    0    0    0  0.00000000000E+00  0.00000000000E+00  0.14999999963E+04  0.15000000000E+04  0.10566000000E+00 0. -1.
        994   -1    0    0    0    0 -0.00000000000E+00 -0.00000000000E+00  0.11368683772E-12  0.17120000000E+03  0.17120000000E+03 0.  0.
         13    1    1    2    0    0 -0.16300174072E+02 -0.62281265067E+01  0.55500456204E+02  0.58179008564E+02  0.10566000000E+00 0. -1.
        994    1    1    2    0    0  0.78750719437E+01 -0.15285700774E+00  0.29586068476E+01  0.17140663195E+03  0.17120000000E+03 0.  0.
        998    1    1    2    0    0  0.84251021282E+01  0.63809835144E+01  0.14415409332E+04  0.14416143595E+04  0.10000000000E+02 0. -1.
</event>
<event>
 5    1  0.1535793E-008  0.3781858E+03  0.7957747E-01  0.3459096E+00
         13   -1    0    0    0    0  0.00000000000E+00  0.00000000000E+00  0.14999999963E+04  0.15000000000E+04  0.10566000000E+00 0. -1.
        994   -1    0    0    0    0 -0.00000000000E+00 -0.00000000000E+00  0.11368683772E-12  0.17120000000E+03  0.17120000000E+03 0.  0.
         13    1    1    2    0    0 -0.11609274923E+02  0.23192137344E+02  0.62774458421E+02  0.67921235950E+02  0.10566000000E+00 0. -1.
        994    1    1    2    0    0  0.15848496452E+02 -0.19355883093E+02  0.71593313400E+01  0.17316616608E+03  0.17120000000E+03 0.  0.
        998    1    1    2    0    0 -0.42392215282E+01 -0.38362542513E+01  0.14300662065E+04  0.14301125980E+04  0.10000000000E+02 0. -1.
</event>
<event>
 5    1  0.1535793E-008  0.3812313E+03  0.7957747E-01  0.3445814E+00
         13   -1    0    0    0    0  0.00000000000E+00  0.00000000000E+00  0.14999999963E+04  0.15000000000E+04  0.10566000000E+00 0. -1.
        994   -1    0    0    0    0 -0.00000000000E+00 -0.00000000000E+00  0.11368683772E-12  0.17120000000E+03  0.17120000000E+03 0.  0.
         13    1    1    2    0    0 -0.36851790034E+01 -0.35709828841E+02  0.16571928820E+03  0.16956316247E+03  0.10566000000E+00 0. -1.
        994    1    1    2    0    0  0.22392964374E+01  0.34391927972E+02  0.74776609134E+01  0.17479466402E+03  0.17120000000E+03 0.  0.
        998    1    1    2    0    0  0.14458825660E+01  0.13179008687E+01  0.13268030472E+04  0.13268421735E+04  0.10000000000E+02 0.  0.
</event>
<event>
 5    1  0.1535793E-008  0.3828869E+03  0.7957747E-01  0.3438684E+00
         13   -1    0    0    0    0  0.00000000000E+00  0.00000000000E+00  0.14999999963E+04  0.15000000000E+04  0.10566000000E+00 0. -1.
        994   -1    0    0    0    0 -0.00000000000E+00 -0.00000000000E+00  0.11368683772E-12  0.17120000000E+03  0.17120000000E+03 0.  0.
         13    1    1    2    0    0  0.63289626918E+01 -0.79880090634E+01  0.18250458322E+02  0.20903455469E+02  0.10566000000E+00 0. -1.
        994    1    1    2    0    0  0.60232428797E+01  0.15826929260E+02  0.36330658762E+01  0.17207385133E+03  0.17120000000E+03 0.  0.
        998    1    1    2    0    0 -0.12352205572E+02 -0.78389201965E+01  0.14781164721E+04  0.14782226932E+04  0.10000000000E+02 0. -1.
</event>
<event>
 5    1  0.1535793E-008  0.3746585E+03  0.7957747E-01  0.3474751E+00
         13   -1    0    0    0    0  0.00000000000E+00  0.00000000000E+00  0.14999999963E+04  0.15000000000E+04  0.10566000000E+00 0.  1.
        994   -1    0    0    0    0 -0.00000000000E+00 -0.00000000000E+00  0.11368683772E-12  0.17120000000E+03  0.17120000000E+03 0.  0.
         13    1    1    2    0    0 -0.10315750575E+00  0.13466137244E+02  0.10013577508E+02  0.16781847106E+02  0.10566000000E+00 0.  1.
        994    1    1    2    0    0  0.73968588869E+01 -0.15647676188E+02  0.78742968656E+01  0.17225274408E+03  0.17120000000E+03 0.  0.
        998    1    1    2    0    0 -0.72937013811E+01  0.21815389450E+01  0.14821121219E+04  0.14821654088E+04  0.10000000000E+02 0.  1.
</event>
<event>
 5    1  0.1535793E-008  0.3787639E+03  0.7957747E-01  0.3456559E+00
         13   -1    0    0    0    0  0.00000000000E+00  0.00000000000E+00  0.14999999963E+04  0.15000000000E+04  0.10566000000E+00 0.  1.
        994   -1    0    0    0    0 -0.00000000000E+00 -0.00000000000E+00  0.11368683772E-12  0.17120000000E+03  0.17120000000E+03 0.  0.
         13    1    1    2    0    0  0.96779363223E+01  0.31555144310E+02  0.28829134848E+02  0.43823735167E+02  0.10566000000E+00 0.  1.
        994    1    1    2    0    0 -0.16130328961E+02 -0.15968155425E+02  0.17510344827E+02  0.17358347178E+03  0.17120000000E+03 0.  0.
        998    1    1    2    0    0  0.64523926387E+01 -0.15586988884E+02  0.14536605166E+04  0.14537927931E+04  0.10000000000E+02 0.  1.
</event>
<event>
 5    1  0.1535793E-008  0.3811782E+03  0.7957747E-01  0.3446044E+00
         13   -1    0    0    0    0  0.00000000000E+00  0.00000000000E+00  0.14999999963E+04  0.15000000000E+04  0.10566000000E+00 0.  1.
        994   -1    0    0    0    0 -0.00000000000E+00 -0.00000000000E+00  0.11368683772E-12  0.17120000000E+03  0.17120000000E+03 0.  0.
         13    1    1    2    0    0  0.34633383458E+02 -0.11683810019E+02  0.31581539716E+02  0.48305149634E+02  0.10566000000E+00 0.  1.
        994    1    1    2    0    0 -0.42366778841E+02  0.21405037889E+01  0.23553480099E+02  0.17794305868E+03  0.17120000000E+03 0.  0.
        998    1    1    2    0    0  0.77333953834E+01  0.95433062304E+01  0.14448649765E+04  0.14449517917E+04  0.10000000000E+02 0.  1.
</event>
<event>
 5    1  0.1535793E-008  0.3831432E+03  0.7957747E-01  0.3437586E+00
         13   -1    0    0    0    0  0.00000000000E+00  0.00000000000E+00  0.14999999963E+04  0.15000000000E+04  0.10566000000E+00 0. -1.
        994   -1    0    0    0    0 -0.00000000000E+00 -0.00000000000E+00  0.11368683772E-12  0.17120000000E+03  0.17120000000E+03 0.  0.
         13    1    1    2    0    0 -0.12739481749E+02  0.14123018035E+02  0.76825537698E+02  0.79144983671E+02  0.10566000000E+00 0. -1.
        994    1    1    2    0    0 -0.41157238203E+01  0.16762050959E+01  0.26201870292E+01  0.17127771083E+03  0.17120000000E+03 0.  0.
        998    1    1    2    0    0  0.16855205570E+02 -0.15799223131E+02  0.14205542716E+04  0.14207773055E+04  0.10000000000E+02 0. -1.
</event>
<event>
 5    1  0.1535793E-008  0.3812364E+03  0.7957747E-01  0.3445793E+00
         13   -1    0    0    0    0  0.00000000000E+00  0.00000000000E+00  0.14999999963E+04  0.15000000000E+04  0.10566000000E+00 0.  1.
        994   -1    0    0    0    0 -0.00000000000E+00 -0.00000000000E+00  0.11368683772E-12  0.17120000000E+03  0.17120000000E+03 0.  0.
         13    1    1    2    0    0 -0.27306071717E+02  0.11715047677E+02  0.12168024130E+03  0.12525556348E+03  0.10566000000E+00 0.  1.
        994    1    1    2    0    0  0.22914729654E+02 -0.17787844165E+01  0.52710029847E+01  0.17281629663E+03  0.17120000000E+03 0.  0.
        998    1    1    2    0    0  0.43913420624E+01 -0.99362632605E+01  0.13730487520E+04  0.13731281399E+04  0.10000000000E+02 0.  1.
</event>
<event>
 5    1  0.1535793E-008  0.3844305E+03  0.7957747E-01  0.3432091E+00
         13   -1    0    0    0    0  0.00000000000E+00  0.00000000000E+00  0.14999999963E+04  0.15000000000E+04  0.10566000000E+00 0.  1.
        994   -1    0    0    0    0 -0.00000000000E+00 -0.00000000000E+00  0.11368683772E-12  0.17120000000E+03  0.17120000000E+03 0.  0.
         13    1    1    2    0    0  0.89615697665E+01  0.16816424518E+02  0.95560184549E+02  0.97441581993E+02  0.10566000000E+00 0.  1.
        994    1    1    2    0    0 -0.15162122419E+01 -0.11413535029E+02  0.23500588967E+01  0.17160282765E+03  0.17120000000E+03 0.  0.
        998    1    1    2    0    0 -0.74453575246E+01 -0.54028894890E+01  0.14020897528E+04  0.14021555904E+04  0.10000000000E+02 0.  1.
</event>
<event>
 5    1  0.1535793E-008  0.3731473E+03  0.7957747E-01  0.3481550E+00
         13   -1    0    0    0    0  0.00000000000E+00  0.00000000000E+00  0.14999999963E+04  0.15000000000E+04  0.10566000000E+00 0.  1.
        994   -1    0    0    0    0 -0.00000000000E+00 -0.00000000000E+00  0.11368683772E-12  0.17120000000E+03  0.17120000000E+03 0.  0.
         13    1    1    2    0    0 -0.12577878146E+03  0.39703591899E+02  0.63076461624E+03  0.64440723874E+03  0.10566000000E+00 0.  1.
        994    1    1    2    0    0  0.11291676266E+03  0.36942358762E+02  0.64339356034E+02  0.21809155393E+03  0.17120000000E+03 0.  0.
        998    1    1    2    0    0  0.12862018797E+02 -0.76645950661E+02  0.80489602400E+03  0.80870120733E+03  0.10000000000E+02 0.  1.
</event>
<event>
 5    1  0.1535793E-008  0.3777939E+03  0.7957747E-01  0.3460821E+00
         13   -1    0    0    0    0  0.00000000000E+00  0.00000000000E+00  0.14999999963E+04  0.15000000000E+04  0.10566000000E+00 0. -1.
        994   -1    0    0    0    0 -0.00000000000E+00 -0.00000000000E+00  0.11368683772E-12  0.17120000000E+03  0.17120000000E+03 0.  0.
         13    1    1    2    0    0 -0.24897576302E+02  0.12229743481E+02  0.76765664509E+02  0.81623736393E+02  0.10566000000E+00 0. -1.
        994    1    1    2    0    0 -0.26863661013E+01 -0.48259454582E+01  0.53536558799E+01  0.17137271645E+03  0.17120000000E+03 0.  0.
        998    1    1    2    0    0  0.27583942403E+02 -0.74037980224E+01  0.14178806759E+04  0.14182035472E+04  0.10000000000E+02 0. -1.
</event>
<event>
 5    1  0.1535793E-008  0.3832748E+03  0.7957747E-01  0.3437022E+00
         13   -1    0    0    0    0  0.00000000000E+00  0.00000000000E+00  0.14999999963E+04  0.15000000000E+04  0.10566000000E+00 0. -1.
        994   -1    0    0    0    0 -0.00000000000E+00 -0.00000000000E+00  0.11368683772E-12  0.17120000000E+03  0.17120000000E+03 0.  0.
         13    1    1    2    0    0 -0.10469459186E+02 -0.12599833777E+01  0.22386937937E+02  0.24746379290E+02  0.10566000000E+00 0. -1.
        994    1    1    2    0    0 -0.67698595489E+01  0.95130726689E+01  0.29400775001E+01  0.17162288194E+03  0.17120000000E+03 0.  0.
        998    1    1    2    0    0  0.17239318735E+02 -0.82530892912E+01  0.14746729808E+04  0.14748307388E+04  0.10000000000E+02 0. -1.
</event>
<event>
 5    1  0.1535793E-008  0.3753940E+03  0.7957747E-01  0.3471463E+00
         13   -1    0    0    0    0  0.00000000000E+00  0.00000000000E+00  0.14999999963E+04  0.15000000000E+04  0.10566000000E+00 0.  1.
        994   -1    0    0    0    0 -0.00000000000E+00 -0.00000000000E+00  0.11368683772E-12  0.17120000000E+03  0.17120000000E+03 0.  0.
         13    1    1    2    0    0 -0.25918932876E+02  0.14696879234E+02  0.63343565157E+02  0.70001483923E+02  0.10566000000E+00 0.  1.
        994    1    1    2    0    0  0.61994717963E+01 -0.52568158511E+02  0.16047983589E+02  0.17991337504E+03  0.17120000000E+03 0.  0.
        998    1    1    2    0    0  0.19719461080E+02  0.37871279277E+02  0.14206084475E+04  0.14212851410E+04  0.10000000000E+02 0.  1.
</event>
<event>
 5    1  0.1535793E-008  0.3826381E+03  0.7957747E-01  0.3439751E+00
         13   -1    0    0    0    0  0.00000000000E+00  0.00000000000E+00  0.14999999963E+04  0.15000000000E+04  0.10566000000E+00 0. -1.
        994   -1    0    0    0    0 -0.00000000000E+00 -0.00000000000E+00  0.11368683772E-12  0.17120000000E+03  0.17120000000E+03 0.  0.
         13    1    1    2    0    0  0.93202882902E+01  0.57439814769E+01  0.21145351936E+02  0.23811723364E+02  0.10566000000E+00 0. -1.
        994    1    1    2    0    0  0.30178608772E+01  0.62775044033E+01  0.29681080470E+01  0.17136733706E+03  0.17120000000E+03 0.  0.
        998    1    1    2    0    0 -0.12338149167E+02 -0.12021485880E+02  0.14758865363E+04  0.14760209396E+04  0.10000000000E+02 0. -1.
</event>
<event>
 5    1  0.1535793E-008  0.3783495E+03  0.7957747E-01  0.3458377E+00
         13   -1    0    0    0    0  0.00000000000E+00  0.00000000000E+00  0.14999999963E+04  0.15000000000E+04  0.10566000000E+00 0. -1.
        994   -1    0    0    0    0 -0.00000000000E+00 -0.00000000000E+00  0.11368683772E-12  0.17120000000E+03  0.17120000000E+03 0.  0.
         13    1    1    2    0    0  0.13061766681E+02  0.63834344892E+01  0.19862941384E+02  0.24615149587E+02  0.10566000000E+00 0. -1.
        994    1    1    2    0    0  0.67047685769E+01 -0.46726920582E+01  0.51931412882E+01  0.17147360348E+03  0.17120000000E+03 0.  0.
        998    1    1    2    0    0 -0.19766535258E+02 -0.17107424310E+01  0.14749439136E+04  0.14751112469E+04  0.10000000000E+02 0. -1.
</event>
<event>
 5    1  0.1535793E-008  0.3704402E+03  0.7957747E-01  0.3493870E+00
         13   -1    0    0    0    0  0.00000000000E+00  0.00000000000E+00  0.14999999963E+04  0.15000000000E+04  0.10566000000E+00 0.  1.
        994   -1    0    0    0    0 -0.00000000000E+00 -0.00000000000E+00  0.11368683772E-12  0.17120000000E+03  0.17120000000E+03 0.  0.
         13    1    1    2    0    0 -0.72228908647E-01  0.14250943180E+02  0.38335501092E+01  0.14758111973E+02  0.10566000000E+00 0.  1.
        994    1    1    2    0    0  0.16284679208E+02 -0.21087900416E+02  0.13661316588E+02  0.17379862454E+03  0.17120000000E+03 0.  0.
        998    1    1    2    0    0 -0.16212450299E+02  0.68369572363E+01  0.14825051296E+04  0.14826432635E+04  0.10000000000E+02 0.  1.
</event>
<event>
 5    1  0.1535793E-008  0.3836881E+03  0.7957747E-01  0.3435255E+00
         13   -1    0    0    0    0  0.00000000000E+00  0.00000000000E+00  0.14999999963E+04  0.15000000000E+04  0.10566000000E+00 0. -1.
        994   -1    0    0    0    0 -0.00000000000E+00 -0.00000000000E+00  0.11368683772E-12  0.17120000000E+03  0.17120000000E+03 0.  0.
         13    1    1    2    0    0  0.12619945506E+02 -0.23200457077E+02  0.14524553557E+03  0.14762723665E+03  0.10566000000E+00 0. -1.
        994    1    1    2    0    0  0.75021568260E+01  0.29611990899E+02  0.53708920359E+01  0.17398689273E+03  0.17120000000E+03 0.  0.
        998    1    1    2    0    0 -0.20122102332E+02 -0.64115338213E+01  0.13493835687E+04  0.13495858706E+04  0.10000000000E+02 0. -1.
</event>
<event>
 5    1  0.1535793E-008  0.3857376E+03  0.7957747E-01  0.3426550E+00
         13   -1    0    0    0    0  0.00000000000E+00  0.00000000000E+00  0.14999999963E+04  0.15000000000E+04  0.10566000000E+00 0. -1.
        994   -1    0    0    0    0 -0.00000000000E+00 -0.00000000000E+00  0.11368683772E-12  0.17120000000E+03  0.17120000000E+03 0.  0.
         13    1    1    2    0    0 -0.10925180384E+02  0.26251909467E+01  0.51785265387E+02  0.52990339395E+02  0.10566000000E+00 0. -1.
        994    1    1    2    0    0  0.17685994826E+01 -0.58096639240E+01  0.13853849182E+01  0.17131327862E+03  0.17120000000E+03 0.  0.
        998    1    1    2    0    0  0.91565809010E+01  0.31844729773E+01  0.14468293460E+04  0.14468963820E+04  0.10000000000E+02 0. -1.
</event>
<event>
 5    1  0.1535793E-008  0.3829565E+03  0.7957747E-01  0.3438386E+00
         13   -1    0    0    0    0  0.00000000000E+00  0.00000000000E+00  0.14999999963E+04  0.15000000000E+04  0.10566000000E+00 0.  1.
        994   -1    0    0    0    0 -0.00000000000E+00 -0.00000000000E+00  0.11368683772E-12  0.17120000000E+03  0.17120000000E+03 0.  0.
         13    1    1    2    0    0 -0.56126572484E+02 -0.34281432124E+02  0.12462242238E+03  0.14091191593E+03  0.10566000000E+00 0.  1.
        994    1    1    2    0    0  0.19270294104E+02  0.39241204886E+01  0.19378763422E+02  0.17341199332E+03  0.17120000000E+03 0.  0.
        998    1    1    2    0    0  0.36856278380E+02  0.30357311635E+02  0.13559988105E+04  0.13568760907E+04  0.10000000000E+02 0.  1.
</event>
<event>
 5    1  0.1535793E-008  0.3823849E+03  0.7957747E-01  0.3440839E+00
         13   -1    0    0    0    0  0.00000000000E+00  0.00000000000E+00  0.14999999963E+04  0.15000000000E+04  0.10566000000E+00 0. -1.
        994   -1    0    0    0    0 -0.00000000000E+00 -0.00000000000E+00  0.11368683772E-12  0.17120000000E+03  0.17120000000E+03 0.  0.
         13    1    1    2    0    0 -0.59032916858E+01  0.11741022280E+02  0.27030748297E+02  0.30056163668E+02  0.10566000000E+00 0. -1.
        994    1    1    2    0    0  0.50715159146E+01 -0.23656469094E+02  0.48779483331E+01  0.17296989097E+03  0.17120000000E+03 0.  0.
        998    1    1    2    0    0  0.83177577118E+00  0.11915446814E+02  0.14680912996E+04  0.14681739454E+04  0.10000000000E+02 0. -1.
</event>
<event>
 5    1  0.1535793E-008  0.3848453E+03  0.7957747E-01  0.3430329E+00
         13   -1    0    0    0    0  0.00000000000E+00  0.00000000000E+00  0.14999999963E+04  0.15000000000E+04  0.10566000000E+00 0. -1.
        994   -1    0    0    0    0 -0.00000000000E+00 -0.00000000000E+00  0.11368683772E-12  0.17120000000E+03  0.17120000000E+03 0.  0.
         13    1    1    2    0    0 -0.54271286020E+01 -0.10846615411E+02  0.48209698415E+02  0.49712060670E+02  0.10566000000E+00 0. -1.
        994    1    1    2    0    0 -0.37867964138E+01 -0.12742618104E+02  0.22886409798E+01  0.17173057975E+03  0.17120000000E+03 0.  0.
        998    1    1    2    0    0  0.92139250158E+01  0.23589233515E+02  0.14495016569E+04  0.14497573596E+04  0.10000000000E+02 0. -1.
</event>
<event>
 5    1  0.1535793E-008  0.3837607E+03  0.7957747E-01  0.3434945E+00
         13   -1    0    0    0    0  0.00000000000E+00  0.00000000000E+00  0.14999999963E+04  0.15000000000E+04  0.10566000000E+00 0.  1.
        994   -1    0    0    0    0 -0.00000000000E+00 -0.00000000000E+00  0.11368683772E-12  0.17120000000E+03  0.17120000000E+03 0.  0.
         13    1    1    2    0    0 -0.12813245083E+02 -0.14313348939E+02  0.78783699754E+02  0.81092131051E+02  0.10566000000E+00 0.  1.
        994    1    1    2    0    0  0.59973867607E+01  0.19158910602E+02  0.35785670080E+01  0.17241020459E+03  0.17120000000E+03 0.  0.
        998    1    1    2    0    0  0.68158583226E+01 -0.48455616627E+01  0.14176377295E+04  0.14176976644E+04  0.10000000000E+02 0.  1.
</event>
<event>
 5    1  0.1535793E-008  0.3848205E+03  0.7957747E-01  0.3430434E+00
         13   -1    0    0    0    0  0.00000000000E+00  0.00000000000E+00  0.14999999963E+04  0.15000000000E+04  0.10566000000E+00 0. -1.
        994   -1    0    0    0    0 -0.00000000000E+00 -0.00000000000E+00  0.11368683772E-12  0.17120000000E+03  0.17120000000E+03 0.  0.
         13    1    1    2    0    0 -0.86326446347E+01 -0.13788305887E+02  0.74823029172E+02  0.76571122436E+02  0.10566000000E+00 0. -1.
        994    1    1    2    0    0  0.38304200679E+01  0.15042225744E+02  0.25124934973E+01  0.17192060172E+03  0.17120000000E+03 0.  0.
        998    1    1    2    0    0  0.48022245668E+01 -0.12539198579E+01  0.14226644736E+04  0.14227082758E+04  0.10000000000E+02 0. -1.
</event>
<event>
 5    1  0.1535793E-008  0.3829102E+03  0.7957747E-01  0.3438584E+00
         13   -1    0    0    0    0  0.00000000000E+00  0.00000000000E+00  0.14999999963E+04  0.15000000000E+04  0.10566000000E+00 0. -1.
        994   -1    0    0    0    0 -0.00000000000E+00 -0.00000000000E+00  0.11368683772E-12  0.17120000000E+03  0.17120000000E+03 0.  0.
         13    1    1    2    0    0 -0.24300894776E+02  0.39669856792E-01  0.10443409525E+03  0.10722418792E+03  0.10566000000E+00 0. -1.
        994    1    1    2    0    0  0.22886336681E+02  0.81750989184E+01  0.46292966866E+01  0.17297828487E+03  0.17120000000E+03 0.  0.
        998    1    1    2    0    0  0.14145580945E+01 -0.82147687752E+01  0.13909366043E+04  0.13909975272E+04  0.10000000000E+02 0. -1.
</event>
<event>
 5    1  0.1535793E-008  0.3833975E+03  0.7957747E-01  0.3436497E+00
         13   -1    0    0    0    0  0.00000000000E+00  0.00000000000E+00  0.14999999963E+04  0.15000000000E+04  0.10566000000E+00 0. -1.
        994   -1    0    0    0    0 -0.00000000000E+00 -0.00000000000E+00  0.11368683772E-12  0.17120000000E+03  0.17120000000E+03 0.  0.
         13    1    1    2    0    0  0.12979154100E+02 -0.12236809274E+02  0.70800884308E+02  0.73013521523E+02  0.10566000000E+00 0. -1.
        994    1    1    2    0    0  0.19127996739E+01 -0.39413117625E+01  0.24912750855E+01  0.17127416382E+03  0.17120000000E+03 0.  0.
        998    1    1    2    0    0 -0.14891953774E+02  0.16178121037E+02  0.14267078369E+04  0.14269123147E+04  0.10000000000E+02 0. -1.
</event>
<event>
 5    1  0.1535793E-008  0.3827170E+03  0.7957747E-01  0.3439413E+00
         13   -1    0    0    0    0  0.00000000000E+00  0.00000000000E+00  0.14999999963E+04  0.15000000000E+04  0.10566000000E+00 0.  1.
        994   -1    0    0    0    0 -0.00000000000E+00 -0.00000000000E+00  0.11368683772E-12  0.17120000000E+03  0.17120000000E+03 0.  0.
         13    1    1    2    0    0  0.90559743691E+01  0.10142734636E+02  0.32936243750E+02  0.35632752547E+02  0.10566000000E+00 0.  1.
        994    1    1    2    0    0 -0.34821114087E+01 -0.38686090934E+01  0.28576439080E+01  0.17130294033E+03  0.17120000000E+03 0.  0.
        998    1    1    2    0    0 -0.55738629604E+01 -0.62741255427E+01  0.14642061086E+04  0.14642643071E+04  0.10000000000E+02 0.  1.
</event>
<event>
 5    1  0.1535793E-008  0.3864033E+03  0.7957747E-01  0.3423742E+00
         13   -1    0    0    0    0  0.00000000000E+00  0.00000000000E+00  0.14999999963E+04  0.15000000000E+04  0.10566000000E+00 0. -1.
        994   -1    0    0    0    0 -0.00000000000E+00 -0.00000000000E+00  0.11368683772E-12  0.17120000000E+03  0.17120000000E+03 0.  0.
         13    1    1    2    0    0  0.94455401368E+01  0.70559711829E+01  0.70191272489E+02  0.71174650372E+02  0.10566000000E+00 0. -1.
        994    1    1    2    0    0 -0.75467526042E+01 -0.18288121379E+02  0.22174527305E+01  0.17235360732E+03  0.17120000000E+03 0.  0.
        998    1    1    2    0    0 -0.18987875326E+01  0.11232150196E+02  0.14275912711E+04  0.14276717423E+04  0.10000000000E+02 0. -1.
</event>
<event>
 5    1  0.1729811E-008  0.3856448E+03  0.7957747E-01  0.3426942E+00
         13   -1    0    0    0    0  0.00000000000E+00  0.00000000000E+00  0.14999999963E+04  0.15000000000E+04  0.10566000000E+00 0.  1.
        994   -1    0    0    0    0 -0.00000000000E+00 -0.00000000000E+00  0.11368683772E-12  0.17120000000E+03  0.17120000000E+03 0.  0.
         13    1    1    2    0    0  0.18377791162E+01 -0.11466455520E+02  0.51251707626E+02  0.52550982226E+02  0.10566000000E+00 0.  1.
        994    1    1    2    0    0 -0.61597796705E+01  0.86212515619E+01  0.16788648047E+01  0.17153579058E+03  0.17120000000E+03 0.  0.
        998    1    1    2    0    0  0.43220005543E+01  0.28452039585E+01  0.14470694238E+04  0.14471132272E+04  0.10000000000E+02 0.  1.
</event>
<event>
 5    1  0.1535793E-008  0.3836965E+03  0.7957747E-01  0.3435220E+00
         13   -1    0    0    0    0  0.00000000000E+00  0.00000000000E+00  0.14999999963E+04  0.15000000000E+04  0.10566000000E+00 0.  1.
        994   -1    0    0    0    0 -0.00000000000E+00 -0.00000000000E+00  0.11368683772E-12  0.17120000000E+03  0.17120000000E+03 0.  0.
         13    1    1    2    0    0 -0.13197393922E+02 -0.16295518338E+02  0.89721386353E+02  0.92139315481E+02  0.10566000000E+00 0.  1.
        994    1    1    2    0    0  0.15468168408E+02  0.18183282939E+02  0.41631128770E+01  0.17290652828E+03  0.17120000000E+03 0.  0.
        998    1    1    2    0    0 -0.22707744859E+01 -0.18877646017E+01  0.14061154970E+04  0.14061541562E+04  0.10000000000E+02 0.  1.
</event>
<event>
 5    1  0.1535793E-008  0.3787192E+03  0.7957747E-01  0.3456754E+00
         13   -1    0    0    0    0  0.00000000000E+00  0.00000000000E+00  0.14999999963E+04  0.15000000000E+04  0.10566000000E+00 0.  1.
        994   -1    0    0    0    0 -0.00000000000E+00 -0.00000000000E+00  0.11368683772E-12  0.17120000000E+03  0.17120000000E+03 0.  0.
         13    1    1    2    0    0  0.15764364655E+02  0.60401591213E+01  0.28407483176E+02  0.33045347322E+02  0.10566000000E+00 0.  1.
        994    1    1    2    0    0 -0.69461599422E+01  0.48791044578E+01  0.50230029996E+01  0.17148389241E+03  0.17120000000E+03 0.  0.
        998    1    1    2    0    0 -0.88182047124E+01 -0.10919263579E+02  0.14665695101E+04  0.14666707603E+04  0.10000000000E+02 0.  1.
</event>
<event>
 5    1  0.1535793E-008  0.3747524E+03  0.7957747E-01  0.3474331E+00
         13   -1    0    0    0    0  0.00000000000E+00  0.00000000000E+00  0.14999999963E+04  0.15000000000E+04  0.10566000000E+00 0. -1.
        994   -1    0    0    0    0 -0.00000000000E+00 -0.00000000000E+00  0.11368683772E-12  0.17120000000E+03  0.17120000000E+03 0.  0.
         13    1    1    2    0    0 -0.81183257424E+01 -0.21256180477E+02  0.34632021690E+02  0.41438152851E+02  0.10566000000E+00 0. -1.
        994    1    1    2    0    0  0.11636305128E+02  0.19172302325E+02  0.85189517655E+01  0.17287276626E+03  0.17120000000E+03 0.  0.
        998    1    1    2    0    0 -0.35179793852E+01  0.20838781520E+01  0.14568490228E+04  0.14568890809E+04  0.10000000000E+02 0. -1.
</event>
<event>
 5    1  0.1535793E-008  0.3854318E+03  0.7957747E-01  0.3427843E+00
         13   -1    0    0    0    0  0.00000000000E+00  0.00000000000E+00  0.14999999963E+04  0.15000000000E+04  0.10566000000E+00 0.  1.
        994   -1    0    0    0    0 -0.00000000000E+00 -0.00000000000E+00  0.11368683772E-12  0.17120000000E+03  0.17120000000E+03 0.  0.
         13    1    1    2    0    0 -0.10051276118E+02  0.10111205187E+02  0.78061837758E+02  0.79353174480E+02  0.10566000000E+00 0.  1.
        994    1    1    2    0    0 -0.78964674130E+01 -0.63972059137E+01  0.17551427594E+01  0.17151034653E+03  0.17120000000E+03 0.  0.
        998    1    1    2    0    0  0.17947743531E+02 -0.37139992737E+01  0.14201830158E+04  0.14203364790E+04  0.10000000000E+02 0.  1.
</event>
<event>
 5    1  0.1535793E-008  0.3814948E+03  0.7957747E-01  0.3444676E+00
         13   -1    0    0    0    0  0.00000000000E+00  0.00000000000E+00  0.14999999963E+04  0.15000000000E+04  0.10566000000E+00 0. -1.
        994   -1    0    0    0    0 -0.00000000000E+00 -0.00000000000E+00  0.11368683772E-12  0.17120000000E+03  0.17120000000E+03 0.  0.
         13    1    1    2    0    0  0.34627498169E+01 -0.18320957321E+02  0.52808624385E+02  0.56003661371E+02  0.10566000000E+00 0. -1.
        994    1    1    2    0    0  0.55969993319E+01  0.13028519823E+01  0.34903644984E+01  0.17133197737E+03  0.17120000000E+03 0.  0.
        998    1    1    2    0    0 -0.90597491488E+01  0.17018105338E+02  0.14437010074E+04  0.14438643613E+04  0.10000000000E+02 0. -1.
</event>
<event>
 5    1  0.1535793E-008  0.3694623E+03  0.7957747E-01  0.3498366E+00
         13   -1    0    0    0    0  0.00000000000E+00  0.00000000000E+00  0.14999999963E+04  0.15000000000E+04  0.10566000000E+00 0.  1.
        994   -1    0    0    0    0 -0.00000000000E+00 -0.00000000000E+00  0.11368683772E-12  0.17120000000E+03  0.17120000000E+03 0.  0.
         13    1    1    2    0    0 -0.11450691169E+03  0.31522898179E+02  0.44715738860E+03  0.46266107172E+03  0.10566000000E+00 0.  1.
        994    1    1    2    0    0  0.11381353824E+03 -0.34429598217E+02  0.61757756981E+02  0.21739912435E+03  0.17120000000E+03 0.  0.
        998    1    1    2    0    0  0.69337345340E+00  0.29067000375E+01  0.99108485069E+03  0.99113980394E+03  0.10000000000E+02 0.  1.
</event>
<event>
 5    1  0.1535793E-008  0.3177701E+03  0.7957747E-01  0.3776793E+00
         13   -1    0    0    0    0  0.00000000000E+00  0.00000000000E+00  0.14999999963E+04  0.15000000000E+04  0.10566000000E+00 0. -1.
        994   -1    0    0    0    0 -0.00000000000E+00 -0.00000000000E+00  0.11368683772E-12  0.17120000000E+03  0.17120000000E+03 0.  0.
         13    1    1    2    0    0  0.15588574643E+03  0.16131394665E+03  0.73953857158E+03  0.77281295625E+03  0.10566000000E+00 0. -1.
        994    1    1    2    0    0 -0.18131231468E+03 -0.10831276504E+03  0.20696174328E+03  0.34168466999E+03  0.17120000000E+03 0.  0.
        998    1    1    2    0    0  0.25426568251E+02 -0.53001181613E+02  0.55349968141E+03  0.55670237376E+03  0.10000000000E+02 0. -1.
</event>
<event>
 5    1  0.1535793E-008  0.3825557E+03  0.7957747E-01  0.3440105E+00
         13   -1    0    0    0    0  0.00000000000E+00  0.00000000000E+00  0.14999999963E+04  0.15000000000E+04  0.10566000000E+00 0. -1.
        994   -1    0    0    0    0 -0.00000000000E+00 -0.00000000000E+00  0.11368683772E-12  0.17120000000E+03  0.17120000000E+03 0.  0.
         13    1    1    2    0    0  0.12764929202E+02 -0.22795412948E+02  0.12534555283E+03  0.12803941989E+03  0.10566000000E+00 0. -1.
        994    1    1    2    0    0  0.62704241887E+00  0.97773953793E+01  0.31668333489E+01  0.17150935682E+03  0.17120000000E+03 0.  0.
        998    1    1    2    0    0 -0.13391971621E+02  0.13018017569E+02  0.13714876101E+04  0.13716512233E+04  0.10000000000E+02 0. -1.
</event>
<event>
 5    1  0.1535793E-008  0.3844822E+03  0.7957747E-01  0.3431871E+00
         13   -1    0    0    0    0  0.00000000000E+00  0.00000000000E+00  0.14999999963E+04  0.15000000000E+04  0.10566000000E+00 0.  1.
        994   -1    0    0    0    0 -0.00000000000E+00 -0.00000000000E+00  0.11368683772E-12  0.17120000000E+03  0.17120000000E+03 0.  0.
         13    1    1    2    0    0 -0.20036167857E+02 -0.14295898767E+02  0.14714934312E+03  0.14919370324E+03  0.10566000000E+00 0.  1.
        994    1    1    2    0    0  0.25289017219E+02  0.71639023569E+01  0.41665567374E+01  0.17325604198E+03  0.17120000000E+03 0.  0.
        998    1    1    2    0    0 -0.52528493618E+01  0.71319964102E+01  0.13486840964E+04  0.13487502548E+04  0.10000000000E+02 0.  1.
</event>
<event>
 5    1  0.1535793E-008  0.3837885E+03  0.7957747E-01  0.3434827E+00
         13   -1    0    0    0    0  0.00000000000E+00  0.00000000000E+00  0.14999999963E+04  0.15000000000E+04  0.10566000000E+00 0.  1.
        994   -1    0    0    0    0 -0.00000000000E+00 -0.00000000000E+00  0.11368683772E-12  0.17120000000E+03  0.17120000000E+03 0.  0.
         13    1    1    2    0    0  0.17772958003E+02 -0.14148814926E+02  0.11809825834E+03  0.12026336428E+03  0.10566000000E+00 0.  1.
        994    1    1    2    0    0 -0.52008741622E+01  0.10373523157E+02  0.26775354552E+01  0.17161371819E+03  0.17120000000E+03 0.  0.
        998    1    1    2    0    0 -0.12572083841E+02  0.37752917684E+01  0.13792242025E+04  0.13793229175E+04  0.10000000000E+02 0.  1.
</event>
<event>
 5    1  0.1535793E-008  0.3803328E+03  0.7957747E-01  0.3449711E+00
         13   -1    0    0    0    0  0.00000000000E+00  0.00000000000E+00  0.14999999963E+04  0.15000000000E+04  0.10566000000E+00 0.  1.
        994   -1    0    0    0    0 -0.00000000000E+00 -0.00000000000E+00  0.11368683772E-12  0.17120000000E+03  0.17120000000E+03 0.  0.
         13    1    1    2    0    0 -0.14520787479E+02 -0.15266372303E+02  0.53267301538E+02  0.57282911671E+02  0.10566000000E+00 0.  1.
        994    1    1    2    0    0  0.96234903316E+01  0.17927950272E+02  0.53489680220E+01  0.17248789646E+03  0.17120000000E+03 0.  0.
        998    1    1    2    0    0  0.48972971475E+01 -0.26615779695E+01  0.14413837267E+04  0.14414291919E+04  0.10000000000E+02 0.  1.
</event>
<event>
 5    1  0.1535793E-008  0.3724332E+03  0.7957747E-01  0.3484782E+00
         13   -1    0    0    0    0  0.00000000000E+00  0.00000000000E+00  0.14999999963E+04  0.15000000000E+04  0.10566000000E+00 0.  1.
        994   -1    0    0    0    0 -0.00000000000E+00 -0.00000000000E+00  0.11368683772E-12  0.17120000000E+03  0.17120000000E+03 0.  0.
         13    1    1    2    0    0 -0.19594395414E+02 -0.21216407435E+02  0.50863655942E+02  0.58491015856E+02  0.10566000000E+00 0.  1.
        994    1    1    2    0    0  0.63019173167E+01  0.33770029183E+01  0.81780552342E+01  0.17154427679E+03  0.17120000000E+03 0.  0.
        998    1    1    2    0    0  0.13292478098E+02  0.17839404517E+02  0.14409582851E+04  0.14411647074E+04  0.10000000000E+02 0.  1.
</event>
<event>
 5    1  0.1535793E-008  0.3797007E+03  0.7957747E-01  0.3452463E+00
         13   -1    0    0    0    0  0.00000000000E+00  0.00000000000E+00  0.14999999963E+04  0.15000000000E+04  0.10566000000E+00 0. -1.
        994   -1    0    0    0    0 -0.00000000000E+00 -0.00000000000E+00  0.11368683772E-12  0.17120000000E+03  0.17120000000E+03 0.  0.
         13    1    1    2    0    0 -0.28025441574E+02  0.20743380117E+02  0.14918703779E+03  0.15320736472E+03  0.10566000000E+00 0. -1.
        994    1    1    2    0    0  0.17305778984E+02  0.47178948958E+01  0.53616676703E+01  0.17222060271E+03  0.17120000000E+03 0.  0.
        998    1    1    2    0    0  0.10719662590E+02 -0.25461275013E+02  0.13454512908E+04  0.13457720326E+04  0.10000000000E+02 0. -1.
</event>
<event>
 5    1  0.1535793E-008  0.3801089E+03  0.7957747E-01  0.3450684E+00
         13   -1    0    0    0    0  0.00000000000E+00  0.00000000000E+00  0.14999999963E+04  0.15000000000E+04  0.10566000000E+00 0. -1.
        994   -1    0    0    0    0 -0.00000000000E+00 -0.00000000000E+00  0.11368683772E-12  0.17120000000E+03  0.17120000000E+03 0.  0.
         13    1    1    2    0    0 -0.31029855912E+02  0.18587014393E+02  0.20113152367E+03  0.20435809267E+03  0.10566000000E+00 0. -1.
        994    1    1    2    0    0 -0.10539208375E+02  0.12584420114E+00  0.44495000907E+01  0.17158184287E+03  0.17120000000E+03 0.  0.
        998    1    1    2    0    0  0.41569064287E+02 -0.18712858594E+02  0.12944189725E+04  0.12952600645E+04  0.10000000000E+02 0. -1.
</event>
<event>
 5    1  0.1535793E-008  0.3803945E+03  0.7957747E-01  0.3449443E+00
         13   -1    0    0    0    0  0.00000000000E+00  0.00000000000E+00  0.14999999963E+04  0.15000000000E+04  0.10566000000E+00 0.  1.
        994   -1    0    0    0    0 -0.00000000000E+00 -0.00000000000E+00  0.11368683772E-12  0.17120000000E+03  0.17120000000E+03 0.  0.
         13    1    1    2    0    0 -0.12578351603E+02 -0.18801861733E+01  0.18776900881E+02  0.22678915314E+02  0.10566000000E+00 0.  1.
        994    1    1    2    0    0  0.11993632829E+02 -0.77204462587E+00  0.44165195216E+01  0.17167815506E+03  0.17120000000E+03 0.  0.
        998    1    1    2    0    0  0.58471877479E+00  0.26522307992E+01  0.14768065759E+04  0.14768429296E+04  0.10000000000E+02 0.  1.
</event>
<event>
 5    1  0.1535793E-008  0.3839684E+03  0.7957747E-01  0.3434059E+00
         13   -1    0    0    0    0  0.00000000000E+00  0.00000000000E+00  0.14999999963E+04  0.15000000000E+04  0.10566000000E+00 0. -1.
        994   -1    0    0    0    0 -0.00000000000E+00 -0.00000000000E+00  0.11368683772E-12  0.17120000000E+03  0.17120000000E+03 0.  0.
         13    1    1    2    0    0 -0.16448440516E+02  0.13493242577E+02  0.10007218974E+03  0.10230871475E+03  0.10566000000E+00 0. -1.
        994    1    1    2    0    0  0.14417514894E+02 -0.14822332928E+02  0.35552953939E+01  0.17248085811E+03  0.17120000000E+03 0.  0.
        998    1    1    2    0    0  0.20309256227E+01  0.13290903514E+01  0.13963725111E+04  0.13964104271E+04  0.10000000000E+02 0. -1.
</event>
<event>
 5    1  0.1535793E-008  0.3708432E+03  0.7957747E-01  0.3492025E+00
         13   -1    0    0    0    0  0.00000000000E+00  0.00000000000E+00  0.14999999963E+04  0.15000000000E+04  0.10566000000E+00 0.  1.
        994   -1    0    0    0    0 -0.00000000000E+00 -0.00000000000E+00  0.11368683772E-12  0.17120000000E+03  0.17120000000E+03 0.  0.
         13    1    1    2    0    0  0.13204301939E+02 -0.40394103577E+02  0.74287904080E+02  0.85584701029E+02  0.10566000000E+00 0.  1.
        994    1    1    2    0    0 -0.13689636829E+02  0.29027927493E+02  0.15005544779E+02  0.17482743808E+03  0.17120000000E+03 0.  0.
        998    1    1    2    0    0  0.48533488959E+00  0.11366176085E+02  0.14107065474E+04  0.14107878609E+04  0.10000000000E+02 0.  1.
</event>
<event>
 5    1  0.1535793E-008  0.3694318E+03  0.7957747E-01  0.3498507E+00
         13   -1    0    0    0    0  0.00000000000E+00  0.00000000000E+00  0.14999999963E+04  0.15000000000E+04  0.10566000000E+00 0.  1.
        994   -1    0    0    0    0 -0.00000000000E+00 -0.00000000000E+00  0.11368683772E-12  0.17120000000E+03  0.17120000000E+03 0.  0.
         13    1    1    2    0    0  0.33153412827E+02  0.45409905024E+01  0.46819277417E+02  0.57548460264E+02  0.10566000000E+00 0.  1.
        994    1    1    2    0    0 -0.34858641403E+02 -0.86374856188E+01  0.15151982272E+02  0.17558118807E+03  0.17120000000E+03 0.  0.
        998    1    1    2    0    0  0.17052285761E+01  0.40964951164E+01  0.14380287366E+04  0.14380703517E+04  0.10000000000E+02 0.  1.
</event>
<event>
 5    1  0.1535793E-008  0.3799539E+03  0.7957747E-01  0.3451359E+00
         13   -1    0    0    0    0  0.00000000000E+00  0.00000000000E+00  0.14999999963E+04  0.15000000000E+04  0.10566000000E+00 0.  1.
        994   -1    0    0    0    0 -0.00000000000E+00 -0.00000000000E+00  0.11368683772E-12  0.17120000000E+03  0.17120000000E+03 0.  0.
         13    1    1    2    0    0  0.23624595879E+01 -0.30479120961E+02  0.11274192951E+03  0.11681314936E+03  0.10566000000E+00 0.  1.
        994    1    1    2    0    0 -0.90185882439E+01  0.14959579787E+02  0.51772356918E+01  0.17216668589E+03  0.17120000000E+03 0.  0.
        998    1    1    2    0    0  0.66561286560E+01  0.15519541174E+02  0.13820808311E+04  0.13822201648E+04  0.10000000000E+02 0.  1.
</event>
<event>
 5    1  0.1535793E-008  0.3843200E+03  0.7957747E-01  0.3432561E+00
         13   -1    0    0    0    0  0.00000000000E+00  0.00000000000E+00  0.14999999963E+04  0.15000000000E+04  0.10566000000E+00 0.  1.
        994   -1    0    0    0    0 -0.00000000000E+00 -0.00000000000E+00  0.11368683772E-12  0.17120000000E+03  0.17120000000E+03 0.  0.
         13    1    1    2    0    0 -0.58085183466E+01 -0.18647461593E+02  0.93898895052E+02  0.95908708496E+02  0.10566000000E+00 0.  1.
        994    1    1    2    0    0  0.44510808778E+02  0.58304517381E+01  0.86385405444E+01  0.17719839347E+03  0.17120000000E+03 0.  0.
        998    1    1    2    0    0 -0.38702290432E+02  0.12817009855E+02  0.13974625607E+04  0.13980928980E+04  0.10000000000E+02 0.  1.
</event>
<event>
 5    1  0.1541857E-008  0.3860679E+03  0.7957747E-01  0.3425156E+00
         13   -1    0    0    0    0  0.00000000000E+00  0.00000000000E+00  0.14999999963E+04  0.15000000000E+04  0.10566000000E+00 0. -1.
        994   -1    0    0    0    0 -0.00000000000E+00 -0.00000000000E+00  0.11368683772E-12  0.17120000000E+03  0.17120000000E+03 0.  0.
         13    1    1    2    0    0  0.31239647120E+01  0.10803801092E+02  0.57969327328E+02  0.59050278141E+02  0.10566000000E+00 0. -1.
        994    1    1    2    0    0  0.26855693973E+01 -0.92097712262E+01  0.14025601927E+01  0.17147431103E+03  0.17120000000E+03 0.  0.
        998    1    1    2    0    0 -0.58095341092E+01 -0.15940298660E+01  0.14406281088E+04  0.14406754108E+04  0.10000000000E+02 0. -1.
</event>
<event>
 5    1  0.1535793E-008  0.3842890E+03  0.7957747E-01  0.3432693E+00
         13   -1    0    0    0    0  0.00000000000E+00  0.00000000000E+00  0.14999999963E+04  0.15000000000E+04  0.10566000000E+00 0.  1.
        994   -1    0    0    0    0 -0.00000000000E+00 -0.00000000000E+00  0.11368683772E-12  0.17120000000E+03  0.17120000000E+03 0.  0.
         13    1    1    2    0    0 -0.18809921640E+02  0.94757146466E+01  0.12001230691E+03  0.12184649070E+03  0.10566000000E+00 0.  1.
        994    1    1    2    0    0  0.50071361814E+01  0.12084608276E+01  0.20710034344E+01  0.17128999050E+03  0.17120000000E+03 0.  0.
        998    1    1    2    0    0  0.13802785459E+02 -0.10684175474E+02  0.13779166859E+04  0.13780635188E+04  0.10000000000E+02 0.  1.
</event>
<event>
 5    1  0.1535793E-008  0.3857849E+03  0.7957747E-01  0.3426350E+00
         13   -1    0    0    0    0  0.00000000000E+00  0.00000000000E+00  0.14999999963E+04  0.15000000000E+04  0.10566000000E+00 0.  1.
        994   -1    0    0    0    0 -0.00000000000E+00 -0.00000000000E+00  0.11368683772E-12  0.17120000000E+03  0.17120000000E+03 0.  0.
         13    1    1    2    0    0 -0.11675286768E+02  0.27965165996E+01  0.64084999298E+02  0.65199931942E+02  0.10566000000E+00 0.  1.
        994    1    1    2    0    0 -0.46571225816E+01 -0.89893903388E+00  0.13147375136E+01  0.17127073719E+03  0.17120000000E+03 0.  0.
        998    1    1    2    0    0  0.16332409350E+02 -0.18975775657E+01  0.14346002595E+04  0.14347293309E+04  0.10000000000E+02 0.  1.
</event>
<event>
 5    1  0.1535793E-008  0.3824946E+03  0.7957747E-01  0.3440368E+00
         13   -1    0    0    0    0  0.00000000000E+00  0.00000000000E+00  0.14999999963E+04  0.15000000000E+04  0.10566000000E+00 0.  1.
        994   -1    0    0    0    0 -0.00000000000E+00 -0.00000000000E+00  0.11368683772E-12  0.17120000000E+03  0.17120000000E+03 0.  0.
         13    1    1    2    0    0  0.10955982453E+02  0.17388724237E+02  0.69743915203E+02  0.72709188924E+02  0.10566000000E+00 0.  1.
        994    1    1    2    0    0 -0.65195227793E+01 -0.20361075471E+02  0.43960918513E+01  0.17258575606E+03  0.17120000000E+03 0.  0.
        998    1    1    2    0    0 -0.44364596740E+01  0.29723512346E+01  0.14258599892E+04  0.14259050550E+04  0.10000000000E+02 0.  1.
</event>
<event>
 5    1  0.1535793E-008  0.3842327E+03  0.7957747E-01  0.3432933E+00
         13   -1    0    0    0    0  0.00000000000E+00  0.00000000000E+00  0.14999999963E+04  0.15000000000E+04  0.10566000000E+00 0.  1.
        994   -1    0    0    0    0 -0.00000000000E+00 -0.00000000000E+00  0.11368683772E-12  0.17120000000E+03  0.17120000000E+03 0.  0.
         13    1    1    2    0    0  0.12721068858E+02 -0.27380822759E+01  0.37943259887E+02  0.40112651649E+02  0.10566000000E+00 0.  1.
        994    1    1    2    0    0 -0.28856314336E+02  0.76443146524E+01  0.49550096113E+01  0.17385371593E+03  0.17120000000E+03 0.  0.
        998    1    1    2    0    0  0.16135245479E+02 -0.49062323765E+01  0.14571017268E+04  0.14572336324E+04  0.10000000000E+02 0.  1.
</event>
<event>
 5    1  0.1535793E-008  0.3802689E+03  0.7957747E-01  0.3449988E+00
         13   -1    0    0    0    0  0.00000000000E+00  0.00000000000E+00  0.14999999963E+04  0.15000000000E+04  0.10566000000E+00 0. -1.
        994   -1    0    0    0    0 -0.00000000000E+00 -0.00000000000E+00  0.11368683772E-12  0.17120000000E+03  0.17120000000E+03 0.  0.
         13    1    1    2    0    0  0.14564976948E+02 -0.52480429089E+01  0.28814595302E+02  0.32710435251E+02  0.10566000000E+00 0. -1.
        994    1    1    2    0    0 -0.55967776913E+01  0.14516201442E+01  0.41091274586E+01  0.17134688807E+03  0.17120000000E+03 0.  0.
        998    1    1    2    0    0 -0.89681992562E+01  0.37964227647E+01  0.14670762735E+04  0.14671426767E+04  0.10000000000E+02 0. -1.
</event>
<event>
 5    1  0.1535793E-008  0.3813878E+03  0.7957747E-01  0.3445138E+00
         13   -1    0    0    0    0  0.00000000000E+00  0.00000000000E+00  0.14999999963E+04  0.15000000000E+04  0.10566000000E+00 0.  1.
        994   -1    0    0    0    0 -0.00000000000E+00 -0.00000000000E+00  0.11368683772E-12  0.17120000000E+03  0.17120000000E+03 0.  0.
         13    1    1    2    0    0 -0.19362925030E+02 -0.51933195115E+01  0.59608177968E+02  0.62889104605E+02  0.10566000000E+00 0.  1.
        994    1    1    2    0    0  0.50830412198E+01 -0.34445459579E+01  0.35596960412E+01  0.17134705612E+03  0.17120000000E+03 0.  0.
        998    1    1    2    0    0  0.14279883810E+02  0.86378654694E+01  0.14368321223E+04  0.14369638393E+04  0.10000000000E+02 0.  1.
</event>
<event>
 5    1  0.1535793E-008  0.3810129E+03  0.7957747E-01  0.3446760E+00
         13   -1    0    0    0    0  0.00000000000E+00  0.00000000000E+00  0.14999999963E+04  0.15000000000E+04  0.10566000000E+00 0.  1.
        994   -1    0    0    0    0 -0.00000000000E+00 -0.00000000000E+00  0.11368683772E-12  0.17120000000E+03  0.17120000000E+03 0.  0.
         13    1    1    2    0    0  0.26127540353E+02 -0.15294355047E+02  0.11505176772E+03  0.11896842473E+03  0.10566000000E+00 0.  1.
        994    1    1    2    0    0 -0.26466397954E+02  0.20015634965E+02  0.72999718316E+01  0.17453889381E+03  0.17120000000E+03 0.  0.
        998    1    1    2    0    0  0.33885760079E+00 -0.47212799186E+01  0.13776482567E+04  0.13776926815E+04  0.10000000000E+02 0.  1.
</event>
<event>
 5    1  0.1535793E-008  0.3734034E+03  0.7957747E-01  0.3480394E+00
         13   -1    0    0    0    0  0.00000000000E+00  0.00000000000E+00  0.14999999963E+04  0.15000000000E+04  0.10566000000E+00 0. -1.
        994   -1    0    0    0    0 -0.00000000000E+00 -0.00000000000E+00  0.11368683772E-12  0.17120000000E+03  0.17120000000E+03 0.  0.
         13    1    1    2    0    0 -0.53145180849E+02 -0.27569698549E+02  0.23467682942E+03  0.24219356713E+03  0.10566000000E+00 0. -1.
        994    1    1    2    0    0  0.29981218421E+02  0.20037872369E+02  0.11958115696E+02  0.17536483775E+03  0.17120000000E+03 0.  0.
        998    1    1    2    0    0  0.23163962429E+02  0.75318261802E+01  0.12533650512E+04  0.12536415951E+04  0.10000000000E+02 0. -1.
</event>
<event>
 5    1  0.1535793E-008  0.3760033E+03  0.7957747E-01  0.3468748E+00
         13   -1    0    0    0    0  0.00000000000E+00  0.00000000000E+00  0.14999999963E+04  0.15000000000E+04  0.10566000000E+00 0.  1.
        994   -1    0    0    0    0 -0.00000000000E+00 -0.00000000000E+00  0.11368683772E-12  0.17120000000E+03  0.17120000000E+03 0.  0.
         13    1    1    2    0    0  0.17305871163E+02 -0.30179028991E+01  0.21543896255E+02  0.27798409029E+02  0.10566000000E+00 0.  1.
        994    1    1    2    0    0 -0.29964023184E+02 -0.98736729920E+01  0.95437205010E+01  0.17434406989E+03  0.17120000000E+03 0.  0.
        998    1    1    2    0    0  0.12658152021E+02  0.12891575891E+02  0.14689123795E+04  0.14690575211E+04  0.10000000000E+02 0.  1.
</event>
<event>
 5    1  0.1621108E-008  0.3860021E+03  0.7957747E-01  0.3425433E+00
         13   -1    0    0    0    0  0.00000000000E+00  0.00000000000E+00  0.14999999963E+04  0.15000000000E+04  0.10566000000E+00 0.  1.
        994   -1    0    0    0    0 -0.00000000000E+00 -0.00000000000E+00  0.11368683772E-12  0.17120000000E+03  0.17120000000E+03 0.  0.
         13    1    1    2    0    0  0.90661863421E+01 -0.97690150775E+01  0.76172828872E+02  0.77330074440E+02  0.10566000000E+00 0.  1.
        994    1    1    2    0    0 -0.12125797379E+02  0.74314705425E+01  0.17967124701E+01  0.17179909747E+03  0.17120000000E+03 0.  0.
        998    1    1    2    0    0  0.30596110367E+01  0.23375445350E+01  0.14220304549E+04  0.14220708281E+04  0.10000000000E+02 0.  1.
</event>
<event>
 5    1  0.1535793E-008  0.3821591E+03  0.7957747E-01  0.3441811E+00
         13   -1    0    0    0    0  0.00000000000E+00  0.00000000000E+00  0.14999999963E+04  0.15000000000E+04  0.10566000000E+00 0.  1.
        994   -1    0    0    0    0 -0.00000000000E+00 -0.00000000000E+00  0.11368683772E-12  0.17120000000E+03  0.17120000000E+03 0.  0.
         13    1    1    2    0    0  0.62552078749E+01  0.22665149316E+02  0.82456293121E+01  0.24916624689E+02  0.10566000000E+00 0.  1.
        994    1    1    2    0    0  0.63957641050E+01 -0.18324014885E+02  0.18895253431E+02  0.17332958756E+03  0.17120000000E+03 0.  0.
        998    1    1    2    0    0 -0.12650971980E+02 -0.43411344314E+01  0.14728591135E+04  0.14729537878E+04  0.10000000000E+02 0.  1.
</event>
<event>
 5    1  0.1535793E-008  0.3718306E+03  0.7957747E-01  0.3487520E+00
         13   -1    0    0    0    0  0.00000000000E+00  0.00000000000E+00  0.14999999963E+04  0.15000000000E+04  0.10566000000E+00 0.  1.
        994   -1    0    0    0    0 -0.00000000000E+00 -0.00000000000E+00  0.11368683772E-12  0.17120000000E+03  0.17120000000E+03 0.  0.
         13    1    1    2    0    0 -0.71812203749E+01 -0.17832404600E+02  0.20417883690E+02  0.28043996119E+02  0.10566000000E+00 0.  1.
        994    1    1    2    0    0 -0.20628042476E+02 -0.19490729576E+02  0.11087714818E+02  0.17389014376E+03  0.17120000000E+03 0.  0.
        998    1    1    2    0    0  0.27809262851E+02  0.37323134176E+02  0.14684943978E+04  0.14692658601E+04  0.10000000000E+02 0.  1.
</event>
<event>
 5    1  0.1535793E-008  0.3730879E+03  0.7957747E-01  0.3481819E+00
         13   -1    0    0    0    0  0.00000000000E+00  0.00000000000E+00  0.14999999963E+04  0.15000000000E+04  0.10566000000E+00 0. -1.
        994   -1    0    0    0    0 -0.00000000000E+00 -0.00000000000E+00  0.11368683772E-12  0.17120000000E+03  0.17120000000E+03 0.  0.
         13    1    1    2    0    0 -0.25686822063E+02  0.20090085977E+02  0.72698921190E+02  0.79677905899E+02  0.10566000000E+00 0. -1.
        994    1    1    2    0    0 -0.77293349966E+01 -0.25607928259E+01  0.78907617507E+01  0.17157506929E+03  0.17120000000E+03 0.  0.
        998    1    1    2    0    0  0.33416157060E+02 -0.17529293151E+02  0.14194103133E+04  0.14199470248E+04  0.10000000000E+02 0. -1.
</event>
<event>
 5    1  0.1535793E-008  0.3763431E+03  0.7957747E-01  0.3467238E+00
         13   -1    0    0    0    0  0.00000000000E+00  0.00000000000E+00  0.14999999963E+04  0.15000000000E+04  0.10566000000E+00 0.  1.
        994   -1    0    0    0    0 -0.00000000000E+00 -0.00000000000E+00  0.11368683772E-12  0.17120000000E+03  0.17120000000E+03 0.  0.
         13    1    1    2    0    0 -0.35122282808E+01 -0.23033502930E+02  0.12197082456E+02  0.26299391423E+02  0.10566000000E+00 0.  1.
        994    1    1    2    0    0  0.61077091118E+01  0.34409168924E+02  0.18712247388E+02  0.17572957412E+03  0.17120000000E+03 0.  0.
        998    1    1    2    0    0 -0.25954808309E+01 -0.11375665994E+02  0.14690906664E+04  0.14691710345E+04  0.10000000000E+02 0.  1.
</event>
<event>
 5    1  0.1535793E-008  0.3783705E+03  0.7957747E-01  0.3458284E+00
         13   -1    0    0    0    0  0.00000000000E+00  0.00000000000E+00  0.14999999963E+04  0.15000000000E+04  0.10566000000E+00 0. -1.
        994   -1    0    0    0    0 -0.00000000000E+00 -0.00000000000E+00  0.11368683772E-12  0.17120000000E+03  0.17120000000E+03 0.  0.
         13    1    1    2    0    0  0.27584685091E+01 -0.28078699761E+02  0.86389681064E+02  0.90880199643E+02  0.10566000000E+00 0. -1.
        994    1    1    2    0    0  0.67919259233E+01 -0.31979288576E+01  0.51474062842E+01  0.17144180586E+03  0.17120000000E+03 0.  0.
        998    1    1    2    0    0 -0.95503944324E+01  0.31276628619E+02  0.14084629089E+04  0.14088779945E+04  0.10000000000E+02 0. -1.
</event>
<event>
 5    1  0.1535793E-008  0.3750843E+03  0.7957747E-01  0.3472846E+00
         13   -1    0    0    0    0  0.00000000000E+00  0.00000000000E+00  0.14999999963E+04  0.15000000000E+04  0.10566000000E+00 0. -1.
        994   -1    0    0    0    0 -0.00000000000E+00 -0.00000000000E+00  0.11368683772E-12  0.17120000000E+03  0.17120000000E+03 0.  0.
         13    1    1    2    0    0  0.38556597026E+01 -0.27681884434E+02  0.56333417917E+02  0.62885753361E+02  0.10566000000E+00 0. -1.
        994    1    1    2    0    0  0.60776230456E+01  0.19113746883E+02  0.80036618530E+01  0.17255657456E+03  0.17120000000E+03 0.  0.
        998    1    1    2    0    0 -0.99332827482E+01  0.85681375512E+01  0.14356629165E+04  0.14357576721E+04  0.10000000000E+02 0. -1.
</event>
<event>
 5    1  0.1535793E-008  0.3725556E+03  0.7957747E-01  0.3484227E+00
         13   -1    0    0    0    0  0.00000000000E+00  0.00000000000E+00  0.14999999963E+04  0.15000000000E+04  0.10566000000E+00 0. -1.
        994   -1    0    0    0    0 -0.00000000000E+00 -0.00000000000E+00  0.11368683772E-12  0.17120000000E+03  0.17120000000E+03 0.  0.
         13    1    1    2    0    0 -0.71989587471E+02  0.19127277820E+02  0.22862355428E+03  0.24045185422E+03  0.10566000000E+00 0. -1.
        994    1    1    2    0    0  0.48609004188E+02  0.29413927755E+02  0.23772321112E+02  0.18194113797E+03  0.17120000000E+03 0.  0.
        998    1    1    2    0    0  0.23380583283E+02 -0.48541205575E+02  0.12476041209E+04  0.12488070078E+04  0.10000000000E+02 0. -1.
</event>
<event>
 5    1  0.1535793E-008  0.3840379E+03  0.7957747E-01  0.3433763E+00
         13   -1    0    0    0    0  0.00000000000E+00  0.00000000000E+00  0.14999999963E+04  0.15000000000E+04  0.10566000000E+00 0.  1.
        994   -1    0    0    0    0 -0.00000000000E+00 -0.00000000000E+00  0.11368683772E-12  0.17120000000E+03  0.17120000000E+03 0.  0.
         13    1    1    2    0    0 -0.42715171414E+01  0.10575716410E+02  0.28704321310E+02  0.30887551897E+02  0.10566000000E+00 0.  1.
        994    1    1    2    0    0  0.87435309997E+01 -0.19662966448E+02  0.36377387051E+01  0.17258549976E+03  0.17120000000E+03 0.  0.
        998    1    1    2    0    0 -0.44720138583E+01  0.90872500382E+01  0.14676579363E+04  0.14677269483E+04  0.10000000000E+02 0.  1.
</event>
<event>
 5    1  0.1535793E-008  0.3795723E+03  0.7957747E-01  0.3453023E+00
         13   -1    0    0    0    0  0.00000000000E+00  0.00000000000E+00  0.14999999963E+04  0.15000000000E+04  0.10566000000E+00 0.  1.
        994   -1    0    0    0    0 -0.00000000000E+00 -0.00000000000E+00  0.11368683772E-12  0.17120000000E+03  0.17120000000E+03 0.  0.
         13    1    1    2    0    0  0.22691094750E+02 -0.16386474734E+01  0.56902106611E+02  0.61281578369E+02  0.10566000000E+00 0.  1.
        994    1    1    2    0    0 -0.19202465623E+02 -0.95448912081E+00  0.55876024377E+01  0.17236678055E+03  0.17120000000E+03 0.  0.
        998    1    1    2    0    0 -0.34886291265E+01  0.25931365942E+01  0.14375102872E+04  0.14375516411E+04  0.10000000000E+02 0.  1.
</event>
<event>
 5    1  0.1535793E-008  0.3842222E+03  0.7957747E-01  0.3432978E+00
         13   -1    0    0    0    0  0.00000000000E+00  0.00000000000E+00  0.14999999963E+04  0.15000000000E+04  0.10566000000E+00 0.  1.
        994   -1    0    0    0    0 -0.00000000000E+00 -0.00000000000E+00  0.11368683772E-12  0.17120000000E+03  0.17120000000E+03 0.  0.
         13    1    1    2    0    0  0.82987704133E+01  0.11334045788E+02  0.46378119565E+02  0.48458965349E+02  0.10566000000E+00 0.  1.
        994    1    1    2    0    0 -0.44654342367E+01 -0.19917580900E+02  0.33917014980E+01  0.17244591549E+03  0.17120000000E+03 0.  0.
        998    1    1    2    0    0 -0.38333361766E+01  0.85835351125E+01  0.14502301752E+04  0.14502951192E+04  0.10000000000E+02 0.  1.
</event>
<event>
 5    1  0.1535793E-008  0.3818000E+03  0.7957747E-01  0.3443358E+00
         13   -1    0    0    0    0  0.00000000000E+00  0.00000000000E+00  0.14999999963E+04  0.15000000000E+04  0.10566000000E+00 0.  1.
        994   -1    0    0    0    0 -0.00000000000E+00 -0.00000000000E+00  0.11368683772E-12  0.17120000000E+03  0.17120000000E+03 0.  0.
         13    1    1    2    0    0  0.15511193946E+02  0.48732760969E+00  0.35557883740E+02  0.38797021612E+02  0.10566000000E+00 0.  1.
        994    1    1    2    0    0 -0.14943090403E+02 -0.20086181763E+01  0.39830719007E+01  0.17190879954E+03  0.17120000000E+03 0.  0.
        998    1    1    2    0    0 -0.56810354290E+00  0.15212905666E+01  0.14604590406E+04  0.14604941788E+04  0.10000000000E+02 0.  1.
</event>
<event>
 5    1  0.1535793E-008  0.3796659E+03  0.7957747E-01  0.3452615E+00
         13   -1    0    0    0    0  0.00000000000E+00  0.00000000000E+00  0.14999999963E+04  0.15000000000E+04  0.10566000000E+00 0. -1.
        994   -1    0    0    0    0 -0.00000000000E+00 -0.00000000000E+00  0.11368683772E-12  0.17120000000E+03  0.17120000000E+03 0.  0.
         13    1    1    2    0    0  0.11242950933E+02  0.18539111257E+02  0.55675576435E+02  0.59748502637E+02  0.10566000000E+00 0. -1.
        994    1    1    2    0    0 -0.95566074592E+01  0.39698018516E+01  0.46603629090E+01  0.17157577642E+03  0.17120000000E+03 0.  0.
        998    1    1    2    0    0 -0.16863434741E+01 -0.22508913108E+02  0.14396640569E+04  0.14398757209E+04  0.10000000000E+02 0. -1.
</event>
<event>
 5    1  0.1535793E-008  0.3795216E+03  0.7957747E-01  0.3453244E+00
         13   -1    0    0    0    0  0.00000000000E+00  0.00000000000E+00  0.14999999963E+04  0.15000000000E+04  0.10566000000E+00 0.  1.
        994   -1    0    0    0    0 -0.00000000000E+00 -0.00000000000E+00  0.11368683772E-12  0.17120000000E+03  0.17120000000E+03 0.  0.
         13    1    1    2    0    0 -0.22556505056E+02  0.47324568331E+01  0.10950292115E+02  0.25516898900E+02  0.10566000000E+00 0.  1.
        994    1    1    2    0    0 -0.31740938563E+02  0.34658137447E+02  0.24097049839E+02  0.17916132809E+03  0.17120000000E+03 0.  0.
        998    1    1    2    0    0  0.54297443619E+02 -0.39390594281E+02  0.14649526543E+04  0.14665217730E+04  0.10000000000E+02 0.  1.
</event>
<event>
 5    1  0.1535793E-008  0.2980336E+03  0.7957747E-01  0.3910158E+00
         13   -1    0    0    0    0  0.00000000000E+00  0.00000000000E+00  0.14999999963E+04  0.15000000000E+04  0.10566000000E+00 0. -1.
        994   -1    0    0    0    0 -0.00000000000E+00 -0.00000000000E+00  0.11368683772E-12  0.17120000000E+03  0.17120000000E+03 0.  0.
         13    1    1    2    0    0 -0.63688554570E+02 -0.18758801031E+03  0.57082367181E+03  0.60422278098E+03  0.10566000000E+00 0. -1.
        994    1    1    2    0    0  0.65830760852E+02  0.20317419049E+03  0.20354434716E+03  0.34110582232E+03  0.17120000000E+03 0.  0.
        998    1    1    2    0    0 -0.21422062820E+01 -0.15586180183E+02  0.72563197731E+03  0.72587139670E+03  0.10000000000E+02 0. -1.
</event>
<event>
 5    1  0.1535793E-008  0.3817185E+03  0.7957747E-01  0.3443710E+00
         13   -1    0    0    0    0  0.00000000000E+00  0.00000000000E+00  0.14999999963E+04  0.15000000000E+04  0.10566000000E+00 0. -1.
        994   -1    0    0    0    0 -0.00000000000E+00 -0.00000000000E+00  0.11368683772E-12  0.17120000000E+03  0.17120000000E+03 0.  0.
         13    1    1    2    0    0  0.95789092704E+01 -0.34140253561E+02  0.14440607069E+03  0.14869578620E+03  0.10566000000E+00 0. -1.
        994    1    1    2    0    0 -0.18332697668E+01  0.65692591370E+02  0.17759745234E+02  0.18423823162E+03  0.17120000000E+03 0.  0.
        998    1    1    2    0    0 -0.77456395036E+01 -0.31552337809E+02  0.13378341804E+04  0.13382659822E+04  0.10000000000E+02 0. -1.
</event>
<event>
 5    1  0.1535793E-008  0.3853468E+03  0.7957747E-01  0.3428203E+00
         13   -1    0    0    0    0  0.00000000000E+00  0.00000000000E+00  0.14999999963E+04  0.15000000000E+04  0.10566000000E+00 0. -1.
        994   -1    0    0    0    0 -0.00000000000E+00 -0.00000000000E+00  0.11368683772E-12  0.17120000000E+03  0.17120000000E+03 0.  0.
         13    1    1    2    0    0  0.13021570560E+01 -0.10885450034E+02  0.42250164124E+02  0.43649469275E+02  0.10566000000E+00 0. -1.
        994    1    1    2    0    0 -0.59968814503E+01  0.24070964185E+01  0.15952234313E+01  0.17132933619E+03  0.17120000000E+03 0.  0.
        998    1    1    2    0    0  0.46947243943E+01  0.84783536155E+01  0.14561546087E+04  0.14562211945E+04  0.10000000000E+02 0. -1.
</event>
<event>
 5    1  0.1535793E-008  0.3737656E+03  0.7957747E-01  0.3478762E+00
         13   -1    0    0    0    0  0.00000000000E+00  0.00000000000E+00  0.14999999963E+04  0.15000000000E+04  0.10566000000E+00 0.  1.
        994   -1    0    0    0    0 -0.00000000000E+00 -0.00000000000E+00  0.11368683772E-12  0.17120000000E+03  0.17120000000E+03 0.  0.
         13    1    1    2    0    0  0.52139860453E+02  0.70395595477E+01  0.11467711996E+03  0.12617041433E+03  0.10566000000E+00 0.  1.
        994    1    1    2    0    0 -0.68707022134E+00 -0.11088394864E+02  0.13381330451E+02  0.17208115693E+03  0.17120000000E+03 0.  0.
        998    1    1    2    0    0 -0.51452790232E+02  0.40488353168E+01  0.13719415459E+04  0.13729484287E+04  0.10000000000E+02 0.  1.
</event>
<event>
 5    1  0.1535793E-008  0.3704358E+03  0.7957747E-01  0.3493890E+00
         13   -1    0    0    0    0  0.00000000000E+00  0.00000000000E+00  0.14999999963E+04  0.15000000000E+04  0.10566000000E+00 0. -1.
        994   -1    0    0    0    0 -0.00000000000E+00 -0.00000000000E+00  0.11368683772E-12  0.17120000000E+03  0.17120000000E+03 0.  0.
         13    1    1    2    0    0 -0.64409249680E+02 -0.11376278549E+03  0.59890080858E+03  0.61300302813E+03  0.10566000000E+00 0. -1.
        994    1    1    2    0    0  0.64627802610E+02  0.10307069277E+03  0.62018717455E+02  0.21898877116E+03  0.17120000000E+03 0.  0.
        998    1    1    2    0    0 -0.21855292992E+00  0.10692092727E+02  0.83908047024E+03  0.83920820072E+03  0.10000000000E+02 0.  0.
</event>
<event>
 5    1  0.1535793E-008  0.3823823E+03  0.7957747E-01  0.3440850E+00
         13   -1    0    0    0    0  0.00000000000E+00  0.00000000000E+00  0.14999999963E+04  0.15000000000E+04  0.10566000000E+00 0.  1.
        994   -1    0    0    0    0 -0.00000000000E+00 -0.00000000000E+00  0.11368683772E-12  0.17120000000E+03  0.17120000000E+03 0.  0.
         13    1    1    2    0    0 -0.11780653189E+02 -0.22966053863E+02  0.11783645616E+03  0.12063028220E+03  0.10566000000E+00 0.  1.
        994    1    1    2    0    0  0.23918486827E+02 -0.17812924188E+01  0.48457400331E+01  0.17293983986E+03  0.17120000000E+03 0.  0.
        998    1    1    2    0    0 -0.12137833638E+02  0.24747346281E+02  0.13773178001E+04  0.13776298779E+04  0.10000000000E+02 0.  1.
</event>
<event>
 5    1  0.1535793E-008  0.3833811E+03  0.7957747E-01  0.3436567E+00
         13   -1    0    0    0    0  0.00000000000E+00  0.00000000000E+00  0.14999999963E+04  0.15000000000E+04  0.10566000000E+00 0. -1.
        994   -1    0    0    0    0 -0.00000000000E+00 -0.00000000000E+00  0.11368683772E-12  0.17120000000E+03  0.17120000000E+03 0.  0.
         13    1    1    2    0    0  0.77456446763E+01  0.11454438974E+02  0.38212359188E+02  0.40637356489E+02  0.10566000000E+00 0. -1.
        994    1    1    2    0    0 -0.93814085914E+01 -0.72408053805E+01  0.29004505472E+01  0.17163418279E+03  0.17120000000E+03 0.  0.
        998    1    1    2    0    0  0.16357639151E+01 -0.42136335940E+01  0.14588871865E+04  0.14589284607E+04  0.10000000000E+02 0. -1.
</event>
<event>
 5    1  0.1535793E-008  0.3773366E+03  0.7957747E-01  0.3462838E+00
         13   -1    0    0    0    0  0.00000000000E+00  0.00000000000E+00  0.14999999963E+04  0.15000000000E+04  0.10566000000E+00 0. -1.
        994   -1    0    0    0    0 -0.00000000000E+00 -0.00000000000E+00  0.11368683772E-12  0.17120000000E+03  0.17120000000E+03 0.  0.
         13    1    1    2    0    0 -0.16299542150E+02  0.25707129905E+01  0.22715458675E+02  0.28076446827E+02  0.10566000000E+00 0. -1.
        994    1    1    2    0    0  0.74442191402E+01 -0.49689776906E+01  0.57538911090E+01  0.17153033085E+03  0.17120000000E+03 0.  0.
        998    1    1    2    0    0  0.88553230102E+01  0.23982647001E+01  0.14715306465E+04  0.14715932223E+04  0.10000000000E+02 0. -1.
</event>
<event>
 5    1  0.1535793E-008  0.3833327E+03  0.7957747E-01  0.3436774E+00
         13   -1    0    0    0    0  0.00000000000E+00  0.00000000000E+00  0.14999999963E+04  0.15000000000E+04  0.10566000000E+00 0. -1.
        994   -1    0    0    0    0 -0.00000000000E+00 -0.00000000000E+00  0.11368683772E-12  0.17120000000E+03  0.17120000000E+03 0.  0.
         13    1    1    2    0    0 -0.98897187843E+01 -0.83165240125E+01  0.33784591182E+02  0.36171547861E+02  0.10566000000E+00 0. -1.
        994    1    1    2    0    0  0.32208515724E+01  0.24489549721E+01  0.25143284135E+01  0.17126626379E+03  0.17120000000E+03 0.  0.
        998    1    1    2    0    0  0.66688672120E+01  0.58675690404E+01  0.14637010767E+04  0.14637621883E+04  0.10000000000E+02 0. -1.
</event>
<event>
 5    1  0.1535793E-008  0.3710093E+03  0.7957747E-01  0.3491265E+00
         13   -1    0    0    0    0  0.00000000000E+00  0.00000000000E+00  0.14999999963E+04  0.15000000000E+04  0.10566000000E+00 0. -1.
        994   -1    0    0    0    0 -0.00000000000E+00 -0.00000000000E+00  0.11368683772E-12  0.17120000000E+03  0.17120000000E+03 0.  0.
         13    1    1    2    0    0  0.73792992938E+01  0.49419194854E+02  0.17333789294E+03  0.18039608413E+03  0.10566000000E+00 0. -1.
        994    1    1    2    0    0 -0.12977108491E+02  0.14357117767E+02  0.10034044696E+02  0.17258231146E+03  0.17120000000E+03 0.  0.
        998    1    1    2    0    0  0.55978091975E+01 -0.63776312621E+02  0.13166280586E+04  0.13182216044E+04  0.10000000000E+02 0. -1.
</event>
<event>
 5    1  0.1535793E-008  0.3790518E+03  0.7957747E-01  0.3455298E+00
         13   -1    0    0    0    0  0.00000000000E+00  0.00000000000E+00  0.14999999963E+04  0.15000000000E+04  0.10566000000E+00 0. -1.
        994   -1    0    0    0    0 -0.00000000000E+00 -0.00000000000E+00  0.11368683772E-12  0.17120000000E+03  0.17120000000E+03 0.  0.
         13    1    1    2    0    0  0.53195006002E+02 -0.32741376100E+02  0.11535753896E+03  0.13118338055E+03  0.10566000000E+00 0. -1.
        994    1    1    2    0    0 -0.27336078432E+02  0.47110256360E+02  0.26598590130E+02  0.18161377270E+03  0.17120000000E+03 0.  0.
        998    1    1    2    0    0 -0.25858927570E+02 -0.14368880259E+02  0.13580438672E+04  0.13584028468E+04  0.10000000000E+02 0. -1.
</event>
<event>
 5    1  0.1535793E-008  0.3780814E+03  0.7957747E-01  0.3459555E+00
         13   -1    0    0    0    0  0.00000000000E+00  0.00000000000E+00  0.14999999963E+04  0.15000000000E+04  0.10566000000E+00 0. -1.
        994   -1    0    0    0    0 -0.00000000000E+00 -0.00000000000E+00  0.11368683772E-12  0.17120000000E+03  0.17120000000E+03 0.  0.
         13    1    1    2    0    0 -0.42257075823E+01  0.12763968656E+02  0.17081828515E+02  0.21738802402E+02  0.10566000000E+00 0. -1.
        994    1    1    2    0    0 -0.44850799090E+02  0.18720174082E+02  0.13092815247E+02  0.17844579263E+03  0.17120000000E+03 0.  0.
        998    1    1    2    0    0  0.49076506672E+02 -0.31484142738E+02  0.14698253525E+04  0.14710154050E+04  0.10000000000E+02 0. -1.
</event>
<event>
 5    1  0.1535793E-008  0.3836448E+03  0.7957747E-01  0.3435440E+00
         13   -1    0    0    0    0  0.00000000000E+00  0.00000000000E+00  0.14999999963E+04  0.15000000000E+04  0.10566000000E+00 0. -1.
        994   -1    0    0    0    0 -0.00000000000E+00 -0.00000000000E+00  0.11368683772E-12  0.17120000000E+03  0.17120000000E+03 0.  0.
         13    1    1    2    0    0  0.10151362500E+02  0.39330595935E+01  0.25069069382E+02  0.27331090759E+02  0.10566000000E+00 0. -1.
        994    1    1    2    0    0 -0.46949399494E+01 -0.55975979379E+01  0.24807972364E+01  0.17137377255E+03  0.17120000000E+03 0.  0.
        998    1    1    2    0    0 -0.54564225511E+01  0.16645383444E+01  0.14724501297E+04  0.14724951367E+04  0.10000000000E+02 0. -1.
</event>
<event>
 5    1  0.1535793E-008  0.3832973E+03  0.7957747E-01  0.3436926E+00
         13   -1    0    0    0    0  0.00000000000E+00  0.00000000000E+00  0.14999999963E+04  0.15000000000E+04  0.10566000000E+00 0. -1.
        994   -1    0    0    0    0 -0.00000000000E+00 -0.00000000000E+00  0.11368683772E-12  0.17120000000E+03  0.17120000000E+03 0.  0.
         13    1    1    2    0    0 -0.18257271644E+02  0.90620963236E+01  0.76544639041E+02  0.79212009743E+02  0.10566000000E+00 0. -1.
        994    1    1    2    0    0  0.26261186402E+02 -0.96161643976E+01  0.50685321147E+01  0.17354322386E+03  0.17120000000E+03 0.  0.
        998    1    1    2    0    0 -0.80039147577E+01  0.55406807401E+00  0.14183868251E+04  0.14184447664E+04  0.10000000000E+02 0. -1.
</event>
<event>
 5    1  0.1535793E-008  0.3834593E+03  0.7957747E-01  0.3436233E+00
         13   -1    0    0    0    0  0.00000000000E+00  0.00000000000E+00  0.14999999963E+04  0.15000000000E+04  0.10566000000E+00 0.  1.
        994   -1    0    0    0    0 -0.00000000000E+00 -0.00000000000E+00  0.11368683772E-12  0.17120000000E+03  0.17120000000E+03 0.  0.
         13    1    1    2    0    0 -0.25207789781E+02  0.64465418012E+01  0.15426985016E+03  0.15644867657E+03  0.10566000000E+00 0.  1.
        994    1    1    2    0    0  0.98701202278E+01  0.17451082026E+02  0.37266931780E+01  0.17241023107E+03  0.17120000000E+03 0.  0.
        998    1    1    2    0    0  0.15337669553E+02 -0.23897623827E+02  0.13420034529E+04  0.13423410924E+04  0.10000000000E+02 0.  1.
</event>
<event>
 5    1  0.1535793E-008  0.3807338E+03  0.7957747E-01  0.3447970E+00
         13   -1    0    0    0    0  0.00000000000E+00  0.00000000000E+00  0.14999999963E+04  0.15000000000E+04  0.10566000000E+00 0. -1.
        994   -1    0    0    0    0 -0.00000000000E+00 -0.00000000000E+00  0.11368683772E-12  0.17120000000E+03  0.17120000000E+03 0.  0.
         13    1    1    2    0    0 -0.14260456325E+02 -0.22324504393E+01  0.25661967800E+02  0.29443033216E+02  0.10566000000E+00 0. -1.
        994    1    1    2    0    0  0.16477469543E+02  0.24956093848E+01  0.46899334205E+01  0.17207315463E+03  0.17120000000E+03 0.  0.
        998    1    1    2    0    0 -0.22170132183E+01 -0.26315894545E+00  0.14696480951E+04  0.14696838122E+04  0.10000000000E+02 0. -1.
</event>
<event>
 5    1  0.1535793E-008  0.3785837E+03  0.7957747E-01  0.3457349E+00
         13   -1    0    0    0    0  0.00000000000E+00  0.00000000000E+00  0.14999999963E+04  0.15000000000E+04  0.10566000000E+00 0. -1.
        994   -1    0    0    0    0 -0.00000000000E+00 -0.00000000000E+00  0.11368683772E-12  0.17120000000E+03  0.17120000000E+03 0.  0.
         13    1    1    2    0    0  0.61016713045E+02  0.13342689746E+02  0.30226026305E+03  0.30864598559E+03  0.10566000000E+00 0. -1.
        994    1    1    2    0    0 -0.69093278447E+02 -0.84374168177E+01  0.21298829264E+02  0.18603266180E+03  0.17120000000E+03 0.  0.
        998    1    1    2    0    0  0.80765654027E+01 -0.49052729280E+01  0.11764409040E+04  0.11765213526E+04  0.10000000000E+02 0.  0.
</event>
<event>
 5    1  0.1535793E-008  0.3748789E+03  0.7957747E-01  0.3473765E+00
         13   -1    0    0    0    0  0.00000000000E+00  0.00000000000E+00  0.14999999963E+04  0.15000000000E+04  0.10566000000E+00 0.  1.
        994   -1    0    0    0    0 -0.00000000000E+00 -0.00000000000E+00  0.11368683772E-12  0.17120000000E+03  0.17120000000E+03 0.  0.
         13    1    1    2    0    0  0.43666429718E+02  0.18676745792E+01  0.12609284782E+03  0.13345284834E+03  0.10566000000E+00 0.  1.
        994    1    1    2    0    0 -0.47413651162E+02 -0.61333781282E+01  0.14553580773E+02  0.17834494486E+03  0.17120000000E+03 0.  0.
        998    1    1    2    0    0  0.37472214438E+01  0.42657035491E+01  0.13593535677E+04  0.13594022068E+04  0.10000000000E+02 0.  0.
</event>
<event>
 5    1  0.1535793E-008  0.3708667E+03  0.7957747E-01  0.3491917E+00
         13   -1    0    0    0    0  0.00000000000E+00  0.00000000000E+00  0.14999999963E+04  0.15000000000E+04  0.10566000000E+00 0.  1.
        994   -1    0    0    0    0 -0.00000000000E+00 -0.00000000000E+00  0.11368683772E-12  0.17120000000E+03  0.17120000000E+03 0.  0.
         13    1    1    2    0    0  0.17647994695E+02 -0.76436938489E+01  0.16996731809E+02  0.25666667658E+02  0.10566000000E+00 0.  1.
        994    1    1    2    0    0 -0.17210679298E+02  0.55464047509E+01  0.99447191109E+01  0.17243928649E+03  0.17120000000E+03 0.  0.
        998    1    1    2    0    0 -0.43731539750E+00  0.20972890980E+01  0.14730585454E+04  0.14730940459E+04  0.10000000000E+02 0.  1.
</event>
<event>
 5    1  0.1535793E-008  0.3759820E+03  0.7957747E-01  0.3468843E+00
         13   -1    0    0    0    0  0.00000000000E+00  0.00000000000E+00  0.14999999963E+04  0.15000000000E+04  0.10566000000E+00 0.  1.
        994   -1    0    0    0    0 -0.00000000000E+00 -0.00000000000E+00  0.11368683772E-12  0.17120000000E+03  0.17120000000E+03 0.  0.
         13    1    1    2    0    0 -0.12261652378E+02 -0.82687733002E+01  0.14989321740E+02  0.21057342216E+02  0.10566000000E+00 0.  1.
        994    1    1    2    0    0  0.77805769211E+01  0.82481192585E+01  0.66110289610E+01  0.17170240113E+03  0.17120000000E+03 0.  0.
        998    1    1    2    0    0  0.44810754569E+01  0.20654041673E-01  0.14783996456E+04  0.14784402567E+04  0.10000000000E+02 0.  1.
</event>
<event>
 5    1  0.1535793E-008  0.3796523E+03  0.7957747E-01  0.3452674E+00
         13   -1    0    0    0    0  0.00000000000E+00  0.00000000000E+00  0.14999999963E+04  0.15000000000E+04  0.10566000000E+00 0. -1.
        994   -1    0    0    0    0 -0.00000000000E+00 -0.00000000000E+00  0.11368683772E-12  0.17120000000E+03  0.17120000000E+03 0.  0.
         13    1    1    2    0    0 -0.18799207136E+02 -0.31757754245E+01  0.43449756049E+02  0.47448795593E+02  0.10566000000E+00 0. -1.
        994    1    1    2    0    0 -0.61686610742E+01 -0.72862734929E+01  0.46138576675E+01  0.17152804390E+03  0.17120000000E+03 0.  0.
        998    1    1    2    0    0  0.24967868210E+02  0.10462048917E+02  0.14519363826E+04  0.14522231605E+04  0.10000000000E+02 0. -1.
</event>
<event>
 5    1  0.1535793E-008  0.3826407E+03  0.7957747E-01  0.3439740E+00
         13   -1    0    0    0    0  0.00000000000E+00  0.00000000000E+00  0.14999999963E+04  0.15000000000E+04  0.10566000000E+00 0.  1.
        994   -1    0    0    0    0 -0.00000000000E+00 -0.00000000000E+00  0.11368683772E-12  0.17120000000E+03  0.17120000000E+03 0.  0.
         13    1    1    2    0    0  0.20744139892E+02  0.19034696438E+02  0.15765482160E+03  0.16014897110E+03  0.10566000000E+00 0.  1.
        994    1    1    2    0    0  0.79198880292E+00 -0.40179446157E+01  0.28616265059E+01  0.17127288177E+03  0.17120000000E+03 0.  0.
        998    1    1    2    0    0 -0.21536128695E+02 -0.15016751822E+02  0.13394835482E+04  0.13397781471E+04  0.10000000000E+02 0.  1.
</event>
<event>
 5    1  0.1535793E-008  0.3799554E+03  0.7957747E-01  0.3451353E+00
         13   -1    0    0    0    0  0.00000000000E+00  0.00000000000E+00  0.14999999963E+04  0.15000000000E+04  0.10566000000E+00 0. -1.
        994   -1    0    0    0    0 -0.00000000000E+00 -0.00000000000E+00  0.11368683772E-12  0.17120000000E+03  0.17120000000E+03 0.  0.
         13    1    1    2    0    0 -0.27447346580E+02  0.30960919147E+02  0.18375990045E+03  0.18836041922E+03  0.10566000000E+00 0. -1.
        994    1    1    2    0    0  0.22053970790E+02 -0.33228745661E+02  0.94918186607E+01  0.17603994373E+03  0.17120000000E+03 0.  0.
        998    1    1    2    0    0  0.53933757898E+01  0.22678265140E+01  0.13067482772E+04  0.13067996371E+04  0.10000000000E+02 0.  0.
</event>
<event>
 5    1  0.1535793E-008  0.3839313E+03  0.7957747E-01  0.3434217E+00
         13   -1    0    0    0    0  0.00000000000E+00  0.00000000000E+00  0.14999999963E+04  0.15000000000E+04  0.10566000000E+00 0. -1.
        994   -1    0    0    0    0 -0.00000000000E+00 -0.00000000000E+00  0.11368683772E-12  0.17120000000E+03  0.17120000000E+03 0.  0.
         13    1    1    2    0    0 -0.67088091415E+01 -0.15106163870E+02  0.66737209483E+02  0.68753695178E+02  0.10566000000E+00 0. -1.
        994    1    1    2    0    0 -0.51281660581E+01  0.22041497063E+01  0.22644726020E+01  0.17130593743E+03  0.17120000000E+03 0.  0.
        998    1    1    2    0    0  0.11836975200E+02  0.12902014164E+02  0.14309983142E+04  0.14311403674E+04  0.10000000000E+02 0. -1.
</event>
<event>
 5    1  0.1535793E-008  0.3776892E+03  0.7957747E-01  0.3461282E+00
         13   -1    0    0    0    0  0.00000000000E+00  0.00000000000E+00  0.14999999963E+04  0.15000000000E+04  0.10566000000E+00 0. -1.
        994   -1    0    0    0    0 -0.00000000000E+00 -0.00000000000E+00  0.11368683772E-12  0.17120000000E+03  0.17120000000E+03 0.  0.
         13    1    1    2    0    0  0.47098164577E+02 -0.17407346593E+02  0.23369816743E+03  0.23903158253E+03  0.10566000000E+00 0. -1.
        994    1    1    2    0    0 -0.24267338910E+02  0.21623909225E+02  0.88714077293E+01  0.17448392208E+03  0.17120000000E+03 0.  0.
        998    1    1    2    0    0 -0.22830825667E+02 -0.42165626327E+01  0.12574304211E+04  0.12576844954E+04  0.10000000000E+02 0. -1.
</event>
<event>
 5    1  0.1535793E-008  0.3859551E+03  0.7957747E-01  0.3425632E+00
         13   -1    0    0    0    0  0.00000000000E+00  0.00000000000E+00  0.14999999963E+04  0.15000000000E+04  0.10566000000E+00 0. -1.
        994   -1    0    0    0    0 -0.00000000000E+00 -0.00000000000E+00  0.11368683772E-12  0.17120000000E+03  0.17120000000E+03 0.  0.
         13    1    1    2    0    0 -0.17148799853E+02 -0.33932194208E+01  0.10014404409E+03  0.10165842811E+03  0.10566000000E+00 0. -1.
        994    1    1    2    0    0  0.42495304031E+02  0.10596972985E+02  0.74707305219E+01  0.17687113534E+03  0.17120000000E+03 0.  0.
        998    1    1    2    0    0 -0.25346504178E+02 -0.72037535644E+01  0.13923852217E+04  0.13926704366E+04  0.10000000000E+02 0. -1.
</event>
<event>
 5    1  0.1535793E-008  0.3785462E+03  0.7957747E-01  0.3457513E+00
         13   -1    0    0    0    0  0.00000000000E+00  0.00000000000E+00  0.14999999963E+04  0.15000000000E+04  0.10566000000E+00 0.  1.
        994   -1    0    0    0    0 -0.00000000000E+00 -0.00000000000E+00  0.11368683772E-12  0.17120000000E+03  0.17120000000E+03 0.  0.
         13    1    1    2    0    0  0.29458849930E+02 -0.24355676435E+02  0.15874697273E+03  0.16328391019E+03  0.10566000000E+00 0.  1.
        994    1    1    2    0    0 -0.48272428909E-02  0.18182151180E+02  0.59800829631E+01  0.17226663065E+03  0.17120000000E+03 0.  0.
        998    1    1    2    0    0 -0.29454022688E+02  0.61735252557E+01  0.13352729406E+04  0.13356494592E+04  0.10000000000E+02 0.  1.
</event>
<event>
 5    1  0.1535793E-008  0.3706421E+03  0.7957747E-01  0.3492945E+00
         13   -1    0    0    0    0  0.00000000000E+00  0.00000000000E+00  0.14999999963E+04  0.15000000000E+04  0.10566000000E+00 0. -1.
        994   -1    0    0    0    0 -0.00000000000E+00 -0.00000000000E+00  0.11368683772E-12  0.17120000000E+03  0.17120000000E+03 0.  0.
         13    1    1    2    0    0  0.15175218184E+01  0.14692154149E+02  0.81166963051E+01  0.16853907231E+02  0.10566000000E+00 0. -1.
        994    1    1    2    0    0 -0.18294383610E+01 -0.13972994950E+02  0.96192851182E+01  0.17204813884E+03  0.17120000000E+03 0.  0.
        998    1    1    2    0    0  0.31191654260E+00 -0.71915919928E+00  0.14822640149E+04  0.14822979539E+04  0.10000000000E+02 0. -1.
</event>
<event>
 5    1  0.1535793E-008  0.3827675E+03  0.7957747E-01  0.3439196E+00
         13   -1    0    0    0    0  0.00000000000E+00  0.00000000000E+00  0.14999999963E+04  0.15000000000E+04  0.10566000000E+00 0. -1.
        994   -1    0    0    0    0 -0.00000000000E+00 -0.00000000000E+00  0.11368683772E-12  0.17120000000E+03  0.17120000000E+03 0.  0.
         13    1    1    2    0    0 -0.13844926558E+02 -0.27673236713E+02  0.15172242048E+03  0.15484571051E+03  0.10566000000E+00 0. -1.
        994    1    1    2    0    0  0.16102232634E+02  0.32652303733E+02  0.71457862069E+01  0.17517407655E+03  0.17120000000E+03 0.  0.
        998    1    1    2    0    0 -0.22573060755E+01 -0.49790670198E+01  0.13411317896E+04  0.13411802129E+04  0.10000000000E+02 0. -1.
</event>
<event>
 5    1  0.1535793E-008  0.3719624E+03  0.7957747E-01  0.3486920E+00
         13   -1    0    0    0    0  0.00000000000E+00  0.00000000000E+00  0.14999999963E+04  0.15000000000E+04  0.10566000000E+00 0. -1.
        994   -1    0    0    0    0 -0.00000000000E+00 -0.00000000000E+00  0.11368683772E-12  0.17120000000E+03  0.17120000000E+03 0.  0.
         13    1    1    2    0    0  0.59953800806E+01  0.27754028564E+02  0.38678427907E+02  0.47981899017E+02  0.10566000000E+00 0. -1.
        994    1    1    2    0    0 -0.70087144583E+02 -0.62010543381E+02  0.38951606693E+02  0.19895774172E+03  0.17120000000E+03 0.  0.
        998    1    1    2    0    0  0.64091764502E+02  0.34256514816E+02  0.14223699617E+04  0.14242603593E+04  0.10000000000E+02 0. -1.
</event>
<event>
 5    1  0.1535793E-008  0.3796013E+03  0.7957747E-01  0.3452896E+00
         13   -1    0    0    0    0  0.00000000000E+00  0.00000000000E+00  0.14999999963E+04  0.15000000000E+04  0.10566000000E+00 0.  1.
        994   -1    0    0    0    0 -0.00000000000E+00 -0.00000000000E+00  0.11368683772E-12  0.17120000000E+03  0.17120000000E+03 0.  0.
         13    1    1    2    0    0 -0.26623088089E+02  0.27298777784E+01  0.55422870589E+02  0.61546298024E+02  0.10566000000E+00 0.  1.
        994    1    1    2    0    0  0.11306615683E+03 -0.21975311525E+02  0.50105069196E+02  0.21233659151E+03  0.17120000000E+03 0.  0.
        998    1    1    2    0    0 -0.86443068738E+02  0.19245433747E+02  0.13944720565E+04  0.13973171105E+04  0.10000000000E+02 0.  1.
</event>
<event>
 5    1  0.1535793E-008  0.3828205E+03  0.7957747E-01  0.3438969E+00
         13   -1    0    0    0    0  0.00000000000E+00  0.00000000000E+00  0.14999999963E+04  0.15000000000E+04  0.10566000000E+00 0.  1.
        994   -1    0    0    0    0 -0.00000000000E+00 -0.00000000000E+00  0.11368683772E-12  0.17120000000E+03  0.17120000000E+03 0.  0.
         13    1    1    2    0    0 -0.98342143836E+01  0.10814283517E+02  0.42972355263E+02  0.45390472364E+02  0.10566000000E+00 0.  1.
        994    1    1    2    0    0 -0.23058212130E+01  0.20297429261E+02  0.40994629797E+01  0.17246317880E+03  0.17120000000E+03 0.  0.
        998    1    1    2    0    0  0.12140035597E+02 -0.31111712778E+02  0.14529281780E+04  0.14533463488E+04  0.10000000000E+02 0.  1.
</event>
<event>
 5    1  0.1535793E-008  0.3712237E+03  0.7957747E-01  0.3490286E+00
         13   -1    0    0    0    0  0.00000000000E+00  0.00000000000E+00  0.14999999963E+04  0.15000000000E+04  0.10566000000E+00 0. -1.
        994   -1    0    0    0    0 -0.00000000000E+00 -0.00000000000E+00  0.11368683772E-12  0.17120000000E+03  0.17120000000E+03 0.  0.
         13    1    1    2    0    0  0.95746538840E+01 -0.20561679165E+02  0.17692058431E+02  0.28765895478E+02  0.10566000000E+00 0. -1.
        994    1    1    2    0    0 -0.10643307679E+02  0.11092336474E+01  0.11989503329E+02  0.17195260564E+03  0.17120000000E+03 0.  0.
        998    1    1    2    0    0  0.10686537953E+01  0.19452445517E+02  0.14703184345E+04  0.14704814989E+04  0.10000000000E+02 0. -1.
</event>
<event>
 5    1  0.1535793E-008  0.3800837E+03  0.7957747E-01  0.3450794E+00
         13   -1    0    0    0    0  0.00000000000E+00  0.00000000000E+00  0.14999999963E+04  0.15000000000E+04  0.10566000000E+00 0. -1.
        994   -1    0    0    0    0 -0.00000000000E+00 -0.00000000000E+00  0.11368683772E-12  0.17120000000E+03  0.17120000000E+03 0.  0.
         13    1    1    2    0    0 -0.33228807914E+02  0.28931425910E+02  0.26196917360E+03  0.26564833928E+03  0.10566000000E+00 0. -1.
        994    1    1    2    0    0  0.33031268120E+02  0.14586951306E+02  0.84606659767E+01  0.17517096418E+03  0.17120000000E+03 0.  0.
        998    1    1    2    0    0  0.19753979455E+00 -0.43518377216E+02  0.12295701567E+04  0.12303806965E+04  0.10000000000E+02 0. -1.
</event>
<event>
 5    1  0.1535793E-008  0.3704605E+03  0.7957747E-01  0.3493777E+00
         13   -1    0    0    0    0  0.00000000000E+00  0.00000000000E+00  0.14999999963E+04  0.15000000000E+04  0.10566000000E+00 0. -1.
        994   -1    0    0    0    0 -0.00000000000E+00 -0.00000000000E+00  0.11368683772E-12  0.17120000000E+03  0.17120000000E+03 0.  0.
         13    1    1    2    0    0 -0.29240332119E+02 -0.30380950629E+01  0.44753081313E+02  0.53545088431E+02  0.10566000000E+00 0. -1.
        994    1    1    2    0    0  0.13714880759E+02  0.24382595386E+02  0.11734982805E+02  0.17386707202E+03  0.17120000000E+03 0.  0.
        998    1    1    2    0    0  0.15525451360E+02 -0.21344500323E+02  0.14435119322E+04  0.14437878395E+04  0.10000000000E+02 0. -1.
</event>
<event>
 5    1  0.1535793E-008  0.3857163E+03  0.7957747E-01  0.3426640E+00
         13   -1    0    0    0    0  0.00000000000E+00  0.00000000000E+00  0.14999999963E+04  0.15000000000E+04  0.10566000000E+00 0. -1.
        994   -1    0    0    0    0 -0.00000000000E+00 -0.00000000000E+00  0.11368683772E-12  0.17120000000E+03  0.17120000000E+03 0.  0.
         13    1    1    2    0    0  0.85302057051E+01  0.63309978555E+01  0.45018470714E+02  0.46254943656E+02  0.10566000000E+00 0. -1.
        994    1    1    2    0    0 -0.50397538596E+01 -0.23357586454E+01  0.13761648666E+01  0.17129561792E+03  0.17120000000E+03 0.  0.
        998    1    1    2    0    0 -0.34904518455E+01 -0.39952392102E+01  0.14536053607E+04  0.14536494384E+04  0.10000000000E+02 0. -1.
</event>
<event>
 5    1  0.1535793E-008  0.3859090E+03  0.7957747E-01  0.3425826E+00
         13   -1    0    0    0    0  0.00000000000E+00  0.00000000000E+00  0.14999999963E+04  0.15000000000E+04  0.10566000000E+00 0. -1.
        994   -1    0    0    0    0 -0.00000000000E+00 -0.00000000000E+00  0.11368683772E-12  0.17120000000E+03  0.17120000000E+03 0.  0.
         13    1    1    2    0    0  0.83162785832E+00  0.10633489391E+02  0.49521083495E+02  0.50656801873E+02  0.10566000000E+00 0. -1.
        994    1    1    2    0    0  0.95126913652E+01 -0.55293039040E+01  0.15765942644E+01  0.17156045625E+03  0.17120000000E+03 0.  0.
        998    1    1    2    0    0 -0.10344319224E+02 -0.51041854866E+01  0.14489023185E+04  0.14489827419E+04  0.10000000000E+02 0. -1.
</event>
<event>
 5    1  0.1535793E-008  0.3860876E+03  0.7957747E-01  0.3425073E+00
         13   -1    0    0    0    0  0.00000000000E+00  0.00000000000E+00  0.14999999963E+04  0.15000000000E+04  0.10566000000E+00 0. -1.
        994   -1    0    0    0    0 -0.00000000000E+00 -0.00000000000E+00  0.11368683772E-12  0.17120000000E+03  0.17120000000E+03 0.  0.
         13    1    1    2    0    0 -0.13186772961E+01 -0.12096558940E+02  0.70641900705E+02  0.71682319628E+02  0.10566000000E+00 0. -1.
        994    1    1    2    0    0  0.75610921856E+01  0.39771205310E+01  0.13303478260E+01  0.17141819457E+03  0.17120000000E+03 0.  0.
        998    1    1    2    0    0 -0.62424148895E+01  0.81194384089E+01  0.14280277477E+04  0.14280994858E+04  0.10000000000E+02 0. -1.
</event>
<event>
 5    1  0.1535793E-008  0.3851428E+03  0.7957747E-01  0.3429067E+00
         13   -1    0    0    0    0  0.00000000000E+00  0.00000000000E+00  0.14999999963E+04  0.15000000000E+04  0.10566000000E+00 0. -1.
        994   -1    0    0    0    0 -0.00000000000E+00 -0.00000000000E+00  0.11368683772E-12  0.17120000000E+03  0.17120000000E+03 0.  0.
         13    1    1    2    0    0  0.87115166420E+01 -0.87666704313E+01  0.49775601309E+02  0.51287100546E+02  0.10566000000E+00 0. -1.
        994    1    1    2    0    0 -0.23368547667E+01  0.54209309814E+01  0.16738233258E+01  0.17130992110E+03  0.17120000000E+03 0.  0.
        998    1    1    2    0    0 -0.63746618754E+01  0.33457394499E+01  0.14485505716E+04  0.14486029784E+04  0.10000000000E+02 0. -1.
</event>
<event>
 5    1  0.1535793E-008  0.3744628E+03  0.7957747E-01  0.3475629E+00
         13   -1    0    0    0    0  0.00000000000E+00  0.00000000000E+00  0.14999999963E+04  0.15000000000E+04  0.10566000000E+00 0. -1.
        994   -1    0    0    0    0 -0.00000000000E+00 -0.00000000000E+00  0.11368683772E-12  0.17120000000E+03  0.17120000000E+03 0.  0.
         13    1    1    2    0    0 -0.13476521800E+02  0.34159453946E+01  0.10688988631E+02  0.17537131029E+02  0.10566000000E+00 0. -1.
        994    1    1    2    0    0  0.13431668848E+02 -0.39274290778E+01  0.76219886294E+01  0.17194001610E+03  0.17120000000E+03 0.  0.
        998    1    1    2    0    0  0.44852952157E-01  0.51148368312E+00  0.14816890190E+04  0.14817228529E+04  0.10000000000E+02 0. -1.
</event>
<event>
 5    1  0.1535793E-008  0.3755074E+03  0.7957747E-01  0.3470957E+00
         13   -1    0    0    0    0  0.00000000000E+00  0.00000000000E+00  0.14999999963E+04  0.15000000000E+04  0.10566000000E+00 0. -1.
        994   -1    0    0    0    0 -0.00000000000E+00 -0.00000000000E+00  0.11368683772E-12  0.17120000000E+03  0.17120000000E+03 0.  0.
         13    1    1    2    0    0  0.42304003704E+02  0.90342884150E+01  0.14689086009E+03  0.15312799560E+03  0.10566000000E+00 0. -1.
        994    1    1    2    0    0 -0.20581111888E+02 -0.52325111500E+01  0.79501843892E+01  0.17269512666E+03  0.17120000000E+03 0.  0.
        998    1    1    2    0    0 -0.21722891816E+02 -0.38017772650E+01  0.13451589518E+04  0.13453768777E+04  0.10000000000E+02 0. -1.
</event>
<event>
 5    1  0.1535793E-008  0.3809146E+03  0.7957747E-01  0.3447186E+00
         13   -1    0    0    0    0  0.00000000000E+00  0.00000000000E+00  0.14999999963E+04  0.15000000000E+04  0.10566000000E+00 0.  1.
        994   -1    0    0    0    0 -0.00000000000E+00 -0.00000000000E+00  0.11368683772E-12  0.17120000000E+03  0.17120000000E+03 0.  0.
         13    1    1    2    0    0 -0.99846371563E+01 -0.20496488292E+02  0.68597980865E+02  0.72287572613E+02  0.10566000000E+00 0.  1.
        994    1    1    2    0    0  0.10835421521E+02  0.13984605806E+02  0.47159837771E+01  0.17217623547E+03  0.17120000000E+03 0.  0.
        998    1    1    2    0    0 -0.85078436481E+00  0.65118824859E+01  0.14266860316E+04  0.14267361919E+04  0.10000000000E+02 0.  1.
</event>
<event>
 5    1  0.1535793E-008  0.3685441E+03  0.7957747E-01  0.3502609E+00
         13   -1    0    0    0    0  0.00000000000E+00  0.00000000000E+00  0.14999999963E+04  0.15000000000E+04  0.10566000000E+00 0. -1.
        994   -1    0    0    0    0 -0.00000000000E+00 -0.00000000000E+00  0.11368683772E-12  0.17120000000E+03  0.17120000000E+03 0.  0.
         13    1    1    2    0    0 -0.25991315199E+02 -0.37248913285E+02  0.10587905650E+03  0.11521031107E+03  0.10566000000E+00 0. -1.
        994    1    1    2    0    0 -0.51099694980E+01  0.12653106220E+02  0.10818977129E+02  0.17208341916E+03  0.17120000000E+03 0.  0.
        998    1    1    2    0    0  0.31101284697E+02  0.24595807065E+02  0.13833019626E+04  0.13839062698E+04  0.10000000000E+02 0. -1.
</event>
<event>
 5    1  0.1535793E-008  0.3803703E+03  0.7957747E-01  0.3449548E+00
         13   -1    0    0    0    0  0.00000000000E+00  0.00000000000E+00  0.14999999963E+04  0.15000000000E+04  0.10566000000E+00 0.  1.
        994   -1    0    0    0    0 -0.00000000000E+00 -0.00000000000E+00  0.11368683772E-12  0.17120000000E+03  0.17120000000E+03 0.  0.
         13    1    1    2    0    0 -0.26178823412E+02 -0.38226353220E+01  0.90329826701E+02  0.94124556264E+02  0.10566000000E+00 0.  1.
        994    1    1    2    0    0  0.90391753462E+01  0.42107304247E+01  0.42783909243E+01  0.17154352675E+03  0.17120000000E+03 0.  0.
        998    1    1    2    0    0  0.17139648066E+02 -0.38809510265E+00  0.14053917787E+04  0.14055319170E+04  0.10000000000E+02 0.  1.
</event>
<event>
 5    1  0.1535793E-008  0.3740287E+03  0.7957747E-01  0.3477578E+00
         13   -1    0    0    0    0  0.00000000000E+00  0.00000000000E+00  0.14999999963E+04  0.15000000000E+04  0.10566000000E+00 0. -1.
        994   -1    0    0    0    0 -0.00000000000E+00 -0.00000000000E+00  0.11368683772E-12  0.17120000000E+03  0.17120000000E+03 0.  0.
         13    1    1    2    0    0 -0.29640182798E+02 -0.35823591058E+02  0.15824078713E+03  0.16493037316E+03  0.10566000000E+00 0. -1.
        994    1    1    2    0    0 -0.84429033627E-01  0.19398372299E+02  0.84627380138E+01  0.17250322290E+03  0.17120000000E+03 0.  0.
        998    1    1    2    0    0  0.29724611832E+02  0.16425218759E+02  0.13332964711E+04  0.13337664039E+04  0.10000000000E+02 0. -1.
</event>
<event>
 5    1  0.1535793E-008  0.3733192E+03  0.7957747E-01  0.3480774E+00
         13   -1    0    0    0    0  0.00000000000E+00  0.00000000000E+00  0.14999999963E+04  0.15000000000E+04  0.10566000000E+00 0. -1.
        994   -1    0    0    0    0 -0.00000000000E+00 -0.00000000000E+00  0.11368683772E-12  0.17120000000E+03  0.17120000000E+03 0.  0.
         13    1    1    2    0    0  0.18050509209E+02  0.21322590692E+02  0.24626523148E+02  0.37241785173E+02  0.10566000000E+00 0. -1.
        994    1    1    2    0    0 -0.19233628122E+02 -0.28758628687E+02  0.16950455835E+02  0.17548147802E+03  0.17120000000E+03 0.  0.
        998    1    1    2    0    0  0.11831189132E+01  0.74360379950E+01  0.14584230173E+04  0.14584767368E+04  0.10000000000E+02 0. -1.
</event>
<event>
 5    1  0.1535793E-008  0.3044277E+03  0.7957747E-01  0.3864908E+00
         13   -1    0    0    0    0  0.00000000000E+00  0.00000000000E+00  0.14999999963E+04  0.15000000000E+04  0.10566000000E+00 0. -1.
        994   -1    0    0    0    0 -0.00000000000E+00 -0.00000000000E+00  0.11368683772E-12  0.17120000000E+03  0.17120000000E+03 0.  0.
         13    1    1    2    0    0  0.11335350831E+03  0.87373696110E+02  0.79864838662E+03  0.81137071504E+03  0.10566000000E+00 0. -1.
        994    1    1    2    0    0 -0.44527816297E+02 -0.10062770389E+03  0.56650061908E+02  0.21125181828E+03  0.17120000000E+03 0.  0.
        998    1    1    2    0    0 -0.68825692011E+02  0.13254007777E+02  0.64470154775E+03  0.64857746668E+03  0.10000000000E+02 0. -1.
</event>
<event>
 5    1  0.1535793E-008  0.3818563E+03  0.7957747E-01  0.3443115E+00
         13   -1    0    0    0    0  0.00000000000E+00  0.00000000000E+00  0.14999999963E+04  0.15000000000E+04  0.10566000000E+00 0.  1.
        994   -1    0    0    0    0 -0.00000000000E+00 -0.00000000000E+00  0.11368683772E-12  0.17120000000E+03  0.17120000000E+03 0.  0.
         13    1    1    2    0    0  0.15961707344E+02  0.89601474677E+01  0.50780531614E+02  0.53979013505E+02  0.10566000000E+00 0.  1.
        994    1    1    2    0    0 -0.11056636391E+02 -0.94975787734E+01  0.39052322223E+01  0.17186373687E+03  0.17120000000E+03 0.  0.
        998    1    1    2    0    0 -0.49050709536E+01  0.53743130571E+00  0.14453142324E+04  0.14453572496E+04  0.10000000000E+02 0.  1.
</event>
<event>
 5    1  0.1535793E-008  0.4464552E+03  0.7957747E-01  0.3204642E+00
         13   -1    0    0    0    0  0.00000000000E+00  0.00000000000E+00  0.14999999963E+04  0.15000000000E+04  0.10566000000E+00 0.  1.
        994   -1    0    0    0    0 -0.00000000000E+00 -0.00000000000E+00  0.11368683772E-12  0.17120000000E+03  0.17120000000E+03 0.  0.
         13    1    1    2    0    0  0.35607410840E+02  0.73045956956E+02  0.36342288417E+02  0.89018945319E+02  0.10566000000E+00 0.  1.
        994    1    1    2    0    0 -0.38785243722E+02 -0.72732165324E+02  0.93116397249E+02  0.21159954263E+03  0.17120000000E+03 0.  0.
        998    1    1    2    0    0  0.31778328819E+01 -0.31379163175E+00  0.13705413106E+04  0.13705815121E+04  0.10000000000E+02 0.  1.
</event>
<event>
 5    1  0.1535793E-008  0.3781555E+03  0.7957747E-01  0.3459230E+00
         13   -1    0    0    0    0  0.00000000000E+00  0.00000000000E+00  0.14999999963E+04  0.15000000000E+04  0.10566000000E+00 0. -1.
        994   -1    0    0    0    0 -0.00000000000E+00 -0.00000000000E+00  0.11368683772E-12  0.17120000000E+03  0.17120000000E+03 0.  0.
         13    1    1    2    0    0  0.44849821516E+02  0.10159648520E+03  0.29247298908E+03  0.31284790682E+03  0.10566000000E+00 0. -1.
        994    1    1    2    0    0 -0.40468441675E+02 -0.11714820742E+03  0.72911600928E+02  0.22357759016E+03  0.17120000000E+03 0.  0.
        998    1    1    2    0    0 -0.43813798406E+01  0.15551722220E+02  0.11346154063E+04  0.11347745030E+04  0.10000000000E+02 0. -1.
</event>
<event>
 5    1  0.1535793E-008  0.3855971E+03  0.7957747E-01  0.3427144E+00
         13   -1    0    0    0    0  0.00000000000E+00  0.00000000000E+00  0.14999999963E+04  0.15000000000E+04  0.10566000000E+00 0.  1.
        994   -1    0    0    0    0 -0.00000000000E+00 -0.00000000000E+00  0.11368683772E-12  0.17120000000E+03  0.17120000000E+03 0.  0.
         13    1    1    2    0    0 -0.11704007855E+02 -0.47057268572E+01  0.61844839429E+02  0.63118325335E+02  0.10566000000E+00 0.  1.
        994    1    1    2    0    0  0.18917047029E+01  0.60952120148E+01  0.14676629144E+01  0.17132520010E+03  0.17120000000E+03 0.  0.
        998    1    1    2    0    0  0.98123031517E+01 -0.13894851576E+01  0.14366874939E+04  0.14367564746E+04  0.10000000000E+02 0.  1.
</event>
<event>
 5    1  0.1535793E-008  0.3839649E+03  0.7957747E-01  0.3434074E+00
         13   -1    0    0    0    0  0.00000000000E+00  0.00000000000E+00  0.14999999963E+04  0.15000000000E+04  0.10566000000E+00 0. -1.
        994   -1    0    0    0    0 -0.00000000000E+00 -0.00000000000E+00  0.11368683772E-12  0.17120000000E+03  0.17120000000E+03 0.  0.
         13    1    1    2    0    0  0.13237641610E+02 -0.12686096003E+02  0.79654740501E+02  0.81737757710E+02  0.10566000000E+00 0. -1.
        994    1    1    2    0    0 -0.63256359815E+01  0.52807644228E+01  0.23690197040E+01  0.17141456297E+03  0.17120000000E+03 0.  0.
        998    1    1    2    0    0 -0.69120056280E+01  0.74053315806E+01  0.14179762361E+04  0.14180476793E+04  0.10000000000E+02 0. -1.
</event>
<event>
 5    1  0.1535793E-008  0.3718650E+03  0.7957747E-01  0.3487363E+00
         13   -1    0    0    0    0  0.00000000000E+00  0.00000000000E+00  0.14999999963E+04  0.15000000000E+04  0.10566000000E+00 0. -1.
        994   -1    0    0    0    0 -0.00000000000E+00 -0.00000000000E+00  0.11368683772E-12  0.17120000000E+03  0.17120000000E+03 0.  0.
         13    1    1    2    0    0  0.30318604259E+01  0.34910587358E+02  0.67024659438E+02  0.75632383436E+02  0.10566000000E+00 0. -1.
        994    1    1    2    0    0  0.23342277841E+01 -0.39942361206E+02  0.13817339086E+02  0.17635532228E+03  0.17120000000E+03 0.  0.
        998    1    1    2    0    0 -0.53660882100E+01  0.50317738478E+01  0.14191579978E+04  0.14192122943E+04  0.10000000000E+02 0. -1.
</event>
<event>
 5    1  0.1535793E-008  0.3835396E+03  0.7957747E-01  0.3435890E+00
         13   -1    0    0    0    0  0.00000000000E+00  0.00000000000E+00  0.14999999963E+04  0.15000000000E+04  0.10566000000E+00 0. -1.
        994   -1    0    0    0    0 -0.00000000000E+00 -0.00000000000E+00  0.11368683772E-12  0.17120000000E+03  0.17120000000E+03 0.  0.
         13    1    1    2    0    0  0.11652215408E+02  0.76451827443E+01  0.40058432509E+02  0.42413584171E+02  0.10566000000E+00 0. -1.
        994    1    1    2    0    0 -0.83544548520E+01 -0.93980755771E+01  0.28795798757E+01  0.17168533053E+03  0.17120000000E+03 0.  0.
        998    1    1    2    0    0 -0.32977605562E+01  0.17528928328E+01  0.14570619839E+04  0.14571010853E+04  0.10000000000E+02 0. -1.
</event>
<event>
 5    1  0.1535793E-008  0.3829087E+03  0.7957747E-01  0.3438590E+00
         13   -1    0    0    0    0  0.00000000000E+00  0.00000000000E+00  0.14999999963E+04  0.15000000000E+04  0.10566000000E+00 0. -1.
        994   -1    0    0    0    0 -0.00000000000E+00 -0.00000000000E+00  0.11368683772E-12  0.17120000000E+03  0.17120000000E+03 0.  0.
         13    1    1    2    0    0 -0.35963354277E+02 -0.19564488737E+02  0.20747929486E+03  0.21148002514E+03  0.10566000000E+00 0. -1.
        994    1    1    2    0    0  0.73915416049E+02  0.15733212959E+02  0.21817520872E+02  0.18840506080E+03  0.17120000000E+03 0.  0.
        998    1    1    2    0    0 -0.37952061772E+02  0.38312757777E+01  0.12707031805E+04  0.12713149141E+04  0.10000000000E+02 0. -1.
</event>
<event>
 5    1  0.1535793E-008  0.3767241E+03  0.7957747E-01  0.3465548E+00
         13   -1    0    0    0    0  0.00000000000E+00  0.00000000000E+00  0.14999999963E+04  0.15000000000E+04  0.10566000000E+00 0.  1.
        994   -1    0    0    0    0 -0.00000000000E+00 -0.00000000000E+00  0.11368683772E-12  0.17120000000E+03  0.17120000000E+03 0.  0.
         13    1    1    2    0    0 -0.11462469229E+03 -0.22278512669E+03  0.97083648635E+03  0.10026442675E+04  0.10566000000E+00 0.  1.
        994    1    1    2    0    0  0.12000366926E+03  0.22105681561E+03  0.26309087631E+03  0.40223531118E+03  0.17120000000E+03 0.  0.
        998    1    1    2    0    0 -0.53789769625E+01  0.17283110770E+01  0.26607263361E+03  0.26632042132E+03  0.10000000000E+02 0.  1.
</event>
<event>
 5    1  0.1535793E-008  0.3938971E+03  0.7957747E-01  0.3392793E+00
         13   -1    0    0    0    0  0.00000000000E+00  0.00000000000E+00  0.14999999963E+04  0.15000000000E+04  0.10566000000E+00 0. -1.
        994   -1    0    0    0    0 -0.00000000000E+00 -0.00000000000E+00  0.11368683772E-12  0.17120000000E+03  0.17120000000E+03 0.  0.
         13    1    1    2    0    0  0.25452252260E+02 -0.53495889047E+02  0.67610192250E+02  0.89893139616E+02  0.10566000000E+00 0. -1.
        994    1    1    2    0    0  0.51015052614E+01  0.30043778045E+02  0.27735559127E+02  0.17608905473E+03  0.17120000000E+03 0.  0.
        998    1    1    2    0    0 -0.30553757521E+02  0.23452111003E+02  0.14046542449E+04  0.14052178057E+04  0.10000000000E+02 0. -1.
</event>
<event>
 5    1  0.1535793E-008  0.3749682E+03  0.7957747E-01  0.3473365E+00
         13   -1    0    0    0    0  0.00000000000E+00  0.00000000000E+00  0.14999999963E+04  0.15000000000E+04  0.10566000000E+00 0.  1.
        994   -1    0    0    0    0 -0.00000000000E+00 -0.00000000000E+00  0.11368683772E-12  0.17120000000E+03  0.17120000000E+03 0.  0.
         13    1    1    2    0    0  0.25789740002E+02  0.39610014998E+02  0.19610373095E+03  0.20171947956E+03  0.10566000000E+00 0.  1.
        994    1    1    2    0    0 -0.11549225437E+02  0.88560750614E+01  0.74154672693E+01  0.17197745151E+03  0.17120000000E+03 0.  0.
        998    1    1    2    0    0 -0.14240514565E+02 -0.48466090060E+02  0.12964807981E+04  0.12975030689E+04  0.10000000000E+02 0.  1.
</event>
<event>
 5    1  0.1535793E-008  0.3813974E+03  0.7957747E-01  0.3445096E+00
         13   -1    0    0    0    0  0.00000000000E+00  0.00000000000E+00  0.14999999963E+04  0.15000000000E+04  0.10566000000E+00 0.  1.
        994   -1    0    0    0    0 -0.00000000000E+00 -0.00000000000E+00  0.11368683772E-12  0.17120000000E+03  0.17120000000E+03 0.  0.
         13    1    1    2    0    0  0.20786140632E+01  0.11651501184E+03  0.31297517749E+03  0.33396637781E+03  0.10566000000E+00 0.  1.
        994    1    1    2    0    0  0.54347319022E+01 -0.11170011810E+03  0.64202304899E+02  0.21433111918E+03  0.17120000000E+03 0.  0.
        998    1    1    2    0    0 -0.75133459655E+01 -0.48148937375E+01  0.11228225139E+04  0.11229025030E+04  0.10000000000E+02 0.  1.
</event>
<event>
 5    1  0.1535793E-008  0.2195237E+03  0.7957747E-01  0.4716548E+00
         13   -1    0    0    0    0  0.00000000000E+00  0.00000000000E+00  0.14999999963E+04  0.15000000000E+04  0.10566000000E+00 0. -1.
        994   -1    0    0    0    0 -0.00000000000E+00 -0.00000000000E+00  0.11368683772E-12  0.17120000000E+03  0.17120000000E+03 0.  0.
         13    1    1    2    0    0  0.12724645542E+03  0.50563101544E+02  0.14741831041E+03  0.20119755729E+03  0.10566000000E+00 0. -1.
        994    1    1    2    0    0  0.42052341700E+02  0.45584269986E+02  0.11109525620E+03  0.21330241692E+03  0.17120000000E+03 0.  0.
        998    1    1    2    0    0 -0.16929879712E+03 -0.96147371530E+02  0.12414864297E+04  0.12567000258E+04  0.10000000000E+02 0. -1.
</event>
<event>
 5    1  0.1535793E-008  0.4038238E+03  0.7957747E-01  0.3353561E+00
         13   -1    0    0    0    0  0.00000000000E+00  0.00000000000E+00  0.14999999963E+04  0.15000000000E+04  0.10566000000E+00 0. -1.
        994   -1    0    0    0    0 -0.00000000000E+00 -0.00000000000E+00  0.11368683772E-12  0.17120000000E+03  0.17120000000E+03 0.  0.
         13    1    1    2    0    0 -0.97424824128E+02 -0.17778111284E+02  0.18595238223E+03  0.21067975038E+03  0.10566000000E+00 0. -1.
        994    1    1    2    0    0  0.72314245865E+01  0.39988094527E+02  0.36678142280E+02  0.17973888652E+03  0.17120000000E+03 0.  0.
        998    1    1    2    0    0  0.90193399542E+02 -0.22209983243E+02  0.12773694718E+04  0.12807813631E+04  0.10000000000E+02 0. -1.
</event>
<event>
 5    1  0.1535793E-008  0.3833978E+03  0.7957747E-01  0.3436496E+00
         13   -1    0    0    0    0  0.00000000000E+00  0.00000000000E+00  0.14999999963E+04  0.15000000000E+04  0.10566000000E+00 0. -1.
        994   -1    0    0    0    0 -0.00000000000E+00 -0.00000000000E+00  0.11368683772E-12  0.17120000000E+03  0.17120000000E+03 0.  0.
         13    1    1    2    0    0  0.22962242582E+02  0.10648516869E+02  0.14474443426E+03  0.14694086535E+03  0.10566000000E+00 0. -1.
        994    1    1    2    0    0  0.45373020278E+01 -0.18865678773E+02  0.36733506395E+01  0.17233523856E+03  0.17120000000E+03 0.  0.
        998    1    1    2    0    0 -0.27499544609E+02  0.82171619040E+01  0.13515822114E+04  0.13519238961E+04  0.10000000000E+02 0. -1.
</event>
<event>
 5    1  0.1535793E-008  0.3834206E+03  0.7957747E-01  0.3436399E+00
         13   -1    0    0    0    0  0.00000000000E+00  0.00000000000E+00  0.14999999963E+04  0.15000000000E+04  0.10566000000E+00 0. -1.
        994   -1    0    0    0    0 -0.00000000000E+00 -0.00000000000E+00  0.11368683772E-12  0.17120000000E+03  0.17120000000E+03 0.  0.
         13    1    1    2    0    0  0.23325228725E+02  0.10846148373E+02  0.12734329846E+03  0.12991548044E+03  0.10566000000E+00 0. -1.
        994    1    1    2    0    0 -0.22259583955E+02 -0.11112233642E+02  0.44650723467E+01  0.17305590913E+03  0.17120000000E+03 0.  0.
        998    1    1    2    0    0 -0.10656447706E+01  0.26608526904E+00  0.13681916255E+04  0.13682286104E+04  0.10000000000E+02 0.  0.
</event>
<event>
 5    1  0.1535793E-008  0.3826764E+03  0.7957747E-01  0.3439587E+00
         13   -1    0    0    0    0  0.00000000000E+00  0.00000000000E+00  0.14999999963E+04  0.15000000000E+04  0.10566000000E+00 0.  1.
        994   -1    0    0    0    0 -0.00000000000E+00 -0.00000000000E+00  0.11368683772E-12  0.17120000000E+03  0.17120000000E+03 0.  0.
         13    1    1    2    0    0 -0.11134980110E+01  0.16196956210E+02  0.47828384768E+02  0.50508878644E+02  0.10566000000E+00 0.  1.
        994    1    1    2    0    0  0.11314023423E+00 -0.36195765641E+01  0.28316109951E+01  0.17126170662E+03  0.17120000000E+03 0.  0.
        998    1    1    2    0    0  0.10003577768E+01 -0.12577379646E+02  0.14493400005E+04  0.14494294147E+04  0.10000000000E+02 0.  1.
</event>
<event>
 5    1  0.1535793E-008  0.3833808E+03  0.7957747E-01  0.3436568E+00
         13   -1    0    0    0    0  0.00000000000E+00  0.00000000000E+00  0.14999999963E+04  0.15000000000E+04  0.10566000000E+00 0.  1.
        994   -1    0    0    0    0 -0.00000000000E+00 -0.00000000000E+00  0.11368683772E-12  0.17120000000E+03  0.17120000000E+03 0.  0.
         13    1    1    2    0    0 -0.17652281863E+02 -0.12349319540E+02  0.98058099900E+02  0.10039676722E+03  0.10566000000E+00 0.  1.
        994    1    1    2    0    0 -0.24672251701E+00  0.14558012644E+02  0.31373354218E+01  0.17184667433E+03  0.17120000000E+03 0.  0.
        998    1    1    2    0    0  0.17899004380E+02 -0.22086931034E+01  0.13988045610E+04  0.13989565585E+04  0.10000000000E+02 0.  1.
</event>
<event>
 5    1  0.1535793E-008  0.3818253E+03  0.7957747E-01  0.3443249E+00
         13   -1    0    0    0    0  0.00000000000E+00  0.00000000000E+00  0.14999999963E+04  0.15000000000E+04  0.10566000000E+00 0.  1.
        994   -1    0    0    0    0 -0.00000000000E+00 -0.00000000000E+00  0.11368683772E-12  0.17120000000E+03  0.17120000000E+03 0.  0.
         13    1    1    2    0    0 -0.13914128630E+02  0.13409553608E+02  0.58743946015E+02  0.61840775067E+02  0.10566000000E+00 0.  1.
        994    1    1    2    0    0  0.23560142766E+01 -0.58451624171E+01  0.33465840554E+01  0.17134863977E+03  0.17120000000E+03 0.  0.
        998    1    1    2    0    0  0.11558114353E+02 -0.75643911914E+01  0.14379094662E+04  0.14380105852E+04  0.10000000000E+02 0.  1.
</event>
<event>
 5    1  0.1535793E-008  0.3861616E+03  0.7957747E-01  0.3424760E+00
         13   -1    0    0    0    0  0.00000000000E+00  0.00000000000E+00  0.14999999963E+04  0.15000000000E+04  0.10566000000E+00 0.  1.
        994   -1    0    0    0    0 -0.00000000000E+00 -0.00000000000E+00  0.11368683772E-12  0.17120000000E+03  0.17120000000E+03 0.  0.
         13    1    1    2    0    0  0.60584021810E+01  0.92507525722E+01  0.62265806322E+02  0.63240196561E+02  0.10566000000E+00 0.  1.
        994    1    1    2    0    0  0.96121822921E+01 -0.66376535897E+01  0.15016874921E+01  0.17160462569E+03  0.17120000000E+03 0.  0.
        998    1    1    2    0    0 -0.15670584473E+02 -0.26130989825E+01  0.14362325025E+04  0.14363551777E+04  0.10000000000E+02 0.  1.
</event>
<event>
 5    1  0.1535793E-008  0.3833285E+03  0.7957747E-01  0.3436792E+00
         13   -1    0    0    0    0  0.00000000000E+00  0.00000000000E+00  0.14999999963E+04  0.15000000000E+04  0.10566000000E+00 0. -1.
        994   -1    0    0    0    0 -0.00000000000E+00 -0.00000000000E+00  0.11368683772E-12  0.17120000000E+03  0.17120000000E+03 0.  0.
         13    1    1    2    0    0  0.14197444952E+02 -0.59102612452E+02  0.89480738989E+02  0.10817347205E+03  0.10566000000E+00 0. -1.
        994    1    1    2    0    0 -0.11276494326E+02  0.62458445258E+02  0.33097861137E+02  0.18556164776E+03  0.17120000000E+03 0.  0.
        998    1    1    2    0    0 -0.29209506269E+01 -0.33558328064E+01  0.13774213962E+04  0.13774648802E+04  0.10000000000E+02 0. -1.
</event>
<event>
 5    1  0.1535793E-008  0.3881446E+03  0.7957747E-01  0.3416444E+00
         13   -1    0    0    0    0  0.00000000000E+00  0.00000000000E+00  0.14999999963E+04  0.15000000000E+04  0.10566000000E+00 0. -1.
        994   -1    0    0    0    0 -0.00000000000E+00 -0.00000000000E+00  0.11368683772E-12  0.17120000000E+03  0.17120000000E+03 0.  0.
         13    1    1    2    0    0  0.34763545573E+02 -0.61649834255E+02  0.13735702827E+03  0.15451915914E+03  0.10566000000E+00 0. -1.
        994    1    1    2    0    0  0.91148126599E+02  0.38749327315E+02  0.58527637447E+02  0.20626297703E+03  0.17120000000E+03 0.  0.
        998    1    1    2    0    0 -0.12591167217E+03  0.22900506940E+02  0.13041153306E+04  0.13104178638E+04  0.10000000000E+02 0. -1.
</event>
<event>
 5    1  0.1535793E-008  0.3705957E+03  0.7957747E-01  0.3493158E+00
         13   -1    0    0    0    0  0.00000000000E+00  0.00000000000E+00  0.14999999963E+04  0.15000000000E+04  0.10566000000E+00 0. -1.
        994   -1    0    0    0    0 -0.00000000000E+00 -0.00000000000E+00  0.11368683772E-12  0.17120000000E+03  0.17120000000E+03 0.  0.
         13    1    1    2    0    0  0.47339403492E+02  0.38219768214E+02  0.17553505712E+03  0.18578034678E+03  0.10566000000E+00 0. -1.
        994    1    1    2    0    0 -0.19539965986E+02 -0.38791503792E+01  0.12645637246E+02  0.17281843137E+03  0.17120000000E+03 0.  0.
        998    1    1    2    0    0 -0.27799437506E+02 -0.34340617835E+02  0.13118193019E+04  0.13126012219E+04  0.10000000000E+02 0. -1.
</event>
<event>
 5    1  0.1535793E-008  0.3821119E+03  0.7957747E-01  0.3442014E+00
         13   -1    0    0    0    0  0.00000000000E+00  0.00000000000E+00  0.14999999963E+04  0.15000000000E+04  0.10566000000E+00 0.  1.
        994   -1    0    0    0    0 -0.00000000000E+00 -0.00000000000E+00  0.11368683772E-12  0.17120000000E+03  0.17120000000E+03 0.  0.
         13    1    1    2    0    0  0.17333655606E+03 -0.11903191821E+03  0.10058992459E+04  0.10276416998E+04  0.10566000000E+00 0.  1.
        994    1    1    2    0    0 -0.18385203669E+03  0.12493585911E+03  0.18953627698E+03  0.33859117026E+03  0.17120000000E+03 0.  0.
        998    1    1    2    0    0  0.10515480630E+02 -0.59039409049E+01  0.30456447344E+03  0.30496712993E+03  0.10000000000E+02 0.  1.
</event>
<event>
 5    1  0.1535793E-008  0.3795741E+03  0.7957747E-01  0.3453015E+00
         13   -1    0    0    0    0  0.00000000000E+00  0.00000000000E+00  0.14999999963E+04  0.15000000000E+04  0.10566000000E+00 0. -1.
        994   -1    0    0    0    0 -0.00000000000E+00 -0.00000000000E+00  0.11368683772E-12  0.17120000000E+03  0.17120000000E+03 0.  0.
         13    1    1    2    0    0 -0.31907736944E+02 -0.13665058886E+02  0.15142283506E+03  0.15535032557E+03  0.10566000000E+00 0. -1.
        994    1    1    2    0    0  0.70113597502E+01 -0.43951001807E+01  0.45775541184E+01  0.17146098703E+03  0.17120000000E+03 0.  0.
        998    1    1    2    0    0  0.24896377194E+02  0.18060159066E+02  0.13439996071E+04  0.13443886874E+04  0.10000000000E+02 0. -1.
</event>
<event>
 5    1  0.1535793E-008  0.3770173E+03  0.7957747E-01  0.3464250E+00
         13   -1    0    0    0    0  0.00000000000E+00  0.00000000000E+00  0.14999999963E+04  0.15000000000E+04  0.10566000000E+00 0.  1.
        994   -1    0    0    0    0 -0.00000000000E+00 -0.00000000000E+00  0.11368683772E-12  0.17120000000E+03  0.17120000000E+03 0.  0.
         13    1    1    2    0    0  0.33653173631E+02  0.50245030116E+02  0.29911924777E+03  0.30517115640E+03  0.10566000000E+00 0.  1.
        994    1    1    2    0    0 -0.29811851934E+02 -0.32597246768E+02  0.12263086347E+02  0.17723191106E+03  0.17120000000E+03 0.  0.
        998    1    1    2    0    0 -0.38413216971E+01 -0.17647783348E+02  0.11886176622E+04  0.11887969325E+04  0.10000000000E+02 0.  1.
</event>
<event>
 5    1  0.1535793E-008  0.3793410E+03  0.7957747E-01  0.3454033E+00
         13   -1    0    0    0    0  0.00000000000E+00  0.00000000000E+00  0.14999999963E+04  0.15000000000E+04  0.10566000000E+00 0. -1.
        994   -1    0    0    0    0 -0.00000000000E+00 -0.00000000000E+00  0.11368683772E-12  0.17120000000E+03  0.17120000000E+03 0.  0.
         13    1    1    2    0    0 -0.47445848400E+02  0.72934881809E+02  0.51463441003E+03  0.52193792032E+03  0.10566000000E+00 0. -1.
        994    1    1    2    0    0  0.43561197806E+02 -0.81643393333E+02  0.33711015755E+02  0.19750720041E+03  0.17120000000E+03 0.  0.
        998    1    1    2    0    0  0.38846505948E+01  0.87085115241E+01  0.95165457049E+03  0.95175487928E+03  0.10000000000E+02 0. -1.
</event>
<event>
 5    1  0.1535793E-008  0.3839688E+03  0.7957747E-01  0.3434057E+00
         13   -1    0    0    0    0  0.00000000000E+00  0.00000000000E+00  0.14999999963E+04  0.15000000000E+04  0.10566000000E+00 0. -1.
        994   -1    0    0    0    0 -0.00000000000E+00 -0.00000000000E+00  0.11368683772E-12  0.17120000000E+03  0.17120000000E+03 0.  0.
         13    1    1    2    0    0  0.14146908071E+02  0.21997739470E+02  0.14702426965E+03  0.14933245656E+03  0.10566000000E+00 0. -1.
        994    1    1    2    0    0 -0.56091703391E+01 -0.26627422314E+02  0.45901355710E+01  0.17340989521E+03  0.17120000000E+03 0.  0.
        998    1    1    2    0    0 -0.85377377323E+01  0.46296828443E+01  0.13483855911E+04  0.13484576482E+04  0.10000000000E+02 0. -1.
</event>
<event>
 5    1  0.1535793E-008  0.3825313E+03  0.7957747E-01  0.3440210E+00
         13   -1    0    0    0    0  0.00000000000E+00  0.00000000000E+00  0.14999999963E+04  0.15000000000E+04  0.10566000000E+00 0.  1.
        994   -1    0    0    0    0 -0.00000000000E+00 -0.00000000000E+00  0.11368683772E-12  0.17120000000E+03  0.17120000000E+03 0.  0.
         13    1    1    2    0    0 -0.10362953833E+02 -0.63133237843E+01  0.24178159086E+02  0.27052604499E+02  0.10566000000E+00 0.  1.
        994    1    1    2    0    0  0.13835776627E+02  0.56149918820E+01  0.36002999514E+01  0.17188763483E+03  0.17120000000E+03 0.  0.
        998    1    1    2    0    0 -0.34728227933E+01  0.69833190226E+00  0.14722215372E+04  0.14722597607E+04  0.10000000000E+02 0.  1.
</event>
<event>
 5    1  0.1535793E-008  0.3863099E+03  0.7957747E-01  0.3424136E+00
         13   -1    0    0    0    0  0.00000000000E+00  0.00000000000E+00  0.14999999963E+04  0.15000000000E+04  0.10566000000E+00 0. -1.
        994   -1    0    0    0    0 -0.00000000000E+00 -0.00000000000E+00  0.11368683772E-12  0.17120000000E+03  0.17120000000E+03 0.  0.
         13    1    1    2    0    0  0.84248597507E+01  0.72648899578E+01  0.66603990817E+02  0.67526732815E+02  0.10566000000E+00 0. -1.
        994    1    1    2    0    0  0.57346977579E-01 -0.45531876171E+01  0.10490866068E+01  0.17126375971E+03  0.17120000000E+03 0.  0.
        998    1    1    2    0    0 -0.84822067283E+01 -0.27117023406E+01  0.14323469189E+04  0.14324095075E+04  0.10000000000E+02 0. -1.
</event>
<event>
 5    1  0.1535793E-008  0.3841687E+03  0.7957747E-01  0.3433206E+00
         13   -1    0    0    0    0  0.00000000000E+00  0.00000000000E+00  0.14999999963E+04  0.15000000000E+04  0.10566000000E+00 0.  1.
        994   -1    0    0    0    0 -0.00000000000E+00 -0.00000000000E+00  0.11368683772E-12  0.17120000000E+03  0.17120000000E+03 0.  0.
         13    1    1    2    0    0 -0.28508008197E+01 -0.10594133608E+02  0.31544243355E+02  0.33397802100E+02  0.10566000000E+00 0.  1.
        994    1    1    2    0    0  0.13125037916E+02 -0.17496316657E+02  0.36225376780E+01  0.17262951803E+03  0.17120000000E+03 0.  0.
        998    1    1    2    0    0 -0.10274237097E+02  0.28090450266E+02  0.14648332152E+04  0.14651726799E+04  0.10000000000E+02 0.  1.
</event>
<event>
 5    1  0.1535793E-008  0.3852343E+03  0.7957747E-01  0.3428679E+00
         13   -1    0    0    0    0  0.00000000000E+00  0.00000000000E+00  0.14999999963E+04  0.15000000000E+04  0.10566000000E+00 0.  1.
        994   -1    0    0    0    0 -0.00000000000E+00 -0.00000000000E+00  0.11368683772E-12  0.17120000000E+03  0.17120000000E+03 0.  0.
         13    1    1    2    0    0  0.12985197740E+02 -0.32590181895E+01  0.59304969969E+02  0.60797427470E+02  0.10566000000E+00 0.  1.
        994    1    1    2    0    0 -0.91746967669E+01  0.19248985332E+00  0.17906358164E+01  0.17145512092E+03  0.17120000000E+03 0.  0.
        998    1    1    2    0    0 -0.38105009733E+01  0.30665283362E+01  0.14389043905E+04  0.14389474516E+04  0.10000000000E+02 0.  1.
</event>
<event>
 5    1  0.1535793E-008  0.3795339E+03  0.7957747E-01  0.3453190E+00
         13   -1    0    0    0    0  0.00000000000E+00  0.00000000000E+00  0.14999999963E+04  0.15000000000E+04  0.10566000000E+00 0.  1.
        994   -1    0    0    0    0 -0.00000000000E+00 -0.00000000000E+00  0.11368683772E-12  0.17120000000E+03  0.17120000000E+03 0.  0.
         13    1    1    2    0    0  0.26111253877E+02  0.19400704420E+02  0.10698523969E+03  0.11182145405E+03  0.10566000000E+00 0.  1.
        994    1    1    2    0    0 -0.33157683533E+02 -0.24630189214E+02  0.10101925172E+02  0.17640172077E+03  0.17120000000E+03 0.  0.
        998    1    1    2    0    0  0.70464296559E+01  0.52294847945E+01  0.13829128314E+04  0.13829768252E+04  0.10000000000E+02 0.  1.
</event>
<event>
 5    1  0.1535793E-008  0.3861084E+03  0.7957747E-01  0.3424985E+00
         13   -1    0    0    0    0  0.00000000000E+00  0.00000000000E+00  0.14999999963E+04  0.15000000000E+04  0.10566000000E+00 0. -1.
        994   -1    0    0    0    0 -0.00000000000E+00 -0.00000000000E+00  0.11368683772E-12  0.17120000000E+03  0.17120000000E+03 0.  0.
         13    1    1    2    0    0 -0.13620091097E+01  0.11805426257E+02  0.71858594976E+02  0.72834689495E+02  0.10566000000E+00 0. -1.
        994    1    1    2    0    0  0.43030170735E+01  0.24841222890E+01  0.11617270732E+01  0.17127602409E+03  0.17120000000E+03 0.  0.
        998    1    1    2    0    0 -0.29410079638E+01 -0.14289548546E+02  0.14269796742E+04  0.14270892864E+04  0.10000000000E+02 0. -1.
</event>
<event>
 5    1  0.1535793E-008  0.3832836E+03  0.7957747E-01  0.3436984E+00
         13   -1    0    0    0    0  0.00000000000E+00  0.00000000000E+00  0.14999999963E+04  0.15000000000E+04  0.10566000000E+00 0.  1.
        994   -1    0    0    0    0 -0.00000000000E+00 -0.00000000000E+00  0.11368683772E-12  0.17120000000E+03  0.17120000000E+03 0.  0.
         13    1    1    2    0    0 -0.87278690954E+01  0.22606695865E+02  0.12003345021E+03  0.12245521112E+03  0.10566000000E+00 0.  1.
        994    1    1    2    0    0  0.10895259814E+02 -0.85415583368E+01  0.31187843450E+01  0.17178716984E+03  0.17120000000E+03 0.  0.
        998    1    1    2    0    0 -0.21673907186E+01 -0.14065137529E+02  0.13768477617E+04  0.13769576190E+04  0.10000000000E+02 0.  1.
</event>
<event>
 5    1  0.1535793E-008  0.3773833E+03  0.7957747E-01  0.3462632E+00
         13   -1    0    0    0    0  0.00000000000E+00  0.00000000000E+00  0.14999999963E+04  0.15000000000E+04  0.10566000000E+00 0.  1.
        994   -1    0    0    0    0 -0.00000000000E+00 -0.00000000000E+00  0.11368683772E-12  0.17120000000E+03  0.17120000000E+03 0.  0.
         13    1    1    2    0    0  0.50553640284E+01  0.13553465857E+03  0.64748666059E+03  0.66153925597E+03  0.10566000000E+00 0.  1.
        994    1    1    2    0    0 -0.25787892389E+02 -0.15739477792E+03  0.96692987725E+02  0.25317406144E+03  0.17120000000E+03 0.  0.
        998    1    1    2    0    0  0.20732528360E+02  0.21860119342E+02  0.75582034796E+03  0.75648668260E+03  0.10000000000E+02 0. -1.
</event>
<event>
 5    1  0.1535793E-008  0.3762374E+03  0.7957747E-01  0.3467707E+00
         13   -1    0    0    0    0  0.00000000000E+00  0.00000000000E+00  0.14999999963E+04  0.15000000000E+04  0.10566000000E+00 0.  1.
        994   -1    0    0    0    0 -0.00000000000E+00 -0.00000000000E+00  0.11368683772E-12  0.17120000000E+03  0.17120000000E+03 0.  0.
         13    1    1    2    0    0 -0.35683958324E+02  0.13477504876E+02  0.10879375528E+03  0.11528694797E+03  0.10566000000E+00 0.  1.
        994    1    1    2    0    0  0.38978877880E+02 -0.13828604647E+02  0.11857110728E+02  0.17652369332E+03  0.17120000000E+03 0.  0.
        998    1    1    2    0    0 -0.32949195563E+01  0.35109977139E+00  0.13793491303E+04  0.13793893587E+04  0.10000000000E+02 0.  1.
</event>
<event>
 5    1  0.1535793E-008  0.3809607E+03  0.7957747E-01  0.3446986E+00
         13   -1    0    0    0    0  0.00000000000E+00  0.00000000000E+00  0.14999999963E+04  0.15000000000E+04  0.10566000000E+00 0.  1.
        994   -1    0    0    0    0 -0.00000000000E+00 -0.00000000000E+00  0.11368683772E-12  0.17120000000E+03  0.17120000000E+03 0.  0.
         13    1    1    2    0    0  0.50488021487E+02 -0.59132680283E+02  0.17598873156E+03  0.19239999738E+03  0.10566000000E+00 0.  1.
        994    1    1    2    0    0 -0.54898622068E+02  0.14210739957E+02  0.28644168185E+02  0.18260813839E+03  0.17120000000E+03 0.  0.
        998    1    1    2    0    0  0.44106005801E+01  0.44921940325E+02  0.12953670965E+04  0.12961918642E+04  0.10000000000E+02 0.  1.
</event>
<event>
 5    1  0.1535793E-008  0.3854921E+03  0.7957747E-01  0.3427588E+00
         13   -1    0    0    0    0  0.00000000000E+00  0.00000000000E+00  0.14999999963E+04  0.15000000000E+04  0.10566000000E+00 0. -1.
        994   -1    0    0    0    0 -0.00000000000E+00 -0.00000000000E+00  0.11368683772E-12  0.17120000000E+03  0.17120000000E+03 0.  0.
         13    1    1    2    0    0 -0.15469425713E+02  0.12565548423E+02  0.11773717877E+03  0.11941210394E+03  0.10566000000E+00 0. -1.
        994    1    1    2    0    0  0.37437571461E+02 -0.10222378501E+02  0.63467767003E+01  0.17565816336E+03  0.17120000000E+03 0.  0.
        998    1    1    2    0    0 -0.21968145749E+02 -0.23431699225E+01  0.13759160408E+04  0.13761297327E+04  0.10000000000E+02 0. -1.
</event>
<event>
 5    1  0.1535793E-008  0.3827678E+03  0.7957747E-01  0.3439195E+00
         13   -1    0    0    0    0  0.00000000000E+00  0.00000000000E+00  0.14999999963E+04  0.15000000000E+04  0.10566000000E+00 0.  1.
        994   -1    0    0    0    0 -0.00000000000E+00 -0.00000000000E+00  0.11368683772E-12  0.17120000000E+03  0.17120000000E+03 0.  0.
         13    1    1    2    0    0  0.68490897470E+01 -0.78727199676E+01  0.18829634439E+02  0.21528029338E+02  0.10566000000E+00 0.  1.
        994    1    1    2    0    0 -0.37473858849E+01  0.58477372991E+01  0.29022600301E+01  0.17136540504E+03  0.17120000000E+03 0.  0.
        998    1    1    2    0    0 -0.31017038621E+01  0.20249826685E+01  0.14782681018E+04  0.14783065656E+04  0.10000000000E+02 0.  1.
</event>
<event>
 5    1  0.1535793E-008  0.3854278E+03  0.7957747E-01  0.3427860E+00
         13   -1    0    0    0    0  0.00000000000E+00  0.00000000000E+00  0.14999999963E+04  0.15000000000E+04  0.10566000000E+00 0.  1.
        994   -1    0    0    0    0 -0.00000000000E+00 -0.00000000000E+00  0.11368683772E-12  0.17120000000E+03  0.17120000000E+03 0.  0.
         13    1    1    2    0    0 -0.85031605136E+01 -0.78331571599E+01  0.54737353098E+02  0.55945071973E+02  0.10566000000E+00 0.  1.
        994    1    1    2    0    0  0.76975450766E+00 -0.22613171143E+02  0.31009990511E+01  0.17271654300E+03  0.17120000000E+03 0.  0.
        998    1    1    2    0    0  0.77334060060E+01  0.30446328303E+02  0.14421616441E+04  0.14425383850E+04  0.10000000000E+02 0.  1.
</event>
<event>
 5    1  0.1535793E-008  0.3790874E+03  0.7957747E-01  0.3455142E+00
         13   -1    0    0    0    0  0.00000000000E+00  0.00000000000E+00  0.14999999963E+04  0.15000000000E+04  0.10566000000E+00 0.  1.
        994   -1    0    0    0    0 -0.00000000000E+00 -0.00000000000E+00  0.11368683772E-12  0.17120000000E+03  0.17120000000E+03 0.  0.
         13    1    1    2    0    0  0.11538408757E+02  0.10564370394E+02  0.25169672934E+02  0.29635525947E+02  0.10566000000E+00 0.  1.
        994    1    1    2    0    0 -0.72844383718E+01  0.99226350916E+00  0.47757536205E+01  0.17142431406E+03  0.17120000000E+03 0.  0.
        998    1    1    2    0    0 -0.42539703856E+01 -0.11556633903E+02  0.14700545697E+04  0.14701401600E+04  0.10000000000E+02 0.  1.
</event>
<event>
 5    1  0.1535793E-008  0.3707243E+03  0.7957747E-01  0.3492569E+00
         13   -1    0    0    0    0  0.00000000000E+00  0.00000000000E+00  0.14999999963E+04  0.15000000000E+04  0.10566000000E+00 0.  1.
        994   -1    0    0    0    0 -0.00000000000E+00 -0.00000000000E+00  0.11368683772E-12  0.17120000000E+03  0.17120000000E+03 0.  0.
         13    1    1    2    0    0  0.72485847497E+02 -0.74939323198E+02  0.57601485045E+03  0.58537442663E+03  0.10566000000E+00 0.  1.
        994    1    1    2    0    0 -0.44390561169E+02  0.16203280991E+02  0.19190195980E+02  0.17863586386E+03  0.17120000000E+03 0.  0.
        998    1    1    2    0    0 -0.28095286329E+02  0.58736042207E+02  0.90479494985E+03  0.90718970951E+03  0.10000000000E+02 0.  1.
</event>
<event>
 5    1  0.1535793E-008  0.3804903E+03  0.7957747E-01  0.3449026E+00
         13   -1    0    0    0    0  0.00000000000E+00  0.00000000000E+00  0.14999999963E+04  0.15000000000E+04  0.10566000000E+00 0.  1.
        994   -1    0    0    0    0 -0.00000000000E+00 -0.00000000000E+00  0.11368683772E-12  0.17120000000E+03  0.17120000000E+03 0.  0.
         13    1    1    2    0    0 -0.11576404299E+02 -0.94214660214E+01  0.26859710373E+02  0.30728364158E+02  0.10566000000E+00 0.  1.
        994    1    1    2    0    0  0.98615442745E+01  0.91628055862E+01  0.44908387611E+01  0.17178712028E+03  0.17120000000E+03 0.  0.
        998    1    1    2    0    0  0.17148600241E+01  0.25866043513E+00  0.14686494471E+04  0.14686845156E+04  0.10000000000E+02 0.  1.
</event>
<event>
 5    1  0.1535793E-008  0.3836527E+03  0.7957747E-01  0.3435406E+00
         13   -1    0    0    0    0  0.00000000000E+00  0.00000000000E+00  0.14999999963E+04  0.15000000000E+04  0.10566000000E+00 0. -1.
        994   -1    0    0    0    0 -0.00000000000E+00 -0.00000000000E+00  0.11368683772E-12  0.17120000000E+03  0.17120000000E+03 0.  0.
         13    1    1    2    0    0 -0.16987787605E+02 -0.25982211679E+02  0.17369894301E+03  0.17645111000E+03  0.10566000000E+00 0. -1.
        994    1    1    2    0    0  0.29444972643E+02  0.28273754650E+02  0.78243364183E+01  0.17617341416E+03  0.17120000000E+03 0.  0.
        998    1    1    2    0    0 -0.12457185037E+02 -0.22915429718E+01  0.13184767168E+04  0.13185754758E+04  0.10000000000E+02 0. -1.
</event>
<event>
 5    1  0.1535793E-008  0.3741398E+03  0.7957747E-01  0.3477079E+00
         13   -1    0    0    0    0  0.00000000000E+00  0.00000000000E+00  0.14999999963E+04  0.15000000000E+04  0.10566000000E+00 0.  1.
        994   -1    0    0    0    0 -0.00000000000E+00 -0.00000000000E+00  0.11368683772E-12  0.17120000000E+03  0.17120000000E+03 0.  0.
         13    1    1    2    0    0  0.84928998363E+02 -0.36791707619E+02  0.44005051870E+03  0.44967881280E+03  0.10566000000E+00 0.  1.
        994    1    1    2    0    0 -0.79391678186E+02  0.36682819648E+02  0.33661660458E+02  0.19516970873E+03  0.17120000000E+03 0.  0.
        998    1    1    2    0    0 -0.55373201774E+01  0.10888797106E+00  0.10262878171E+04  0.10263514785E+04  0.10000000000E+02 0.  1.
</event>
<event>
 5    1  0.1535793E-008  0.3840027E+03  0.7957747E-01  0.3433913E+00
         13   -1    0    0    0    0  0.00000000000E+00  0.00000000000E+00  0.14999999963E+04  0.15000000000E+04  0.10566000000E+00 0. -1.
        994   -1    0    0    0    0 -0.00000000000E+00 -0.00000000000E+00  0.11368683772E-12  0.17120000000E+03  0.17120000000E+03 0.  0.
         13    1    1    2    0    0  0.10151496010E+02  0.47466795014E+01  0.29246986775E+02  0.31320619996E+02  0.10566000000E+00 0. -1.
        994    1    1    2    0    0 -0.18963054119E+01 -0.76116326943E+01  0.23291202873E+01  0.17139544255E+03  0.17120000000E+03 0.  0.
        998    1    1    2    0    0 -0.82551905986E+01  0.28649531929E+01  0.14684238892E+04  0.14684839375E+04  0.10000000000E+02 0. -1.
</event>
<event>
 5    1  0.1535793E-008  0.3788703E+03  0.7957747E-01  0.3456092E+00
         13   -1    0    0    0    0  0.00000000000E+00  0.00000000000E+00  0.14999999963E+04  0.15000000000E+04  0.10566000000E+00 0.  1.
        994   -1    0    0    0    0 -0.00000000000E+00 -0.00000000000E+00  0.11368683772E-12  0.17120000000E+03  0.17120000000E+03 0.  0.
         13    1    1    2    0    0  0.13608721681E+02  0.64102151444E+01  0.23328787710E+02  0.27758452119E+02  0.10566000000E+00 0.  1.
        994    1    1    2    0    0  0.77419876544E+01  0.64680844938E+01  0.50460477368E+01  0.17157120122E+03  0.17120000000E+03 0.  0.
        998    1    1    2    0    0 -0.21350709335E+02 -0.12878299638E+02  0.14716251608E+04  0.14718703467E+04  0.10000000000E+02 0.  1.
</event>
<event>
 5    1  0.1535793E-008  0.3763753E+03  0.7957747E-01  0.3467095E+00
         13   -1    0    0    0    0  0.00000000000E+00  0.00000000000E+00  0.14999999963E+04  0.15000000000E+04  0.10566000000E+00 0.  1.
        994   -1    0    0    0    0 -0.00000000000E+00 -0.00000000000E+00  0.11368683772E-12  0.17120000000E+03  0.17120000000E+03 0.  0.
         13    1    1    2    0    0  0.89399327235E+00 -0.68065743479E+02  0.29668423310E+03  0.30439331463E+03  0.10566000000E+00 0.  1.
        994    1    1    2    0    0 -0.27768536550E+01  0.73443935349E+02  0.24475363924E+02  0.18791010083E+03  0.17120000000E+03 0.  0.
        998    1    1    2    0    0  0.18828603826E+01 -0.53781918707E+01  0.11788403993E+04  0.11788965845E+04  0.10000000000E+02 0.  0.
</event>
<event>
 5    1  0.1535793E-008  0.3821306E+03  0.7957747E-01  0.3441934E+00
         13   -1    0    0    0    0  0.00000000000E+00  0.00000000000E+00  0.14999999963E+04  0.15000000000E+04  0.10566000000E+00 0. -1.
        994   -1    0    0    0    0 -0.00000000000E+00 -0.00000000000E+00  0.11368683772E-12  0.17120000000E+03  0.17120000000E+03 0.  0.
         13    1    1    2    0    0  0.20987967725E+02  0.68941991258E+01  0.81283172272E+02  0.84231763779E+02  0.10566000000E+00 0. -1.
        994    1    1    2    0    0 -0.20297090759E+02  0.32650746386E+02  0.79834789497E+01  0.17564515100E+03  0.17120000000E+03 0.  0.
        998    1    1    2    0    0 -0.69087696587E+00 -0.39544945512E+02  0.14107333451E+04  0.14113230852E+04  0.10000000000E+02 0. -1.
</event>
<event>
 5    1  0.1535793E-008  0.3763050E+03  0.7957747E-01  0.3467407E+00
         13   -1    0    0    0    0  0.00000000000E+00  0.00000000000E+00  0.14999999963E+04  0.15000000000E+04  0.10566000000E+00 0.  1.
        994   -1    0    0    0    0 -0.00000000000E+00 -0.00000000000E+00  0.11368683772E-12  0.17120000000E+03  0.17120000000E+03 0.  0.
         13    1    1    2    0    0 -0.17981932975E+02 -0.11634453524E+01  0.24657298329E+02  0.30540089121E+02  0.10566000000E+00 0.  1.
        994    1    1    2    0    0  0.98057302318E+01  0.25133566622E+01  0.63569810763E+01  0.17161678390E+03  0.17120000000E+03 0.  0.
        998    1    1    2    0    0  0.81762027431E+01 -0.13499113098E+01  0.14689857169E+04  0.14690431270E+04  0.10000000000E+02 0.  1.
</event>
<event>
 5    1  0.1535793E-008  0.3759689E+03  0.7957747E-01  0.3468901E+00
         13   -1    0    0    0    0  0.00000000000E+00  0.00000000000E+00  0.14999999963E+04  0.15000000000E+04  0.10566000000E+00 0. -1.
        994   -1    0    0    0    0 -0.00000000000E+00 -0.00000000000E+00  0.11368683772E-12  0.17120000000E+03  0.17120000000E+03 0.  0.
         13    1    1    2    0    0 -0.14353789542E+02 -0.80952394990E+02  0.46743065557E+03  0.47460588962E+03  0.10566000000E+00 0. -1.
        994    1    1    2    0    0  0.39100345451E+02  0.58018669129E+02  0.22951436807E+02  0.18636311715E+03  0.17120000000E+03 0.  0.
        998    1    1    2    0    0 -0.24746555909E+02  0.22933725861E+02  0.10096179039E+04  0.10102309932E+04  0.10000000000E+02 0. -1.
</event>
<event>
 5    1  0.1535793E-008  0.3788492E+03  0.7957747E-01  0.3456185E+00
         13   -1    0    0    0    0  0.00000000000E+00  0.00000000000E+00  0.14999999963E+04  0.15000000000E+04  0.10566000000E+00 0.  1.
        994   -1    0    0    0    0 -0.00000000000E+00 -0.00000000000E+00  0.11368683772E-12  0.17120000000E+03  0.17120000000E+03 0.  0.
         13    1    1    2    0    0 -0.20814896963E+02  0.10955892655E+02  0.57588803030E+02  0.62207498888E+02  0.10566000000E+00 0.  1.
        994    1    1    2    0    0  0.14593978822E+02  0.19393560386E+01  0.54428423586E+01  0.17191803237E+03  0.17120000000E+03 0.  0.
        998    1    1    2    0    0  0.62209181410E+01 -0.12895248693E+02  0.14369683509E+04  0.14370744687E+04  0.10000000000E+02 0.  1.
</event>
<event>
 5    1  0.1535793E-008  0.3845701E+03  0.7957747E-01  0.3431497E+00
         13   -1    0    0    0    0  0.00000000000E+00  0.00000000000E+00  0.14999999963E+04  0.15000000000E+04  0.10566000000E+00 0.  1.
        994   -1    0    0    0    0 -0.00000000000E+00 -0.00000000000E+00  0.11368683772E-12  0.17120000000E+03  0.17120000000E+03 0.  0.
         13    1    1    2    0    0 -0.37417135365E-01 -0.15756166114E+02  0.71260002113E+02  0.72981211526E+02  0.10566000000E+00 0.  1.
        994    1    1    2    0    0  0.95126492505E+01  0.94298241189E+00  0.21447052999E+01  0.17148008477E+03  0.17120000000E+03 0.  0.
        998    1    1    2    0    0 -0.94752321152E+01  0.14813183702E+02  0.14265952889E+04  0.14267387037E+04  0.10000000000E+02 0.  1.
</event>
<event>
 5    1  0.1535793E-008  0.3785567E+03  0.7957747E-01  0.3457467E+00
         13   -1    0    0    0    0  0.00000000000E+00  0.00000000000E+00  0.14999999963E+04  0.15000000000E+04  0.10566000000E+00 0. -1.
        994   -1    0    0    0    0 -0.00000000000E+00 -0.00000000000E+00  0.11368683772E-12  0.17120000000E+03  0.17120000000E+03 0.  0.
         13    1    1    2    0    0  0.13220488213E+02  0.46553029169E+01  0.18157542395E+02  0.22938192250E+02  0.10566000000E+00 0. -1.
        994    1    1    2    0    0 -0.94135138467E+01 -0.57988473728E+00  0.51623210629E+01  0.17153728478E+03  0.17120000000E+03 0.  0.
        998    1    1    2    0    0 -0.38069743665E+01 -0.40754181796E+01  0.14766801328E+04  0.14767245230E+04  0.10000000000E+02 0. -1.
</event>
<event>
 5    1  0.1535793E-008  0.3852301E+03  0.7957747E-01  0.3428697E+00
         13   -1    0    0    0    0  0.00000000000E+00  0.00000000000E+00  0.14999999963E+04  0.15000000000E+04  0.10566000000E+00 0. -1.
        994   -1    0    0    0    0 -0.00000000000E+00 -0.00000000000E+00  0.11368683772E-12  0.17120000000E+03  0.17120000000E+03 0.  0.
         13    1    1    2    0    0  0.10673776302E+02 -0.28113414883E+00  0.39707127176E+02  0.41117826421E+02  0.10566000000E+00 0. -1.
        994    1    1    2    0    0  0.35484923985E+01  0.53527423854E+01  0.16514946676E+01  0.17132837209E+03  0.17120000000E+03 0.  0.
        998    1    1    2    0    0 -0.14222268701E+02 -0.50716082365E+01  0.14586413744E+04  0.14587538015E+04  0.10000000000E+02 0. -1.
</event>
<event>
 5    1  0.1535793E-008  0.3839916E+03  0.7957747E-01  0.3433960E+00
         13   -1    0    0    0    0  0.00000000000E+00  0.00000000000E+00  0.14999999963E+04  0.15000000000E+04  0.10566000000E+00 0. -1.
        994   -1    0    0    0    0 -0.00000000000E+00 -0.00000000000E+00  0.11368683772E-12  0.17120000000E+03  0.17120000000E+03 0.  0.
         13    1    1    2    0    0 -0.25983346245E+01  0.19136148250E+02  0.93171429986E+02  0.95151826269E+02  0.10566000000E+00 0. -1.
        994    1    1    2    0    0 -0.76999400605E+01 -0.33683279198E+01  0.23647324021E+01  0.17142248006E+03  0.17120000000E+03 0.  0.
        998    1    1    2    0    0  0.10298274685E+02 -0.15767820330E+02  0.14044638339E+04  0.14046256937E+04  0.10000000000E+02 0. -1.
</event>
<event>
 5    1  0.1535793E-008  0.3849926E+03  0.7957747E-01  0.3429704E+00
         13   -1    0    0    0    0  0.00000000000E+00  0.00000000000E+00  0.14999999963E+04  0.15000000000E+04  0.10566000000E+00 0.  1.
        994   -1    0    0    0    0 -0.00000000000E+00 -0.00000000000E+00  0.11368683772E-12  0.17120000000E+03  0.17120000000E+03 0.  0.
         13    1    1    2    0    0  0.10432916534E+02  0.13387583449E+02  0.77749255428E+02  0.79580343186E+02  0.10566000000E+00 0.  1.
        994    1    1    2    0    0 -0.29025353616E+02 -0.15306782228E+02  0.51830716699E+01  0.17439344302E+03  0.17120000000E+03 0.  0.
        998    1    1    2    0    0  0.18592437082E+02  0.19191987793E+01  0.14170676692E+04  0.14172262138E+04  0.10000000000E+02 0.  1.
</event>
<event>
 5    1  0.1535793E-008  0.3851228E+03  0.7957747E-01  0.3429151E+00
         13   -1    0    0    0    0  0.00000000000E+00  0.00000000000E+00  0.14999999963E+04  0.15000000000E+04  0.10566000000E+00 0. -1.
        994   -1    0    0    0    0 -0.00000000000E+00 -0.00000000000E+00  0.11368683772E-12  0.17120000000E+03  0.17120000000E+03 0.  0.
         13    1    1    2    0    0 -0.12371867931E+02 -0.26227681228E+01  0.53224924871E+02  0.54706908341E+02  0.10566000000E+00 0. -1.
        994    1    1    2    0    0  0.20101772655E+00  0.46392866917E+01  0.16400521744E+01  0.17127081818E+03  0.17120000000E+03 0.  0.
        998    1    1    2    0    0  0.12170850205E+02 -0.20165185690E+01  0.14451350192E+04  0.14452222735E+04  0.10000000000E+02 0. -1.
</event>
<event>
 5    1  0.1535793E-008  0.3984122E+03  0.7957747E-01  0.3374708E+00
         13   -1    0    0    0    0  0.00000000000E+00  0.00000000000E+00  0.14999999963E+04  0.15000000000E+04  0.10566000000E+00 0. -1.
        994   -1    0    0    0    0 -0.00000000000E+00 -0.00000000000E+00  0.11368683772E-12  0.17120000000E+03  0.17120000000E+03 0.  0.
         13    1    1    2    0    0  0.21137659009E+02 -0.64250988577E+01 -0.26603214225E+01  0.22252438019E+02  0.10566000000E+00 0. -1.
        994    1    1    2    0    0 -0.21768505913E+02  0.57345198885E+01  0.28807082371E+02  0.17506010557E+03  0.17120000000E+03 0.  0.
        998    1    1    2    0    0  0.63084690486E+00  0.69057896914E+00  0.14738532353E+04  0.14738874564E+04  0.10000000000E+02 0. -1.
</event>
<event>
 5    1  0.1535793E-008  0.3830504E+03  0.7957747E-01  0.3437983E+00
         13   -1    0    0    0    0  0.00000000000E+00  0.00000000000E+00  0.14999999963E+04  0.15000000000E+04  0.10566000000E+00 0. -1.
        994   -1    0    0    0    0 -0.00000000000E+00 -0.00000000000E+00  0.11368683772E-12  0.17120000000E+03  0.17120000000E+03 0.  0.
         13    1    1    2    0    0 -0.13587753433E+02  0.89916222629E+01  0.57090004894E+02  0.59369656704E+02  0.10566000000E+00 0. -1.
        994    1    1    2    0    0 -0.23139548277E+02 -0.77805308471E+01  0.45760991436E+01  0.17299235832E+03  0.17120000000E+03 0.  0.
        998    1    1    2    0    0  0.36727301710E+02 -0.12110914158E+01  0.14383338922E+04  0.14388379850E+04  0.10000000000E+02 0. -1.
</event>
<event>
 5    1  0.1535793E-008  0.3842054E+03  0.7957747E-01  0.3433049E+00
         13   -1    0    0    0    0  0.00000000000E+00  0.00000000000E+00  0.14999999963E+04  0.15000000000E+04  0.10566000000E+00 0. -1.
        994   -1    0    0    0    0 -0.00000000000E+00 -0.00000000000E+00  0.11368683772E-12  0.17120000000E+03  0.17120000000E+03 0.  0.
         13    1    1    2    0    0 -0.18998582006E+02 -0.10222823380E+02  0.10665677387E+03  0.10881696013E+03  0.10566000000E+00 0. -1.
        994    1    1    2    0    0  0.22481060070E+02  0.75097592979E+01  0.38796864389E+01  0.17287650654E+03  0.17120000000E+03 0.  0.
        998    1    1    2    0    0 -0.34824780636E+01  0.27130640819E+01  0.13894635360E+04  0.13895065333E+04  0.10000000000E+02 0. -1.
</event>
<event>
 5    1  0.1535793E-008  0.3834416E+03  0.7957747E-01  0.3436309E+00
         13   -1    0    0    0    0  0.00000000000E+00  0.00000000000E+00  0.14999999963E+04  0.15000000000E+04  0.10566000000E+00 0.  1.
        994   -1    0    0    0    0 -0.00000000000E+00 -0.00000000000E+00  0.11368683772E-12  0.17120000000E+03  0.17120000000E+03 0.  0.
         13    1    1    2    0    0 -0.14093096676E+02  0.12076222095E+02  0.71629582828E+02  0.73994991818E+02  0.10566000000E+00 0.  1.
        994    1    1    2    0    0  0.10622514004E+02 -0.34052748748E+01  0.28172336861E+01  0.17158616059E+03  0.17120000000E+03 0.  0.
        998    1    1    2    0    0  0.34705826720E+01 -0.86709472197E+01  0.14255531798E+04  0.14256188476E+04  0.10000000000E+02 0.  1.
</event>
<event>
 5    1  0.1535793E-008  0.3723839E+03  0.7957747E-01  0.3485006E+00
         13   -1    0    0    0    0  0.00000000000E+00  0.00000000000E+00  0.14999999963E+04  0.15000000000E+04  0.10566000000E+00 0. -1.
        994   -1    0    0    0    0 -0.00000000000E+00 -0.00000000000E+00  0.11368683772E-12  0.17120000000E+03  0.17120000000E+03 0.  0.
         13    1    1    2    0    0  0.66521710794E+02  0.40550703010E+02  0.21432381044E+03  0.22804430361E+03  0.10566000000E+00 0. -1.
        994    1    1    2    0    0 -0.62846726848E+02 -0.38798394375E+02  0.31693818950E+02  0.18912684802E+03  0.17120000000E+03 0.  0.
        998    1    1    2    0    0 -0.36749839451E+01 -0.17523086357E+01  0.12539823669E+04  0.12540288484E+04  0.10000000000E+02 0.  0.
</event>
<event>
 5    1  0.1535793E-008  0.3780172E+03  0.7957747E-01  0.3459838E+00
         13   -1    0    0    0    0  0.00000000000E+00  0.00000000000E+00  0.14999999963E+04  0.15000000000E+04  0.10566000000E+00 0.  1.
        994   -1    0    0    0    0 -0.00000000000E+00 -0.00000000000E+00  0.11368683772E-12  0.17120000000E+03  0.17120000000E+03 0.  0.
         13    1    1    2    0    0  0.32563658819E+02 -0.82838657775E+01  0.12110895452E+03  0.12568374730E+03  0.10566000000E+00 0.  1.
        994    1    1    2    0    0  0.30411875564E+01  0.57430790246E+01  0.52795219262E+01  0.17140462400E+03  0.17120000000E+03 0.  0.
        998    1    1    2    0    0 -0.35604846375E+02  0.25407867530E+01  0.13736115198E+04  0.13741116287E+04  0.10000000000E+02 0.  1.
</event>
<event>
 5    1  0.1535793E-008  0.3853664E+03  0.7957747E-01  0.3428120E+00
         13   -1    0    0    0    0  0.00000000000E+00  0.00000000000E+00  0.14999999963E+04  0.15000000000E+04  0.10566000000E+00 0. -1.
        994   -1    0    0    0    0 -0.00000000000E+00 -0.00000000000E+00  0.11368683772E-12  0.17120000000E+03  0.17120000000E+03 0.  0.
         13    1    1    2    0    0  0.14061455661E+02 -0.91990402013E+01  0.75075270025E+02  0.76932790209E+02  0.10566000000E+00 0. -1.
        994    1    1    2    0    0 -0.37636250549E+02  0.32909994552E+02  0.97022338618E+01  0.17861446873E+03  0.17120000000E+03 0.  0.
        998    1    1    2    0    0  0.23574794888E+02 -0.23710954351E+02  0.14152224924E+04  0.14156527411E+04  0.10000000000E+02 0. -1.
</event>
<event>
 5    1  0.1535793E-008  0.3787449E+03  0.7957747E-01  0.3456642E+00
         13   -1    0    0    0    0  0.00000000000E+00  0.00000000000E+00  0.14999999963E+04  0.15000000000E+04  0.10566000000E+00 0.  1.
        994   -1    0    0    0    0 -0.00000000000E+00 -0.00000000000E+00  0.11368683772E-12  0.17120000000E+03  0.17120000000E+03 0.  0.
         13    1    1    2    0    0  0.29666743270E+02 -0.78828364611E+01  0.90944347208E+02  0.95985104157E+02  0.10566000000E+00 0.  1.
        994    1    1    2    0    0 -0.34130171640E+02  0.44304494024E+00  0.86889222637E+01  0.17478558944E+03  0.17120000000E+03 0.  0.
        998    1    1    2    0    0  0.44634283694E+01  0.74397915209E+01  0.14003667268E+04  0.14004293064E+04  0.10000000000E+02 0.  1.
</event>
<event>
 5    1  0.1535793E-008  0.3811854E+03  0.7957747E-01  0.3446013E+00
         13   -1    0    0    0    0  0.00000000000E+00  0.00000000000E+00  0.14999999963E+04  0.15000000000E+04  0.10566000000E+00 0. -1.
        994   -1    0    0    0    0 -0.00000000000E+00 -0.00000000000E+00  0.11368683772E-12  0.17120000000E+03  0.17120000000E+03 0.  0.
         13    1    1    2    0    0  0.20785686326E+02  0.16950931404E+02  0.10877325651E+03  0.11203129619E+03  0.10566000000E+00 0. -1.
        994    1    1    2    0    0  0.43680367806E+01 -0.99493864171E+01  0.39292313009E+01  0.17158947781E+03  0.17120000000E+03 0.  0.
        998    1    1    2    0    0 -0.25153723106E+02 -0.70015449870E+01  0.13872975085E+04  0.13875792260E+04  0.10000000000E+02 0. -1.
</event>
<event>
 5    1  0.1535793E-008  0.3704249E+03  0.7957747E-01  0.3493940E+00
         13   -1    0    0    0    0  0.00000000000E+00  0.00000000000E+00  0.14999999963E+04  0.15000000000E+04  0.10566000000E+00 0.  1.
        994   -1    0    0    0    0 -0.00000000000E+00 -0.00000000000E+00  0.11368683772E-12  0.17120000000E+03  0.17120000000E+03 0.  0.
         13    1    1    2    0    0  0.45856229067E+02  0.44274859882E+02  0.22643388313E+03  0.23523471588E+03  0.10566000000E+00 0.  1.
        994    1    1    2    0    0 -0.18222183141E+02 -0.29356499143E+02  0.13180189607E+02  0.17514853524E+03  0.17120000000E+03 0.  0.
        998    1    1    2    0    0 -0.27634045926E+02 -0.14918360739E+02  0.12603859235E+04  0.12608167489E+04  0.10000000000E+02 0.  1.
</event>
<event>
 5    1  0.1535793E-008  0.3798594E+03  0.7957747E-01  0.3451771E+00
         13   -1    0    0    0    0  0.00000000000E+00  0.00000000000E+00  0.14999999963E+04  0.15000000000E+04  0.10566000000E+00 0.  1.
        994   -1    0    0    0    0 -0.00000000000E+00 -0.00000000000E+00  0.11368683772E-12  0.17120000000E+03  0.17120000000E+03 0.  0.
         13    1    1    2    0    0  0.64568328086E+01  0.12763090745E+02  0.22472784914E+02  0.26638776269E+02  0.10566000000E+00 0.  1.
        994    1    1    2    0    0 -0.95791466515E+01 -0.85749317245E+01  0.47571563046E+01  0.17174795498E+03  0.17120000000E+03 0.  0.
        998    1    1    2    0    0  0.31223138429E+01 -0.41881590204E+01  0.14727700551E+04  0.14728132687E+04  0.10000000000E+02 0.  1.
</event>
<event>
 5    1  0.1535793E-008  0.3813946E+03  0.7957747E-01  0.3445108E+00
         13   -1    0    0    0    0  0.00000000000E+00  0.00000000000E+00  0.14999999963E+04  0.15000000000E+04  0.10566000000E+00 0.  1.
        994   -1    0    0    0    0 -0.00000000000E+00 -0.00000000000E+00  0.11368683772E-12  0.17120000000E+03  0.17120000000E+03 0.  0.
         13    1    1    2    0    0  0.17181137678E+02  0.67383714714E+01  0.47422865731E+02  0.50887488640E+02  0.10566000000E+00 0.  1.
        994    1    1    2    0    0 -0.15396552115E+02 -0.83636116418E+01  0.44530484336E+01  0.17215189066E+03  0.17120000000E+03 0.  0.
        998    1    1    2    0    0 -0.17845855624E+01  0.16252401704E+01  0.14481240821E+04  0.14481606207E+04  0.10000000000E+02 0.  1.
</event>
<event>
 5    1  0.1535793E-008  0.3772574E+03  0.7957747E-01  0.3463188E+00
         13   -1    0    0    0    0  0.00000000000E+00  0.00000000000E+00  0.14999999963E+04  0.15000000000E+04  0.10566000000E+00 0.  1.
        994   -1    0    0    0    0 -0.00000000000E+00 -0.00000000000E+00  0.11368683772E-12  0.17120000000E+03  0.17120000000E+03 0.  0.
         13    1    1    2    0    0 -0.14708992463E+02 -0.69381765804E+01  0.21479245106E+02  0.26941824138E+02  0.10566000000E+00 0.  1.
        994    1    1    2    0    0  0.10240380694E+02  0.10152470534E+02  0.62258144718E+01  0.17191898912E+03  0.17120000000E+03 0.  0.
        998    1    1    2    0    0  0.44686117691E+01 -0.32142939540E+01  0.14722949367E+04  0.14723391867E+04  0.10000000000E+02 0.  1.
</event>
<event>
 5    1  0.1535793E-008  0.3834972E+03  0.7957747E-01  0.3436071E+00
         13   -1    0    0    0    0  0.00000000000E+00  0.00000000000E+00  0.14999999963E+04  0.15000000000E+04  0.10566000000E+00 0. -1.
        994   -1    0    0    0    0 -0.00000000000E+00 -0.00000000000E+00  0.11368683772E-12  0.17120000000E+03  0.17120000000E+03 0.  0.
         13    1    1    2    0    0 -0.98125146729E+01 -0.18210178751E+02  0.92059630662E+02  0.94355088978E+02  0.10566000000E+00 0. -1.
        994    1    1    2    0    0  0.45380045847E+01  0.70394128906E+01  0.26099410773E+01  0.17142461495E+03  0.17120000000E+03 0.  0.
        998    1    1    2    0    0  0.52745100881E+01  0.11170765860E+02  0.14053304245E+04  0.14054202961E+04  0.10000000000E+02 0. -1.
</event>
<event>
 5    1  0.1535793E-008  0.3828724E+03  0.7957747E-01  0.3438746E+00
         13   -1    0    0    0    0  0.00000000000E+00  0.00000000000E+00  0.14999999963E+04  0.15000000000E+04  0.10566000000E+00 0.  1.
        994   -1    0    0    0    0 -0.00000000000E+00 -0.00000000000E+00  0.11368683772E-12  0.17120000000E+03  0.17120000000E+03 0.  0.
         13    1    1    2    0    0  0.13016470027E+02 -0.21731318033E+02  0.11463980189E+03  0.11740517032E+03  0.10566000000E+00 0.  1.
        994    1    1    2    0    0 -0.11180316717E+02  0.17085978943E+02  0.40720436013E+01  0.17246144989E+03  0.17120000000E+03 0.  0.
        998    1    1    2    0    0 -0.18361533093E+01  0.46453390900E+01  0.13812881508E+04  0.13813333798E+04  0.10000000000E+02 0.  1.
</event>
<event>
 5    1  0.1535793E-008  0.3853122E+03  0.7957747E-01  0.3428349E+00
         13   -1    0    0    0    0  0.00000000000E+00  0.00000000000E+00  0.14999999963E+04  0.15000000000E+04  0.10566000000E+00 0.  1.
        994   -1    0    0    0    0 -0.00000000000E+00 -0.00000000000E+00  0.11368683772E-12  0.17120000000E+03  0.17120000000E+03 0.  0.
         13    1    1    2    0    0 -0.20552344621E+02 -0.36192725401E+01  0.11492703204E+03  0.11680638621E+03  0.10566000000E+00 0.  1.
        994    1    1    2    0    0  0.40546863588E+02  0.19088274030E+02  0.81015389211E+01  0.17715384637E+03  0.17120000000E+03 0.  0.
        998    1    1    2    0    0 -0.19994518967E+02 -0.15469001490E+02  0.13769714253E+04  0.13772397674E+04  0.10000000000E+02 0.  1.
</event>
<event>
 5    1  0.1535793E-008  0.3816779E+03  0.7957747E-01  0.3443885E+00
         13   -1    0    0    0    0  0.00000000000E+00  0.00000000000E+00  0.14999999963E+04  0.15000000000E+04  0.10566000000E+00 0. -1.
        994   -1    0    0    0    0 -0.00000000000E+00 -0.00000000000E+00  0.11368683772E-12  0.17120000000E+03  0.17120000000E+03 0.  0.
         13    1    1    2    0    0  0.30694646216E+02 -0.12120606375E+02  0.15933756059E+03  0.16271920534E+03  0.10566000000E+00 0. -1.
        994    1    1    2    0    0 -0.23360552389E+02  0.57616327683E+01  0.52154902504E+01  0.17296113193E+03  0.17120000000E+03 0.  0.
        998    1    1    2    0    0 -0.73340938270E+01  0.63589736069E+01  0.13354469454E+04  0.13355196627E+04  0.10000000000E+02 0. -1.
</event>
<event>
 5    1  0.1535793E-008  0.4025769E+03  0.7957747E-01  0.3358384E+00
         13   -1    0    0    0    0  0.00000000000E+00  0.00000000000E+00  0.14999999963E+04  0.15000000000E+04  0.10566000000E+00 0.  1.
        994   -1    0    0    0    0 -0.00000000000E+00 -0.00000000000E+00  0.11368683772E-12  0.17120000000E+03  0.17120000000E+03 0.  0.
         13    1    1    2    0    0 -0.94310951506E+02 -0.14318744119E+02  0.14303320658E+03  0.17192466768E+03  0.10566000000E+00 0.  1.
        994    1    1    2    0    0  0.73639167538E+02  0.91394899828E+01  0.51459217981E+02  0.19355554342E+03  0.17120000000E+03 0.  0.
        998    1    1    2    0    0  0.20671783968E+02  0.51792541365E+01  0.13055075717E+04  0.13057197889E+04  0.10000000000E+02 0.  1.
</event>
<event>
 5    1  0.1535793E-008  0.3757860E+03  0.7957747E-01  0.3469715E+00
         13   -1    0    0    0    0  0.00000000000E+00  0.00000000000E+00  0.14999999963E+04  0.15000000000E+04  0.10566000000E+00 0. -1.
        994   -1    0    0    0    0 -0.00000000000E+00 -0.00000000000E+00  0.11368683772E-12  0.17120000000E+03  0.17120000000E+03 0.  0.
         13    1    1    2    0    0 -0.11789140532E+02  0.32790001603E+02  0.14199363531E+03  0.14620660611E+03  0.10566000000E+00 0. -1.
        994    1    1    2    0    0 -0.88452963193E+02  0.19217051925E+02  0.34579162724E+02  0.19671903893E+03  0.17120000000E+03 0.  0.
        998    1    1    2    0    0  0.10024210372E+03 -0.52007053528E+02  0.13234271982E+04  0.13282743550E+04  0.10000000000E+02 0. -1.
</event>
<event>
 5    1  0.1535793E-008  0.3688943E+03  0.7957747E-01  0.3500988E+00
         13   -1    0    0    0    0  0.00000000000E+00  0.00000000000E+00  0.14999999963E+04  0.15000000000E+04  0.10566000000E+00 0. -1.
        994   -1    0    0    0    0 -0.00000000000E+00 -0.00000000000E+00  0.11368683772E-12  0.17120000000E+03  0.17120000000E+03 0.  0.
         13    1    1    2    0    0  0.43889513331E+00 -0.20804305418E+02  0.17260446609E+02  0.27036011800E+02  0.10566000000E+00 0. -1.
        994    1    1    2    0    0  0.11382758737E+00  0.26862874379E+02  0.12356890794E+02  0.17373473955E+03  0.17120000000E+03 0.  0.
        998    1    1    2    0    0 -0.55272272069E+00 -0.60585689610E+01  0.14703826589E+04  0.14704292486E+04  0.10000000000E+02 0. -1.
</event>
<event>
 5    1  0.1535793E-008  0.3837474E+03  0.7957747E-01  0.3435002E+00
         13   -1    0    0    0    0  0.00000000000E+00  0.00000000000E+00  0.14999999963E+04  0.15000000000E+04  0.10566000000E+00 0.  1.
        994   -1    0    0    0    0 -0.00000000000E+00 -0.00000000000E+00  0.11368683772E-12  0.17120000000E+03  0.17120000000E+03 0.  0.
         13    1    1    2    0    0 -0.29881511477E+01  0.14550150543E+02  0.49764129615E+02  0.51933762511E+02  0.10566000000E+00 0.  1.
        994    1    1    2    0    0  0.52258138471E+01 -0.31174844311E+01  0.23756062757E+01  0.17132457893E+03  0.17120000000E+03 0.  0.
        998    1    1    2    0    0 -0.22376626994E+01 -0.11432666112E+02  0.14478602604E+04  0.14479416586E+04  0.10000000000E+02 0.  1.
</event>
<event>
 5    1  0.1535793E-008  0.3777170E+03  0.7957747E-01  0.3461160E+00
         13   -1    0    0    0    0  0.00000000000E+00  0.00000000000E+00  0.14999999963E+04  0.15000000000E+04  0.10566000000E+00 0. -1.
        994   -1    0    0    0    0 -0.00000000000E+00 -0.00000000000E+00  0.11368683772E-12  0.17120000000E+03  0.17120000000E+03 0.  0.
         13    1    1    2    0    0  0.40922157341E+01  0.32680897171E+02  0.10008296075E+03  0.10536316940E+03  0.10566000000E+00 0. -1.
        994    1    1    2    0    0 -0.68254957186E+01 -0.20605417826E+02  0.68787509641E+01  0.17270763692E+03  0.17120000000E+03 0.  0.
        998    1    1    2    0    0  0.27332799845E+01 -0.12075479346E+02  0.13930382846E+04  0.13931291937E+04  0.10000000000E+02 0.  0.
</event>
<event>
 5    1  0.1535793E-008  0.3843958E+03  0.7957747E-01  0.3432239E+00
         13   -1    0    0    0    0  0.00000000000E+00  0.00000000000E+00  0.14999999963E+04  0.15000000000E+04  0.10566000000E+00 0.  1.
        994   -1    0    0    0    0 -0.00000000000E+00 -0.00000000000E+00  0.11368683772E-12  0.17120000000E+03  0.17120000000E+03 0.  0.
         13    1    1    2    0    0  0.67789848319E+01 -0.99439903508E+01  0.36404454775E+02  0.38342314366E+02  0.10566000000E+00 0.  1.
        994    1    1    2    0    0 -0.37273357188E+01  0.12577016883E+02  0.24976182478E+01  0.17171998277E+03  0.17120000000E+03 0.  0.
        998    1    1    2    0    0 -0.30516491131E+01 -0.26330265321E+01  0.14610979233E+04  0.14611377029E+04  0.10000000000E+02 0.  1.
</event>
<event>
 5    1  0.1535793E-008  0.3849068E+03  0.7957747E-01  0.3430067E+00
         13   -1    0    0    0    0  0.00000000000E+00  0.00000000000E+00  0.14999999963E+04  0.15000000000E+04  0.10566000000E+00 0.  1.
        994   -1    0    0    0    0 -0.00000000000E+00 -0.00000000000E+00  0.11368683772E-12  0.17120000000E+03  0.17120000000E+03 0.  0.
         13    1    1    2    0    0 -0.13245298460E+02  0.18767290178E+00  0.45502403555E+02  0.47391487060E+02  0.10566000000E+00 0.  1.
        994    1    1    2    0    0  0.35498497037E+02 -0.13268528203E+02  0.64153093463E+01  0.17546165771E+03  0.17120000000E+03 0.  0.
        998    1    1    2    0    0 -0.22253198578E+02  0.13080855302E+02  0.14480822834E+04  0.14483468552E+04  0.10000000000E+02 0.  1.
</event>
<event>
 5    1  0.1535793E-008  0.3815755E+03  0.7957747E-01  0.3444327E+00
         13   -1    0    0    0    0  0.00000000000E+00  0.00000000000E+00  0.14999999963E+04  0.15000000000E+04  0.10566000000E+00 0.  1.
        994   -1    0    0    0    0 -0.00000000000E+00 -0.00000000000E+00  0.11368683772E-12  0.17120000000E+03  0.17120000000E+03 0.  0.
         13    1    1    2    0    0 -0.40681748452E+01  0.25741093209E+02  0.10109503982E+03  0.10440005827E+03  0.10566000000E+00 0.  1.
        994    1    1    2    0    0 -0.11149116664E+02 -0.17168996990E+02  0.47348687588E+01  0.17248459712E+03  0.17120000000E+03 0.  0.
        998    1    1    2    0    0  0.15217291509E+02 -0.85720962187E+01  0.13941700877E+04  0.13943153446E+04  0.10000000000E+02 0.  1.
</event>
<event>
 5    1  0.1535793E-008  0.4051235E+03  0.7957747E-01  0.3348566E+00
         13   -1    0    0    0    0  0.00000000000E+00  0.00000000000E+00  0.14999999963E+04  0.15000000000E+04  0.10566000000E+00 0. -1.
        994   -1    0    0    0    0 -0.00000000000E+00 -0.00000000000E+00  0.11368683772E-12  0.17120000000E+03  0.17120000000E+03 0.  0.
         13    1    1    2    0    0 -0.10012007057E+02 -0.44856328765E+02  0.21278039747E+02  0.50646783265E+02  0.10566000000E+00 0. -1.
        994    1    1    2    0    0  0.40003974988E+02  0.47640493800E+02  0.46518641314E+02  0.18799829428E+03  0.17120000000E+03 0.  0.
        998    1    1    2    0    0 -0.29991967931E+02 -0.27841650349E+01  0.14322033152E+04  0.14325549224E+04  0.10000000000E+02 0. -1.
</event>
<event>
 5    1  0.1535793E-008  0.3791710E+03  0.7957747E-01  0.3454776E+00
         13   -1    0    0    0    0  0.00000000000E+00  0.00000000000E+00  0.14999999963E+04  0.15000000000E+04  0.10566000000E+00 0.  1.
        994   -1    0    0    0    0 -0.00000000000E+00 -0.00000000000E+00  0.11368683772E-12  0.17120000000E+03  0.17120000000E+03 0.  0.
         13    1    1    2    0    0  0.26611814862E+02  0.75276987216E+02  0.44219428598E+03  0.44934464636E+03  0.10566000000E+00 0.  1.
        994    1    1    2    0    0 -0.62645200376E+00 -0.96351044185E+02  0.36329983787E+02  0.19978294191E+03  0.17120000000E+03 0.  0.
        998    1    1    2    0    0 -0.25985362858E+02  0.21074056970E+02  0.10214757265E+04  0.10220724117E+04  0.10000000000E+02 0.  1.
</event>
<event>
 5    1  0.1535793E-008  0.3844970E+03  0.7957747E-01  0.3431808E+00
         13   -1    0    0    0    0  0.00000000000E+00  0.00000000000E+00  0.14999999963E+04  0.15000000000E+04  0.10566000000E+00 0.  1.
        994   -1    0    0    0    0 -0.00000000000E+00 -0.00000000000E+00  0.11368683772E-12  0.17120000000E+03  0.17120000000E+03 0.  0.
         13    1    1    2    0    0  0.14838803880E+02  0.12174881934E+02  0.93781356211E+02  0.95725502284E+02  0.10566000000E+00 0.  1.
        994    1    1    2    0    0 -0.18693449671E+02 -0.58513406074E+01  0.31449455427E+01  0.17234562347E+03  0.17120000000E+03 0.  0.
        998    1    1    2    0    0  0.38546457907E+01 -0.63235413270E+01  0.14030736945E+04  0.14031288742E+04  0.10000000000E+02 0.  1.
</event>
<event>
 5    1  0.1535793E-008  0.3806460E+03  0.7957747E-01  0.3448350E+00
         13   -1    0    0    0    0  0.00000000000E+00  0.00000000000E+00  0.14999999963E+04  0.15000000000E+04  0.10566000000E+00 0.  1.
        994   -1    0    0    0    0 -0.00000000000E+00 -0.00000000000E+00  0.11368683772E-12  0.17120000000E+03  0.17120000000E+03 0.  0.
         13    1    1    2    0    0  0.82690238231E+01  0.16152644469E+02  0.42562879124E+02  0.46269801401E+02  0.10566000000E+00 0.  1.
        994    1    1    2    0    0 -0.96071396330E+00 -0.75751218601E+01  0.40019233348E+01  0.17141692108E+03  0.17120000000E+03 0.  0.
        998    1    1    2    0    0 -0.73083098598E+01 -0.85775226086E+01  0.14534351938E+04  0.14535132775E+04  0.10000000000E+02 0.  1.
</event>
<event>
 5    1  0.1535793E-008  0.3851116E+03  0.7957747E-01  0.3429199E+00
         13   -1    0    0    0    0  0.00000000000E+00  0.00000000000E+00  0.14999999963E+04  0.15000000000E+04  0.10566000000E+00 0.  1.
        994   -1    0    0    0    0 -0.00000000000E+00 -0.00000000000E+00  0.11368683772E-12  0.17120000000E+03  0.17120000000E+03 0.  0.
         13    1    1    2    0    0 -0.12893806833E+02  0.80335010409E+01  0.76800531699E+02  0.78288697951E+02  0.10566000000E+00 0.  1.
        994    1    1    2    0    0  0.56865579519E+01  0.24722466589E+01  0.17011282339E+01  0.17132070156E+03  0.17120000000E+03 0.  0.
        998    1    1    2    0    0  0.72072488812E+01 -0.10505747700E+02  0.14214983363E+04  0.14215906005E+04  0.10000000000E+02 0.  1.
</event>
<event>
 5    1  0.2098829E-008  0.3861852E+03  0.7957747E-01  0.3424661E+00
         13   -1    0    0    0    0  0.00000000000E+00  0.00000000000E+00  0.14999999963E+04  0.15000000000E+04  0.10566000000E+00 0. -1.
        994   -1    0    0    0    0 -0.00000000000E+00 -0.00000000000E+00  0.11368683772E-12  0.17120000000E+03  0.17120000000E+03 0.  0.
         13    1    1    2    0    0 -0.11648550693E+02  0.36671267312E+01  0.73011949151E+02  0.74026295562E+02  0.10566000000E+00 0. -1.
        994    1    1    2    0    0  0.65888767223E+01 -0.35250646377E+01  0.12257845496E+01  0.17136738874E+03  0.17120000000E+03 0.  0.
        998    1    1    2    0    0  0.50596739711E+01 -0.14206209354E+00  0.14257622626E+04  0.14258063157E+04  0.10000000000E+02 0. -1.
</event>
<event>
 5    1  0.1535793E-008  0.3850057E+03  0.7957747E-01  0.3429648E+00
         13   -1    0    0    0    0  0.00000000000E+00  0.00000000000E+00  0.14999999963E+04  0.15000000000E+04  0.10566000000E+00 0.  1.
        994   -1    0    0    0    0 -0.00000000000E+00 -0.00000000000E+00  0.11368683772E-12  0.17120000000E+03  0.17120000000E+03 0.  0.
         13    1    1    2    0    0  0.15227757182E+02  0.69820419789E+02  0.11981654958E+03  0.13950911198E+03  0.10566000000E+00 0.  1.
        994    1    1    2    0    0 -0.18632132870E+02 -0.64088962314E+02  0.35739499163E+02  0.18719322441E+03  0.17120000000E+03 0.  0.
        998    1    1    2    0    0  0.34043756883E+01 -0.57314574755E+01  0.13444439475E+04  0.13444976636E+04  0.10000000000E+02 0.  1.
</event>
<event>
 5    1  0.1535793E-008  0.3825143E+03  0.7957747E-01  0.3440283E+00
         13   -1    0    0    0    0  0.00000000000E+00  0.00000000000E+00  0.14999999963E+04  0.15000000000E+04  0.10566000000E+00 0.  1.
        994   -1    0    0    0    0 -0.00000000000E+00 -0.00000000000E+00  0.11368683772E-12  0.17120000000E+03  0.17120000000E+03 0.  0.
         13    1    1    2    0    0  0.18698458033E+02 -0.26836606534E+02  0.17347746361E+03  0.17653406846E+03  0.10566000000E+00 0.  1.
        994    1    1    2    0    0 -0.24598224423E+02  0.16725196677E+02  0.58083005758E+01  0.17386196020E+03  0.17120000000E+03 0.  0.
        998    1    1    2    0    0  0.58997663904E+01  0.10111409857E+02  0.13207142321E+04  0.13208039713E+04  0.10000000000E+02 0.  1.
</event>
<event>
 5    1  0.1535793E-008  0.3841739E+03  0.7957747E-01  0.3433183E+00
         13   -1    0    0    0    0  0.00000000000E+00  0.00000000000E+00  0.14999999963E+04  0.15000000000E+04  0.10566000000E+00 0. -1.
        994   -1    0    0    0    0 -0.00000000000E+00 -0.00000000000E+00  0.11368683772E-12  0.17120000000E+03  0.17120000000E+03 0.  0.
         13    1    1    2    0    0  0.78753353410E+00  0.13459388987E+02  0.43547609213E+02  0.45587068267E+02  0.10566000000E+00 0. -1.
        994    1    1    2    0    0 -0.35480256859E+01 -0.11519791960E+02  0.25200753312E+01  0.17164231667E+03  0.17120000000E+03 0.  0.
        998    1    1    2    0    0  0.27604921518E+01 -0.19395970276E+01  0.14539323117E+04  0.14539706151E+04  0.10000000000E+02 0. -1.
</event>
<event>
 5    1  0.1535793E-008  0.3818248E+03  0.7957747E-01  0.3443251E+00
         13   -1    0    0    0    0  0.00000000000E+00  0.00000000000E+00  0.14999999963E+04  0.15000000000E+04  0.10566000000E+00 0. -1.
        994   -1    0    0    0    0 -0.00000000000E+00 -0.00000000000E+00  0.11368683772E-12  0.17120000000E+03  0.17120000000E+03 0.  0.
         13    1    1    2    0    0  0.14260615490E+02  0.12769429875E+01 -0.17998122245E+01  0.14430738915E+02  0.10566000000E+00 0. -1.
        994    1    1    2    0    0  0.15596899712E+02 -0.12248482436E+02  0.18769164703E+02  0.17336380864E+03  0.17120000000E+03 0.  0.
        998    1    1    2    0    0 -0.29857515202E+02  0.10971539449E+02  0.14830306438E+04  0.14834054524E+04  0.10000000000E+02 0. -1.
</event>
<event>
 5    1  0.1535793E-008  0.3691108E+03  0.7957747E-01  0.3499988E+00
         13   -1    0    0    0    0  0.00000000000E+00  0.00000000000E+00  0.14999999963E+04  0.15000000000E+04  0.10566000000E+00 0.  1.
        994   -1    0    0    0    0 -0.00000000000E+00 -0.00000000000E+00  0.11368683772E-12  0.17120000000E+03  0.17120000000E+03 0.  0.
         13    1    1    2    0    0  0.28217852346E+02 -0.86954034642E+00  0.34890693444E+02  0.44881788561E+02  0.10566000000E+00 0.  1.
        994    1    1    2    0    0 -0.41872632953E+02  0.91951179863E+01  0.16135963625E+02  0.17722211179E+03  0.17120000000E+03 0.  0.
        998    1    1    2    0    0  0.13654780607E+02 -0.83255776398E+01  0.14489733392E+04  0.14490960996E+04  0.10000000000E+02 0.  1.
</event>
<event>
 5    1  0.1535793E-008  0.3832325E+03  0.7957747E-01  0.3437203E+00
         13   -1    0    0    0    0  0.00000000000E+00  0.00000000000E+00  0.14999999963E+04  0.15000000000E+04  0.10566000000E+00 0.  1.
        994   -1    0    0    0    0 -0.00000000000E+00 -0.00000000000E+00  0.11368683772E-12  0.17120000000E+03  0.17120000000E+03 0.  0.
         13    1    1    2    0    0  0.11640214335E+02  0.12962663609E+02  0.59944898276E+02  0.62425373295E+02  0.10566000000E+00 0.  1.
        994    1    1    2    0    0 -0.30028265787E+02  0.11621528776E+02  0.59469710009E+01  0.17430307840E+03  0.17120000000E+03 0.  0.
        998    1    1    2    0    0  0.18388051452E+02 -0.24584192385E+02  0.14341081270E+04  0.14344715483E+04  0.10000000000E+02 0.  1.
</event>
<event>
 5    1  0.1535793E-008  0.2864292E+03  0.7957747E-01  0.3997933E+00
         13   -1    0    0    0    0  0.00000000000E+00  0.00000000000E+00  0.14999999963E+04  0.15000000000E+04  0.10566000000E+00 0. -1.
        994   -1    0    0    0    0 -0.00000000000E+00 -0.00000000000E+00  0.11368683772E-12  0.17120000000E+03  0.17120000000E+03 0.  0.
         13    1    1    2    0    0  0.13361713509E+03  0.55798203467E+02  0.87545599418E+03  0.88735009281E+03  0.10566000000E+00 0. -1.
        994    1    1    2    0    0  0.19950257795E+02  0.48923642864E+01  0.40897091783E+02  0.17721162527E+03  0.17120000000E+03 0.  0.
        998    1    1    2    0    0 -0.15356739288E+03 -0.60690567753E+02  0.58364691031E+03  0.60663828192E+03  0.10000000000E+02 0. -1.
</event>
<event>
 5    1  0.1535793E-008  0.3713122E+03  0.7957747E-01  0.3489882E+00
         13   -1    0    0    0    0  0.00000000000E+00  0.00000000000E+00  0.14999999963E+04  0.15000000000E+04  0.10566000000E+00 0. -1.
        994   -1    0    0    0    0 -0.00000000000E+00 -0.00000000000E+00  0.11368683772E-12  0.17120000000E+03  0.17120000000E+03 0.  0.
         13    1    1    2    0    0 -0.87262258638E+02  0.47555030577E+02  0.40247081237E+03  0.41455873974E+03  0.10566000000E+00 0. -1.
        994    1    1    2    0    0  0.40425345212E+02 -0.62747273085E+02  0.31467978935E+02  0.18939668031E+03  0.17120000000E+03 0.  0.
        998    1    1    2    0    0  0.46836913425E+02  0.15192242508E+02  0.10660612050E+04  0.10672445799E+04  0.10000000000E+02 0. -1.
</event>
<event>
 5    1  0.1535793E-008  0.3767801E+03  0.7957747E-01  0.3465300E+00
         13   -1    0    0    0    0  0.00000000000E+00  0.00000000000E+00  0.14999999963E+04  0.15000000000E+04  0.10566000000E+00 0. -1.
        994   -1    0    0    0    0 -0.00000000000E+00 -0.00000000000E+00  0.11368683772E-12  0.17120000000E+03  0.17120000000E+03 0.  0.
         13    1    1    2    0    0 -0.99123487991E+01 -0.15298127035E+02  0.26432360949E+02  0.32108693821E+02  0.10566000000E+00 0. -1.
        994    1    1    2    0    0  0.57938649502E+01  0.10869607266E+02  0.62802514438E+01  0.17175738351E+03  0.17120000000E+03 0.  0.
        998    1    1    2    0    0  0.41184838489E+01  0.44285197689E+01  0.14672873839E+04  0.14673339227E+04  0.10000000000E+02 0. -1.
</event>
<event>
 5    1  0.1535793E-008  0.3841833E+03  0.7957747E-01  0.3433144E+00
         13   -1    0    0    0    0  0.00000000000E+00  0.00000000000E+00  0.14999999963E+04  0.15000000000E+04  0.10566000000E+00 0. -1.
        994   -1    0    0    0    0 -0.00000000000E+00 -0.00000000000E+00  0.11368683772E-12  0.17120000000E+03  0.17120000000E+03 0.  0.
         13    1    1    2    0    0  0.24914649316E+00 -0.85206668085E+02  0.21424886749E+03  0.23057065456E+03  0.10566000000E+00 0. -1.
        994    1    1    2    0    0 -0.21369848325E+02  0.23952442826E+02  0.22445321557E+02  0.17562352460E+03  0.17120000000E+03 0.  0.
        998    1    1    2    0    0  0.21120701832E+02  0.61254225260E+02  0.12633058072E+04  0.12650058208E+04  0.10000000000E+02 0. -1.
</event>
<event>
 5    1  0.1535793E-008  0.3846690E+03  0.7957747E-01  0.3431077E+00
         13   -1    0    0    0    0  0.00000000000E+00  0.00000000000E+00  0.14999999963E+04  0.15000000000E+04  0.10566000000E+00 0.  1.
        994   -1    0    0    0    0 -0.00000000000E+00 -0.00000000000E+00  0.11368683772E-12  0.17120000000E+03  0.17120000000E+03 0.  0.
         13    1    1    2    0    0 -0.12924848099E+02  0.27981611551E+01  0.48042347041E+02  0.49829305408E+02  0.10566000000E+00 0.  1.
        994    1    1    2    0    0  0.10901883491E+02 -0.14418578091E+00  0.21860318994E+01  0.17156074897E+03  0.17120000000E+03 0.  0.
        998    1    1    2    0    0  0.20229646085E+01 -0.26539753742E+01  0.14497716173E+04  0.14498099456E+04  0.10000000000E+02 0.  1.
</event>
<event>
 5    1  0.1535793E-008  0.3833389E+03  0.7957747E-01  0.3436748E+00
         13   -1    0    0    0    0  0.00000000000E+00  0.00000000000E+00  0.14999999963E+04  0.15000000000E+04  0.10566000000E+00 0.  1.
        994   -1    0    0    0    0 -0.00000000000E+00 -0.00000000000E+00  0.11368683772E-12  0.17120000000E+03  0.17120000000E+03 0.  0.
         13    1    1    2    0    0 -0.62317417267E+02 -0.26267435596E+02  0.37356369732E+03  0.37963572776E+03  0.10566000000E+00 0.  1.
        994    1    1    2    0    0  0.10133374601E+03  0.66378326049E+02  0.52593146979E+02  0.21621768975E+03  0.17120000000E+03 0.  0.
        998    1    1    2    0    0 -0.39016328746E+02 -0.40110890453E+02  0.10738431520E+04  0.10753465825E+04  0.10000000000E+02 0.  1.
</event>
<event>
 5    1  0.1535793E-008  0.3803845E+03  0.7957747E-01  0.3449486E+00
         13   -1    0    0    0    0  0.00000000000E+00  0.00000000000E+00  0.14999999963E+04  0.15000000000E+04  0.10566000000E+00 0.  1.
        994   -1    0    0    0    0 -0.00000000000E+00 -0.00000000000E+00  0.11368683772E-12  0.17120000000E+03  0.17120000000E+03 0.  0.
         13    1    1    2    0    0  0.40957560270E+01 -0.28537733857E+02  0.10187287252E+03  0.10587384375E+03  0.10566000000E+00 0.  1.
        994    1    1    2    0    0 -0.49816854347E+01  0.21211869812E+02  0.55258620458E+01  0.17266944073E+03  0.17120000000E+03 0.  0.
        998    1    1    2    0    0  0.88592940765E+00  0.73258640455E+01  0.13926012617E+04  0.13926567155E+04  0.10000000000E+02 0.  1.
</event>
<event>
 5    1  0.1535793E-008  0.3856989E+03  0.7957747E-01  0.3426714E+00
         13   -1    0    0    0    0  0.00000000000E+00  0.00000000000E+00  0.14999999963E+04  0.15000000000E+04  0.10566000000E+00 0. -1.
        994   -1    0    0    0    0 -0.00000000000E+00 -0.00000000000E+00  0.11368683772E-12  0.17120000000E+03  0.17120000000E+03 0.  0.
         13    1    1    2    0    0 -0.11896940131E+02 -0.63466261112E+01  0.80369941583E+02  0.81493285132E+02  0.10566000000E+00 0. -1.
        994    1    1    2    0    0 -0.54474858782E+01 -0.21874344315E+01  0.13966253591E+01  0.17130630617E+03  0.17120000000E+03 0.  0.
        998    1    1    2    0    0  0.17344426009E+02  0.85340605426E+01  0.14182334293E+04  0.14184004087E+04  0.10000000000E+02 0. -1.
</event>
<event>
 5    1  0.1535793E-008  0.3744551E+03  0.7957747E-01  0.3475663E+00
         13   -1    0    0    0    0  0.00000000000E+00  0.00000000000E+00  0.14999999963E+04  0.15000000000E+04  0.10566000000E+00 0.  1.
        994   -1    0    0    0    0 -0.00000000000E+00 -0.00000000000E+00  0.11368683772E-12  0.17120000000E+03  0.17120000000E+03 0.  0.
         13    1    1    2    0    0  0.11656657466E+02  0.49071944116E+02  0.15308278337E+03  0.16117779962E+03  0.10566000000E+00 0.  1.
        994    1    1    2    0    0 -0.33057268162E+02 -0.56480929470E+02  0.21686894197E+02  0.18456066686E+03  0.17120000000E+03 0.  0.
        998    1    1    2    0    0  0.21400610696E+02  0.74089853539E+01  0.13252303187E+04  0.13254615335E+04  0.10000000000E+02 0.  1.
</event>
<event>
 5    1  0.1648426E-008  0.3857834E+03  0.7957747E-01  0.3426357E+00
         13   -1    0    0    0    0  0.00000000000E+00  0.00000000000E+00  0.14999999963E+04  0.15000000000E+04  0.10566000000E+00 0. -1.
        994   -1    0    0    0    0 -0.00000000000E+00 -0.00000000000E+00  0.11368683772E-12  0.17120000000E+03  0.17120000000E+03 0.  0.
         13    1    1    2    0    0 -0.15246701702E+02 -0.14376069219E+01  0.90614736199E+02  0.91899783498E+02  0.10566000000E+00 0. -1.
        994    1    1    2    0    0  0.15552850525E+02  0.28999025929E+01  0.20632077219E+01  0.17194184313E+03  0.17120000000E+03 0.  0.
        998    1    1    2    0    0 -0.30614882306E+00 -0.14622956710E+01  0.14073220524E+04  0.14073583734E+04  0.10000000000E+02 0. -1.
</event>
<event>
 5    1  0.1535793E-008  0.3844857E+03  0.7957747E-01  0.3431856E+00
         13   -1    0    0    0    0  0.00000000000E+00  0.00000000000E+00  0.14999999963E+04  0.15000000000E+04  0.10566000000E+00 0. -1.
        994   -1    0    0    0    0 -0.00000000000E+00 -0.00000000000E+00  0.11368683772E-12  0.17120000000E+03  0.17120000000E+03 0.  0.
         13    1    1    2    0    0  0.65941701615E+01 -0.13136031282E+02  0.59342742530E+02  0.61136001284E+02  0.10566000000E+00 0. -1.
        994    1    1    2    0    0 -0.65952814922E+01 -0.22099307535E+00  0.20291634316E+01  0.17133914929E+03  0.17120000000E+03 0.  0.
        998    1    1    2    0    0  0.11113307752E-02  0.13357024358E+02  0.14386280903E+04  0.14387248494E+04  0.10000000000E+02 0. -1.
</event>
<event>
 5    1  0.1535793E-008  0.2472979E+03  0.7957747E-01  0.4362970E+00
         13   -1    0    0    0    0  0.00000000000E+00  0.00000000000E+00  0.14999999963E+04  0.15000000000E+04  0.10566000000E+00 0. -1.
        994   -1    0    0    0    0 -0.00000000000E+00 -0.00000000000E+00  0.11368683772E-12  0.17120000000E+03  0.17120000000E+03 0.  0.
         13    1    1    2    0    0  0.91884519422E+02  0.13676114082E+03  0.10819745298E+03  0.19711183258E+03  0.10566000000E+00 0. -1.
        994    1    1    2    0    0 -0.92124628555E+02 -0.19153789738E+02  0.21156595333E+03  0.28796424683E+03  0.17120000000E+03 0.  0.
        998    1    1    2    0    0  0.24010913345E+00 -0.11760735108E+03  0.11802365900E+04  0.11861239206E+04  0.10000000000E+02 0. -1.
</event>
<event>
 5    1  0.1535793E-008  0.3831702E+03  0.7957747E-01  0.3437470E+00
         13   -1    0    0    0    0  0.00000000000E+00  0.00000000000E+00  0.14999999963E+04  0.15000000000E+04  0.10566000000E+00 0. -1.
        994   -1    0    0    0    0 -0.00000000000E+00 -0.00000000000E+00  0.11368683772E-12  0.17120000000E+03  0.17120000000E+03 0.  0.
         13    1    1    2    0    0 -0.28510359432E+02 -0.13283685102E+02  0.18288518057E+03  0.18557019513E+03  0.10566000000E+00 0. -1.
        994    1    1    2    0    0  0.27092291844E+02  0.19413851499E+01  0.49858787054E+01  0.17341297599E+03  0.17120000000E+03 0.  0.
        998    1    1    2    0    0  0.14180675886E+01  0.11342299952E+02  0.13121289370E+04  0.13122168289E+04  0.10000000000E+02 0. -1.
</event>
<event>
 5    1  0.1535793E-008  0.3838666E+03  0.7957747E-01  0.3434493E+00
         13   -1    0    0    0    0  0.00000000000E+00  0.00000000000E+00  0.14999999963E+04  0.15000000000E+04  0.10566000000E+00 0. -1.
        994   -1    0    0    0    0 -0.00000000000E+00 -0.00000000000E+00  0.11368683772E-12  0.17120000000E+03  0.17120000000E+03 0.  0.
         13    1    1    2    0    0 -0.85278716994E+01 -0.68968650388E+01  0.25796345927E+02  0.28031303400E+02  0.10566000000E+00 0. -1.
        994    1    1    2    0    0  0.10464811262E+02  0.14899036713E+02  0.32888222025E+01  0.17219683482E+03  0.17120000000E+03 0.  0.
        998    1    1    2    0    0 -0.19369395628E+01 -0.80021716737E+01  0.14709148281E+04  0.14709718618E+04  0.10000000000E+02 0. -1.
</event>
<event>
 5    1  0.1535793E-008  0.3850720E+03  0.7957747E-01  0.3429367E+00
         13   -1    0    0    0    0  0.00000000000E+00  0.00000000000E+00  0.14999999963E+04  0.15000000000E+04  0.10566000000E+00 0.  1.
        994   -1    0    0    0    0 -0.00000000000E+00 -0.00000000000E+00  0.11368683772E-12  0.17120000000E+03  0.17120000000E+03 0.  0.
         13    1    1    2    0    0  0.14883333190E+02  0.97424374918E+01  0.10758508034E+03  0.10904581317E+03  0.10566000000E+00 0.  1.
        994    1    1    2    0    0  0.23280836741E+01 -0.70847974652E+01  0.17772899222E+01  0.17137156441E+03  0.17120000000E+03 0.  0.
        998    1    1    2    0    0 -0.17211416864E+02 -0.26576400267E+01  0.13906376260E+04  0.13907826224E+04  0.10000000000E+02 0.  1.
</event>
<event>
 5    1  0.1535793E-008  0.3819310E+03  0.7957747E-01  0.3442793E+00
         13   -1    0    0    0    0  0.00000000000E+00  0.00000000000E+00  0.14999999963E+04  0.15000000000E+04  0.10566000000E+00 0. -1.
        994   -1    0    0    0    0 -0.00000000000E+00 -0.00000000000E+00  0.11368683772E-12  0.17120000000E+03  0.17120000000E+03 0.  0.
         13    1    1    2    0    0 -0.17745347410E+01 -0.15367964794E+02  0.38832451623E+02  0.41800643279E+02  0.10566000000E+00 0. -1.
        994    1    1    2    0    0 -0.34131813752E+01 -0.41343593714E+01  0.32570317334E+01  0.17131488841E+03  0.17120000000E+03 0.  0.
        998    1    1    2    0    0  0.51877161163E+01  0.19502324165E+02  0.14579105129E+04  0.14580844683E+04  0.10000000000E+02 0. -1.
</event>
<event>
 5    1  0.1535793E-008  0.3833386E+03  0.7957747E-01  0.3436749E+00
         13   -1    0    0    0    0  0.00000000000E+00  0.00000000000E+00  0.14999999963E+04  0.15000000000E+04  0.10566000000E+00 0. -1.
        994   -1    0    0    0    0 -0.00000000000E+00 -0.00000000000E+00  0.11368683772E-12  0.17120000000E+03  0.17120000000E+03 0.  0.
         13    1    1    2    0    0  0.51080919905E+02  0.30422950570E+02  0.85307798159E+02  0.10398195945E+03  0.10566000000E+00 0. -1.
        994    1    1    2    0    0 -0.53528840693E+02 -0.33084403789E+02  0.32848168416E+02  0.18533309669E+03  0.17120000000E+03 0.  0.
        998    1    1    2    0    0  0.24479207881E+01  0.26614532194E+01  0.13818440297E+04  0.13818849439E+04  0.10000000000E+02 0. -1.
</event>
<event>
 5    1  0.1535793E-008  0.3718180E+03  0.7957747E-01  0.3487577E+00
         13   -1    0    0    0    0  0.00000000000E+00  0.00000000000E+00  0.14999999963E+04  0.15000000000E+04  0.10566000000E+00 0.  1.
        994   -1    0    0    0    0 -0.00000000000E+00 -0.00000000000E+00  0.11368683772E-12  0.17120000000E+03  0.17120000000E+03 0.  0.
         13    1    1    2    0    0  0.17673511964E+02 -0.18377426612E+01  0.79289192243E+01  0.19457883938E+02  0.10566000000E+00 0.  1.
        994    1    1    2    0    0 -0.14837807329E+02 -0.24130772802E+01  0.12698842022E+02  0.17232725860E+03  0.17120000000E+03 0.  0.
        998    1    1    2    0    0 -0.28357046355E+01  0.42508199414E+01  0.14793722350E+04  0.14794148575E+04  0.10000000000E+02 0.  1.
</event>
<event>
 5    1  0.1535793E-008  0.3827849E+03  0.7957747E-01  0.3439121E+00
         13   -1    0    0    0    0  0.00000000000E+00  0.00000000000E+00  0.14999999963E+04  0.15000000000E+04  0.10566000000E+00 0.  1.
        994   -1    0    0    0    0 -0.00000000000E+00 -0.00000000000E+00  0.11368683772E-12  0.17120000000E+03  0.17120000000E+03 0.  0.
         13    1    1    2    0    0  0.18742507154E+02  0.28999690547E+02  0.18858584753E+03  0.19172088222E+03  0.10566000000E+00 0.  1.
        994    1    1    2    0    0 -0.21095791630E+02 -0.30308163547E+02  0.72639768313E+01  0.17528782776E+03  0.17120000000E+03 0.  0.
        998    1    1    2    0    0  0.23532844762E+01  0.13084729998E+01  0.13041501719E+04  0.13041912900E+04  0.10000000000E+02 0.  1.
</event>
<event>
 5    1  0.1535793E-008  0.3861930E+03  0.7957747E-01  0.3424628E+00
         13   -1    0    0    0    0  0.00000000000E+00  0.00000000000E+00  0.14999999963E+04  0.15000000000E+04  0.10566000000E+00 0.  1.
        994   -1    0    0    0    0 -0.00000000000E+00 -0.00000000000E+00  0.11368683772E-12  0.17120000000E+03  0.17120000000E+03 0.  0.
         13    1    1    2    0    0 -0.41632034896E+01  0.11138430405E+02  0.66729345378E+02  0.67780628455E+02  0.10566000000E+00 0.  1.
        994    1    1    2    0    0 -0.37869297957E+01 -0.14636698407E+02  0.17881269174E+01  0.17187556887E+03  0.17120000000E+03 0.  0.
        998    1    1    2    0    0  0.79501332853E+01  0.34982680019E+01  0.14314825240E+04  0.14315438027E+04  0.10000000000E+02 0.  1.
</event>
<event>
 5    1  0.1535793E-008  0.3786956E+03  0.7957747E-01  0.3456858E+00
         13   -1    0    0    0    0  0.00000000000E+00  0.00000000000E+00  0.14999999963E+04  0.15000000000E+04  0.10566000000E+00 0.  1.
        994   -1    0    0    0    0 -0.00000000000E+00 -0.00000000000E+00  0.11368683772E-12  0.17120000000E+03  0.17120000000E+03 0.  0.
         13    1    1    2    0    0 -0.22317508305E+02 -0.22706916195E+02  0.95822371537E+02  0.10097332950E+03  0.10566000000E+00 0.  1.
        994    1    1    2    0    0  0.27998314162E+02  0.24249418508E+02  0.94129743425E+01  0.17541375083E+03  0.17120000000E+03 0.  0.
        998    1    1    2    0    0 -0.56808058577E+01 -0.15425023126E+01  0.13947646504E+04  0.13948129197E+04  0.10000000000E+02 0.  1.
</event>
<event>
 5    1  0.1535793E-008  0.3767591E+03  0.7957747E-01  0.3465393E+00
         13   -1    0    0    0    0  0.00000000000E+00  0.00000000000E+00  0.14999999963E+04  0.15000000000E+04  0.10566000000E+00 0.  1.
        994   -1    0    0    0    0 -0.00000000000E+00 -0.00000000000E+00  0.11368683772E-12  0.17120000000E+03  0.17120000000E+03 0.  0.
         13    1    1    2    0    0  0.39820267224E+02 -0.55620752939E+02  0.15569581795E+03  0.17006034438E+03  0.10566000000E+00 0.  1.
        994    1    1    2    0    0 -0.34630711074E+02  0.28704397078E+02  0.21838863218E+02  0.17835247267E+03  0.17120000000E+03 0.  0.
        998    1    1    2    0    0 -0.51895561497E+01  0.26916355861E+02  0.13224653151E+04  0.13227871829E+04  0.10000000000E+02 0.  1.
</event>
<event>
 5    1  0.1535793E-008  0.3786118E+03  0.7957747E-01  0.3457226E+00
         13   -1    0    0    0    0  0.00000000000E+00  0.00000000000E+00  0.14999999963E+04  0.15000000000E+04  0.10566000000E+00 0.  1.
        994   -1    0    0    0    0 -0.00000000000E+00 -0.00000000000E+00  0.11368683772E-12  0.17120000000E+03  0.17120000000E+03 0.  0.
         13    1    1    2    0    0 -0.36219326441E+02 -0.18204853795E+02  0.19176080729E+03  0.19599865991E+03  0.10566000000E+00 0.  1.
        994    1    1    2    0    0  0.11805070187E+02 -0.12646640707E+02  0.58413399777E+01  0.17217101514E+03  0.17120000000E+03 0.  0.
        998    1    1    2    0    0  0.24414256253E+02  0.30851494502E+02  0.13023978490E+04  0.13030303249E+04  0.10000000000E+02 0.  1.
</event>
<event>
 5    1  0.1535793E-008  0.3855044E+03  0.7957747E-01  0.3427536E+00
         13   -1    0    0    0    0  0.00000000000E+00  0.00000000000E+00  0.14999999963E+04  0.15000000000E+04  0.10566000000E+00 0.  1.
        994   -1    0    0    0    0 -0.00000000000E+00 -0.00000000000E+00  0.11368683772E-12  0.17120000000E+03  0.17120000000E+03 0.  0.
         13    1    1    2    0    0  0.86246027130E+01 -0.17220500627E+02  0.18508781007E-01  0.19259826593E+02  0.10566000000E+00 0.  1.
        994    1    1    2    0    0 -0.86940972274E+02  0.21445561239E+02  0.49686279915E+02  0.19949138119E+03  0.17120000000E+03 0.  0.
        998    1    1    2    0    0  0.78316369561E+02 -0.42250606122E+01  0.14502952076E+04  0.14524487922E+04  0.10000000000E+02 0.  1.
</event>
<event>
 5    1  0.1535793E-008  0.3789858E+03  0.7957747E-01  0.3455586E+00
         13   -1    0    0    0    0  0.00000000000E+00  0.00000000000E+00  0.14999999963E+04  0.15000000000E+04  0.10566000000E+00 0.  1.
        994   -1    0    0    0    0 -0.00000000000E+00 -0.00000000000E+00  0.11368683772E-12  0.17120000000E+03  0.17120000000E+03 0.  0.
         13    1    1    2    0    0 -0.34603392609E+02 -0.14380694638E+02  0.16838628602E+03  0.17250551192E+03  0.10566000000E+00 0.  1.
        994    1    1    2    0    0  0.13555905194E+02 -0.21124032225E+02  0.67619307812E+01  0.17316221011E+03  0.17120000000E+03 0.  0.
        998    1    1    2    0    0  0.21047487416E+02  0.35504726862E+02  0.13248517795E+04  0.13255322780E+04  0.10000000000E+02 0.  1.
</event>
<event>
 5    1  0.1535793E-008  0.3836475E+03  0.7957747E-01  0.3435429E+00
         13   -1    0    0    0    0  0.00000000000E+00  0.00000000000E+00  0.14999999963E+04  0.15000000000E+04  0.10566000000E+00 0.  1.
        994   -1    0    0    0    0 -0.00000000000E+00 -0.00000000000E+00  0.11368683772E-12  0.17120000000E+03  0.17120000000E+03 0.  0.
         13    1    1    2    0    0 -0.10864142503E+02 -0.13182882341E+02  0.62710434925E+02  0.64995598248E+02  0.10566000000E+00 0.  1.
        994    1    1    2    0    0  0.14107451454E+02  0.31965013327E+01  0.29945501167E+01  0.17183609963E+03  0.17120000000E+03 0.  0.
        998    1    1    2    0    0 -0.32433089512E+01  0.99863810082E+01  0.14342950112E+04  0.14343683021E+04  0.10000000000E+02 0.  1.
</event>
<event>
 5    1  0.1535793E-008  0.3810635E+03  0.7957747E-01  0.3446541E+00
         13   -1    0    0    0    0  0.00000000000E+00  0.00000000000E+00  0.14999999963E+04  0.15000000000E+04  0.10566000000E+00 0. -1.
        994   -1    0    0    0    0 -0.00000000000E+00 -0.00000000000E+00  0.11368683772E-12  0.17120000000E+03  0.17120000000E+03 0.  0.
         13    1    1    2    0    0 -0.35187442043E+02 -0.58747049439E+00  0.19655505571E+03  0.19968075092E+03  0.10566000000E+00 0. -1.
        994    1    1    2    0    0  0.29801995749E+01  0.19839536387E+01  0.36399725278E+01  0.17127611352E+03  0.17120000000E+03 0.  0.
        998    1    1    2    0    0  0.32207242468E+02 -0.13964831443E+01  0.12998049680E+04  0.13002431356E+04  0.10000000000E+02 0. -1.
</event>
<event>
 5    1  0.3299855E-008  0.3863557E+03  0.7957747E-01  0.3423943E+00
         13   -1    0    0    0    0  0.00000000000E+00  0.00000000000E+00  0.14999999963E+04  0.15000000000E+04  0.10566000000E+00 0. -1.
        994   -1    0    0    0    0 -0.00000000000E+00 -0.00000000000E+00  0.11368683772E-12  0.17120000000E+03  0.17120000000E+03 0.  0.
         13    1    1    2    0    0 -0.98407965041E+00 -0.10128639452E+02  0.54631367149E+02  0.55571172297E+02  0.10566000000E+00 0. -1.
        994    1    1    2    0    0 -0.12975161150E+01  0.79850960359E+01  0.11728587287E+01  0.17139504341E+03  0.17120000000E+03 0.  0.
        998    1    1    2    0    0  0.22815957654E+01  0.21435434161E+01  0.14441957704E+04  0.14442337843E+04  0.10000000000E+02 0. -1.
</event>
<event>
 5    1  0.1535793E-008  0.3788860E+03  0.7957747E-01  0.3456023E+00
         13   -1    0    0    0    0  0.00000000000E+00  0.00000000000E+00  0.14999999963E+04  0.15000000000E+04  0.10566000000E+00 0.  1.
        994   -1    0    0    0    0 -0.00000000000E+00 -0.00000000000E+00  0.11368683772E-12  0.17120000000E+03  0.17120000000E+03 0.  0.
         13    1    1    2    0    0  0.25506619340E+02 -0.23519677908E+02  0.15345626637E+03  0.15732958949E+03  0.10566000000E+00 0.  1.
        994    1    1    2    0    0  0.10432718584E+02 -0.40547111380E+01  0.51169999715E+01  0.17164179557E+03  0.17120000000E+03 0.  0.
        998    1    1    2    0    0 -0.35939337924E+02  0.27574389046E+02  0.13414267299E+04  0.13422286149E+04  0.10000000000E+02 0.  1.
</event>
<event>
 5    1  0.1535793E-008  0.3778527E+03  0.7957747E-01  0.3460562E+00
         13   -1    0    0    0    0  0.00000000000E+00  0.00000000000E+00  0.14999999963E+04  0.15000000000E+04  0.10566000000E+00 0. -1.
        994   -1    0    0    0    0 -0.00000000000E+00 -0.00000000000E+00  0.11368683772E-12  0.17120000000E+03  0.17120000000E+03 0.  0.
         13    1    1    2    0    0  0.55706266166E+02 -0.25348580357E+02  0.26581234928E+03  0.27276721726E+03  0.10566000000E+00 0. -1.
        994    1    1    2    0    0 -0.68876985301E+02  0.27937887631E+02  0.24052826831E+02  0.18818220731E+03  0.17120000000E+03 0.  0.
        998    1    1    2    0    0  0.13170719135E+02 -0.25893072734E+01  0.12101348202E+04  0.12102505754E+04  0.10000000000E+02 0. -1.
</event>
<event>
 5    1  0.1535793E-008  0.3825676E+03  0.7957747E-01  0.3440054E+00
         13   -1    0    0    0    0  0.00000000000E+00  0.00000000000E+00  0.14999999963E+04  0.15000000000E+04  0.10566000000E+00 0. -1.
        994   -1    0    0    0    0 -0.00000000000E+00 -0.00000000000E+00  0.11368683772E-12  0.17120000000E+03  0.17120000000E+03 0.  0.
         13    1    1    2    0    0  0.25038707548E+02 -0.16193234888E+02  0.14541908360E+03  0.14844486778E+03  0.10566000000E+00 0. -1.
        994    1    1    2    0    0 -0.27189410411E+02  0.77557813591E+01  0.54970273382E+01  0.17360608714E+03  0.17120000000E+03 0.  0.
        998    1    1    2    0    0  0.21507028632E+01  0.84374535286E+01  0.13490838853E+04  0.13491490451E+04  0.10000000000E+02 0. -1.
</event>
<event>
 5    1  0.1535793E-008  0.3789696E+03  0.7957747E-01  0.3455657E+00
         13   -1    0    0    0    0  0.00000000000E+00  0.00000000000E+00  0.14999999963E+04  0.15000000000E+04  0.10566000000E+00 0. -1.
        994   -1    0    0    0    0 -0.00000000000E+00 -0.00000000000E+00  0.11368683772E-12  0.17120000000E+03  0.17120000000E+03 0.  0.
         13    1    1    2    0    0  0.47933179914E+02  0.26934206686E+02  0.23018242030E+03  0.23665797896E+03  0.10566000000E+00 0. -1.
        994    1    1    2    0    0 -0.74051009193E+02 -0.28820338055E+02  0.26134315557E+02  0.19054292508E+03  0.17120000000E+03 0.  0.
        998    1    1    2    0    0  0.26117829279E+02  0.18861313691E+01  0.12436832604E+04  0.12439990960E+04  0.10000000000E+02 0. -1.
</event>
<event>
 5    1  0.1535793E-008  0.3829156E+03  0.7957747E-01  0.3438561E+00
         13   -1    0    0    0    0  0.00000000000E+00  0.00000000000E+00  0.14999999963E+04  0.15000000000E+04  0.10566000000E+00 0. -1.
        994   -1    0    0    0    0 -0.00000000000E+00 -0.00000000000E+00  0.11368683772E-12  0.17120000000E+03  0.17120000000E+03 0.  0.
         13    1    1    2    0    0  0.18631689638E+02 -0.13352221216E+02  0.10313290668E+03  0.10564955880E+03  0.10566000000E+00 0. -1.
        994    1    1    2    0    0 -0.57242761027E+01  0.18145049512E+01  0.27879723755E+01  0.17132796781E+03  0.17120000000E+03 0.  0.
        998    1    1    2    0    0 -0.12907413536E+02  0.11537716265E+02  0.13940791172E+04  0.13942224734E+04  0.10000000000E+02 0. -1.
</event>
<event>
 5    1  0.1535793E-008  0.3756560E+03  0.7957747E-01  0.3470294E+00
         13   -1    0    0    0    0  0.00000000000E+00  0.00000000000E+00  0.14999999963E+04  0.15000000000E+04  0.10566000000E+00 0.  1.
        994   -1    0    0    0    0 -0.00000000000E+00 -0.00000000000E+00  0.11368683772E-12  0.17120000000E+03  0.17120000000E+03 0.  0.
         13    1    1    2    0    0 -0.84657458736E+01 -0.15841526520E+02  0.52659411437E+01  0.18718015810E+02  0.10566000000E+00 0.  1.
        994    1    1    2    0    0  0.75615638480E+01  0.14143671546E+02  0.14879266603E+02  0.17259215877E+03  0.17120000000E+03 0.  0.
        998    1    1    2    0    0  0.90418202556E+00  0.16978549741E+01  0.14798547885E+04  0.14798898254E+04  0.10000000000E+02 0.  1.
</event>
<event>
 5    1  0.1535793E-008  0.3751208E+03  0.7957747E-01  0.3472683E+00
         13   -1    0    0    0    0  0.00000000000E+00  0.00000000000E+00  0.14999999963E+04  0.15000000000E+04  0.10566000000E+00 0. -1.
        994   -1    0    0    0    0 -0.00000000000E+00 -0.00000000000E+00  0.11368683772E-12  0.17120000000E+03  0.17120000000E+03 0.  0.
         13    1    1    2    0    0 -0.13449079768E+02  0.41814477553E+01  0.12021583772E+02  0.18517340316E+02  0.10566000000E+00 0. -1.
        994    1    1    2    0    0  0.96410462587E+01 -0.65792968316E+01  0.70797661745E+01  0.17174341329E+03  0.17120000000E+03 0.  0.
        998    1    1    2    0    0  0.38080335096E+01  0.23978490763E+01  0.14808986463E+04  0.14809392464E+04  0.10000000000E+02 0. -1.
</event>
<event>
 5    1  0.1535793E-008  0.3856740E+03  0.7957747E-01  0.3426819E+00
         13   -1    0    0    0    0  0.00000000000E+00  0.00000000000E+00  0.14999999963E+04  0.15000000000E+04  0.10566000000E+00 0.  1.
        994   -1    0    0    0    0 -0.00000000000E+00 -0.00000000000E+00  0.11368683772E-12  0.17120000000E+03  0.17120000000E+03 0.  0.
         13    1    1    2    0    0  0.32647099924E+00 -0.13279296123E+02  0.69780770521E+02  0.71033889006E+02  0.10566000000E+00 0.  1.
        994    1    1    2    0    0 -0.54441745351E+01  0.63046877728E+01  0.15236047464E+01  0.17140930399E+03  0.17120000000E+03 0.  0.
        998    1    1    2    0    0  0.51177035359E+01  0.69746083500E+01  0.14286956210E+04  0.14287568070E+04  0.10000000000E+02 0.  1.
</event>
<event>
 5    1  0.1535793E-008  0.3834274E+03  0.7957747E-01  0.3436369E+00
         13   -1    0    0    0    0  0.00000000000E+00  0.00000000000E+00  0.14999999963E+04  0.15000000000E+04  0.10566000000E+00 0.  1.
        994   -1    0    0    0    0 -0.00000000000E+00 -0.00000000000E+00  0.11368683772E-12  0.17120000000E+03  0.17120000000E+03 0.  0.
         13    1    1    2    0    0  0.52131669467E+00 -0.13336153889E+02  0.34264803493E+02  0.36772444766E+02  0.10566000000E+00 0.  1.
        994    1    1    2    0    0 -0.38589448049E+02  0.21791721809E+02  0.89322662230E+01  0.17706848963E+03  0.17120000000E+03 0.  0.
        998    1    1    2    0    0  0.38068131355E+02 -0.84555679199E+01  0.14568029266E+04  0.14573590656E+04  0.10000000000E+02 0.  1.
</event>
<event>
 5    1  0.1535793E-008  0.3707075E+03  0.7957747E-01  0.3492646E+00
         13   -1    0    0    0    0  0.00000000000E+00  0.00000000000E+00  0.14999999963E+04  0.15000000000E+04  0.10566000000E+00 0.  1.
        994   -1    0    0    0    0 -0.00000000000E+00 -0.00000000000E+00  0.11368683772E-12  0.17120000000E+03  0.17120000000E+03 0.  0.
         13    1    1    2    0    0 -0.71399256708E+02  0.43346444574E+02  0.25642131595E+03  0.26968253661E+03  0.10566000000E+00 0.  1.
        994    1    1    2    0    0  0.47473443684E+02 -0.79534820416E+02  0.42020548060E+02  0.19913483365E+03  0.17120000000E+03 0.  0.
        998    1    1    2    0    0  0.23925813024E+02  0.36188375842E+02  0.12015581323E+04  0.12023826297E+04  0.10000000000E+02 0.  1.
</event>
<event>
 5    1  0.1535793E-008  0.3825253E+03  0.7957747E-01  0.3440236E+00
         13   -1    0    0    0    0  0.00000000000E+00  0.00000000000E+00  0.14999999963E+04  0.15000000000E+04  0.10566000000E+00 0. -1.
        994   -1    0    0    0    0 -0.00000000000E+00 -0.00000000000E+00  0.11368683772E-12  0.17120000000E+03  0.17120000000E+03 0.  0.
         13    1    1    2    0    0 -0.17580240279E+01 -0.22500803966E+02  0.96277456166E+02  0.98887494444E+02  0.10566000000E+00 0. -1.
        994    1    1    2    0    0 -0.14197917389E+02  0.56712229840E+00  0.35334098640E+01  0.17182499082E+03  0.17120000000E+03 0.  0.
        998    1    1    2    0    0  0.15955941417E+02  0.21933681667E+02  0.14001891302E+04  0.14004875147E+04  0.10000000000E+02 0. -1.
</event>
<event>
 5    1  0.1535793E-008  0.3809814E+03  0.7957747E-01  0.3446896E+00
         13   -1    0    0    0    0  0.00000000000E+00  0.00000000000E+00  0.14999999963E+04  0.15000000000E+04  0.10566000000E+00 0.  1.
        994   -1    0    0    0    0 -0.00000000000E+00 -0.00000000000E+00  0.11368683772E-12  0.17120000000E+03  0.17120000000E+03 0.  0.
         13    1    1    2    0    0 -0.20085489234E+02 -0.32176505905E+02  0.20824233964E+03  0.21166869771E+03  0.10566000000E+00 0.  1.
        994    1    1    2    0    0  0.20911677852E+02  0.47797643658E+01  0.51733210871E+01  0.17261618600E+03  0.17120000000E+03 0.  0.
        998    1    1    2    0    0 -0.82618861746E+00  0.27396741539E+02  0.12865843356E+04  0.12869151163E+04  0.10000000000E+02 0.  1.
</event>
<event>
 5    1  0.1535793E-008  0.3784151E+03  0.7957747E-01  0.3458089E+00
         13   -1    0    0    0    0  0.00000000000E+00  0.00000000000E+00  0.14999999963E+04  0.15000000000E+04  0.10566000000E+00 0.  1.
        994   -1    0    0    0    0 -0.00000000000E+00 -0.00000000000E+00  0.11368683772E-12  0.17120000000E+03  0.17120000000E+03 0.  0.
         13    1    1    2    0    0 -0.10060246694E+01  0.11629150638E+02  0.11619535121E+02  0.16470397404E+02  0.10566000000E+00 0.  1.
        994    1    1    2    0    0  0.62249020869E+00 -0.83365395365E+01  0.51702152412E+01  0.17148194223E+03  0.17120000000E+03 0.  0.
        998    1    1    2    0    0  0.38353446074E+00 -0.32926111016E+01  0.14832102459E+04  0.14832476604E+04  0.10000000000E+02 0.  1.
</event>
<event>
 5    1  0.1535793E-008  0.3826843E+03  0.7957747E-01  0.3439553E+00
         13   -1    0    0    0    0  0.00000000000E+00  0.00000000000E+00  0.14999999963E+04  0.15000000000E+04  0.10566000000E+00 0. -1.
        994   -1    0    0    0    0 -0.00000000000E+00 -0.00000000000E+00  0.11368683772E-12  0.17120000000E+03  0.17120000000E+03 0.  0.
         13    1    1    2    0    0 -0.60633427639E+01 -0.29066526116E+02  0.17309209091E+03  0.17562035807E+03  0.10566000000E+00 0. -1.
        994    1    1    2    0    0  0.17169547748E+01  0.59656767402E+01  0.29119285645E+01  0.17133725970E+03  0.17120000000E+03 0.  0.
        998    1    1    2    0    0  0.43463879891E+01  0.23100849376E+02  0.13239959768E+04  0.13242423822E+04  0.10000000000E+02 0. -1.
</event>
<event>
 5    1  0.1535793E-008  0.4050964E+03  0.7957747E-01  0.3348670E+00
         13   -1    0    0    0    0  0.00000000000E+00  0.00000000000E+00  0.14999999963E+04  0.15000000000E+04  0.10566000000E+00 0.  1.
        994   -1    0    0    0    0 -0.00000000000E+00 -0.00000000000E+00  0.11368683772E-12  0.17120000000E+03  0.17120000000E+03 0.  0.
         13    1    1    2    0    0  0.30484523940E+02  0.10725642081E+03  0.19376092682E+03  0.22355436460E+03  0.10566000000E+00 0.  1.
        994    1    1    2    0    0  0.17578438957E+02 -0.81659023006E+02  0.59341557667E+02  0.19951956801E+03  0.17120000000E+03 0.  0.
        998    1    1    2    0    0 -0.48062962897E+02 -0.25597397806E+02  0.12468975118E+04  0.12481260674E+04  0.10000000000E+02 0.  1.
</event>
<event>
 5    1  0.1535793E-008  0.3799939E+03  0.7957747E-01  0.3451185E+00
         13   -1    0    0    0    0  0.00000000000E+00  0.00000000000E+00  0.14999999963E+04  0.15000000000E+04  0.10566000000E+00 0. -1.
        994   -1    0    0    0    0 -0.00000000000E+00 -0.00000000000E+00  0.11368683772E-12  0.17120000000E+03  0.17120000000E+03 0.  0.
         13    1    1    2    0    0  0.40091156000E+02 -0.36278501104E+01  0.18912374943E+03  0.19336045575E+03  0.10566000000E+00 0. -1.
        994    1    1    2    0    0 -0.28511984202E+02 -0.10506731403E+02  0.72290231951E+01  0.17402592745E+03  0.17120000000E+03 0.  0.
        998    1    1    2    0    0 -0.11579171798E+02  0.14134581513E+02  0.13036472237E+04  0.13038136168E+04  0.10000000000E+02 0. -1.
</event>
<event>
 5    1  0.1535793E-008  0.3842504E+03  0.7957747E-01  0.3432858E+00
         13   -1    0    0    0    0  0.00000000000E+00  0.00000000000E+00  0.14999999963E+04  0.15000000000E+04  0.10566000000E+00 0. -1.
        994   -1    0    0    0    0 -0.00000000000E+00 -0.00000000000E+00  0.11368683772E-12  0.17120000000E+03  0.17120000000E+03 0.  0.
         13    1    1    2    0    0 -0.17596042118E+02  0.12738910067E+02  0.11377128987E+03  0.11582667262E+03  0.10566000000E+00 0. -1.
        994    1    1    2    0    0  0.18156599042E+02 -0.52647478936E+01  0.31818121767E+01  0.17226997297E+03  0.17120000000E+03 0.  0.
        998    1    1    2    0    0 -0.56055692432E+00 -0.74741621739E+01  0.13830468942E+04  0.13831033544E+04  0.10000000000E+02 0. -1.
</event>
<event>
 5    1  0.1535793E-008  0.3785633E+03  0.7957747E-01  0.3457438E+00
         13   -1    0    0    0    0  0.00000000000E+00  0.00000000000E+00  0.14999999963E+04  0.15000000000E+04  0.10566000000E+00 0. -1.
        994   -1    0    0    0    0 -0.00000000000E+00 -0.00000000000E+00  0.11368683772E-12  0.17120000000E+03  0.17120000000E+03 0.  0.
         13    1    1    2    0    0  0.84680725761E+01  0.49601249682E+02  0.28817784826E+03  0.29253799004E+03  0.10566000000E+00 0. -1.
        994    1    1    2    0    0 -0.90302519991E+00 -0.16352839493E+02  0.57615831869E+01  0.17207808302E+03  0.17120000000E+03 0.  0.
        998    1    1    2    0    0 -0.75650473762E+01 -0.33248410189E+02  0.12060605648E+04  0.12065839269E+04  0.10000000000E+02 0. -1.
</event>
<event>
 5    1  0.1535793E-008  0.3795461E+03  0.7957747E-01  0.3453137E+00
         13   -1    0    0    0    0  0.00000000000E+00  0.00000000000E+00  0.14999999963E+04  0.15000000000E+04  0.10566000000E+00 0.  1.
        994   -1    0    0    0    0 -0.00000000000E+00 -0.00000000000E+00  0.11368683772E-12  0.17120000000E+03  0.17120000000E+03 0.  0.
         13    1    1    2    0    0 -0.28860015958E+02 -0.56957858741E+01  0.11237107377E+03  0.11615770263E+03  0.10566000000E+00 0.  1.
        994    1    1    2    0    0 -0.79597654825E+01 -0.99474095299E+00  0.45779209142E+01  0.17144895665E+03  0.17120000000E+03 0.  0.
        998    1    1    2    0    0  0.36819781441E+02  0.66905268271E+01  0.13830510016E+04  0.13835933407E+04  0.10000000000E+02 0.  1.
</event>
<event>
 5    1  0.1535793E-008  0.3824697E+03  0.7957747E-01  0.3440475E+00
         13   -1    0    0    0    0  0.00000000000E+00  0.00000000000E+00  0.14999999963E+04  0.15000000000E+04  0.10566000000E+00 0. -1.
        994   -1    0    0    0    0 -0.00000000000E+00 -0.00000000000E+00  0.11368683772E-12  0.17120000000E+03  0.17120000000E+03 0.  0.
         13    1    1    2    0    0  0.22816075676E+02  0.73759510363E+01  0.91425248107E+02  0.94517538681E+02  0.10566000000E+00 0. -1.
        994    1    1    2    0    0 -0.34952381749E+02  0.15153790778E+02  0.77188877457E+01  0.17555719180E+03  0.17120000000E+03 0.  0.
        998    1    1    2    0    0  0.12136306073E+02 -0.22529741814E+02  0.14008558604E+04  0.14011252695E+04  0.10000000000E+02 0. -1.
</event>
<event>
 5    1  0.1535793E-008  0.2688269E+03  0.7957747E-01  0.4147214E+00
         13   -1    0    0    0    0  0.00000000000E+00  0.00000000000E+00  0.14999999963E+04  0.15000000000E+04  0.10566000000E+00 0.  1.
        994   -1    0    0    0    0 -0.00000000000E+00 -0.00000000000E+00  0.11368683772E-12  0.17120000000E+03  0.17120000000E+03 0.  0.
         13    1    1    2    0    0 -0.17365469179E+03 -0.69667705442E+02  0.41204848047E+03  0.45254116120E+03  0.10566000000E+00 0.  1.
        994    1    1    2    0    0  0.17051214943E+03  0.47260628916E+02  0.16728565829E+03  0.29766069881E+03  0.17120000000E+03 0.  0.
        998    1    1    2    0    0  0.31425423668E+01  0.22407076525E+02  0.92066585752E+03  0.92099813998E+03  0.10000000000E+02 0. -1.
</event>
<event>
 5    1  0.1535793E-008  0.3857650E+03  0.7957747E-01  0.3426434E+00
         13   -1    0    0    0    0  0.00000000000E+00  0.00000000000E+00  0.14999999963E+04  0.15000000000E+04  0.10566000000E+00 0. -1.
        994   -1    0    0    0    0 -0.00000000000E+00 -0.00000000000E+00  0.11368683772E-12  0.17120000000E+03  0.17120000000E+03 0.  0.
         13    1    1    2    0    0 -0.96149714098E+01 -0.13519449388E+02  0.94770213985E+02  0.96211370481E+02  0.10566000000E+00 0. -1.
        994    1    1    2    0    0  0.22733053151E+02  0.19807629126E+02  0.42389438655E+01  0.17388657948E+03  0.17120000000E+03 0.  0.
        998    1    1    2    0    0 -0.13118081741E+02 -0.62881797383E+01  0.14009908384E+04  0.14011020500E+04  0.10000000000E+02 0. -1.
</event>
<event>
 5    1  0.1535793E-008  0.3826494E+03  0.7957747E-01  0.3439703E+00
         13   -1    0    0    0    0  0.00000000000E+00  0.00000000000E+00  0.14999999963E+04  0.15000000000E+04  0.10566000000E+00 0. -1.
        994   -1    0    0    0    0 -0.00000000000E+00 -0.00000000000E+00  0.11368683772E-12  0.17120000000E+03  0.17120000000E+03 0.  0.
         13    1    1    2    0    0 -0.19701124132E+02 -0.22329151052E+02  0.14355007609E+03  0.14660614171E+03  0.10566000000E+00 0. -1.
        994    1    1    2    0    0  0.10910506062E+02  0.31223183115E+02  0.64353382523E+01  0.17448432561E+03  0.17120000000E+03 0.  0.
        998    1    1    2    0    0  0.87906180693E+01 -0.88940320632E+01  0.13500145819E+04  0.13501095327E+04  0.10000000000E+02 0. -1.
</event>
<event>
 5    1  0.1535793E-008  0.3808362E+03  0.7957747E-01  0.3447526E+00
         13   -1    0    0    0    0  0.00000000000E+00  0.00000000000E+00  0.14999999963E+04  0.15000000000E+04  0.10566000000E+00 0. -1.
        994   -1    0    0    0    0 -0.00000000000E+00 -0.00000000000E+00  0.11368683772E-12  0.17120000000E+03  0.17120000000E+03 0.  0.
         13    1    1    2    0    0  0.88187205680E+01 -0.88405980408E+01  0.19383802536E+02  0.23057948108E+02  0.10566000000E+00 0. -1.
        994    1    1    2    0    0 -0.12579515637E+02  0.22992677586E+01  0.42569981890E+01  0.17172970879E+03  0.17120000000E+03 0.  0.
        998    1    1    2    0    0  0.37607950692E+01  0.65413302821E+01  0.14763591956E+04  0.14764123431E+04  0.10000000000E+02 0. -1.
</event>
<event>
 5    1  0.1535793E-008  0.3810962E+03  0.7957747E-01  0.3446399E+00
         13   -1    0    0    0    0  0.00000000000E+00  0.00000000000E+00  0.14999999963E+04  0.15000000000E+04  0.10566000000E+00 0. -1.
        994   -1    0    0    0    0 -0.00000000000E+00 -0.00000000000E+00  0.11368683772E-12  0.17120000000E+03  0.17120000000E+03 0.  0.
         13    1    1    2    0    0 -0.45446000383E+02  0.27947422934E+02  0.30294847199E+03  0.30761044398E+03  0.10566000000E+00 0. -1.
        994    1    1    2    0    0  0.58520119843E+02 -0.17314765635E+02  0.16087253055E+02  0.18246272290E+03  0.17120000000E+03 0.  0.
        998    1    1    2    0    0 -0.13074119461E+02 -0.10632657299E+02  0.11809642712E+04  0.11811268331E+04  0.10000000000E+02 0. -1.
</event>
<event>
 5    1  0.1535793E-008  0.3841411E+03  0.7957747E-01  0.3433323E+00
         13   -1    0    0    0    0  0.00000000000E+00  0.00000000000E+00  0.14999999963E+04  0.15000000000E+04  0.10566000000E+00 0. -1.
        994   -1    0    0    0    0 -0.00000000000E+00 -0.00000000000E+00  0.11368683772E-12  0.17120000000E+03  0.17120000000E+03 0.  0.
         13    1    1    2    0    0  0.12774853308E+02  0.22620083613E+01  0.39039248280E+02  0.41138639126E+02  0.10566000000E+00 0. -1.
        994    1    1    2    0    0 -0.16590999752E+02 -0.16788605982E+01  0.29747437856E+01  0.17203595248E+03  0.17120000000E+03 0.  0.
        998    1    1    2    0    0  0.38161464441E+01 -0.58314776315E+00  0.14579860042E+04  0.14580254084E+04  0.10000000000E+02 0. -1.
</event>
<event>
 5    1  0.1535793E-008  0.3731924E+03  0.7957747E-01  0.3481347E+00
         13   -1    0    0    0    0  0.00000000000E+00  0.00000000000E+00  0.14999999963E+04  0.15000000000E+04  0.10566000000E+00 0. -1.
        994   -1    0    0    0    0 -0.00000000000E+00 -0.00000000000E+00  0.11368683772E-12  0.17120000000E+03  0.17120000000E+03 0.  0.
         13    1    1    2    0    0  0.48200480267E+02  0.19514636803E+02  0.16861076259E+03  0.17644746462E+03  0.10566000000E+00 0. -1.
        994    1    1    2    0    0 -0.31877811017E+02 -0.22715939189E+02  0.12868261801E+02  0.17608873016E+03  0.17120000000E+03 0.  0.
        998    1    1    2    0    0 -0.16322669249E+02  0.32013023857E+01  0.13185209719E+04  0.13186638052E+04  0.10000000000E+02 0. -1.
</event>
<event>
 5    1  0.1535793E-008  0.3786503E+03  0.7957747E-01  0.3457057E+00
         13   -1    0    0    0    0  0.00000000000E+00  0.00000000000E+00  0.14999999963E+04  0.15000000000E+04  0.10566000000E+00 0. -1.
        994   -1    0    0    0    0 -0.00000000000E+00 -0.00000000000E+00  0.11368683772E-12  0.17120000000E+03  0.17120000000E+03 0.  0.
         13    1    1    2    0    0  0.30852008945E+02  0.15287997309E+02  0.11473824455E+03  0.11979334390E+03  0.10566000000E+00 0. -1.
        994    1    1    2    0    0 -0.27083442762E+02 -0.16696060463E+02  0.82226173367E+01  0.17432533592E+03  0.17120000000E+03 0.  0.
        998    1    1    2    0    0 -0.37685661823E+01  0.14080631543E+01  0.13770391344E+04  0.13770813202E+04  0.10000000000E+02 0. -1.
</event>
<event>
 5    1  0.1535793E-008  0.3737412E+03  0.7957747E-01  0.3478872E+00
         13   -1    0    0    0    0  0.00000000000E+00  0.00000000000E+00  0.14999999963E+04  0.15000000000E+04  0.10566000000E+00 0. -1.
        994   -1    0    0    0    0 -0.00000000000E+00 -0.00000000000E+00  0.11368683772E-12  0.17120000000E+03  0.17120000000E+03 0.  0.
         13    1    1    2    0    0 -0.91669590814E+01 -0.32072883207E+02  0.82319870278E+02  0.88821591872E+02  0.10566000000E+00 0. -1.
        994    1    1    2    0    0 -0.26519692286E+01 -0.96972550323E+01  0.76716702668E+01  0.17166643300E+03  0.17120000000E+03 0.  0.
        998    1    1    2    0    0  0.11818928310E+02  0.41770138240E+02  0.14100084557E+04  0.14107119751E+04  0.10000000000E+02 0. -1.
</event>
<event>
 5    1  0.1535793E-008  0.3805815E+03  0.7957747E-01  0.3448630E+00
         13   -1    0    0    0    0  0.00000000000E+00  0.00000000000E+00  0.14999999963E+04  0.15000000000E+04  0.10566000000E+00 0.  1.
        994   -1    0    0    0    0 -0.00000000000E+00 -0.00000000000E+00  0.11368683772E-12  0.17120000000E+03  0.17120000000E+03 0.  0.
         13    1    1    2    0    0 -0.12007579848E+02  0.49780086456E+01  0.20107469678E+02  0.23943350743E+02  0.10566000000E+00 0.  1.
        994    1    1    2    0    0  0.11630345403E+02 -0.10309436657E+02  0.46462416031E+01  0.17196679034E+03  0.17120000000E+03 0.  0.
        998    1    1    2    0    0  0.37723444462E+00  0.53314280110E+01  0.14752462850E+04  0.14752898589E+04  0.10000000000E+02 0.  1.
</event>
<event>
 5    1  0.1535793E-008  0.3823517E+03  0.7957747E-01  0.3440982E+00
         13   -1    0    0    0    0  0.00000000000E+00  0.00000000000E+00  0.14999999963E+04  0.15000000000E+04  0.10566000000E+00 0. -1.
        994   -1    0    0    0    0 -0.00000000000E+00 -0.00000000000E+00  0.11368683772E-12  0.17120000000E+03  0.17120000000E+03 0.  0.
         13    1    1    2    0    0 -0.14156735272E+02 -0.62948646175E+01  0.40998618539E+02  0.43828487999E+02  0.10566000000E+00 0. -1.
        994    1    1    2    0    0 -0.66691731790E+01  0.20336051958E+02  0.44715465782E+01  0.17259046210E+03  0.17120000000E+03 0.  0.
        998    1    1    2    0    0  0.20825908451E+02 -0.14041187340E+02  0.14545298312E+04  0.14547810499E+04  0.10000000000E+02 0. -1.
</event>
<event>
 5    1  0.1535793E-008  0.3734672E+03  0.7957747E-01  0.3480106E+00
         13   -1    0    0    0    0  0.00000000000E+00  0.00000000000E+00  0.14999999963E+04  0.15000000000E+04  0.10566000000E+00 0. -1.
        994   -1    0    0    0    0 -0.00000000000E+00 -0.00000000000E+00  0.11368683772E-12  0.17120000000E+03  0.17120000000E+03 0.  0.
         13    1    1    2    0    0  0.39587283511E+02  0.82352239998E+02  0.38873308866E+03  0.39932752200E+03  0.10566000000E+00 0. -1.
        994    1    1    2    0    0 -0.42384272354E+02 -0.86981373273E+02  0.40165791738E+02  0.20071102776E+03  0.17120000000E+03 0.  0.
        998    1    1    2    0    0  0.27969888435E+01  0.46291332748E+01  0.10711011159E+04  0.10711614502E+04  0.10000000000E+02 0.  0.
</event>
<event>
 5    1  0.1535793E-008  0.3824174E+03  0.7957747E-01  0.3440700E+00
         13   -1    0    0    0    0  0.00000000000E+00  0.00000000000E+00  0.14999999963E+04  0.15000000000E+04  0.10566000000E+00 0.  1.
        994   -1    0    0    0    0 -0.00000000000E+00 -0.00000000000E+00  0.11368683772E-12  0.17120000000E+03  0.17120000000E+03 0.  0.
         13    1    1    2    0    0  0.15537700190E+02 -0.19535256169E+02  0.10742772958E+03  0.11028950362E+03  0.10566000000E+00 0.  1.
        994    1    1    2    0    0 -0.68173977770E+01  0.11110648194E+02  0.34815298206E+01  0.17173084890E+03  0.17120000000E+03 0.  0.
        998    1    1    2    0    0 -0.87203024128E+01  0.84246079755E+01  0.13890907369E+04  0.13891796475E+04  0.10000000000E+02 0.  1.
</event>
<event>
 5    1  0.1535793E-008  0.3849013E+03  0.7957747E-01  0.3430091E+00
         13   -1    0    0    0    0  0.00000000000E+00  0.00000000000E+00  0.14999999963E+04  0.15000000000E+04  0.10566000000E+00 0. -1.
        994   -1    0    0    0    0 -0.00000000000E+00 -0.00000000000E+00  0.11368683772E-12  0.17120000000E+03  0.17120000000E+03 0.  0.
         13    1    1    2    0    0 -0.80728873853E+01 -0.77805890530E+01  0.36508159748E+02  0.38191176585E+02  0.10566000000E+00 0. -1.
        994    1    1    2    0    0  0.60294523138E+01  0.10663412083E+02  0.21729625807E+01  0.17165146204E+03  0.17120000000E+03 0.  0.
        998    1    1    2    0    0  0.20434350715E+01 -0.28828230297E+01  0.14613188740E+04  0.14613573614E+04  0.10000000000E+02 0. -1.
</event>
<event>
 5    1  0.1535793E-008  0.3750525E+03  0.7957747E-01  0.3472988E+00
         13   -1    0    0    0    0  0.00000000000E+00  0.00000000000E+00  0.14999999963E+04  0.15000000000E+04  0.10566000000E+00 0.  1.
        994   -1    0    0    0    0 -0.00000000000E+00 -0.00000000000E+00  0.11368683772E-12  0.17120000000E+03  0.17120000000E+03 0.  0.
         13    1    1    2    0    0  0.33311245561E+02 -0.80617576831E+01  0.82020589902E+02  0.88893303177E+02  0.10566000000E+00 0.  1.
        994    1    1    2    0    0 -0.32747602789E+02  0.60720172303E+01  0.10431017673E+02  0.17472126663E+03  0.17120000000E+03 0.  0.
        998    1    1    2    0    0 -0.56364277193E+00  0.19897404528E+01  0.14075483887E+04  0.14075854302E+04  0.10000000000E+02 0.  1.
</event>
<event>
 5    1  0.1535793E-008  0.3782644E+03  0.7957747E-01  0.3458751E+00
         13   -1    0    0    0    0  0.00000000000E+00  0.00000000000E+00  0.14999999963E+04  0.15000000000E+04  0.10566000000E+00 0.  1.
        994   -1    0    0    0    0 -0.00000000000E+00 -0.00000000000E+00  0.11368683772E-12  0.17120000000E+03  0.17120000000E+03 0.  0.
         13    1    1    2    0    0 -0.58196037514E+02 -0.77606880486E+02  0.55773029909E+03  0.56610308634E+03  0.10566000000E+00 0.  1.
        994    1    1    2    0    0  0.61292857921E+02  0.78520956640E+02  0.39132836148E+02  0.20189892008E+03  0.17120000000E+03 0.  0.
        998    1    1    2    0    0 -0.30968204070E+01 -0.91407615393E+00  0.90313686104E+03  0.90319799358E+03  0.10000000000E+02 0.  1.
</event>
<event>
 5    1  0.1535793E-008  0.3726873E+03  0.7957747E-01  0.3483631E+00
         13   -1    0    0    0    0  0.00000000000E+00  0.00000000000E+00  0.14999999963E+04  0.15000000000E+04  0.10566000000E+00 0. -1.
        994   -1    0    0    0    0 -0.00000000000E+00 -0.00000000000E+00  0.11368683772E-12  0.17120000000E+03  0.17120000000E+03 0.  0.
         13    1    1    2    0    0  0.17702742656E+02 -0.90410038221E+01  0.21556829271E+02  0.29322941530E+02  0.10566000000E+00 0. -1.
        994    1    1    2    0    0 -0.18157318156E+02  0.35366246294E+01  0.90443771659E+01  0.17243386174E+03  0.17120000000E+03 0.  0.
        998    1    1    2    0    0  0.45457549995E+00  0.55043791927E+01  0.14693987898E+04  0.14694431967E+04  0.10000000000E+02 0. -1.
</event>
<event>
 5    1  0.1535793E-008  0.3842124E+03  0.7957747E-01  0.3433020E+00
         13   -1    0    0    0    0  0.00000000000E+00  0.00000000000E+00  0.14999999963E+04  0.15000000000E+04  0.10566000000E+00 0.  1.
        994   -1    0    0    0    0 -0.00000000000E+00 -0.00000000000E+00  0.11368683772E-12  0.17120000000E+03  0.17120000000E+03 0.  0.
         13    1    1    2    0    0 -0.93690649387E+01 -0.80045020428E+01  0.36745689333E+02  0.38757041674E+02  0.10566000000E+00 0.  1.
        994    1    1    2    0    0  0.10667994095E+02  0.36373659076E+01  0.24406563437E+01  0.17158797549E+03  0.17120000000E+03 0.  0.
        998    1    1    2    0    0 -0.12989291559E+01  0.43671361352E+01  0.14608136506E+04  0.14608549828E+04  0.10000000000E+02 0.  1.
</event>
<event>
 5    1  0.1535793E-008  0.3803932E+03  0.7957747E-01  0.3449448E+00
         13   -1    0    0    0    0  0.00000000000E+00  0.00000000000E+00  0.14999999963E+04  0.15000000000E+04  0.10566000000E+00 0. -1.
        994   -1    0    0    0    0 -0.00000000000E+00 -0.00000000000E+00  0.11368683772E-12  0.17120000000E+03  0.17120000000E+03 0.  0.
         13    1    1    2    0    0 -0.32285164701E+02  0.12135060185E+02  0.18842475085E+03  0.19155544743E+03  0.10566000000E+00 0. -1.
        994    1    1    2    0    0 -0.11059784892E+02 -0.13224536738E+01  0.43491099367E+01  0.17161708098E+03  0.17120000000E+03 0.  0.
        998    1    1    2    0    0  0.43344949593E+02 -0.10812606512E+02  0.13072261355E+04  0.13080274716E+04  0.10000000000E+02 0. -1.
</event>
<event>
 5    1  0.1535793E-008  0.3735428E+03  0.7957747E-01  0.3479766E+00
         13   -1    0    0    0    0  0.00000000000E+00  0.00000000000E+00  0.14999999963E+04  0.15000000000E+04  0.10566000000E+00 0. -1.
        994   -1    0    0    0    0 -0.00000000000E+00 -0.00000000000E+00  0.11368683772E-12  0.17120000000E+03  0.17120000000E+03 0.  0.
         13    1    1    2    0    0 -0.26135578393E+02  0.26299984082E+02  0.93489618885E+02  0.10057374222E+03  0.10566000000E+00 0. -1.
        994    1    1    2    0    0  0.15077792125E+02 -0.33801135090E+01  0.82449571130E+01  0.17209353358E+03  0.17120000000E+03 0.  0.
        998    1    1    2    0    0  0.11057786268E+02 -0.22919870573E+02  0.13982654203E+04  0.13985327242E+04  0.10000000000E+02 0. -1.
</event>
<event>
 5    1  0.1535793E-008  0.3861812E+03  0.7957747E-01  0.3424678E+00
         13   -1    0    0    0    0  0.00000000000E+00  0.00000000000E+00  0.14999999963E+04  0.15000000000E+04  0.10566000000E+00 0. -1.
        994   -1    0    0    0    0 -0.00000000000E+00 -0.00000000000E+00  0.11368683772E-12  0.17120000000E+03  0.17120000000E+03 0.  0.
         13    1    1    2    0    0 -0.70311543381E+01  0.97623916109E+01  0.65047915802E+02  0.66151220212E+02  0.10566000000E+00 0. -1.
        994    1    1    2    0    0  0.13193756792E+02 -0.12733380470E+02  0.21470497255E+01  0.17219252022E+03  0.17120000000E+03 0.  0.
        998    1    1    2    0    0 -0.61626024540E+01  0.29709888595E+01  0.14328050308E+04  0.14328562596E+04  0.10000000000E+02 0. -1.
</event>
<event>
 5    1  0.1535793E-008  0.3830283E+03  0.7957747E-01  0.3438078E+00
         13   -1    0    0    0    0  0.00000000000E+00  0.00000000000E+00  0.14999999963E+04  0.15000000000E+04  0.10566000000E+00 0. -1.
        994   -1    0    0    0    0 -0.00000000000E+00 -0.00000000000E+00  0.11368683772E-12  0.17120000000E+03  0.17120000000E+03 0.  0.
         13    1    1    2    0    0 -0.10439214476E+02  0.25100268473E+02  0.14351491037E+03  0.14606690707E+03  0.10566000000E+00 0. -1.
        994    1    1    2    0    0  0.10955973918E+02 -0.10354041230E+02  0.33647092613E+01  0.17189531932E+03  0.17120000000E+03 0.  0.
        998    1    1    2    0    0 -0.51675944180E+00 -0.14746227243E+02  0.13531203766E+04  0.13532377736E+04  0.10000000000E+02 0. -1.
</event>
<event>
 5    1  0.1535793E-008  0.3834373E+03  0.7957747E-01  0.3436327E+00
         13   -1    0    0    0    0  0.00000000000E+00  0.00000000000E+00  0.14999999963E+04  0.15000000000E+04  0.10566000000E+00 0. -1.
        994   -1    0    0    0    0 -0.00000000000E+00 -0.00000000000E+00  0.11368683772E-12  0.17120000000E+03  0.17120000000E+03 0.  0.
         13    1    1    2    0    0  0.27839773449E+02  0.27759534392E+01  0.14871327117E+03  0.15132219629E+03  0.10566000000E+00 0. -1.
        994    1    1    2    0    0 -0.27608430607E+02  0.29839480785E+00  0.49317978230E+01  0.17348220978E+03  0.17120000000E+03 0.  0.
        998    1    1    2    0    0 -0.23134284284E+00 -0.30743482470E+01  0.13463549273E+04  0.13463955939E+04  0.10000000000E+02 0. -1.
</event>
<event>
 5    1  0.1535793E-008  0.3824498E+03  0.7957747E-01  0.3440561E+00
         13   -1    0    0    0    0  0.00000000000E+00  0.00000000000E+00  0.14999999963E+04  0.15000000000E+04  0.10566000000E+00 0. -1.
        994   -1    0    0    0    0 -0.00000000000E+00 -0.00000000000E+00  0.11368683772E-12  0.17120000000E+03  0.17120000000E+03 0.  0.
         13    1    1    2    0    0  0.15959503640E+01  0.13193453525E+02  0.33384429879E+02  0.35932514467E+02  0.10566000000E+00 0. -1.
        994    1    1    2    0    0  0.74910219042E+01  0.24914304369E+02  0.51492733846E+01  0.17324200700E+03  0.17120000000E+03 0.  0.
        998    1    1    2    0    0 -0.90869722682E+01 -0.38107757894E+02  0.14614662930E+04  0.14620254785E+04  0.10000000000E+02 0. -1.
</event>
<event>
 5    1  0.1535793E-008  0.3794353E+03  0.7957747E-01  0.3453621E+00
         13   -1    0    0    0    0  0.00000000000E+00  0.00000000000E+00  0.14999999963E+04  0.15000000000E+04  0.10566000000E+00 0.  1.
        994   -1    0    0    0    0 -0.00000000000E+00 -0.00000000000E+00  0.11368683772E-12  0.17120000000E+03  0.17120000000E+03 0.  0.
         13    1    1    2    0    0  0.92239838738E+01  0.23757163728E+02  0.70615889739E+02  0.75073961895E+02  0.10566000000E+00 0.  1.
        994    1    1    2    0    0 -0.15554109883E+02 -0.15752204823E+02  0.60614936075E+01  0.17273171103E+03  0.17120000000E+03 0.  0.
        998    1    1    2    0    0  0.63301260088E+01 -0.80049589058E+01  0.14233226129E+04  0.14233943271E+04  0.10000000000E+02 0.  1.
</event>
<event>
 5    1  0.1535793E-008  0.3818059E+03  0.7957747E-01  0.3443333E+00
         13   -1    0    0    0    0  0.00000000000E+00  0.00000000000E+00  0.14999999963E+04  0.15000000000E+04  0.10566000000E+00 0. -1.
        994   -1    0    0    0    0 -0.00000000000E+00 -0.00000000000E+00  0.11368683772E-12  0.17120000000E+03  0.17120000000E+03 0.  0.
         13    1    1    2    0    0 -0.11876422786E+02  0.58285744471E+00  0.20581582703E+02  0.23769767596E+02  0.10566000000E+00 0. -1.
        994    1    1    2    0    0  0.93091259328E+01 -0.23575606003E+01  0.35308238502E+01  0.17150546532E+03  0.17120000000E+03 0.  0.
        998    1    1    2    0    0  0.25672968532E+01  0.17747031556E+01  0.14758875897E+04  0.14759247671E+04  0.10000000000E+02 0. -1.
</event>
<event>
 5    1  0.1535793E-008  0.3769146E+03  0.7957747E-01  0.3464704E+00
         13   -1    0    0    0    0  0.00000000000E+00  0.00000000000E+00  0.14999999963E+04  0.15000000000E+04  0.10566000000E+00 0. -1.
        994   -1    0    0    0    0 -0.00000000000E+00 -0.00000000000E+00  0.11368683772E-12  0.17120000000E+03  0.17120000000E+03 0.  0.
         13    1    1    2    0    0  0.99591330123E+01  0.11154019958E+01  0.57287616438E+01  0.11543757013E+02  0.10566000000E+00 0. -1.
        994    1    1    2    0    0 -0.38142292697E+02 -0.91713972551E+01  0.10914145765E+02  0.17597587220E+03  0.17120000000E+03 0.  0.
        998    1    1    2    0    0  0.28183159685E+02  0.80559952593E+01  0.14833570889E+04  0.14836803708E+04  0.10000000000E+02 0. -1.
</event>
<event>
 5    1  0.1535793E-008  0.3844866E+03  0.7957747E-01  0.3431852E+00
         13   -1    0    0    0    0  0.00000000000E+00  0.00000000000E+00  0.14999999963E+04  0.15000000000E+04  0.10566000000E+00 0.  1.
        994   -1    0    0    0    0 -0.00000000000E+00 -0.00000000000E+00  0.11368683772E-12  0.17120000000E+03  0.17120000000E+03 0.  0.
         13    1    1    2    0    0 -0.12663216606E+02  0.80080742367E+01  0.55120329305E+02  0.57120470713E+02  0.10566000000E+00 0.  1.
        994    1    1    2    0    0  0.15420000360E+02 -0.19426297585E+02  0.39142651014E+01  0.17303155470E+03  0.17120000000E+03 0.  0.
        998    1    1    2    0    0 -0.27567837538E+01  0.11418223348E+02  0.14409654019E+04  0.14410479746E+04  0.10000000000E+02 0.  1.
</event>
<event>
 5    1  0.1535793E-008  0.3844349E+03  0.7957747E-01  0.3432073E+00
         13   -1    0    0    0    0  0.00000000000E+00  0.00000000000E+00  0.14999999963E+04  0.15000000000E+04  0.10566000000E+00 0.  1.
        994   -1    0    0    0    0 -0.00000000000E+00 -0.00000000000E+00  0.11368683772E-12  0.17120000000E+03  0.17120000000E+03 0.  0.
         13    1    1    2    0    0  0.10200197357E+02 -0.91885960230E+01  0.49968377776E+02  0.51820114479E+02  0.10566000000E+00 0.  1.
        994    1    1    2    0    0 -0.78773212057E+01 -0.62691207953E+00  0.21167464683E+01  0.17139534948E+03  0.17120000000E+03 0.  0.
        998    1    1    2    0    0 -0.23228761518E+01  0.98155081025E+01  0.14479148720E+04  0.14479845360E+04  0.10000000000E+02 0.  1.
</event>
<event>
 5    1  0.1535793E-008  0.3813530E+03  0.7957747E-01  0.3445288E+00
         13   -1    0    0    0    0  0.00000000000E+00  0.00000000000E+00  0.14999999963E+04  0.15000000000E+04  0.10566000000E+00 0.  1.
        994   -1    0    0    0    0 -0.00000000000E+00 -0.00000000000E+00  0.11368683772E-12  0.17120000000E+03  0.17120000000E+03 0.  0.
         13    1    1    2    0    0  0.53200756610E+01 -0.86105664650E+01  0.13622459001E+02  0.16971376289E+02  0.10566000000E+00 0.  1.
        994    1    1    2    0    0 -0.11637494600E+02 -0.72642028008E+01  0.40782909044E+01  0.17179718385E+03  0.17120000000E+03 0.  0.
        998    1    1    2    0    0  0.63174189388E+01  0.15874769266E+02  0.14822992464E+04  0.14824314399E+04  0.10000000000E+02 0.  1.
</event>
<event>
 5    1  0.1535793E-008  0.3837083E+03  0.7957747E-01  0.3435169E+00
         13   -1    0    0    0    0  0.00000000000E+00  0.00000000000E+00  0.14999999963E+04  0.15000000000E+04  0.10566000000E+00 0. -1.
        994   -1    0    0    0    0 -0.00000000000E+00 -0.00000000000E+00  0.11368683772E-12  0.17120000000E+03  0.17120000000E+03 0.  0.
         13    1    1    2    0    0  0.42515534400E+02 -0.18327977326E+03  0.11346882174E+04  0.11501810326E+04  0.10566000000E+00 0. -1.
        994    1    1    2    0    0 -0.27822005807E+02  0.19330034382E+03  0.14048900516E+03  0.29527222609E+03  0.17120000000E+03 0.  0.
        998    1    1    2    0    0 -0.14693528593E+02 -0.10020570563E+02  0.22482277373E+03  0.22574674130E+03  0.10000000000E+02 0.  1.
</event>
<event>
 5    1  0.1535793E-008  0.3732099E+03  0.7957747E-01  0.3481268E+00
         13   -1    0    0    0    0  0.00000000000E+00  0.00000000000E+00  0.14999999963E+04  0.15000000000E+04  0.10566000000E+00 0.  1.
        994   -1    0    0    0    0 -0.00000000000E+00 -0.00000000000E+00  0.11368683772E-12  0.17120000000E+03  0.17120000000E+03 0.  0.
         13    1    1    2    0    0 -0.28120205438E+02  0.19881804526E+02  0.72586767576E+02  0.80342280876E+02  0.10566000000E+00 0.  1.
        994    1    1    2    0    0  0.27853433865E+02 -0.16114767231E+02  0.11150336836E+02  0.17455448866E+03  0.17120000000E+03 0.  0.
        998    1    1    2    0    0  0.26677157287E+00 -0.37670372946E+01  0.14162628919E+04  0.14163032305E+04  0.10000000000E+02 0.  1.
</event>
<event>
 5    1  0.1535793E-008  0.3699663E+03  0.7957747E-01  0.3496046E+00
         13   -1    0    0    0    0  0.00000000000E+00  0.00000000000E+00  0.14999999963E+04  0.15000000000E+04  0.10566000000E+00 0.  1.
        994   -1    0    0    0    0 -0.00000000000E+00 -0.00000000000E+00  0.11368683772E-12  0.17120000000E+03  0.17120000000E+03 0.  0.
         13    1    1    2    0    0  0.36974239496E+01  0.11352821851E+03  0.63368560175E+03  0.64378550804E+03  0.10566000000E+00 0.  1.
        994    1    1    2    0    0  0.37863682279E+01 -0.75195304176E+02  0.29153012022E+02  0.18928287948E+03  0.17120000000E+03 0.  0.
        998    1    1    2    0    0 -0.74837921776E+01 -0.38332914330E+02  0.83716138251E+03  0.83813161248E+03  0.10000000000E+02 0.  1.
</event>
<event>
 5    1  0.1535793E-008  0.3737114E+03  0.7957747E-01  0.3479006E+00
         13   -1    0    0    0    0  0.00000000000E+00  0.00000000000E+00  0.14999999963E+04  0.15000000000E+04  0.10566000000E+00 0. -1.
        994   -1    0    0    0    0 -0.00000000000E+00 -0.00000000000E+00  0.11368683772E-12  0.17120000000E+03  0.17120000000E+03 0.  0.
         13    1    1    2    0    0  0.58555982382E+02  0.95927649833E+01  0.19721456675E+03  0.20594761644E+03  0.10566000000E+00 0. -1.
        994    1    1    2    0    0 -0.65615862404E+02 -0.17725957043E+02  0.23281434460E+02  0.18566398720E+03  0.17120000000E+03 0.  0.
        998    1    1    2    0    0  0.70598800213E+01  0.81331920600E+01  0.12795039951E+04  0.12795883964E+04  0.10000000000E+02 0. -1.
</event>
<event>
 5    1  0.1535793E-008  0.3855769E+03  0.7957747E-01  0.3427229E+00
         13   -1    0    0    0    0  0.00000000000E+00  0.00000000000E+00  0.14999999963E+04  0.15000000000E+04  0.10566000000E+00 0.  1.
        994   -1    0    0    0    0 -0.00000000000E+00 -0.00000000000E+00  0.11368683772E-12  0.17120000000E+03  0.17120000000E+03 0.  0.
         13    1    1    2    0    0  0.12879041053E+02 -0.35374768000E+01  0.74181194557E+02  0.75374028886E+02  0.10566000000E+00 0.  1.
        994    1    1    2    0    0  0.19650313826E+01 -0.11431779499E+02  0.17857684210E+01  0.17160179457E+03  0.17120000000E+03 0.  0.
        998    1    1    2    0    0 -0.14844072436E+02  0.14969256299E+02  0.14240330333E+04  0.14242241765E+04  0.10000000000E+02 0.  1.
</event>
<event>
 5    1  0.1535793E-008  0.3781830E+03  0.7957747E-01  0.3459109E+00
         13   -1    0    0    0    0  0.00000000000E+00  0.00000000000E+00  0.14999999963E+04  0.15000000000E+04  0.10566000000E+00 0.  1.
        994   -1    0    0    0    0 -0.00000000000E+00 -0.00000000000E+00  0.11368683772E-12  0.17120000000E+03  0.17120000000E+03 0.  0.
         13    1    1    2    0    0 -0.32397673048E+02 -0.10410174079E+02  0.10561735806E+03  0.11096404116E+03  0.10566000000E+00 0.  1.
        994    1    1    2    0    0  0.30085968387E+02  0.18320928417E+02  0.92375613352E+01  0.17503026724E+03  0.17120000000E+03 0.  0.
        998    1    1    2    0    0  0.23117046610E+01 -0.79107543376E+01  0.13851450769E+04  0.13852056916E+04  0.10000000000E+02 0.  1.
</event>
<event>
 5    1  0.1535793E-008  0.3844436E+03  0.7957747E-01  0.3432036E+00
         13   -1    0    0    0    0  0.00000000000E+00  0.00000000000E+00  0.14999999963E+04  0.15000000000E+04  0.10566000000E+00 0. -1.
        994   -1    0    0    0    0 -0.00000000000E+00 -0.00000000000E+00  0.11368683772E-12  0.17120000000E+03  0.17120000000E+03 0.  0.
         13    1    1    2    0    0 -0.19220619131E+02 -0.19253515350E+01  0.10003225123E+03  0.10188032994E+03  0.10566000000E+00 0. -1.
        994    1    1    2    0    0  0.10363979020E+02 -0.11794965989E+02  0.27192988482E+01  0.17194001242E+03  0.17120000000E+03 0.  0.
        998    1    1    2    0    0  0.88566401104E+01  0.13720317524E+02  0.13972484462E+04  0.13973796576E+04  0.10000000000E+02 0. -1.
</event>
<event>
 5    1  0.1535793E-008  0.3693436E+03  0.7957747E-01  0.3498913E+00
         13   -1    0    0    0    0  0.00000000000E+00  0.00000000000E+00  0.14999999963E+04  0.15000000000E+04  0.10566000000E+00 0. -1.
        994   -1    0    0    0    0 -0.00000000000E+00 -0.00000000000E+00  0.11368683772E-12  0.17120000000E+03  0.17120000000E+03 0.  0.
         13    1    1    2    0    0 -0.48712014402E+02 -0.10651908535E+02  0.14174566863E+03  0.15026033822E+03  0.10566000000E+00 0. -1.
        994    1    1    2    0    0  0.95176046528E+01 -0.25378681650E+02  0.12162750383E+02  0.17375855311E+03  0.17120000000E+03 0.  0.
        998    1    1    2    0    0  0.39194409749E+02  0.36030590185E+02  0.13460915773E+04  0.13471811087E+04  0.10000000000E+02 0. -1.
</event>
<event>
 5    1  0.1535793E-008  0.3853773E+03  0.7957747E-01  0.3428074E+00
         13   -1    0    0    0    0  0.00000000000E+00  0.00000000000E+00  0.14999999963E+04  0.15000000000E+04  0.10566000000E+00 0.  1.
        994   -1    0    0    0    0 -0.00000000000E+00 -0.00000000000E+00  0.11368683772E-12  0.17120000000E+03  0.17120000000E+03 0.  0.
         13    1    1    2    0    0 -0.93393758961E+01 -0.12529825858E+02  0.81491476090E+02  0.82976456405E+02  0.10566000000E+00 0.  1.
        994    1    1    2    0    0  0.14916870651E+02  0.86053923198E+01  0.24176486291E+01  0.17208094267E+03  0.17120000000E+03 0.  0.
        998    1    1    2    0    0 -0.55774947546E+01  0.39244335386E+01  0.14160908716E+04  0.14161426009E+04  0.10000000000E+02 0.  1.
</event>
<event>
 5    1  0.1535793E-008  0.3812237E+03  0.7957747E-01  0.3445847E+00
         13   -1    0    0    0    0  0.00000000000E+00  0.00000000000E+00  0.14999999963E+04  0.15000000000E+04  0.10566000000E+00 0. -1.
        994   -1    0    0    0    0 -0.00000000000E+00 -0.00000000000E+00  0.11368683772E-12  0.17120000000E+03  0.17120000000E+03 0.  0.
         13    1    1    2    0    0 -0.19825315947E+02 -0.10369635428E+02  0.77312921126E+02  0.80485224907E+02  0.10566000000E+00 0. -1.
        994    1    1    2    0    0 -0.11705894707E+02  0.95123615430E+01  0.42745564851E+01  0.17191633089E+03  0.17120000000E+03 0.  0.
        998    1    1    2    0    0  0.31531210654E+02  0.85727388462E+00  0.14184125187E+04  0.14187984442E+04  0.10000000000E+02 0. -1.
</event>
<event>
 5    1  0.1535793E-008  0.3841753E+03  0.7957747E-01  0.3433177E+00
         13   -1    0    0    0    0  0.00000000000E+00  0.00000000000E+00  0.14999999963E+04  0.15000000000E+04  0.10566000000E+00 0.  1.
        994   -1    0    0    0    0 -0.00000000000E+00 -0.00000000000E+00  0.11368683772E-12  0.17120000000E+03  0.17120000000E+03 0.  0.
         13    1    1    2    0    0 -0.24571867132E+01 -0.17106129341E+02  0.75148395263E+02  0.77109985749E+02  0.10566000000E+00 0.  1.
        994    1    1    2    0    0 -0.10414357019E+01  0.63280498102E+01  0.21757507848E+01  0.17133389243E+03  0.17120000000E+03 0.  0.
        998    1    1    2    0    0  0.34986224150E+01  0.10778079531E+02  0.14226758502E+04  0.14227561218E+04  0.10000000000E+02 0.  1.
</event>
<event>
 5    1  0.1535793E-008  0.3783321E+03  0.7957747E-01  0.3458453E+00
         13   -1    0    0    0    0  0.00000000000E+00  0.00000000000E+00  0.14999999963E+04  0.15000000000E+04  0.10566000000E+00 0. -1.
        994   -1    0    0    0    0 -0.00000000000E+00 -0.00000000000E+00  0.11368683772E-12  0.17120000000E+03  0.17120000000E+03 0.  0.
         13    1    1    2    0    0  0.26723456707E+02  0.23837581844E+02  0.16070669187E+03  0.16464818682E+03  0.10566000000E+00 0. -1.
        994    1    1    2    0    0  0.14203193260E+02  0.85390997540E+01  0.59011953179E+01  0.17210145563E+03  0.17120000000E+03 0.  0.
        998    1    1    2    0    0 -0.40926649967E+02 -0.32376681598E+02  0.13333921091E+04  0.13344503576E+04  0.10000000000E+02 0. -1.
</event>
<event>
 5    1  0.1535793E-008  0.3718018E+03  0.7957747E-01  0.3487651E+00
         13   -1    0    0    0    0  0.00000000000E+00  0.00000000000E+00  0.14999999963E+04  0.15000000000E+04  0.10566000000E+00 0. -1.
        994   -1    0    0    0    0 -0.00000000000E+00 -0.00000000000E+00  0.11368683772E-12  0.17120000000E+03  0.17120000000E+03 0.  0.
         13    1    1    2    0    0  0.19450424556E+02  0.77731939016E+01  0.13378535536E+02  0.24854334350E+02  0.10566000000E+00 0. -1.
        994    1    1    2    0    0 -0.31122195892E+01 -0.23420363847E+02  0.13861002387E+02  0.17337752663E+03  0.17120000000E+03 0.  0.
        998    1    1    2    0    0 -0.16338204967E+02  0.15647169945E+02  0.14727604584E+04  0.14729681390E+04  0.10000000000E+02 0. -1.
</event>
<event>
 5    1  0.1535793E-008  0.3820821E+03  0.7957747E-01  0.3442142E+00
         13   -1    0    0    0    0  0.00000000000E+00  0.00000000000E+00  0.14999999963E+04  0.15000000000E+04  0.10566000000E+00 0.  1.
        994   -1    0    0    0    0 -0.00000000000E+00 -0.00000000000E+00  0.11368683772E-12  0.17120000000E+03  0.17120000000E+03 0.  0.
         13    1    1    2    0    0  0.37825509852E+01  0.10243088042E+02  0.17579414620E+02  0.20694818844E+02  0.10566000000E+00 0.  1.
        994    1    1    2    0    0  0.10645515955E+00 -0.18916947219E+02  0.42748175398E+01  0.17229502689E+03  0.17120000000E+03 0.  0.
        998    1    1    2    0    0 -0.38890061447E+01  0.86738591777E+01  0.14781457641E+04  0.14782101543E+04  0.10000000000E+02 0.  1.
</event>
<event>
 5    1  0.1535793E-008  0.3854704E+03  0.7957747E-01  0.3427679E+00
         13   -1    0    0    0    0  0.00000000000E+00  0.00000000000E+00  0.14999999963E+04  0.15000000000E+04  0.10566000000E+00 0. -1.
        994   -1    0    0    0    0 -0.00000000000E+00 -0.00000000000E+00  0.11368683772E-12  0.17120000000E+03  0.17120000000E+03 0.  0.
         13    1    1    2    0    0  0.10471323426E+02 -0.11260359068E+02  0.81075401398E+02  0.82520762094E+02  0.10566000000E+00 0. -1.
        994    1    1    2    0    0 -0.32778912508E+01  0.19528977027E+02  0.26854080945E+01  0.17236234198E+03  0.17120000000E+03 0.  0.
        998    1    1    2    0    0 -0.71934321751E+01 -0.82686179591E+01  0.14162391868E+04  0.14163168959E+04  0.10000000000E+02 0. -1.
</event>
<event>
 5    1  0.1535793E-008  0.3843815E+03  0.7957747E-01  0.3432300E+00
         13   -1    0    0    0    0  0.00000000000E+00  0.00000000000E+00  0.14999999963E+04  0.15000000000E+04  0.10566000000E+00 0. -1.
        994   -1    0    0    0    0 -0.00000000000E+00 -0.00000000000E+00  0.11368683772E-12  0.17120000000E+03  0.17120000000E+03 0.  0.
         13    1    1    2    0    0  0.15846685409E+02  0.20674742691E+02  0.99317976628E+01  0.27878561524E+02  0.10566000000E+00 0. -1.
        994    1    1    2    0    0 -0.15048262663E+02 -0.20852502379E+02  0.21194057462E+02  0.17441303029E+03  0.17120000000E+03 0.  0.
        998    1    1    2    0    0 -0.79842274597E+00  0.17775968758E+00  0.14688741412E+04  0.14689084082E+04  0.10000000000E+02 0. -1.
</event>
<event>
 5    1  0.1535793E-008  0.3785190E+03  0.7957747E-01  0.3457632E+00
         13   -1    0    0    0    0  0.00000000000E+00  0.00000000000E+00  0.14999999963E+04  0.15000000000E+04  0.10566000000E+00 0. -1.
        994   -1    0    0    0    0 -0.00000000000E+00 -0.00000000000E+00  0.11368683772E-12  0.17120000000E+03  0.17120000000E+03 0.  0.
         13    1    1    2    0    0 -0.10694502673E+02 -0.69518848321E+02  0.41516593283E+03  0.42108194642E+03  0.10566000000E+00 0. -1.
        994    1    1    2    0    0  0.71106321561E+01  0.58662761155E+02  0.16704025752E+02  0.18188002945E+03  0.17120000000E+03 0.  0.
        998    1    1    2    0    0  0.35838705167E+01  0.10856087166E+02  0.10681300377E+04  0.10682380241E+04  0.10000000000E+02 0.  0.
</event>
<event>
 5    1  0.1535793E-008  0.3686482E+03  0.7957747E-01  0.3502127E+00
         13   -1    0    0    0    0  0.00000000000E+00  0.00000000000E+00  0.14999999963E+04  0.15000000000E+04  0.10566000000E+00 0.  1.
        994   -1    0    0    0    0 -0.00000000000E+00 -0.00000000000E+00  0.11368683772E-12  0.17120000000E+03  0.17120000000E+03 0.  0.
         13    1    1    2    0    0 -0.29397925191E+02 -0.18037269884E+00  0.38847832763E+02  0.48717920874E+02  0.10566000000E+00 0.  1.
        994    1    1    2    0    0  0.13775831891E+02 -0.12931940043E+02  0.11468968470E+02  0.17262093110E+03  0.17120000000E+03 0.  0.
        998    1    1    2    0    0  0.15622093300E+02  0.13112312742E+02  0.14496831950E+04  0.14498611480E+04  0.10000000000E+02 0.  1.
</event>
<event>
 5    1  0.1535793E-008  0.3742539E+03  0.7957747E-01  0.3476566E+00
         13   -1    0    0    0    0  0.00000000000E+00  0.00000000000E+00  0.14999999963E+04  0.15000000000E+04  0.10566000000E+00 0. -1.
        994   -1    0    0    0    0 -0.00000000000E+00 -0.00000000000E+00  0.11368683772E-12  0.17120000000E+03  0.17120000000E+03 0.  0.
         13    1    1    2    0    0 -0.50257510422E+02  0.33739646038E+02  0.25822929610E+03  0.26522926233E+03  0.10566000000E+00 0. -1.
        994    1    1    2    0    0  0.58336722205E+02  0.20234448636E+02  0.20168027127E+02  0.18310869828E+03  0.17120000000E+03 0.  0.
        998    1    1    2    0    0 -0.80792117829E+01 -0.53974094674E+02  0.12216026731E+04  0.12228620394E+04  0.10000000000E+02 0. -1.
</event>
<event>
 5    1  0.1535793E-008  0.4150245E+03  0.7957747E-01  0.3311530E+00
         13   -1    0    0    0    0  0.00000000000E+00  0.00000000000E+00  0.14999999963E+04  0.15000000000E+04  0.10566000000E+00 0.  1.
        994   -1    0    0    0    0 -0.00000000000E+00 -0.00000000000E+00  0.11368683772E-12  0.17120000000E+03  0.17120000000E+03 0.  0.
         13    1    1    2    0    0  0.52999607947E+02  0.92646884683E+02  0.16900320686E+03  0.19988621457E+03  0.10566000000E+00 0.  1.
        994    1    1    2    0    0 -0.41737029317E+02 -0.60417092757E+01  0.44538921086E+02  0.18185608969E+03  0.17120000000E+03 0.  0.
        998    1    1    2    0    0 -0.11262578630E+02 -0.86605175408E+02  0.12864578683E+04  0.12894576957E+04  0.10000000000E+02 0.  1.
</event>
<event>
 5    1  0.1535793E-008  0.3832278E+03  0.7957747E-01  0.3437223E+00
         13   -1    0    0    0    0  0.00000000000E+00  0.00000000000E+00  0.14999999963E+04  0.15000000000E+04  0.10566000000E+00 0.  1.
        994   -1    0    0    0    0 -0.00000000000E+00 -0.00000000000E+00  0.11368683772E-12  0.17120000000E+03  0.17120000000E+03 0.  0.
         13    1    1    2    0    0 -0.17367706713E+02  0.15444955125E+01  0.62177390746E+02  0.64576015570E+02  0.10566000000E+00 0.  1.
        994    1    1    2    0    0  0.34641190185E+01 -0.32922206403E+01  0.25881066063E+01  0.17128624327E+03  0.17120000000E+03 0.  0.
        998    1    1    2    0    0  0.13903587694E+02  0.17477251279E+01  0.14352344989E+04  0.14353377412E+04  0.10000000000E+02 0.  1.
</event>
<event>
 5    1  0.1535793E-008  0.3817789E+03  0.7957747E-01  0.3443449E+00
         13   -1    0    0    0    0  0.00000000000E+00  0.00000000000E+00  0.14999999963E+04  0.15000000000E+04  0.10566000000E+00 0.  1.
        994   -1    0    0    0    0 -0.00000000000E+00 -0.00000000000E+00  0.11368683772E-12  0.17120000000E+03  0.17120000000E+03 0.  0.
         13    1    1    2    0    0 -0.25100440062E+02  0.25869650824E+02  0.20653042363E+03  0.20965232642E+03  0.10566000000E+00 0.  1.
        994    1    1    2    0    0  0.11564880473E+02 -0.12234809699E+02  0.41804060380E+01  0.17207658999E+03  0.17120000000E+03 0.  0.
        998    1    1    2    0    0  0.13535559589E+02 -0.13634841126E+02  0.12892891666E+04  0.12894710836E+04  0.10000000000E+02 0.  1.
</event>
<event>
 5    1  0.1535793E-008  0.3858669E+03  0.7957747E-01  0.3426004E+00
         13   -1    0    0    0    0  0.00000000000E+00  0.00000000000E+00  0.14999999963E+04  0.15000000000E+04  0.10566000000E+00 0.  1.
        994   -1    0    0    0    0 -0.00000000000E+00 -0.00000000000E+00  0.11368683772E-12  0.17120000000E+03  0.17120000000E+03 0.  0.
         13    1    1    2    0    0  0.11435952300E+02  0.48931646026E+01  0.66836738636E+02  0.67984445724E+02  0.10566000000E+00 0.  1.
        994    1    1    2    0    0 -0.62623992902E+01  0.26016808959E+01  0.13511665142E+01  0.17133958106E+03  0.17120000000E+03 0.  0.
        998    1    1    2    0    0 -0.51735530101E+01 -0.74948454986E+01  0.14318120911E+04  0.14318759732E+04  0.10000000000E+02 0.  1.
</event>
<event>
 5    1  0.1535793E-008  0.3792066E+03  0.7957747E-01  0.3454620E+00
         13   -1    0    0    0    0  0.00000000000E+00  0.00000000000E+00  0.14999999963E+04  0.15000000000E+04  0.10566000000E+00 0.  1.
        994   -1    0    0    0    0 -0.00000000000E+00 -0.00000000000E+00  0.11368683772E-12  0.17120000000E+03  0.17120000000E+03 0.  0.
         13    1    1    2    0    0  0.21714875642E+02  0.12337207165E+02  0.66482067592E+02  0.71018441127E+02  0.10566000000E+00 0.  1.
        994    1    1    2    0    0 -0.84158603328E+01 -0.22142931970E+02  0.64172107875E+01  0.17295015680E+03  0.17120000000E+03 0.  0.
        998    1    1    2    0    0 -0.13299015309E+02  0.98057248056E+01  0.14271007179E+04  0.14272314021E+04  0.10000000000E+02 0.  1.
</event>
<event>
 5    1  0.1535793E-008  0.3844329E+03  0.7957747E-01  0.3432081E+00
         13   -1    0    0    0    0  0.00000000000E+00  0.00000000000E+00  0.14999999963E+04  0.15000000000E+04  0.10566000000E+00 0.  1.
        994   -1    0    0    0    0 -0.00000000000E+00 -0.00000000000E+00  0.11368683772E-12  0.17120000000E+03  0.17120000000E+03 0.  0.
         13    1    1    2    0    0 -0.16698567588E+02  0.87926360693E+01  0.85611969178E+02  0.87667400093E+02  0.10566000000E+00 0.  1.
        994    1    1    2    0    0  0.18966579121E+02 -0.16308633048E+02  0.39761612277E+01  0.17306343488E+03  0.17120000000E+03 0.  0.
        998    1    1    2    0    0 -0.22680115331E+01  0.75159969790E+01  0.14104118659E+04  0.14104691650E+04  0.10000000000E+02 0.  1.
</event>
<event>
 5    1  0.1535793E-008  0.3739187E+03  0.7957747E-01  0.3478073E+00
         13   -1    0    0    0    0  0.00000000000E+00  0.00000000000E+00  0.14999999963E+04  0.15000000000E+04  0.10566000000E+00 0. -1.
        994   -1    0    0    0    0 -0.00000000000E+00 -0.00000000000E+00  0.11368683772E-12  0.17120000000E+03  0.17120000000E+03 0.  0.
         13    1    1    2    0    0 -0.46050162538E+01 -0.29622231596E+02  0.30758303336E+02  0.42950752818E+02  0.10566000000E+00 0. -1.
        994    1    1    2    0    0  0.10987426662E+02 -0.16262061715E+01  0.13463510313E+02  0.17208740280E+03  0.17120000000E+03 0.  0.
        998    1    1    2    0    0 -0.63824104078E+01  0.31248437768E+02  0.14557781826E+04  0.14561618444E+04  0.10000000000E+02 0. -1.
</event>
<event>
 5    1  0.1535793E-008  0.3852574E+03  0.7957747E-01  0.3428581E+00
         13   -1    0    0    0    0  0.00000000000E+00  0.00000000000E+00  0.14999999963E+04  0.15000000000E+04  0.10566000000E+00 0. -1.
        994   -1    0    0    0    0 -0.00000000000E+00 -0.00000000000E+00  0.11368683772E-12  0.17120000000E+03  0.17120000000E+03 0.  0.
         13    1    1    2    0    0  0.64210661328E+01  0.88143502652E+01  0.39557581060E+02  0.41033355264E+02  0.10566000000E+00 0. -1.
        994    1    1    2    0    0 -0.14659762769E+02  0.13562172380E+01  0.22149314400E+01  0.17184613435E+03  0.17120000000E+03 0.  0.
        998    1    1    2    0    0  0.82386966361E+01 -0.10170567503E+02  0.14582274838E+04  0.14583205104E+04  0.10000000000E+02 0. -1.
</event>
<event>
 5    1  0.3097558E-008  0.3864507E+03  0.7957747E-01  0.3423543E+00
         13   -1    0    0    0    0  0.00000000000E+00  0.00000000000E+00  0.14999999963E+04  0.15000000000E+04  0.10566000000E+00 0. -1.
        994   -1    0    0    0    0 -0.00000000000E+00 -0.00000000000E+00  0.11368683772E-12  0.17120000000E+03  0.17120000000E+03 0.  0.
         13    1    1    2    0    0  0.10825467177E+02  0.22867262012E+01  0.65022634115E+02  0.65957364772E+02  0.10566000000E+00 0. -1.
        994    1    1    2    0    0 -0.14296342063E+02  0.13041669830E+01  0.15864666718E+01  0.17180815791E+03  0.17120000000E+03 0.  0.
        998    1    1    2    0    0  0.34708748854E+01 -0.35908931842E+01  0.14333908955E+04  0.14334344773E+04  0.10000000000E+02 0. -1.
</event>
<event>
 5    1  0.1535793E-008  0.3825650E+03  0.7957747E-01  0.3440066E+00
         13   -1    0    0    0    0  0.00000000000E+00  0.00000000000E+00  0.14999999963E+04  0.15000000000E+04  0.10566000000E+00 0.  1.
        994   -1    0    0    0    0 -0.00000000000E+00 -0.00000000000E+00  0.11368683772E-12  0.17120000000E+03  0.17120000000E+03 0.  0.
         13    1    1    2    0    0  0.31300128632E+01 -0.12624400503E+02  0.28032996330E+02  0.30903600371E+02  0.10566000000E+00 0.  1.
        994    1    1    2    0    0 -0.54649909913E+01  0.15177228952E+02  0.37069740259E+01  0.17199824436E+03  0.17120000000E+03 0.  0.
        998    1    1    2    0    0  0.23349781281E+01 -0.25528284487E+01  0.14682600259E+04  0.14682981553E+04  0.10000000000E+02 0.  1.
</event>
<event>
 5    1  0.1535793E-008  0.3847163E+03  0.7957747E-01  0.3430876E+00
         13   -1    0    0    0    0  0.00000000000E+00  0.00000000000E+00  0.14999999963E+04  0.15000000000E+04  0.10566000000E+00 0.  1.
        994   -1    0    0    0    0 -0.00000000000E+00 -0.00000000000E+00  0.11368683772E-12  0.17120000000E+03  0.17120000000E+03 0.  0.
         13    1    1    2    0    0  0.16230022275E+02 -0.12965976063E+02  0.11010979352E+03  0.11205225545E+03  0.10566000000E+00 0.  1.
        994    1    1    2    0    0 -0.19851147202E+02  0.16601549277E+02  0.39785307599E+01  0.17319049683E+03  0.17120000000E+03 0.  0.
        998    1    1    2    0    0  0.36211249271E+01 -0.36355732134E+01  0.13859116720E+04  0.13859572477E+04  0.10000000000E+02 0.  1.
</event>
<event>
 5    1  0.1535793E-008  0.3825562E+03  0.7957747E-01  0.3440103E+00
         13   -1    0    0    0    0  0.00000000000E+00  0.00000000000E+00  0.14999999963E+04  0.15000000000E+04  0.10566000000E+00 0. -1.
        994   -1    0    0    0    0 -0.00000000000E+00 -0.00000000000E+00  0.11368683772E-12  0.17120000000E+03  0.17120000000E+03 0.  0.
         13    1    1    2    0    0  0.10997315772E+02  0.61400803589E+01  0.28303075106E+02  0.30979295756E+02  0.10566000000E+00 0. -1.
        994    1    1    2    0    0  0.96335427075E+01 -0.28338711153E+01  0.31826696522E+01  0.17152377490E+03  0.17120000000E+03 0.  0.
        998    1    1    2    0    0 -0.20630858480E+02 -0.33062092436E+01  0.14685142515E+04  0.14686969293E+04  0.10000000000E+02 0. -1.
</event>
<event>
 5    1  0.1535793E-008  0.3841212E+03  0.7957747E-01  0.3433408E+00
         13   -1    0    0    0    0  0.00000000000E+00  0.00000000000E+00  0.14999999963E+04  0.15000000000E+04  0.10566000000E+00 0.  1.
        994   -1    0    0    0    0 -0.00000000000E+00 -0.00000000000E+00  0.11368683772E-12  0.17120000000E+03  0.17120000000E+03 0.  0.
         13    1    1    2    0    0 -0.97940177366E+01  0.12462624733E+02  0.58808490785E+02  0.60907220845E+02  0.10566000000E+00 0.  1.
        994    1    1    2    0    0  0.86826629355E+01 -0.12622429502E+02  0.28415430339E+01  0.17190761684E+03  0.17120000000E+03 0.  0.
        998    1    1    2    0    0  0.11113548010E+01  0.15980476869E+00  0.14383499625E+04  0.14383851623E+04  0.10000000000E+02 0.  0.
</event>
<event>
 5    1  0.1535793E-008  0.3734179E+03  0.7957747E-01  0.3480329E+00
         13   -1    0    0    0    0  0.00000000000E+00  0.00000000000E+00  0.14999999963E+04  0.15000000000E+04  0.10566000000E+00 0. -1.
        994   -1    0    0    0    0 -0.00000000000E+00 -0.00000000000E+00  0.11368683772E-12  0.17120000000E+03  0.17120000000E+03 0.  0.
         13    1    1    2    0    0 -0.40995179162E+01  0.98193024121E+01  0.41902231154E+01  0.11436515238E+02  0.10566000000E+00 0. -1.
        994    1    1    2    0    0 -0.51006840702E+01 -0.31731179026E+00  0.75826823477E+01  0.17144402800E+03  0.17120000000E+03 0.  0.
        998    1    1    2    0    0  0.92002019865E+01 -0.95019906218E+01  0.14882270908E+04  0.14883194568E+04  0.10000000000E+02 0. -1.
</event>
<event>
 5    1  0.1535793E-008  0.3860132E+03  0.7957747E-01  0.3425387E+00
         13   -1    0    0    0    0  0.00000000000E+00  0.00000000000E+00  0.14999999963E+04  0.15000000000E+04  0.10566000000E+00 0. -1.
        994   -1    0    0    0    0 -0.00000000000E+00 -0.00000000000E+00  0.11368683772E-12  0.17120000000E+03  0.17120000000E+03 0.  0.
         13    1    1    2    0    0 -0.73296972308E+01 -0.11223196015E+02  0.78016870030E+02  0.79160139993E+02  0.10566000000E+00 0. -1.
        994    1    1    2    0    0  0.76829583384E+01  0.10182314557E+02  0.16614732483E+01  0.17168257882E+03  0.17120000000E+03 0.  0.
        998    1    1    2    0    0 -0.35326110760E+00  0.10408814587E+01  0.14203216530E+04  0.14203572812E+04  0.10000000000E+02 0.  0.
</event>
<event>
 5    1  0.1535793E-008  0.3807022E+03  0.7957747E-01  0.3448107E+00
         13   -1    0    0    0    0  0.00000000000E+00  0.00000000000E+00  0.14999999963E+04  0.15000000000E+04  0.10566000000E+00 0.  1.
        994   -1    0    0    0    0 -0.00000000000E+00 -0.00000000000E+00  0.11368683772E-12  0.17120000000E+03  0.17120000000E+03 0.  0.
         13    1    1    2    0    0  0.42708954485E+02 -0.38433977742E+02  0.31872962436E+03  0.32386696350E+03  0.10566000000E+00 0.  1.
        994    1    1    2    0    0 -0.53983958515E+02  0.37789926296E+02  0.18399863416E+02  0.18436469640E+03  0.17120000000E+03 0.  0.
        998    1    1    2    0    0  0.11275004030E+02  0.64405144588E+00  0.11628705085E+04  0.11629683401E+04  0.10000000000E+02 0.  1.
</event>
<event>
 5    1  0.1535793E-008  0.3820896E+03  0.7957747E-01  0.3442110E+00
         13   -1    0    0    0    0  0.00000000000E+00  0.00000000000E+00  0.14999999963E+04  0.15000000000E+04  0.10566000000E+00 0.  1.
        994   -1    0    0    0    0 -0.00000000000E+00 -0.00000000000E+00  0.11368683772E-12  0.17120000000E+03  0.17120000000E+03 0.  0.
         13    1    1    2    0    0 -0.24041054870E+02  0.13948073487E+02  0.11661388851E+03  0.11988048728E+03  0.10566000000E+00 0.  1.
        994    1    1    2    0    0  0.24439873276E+02 -0.11737996071E+02  0.55263627464E+01  0.17342164987E+03  0.17120000000E+03 0.  0.
        998    1    1    2    0    0 -0.39881840598E+00 -0.22100774166E+01  0.13778597450E+04  0.13778978628E+04  0.10000000000E+02 0.  1.
</event>
<event>
 5    1  0.1535793E-008  0.3845237E+03  0.7957747E-01  0.3431695E+00
         13   -1    0    0    0    0  0.00000000000E+00  0.00000000000E+00  0.14999999963E+04  0.15000000000E+04  0.10566000000E+00 0.  1.
        994   -1    0    0    0    0 -0.00000000000E+00 -0.00000000000E+00  0.11368683772E-12  0.17120000000E+03  0.17120000000E+03 0.  0.
         13    1    1    2    0    0  0.54680407734E+01 -0.11624763813E+02  0.45919216256E+02  0.47682493530E+02  0.10566000000E+00 0.  1.
        994    1    1    2    0    0 -0.19362575245E+02 -0.89663717495E+01  0.33678818412E+01  0.17255749120E+03  0.17120000000E+03 0.  0.
        998    1    1    2    0    0  0.13894534472E+02  0.20591135563E+02  0.14507128982E+04  0.14509600153E+04  0.10000000000E+02 0.  1.
</event>
<event>
 5    1  0.1535793E-008  0.3723509E+03  0.7957747E-01  0.3485156E+00
         13   -1    0    0    0    0  0.00000000000E+00  0.00000000000E+00  0.14999999963E+04  0.15000000000E+04  0.10566000000E+00 0.  1.
        994   -1    0    0    0    0 -0.00000000000E+00 -0.00000000000E+00  0.11368683772E-12  0.17120000000E+03  0.17120000000E+03 0.  0.
         13    1    1    2    0    0 -0.65747575469E+02 -0.40698194840E+02  0.33394478880E+03  0.34278013343E+03  0.10566000000E+00 0.  1.
        994    1    1    2    0    0  0.54482896813E+02  0.22239405540E+02  0.20017889822E+02  0.18213493107E+03  0.17120000000E+03 0.  0.
        998    1    1    2    0    0  0.11264678656E+02  0.18458789301E+02  0.11460373177E+04  0.11462849355E+04  0.10000000000E+02 0.  1.
</event>
<event>
 5    1  0.1535793E-008  0.3761410E+03  0.7957747E-01  0.3468136E+00
         13   -1    0    0    0    0  0.00000000000E+00  0.00000000000E+00  0.14999999963E+04  0.15000000000E+04  0.10566000000E+00 0. -1.
        994   -1    0    0    0    0 -0.00000000000E+00 -0.00000000000E+00  0.11368683772E-12  0.17120000000E+03  0.17120000000E+03 0.  0.
         13    1    1    2    0    0  0.22716775091E+02  0.29875909964E+01  0.43410907943E+02  0.49086613888E+02  0.10566000000E+00 0. -1.
        994    1    1    2    0    0  0.54886553308E+01  0.41615577509E+01  0.62546543415E+01  0.17145263078E+03  0.17120000000E+03 0.  0.
        998    1    1    2    0    0 -0.28205430422E+02 -0.71491487473E+01  0.14503344340E+04  0.14506607553E+04  0.10000000000E+02 0. -1.
</event>
<event>
 5    1  0.1535793E-008  0.3851036E+03  0.7957747E-01  0.3429233E+00
         13   -1    0    0    0    0  0.00000000000E+00  0.00000000000E+00  0.14999999963E+04  0.15000000000E+04  0.10566000000E+00 0.  1.
        994   -1    0    0    0    0 -0.00000000000E+00 -0.00000000000E+00  0.11368683772E-12  0.17120000000E+03  0.17120000000E+03 0.  0.
         13    1    1    2    0    0  0.57031044906E+01 -0.12013754851E+02  0.55359822215E+02  0.56934846853E+02  0.10566000000E+00 0.  1.
        994    1    1    2    0    0 -0.68666588794E+01  0.88369830648E+01  0.19905838960E+01  0.17157693813E+03  0.17120000000E+03 0.  0.
        998    1    1    2    0    0  0.11635543888E+01  0.31767717864E+01  0.14426495902E+04  0.14426882150E+04  0.10000000000E+02 0.  1.
</event>
<event>
 5    1  0.1535793E-008  0.3813160E+03  0.7957747E-01  0.3445448E+00
         13   -1    0    0    0    0  0.00000000000E+00  0.00000000000E+00  0.14999999963E+04  0.15000000000E+04  0.10566000000E+00 0. -1.
        994   -1    0    0    0    0 -0.00000000000E+00 -0.00000000000E+00  0.11368683772E-12  0.17120000000E+03  0.17120000000E+03 0.  0.
         13    1    1    2    0    0 -0.71522771184E+01 -0.10895061144E+02  0.22781981693E+02  0.26246662249E+02  0.10566000000E+00 0. -1.
        994    1    1    2    0    0  0.52956808236E+01  0.12856604561E+02  0.41140802925E+01  0.17181298604E+03  0.17120000000E+03 0.  0.
        998    1    1    2    0    0  0.18565962948E+01 -0.19615434169E+01  0.14731039343E+04  0.14731403517E+04  0.10000000000E+02 0. -1.
</event>
<event>
 5    1  0.1535793E-008  0.3792280E+03  0.7957747E-01  0.3454527E+00
         13   -1    0    0    0    0  0.00000000000E+00  0.00000000000E+00  0.14999999963E+04  0.15000000000E+04  0.10566000000E+00 0. -1.
        994   -1    0    0    0    0 -0.00000000000E+00 -0.00000000000E+00  0.11368683772E-12  0.17120000000E+03  0.17120000000E+03 0.  0.
         13    1    1    2    0    0 -0.27342289543E+02  0.12757874411E+02  0.22127963148E+02  0.37416868843E+02  0.10566000000E+00 0. -1.
        994    1    1    2    0    0  0.19027421423E+02 -0.11209586598E+02  0.17667934261E+02  0.17352029708E+03  0.17120000000E+03 0.  0.
        998    1    1    2    0    0  0.83148681200E+01 -0.15482878130E+01  0.14602040989E+04  0.14602628341E+04  0.10000000000E+02 0. -1.
</event>
<event>
 5    1  0.1535793E-008  0.3686207E+03  0.7957747E-01  0.3502254E+00
         13   -1    0    0    0    0  0.00000000000E+00  0.00000000000E+00  0.14999999963E+04  0.15000000000E+04  0.10566000000E+00 0. -1.
        994   -1    0    0    0    0 -0.00000000000E+00 -0.00000000000E+00  0.11368683772E-12  0.17120000000E+03  0.17120000000E+03 0.  0.
         13    1    1    2    0    0  0.78847168934E+01  0.14540203887E+02  0.91267731302E+01  0.18891676511E+02  0.10566000000E+00 0. -1.
        994    1    1    2    0    0 -0.82077653156E+01 -0.14436150427E+02  0.10950464435E+02  0.17235174070E+03  0.17120000000E+03 0.  0.
        998    1    1    2    0    0  0.32304842212E+00 -0.10405346025E+00  0.14799227587E+04  0.14799565828E+04  0.10000000000E+02 0.  0.
</event>
<event>
 5    1  0.1535793E-008  0.3810554E+03  0.7957747E-01  0.3446576E+00
         13   -1    0    0    0    0  0.00000000000E+00  0.00000000000E+00  0.14999999963E+04  0.15000000000E+04  0.10566000000E+00 0.  1.
        994   -1    0    0    0    0 -0.00000000000E+00 -0.00000000000E+00  0.11368683772E-12  0.17120000000E+03  0.17120000000E+03 0.  0.
         13    1    1    2    0    0  0.16225761690E+02 -0.10688750948E+01  0.37056490109E+02  0.40467424673E+02  0.10566000000E+00 0.  1.
        994    1    1    2    0    0  0.22198469546E+01 -0.40459267488E+01  0.36722839533E+01  0.17130155549E+03  0.17120000000E+03 0.  0.
        998    1    1    2    0    0 -0.18445608645E+02  0.51148018436E+01  0.14592712222E+04  0.14594310198E+04  0.10000000000E+02 0.  1.
</event>
<event>
 5    1  0.1535793E-008  0.3724394E+03  0.7957747E-01  0.3484755E+00
         13   -1    0    0    0    0  0.00000000000E+00  0.00000000000E+00  0.14999999963E+04  0.15000000000E+04  0.10566000000E+00 0. -1.
        994   -1    0    0    0    0 -0.00000000000E+00 -0.00000000000E+00  0.11368683772E-12  0.17120000000E+03  0.17120000000E+03 0.  0.
         13    1    1    2    0    0  0.41191751801E+02  0.23331640139E+02  0.93628270685E+02  0.10491610974E+03  0.10566000000E+00 0. -1.
        994    1    1    2    0    0 -0.22428131755E+02  0.19987712292E+02  0.15423520151E+02  0.17449886736E+03  0.17120000000E+03 0.  0.
        998    1    1    2    0    0 -0.18763620046E+02 -0.43319352431E+02  0.13909482054E+04  0.13917850229E+04  0.10000000000E+02 0. -1.
</event>
<event>
 5    1  0.1535793E-008  0.3826320E+03  0.7957747E-01  0.3439778E+00
         13   -1    0    0    0    0  0.00000000000E+00  0.00000000000E+00  0.14999999963E+04  0.15000000000E+04  0.10566000000E+00 0.  1.
        994   -1    0    0    0    0 -0.00000000000E+00 -0.00000000000E+00  0.11368683772E-12  0.17120000000E+03  0.17120000000E+03 0.  0.
         13    1    1    2    0    0  0.59598698768E+01  0.86805114142E+01  0.17852780125E+02  0.20726896767E+02  0.10566000000E+00 0.  1.
        994    1    1    2    0    0  0.87394753809E+01 -0.32607409097E+02  0.65964095864E+01  0.17462123060E+03  0.17120000000E+03 0.  0.
        998    1    1    2    0    0 -0.14699345258E+02  0.23926897683E+02  0.14755508066E+04  0.14758518726E+04  0.10000000000E+02 0.  1.
</event>
<event>
 5    1  0.1535793E-008  0.3280285E+03  0.7957747E-01  0.3714235E+00
         13   -1    0    0    0    0  0.00000000000E+00  0.00000000000E+00  0.14999999963E+04  0.15000000000E+04  0.10566000000E+00 0. -1.
        994   -1    0    0    0    0 -0.00000000000E+00 -0.00000000000E+00  0.11368683772E-12  0.17120000000E+03  0.17120000000E+03 0.  0.
         13    1    1    2    0    0  0.14730405251E+03  0.19476107810E+03  0.73939575237E+03  0.77867608877E+03  0.10566000000E+00 0. -1.
        994    1    1    2    0    0 -0.10772828881E+03 -0.21776480775E+03  0.27581405925E+03  0.40547469833E+03  0.17120000000E+03 0.  0.
        998    1    1    2    0    0 -0.39575763706E+02  0.23003729654E+02  0.48479018465E+03  0.48704921290E+03  0.10000000000E+02 0. -1.
</event>
<event>
 5    1  0.1535793E-008  0.3831633E+03  0.7957747E-01  0.3437499E+00
         13   -1    0    0    0    0  0.00000000000E+00  0.00000000000E+00  0.14999999963E+04  0.15000000000E+04  0.10566000000E+00 0.  1.
        994   -1    0    0    0    0 -0.00000000000E+00 -0.00000000000E+00  0.11368683772E-12  0.17120000000E+03  0.17120000000E+03 0.  0.
         13    1    1    2    0    0 -0.19214158807E+02  0.10174468551E+02  0.10370856925E+03  0.10596311721E+03  0.10566000000E+00 0.  1.
        994    1    1    2    0    0  0.47777103510E+00  0.96668804008E+01  0.28547545880E+01  0.17149713253E+03  0.17120000000E+03 0.  0.
        998    1    1    2    0    0  0.18736387772E+02 -0.19841348952E+02  0.13934366724E+04  0.13937397503E+04  0.10000000000E+02 0.  1.
</event>
<event>
 5    1  0.1535793E-008  0.3824002E+03  0.7957747E-01  0.3440774E+00
         13   -1    0    0    0    0  0.00000000000E+00  0.00000000000E+00  0.14999999963E+04  0.15000000000E+04  0.10566000000E+00 0. -1.
        994   -1    0    0    0    0 -0.00000000000E+00 -0.00000000000E+00  0.11368683772E-12  0.17120000000E+03  0.17120000000E+03 0.  0.
         13    1    1    2    0    0 -0.20391985441E+02  0.18779234285E+02  0.13474779925E+03  0.13756988507E+03  0.10566000000E+00 0. -1.
        994    1    1    2    0    0 -0.21224283356E+01 -0.20521890680E+02  0.43394097563E+01  0.17249325545E+03  0.17120000000E+03 0.  0.
        998    1    1    2    0    0  0.22514413776E+02  0.17426563946E+01  0.13609127873E+04  0.13611368595E+04  0.10000000000E+02 0. -1.
</event>
<event>
 5    1  0.1535793E-008  0.3686701E+03  0.7957747E-01  0.3502025E+00
         13   -1    0    0    0    0  0.00000000000E+00  0.00000000000E+00  0.14999999963E+04  0.15000000000E+04  0.10566000000E+00 0.  1.
        994   -1    0    0    0    0 -0.00000000000E+00 -0.00000000000E+00  0.11368683772E-12  0.17120000000E+03  0.17120000000E+03 0.  0.
         13    1    1    2    0    0  0.48646239917E+01  0.25815248746E+02  0.31414777758E+02  0.40951081304E+02  0.10566000000E+00 0.  1.
        994    1    1    2    0    0  0.16380668142E+01 -0.76694699389E+01  0.10179545182E+02  0.17168158658E+03  0.17120000000E+03 0.  0.
        998    1    1    2    0    0 -0.65026908059E+01 -0.18145778807E+02  0.14584056733E+04  0.14585673321E+04  0.10000000000E+02 0.  1.
</event>
<event>
 5    1  0.1535793E-008  0.3842277E+03  0.7957747E-01  0.3432954E+00
         13   -1    0    0    0    0  0.00000000000E+00  0.00000000000E+00  0.14999999963E+04  0.15000000000E+04  0.10566000000E+00 0. -1.
        994   -1    0    0    0    0 -0.00000000000E+00 -0.00000000000E+00  0.11368683772E-12  0.17120000000E+03  0.17120000000E+03 0.  0.
         13    1    1    2    0    0  0.95108754040E+01  0.92970309264E+01  0.43801331666E+02  0.45776187639E+02  0.10566000000E+00 0. -1.
        994    1    1    2    0    0 -0.92207229597E+01 -0.12644379535E+01  0.22996757161E+01  0.17146821584E+03  0.17120000000E+03 0.  0.
        998    1    1    2    0    0 -0.29015244424E+00 -0.80325929730E+01  0.14538989889E+04  0.14539555965E+04  0.10000000000E+02 0. -1.
</event>
<event>
 5    1  0.1535793E-008  0.2442460E+03  0.7957747E-01  0.4397148E+00
         13   -1    0    0    0    0  0.00000000000E+00  0.00000000000E+00  0.14999999963E+04  0.15000000000E+04  0.10566000000E+00 0.  1.
        994   -1    0    0    0    0 -0.00000000000E+00 -0.00000000000E+00  0.11368683772E-12  0.17120000000E+03  0.17120000000E+03 0.  0.
         13    1    1    2    0    0  0.18410992378E+02  0.20279231918E+03  0.32437293573E+03  0.38299021130E+03  0.10566000000E+00 0.  1.
        994    1    1    2    0    0  0.62488747995E+02 -0.11679373231E+03  0.16896603833E+03  0.27459894690E+03  0.17120000000E+03 0.  0.
        998    1    1    2    0    0 -0.80899740373E+02 -0.85998586866E+02  0.10066610222E+04  0.10136108418E+04  0.10000000000E+02 0. -1.
</event>
<event>
 5    1  0.1535793E-008  0.3793515E+03  0.7957747E-01  0.3453987E+00
         13   -1    0    0    0    0  0.00000000000E+00  0.00000000000E+00  0.14999999963E+04  0.15000000000E+04  0.10566000000E+00 0. -1.
        994   -1    0    0    0    0 -0.00000000000E+00 -0.00000000000E+00  0.11368683772E-12  0.17120000000E+03  0.17120000000E+03 0.  0.
         13    1    1    2    0    0 -0.11680957806E+03 -0.57648348973E+02  0.34569350286E+03  0.36942092354E+03  0.10566000000E+00 0. -1.
        994    1    1    2    0    0  0.13499210883E+03  0.62536589346E+02  0.10104302732E+03  0.24829987480E+03  0.17120000000E+03 0.  0.
        998    1    1    2    0    0 -0.18182530777E+02 -0.48882403732E+01  0.10532634661E+04  0.10534792017E+04  0.10000000000E+02 0. -1.
</event>
<event>
 5    1  0.1535793E-008  0.3819425E+03  0.7957747E-01  0.3442744E+00
         13   -1    0    0    0    0  0.00000000000E+00  0.00000000000E+00  0.14999999963E+04  0.15000000000E+04  0.10566000000E+00 0. -1.
        994   -1    0    0    0    0 -0.00000000000E+00 -0.00000000000E+00  0.11368683772E-12  0.17120000000E+03  0.17120000000E+03 0.  0.
         13    1    1    2    0    0  0.38039662899E+02 -0.33215890331E+02  0.30248335268E+03  0.30667001995E+03  0.10566000000E+00 0. -1.
        994    1    1    2    0    0 -0.22968075326E+02  0.64629254224E+02  0.18942843886E+02  0.18539887896E+03  0.17120000000E+03 0.  0.
        998    1    1    2    0    0 -0.15071587573E+02 -0.31413363893E+02  0.11785737997E+04  0.11791311011E+04  0.10000000000E+02 0. -1.
</event>
<event>
 5    1  0.1535793E-008  0.3855926E+03  0.7957747E-01  0.3427163E+00
         13   -1    0    0    0    0  0.00000000000E+00  0.00000000000E+00  0.14999999963E+04  0.15000000000E+04  0.10566000000E+00 0.  1.
        994   -1    0    0    0    0 -0.00000000000E+00 -0.00000000000E+00  0.11368683772E-12  0.17120000000E+03  0.17120000000E+03 0.  0.
         13    1    1    2    0    0  0.13276230265E+02  0.44646383929E+00  0.67524796233E+02  0.68819088125E+02  0.10566000000E+00 0.  1.
        994    1    1    2    0    0 -0.66489751883E+01  0.33736791720E+01  0.15186827503E+01  0.17136900822E+03  0.17120000000E+03 0.  0.
        998    1    1    2    0    0 -0.66272550766E+01 -0.38201430113E+01  0.14309565173E+04  0.14310119037E+04  0.10000000000E+02 0.  1.
</event>
<event>
 5    1  0.1535793E-008  0.3807428E+03  0.7957747E-01  0.3447931E+00
         13   -1    0    0    0    0  0.00000000000E+00  0.00000000000E+00  0.14999999963E+04  0.15000000000E+04  0.10566000000E+00 0.  1.
        994   -1    0    0    0    0 -0.00000000000E+00 -0.00000000000E+00  0.11368683772E-12  0.17120000000E+03  0.17120000000E+03 0.  0.
         13    1    1    2    0    0 -0.12717479325E+02  0.10401608264E+02  0.33491226523E+02  0.37304170717E+02  0.10566000000E+00 0.  1.
        994    1    1    2    0    0  0.83426377680E+01 -0.21016621147E+02  0.54655630387E+01  0.17277329177E+03  0.17120000000E+03 0.  0.
        998    1    1    2    0    0  0.43748415569E+01  0.10615012883E+02  0.14610432067E+04  0.14611225375E+04  0.10000000000E+02 0.  1.
</event>
<event>
 5    1  0.1535793E-008  0.3844121E+03  0.7957747E-01  0.3432170E+00
         13   -1    0    0    0    0  0.00000000000E+00  0.00000000000E+00  0.14999999963E+04  0.15000000000E+04  0.10566000000E+00 0. -1.
        994   -1    0    0    0    0 -0.00000000000E+00 -0.00000000000E+00  0.11368683772E-12  0.17120000000E+03  0.17120000000E+03 0.  0.
         13    1    1    2    0    0 -0.66737911128E+01  0.77447920209E+01  0.26828621136E+02  0.28710753514E+02  0.10566000000E+00 0. -1.
        994    1    1    2    0    0  0.94588602461E+01  0.49218611254E+00  0.22179729949E+01  0.17147615487E+03  0.17120000000E+03 0.  0.
        998    1    1    2    0    0 -0.27850691333E+01 -0.82369781334E+01  0.14709534021E+04  0.14710130916E+04  0.10000000000E+02 0. -1.
</event>
<event>
 5    1  0.1535793E-008  0.3829834E+03  0.7957747E-01  0.3438270E+00
         13   -1    0    0    0    0  0.00000000000E+00  0.00000000000E+00  0.14999999963E+04  0.15000000000E+04  0.10566000000E+00 0. -1.
        994   -1    0    0    0    0 -0.00000000000E+00 -0.00000000000E+00  0.11368683772E-12  0.17120000000E+03  0.17120000000E+03 0.  0.
         13    1    1    2    0    0  0.16374564152E+02 -0.16951314654E+02  0.94082164920E+02  0.96989372303E+02  0.10566000000E+00 0. -1.
        994    1    1    2    0    0 -0.11460290820E+02  0.34302285636E+02  0.69765513060E+01  0.17511738159E+03  0.17120000000E+03 0.  0.
        998    1    1    2    0    0 -0.49142733320E+01 -0.17350970982E+02  0.13989412801E+04  0.13990932461E+04  0.10000000000E+02 0. -1.
</event>
<event>
 5    1  0.1535793E-008  0.3830839E+03  0.7957747E-01  0.3437840E+00
         13   -1    0    0    0    0  0.00000000000E+00  0.00000000000E+00  0.14999999963E+04  0.15000000000E+04  0.10566000000E+00 0.  1.
        994   -1    0    0    0    0 -0.00000000000E+00 -0.00000000000E+00  0.11368683772E-12  0.17120000000E+03  0.17120000000E+03 0.  0.
         13    1    1    2    0    0 -0.22118217466E+02 -0.15397213709E+01  0.10965749146E+03  0.11187655198E+03  0.10566000000E+00 0.  1.
        994    1    1    2    0    0 -0.76514986650E+01 -0.75008077309E+01  0.29644792583E+01  0.17156058896E+03  0.17120000000E+03 0.  0.
        998    1    1    2    0    0  0.29769716131E+02  0.90405291018E+01  0.13873780256E+04  0.13877628591E+04  0.10000000000E+02 0.  1.
</event>
<event>
 5    1  0.1535793E-008  0.3847553E+03  0.7957747E-01  0.3430711E+00
         13   -1    0    0    0    0  0.00000000000E+00  0.00000000000E+00  0.14999999963E+04  0.15000000000E+04  0.10566000000E+00 0.  1.
        994   -1    0    0    0    0 -0.00000000000E+00 -0.00000000000E+00  0.11368683772E-12  0.17120000000E+03  0.17120000000E+03 0.  0.
         13    1    1    2    0    0  0.10266117506E+02 -0.96099484982E+01  0.53269438968E+02  0.55094360608E+02  0.10566000000E+00 0.  1.
        994    1    1    2    0    0 -0.14305648722E+02  0.13058509615E+02  0.29874587191E+01  0.17231813941E+03  0.17120000000E+03 0.  0.
        998    1    1    2    0    0  0.40395312159E+01 -0.34485611167E+01  0.14437430986E+04  0.14437875000E+04  0.10000000000E+02 0.  1.
</event>
<event>
 5    1  0.1535793E-008  0.3844692E+03  0.7957747E-01  0.3431926E+00
         13   -1    0    0    0    0  0.00000000000E+00  0.00000000000E+00  0.14999999963E+04  0.15000000000E+04  0.10566000000E+00 0. -1.
        994   -1    0    0    0    0 -0.00000000000E+00 -0.00000000000E+00  0.11368683772E-12  0.17120000000E+03  0.17120000000E+03 0.  0.
         13    1    1    2    0    0  0.19642984415E+02  0.28296318086E+01  0.11839695227E+03  0.12004875312E+03  0.10566000000E+00 0. -1.
        994    1    1    2    0    0  0.45785131415E+01 -0.69678246929E+01  0.21229156434E+01  0.17141604398E+03  0.17120000000E+03 0.  0.
        998    1    1    2    0    0 -0.24221497556E+02  0.41381928843E+01  0.13794801284E+04  0.13797352029E+04  0.10000000000E+02 0. -1.
</event>
<event>
 5    1  0.1535793E-008  0.3811937E+03  0.7957747E-01  0.3445977E+00
         13   -1    0    0    0    0  0.00000000000E+00  0.00000000000E+00  0.14999999963E+04  0.15000000000E+04  0.10566000000E+00 0. -1.
        994   -1    0    0    0    0 -0.00000000000E+00 -0.00000000000E+00  0.11368683772E-12  0.17120000000E+03  0.17120000000E+03 0.  0.
         13    1    1    2    0    0  0.20829982451E+03  0.23483733097E+02  0.79858713140E+03  0.82564018810E+03  0.10566000000E+00 0. -1.
        994    1    1    2    0    0 -0.24872108346E+03 -0.30570685481E+02  0.25286536261E+03  0.39502794303E+03  0.17120000000E+03 0.  0.
        998    1    1    2    0    0  0.40421258949E+02  0.70869523846E+01  0.44854750227E+03  0.45053186886E+03  0.10000000000E+02 0. -1.
</event>
<event>
 5    1  0.1535793E-008  0.3818904E+03  0.7957747E-01  0.3442968E+00
         13   -1    0    0    0    0  0.00000000000E+00  0.00000000000E+00  0.14999999963E+04  0.15000000000E+04  0.10566000000E+00 0.  1.
        994   -1    0    0    0    0 -0.00000000000E+00 -0.00000000000E+00  0.11368683772E-12  0.17120000000E+03  0.17120000000E+03 0.  0.
         13    1    1    2    0    0  0.12789622969E+03  0.12423110377E+03  0.10758193801E+04  0.10904944577E+04  0.10566000000E+00 0.  1.
        994    1    1    2    0    0 -0.12347677088E+03 -0.12943014807E+03  0.11799833867E+03  0.27428402087E+03  0.17120000000E+03 0.  0.
        998    1    1    2    0    0 -0.44194588133E+01  0.51990442963E+01  0.30618227756E+03  0.30642152139E+03  0.10000000000E+02 0. -1.
</event>
<event>
 5    1  0.1535793E-008  0.3858924E+03  0.7957747E-01  0.3425896E+00
         13   -1    0    0    0    0  0.00000000000E+00  0.00000000000E+00  0.14999999963E+04  0.15000000000E+04  0.10566000000E+00 0. -1.
        994   -1    0    0    0    0 -0.00000000000E+00 -0.00000000000E+00  0.11368683772E-12  0.17120000000E+03  0.17120000000E+03 0.  0.
         13    1    1    2    0    0  0.54486725145E+02 -0.46640538443E+01  0.66474295326E+02  0.86077870085E+02  0.10566000000E+00 0. -1.
        994    1    1    2    0    0 -0.54510925545E+02  0.75852825825E+01  0.30907920287E+02  0.18246565993E+03  0.17120000000E+03 0.  0.
        998    1    1    2    0    0  0.24200399327E-01 -0.29212287382E+01  0.14026177807E+04  0.14026564700E+04  0.10000000000E+02 0. -1.
</event>
<event>
 5    1  0.1535793E-008  0.3849674E+03  0.7957747E-01  0.3429811E+00
         13   -1    0    0    0    0  0.00000000000E+00  0.00000000000E+00  0.14999999963E+04  0.15000000000E+04  0.10566000000E+00 0.  1.
        994   -1    0    0    0    0 -0.00000000000E+00 -0.00000000000E+00  0.11368683772E-12  0.17120000000E+03  0.17120000000E+03 0.  0.
         13    1    1    2    0    0  0.11157240048E+02  0.13905716791E+02  0.99424063573E+02  0.10100994281E+03  0.10566000000E+00 0.  1.
        994    1    1    2    0    0 -0.63310005615E+01 -0.47878709672E+01  0.18536005480E+01  0.17139393546E+03  0.17120000000E+03 0.  0.
        998    1    1    2    0    0 -0.48262394860E+01 -0.91178458236E+01  0.13987223322E+04  0.13987961217E+04  0.10000000000E+02 0.  1.
</event>
<event>
 5    1  0.1535793E-008  0.3812952E+03  0.7957747E-01  0.3445538E+00
         13   -1    0    0    0    0  0.00000000000E+00  0.00000000000E+00  0.14999999963E+04  0.15000000000E+04  0.10566000000E+00 0.  1.
        994   -1    0    0    0    0 -0.00000000000E+00 -0.00000000000E+00  0.11368683772E-12  0.17120000000E+03  0.17120000000E+03 0.  0.
         13    1    1    2    0    0 -0.89437658617E+01 -0.97043464678E+01  0.23968183325E+02  0.27361474085E+02  0.10566000000E+00 0.  1.
        994    1    1    2    0    0  0.25972298395E+01  0.38243311697E+01  0.35518920009E+01  0.17129923248E+03  0.17120000000E+03 0.  0.
        998    1    1    2    0    0  0.63465360222E+01  0.58800152982E+01  0.14724799210E+04  0.14725392934E+04  0.10000000000E+02 0.  1.
</event>
<event>
 5    1  0.1535793E-008  0.3839059E+03  0.7957747E-01  0.3434326E+00
         13   -1    0    0    0    0  0.00000000000E+00  0.00000000000E+00  0.14999999963E+04  0.15000000000E+04  0.10566000000E+00 0. -1.
        994   -1    0    0    0    0 -0.00000000000E+00 -0.00000000000E+00  0.11368683772E-12  0.17120000000E+03  0.17120000000E+03 0.  0.
         13    1    1    2    0    0 -0.89111240484E+01  0.11113828227E+02  0.44077191794E+02  0.46322082316E+02  0.10566000000E+00 0. -1.
        994    1    1    2    0    0  0.10203982845E+02 -0.16772714709E+02  0.34474290639E+01  0.17235652002E+03  0.17120000000E+03 0.  0.
        998    1    1    2    0    0 -0.12928587966E+01  0.56588864822E+01  0.14524753754E+04  0.14525213977E+04  0.10000000000E+02 0. -1.
</event>
<event>
 5    1  0.1535793E-008  0.3856518E+03  0.7957747E-01  0.3426912E+00
         13   -1    0    0    0    0  0.00000000000E+00  0.00000000000E+00  0.14999999963E+04  0.15000000000E+04  0.10566000000E+00 0. -1.
        994   -1    0    0    0    0 -0.00000000000E+00 -0.00000000000E+00  0.11368683772E-12  0.17120000000E+03  0.17120000000E+03 0.  0.
         13    1    1    2    0    0  0.14820135684E+02  0.81584117531E+00  0.82429292322E+02  0.83755008299E+02  0.10566000000E+00 0. -1.
        994    1    1    2    0    0 -0.13722930515E+02  0.52938193019E+01  0.20171652435E+01  0.17184252181E+03  0.17120000000E+03 0.  0.
        998    1    1    2    0    0 -0.10972051692E+01 -0.61096604772E+01  0.14155535387E+04  0.14156024699E+04  0.10000000000E+02 0. -1.
</event>
<event>
 5    1  0.1535793E-008  0.3842054E+03  0.7957747E-01  0.3433049E+00
         13   -1    0    0    0    0  0.00000000000E+00  0.00000000000E+00  0.14999999963E+04  0.15000000000E+04  0.10566000000E+00 0. -1.
        994   -1    0    0    0    0 -0.00000000000E+00 -0.00000000000E+00  0.11368683772E-12  0.17120000000E+03  0.17120000000E+03 0.  0.
         13    1    1    2    0    0 -0.60088936081E+01  0.36000042502E+02  0.21713389684E+03  0.22018004038E+03  0.10566000000E+00 0. -1.
        994    1    1    2    0    0  0.29030043805E+02 -0.59739486583E+02  0.16708727260E+02  0.18439135356E+03  0.17120000000E+03 0.  0.
        998    1    1    2    0    0 -0.23021150197E+02  0.23739444081E+02  0.12661573722E+04  0.12666286061E+04  0.10000000000E+02 0. -1.
</event>
<event>
 5    1  0.1535793E-008  0.3795635E+03  0.7957747E-01  0.3453062E+00
         13   -1    0    0    0    0  0.00000000000E+00  0.00000000000E+00  0.14999999963E+04  0.15000000000E+04  0.10566000000E+00 0.  1.
        994   -1    0    0    0    0 -0.00000000000E+00 -0.00000000000E+00  0.11368683772E-12  0.17120000000E+03  0.17120000000E+03 0.  0.
         13    1    1    2    0    0 -0.14047403624E+02  0.12931544066E+01  0.21012400399E+02  0.25308771828E+02  0.10566000000E+00 0.  1.
        994    1    1    2    0    0  0.10498930182E+02  0.11673313760E+01  0.47273340571E+01  0.17159072785E+03  0.17120000000E+03 0.  0.
        998    1    1    2    0    0  0.35484734420E+01 -0.24604857826E+01  0.14742602618E+04  0.14743005003E+04  0.10000000000E+02 0.  1.
</event>
<event>
 5    1  0.1535793E-008  0.3781211E+03  0.7957747E-01  0.3459381E+00
         13   -1    0    0    0    0  0.00000000000E+00  0.00000000000E+00  0.14999999963E+04  0.15000000000E+04  0.10566000000E+00 0. -1.
        994   -1    0    0    0    0 -0.00000000000E+00 -0.00000000000E+00  0.11368683772E-12  0.17120000000E+03  0.17120000000E+03 0.  0.
         13    1    1    2    0    0 -0.48477244279E+02  0.18965484716E+02  0.81953187786E+02  0.97087944544E+02  0.10566000000E+00 0. -1.
        994    1    1    2    0    0  0.33797399137E+02 -0.24264542124E+02  0.21554425405E+02  0.17749666320E+03  0.17120000000E+03 0.  0.
        998    1    1    2    0    0  0.14679845142E+02  0.52990574077E+01  0.13964923831E+04  0.13966153923E+04  0.10000000000E+02 0. -1.
</event>
<event>
 5    1  0.1535793E-008  0.3754676E+03  0.7957747E-01  0.3471134E+00
         13   -1    0    0    0    0  0.00000000000E+00  0.00000000000E+00  0.14999999963E+04  0.15000000000E+04  0.10566000000E+00 0.  1.
        994   -1    0    0    0    0 -0.00000000000E+00 -0.00000000000E+00  0.11368683772E-12  0.17120000000E+03  0.17120000000E+03 0.  0.
         13    1    1    2    0    0 -0.50679171083E+02 -0.22748420458E+02  0.23343889393E+03  0.23995749078E+03  0.10566000000E+00 0.  1.
        994    1    1    2    0    0  0.36738894983E+02  0.29733331672E+01  0.11063534606E+02  0.17547201746E+03  0.17120000000E+03 0.  0.
        998    1    1    2    0    0  0.13940276100E+02  0.19775087291E+02  0.12554975677E+04  0.12557704918E+04  0.10000000000E+02 0.  1.
</event>
<event>
 5    1  0.1535793E-008  0.3843406E+03  0.7957747E-01  0.3432473E+00
         13   -1    0    0    0    0  0.00000000000E+00  0.00000000000E+00  0.14999999963E+04  0.15000000000E+04  0.10566000000E+00 0.  1.
        994   -1    0    0    0    0 -0.00000000000E+00 -0.00000000000E+00  0.11368683772E-12  0.17120000000E+03  0.17120000000E+03 0.  0.
         13    1    1    2    0    0 -0.33573293867E+01 -0.17483672997E+02  0.82610152569E+02  0.84506798269E+02  0.10566000000E+00 0.  1.
        994    1    1    2    0    0 -0.89706041020E+01  0.98223817600E+01  0.25412493941E+01  0.17173482137E+03  0.17120000000E+03 0.  0.
        998    1    1    2    0    0  0.12327933489E+02  0.76612912374E+01  0.14148485943E+04  0.14149583804E+04  0.10000000000E+02 0.  1.
</event>
<event>
 5    1  0.1535793E-008  0.3801509E+03  0.7957747E-01  0.3450502E+00
         13   -1    0    0    0    0  0.00000000000E+00  0.00000000000E+00  0.14999999963E+04  0.15000000000E+04  0.10566000000E+00 0.  1.
        994   -1    0    0    0    0 -0.00000000000E+00 -0.00000000000E+00  0.11368683772E-12  0.17120000000E+03  0.17120000000E+03 0.  0.
         13    1    1    2    0    0  0.19951702340E+02 -0.11216754842E+02  0.66146962677E+02  0.69995127337E+02  0.10566000000E+00 0.  1.
        994    1    1    2    0    0 -0.48527336700E+01 -0.12886474562E+01  0.41412112076E+01  0.17132366814E+03  0.17120000000E+03 0.  0.
        998    1    1    2    0    0 -0.15098968670E+02  0.12505402299E+02  0.14297118224E+04  0.14298812045E+04  0.10000000000E+02 0.  1.
</event>
<event>
 5    1  0.1535793E-008  0.3861627E+03  0.7957747E-01  0.3424756E+00
         13   -1    0    0    0    0  0.00000000000E+00  0.00000000000E+00  0.14999999963E+04  0.15000000000E+04  0.10566000000E+00 0. -1.
        994   -1    0    0    0    0 -0.00000000000E+00 -0.00000000000E+00  0.11368683772E-12  0.17120000000E+03  0.17120000000E+03 0.  0.
         13    1    1    2    0    0 -0.58615199154E+01  0.95084137450E+01  0.57603944663E+02  0.58677022355E+02  0.10566000000E+00 0. -1.
        994    1    1    2    0    0  0.10612299791E+02 -0.89929856132E+01  0.16881829660E+01  0.17177247934E+03  0.17120000000E+03 0.  0.
        998    1    1    2    0    0 -0.47507798758E+01 -0.51542813185E+00  0.14407078686E+04  0.14407504983E+04  0.10000000000E+02 0. -1.
</event>
<event>
 5    1  0.1535793E-008  0.3819721E+03  0.7957747E-01  0.3442616E+00
         13   -1    0    0    0    0  0.00000000000E+00  0.00000000000E+00  0.14999999963E+04  0.15000000000E+04  0.10566000000E+00 0. -1.
        994   -1    0    0    0    0 -0.00000000000E+00 -0.00000000000E+00  0.11368683772E-12  0.17120000000E+03  0.17120000000E+03 0.  0.
         13    1    1    2    0    0 -0.96948728878E+01  0.13819875826E+03  0.36828911681E+03  0.39348414462E+03  0.10566000000E+00 0. -1.
        994    1    1    2    0    0  0.40977881978E+02 -0.14635350514E+03  0.10743976915E+03  0.25288590169E+03  0.17120000000E+03 0.  0.
        998    1    1    2    0    0 -0.31283009090E+02  0.81547468799E+01  0.10242711103E+04  0.10248299537E+04  0.10000000000E+02 0. -1.
</event>
<event>
 5    1  0.1535793E-008  0.3770685E+03  0.7957747E-01  0.3464023E+00
         13   -1    0    0    0    0  0.00000000000E+00  0.00000000000E+00  0.14999999963E+04  0.15000000000E+04  0.10566000000E+00 0.  1.
        994   -1    0    0    0    0 -0.00000000000E+00 -0.00000000000E+00  0.11368683772E-12  0.17120000000E+03  0.17120000000E+03 0.  0.
         13    1    1    2    0    0  0.16392304690E+01  0.21845968620E+02  0.43357600677E+02  0.48578041562E+02  0.10566000000E+00 0.  1.
        994    1    1    2    0    0  0.16511903732E+02  0.59373806822E+01  0.66603635337E+01  0.17222571207E+03  0.17120000000E+03 0.  0.
        998    1    1    2    0    0 -0.18151134201E+02 -0.27783349302E+02  0.14499820321E+04  0.14503962464E+04  0.10000000000E+02 0.  1.
</event>
<event>
 5    1  0.1535793E-008  0.3714149E+03  0.7957747E-01  0.3489414E+00
         13   -1    0    0    0    0  0.00000000000E+00  0.00000000000E+00  0.14999999963E+04  0.15000000000E+04  0.10566000000E+00 0. -1.
        994   -1    0    0    0    0 -0.00000000000E+00 -0.00000000000E+00  0.11368683772E-12  0.17120000000E+03  0.17120000000E+03 0.  0.
         13    1    1    2    0    0  0.43007374423E+02  0.92711532147E+02  0.46265739001E+03  0.47381107432E+03  0.10566000000E+00 0. -1.
        994    1    1    2    0    0 -0.36171369602E+02 -0.83131620763E+02  0.37367052129E+02  0.19729412291E+03  0.17120000000E+03 0.  0.
        998    1    1    2    0    0 -0.68360048215E+01 -0.95799113839E+01  0.99997555414E+03  0.10000948028E+04  0.10000000000E+02 0. -1.
</event>
<event>
 5    1  0.1535793E-008  0.3758078E+03  0.7957747E-01  0.3469618E+00
         13   -1    0    0    0    0  0.00000000000E+00  0.00000000000E+00  0.14999999963E+04  0.15000000000E+04  0.10566000000E+00 0.  1.
        994   -1    0    0    0    0 -0.00000000000E+00 -0.00000000000E+00  0.11368683772E-12  0.17120000000E+03  0.17120000000E+03 0.  0.
         13    1    1    2    0    0 -0.23642141157E+01  0.18156936123E+02  0.23620972152E+02  0.29886875501E+02  0.10566000000E+00 0.  1.
        994    1    1    2    0    0  0.44578650779E-01 -0.21104334003E+02  0.77758034658E+01  0.17267106886E+03  0.17120000000E+03 0.  0.
        998    1    1    2    0    0  0.23196354649E+01  0.29473978795E+01  0.14686032207E+04  0.14686420556E+04  0.10000000000E+02 0.  1.
</event>
<event>
 5    1  0.1535793E-008  0.3844176E+03  0.7957747E-01  0.3432146E+00
         13   -1    0    0    0    0  0.00000000000E+00  0.00000000000E+00  0.14999999963E+04  0.15000000000E+04  0.10566000000E+00 0. -1.
        994   -1    0    0    0    0 -0.00000000000E+00 -0.00000000000E+00  0.11368683772E-12  0.17120000000E+03  0.17120000000E+03 0.  0.
         13    1    1    2    0    0 -0.10062979301E+02  0.60255558182E+01  0.37841838403E+02  0.39618010716E+02  0.10566000000E+00 0. -1.
        994    1    1    2    0    0 -0.65619267567E+01  0.14119379668E+01  0.20680037919E+01  0.17134400804E+03  0.17120000000E+03 0.  0.
        998    1    1    2    0    0  0.16624906057E+02 -0.74374937850E+01  0.14600901541E+04  0.14602379812E+04  0.10000000000E+02 0. -1.
</event>
<event>
 5    1  0.1952952E-008  0.3862031E+03  0.7957747E-01  0.3424586E+00
         13   -1    0    0    0    0  0.00000000000E+00  0.00000000000E+00  0.14999999963E+04  0.15000000000E+04  0.10566000000E+00 0. -1.
        994   -1    0    0    0    0 -0.00000000000E+00 -0.00000000000E+00  0.11368683772E-12  0.17120000000E+03  0.17120000000E+03 0.  0.
         13    1    1    2    0    0 -0.42258358777E+01 -0.11310376435E+02  0.70578981075E+02  0.71604371637E+02  0.10566000000E+00 0. -1.
        994    1    1    2    0    0  0.16923450977E+01  0.97181510340E+01  0.13528236975E+01  0.17148929011E+03  0.17120000000E+03 0.  0.
        998    1    1    2    0    0  0.25334907800E+01  0.15922254011E+01  0.14280681915E+04  0.14281063382E+04  0.10000000000E+02 0. -1.
</event>
<event>
 5    1  0.1535793E-008  0.3784138E+03  0.7957747E-01  0.3458094E+00
         13   -1    0    0    0    0  0.00000000000E+00  0.00000000000E+00  0.14999999963E+04  0.15000000000E+04  0.10566000000E+00 0. -1.
        994   -1    0    0    0    0 -0.00000000000E+00 -0.00000000000E+00  0.11368683772E-12  0.17120000000E+03  0.17120000000E+03 0.  0.
         13    1    1    2    0    0 -0.10876172842E+03  0.15617870259E+02  0.66158524659E+03  0.67064750883E+03  0.10566000000E+00 0. -1.
        994    1    1    2    0    0  0.11731877632E+02 -0.98446275388E+01  0.16304176767E+02  0.17265520503E+03  0.17120000000E+03 0.  0.
        998    1    1    2    0    0  0.97029850786E+02 -0.57732427199E+01  0.82211057293E+03  0.82789728614E+03  0.10000000000E+02 0. -1.
</event>
<event>
 5    1  0.1535793E-008  0.3814376E+03  0.7957747E-01  0.3444922E+00
         13   -1    0    0    0    0  0.00000000000E+00  0.00000000000E+00  0.14999999963E+04  0.15000000000E+04  0.10566000000E+00 0. -1.
        994   -1    0    0    0    0 -0.00000000000E+00 -0.00000000000E+00  0.11368683772E-12  0.17120000000E+03  0.17120000000E+03 0.  0.
         13    1    1    2    0    0  0.26050414724E+02  0.36354805775E+01  0.11569930141E+03  0.11865150795E+03  0.10566000000E+00 0. -1.
        994    1    1    2    0    0  0.57077668458E+01  0.98228190086E+01  0.38387219701E+01  0.17161946906E+03  0.17120000000E+03 0.  0.
        998    1    1    2    0    0 -0.31758181570E+02 -0.13458299586E+02  0.13804619729E+04  0.13809290230E+04  0.10000000000E+02 0. -1.
</event>
<event>
 5    1  0.1550962E-008  0.3857340E+03  0.7957747E-01  0.3426565E+00
         13   -1    0    0    0    0  0.00000000000E+00  0.00000000000E+00  0.14999999963E+04  0.15000000000E+04  0.10566000000E+00 0.  1.
        994   -1    0    0    0    0 -0.00000000000E+00 -0.00000000000E+00  0.11368683772E-12  0.17120000000E+03  0.17120000000E+03 0.  0.
         13    1    1    2    0    0 -0.39362847683E+01 -0.10916611606E+02  0.52546391948E+02  0.53812649233E+02  0.10566000000E+00 0.  1.
        994    1    1    2    0    0  0.10640926389E+00  0.11513212817E+02  0.17011944674E+01  0.17159516151E+03  0.17120000000E+03 0.  0.
        998    1    1    2    0    0  0.38298755044E+01 -0.59660121149E+00  0.14457524099E+04  0.14457921893E+04  0.10000000000E+02 0.  1.
</event>
<event>
 5    1  0.1535793E-008  0.3764687E+03  0.7957747E-01  0.3466680E+00
         13   -1    0    0    0    0  0.00000000000E+00  0.00000000000E+00  0.14999999963E+04  0.15000000000E+04  0.10566000000E+00 0. -1.
        994   -1    0    0    0    0 -0.00000000000E+00 -0.00000000000E+00  0.11368683772E-12  0.17120000000E+03  0.17120000000E+03 0.  0.
         13    1    1    2    0    0  0.71423411505E+02 -0.16572632124E+01  0.21169424795E+03  0.22342451971E+03  0.10566000000E+00 0. -1.
        994    1    1    2    0    0 -0.15562913211E+03  0.10380228419E+02  0.93222532720E+02  0.24965587618E+03  0.17120000000E+03 0.  0.
        998    1    1    2    0    0  0.84205720607E+02 -0.87229652067E+01  0.11950832156E+04  0.11981196041E+04  0.10000000000E+02 0. -1.
</event>
<event>
 5    1  0.2090093E-008  0.3842237E+03  0.7957747E-01  0.3432971E+00
         13   -1    0    0    0    0  0.00000000000E+00  0.00000000000E+00  0.14999999963E+04  0.15000000000E+04  0.10566000000E+00 0.  1.
        994   -1    0    0    0    0 -0.00000000000E+00 -0.00000000000E+00  0.11368683772E-12  0.17120000000E+03  0.17120000000E+03 0.  0.
         13    1    1    2    0    0 -0.96970166824E+01 -0.91928347515E+01  0.42695753301E+02  0.44737890622E+02  0.10566000000E+00 0.  1.
        994    1    1    2    0    0  0.10710492554E+02  0.10057608076E+02  0.27280778370E+01  0.17185096025E+03  0.17120000000E+03 0.  0.
        998    1    1    2    0    0 -0.10134758717E+01 -0.86477332428E+00  0.14545761651E+04  0.14546111491E+04  0.10000000000E+02 0.  1.
</event>
<event>
 5    1  0.1535793E-008  0.4142397E+03  0.7957747E-01  0.3314402E+00
         13   -1    0    0    0    0  0.00000000000E+00  0.00000000000E+00  0.14999999963E+04  0.15000000000E+04  0.10566000000E+00 0. -1.
        994   -1    0    0    0    0 -0.00000000000E+00 -0.00000000000E+00  0.11368683772E-12  0.17120000000E+03  0.17120000000E+03 0.  0.
         13    1    1    2    0    0 -0.13607414471E+03 -0.45894954805E+02  0.21846902338E+03  0.26144071044E+03  0.10566000000E+00 0. -1.
        994    1    1    2    0    0  0.14073678005E+03  0.49866922055E+02  0.13722548696E+03  0.26539371780E+03  0.17120000000E+03 0.  0.
        998    1    1    2    0    0 -0.46626353363E+01 -0.39719672496E+01  0.11443054859E+04  0.11443655718E+04  0.10000000000E+02 0. -1.
</event>
<event>
 5    1  0.1535793E-008  0.3983556E+03  0.7957747E-01  0.3374932E+00
         13   -1    0    0    0    0  0.00000000000E+00  0.00000000000E+00  0.14999999963E+04  0.15000000000E+04  0.10566000000E+00 0.  1.
        994   -1    0    0    0    0 -0.00000000000E+00 -0.00000000000E+00  0.11368683772E-12  0.17120000000E+03  0.17120000000E+03 0.  0.
         13    1    1    2    0    0  0.15902316626E+02  0.11751751730E+02 -0.42469407364E+01  0.20224614025E+02  0.10566000000E+00 0.  1.
        994    1    1    2    0    0 -0.44057308562E+01  0.18583865862E+02  0.28220141112E+02  0.17455826219E+03  0.17120000000E+03 0.  0.
        998    1    1    2    0    0 -0.11496585770E+02 -0.30335617592E+02  0.14760267959E+04  0.14764171238E+04  0.10000000000E+02 0.  1.
</event>
<event>
 5    1  0.1535793E-008  0.3793750E+03  0.7957747E-01  0.3453885E+00
         13   -1    0    0    0    0  0.00000000000E+00  0.00000000000E+00  0.14999999963E+04  0.15000000000E+04  0.10566000000E+00 0. -1.
        994   -1    0    0    0    0 -0.00000000000E+00 -0.00000000000E+00  0.11368683772E-12  0.17120000000E+03  0.17120000000E+03 0.  0.
         13    1    1    2    0    0 -0.34278394077E+02  0.39581883347E+02  0.26143602260E+03  0.26662809092E+03  0.10566000000E+00 0. -1.
        994    1    1    2    0    0  0.21938111197E+02 -0.46910989676E+02  0.13485930381E+02  0.17936898281E+03  0.17120000000E+03 0.  0.
        998    1    1    2    0    0  0.12340282880E+02  0.73291063285E+01  0.12250780433E+04  0.12252029263E+04  0.10000000000E+02 0. -1.
</event>
<event>
 5    1  0.1535793E-008  0.3848556E+03  0.7957747E-01  0.3430285E+00
         13   -1    0    0    0    0  0.00000000000E+00  0.00000000000E+00  0.14999999963E+04  0.15000000000E+04  0.10566000000E+00 0.  1.
        994   -1    0    0    0    0 -0.00000000000E+00 -0.00000000000E+00  0.11368683772E-12  0.17120000000E+03  0.17120000000E+03 0.  0.
         13    1    1    2    0    0 -0.10560131443E+02  0.46702637566E+01  0.40521536753E+02  0.42134710685E+02  0.10566000000E+00 0.  1.
        994    1    1    2    0    0  0.18742880727E+01  0.42640353170E+01  0.17732544869E+01  0.17127252957E+03  0.17120000000E+03 0.  0.
        998    1    1    2    0    0  0.86858433705E+01 -0.89342990735E+01  0.14577052050E+04  0.14577927597E+04  0.10000000000E+02 0.  1.
</event>
<event>
 5    1  0.1535793E-008  0.3834274E+03  0.7957747E-01  0.3436369E+00
         13   -1    0    0    0    0  0.00000000000E+00  0.00000000000E+00  0.14999999963E+04  0.15000000000E+04  0.10566000000E+00 0. -1.
        994   -1    0    0    0    0 -0.00000000000E+00 -0.00000000000E+00  0.11368683772E-12  0.17120000000E+03  0.17120000000E+03 0.  0.
         13    1    1    2    0    0  0.23235363953E+02  0.37544713723E+02  0.26534136128E+03  0.26898984523E+03  0.10566000000E+00 0. -1.
        994    1    1    2    0    0 -0.32224287134E+02 -0.57727260250E+02  0.16997280120E+02  0.18430732158E+03  0.17120000000E+03 0.  0.
        998    1    1    2    0    0  0.89889231805E+01  0.20182546527E+02  0.12176613549E+04  0.12179028332E+04  0.10000000000E+02 0. -1.
</event>
<event>
 5    1  0.1535793E-008  0.3847856E+03  0.7957747E-01  0.3430582E+00
         13   -1    0    0    0    0  0.00000000000E+00  0.00000000000E+00  0.14999999963E+04  0.15000000000E+04  0.10566000000E+00 0.  1.
        994   -1    0    0    0    0 -0.00000000000E+00 -0.00000000000E+00  0.11368683772E-12  0.17120000000E+03  0.17120000000E+03 0.  0.
         13    1    1    2    0    0 -0.16370108298E+02 -0.86803828122E+01  0.97248901001E+02  0.98998431308E+02  0.10566000000E+00 0.  1.
        994    1    1    2    0    0  0.13491054423E+02  0.42382665590E+01  0.23949663799E+01  0.17179973026E+03  0.17120000000E+03 0.  0.
        998    1    1    2    0    0  0.28790538750E+01  0.44421162532E+01  0.14003561289E+04  0.14004018384E+04  0.10000000000E+02 0.  1.
</event>
<event>
 5    1  0.1535793E-008  0.3712797E+03  0.7957747E-01  0.3490030E+00
         13   -1    0    0    0    0  0.00000000000E+00  0.00000000000E+00  0.14999999963E+04  0.15000000000E+04  0.10566000000E+00 0.  1.
        994   -1    0    0    0    0 -0.00000000000E+00 -0.00000000000E+00  0.11368683772E-12  0.17120000000E+03  0.17120000000E+03 0.  0.
         13    1    1    2    0    0  0.16222235193E+02  0.30605160488E+01  0.11953758719E+02  0.20382129052E+02  0.10566000000E+00 0.  1.
        994    1    1    2    0    0 -0.15311590140E+02  0.14042615572E+01  0.94159933939E+01  0.17214679107E+03  0.17120000000E+03 0.  0.
        998    1    1    2    0    0 -0.91064505329E+00 -0.44647776060E+01  0.14786302442E+04  0.14786710799E+04  0.10000000000E+02 0.  1.
</event>
<event>
 5    1  0.1535793E-008  0.3837378E+03  0.7957747E-01  0.3435043E+00
         13   -1    0    0    0    0  0.00000000000E+00  0.00000000000E+00  0.14999999963E+04  0.15000000000E+04  0.10566000000E+00 0. -1.
        994   -1    0    0    0    0 -0.00000000000E+00 -0.00000000000E+00  0.11368683772E-12  0.17120000000E+03  0.17120000000E+03 0.  0.
         13    1    1    2    0    0  0.47409313290E+01  0.13011315136E+02  0.44664189501E+02  0.46761862017E+02  0.10566000000E+00 0. -1.
        994    1    1    2    0    0  0.75875780642E+01  0.22331376654E+01  0.24646880706E+01  0.17140032944E+03  0.17120000000E+03 0.  0.
        998    1    1    2    0    0 -0.12328509393E+02 -0.15244452801E+02  0.14528711187E+04  0.14530378085E+04  0.10000000000E+02 0. -1.
</event>
<event>
 5    1  0.1535793E-008  0.3829394E+03  0.7957747E-01  0.3438459E+00
         13   -1    0    0    0    0  0.00000000000E+00  0.00000000000E+00  0.14999999963E+04  0.15000000000E+04  0.10566000000E+00 0. -1.
        994   -1    0    0    0    0 -0.00000000000E+00 -0.00000000000E+00  0.11368683772E-12  0.17120000000E+03  0.17120000000E+03 0.  0.
         13    1    1    2    0    0 -0.21959007417E+02 -0.17991434201E+02  0.16281949837E+03  0.16527579957E+03  0.10566000000E+00 0. -1.
        994    1    1    2    0    0  0.70018955416E+01  0.34579175750E+01  0.28585888243E+01  0.17140185316E+03  0.17120000000E+03 0.  0.
        998    1    1    2    0    0  0.14957111875E+02  0.14533516626E+02  0.13343219091E+04  0.13345223473E+04  0.10000000000E+02 0. -1.
</event>
<event>
 5    1  0.1914082E-008  0.3856634E+03  0.7957747E-01  0.3426864E+00
         13   -1    0    0    0    0  0.00000000000E+00  0.00000000000E+00  0.14999999963E+04  0.15000000000E+04  0.10566000000E+00 0.  1.
        994   -1    0    0    0    0 -0.00000000000E+00 -0.00000000000E+00  0.11368683772E-12  0.17120000000E+03  0.17120000000E+03 0.  0.
         13    1    1    2    0    0  0.13012345178E+02  0.58436437865E+00  0.65387700308E+02  0.66672521509E+02  0.10566000000E+00 0.  1.
        994    1    1    2    0    0 -0.92508125072E+01  0.49712438647E+00  0.15828320379E+01  0.17145777912E+03  0.17120000000E+03 0.  0.
        998    1    1    2    0    0 -0.37615326708E+01 -0.10814887651E+01  0.14330294639E+04  0.14330696994E+04  0.10000000000E+02 0.  1.
</event>
<event>
 5    1  0.1535793E-008  0.3826853E+03  0.7957747E-01  0.3439549E+00
         13   -1    0    0    0    0  0.00000000000E+00  0.00000000000E+00  0.14999999963E+04  0.15000000000E+04  0.10566000000E+00 0.  1.
        994   -1    0    0    0    0 -0.00000000000E+00 -0.00000000000E+00  0.11368683772E-12  0.17120000000E+03  0.17120000000E+03 0.  0.
         13    1    1    2    0    0  0.57783816470E+01  0.22187035646E+02  0.10856415717E+03  0.11095873841E+03  0.10566000000E+00 0.  1.
        994    1    1    2    0    0 -0.70418972241E+01  0.10465292235E+02  0.33111365984E+01  0.17169599379E+03  0.17120000000E+03 0.  0.
        998    1    1    2    0    0  0.12635155771E+01 -0.32652327881E+02  0.13881247025E+04  0.13885452678E+04  0.10000000000E+02 0.  1.
</event>
<event>
 5    1  0.1535793E-008  0.3865174E+03  0.7957747E-01  0.3423262E+00
         13   -1    0    0    0    0  0.00000000000E+00  0.00000000000E+00  0.14999999963E+04  0.15000000000E+04  0.10566000000E+00 0.  1.
        994   -1    0    0    0    0 -0.00000000000E+00 -0.00000000000E+00  0.11368683772E-12  0.17120000000E+03  0.17120000000E+03 0.  0.
         13    1    1    2    0    0  0.19492184178E+02  0.25298160805E+02  0.17072529619E+02  0.36213597112E+02  0.10566000000E+00 0.  1.
        994    1    1    2    0    0 -0.15328581298E+02 -0.27978926110E+02  0.23741800443E+02  0.17575806894E+03  0.17120000000E+03 0.  0.
        998    1    1    2    0    0 -0.41636028797E+01  0.26807653043E+01  0.14591856662E+04  0.14592283339E+04  0.10000000000E+02 0.  1.
</event>
<event>
 5    1  0.1535793E-008  0.3787409E+03  0.7957747E-01  0.3456659E+00
         13   -1    0    0    0    0  0.00000000000E+00  0.00000000000E+00  0.14999999963E+04  0.15000000000E+04  0.10566000000E+00 0.  1.
        994   -1    0    0    0    0 -0.00000000000E+00 -0.00000000000E+00  0.11368683772E-12  0.17120000000E+03  0.17120000000E+03 0.  0.
         13    1    1    2    0    0 -0.70909590140E+02  0.54696437976E+02  0.49077391324E+03  0.49887765572E+03  0.10566000000E+00 0.  1.
        994    1    1    2    0    0  0.74733575825E+02 -0.66801624680E+02  0.39274598102E+02  0.20223624421E+03  0.17120000000E+03 0.  0.
        998    1    1    2    0    0 -0.38239856848E+01  0.12105186703E+02  0.96995148494E+03  0.97008610007E+03  0.10000000000E+02 0.  1.
</event>
<event>
 5    1  0.1535793E-008  0.3758392E+03  0.7957747E-01  0.3469478E+00
         13   -1    0    0    0    0  0.00000000000E+00  0.00000000000E+00  0.14999999963E+04  0.15000000000E+04  0.10566000000E+00 0. -1.
        994   -1    0    0    0    0 -0.00000000000E+00 -0.00000000000E+00  0.11368683772E-12  0.17120000000E+03  0.17120000000E+03 0.  0.
         13    1    1    2    0    0  0.30408197198E+01 -0.17432317959E+02  0.22374951221E+02  0.28526862782E+02  0.10566000000E+00 0. -1.
        994    1    1    2    0    0 -0.40486575737E+01  0.12509908830E+02  0.68346486854E+01  0.17184016373E+03  0.17120000000E+03 0.  0.
        998    1    1    2    0    0  0.10078378539E+01  0.49224091292E+01  0.14707903964E+04  0.14708329735E+04  0.10000000000E+02 0. -1.
</event>
<event>
 5    1  0.1535793E-008  0.3803357E+03  0.7957747E-01  0.3449698E+00
         13   -1    0    0    0    0  0.00000000000E+00  0.00000000000E+00  0.14999999963E+04  0.15000000000E+04  0.10566000000E+00 0. -1.
        994   -1    0    0    0    0 -0.00000000000E+00 -0.00000000000E+00  0.11368683772E-12  0.17120000000E+03  0.17120000000E+03 0.  0.
         13    1    1    2    0    0 -0.70685716926E+00  0.12317949852E+02  0.18557011426E+02  0.22284644325E+02  0.10566000000E+00 0. -1.
        994    1    1    2    0    0  0.11717109317E+02  0.13381965940E+02  0.50209033424E+01  0.17219470704E+03  0.17120000000E+03 0.  0.
        998    1    1    2    0    0 -0.11010252148E+02 -0.25699915792E+02  0.14764220815E+04  0.14767206486E+04  0.10000000000E+02 0. -1.
</event>
<event>
 5    1  0.1535793E-008  0.3845553E+03  0.7957747E-01  0.3431560E+00
         13   -1    0    0    0    0  0.00000000000E+00  0.00000000000E+00  0.14999999963E+04  0.15000000000E+04  0.10566000000E+00 0.  1.
        994   -1    0    0    0    0 -0.00000000000E+00 -0.00000000000E+00  0.11368683772E-12  0.17120000000E+03  0.17120000000E+03 0.  0.
         13    1    1    2    0    0  0.91296493273E+00 -0.11249602764E+02  0.38575623198E+02  0.40192996112E+02  0.10566000000E+00 0.  1.
        994    1    1    2    0    0  0.27139608842E+02 -0.15990297013E+02  0.51257937212E+01  0.17414925130E+03  0.17120000000E+03 0.  0.
        998    1    1    2    0    0 -0.28052573774E+02  0.27239899777E+02  0.14562985794E+04  0.14568577526E+04  0.10000000000E+02 0.  1.
</event>
<event>
 5    1  0.1535793E-008  0.3864821E+03  0.7957747E-01  0.3423411E+00
         13   -1    0    0    0    0  0.00000000000E+00  0.00000000000E+00  0.14999999963E+04  0.15000000000E+04  0.10566000000E+00 0. -1.
        994   -1    0    0    0    0 -0.00000000000E+00 -0.00000000000E+00  0.11368683772E-12  0.17120000000E+03  0.17120000000E+03 0.  0.
         13    1    1    2    0    0  0.10025620923E+02 -0.77662460472E+00  0.59768107230E+02  0.60608200984E+02  0.10566000000E+00 0. -1.
        994    1    1    2    0    0 -0.32349106738E+01 -0.94519578683E+01  0.12228049105E+01  0.17149559588E+03  0.17120000000E+03 0.  0.
        998    1    1    2    0    0 -0.67907102497E+01  0.10228582473E+02  0.14390090841E+04  0.14390962031E+04  0.10000000000E+02 0. -1.
</event>
<event>
 5    1  0.1535793E-008  0.3784340E+03  0.7957747E-01  0.3458006E+00
         13   -1    0    0    0    0  0.00000000000E+00  0.00000000000E+00  0.14999999963E+04  0.15000000000E+04  0.10566000000E+00 0. -1.
        994   -1    0    0    0    0 -0.00000000000E+00 -0.00000000000E+00  0.11368683772E-12  0.17120000000E+03  0.17120000000E+03 0.  0.
         13    1    1    2    0    0  0.12744909474E+02 -0.58404422541E+01  0.17943682733E+02  0.22771262532E+02  0.10566000000E+00 0. -1.
        994    1    1    2    0    0  0.27490180620E+01  0.23655590455E+02  0.68338714564E+01  0.17298348435E+03  0.17120000000E+03 0.  0.
        998    1    1    2    0    0 -0.15493927536E+02 -0.17815148201E+02  0.14752224421E+04  0.14754452531E+04  0.10000000000E+02 0. -1.
</event>
<event>
 5    1  0.1535793E-008  0.3802021E+03  0.7957747E-01  0.3450279E+00
         13   -1    0    0    0    0  0.00000000000E+00  0.00000000000E+00  0.14999999963E+04  0.15000000000E+04  0.10566000000E+00 0.  1.
        994   -1    0    0    0    0 -0.00000000000E+00 -0.00000000000E+00  0.11368683772E-12  0.17120000000E+03  0.17120000000E+03 0.  0.
         13    1    1    2    0    0 -0.44056329301E+02 -0.89895595025E+01  0.20154948600E+03  0.20650418592E+03  0.10566000000E+00 0.  1.
        994    1    1    2    0    0  0.53171125092E+02  0.15849975614E+02  0.14384450172E+02  0.18054014146E+03  0.17120000000E+03 0.  0.
        998    1    1    2    0    0 -0.91147957914E+01 -0.68604161119E+01  0.12840660601E+04  0.12841556726E+04  0.10000000000E+02 0.  1.
</event>
<event>
 5    1  0.1535793E-008  0.3788792E+03  0.7957747E-01  0.3456053E+00
         13   -1    0    0    0    0  0.00000000000E+00  0.00000000000E+00  0.14999999963E+04  0.15000000000E+04  0.10566000000E+00 0.  1.
        994   -1    0    0    0    0 -0.00000000000E+00 -0.00000000000E+00  0.11368683772E-12  0.17120000000E+03  0.17120000000E+03 0.  0.
         13    1    1    2    0    0 -0.49977733081E+02  0.57607884905E+02  0.44653663464E+03  0.45300267046E+03  0.10566000000E+00 0.  1.
        994    1    1    2    0    0  0.69972487968E+02 -0.39105638084E+02  0.26570851892E+02  0.19089486681E+03  0.17120000000E+03 0.  0.
        998    1    1    2    0    0 -0.19994754887E+02 -0.18502246821E+02  0.10268925097E+04  0.10273024627E+04  0.10000000000E+02 0.  1.
</event>
<event>
 5    1  0.1535793E-008  0.3797975E+03  0.7957747E-01  0.3452041E+00
         13   -1    0    0    0    0  0.00000000000E+00  0.00000000000E+00  0.14999999963E+04  0.15000000000E+04  0.10566000000E+00 0. -1.
        994   -1    0    0    0    0 -0.00000000000E+00 -0.00000000000E+00  0.11368683772E-12  0.17120000000E+03  0.17120000000E+03 0.  0.
         13    1    1    2    0    0 -0.67742289390E+02 -0.12783296289E+02  0.41155200867E+03  0.41728587017E+03  0.10566000000E+00 0. -1.
        994    1    1    2    0    0  0.65878037156E+02  0.17641922680E+02  0.19954529167E+02  0.18536120535E+03  0.17120000000E+03 0.  0.
        998    1    1    2    0    0  0.18642522341E+01 -0.48586263915E+01  0.10684934584E+04  0.10685529245E+04  0.10000000000E+02 0. -1.
</event>
<event>
 5    1  0.1535793E-008  0.3833188E+03  0.7957747E-01  0.3436834E+00
         13   -1    0    0    0    0  0.00000000000E+00  0.00000000000E+00  0.14999999963E+04  0.15000000000E+04  0.10566000000E+00 0.  1.
        994   -1    0    0    0    0 -0.00000000000E+00 -0.00000000000E+00  0.11368683772E-12  0.17120000000E+03  0.17120000000E+03 0.  0.
         13    1    1    2    0    0  0.20099988247E+02  0.10343884245E+02  0.10700774035E+03  0.10936943416E+03  0.10566000000E+00 0.  1.
        994    1    1    2    0    0 -0.12663260979E+02  0.62904623437E+01  0.31284898823E+01  0.17181139527E+03  0.17120000000E+03 0.  0.
        998    1    1    2    0    0 -0.74367272676E+01 -0.16634346589E+02  0.13898637660E+04  0.13900191706E+04  0.10000000000E+02 0.  1.
</event>
<event>
 5    1  0.1535793E-008  0.3826706E+03  0.7957747E-01  0.3439612E+00
         13   -1    0    0    0    0  0.00000000000E+00  0.00000000000E+00  0.14999999963E+04  0.15000000000E+04  0.10566000000E+00 0.  1.
        994   -1    0    0    0    0 -0.00000000000E+00 -0.00000000000E+00  0.11368683772E-12  0.17120000000E+03  0.17120000000E+03 0.  0.
         13    1    1    2    0    0 -0.38480789470E+01 -0.17128117972E+02  0.57834869116E+02  0.60440577318E+02  0.10566000000E+00 0.  1.
        994    1    1    2    0    0 -0.69064211697E+01 -0.16689801748E+00  0.29492448160E+01  0.17136471210E+03  0.17120000000E+03 0.  0.
        998    1    1    2    0    0  0.10754500117E+02  0.17295015989E+02  0.14392158823E+04  0.14393947106E+04  0.10000000000E+02 0.  1.
</event>
<event>
 5    1  0.1535793E-008  0.3818728E+03  0.7957747E-01  0.3443044E+00
         13   -1    0    0    0    0  0.00000000000E+00  0.00000000000E+00  0.14999999963E+04  0.15000000000E+04  0.10566000000E+00 0.  1.
        994   -1    0    0    0    0 -0.00000000000E+00 -0.00000000000E+00  0.11368683772E-12  0.17120000000E+03  0.17120000000E+03 0.  0.
         13    1    1    2    0    0  0.16833157544E+02 -0.73598179385E+01  0.50839192770E+02  0.54056977335E+02  0.10566000000E+00 0.  1.
        994    1    1    2    0    0 -0.12912893140E+02  0.11659890129E+02  0.41970451021E+01  0.17213294581E+03  0.17120000000E+03 0.  0.
        998    1    1    2    0    0 -0.39202644038E+01 -0.43000721902E+01  0.14449637584E+04  0.14450100769E+04  0.10000000000E+02 0.  1.
</event>
<event>
 5    1  0.1535793E-008  0.3846113E+03  0.7957747E-01  0.3431322E+00
         13   -1    0    0    0    0  0.00000000000E+00  0.00000000000E+00  0.14999999963E+04  0.15000000000E+04  0.10566000000E+00 0. -1.
        994   -1    0    0    0    0 -0.00000000000E+00 -0.00000000000E+00  0.11368683772E-12  0.17120000000E+03  0.17120000000E+03 0.  0.
         13    1    1    2    0    0 -0.13866766484E+02 -0.94639555916E+01  0.76485269260E+02  0.78306201836E+02  0.10566000000E+00 0. -1.
        994    1    1    2    0    0  0.36930476484E+01  0.16492756422E+02  0.27643744309E+01  0.17205444307E+03  0.17120000000E+03 0.  0.
        998    1    1    2    0    0  0.10173718835E+02 -0.70288008308E+01  0.14207503526E+04  0.14208393551E+04  0.10000000000E+02 0. -1.
</event>
<event>
 5    1  0.1535793E-008  0.3809004E+03  0.7957747E-01  0.3447247E+00
         13   -1    0    0    0    0  0.00000000000E+00  0.00000000000E+00  0.14999999963E+04  0.15000000000E+04  0.10566000000E+00 0.  1.
        994   -1    0    0    0    0 -0.00000000000E+00 -0.00000000000E+00  0.11368683772E-12  0.17120000000E+03  0.17120000000E+03 0.  0.
         13    1    1    2    0    0 -0.22250986254E+02 -0.61041915748E+00  0.67203429538E+02  0.70794004735E+02  0.10566000000E+00 0.  1.
        994    1    1    2    0    0  0.10688256687E+02 -0.11962176409E+02  0.45374841042E+01  0.17200977082E+03  0.17120000000E+03 0.  0.
        998    1    1    2    0    0  0.11562729567E+02  0.12572595566E+02  0.14282590826E+04  0.14283962244E+04  0.10000000000E+02 0.  1.
</event>
<event>
 5    1  0.1535793E-008  0.3738241E+03  0.7957747E-01  0.3478499E+00
         13   -1    0    0    0    0  0.00000000000E+00  0.00000000000E+00  0.14999999963E+04  0.15000000000E+04  0.10566000000E+00 0.  1.
        994   -1    0    0    0    0 -0.00000000000E+00 -0.00000000000E+00  0.11368683772E-12  0.17120000000E+03  0.17120000000E+03 0.  0.
         13    1    1    2    0    0  0.11683271821E+03 -0.96939040063E+02  0.65006033456E+03  0.66755187908E+03  0.10566000000E+00 0.  1.
        994    1    1    2    0    0 -0.12064661943E+03  0.11865105123E+03  0.11231632981E+03  0.26562770315E+03  0.17120000000E+03 0.  0.
        998    1    1    2    0    0  0.38139012173E+01 -0.21712011164E+02  0.73762333191E+03  0.73802041777E+03  0.10000000000E+02 0.  1.
</event>
<event>
 5    1  0.1535793E-008  0.3858737E+03  0.7957747E-01  0.3425975E+00
         13   -1    0    0    0    0  0.00000000000E+00  0.00000000000E+00  0.14999999963E+04  0.15000000000E+04  0.10566000000E+00 0. -1.
        994   -1    0    0    0    0 -0.00000000000E+00 -0.00000000000E+00  0.11368683772E-12  0.17120000000E+03  0.17120000000E+03 0.  0.
         13    1    1    2    0    0  0.65036903798E+01  0.11272265279E+02  0.73711948964E+02  0.74852017589E+02  0.10566000000E+00 0. -1.
        994    1    1    2    0    0 -0.12766972839E+01 -0.45902888550E+01  0.12714084639E+01  0.17127100510E+03  0.17120000000E+03 0.  0.
        998    1    1    2    0    0 -0.52269930959E+01 -0.66819764241E+01  0.14250166389E+04  0.14250769773E+04  0.10000000000E+02 0. -1.
</event>
<event>
 5    1  0.1535793E-008  0.3809899E+03  0.7957747E-01  0.3446860E+00
         13   -1    0    0    0    0  0.00000000000E+00  0.00000000000E+00  0.14999999963E+04  0.15000000000E+04  0.10566000000E+00 0.  1.
        994   -1    0    0    0    0 -0.00000000000E+00 -0.00000000000E+00  0.11368683772E-12  0.17120000000E+03  0.17120000000E+03 0.  0.
         13    1    1    2    0    0  0.93670994303E+00  0.34000250355E+02  0.16536945983E+03  0.16883116968E+03  0.10566000000E+00 0.  1.
        994    1    1    2    0    0 -0.58513817241E+01 -0.13364203910E+02  0.43438012312E+01  0.17187538865E+03  0.17120000000E+03 0.  0.
        998    1    1    2    0    0  0.49146717811E+01 -0.20636046445E+02  0.13302867352E+04  0.13304934417E+04  0.10000000000E+02 0.  1.
</event>
<event>
 5    1  0.1535793E-008  0.3851885E+03  0.7957747E-01  0.3428873E+00
         13   -1    0    0    0    0  0.00000000000E+00  0.00000000000E+00  0.14999999963E+04  0.15000000000E+04  0.10566000000E+00 0.  1.
        994   -1    0    0    0    0 -0.00000000000E+00 -0.00000000000E+00  0.11368683772E-12  0.17120000000E+03  0.17120000000E+03 0.  0.
         13    1    1    2    0    0  0.79866437987E+01 -0.13607648176E+02  0.78451612618E+02  0.80022629639E+02  0.10566000000E+00 0.  1.
        994    1    1    2    0    0 -0.13448575002E+02  0.96832315572E+01  0.24396857624E+01  0.17201750263E+03  0.17120000000E+03 0.  0.
        998    1    1    2    0    0  0.54619312031E+01  0.39244166184E+01  0.14191086979E+04  0.14191598677E+04  0.10000000000E+02 0.  1.
</event>
<event>
 5    1  0.1535793E-008  0.3774087E+03  0.7957747E-01  0.3462520E+00
         13   -1    0    0    0    0  0.00000000000E+00  0.00000000000E+00  0.14999999963E+04  0.15000000000E+04  0.10566000000E+00 0.  1.
        994   -1    0    0    0    0 -0.00000000000E+00 -0.00000000000E+00  0.11368683772E-12  0.17120000000E+03  0.17120000000E+03 0.  0.
         13    1    1    2    0    0 -0.45460690170E+02  0.15218383434E+02  0.21518995805E+03  0.22046542304E+03  0.10566000000E+00 0.  1.
        994    1    1    2    0    0  0.24456423903E+02 -0.90315929949E+00  0.74690685919E+01  0.17310158680E+03  0.17120000000E+03 0.  0.
        998    1    1    2    0    0  0.21004266267E+02 -0.14315224134E+02  0.12773409696E+04  0.12776329902E+04  0.10000000000E+02 0.  1.
</event>
<event>
 5    1  0.1535793E-008  0.3845868E+03  0.7957747E-01  0.3431426E+00
         13   -1    0    0    0    0  0.00000000000E+00  0.00000000000E+00  0.14999999963E+04  0.15000000000E+04  0.10566000000E+00 0.  1.
        994   -1    0    0    0    0 -0.00000000000E+00 -0.00000000000E+00  0.11368683772E-12  0.17120000000E+03  0.17120000000E+03 0.  0.
         13    1    1    2    0    0 -0.17090764881E+02  0.96565106096E+01  0.10161793053E+03  0.10349665411E+03  0.10566000000E+00 0.  1.
        994    1    1    2    0    0  0.12960945356E+02 -0.10719112506E+02  0.27675213403E+01  0.17204646074E+03  0.17120000000E+03 0.  0.
        998    1    1    2    0    0  0.41298195249E+01  0.10626018969E+01  0.13956145444E+04  0.13956568852E+04  0.10000000000E+02 0.  0.
</event>
<event>
 5    1  0.1535793E-008  0.3841116E+03  0.7957747E-01  0.3433449E+00
         13   -1    0    0    0    0  0.00000000000E+00  0.00000000000E+00  0.14999999963E+04  0.15000000000E+04  0.10566000000E+00 0.  1.
        994   -1    0    0    0    0 -0.00000000000E+00 -0.00000000000E+00  0.11368683772E-12  0.17120000000E+03  0.17120000000E+03 0.  0.
         13    1    1    2    0    0 -0.62045827862E+01  0.20564066199E+02  0.11160479764E+03  0.11365306721E+03  0.10566000000E+00 0.  1.
        994    1    1    2    0    0 -0.10050985905E+01 -0.13487647330E+02  0.26754270633E+01  0.17175425690E+03  0.17120000000E+03 0.  0.
        998    1    1    2    0    0  0.72096813767E+01 -0.70764188696E+01  0.13857197716E+04  0.13857926759E+04  0.10000000000E+02 0.  1.
</event>
<event>
 5    1  0.1535793E-008  0.3844049E+03  0.7957747E-01  0.3432200E+00
         13   -1    0    0    0    0  0.00000000000E+00  0.00000000000E+00  0.14999999963E+04  0.15000000000E+04  0.10566000000E+00 0.  1.
        994   -1    0    0    0    0 -0.00000000000E+00 -0.00000000000E+00  0.11368683772E-12  0.17120000000E+03  0.17120000000E+03 0.  0.
         13    1    1    2    0    0  0.12686727635E+02  0.17933250382E+02  0.11116673316E+03  0.11331640770E+03  0.10566000000E+00 0.  1.
        994    1    1    2    0    0 -0.29079490975E+02 -0.15715784607E+02  0.55343430455E+01  0.17444962492E+03  0.17120000000E+03 0.  0.
        998    1    1    2    0    0  0.16392763340E+02 -0.22174657748E+01  0.13832989201E+04  0.13834339674E+04  0.10000000000E+02 0.  1.
</event>
<event>
 5    1  0.1535793E-008  0.3691262E+03  0.7957747E-01  0.3499916E+00
         13   -1    0    0    0    0  0.00000000000E+00  0.00000000000E+00  0.14999999963E+04  0.15000000000E+04  0.10566000000E+00 0.  1.
        994   -1    0    0    0    0 -0.00000000000E+00 -0.00000000000E+00  0.11368683772E-12  0.17120000000E+03  0.17120000000E+03 0.  0.
         13    1    1    2    0    0 -0.53943823867E+02 -0.13351776452E+02  0.14161457548E+03  0.15212792387E+03  0.10566000000E+00 0.  1.
        994    1    1    2    0    0  0.47987810154E+02  0.37787075543E+02  0.22778724079E+02  0.18319116592E+03  0.17120000000E+03 0.  0.
        998    1    1    2    0    0  0.59560137128E+01 -0.24435299090E+02  0.13356066967E+04  0.13358809102E+04  0.10000000000E+02 0.  1.
</event>
<event>
 5    1  0.1535793E-008  0.3858245E+03  0.7957747E-01  0.3426183E+00
         13   -1    0    0    0    0  0.00000000000E+00  0.00000000000E+00  0.14999999963E+04  0.15000000000E+04  0.10566000000E+00 0. -1.
        994   -1    0    0    0    0 -0.00000000000E+00 -0.00000000000E+00  0.11368683772E-12  0.17120000000E+03  0.17120000000E+03 0.  0.
         13    1    1    2    0    0 -0.14441636416E+02 -0.14460686061E+02  0.11338148471E+03  0.11520869995E+03  0.10566000000E+00 0. -1.
        994    1    1    2    0    0  0.32302131557E+02  0.52839147290E+02  0.13903528650E+02  0.18258737990E+03  0.17120000000E+03 0.  0.
        998    1    1    2    0    0 -0.17860495141E+02 -0.38378461230E+02  0.13727149829E+04  0.13734039202E+04  0.10000000000E+02 0. -1.
</event>
<event>
 5    1  0.1535793E-008  0.3768219E+03  0.7957747E-01  0.3465114E+00
         13   -1    0    0    0    0  0.00000000000E+00  0.00000000000E+00  0.14999999963E+04  0.15000000000E+04  0.10566000000E+00 0. -1.
        994   -1    0    0    0    0 -0.00000000000E+00 -0.00000000000E+00  0.11368683772E-12  0.17120000000E+03  0.17120000000E+03 0.  0.
         13    1    1    2    0    0  0.15500145712E+02 -0.92915499141E+02  0.24940788736E+03  0.26660429467E+03  0.10566000000E+00 0. -1.
        994    1    1    2    0    0 -0.26380433250E+02  0.90253572566E+02  0.46984639512E+02  0.20089457675E+03  0.17120000000E+03 0.  0.
        998    1    1    2    0    0  0.10880287538E+02  0.26619265748E+01  0.12036074694E+04  0.12037011286E+04  0.10000000000E+02 0. -1.
</event>
<event>
 5    1  0.1535793E-008  0.3808077E+03  0.7957747E-01  0.3447649E+00
         13   -1    0    0    0    0  0.00000000000E+00  0.00000000000E+00  0.14999999963E+04  0.15000000000E+04  0.10566000000E+00 0. -1.
        994   -1    0    0    0    0 -0.00000000000E+00 -0.00000000000E+00  0.11368683772E-12  0.17120000000E+03  0.17120000000E+03 0.  0.
         13    1    1    2    0    0 -0.26192076296E+02 -0.89918771284E+01  0.99144713932E+02  0.10293961424E+03  0.10566000000E+00 0. -1.
        994    1    1    2    0    0  0.20927454841E+02  0.54222223007E+01  0.52857051284E+01  0.17264048639E+03  0.17120000000E+03 0.  0.
        998    1    1    2    0    0  0.52646214551E+01  0.35696548277E+01  0.13955695772E+04  0.13956198994E+04  0.10000000000E+02 0. -1.
</event>
<event>
 5    1  0.1535793E-008  0.4042641E+03  0.7957747E-01  0.3351866E+00
         13   -1    0    0    0    0  0.00000000000E+00  0.00000000000E+00  0.14999999963E+04  0.15000000000E+04  0.10566000000E+00 0.  1.
        994   -1    0    0    0    0 -0.00000000000E+00 -0.00000000000E+00  0.11368683772E-12  0.17120000000E+03  0.17120000000E+03 0.  0.
         13    1    1    2    0    0 -0.23492261539E+01 -0.13549825338E+03  0.27414405119E+03  0.30581083614E+03  0.10566000000E+00 0.  1.
        994    1    1    2    0    0  0.53414137476E+01  0.10300239718E+03  0.74153611138E+02  0.21318119657E+03  0.17120000000E+03 0.  0.
        998    1    1    2    0    0 -0.29921875937E+01  0.32495856200E+02  0.11517023340E+04  0.11522079673E+04  0.10000000000E+02 0.  1.
</event>
<event>
 5    1  0.1535793E-008  0.3744441E+03  0.7957747E-01  0.3475713E+00
         13   -1    0    0    0    0  0.00000000000E+00  0.00000000000E+00  0.14999999963E+04  0.15000000000E+04  0.10566000000E+00 0.  1.
        994   -1    0    0    0    0 -0.00000000000E+00 -0.00000000000E+00  0.11368683772E-12  0.17120000000E+03  0.17120000000E+03 0.  0.
         13    1    1    2    0    0  0.42199899910E+02 -0.26517762941E+02  0.16153277118E+03  0.16904694801E+03  0.10566000000E+00 0.  1.
        994    1    1    2    0    0 -0.41204525715E+02  0.20533629366E+02  0.14216893764E+02  0.17785106956E+03  0.17120000000E+03 0.  0.
        998    1    1    2    0    0 -0.99537419462E+00  0.59841335747E+01  0.13242503313E+04  0.13243019824E+04  0.10000000000E+02 0.  1.
</event>
<event>
 5    1  0.1535793E-008  0.3822104E+03  0.7957747E-01  0.3441590E+00
         13   -1    0    0    0    0  0.00000000000E+00  0.00000000000E+00  0.14999999963E+04  0.15000000000E+04  0.10566000000E+00 0. -1.
        994   -1    0    0    0    0 -0.00000000000E+00 -0.00000000000E+00  0.11368683772E-12  0.17120000000E+03  0.17120000000E+03 0.  0.
         13    1    1    2    0    0  0.35642310957E+02 -0.14136720181E+02  0.22164912097E+03  0.22494124828E+03  0.10566000000E+00 0. -1.
        994    1    1    2    0    0 -0.33577405332E+02  0.29787407496E+01  0.68017144987E+01  0.17461963912E+03  0.17120000000E+03 0.  0.
        998    1    1    2    0    0 -0.20649056256E+01  0.11157979431E+02  0.12715491608E+04  0.12716391126E+04  0.10000000000E+02 0. -1.
</event>
<event>
 5    1  0.1535793E-008  0.3762617E+03  0.7957747E-01  0.3467599E+00
         13   -1    0    0    0    0  0.00000000000E+00  0.00000000000E+00  0.14999999963E+04  0.15000000000E+04  0.10566000000E+00 0. -1.
        994   -1    0    0    0    0 -0.00000000000E+00 -0.00000000000E+00  0.11368683772E-12  0.17120000000E+03  0.17120000000E+03 0.  0.
         13    1    1    2    0    0 -0.25459853562E+01 -0.40655016824E+02  0.12269407308E+03  0.12927938415E+03  0.10566000000E+00 0. -1.
        994    1    1    2    0    0  0.41134899324E+01  0.44735843974E+02  0.12894212012E+02  0.17746525643E+03  0.17120000000E+03 0.  0.
        998    1    1    2    0    0 -0.15675045762E+01 -0.40808271494E+01  0.13644117112E+04  0.13644553594E+04  0.10000000000E+02 0. -1.
</event>
<event>
 5    1  0.1535793E-008  0.3804243E+03  0.7957747E-01  0.3449313E+00
         13   -1    0    0    0    0  0.00000000000E+00  0.00000000000E+00  0.14999999963E+04  0.15000000000E+04  0.10566000000E+00 0.  1.
        994   -1    0    0    0    0 -0.00000000000E+00 -0.00000000000E+00  0.11368683772E-12  0.17120000000E+03  0.17120000000E+03 0.  0.
         13    1    1    2    0    0  0.90535148021E+01  0.38127706691E+02  0.17777148151E+03  0.18203955326E+03  0.10566000000E+00 0.  1.
        994    1    1    2    0    0 -0.79145936121E+01 -0.34791266284E+02  0.81806503033E+01  0.17506980334E+03  0.17120000000E+03 0.  0.
        998    1    1    2    0    0 -0.11389211900E+01 -0.33364404070E+01  0.13140478645E+04  0.13140906434E+04  0.10000000000E+02 0.  1.
</event>
<event>
 5    1  0.1535793E-008  0.3733003E+03  0.7957747E-01  0.3480860E+00
         13   -1    0    0    0    0  0.00000000000E+00  0.00000000000E+00  0.14999999963E+04  0.15000000000E+04  0.10566000000E+00 0. -1.
        994   -1    0    0    0    0 -0.00000000000E+00 -0.00000000000E+00  0.11368683772E-12  0.17120000000E+03  0.17120000000E+03 0.  0.
         13    1    1    2    0    0  0.24832176711E+02  0.14365877945E+02  0.23398193269E+02  0.37020292566E+02  0.10566000000E+00 0. -1.
        994    1    1    2    0    0 -0.11611617990E+03  0.74773949064E+02  0.83603591246E+02  0.23531491912E+03  0.17120000000E+03 0.  0.
        998    1    1    2    0    0  0.91284003190E+02 -0.89139827008E+02  0.13929982118E+04  0.13988647883E+04  0.10000000000E+02 0. -1.
</event>
<event>
 5    1  0.1535793E-008  0.4112143E+03  0.7957747E-01  0.3325574E+00
         13   -1    0    0    0    0  0.00000000000E+00  0.00000000000E+00  0.14999999963E+04  0.15000000000E+04  0.10566000000E+00 0. -1.
        994   -1    0    0    0    0 -0.00000000000E+00 -0.00000000000E+00  0.11368683772E-12  0.17120000000E+03  0.17120000000E+03 0.  0.
         13    1    1    2    0    0  0.61452142429E+02 -0.25572229157E+02  0.50644199559E+02  0.83637018276E+02  0.10566000000E+00 0. -1.
        994    1    1    2    0    0 -0.52532762678E+02  0.43460206699E+02  0.53996710808E+02  0.19202490854E+03  0.17120000000E+03 0.  0.
        998    1    1    2    0    0 -0.89193797503E+01 -0.17887977542E+02  0.13953590859E+04  0.13955380732E+04  0.10000000000E+02 0. -1.
</event>
<event>
 5    1  0.1535793E-008  0.3749361E+03  0.7957747E-01  0.3473509E+00
         13   -1    0    0    0    0  0.00000000000E+00  0.00000000000E+00  0.14999999963E+04  0.15000000000E+04  0.10566000000E+00 0.  1.
        994   -1    0    0    0    0 -0.00000000000E+00 -0.00000000000E+00  0.11368683772E-12  0.17120000000E+03  0.17120000000E+03 0.  0.
         13    1    1    2    0    0 -0.17887995264E+02 -0.52408344424E+02  0.20633080389E+03  0.21363292522E+03  0.10566000000E+00 0.  1.
        994    1    1    2    0    0  0.72662032773E+02  0.29009058779E+02  0.27816969776E+02  0.19027485463E+03  0.17120000000E+03 0.  0.
        998    1    1    2    0    0 -0.54774037510E+02  0.23399285645E+02  0.12658522226E+04  0.12672922201E+04  0.10000000000E+02 0.  1.
</event>
<event>
 5    1  0.1535793E-008  0.3829336E+03  0.7957747E-01  0.3438484E+00
         13   -1    0    0    0    0  0.00000000000E+00  0.00000000000E+00  0.14999999963E+04  0.15000000000E+04  0.10566000000E+00 0. -1.
        994   -1    0    0    0    0 -0.00000000000E+00 -0.00000000000E+00  0.11368683772E-12  0.17120000000E+03  0.17120000000E+03 0.  0.
         13    1    1    2    0    0  0.12803572476E+02  0.11430360193E+02  0.53116659180E+02  0.55820921246E+02  0.10566000000E+00 0. -1.
        994    1    1    2    0    0 -0.10742282280E+02 -0.13751564500E+02  0.36683550129E+01  0.17212611360E+03  0.17120000000E+03 0.  0.
        998    1    1    2    0    0 -0.20612901962E+01  0.23212043073E+01  0.14432149821E+04  0.14432529652E+04  0.10000000000E+02 0. -1.
</event>
<event>
 5    1  0.1535793E-008  0.3712232E+03  0.7957747E-01  0.3490288E+00
         13   -1    0    0    0    0  0.00000000000E+00  0.00000000000E+00  0.14999999963E+04  0.15000000000E+04  0.10566000000E+00 0. -1.
        994   -1    0    0    0    0 -0.00000000000E+00 -0.00000000000E+00  0.11368683772E-12  0.17120000000E+03  0.17120000000E+03 0.  0.
         13    1    1    2    0    0  0.43026443529E+02  0.22897601362E+02  0.13853378947E+03  0.14685774402E+03  0.10566000000E+00 0. -1.
        994    1    1    2    0    0 -0.29429000336E+01 -0.45318763254E+02  0.15766035140E+02  0.17782142398E+03  0.17120000000E+03 0.  0.
        998    1    1    2    0    0 -0.40083543495E+02  0.22421161892E+02  0.13457001717E+04  0.13465208320E+04  0.10000000000E+02 0. -1.
</event>
<event>
 5    1  0.1535793E-008  0.3687766E+03  0.7957747E-01  0.3501533E+00
         13   -1    0    0    0    0  0.00000000000E+00  0.00000000000E+00  0.14999999963E+04  0.15000000000E+04  0.10566000000E+00 0. -1.
        994   -1    0    0    0    0 -0.00000000000E+00 -0.00000000000E+00  0.11368683772E-12  0.17120000000E+03  0.17120000000E+03 0.  0.
         13    1    1    2    0    0  0.19118829428E+02 -0.40194940658E+02  0.94626845198E+02  0.10457252932E+03  0.10566000000E+00 0. -1.
        994    1    1    2    0    0 -0.83871958668E+00  0.36766148768E+02  0.14620692607E+02  0.17571470570E+03  0.17120000000E+03 0.  0.
        998    1    1    2    0    0 -0.18280109842E+02  0.34287918893E+01  0.13907524585E+04  0.13909127650E+04  0.10000000000E+02 0. -1.
</event>
<event>
 5    1  0.1717416E-008  0.3863007E+03  0.7957747E-01  0.3424174E+00
         13   -1    0    0    0    0  0.00000000000E+00  0.00000000000E+00  0.14999999963E+04  0.15000000000E+04  0.10566000000E+00 0.  1.
        994   -1    0    0    0    0 -0.00000000000E+00 -0.00000000000E+00  0.11368683772E-12  0.17120000000E+03  0.17120000000E+03 0.  0.
         13    1    1    2    0    0 -0.59759132934E+01  0.84715417110E+01  0.55134642193E+02  0.56100966948E+02  0.10566000000E+00 0.  1.
        994    1    1    2    0    0  0.82792517215E+01 -0.37328212495E+01  0.12558892994E+01  0.17144531846E+03  0.17120000000E+03 0.  0.
        998    1    1    2    0    0 -0.23033384282E+01 -0.47387204615E+01  0.14436094648E+04  0.14436537146E+04  0.10000000000E+02 0.  1.
</event>
<event>
 5    1  0.1535793E-008  0.3826026E+03  0.7957747E-01  0.3439904E+00
         13   -1    0    0    0    0  0.00000000000E+00  0.00000000000E+00  0.14999999963E+04  0.15000000000E+04  0.10566000000E+00 0.  1.
        994   -1    0    0    0    0 -0.00000000000E+00 -0.00000000000E+00  0.11368683772E-12  0.17120000000E+03  0.17120000000E+03 0.  0.
         13    1    1    2    0    0  0.55493160122E+01 -0.20050749696E+02  0.82538570265E+02  0.85120233887E+02  0.10566000000E+00 0.  1.
        994    1    1    2    0    0  0.10647355582E+02  0.81766174301E+00  0.32031419891E+01  0.17156262667E+03  0.17120000000E+03 0.  0.
        998    1    1    2    0    0 -0.16196671594E+02  0.19233087953E+02  0.14142582840E+04  0.14145171394E+04  0.10000000000E+02 0.  1.
</event>
<event>
 5    1  0.1535793E-008  0.3707882E+03  0.7957747E-01  0.3492276E+00
         13   -1    0    0    0    0  0.00000000000E+00  0.00000000000E+00  0.14999999963E+04  0.15000000000E+04  0.10566000000E+00 0.  1.
        994   -1    0    0    0    0 -0.00000000000E+00 -0.00000000000E+00  0.11368683772E-12  0.17120000000E+03  0.17120000000E+03 0.  0.
         13    1    1    2    0    0 -0.17263653512E+02 -0.40488309707E+02  0.73579816654E+02  0.85739941325E+02  0.10566000000E+00 0.  1.
        994    1    1    2    0    0  0.50208785306E+01  0.63064473811E+02  0.25522153970E+02  0.18429095860E+03  0.17120000000E+03 0.  0.
        998    1    1    2    0    0  0.12242774981E+02 -0.22576164103E+02  0.14008980257E+04  0.14011691001E+04  0.10000000000E+02 0.  1.
</event>
<event>
 5    1  0.1804549E-008  0.3850079E+03  0.7957747E-01  0.3429639E+00
         13   -1    0    0    0    0  0.00000000000E+00  0.00000000000E+00  0.14999999963E+04  0.15000000000E+04  0.10566000000E+00 0. -1.
        994   -1    0    0    0    0 -0.00000000000E+00 -0.00000000000E+00  0.11368683772E-12  0.17120000000E+03  0.17120000000E+03 0.  0.
         13    1    1    2    0    0  0.41818601902E+01  0.12154466452E+02  0.50161564359E+02  0.51782359085E+02  0.10566000000E+00 0. -1.
        994    1    1    2    0    0 -0.36653335814E+01 -0.10033825086E+02  0.20015959956E+01  0.17154462598E+03  0.17120000000E+03 0.  0.
        998    1    1    2    0    0 -0.51652660881E+00 -0.21206413657E+01  0.14478368359E+04  0.14478730149E+04  0.10000000000E+02 0. -1.
</event>
<event>
 5    1  0.1535793E-008  0.3759830E+03  0.7957747E-01  0.3468838E+00
         13   -1    0    0    0    0  0.00000000000E+00  0.00000000000E+00  0.14999999963E+04  0.15000000000E+04  0.10566000000E+00 0. -1.
        994   -1    0    0    0    0 -0.00000000000E+00 -0.00000000000E+00  0.11368683772E-12  0.17120000000E+03  0.17120000000E+03 0.  0.
         13    1    1    2    0    0 -0.68372228692E+01  0.17965911139E+02  0.27619883883E+02  0.33651013794E+02  0.10566000000E+00 0. -1.
        994    1    1    2    0    0  0.48453980348E+01 -0.85334199533E+01  0.65011361182E+01  0.17160420132E+03  0.17120000000E+03 0.  0.
        998    1    1    2    0    0  0.19918248345E+01 -0.94324911857E+01  0.14658789763E+04  0.14659447849E+04  0.10000000000E+02 0. -1.
</event>
<event>
 5    1  0.1535793E-008  0.3822916E+03  0.7957747E-01  0.3441241E+00
         13   -1    0    0    0    0  0.00000000000E+00  0.00000000000E+00  0.14999999963E+04  0.15000000000E+04  0.10566000000E+00 0. -1.
        994   -1    0    0    0    0 -0.00000000000E+00 -0.00000000000E+00  0.11368683772E-12  0.17120000000E+03  0.17120000000E+03 0.  0.
         13    1    1    2    0    0  0.20077509028E+01 -0.14607101236E+02  0.36750946205E+02  0.39598506048E+02  0.10566000000E+00 0. -1.
        994    1    1    2    0    0 -0.85730185970E+01 -0.10199395264E+01  0.32281323917E+01  0.17144794476E+03  0.17120000000E+03 0.  0.
        998    1    1    2    0    0  0.65652676942E+01  0.15627040763E+02  0.14600209177E+04  0.14601535492E+04  0.10000000000E+02 0. -1.
</event>
<event>
 5    1  0.1535793E-008  0.3762711E+03  0.7957747E-01  0.3467557E+00
         13   -1    0    0    0    0  0.00000000000E+00  0.00000000000E+00  0.14999999963E+04  0.15000000000E+04  0.10566000000E+00 0. -1.
        994   -1    0    0    0    0 -0.00000000000E+00 -0.00000000000E+00  0.11368683772E-12  0.17120000000E+03  0.17120000000E+03 0.  0.
         13    1    1    2    0    0  0.17020224822E+02 -0.24673434596E+02  0.26115989206E+02  0.39755785541E+02  0.10566000000E+00 0. -1.
        994    1    1    2    0    0 -0.25990430384E+01  0.14669686890E+02  0.15087711541E+02  0.17250806873E+03  0.17120000000E+03 0.  0.
        998    1    1    2    0    0 -0.14421181784E+02  0.10003747705E+02  0.14587962955E+04  0.14589361457E+04  0.10000000000E+02 0. -1.
</event>
<event>
 5    1  0.1535793E-008  0.3810390E+03  0.7957747E-01  0.3446647E+00
         13   -1    0    0    0    0  0.00000000000E+00  0.00000000000E+00  0.14999999963E+04  0.15000000000E+04  0.10566000000E+00 0. -1.
        994   -1    0    0    0    0 -0.00000000000E+00 -0.00000000000E+00  0.11368683772E-12  0.17120000000E+03  0.17120000000E+03 0.  0.
         13    1    1    2    0    0 -0.19826807080E+02  0.26567963840E+02  0.14272722553E+03  0.14652655409E+03  0.10566000000E+00 0. -1.
        994    1    1    2    0    0  0.22014463969E+02 -0.18928316893E+02  0.64227976336E+01  0.17376308622E+03  0.17120000000E+03 0.  0.
        998    1    1    2    0    0 -0.21876568892E+01 -0.76396469469E+01  0.13508499731E+04  0.13509103597E+04  0.10000000000E+02 0. -1.
</event>
<event>
 5    1  0.1535793E-008  0.3826973E+03  0.7957747E-01  0.3439497E+00
         13   -1    0    0    0    0  0.00000000000E+00  0.00000000000E+00  0.14999999963E+04  0.15000000000E+04  0.10566000000E+00 0. -1.
        994   -1    0    0    0    0 -0.00000000000E+00 -0.00000000000E+00  0.11368683772E-12  0.17120000000E+03  0.17120000000E+03 0.  0.
         13    1    1    2    0    0  0.24939443294E+01 -0.29854921190E+02  0.17200594677E+03  0.17459551244E+03  0.10566000000E+00 0. -1.
        994    1    1    2    0    0  0.69458200028E+01  0.10192513108E+02  0.32819526849E+01  0.17167510872E+03  0.17120000000E+03 0.  0.
        998    1    1    2    0    0 -0.94397643322E+01  0.19662408082E+02  0.13247120968E+04  0.13249293788E+04  0.10000000000E+02 0. -1.
</event>
<event>
 5    1  0.1535793E-008  0.3836263E+03  0.7957747E-01  0.3435519E+00
         13   -1    0    0    0    0  0.00000000000E+00  0.00000000000E+00  0.14999999963E+04  0.15000000000E+04  0.10566000000E+00 0.  1.
        994   -1    0    0    0    0 -0.00000000000E+00 -0.00000000000E+00  0.11368683772E-12  0.17120000000E+03  0.17120000000E+03 0.  0.
         13    1    1    2    0    0 -0.44995954869E+01 -0.10844714333E+02  0.29004146580E+02  0.31290667480E+02  0.10566000000E+00 0.  1.
        994    1    1    2    0    0  0.15146233534E+00  0.93650963388E+01  0.26035401735E+01  0.17147578952E+03  0.17120000000E+03 0.  0.
        998    1    1    2    0    0  0.43481331516E+01  0.14796179943E+01  0.14683923095E+04  0.14684335430E+04  0.10000000000E+02 0.  1.
</event>
<event>
 5    1  0.1535793E-008  0.3735927E+03  0.7957747E-01  0.3479541E+00
         13   -1    0    0    0    0  0.00000000000E+00  0.00000000000E+00  0.14999999963E+04  0.15000000000E+04  0.10566000000E+00 0.  1.
        994   -1    0    0    0    0 -0.00000000000E+00 -0.00000000000E+00  0.11368683772E-12  0.17120000000E+03  0.17120000000E+03 0.  0.
         13    1    1    2    0    0 -0.59124279141E+02 -0.58248690558E+02  0.37439171756E+03  0.38348110733E+03  0.10566000000E+00 0.  1.
        994    1    1    2    0    0  0.42245436230E+02  0.62796807233E+02  0.27227021307E+02  0.18915302422E+03  0.17120000000E+03 0.  0.
        998    1    1    2    0    0  0.16878842912E+02 -0.45481166754E+01  0.10983812574E+04  0.10985658685E+04  0.10000000000E+02 0.  1.
</event>
<event>
 5    1  0.1535793E-008  0.3832846E+03  0.7957747E-01  0.3436980E+00
         13   -1    0    0    0    0  0.00000000000E+00  0.00000000000E+00  0.14999999963E+04  0.15000000000E+04  0.10566000000E+00 0. -1.
        994   -1    0    0    0    0 -0.00000000000E+00 -0.00000000000E+00  0.11368683772E-12  0.17120000000E+03  0.17120000000E+03 0.  0.
         13    1    1    2    0    0 -0.11891872331E+02 -0.10529488318E+02  0.63036844275E+02  0.65007243073E+02  0.10566000000E+00 0. -1.
        994    1    1    2    0    0 -0.38466065061E+02 -0.51556283608E+01  0.74813188719E+01  0.17570324071E+03  0.17120000000E+03 0.  0.
        998    1    1    2    0    0  0.50357937392E+02  0.15685116678E+02  0.14294818331E+04  0.14304895162E+04  0.10000000000E+02 0. -1.
</event>
<event>
 5    1  0.1535793E-008  0.3836861E+03  0.7957747E-01  0.3435264E+00
         13   -1    0    0    0    0  0.00000000000E+00  0.00000000000E+00  0.14999999963E+04  0.15000000000E+04  0.10566000000E+00 0.  1.
        994   -1    0    0    0    0 -0.00000000000E+00 -0.00000000000E+00  0.11368683772E-12  0.17120000000E+03  0.17120000000E+03 0.  0.
         13    1    1    2    0    0  0.11672758150E+02 -0.11815750439E+02  0.62020293258E+02  0.64205865628E+02  0.10566000000E+00 0.  1.
        994    1    1    2    0    0 -0.95645837492E+01 -0.35090797199E+01  0.26267417537E+01  0.17152298585E+03  0.17120000000E+03 0.  0.
        998    1    1    2    0    0 -0.21081744004E+01  0.15324830159E+02  0.14353529613E+04  0.14354711485E+04  0.10000000000E+02 0.  1.
</event>
<event>
 5    1  0.1535793E-008  0.3846057E+03  0.7957747E-01  0.3431346E+00
         13   -1    0    0    0    0  0.00000000000E+00  0.00000000000E+00  0.14999999963E+04  0.15000000000E+04  0.10566000000E+00 0. -1.
        994   -1    0    0    0    0 -0.00000000000E+00 -0.00000000000E+00  0.11368683772E-12  0.17120000000E+03  0.17120000000E+03 0.  0.
         13    1    1    2    0    0 -0.70496223739E+01 -0.12262182937E+02  0.48760055951E+02  0.50770193287E+02  0.10566000000E+00 0. -1.
        994    1    1    2    0    0  0.94558640098E+01  0.30591008268E+02  0.52092418032E+01  0.17424637543E+03  0.17120000000E+03 0.  0.
        998    1    1    2    0    0 -0.24062416359E+01 -0.18328825331E+02  0.14460306985E+04  0.14461834313E+04  0.10000000000E+02 0. -1.
</event>
<event>
 5    1  0.1535793E-008  0.3857474E+03  0.7957747E-01  0.3426508E+00
         13   -1    0    0    0    0  0.00000000000E+00  0.00000000000E+00  0.14999999963E+04  0.15000000000E+04  0.10566000000E+00 0.  1.
        994   -1    0    0    0    0 -0.00000000000E+00 -0.00000000000E+00  0.11368683772E-12  0.17120000000E+03  0.17120000000E+03 0.  0.
         13    1    1    2    0    0 -0.32696710921E+01 -0.13537689836E+02  0.81492668590E+02  0.82674216011E+02  0.10566000000E+00 0.  1.
        994    1    1    2    0    0 -0.44175103527E+01  0.43151022647E+01  0.13846169439E+01  0.17131693340E+03  0.17120000000E+03 0.  0.
        998    1    1    2    0    0  0.76871814448E+01  0.92225875712E+01  0.14171227107E+04  0.14172088506E+04  0.10000000000E+02 0.  1.
</event>
<event>
 5    1  0.1535793E-008  0.3831685E+03  0.7957747E-01  0.3437477E+00
         13   -1    0    0    0    0  0.00000000000E+00  0.00000000000E+00  0.14999999963E+04  0.15000000000E+04  0.10566000000E+00 0. -1.
        994   -1    0    0    0    0 -0.00000000000E+00 -0.00000000000E+00  0.11368683772E-12  0.17120000000E+03  0.17120000000E+03 0.  0.
         13    1    1    2    0    0  0.33027268860E+01 -0.23439415284E+02  0.11747818450E+03  0.11983926398E+03  0.10566000000E+00 0. -1.
        994    1    1    2    0    0 -0.94047805966E+01  0.33473229286E+01  0.28719461226E+01  0.17151484642E+03  0.17120000000E+03 0.  0.
        998    1    1    2    0    0  0.61020537106E+01  0.20092092355E+02  0.13796498657E+04  0.13798458896E+04  0.10000000000E+02 0. -1.
</event>
<event>
 5    1  0.1535793E-008  0.3778545E+03  0.7957747E-01  0.3460554E+00
         13   -1    0    0    0    0  0.00000000000E+00  0.00000000000E+00  0.14999999963E+04  0.15000000000E+04  0.10566000000E+00 0. -1.
        994   -1    0    0    0    0 -0.00000000000E+00 -0.00000000000E+00  0.11368683772E-12  0.17120000000E+03  0.17120000000E+03 0.  0.
         13    1    1    2    0    0  0.13510979374E+02  0.16722623089E+02  0.41852340192E+02  0.47051272355E+02  0.10566000000E+00 0. -1.
        994    1    1    2    0    0 -0.12592499340E+02 -0.11683849356E+02  0.62142313002E+01  0.17217183291E+03  0.17120000000E+03 0.  0.
        998    1    1    2    0    0 -0.91848003374E+00 -0.50387737330E+01  0.14519334248E+04  0.14519768947E+04  0.10000000000E+02 0. -1.
</event>
<event>
 5    1  0.1535793E-008  0.3811948E+03  0.7957747E-01  0.3445972E+00
         13   -1    0    0    0    0  0.00000000000E+00  0.00000000000E+00  0.14999999963E+04  0.15000000000E+04  0.10566000000E+00 0. -1.
        994   -1    0    0    0    0 -0.00000000000E+00 -0.00000000000E+00  0.11368683772E-12  0.17120000000E+03  0.17120000000E+03 0.  0.
         13    1    1    2    0    0 -0.16611511478E+02 -0.19742470225E+01  0.33083900338E+02  0.37072841684E+02  0.10566000000E+00 0. -1.
        994    1    1    2    0    0  0.56021034073E+02 -0.10022960023E+02  0.14391879763E+02  0.18098448052E+03  0.17120000000E+03 0.  0.
        998    1    1    2    0    0 -0.39409522595E+02  0.11997207046E+02  0.14525242162E+04  0.14531426778E+04  0.10000000000E+02 0. -1.
</event>
<event>
 5    1  0.1535793E-008  0.3814168E+03  0.7957747E-01  0.3445012E+00
         13   -1    0    0    0    0  0.00000000000E+00  0.00000000000E+00  0.14999999963E+04  0.15000000000E+04  0.10566000000E+00 0.  1.
        994   -1    0    0    0    0 -0.00000000000E+00 -0.00000000000E+00  0.11368683772E-12  0.17120000000E+03  0.17120000000E+03 0.  0.
         13    1    1    2    0    0  0.24586351761E+02  0.86856933077E+01  0.10290838455E+03  0.10616061763E+03  0.10566000000E+00 0.  1.
        994    1    1    2    0    0 -0.10612464663E+02  0.60895912151E+01  0.39179208671E+01  0.17168138406E+03  0.17120000000E+03 0.  0.
        998    1    1    2    0    0 -0.13973887098E+02 -0.14775284523E+02  0.13931736909E+04  0.13933579983E+04  0.10000000000E+02 0.  1.
</event>
<event>
 5    1  0.1535793E-008  0.3808935E+03  0.7957747E-01  0.3447277E+00
         13   -1    0    0    0    0  0.00000000000E+00  0.00000000000E+00  0.14999999963E+04  0.15000000000E+04  0.10566000000E+00 0. -1.
        994   -1    0    0    0    0 -0.00000000000E+00 -0.00000000000E+00  0.11368683772E-12  0.17120000000E+03  0.17120000000E+03 0.  0.
         13    1    1    2    0    0  0.97549883579E+01  0.46016255001E+01  0.13952608389E+02  0.17635793149E+02  0.10566000000E+00 0. -1.
        994    1    1    2    0    0 -0.12010359351E+02 -0.10580786525E+02  0.45371880523E+01  0.17200647619E+03  0.17120000000E+03 0.  0.
        998    1    1    2    0    0  0.22553709931E+01  0.59791610246E+01  0.14815101998E+04  0.14815577307E+04  0.10000000000E+02 0. -1.
</event>
<event>
 5    1  0.1535793E-008  0.3815499E+03  0.7957747E-01  0.3444438E+00
         13   -1    0    0    0    0  0.00000000000E+00  0.00000000000E+00  0.14999999963E+04  0.15000000000E+04  0.10566000000E+00 0. -1.
        994   -1    0    0    0    0 -0.00000000000E+00 -0.00000000000E+00  0.11368683772E-12  0.17120000000E+03  0.17120000000E+03 0.  0.
         13    1    1    2    0    0 -0.19720134480E+02  0.10842386374E+02  0.84582386176E+02  0.87525037912E+02  0.10566000000E+00 0. -1.
        994    1    1    2    0    0 -0.13030274140E+02 -0.28434767960E+01  0.39446283424E+01  0.17176400524E+03  0.17120000000E+03 0.  0.
        998    1    1    2    0    0  0.32750408621E+02 -0.79989095782E+01  0.14114729818E+04  0.14119109568E+04  0.10000000000E+02 0. -1.
</event>
<event>
 5    1  0.1535793E-008  0.3704201E+03  0.7957747E-01  0.3493963E+00
         13   -1    0    0    0    0  0.00000000000E+00  0.00000000000E+00  0.14999999963E+04  0.15000000000E+04  0.10566000000E+00 0.  1.
        994   -1    0    0    0    0 -0.00000000000E+00 -0.00000000000E+00  0.11368683772E-12  0.17120000000E+03  0.17120000000E+03 0.  0.
         13    1    1    2    0    0  0.63996094018E+02 -0.79836305180E-01  0.20215327681E+03  0.21204118683E+03  0.10566000000E+00 0.  1.
        994    1    1    2    0    0 -0.15681624695E+02 -0.39066635633E+02  0.17391255482E+02  0.17715533054E+03  0.17120000000E+03 0.  0.
        998    1    1    2    0    0 -0.48314469323E+02  0.39146471938E+02  0.12804554640E+04  0.12820034826E+04  0.10000000000E+02 0.  1.
</event>
<event>
 5    1  0.1535793E-008  0.3727757E+03  0.7957747E-01  0.3483231E+00
         13   -1    0    0    0    0  0.00000000000E+00  0.00000000000E+00  0.14999999963E+04  0.15000000000E+04  0.10566000000E+00 0.  1.
        994   -1    0    0    0    0 -0.00000000000E+00 -0.00000000000E+00  0.11368683772E-12  0.17120000000E+03  0.17120000000E+03 0.  0.
         13    1    1    2    0    0  0.51053527325E+02  0.36968007864E+01  0.18698514061E+03  0.19386485747E+03  0.10566000000E+00 0.  1.
        994    1    1    2    0    0 -0.65173585535E+01 -0.84035565707E+01  0.82128253324E+01  0.17172648667E+03  0.17120000000E+03 0.  0.
        998    1    1    2    0    0 -0.44536168772E+02  0.47067557843E+01  0.13048020303E+04  0.13056086559E+04  0.10000000000E+02 0.  1.
</event>
<event>
 5    1  0.1535793E-008  0.3700310E+03  0.7957747E-01  0.3495748E+00
         13   -1    0    0    0    0  0.00000000000E+00  0.00000000000E+00  0.14999999963E+04  0.15000000000E+04  0.10566000000E+00 0.  1.
        994   -1    0    0    0    0 -0.00000000000E+00 -0.00000000000E+00  0.11368683772E-12  0.17120000000E+03  0.17120000000E+03 0.  0.
         13    1    1    2    0    0 -0.13852993129E+03  0.19121086278E+02  0.65251439880E+03  0.66733140913E+03  0.10566000000E+00 0.  1.
        994    1    1    2    0    0  0.12443531017E+03 -0.35157905364E+02  0.69493609993E+02  0.22551945938E+03  0.17120000000E+03 0.  0.
        998    1    1    2    0    0  0.14094621113E+02  0.16036819086E+02  0.77799198748E+03  0.77834913149E+03  0.10000000000E+02 0.  1.
</event>
<event>
 5    1  0.1535793E-008  0.3809772E+03  0.7957747E-01  0.3446914E+00
         13   -1    0    0    0    0  0.00000000000E+00  0.00000000000E+00  0.14999999963E+04  0.15000000000E+04  0.10566000000E+00 0. -1.
        994   -1    0    0    0    0 -0.00000000000E+00 -0.00000000000E+00  0.11368683772E-12  0.17120000000E+03  0.17120000000E+03 0.  0.
         13    1    1    2    0    0  0.31019998296E+02  0.20603870212E+02  0.20974706567E+03  0.21302723414E+03  0.10566000000E+00 0. -1.
        994    1    1    2    0    0 -0.26765682315E+02  0.20853464873E+02  0.74863749883E+01  0.17469045354E+03  0.17120000000E+03 0.  0.
        998    1    1    2    0    0 -0.42543159815E+01 -0.41457335085E+02  0.12827665556E+04  0.12834823123E+04  0.10000000000E+02 0. -1.
</event>
<event>
 5    1  0.1535793E-008  0.3852801E+03  0.7957747E-01  0.3428485E+00
         13   -1    0    0    0    0  0.00000000000E+00  0.00000000000E+00  0.14999999963E+04  0.15000000000E+04  0.10566000000E+00 0. -1.
        994   -1    0    0    0    0 -0.00000000000E+00 -0.00000000000E+00  0.11368683772E-12  0.17120000000E+03  0.17120000000E+03 0.  0.
         13    1    1    2    0    0  0.17167370843E+02 -0.13273777458E+02  0.13072037290E+03  0.13250939154E+03  0.10566000000E+00 0. -1.
        994    1    1    2    0    0 -0.27385677673E+02  0.20922441052E+02  0.54033410861E+01  0.17471794406E+03  0.17120000000E+03 0.  0.
        998    1    1    2    0    0  0.10218306830E+02 -0.76486635944E+01  0.13638762823E+04  0.13639726644E+04  0.10000000000E+02 0. -1.
</event>
<event>
 5    1  0.1535793E-008  0.3817232E+03  0.7957747E-01  0.3443689E+00
         13   -1    0    0    0    0  0.00000000000E+00  0.00000000000E+00  0.14999999963E+04  0.15000000000E+04  0.10566000000E+00 0.  1.
        994   -1    0    0    0    0 -0.00000000000E+00 -0.00000000000E+00  0.11368683772E-12  0.17120000000E+03  0.17120000000E+03 0.  0.
         13    1    1    2    0    0 -0.32285386352E+02  0.23661590977E+02  0.20930809821E+03  0.21310116893E+03  0.10566000000E+00 0.  1.
        994    1    1    2    0    0  0.29360194969E+02 -0.30907899705E+02  0.93302266808E+01  0.17667431178E+03  0.17120000000E+03 0.  0.
        998    1    1    2    0    0  0.29251913830E+01  0.72463087279E+01  0.12813616714E+04  0.12814245193E+04  0.10000000000E+02 0.  1.
</event>
<event>
 5    1  0.1535793E-008  0.3740931E+03  0.7957747E-01  0.3477289E+00
         13   -1    0    0    0    0  0.00000000000E+00  0.00000000000E+00  0.14999999963E+04  0.15000000000E+04  0.10566000000E+00 0. -1.
        994   -1    0    0    0    0 -0.00000000000E+00 -0.00000000000E+00  0.11368683772E-12  0.17120000000E+03  0.17120000000E+03 0.  0.
         13    1    1    2    0    0  0.11251087673E+03  0.43255128293E+02  0.57069154580E+03  0.58328256884E+03  0.10566000000E+00 0. -1.
        994    1    1    2    0    0 -0.11653228256E+03 -0.45197576115E+02  0.62435947202E+02  0.22097574814E+03  0.17120000000E+03 0.  0.
        998    1    1    2    0    0  0.40214058275E+01  0.19424478217E+01  0.86687250328E+03  0.86694168301E+03  0.10000000000E+02 0.  1.
</event>
<event>
 5    1  0.1535793E-008  0.3840805E+03  0.7957747E-01  0.3433581E+00
         13   -1    0    0    0    0  0.00000000000E+00  0.00000000000E+00  0.14999999963E+04  0.15000000000E+04  0.10566000000E+00 0. -1.
        994   -1    0    0    0    0 -0.00000000000E+00 -0.00000000000E+00  0.11368683772E-12  0.17120000000E+03  0.17120000000E+03 0.  0.
         13    1    1    2    0    0 -0.83135299265E+01 -0.16898470285E+02  0.77987834914E+02  0.80229587039E+02  0.10566000000E+00 0. -1.
        994    1    1    2    0    0  0.13885918379E+02  0.21423608283E+02  0.42402392291E+01  0.17314505292E+03  0.17120000000E+03 0.  0.
        998    1    1    2    0    0 -0.55723884527E+01 -0.45251379981E+01  0.14177719221E+04  0.14178253600E+04  0.10000000000E+02 0. -1.
</event>
<event>
 5    1  0.1535793E-008  0.3859645E+03  0.7957747E-01  0.3425592E+00
         13   -1    0    0    0    0  0.00000000000E+00  0.00000000000E+00  0.14999999963E+04  0.15000000000E+04  0.10566000000E+00 0. -1.
        994   -1    0    0    0    0 -0.00000000000E+00 -0.00000000000E+00  0.11368683772E-12  0.17120000000E+03  0.17120000000E+03 0.  0.
         13    1    1    2    0    0 -0.58236473352E+01  0.94450190238E+01  0.58370360767E+02  0.59415767543E+02  0.10566000000E+00 0. -1.
        994    1    1    2    0    0  0.16514309187E+01  0.48323331205E+01  0.12375317182E+01  0.17128061815E+03  0.17120000000E+03 0.  0.
        998    1    1    2    0    0  0.41722164165E+01 -0.14277352144E+02  0.14403921038E+04  0.14405036143E+04  0.10000000000E+02 0. -1.
</event>
<event>
 5    1  0.1535793E-008  0.3799461E+03  0.7957747E-01  0.3451393E+00
         13   -1    0    0    0    0  0.00000000000E+00  0.00000000000E+00  0.14999999963E+04  0.15000000000E+04  0.10566000000E+00 0. -1.
        994   -1    0    0    0    0 -0.00000000000E+00 -0.00000000000E+00  0.11368683772E-12  0.17120000000E+03  0.17120000000E+03 0.  0.
         13    1    1    2    0    0 -0.42764014201E+02 -0.19623662260E+02  0.14390748656E+03  0.15140417723E+03  0.10566000000E+00 0. -1.
        994    1    1    2    0    0  0.11614494934E+03  0.63871362149E+02  0.65333887894E+02  0.22615737235E+03  0.17120000000E+03 0.  0.
        998    1    1    2    0    0 -0.73380935142E+02 -0.44247699890E+02  0.12907586218E+04  0.12936384504E+04  0.10000000000E+02 0. -1.
</event>
<event>
 5    1  0.1535793E-008  0.3766020E+03  0.7957747E-01  0.3466089E+00
         13   -1    0    0    0    0  0.00000000000E+00  0.00000000000E+00  0.14999999963E+04  0.15000000000E+04  0.10566000000E+00 0. -1.
        994   -1    0    0    0    0 -0.00000000000E+00 -0.00000000000E+00  0.11368683772E-12  0.17120000000E+03  0.17120000000E+03 0.  0.
         13    1    1    2    0    0 -0.98401043469E+02 -0.25402128510E+02  0.51822078133E+03  0.52809168035E+03  0.10566000000E+00 0. -1.
        994    1    1    2    0    0  0.10114545576E+03  0.45783786456E+02  0.48740618561E+02  0.20978952839E+03  0.17120000000E+03 0.  0.
        998    1    1    2    0    0 -0.27444122870E+01 -0.20381657946E+02  0.93303859639E+03  0.93331879126E+03  0.10000000000E+02 0. -1.
</event>
<event>
 5    1  0.1535793E-008  0.3788788E+03  0.7957747E-01  0.3456055E+00
         13   -1    0    0    0    0  0.00000000000E+00  0.00000000000E+00  0.14999999963E+04  0.15000000000E+04  0.10566000000E+00 0. -1.
        994   -1    0    0    0    0 -0.00000000000E+00 -0.00000000000E+00  0.11368683772E-12  0.17120000000E+03  0.17120000000E+03 0.  0.
         13    1    1    2    0    0  0.38453869917E+02 -0.88589164529E+02  0.24443616533E+03  0.26282273545E+03  0.10566000000E+00 0. -1.
        994    1    1    2    0    0 -0.43547716131E+02  0.84971955010E+02  0.49398260987E+02  0.20215406231E+03  0.17120000000E+03 0.  0.
        998    1    1    2    0    0  0.50938462135E+01  0.36172095190E+01  0.12061655700E+04  0.12062232022E+04  0.10000000000E+02 0. -1.
</event>
<event>
 5    1  0.1535793E-008  0.3780852E+03  0.7957747E-01  0.3459538E+00
         13   -1    0    0    0    0  0.00000000000E+00  0.00000000000E+00  0.14999999963E+04  0.15000000000E+04  0.10566000000E+00 0.  1.
        994   -1    0    0    0    0 -0.00000000000E+00 -0.00000000000E+00  0.11368683772E-12  0.17120000000E+03  0.17120000000E+03 0.  0.
         13    1    1    2    0    0 -0.28449972102E+02 -0.33980006212E+02  0.19985373086E+03  0.20470849186E+03  0.10566000000E+00 0.  1.
        994    1    1    2    0    0  0.10104352106E+02  0.15921659973E+02  0.63000473435E+01  0.17235059554E+03  0.17120000000E+03 0.  0.
        998    1    1    2    0    0  0.18345619996E+02  0.18058346239E+02  0.12938462181E+04  0.12941409126E+04  0.10000000000E+02 0.  1.
</event>
<event>
 5    1  0.1535793E-008  0.3856723E+03  0.7957747E-01  0.3426826E+00
         13   -1    0    0    0    0  0.00000000000E+00  0.00000000000E+00  0.14999999963E+04  0.15000000000E+04  0.10566000000E+00 0. -1.
        994   -1    0    0    0    0 -0.00000000000E+00 -0.00000000000E+00  0.11368683772E-12  0.17120000000E+03  0.17120000000E+03 0.  0.
         13    1    1    2    0    0 -0.13952714957E+02  0.47183390825E+00  0.66091544031E+02  0.67550012868E+02  0.10566000000E+00 0. -1.
        994    1    1    2    0    0  0.28611168262E+02 -0.21994519981E+02  0.55821204173E+01  0.17505130084E+03  0.17120000000E+03 0.  0.
        998    1    1    2    0    0 -0.14658453304E+02  0.21522686073E+02  0.14283263318E+04  0.14285986863E+04  0.10000000000E+02 0. -1.
</event>
<event>
 5    1  0.1535793E-008  0.3805900E+03  0.7957747E-01  0.3448593E+00
         13   -1    0    0    0    0  0.00000000000E+00  0.00000000000E+00  0.14999999963E+04  0.15000000000E+04  0.10566000000E+00 0.  1.
        994   -1    0    0    0    0 -0.00000000000E+00 -0.00000000000E+00  0.11368683772E-12  0.17120000000E+03  0.17120000000E+03 0.  0.
         13    1    1    2    0    0 -0.37981452107E+00 -0.28360107815E+02  0.10481529531E+03  0.10858497718E+03  0.10566000000E+00 0.  1.
        994    1    1    2    0    0  0.24622502102E+01  0.14985925471E+02  0.46054773612E+01  0.17193397297E+03  0.17120000000E+03 0.  0.
        998    1    1    2    0    0 -0.20824356892E+01  0.13374182344E+02  0.13905792236E+04  0.13906810498E+04  0.10000000000E+02 0.  1.
</event>
<event>
 5    1  0.1535793E-008  0.3843192E+03  0.7957747E-01  0.3432565E+00
         13   -1    0    0    0    0  0.00000000000E+00  0.00000000000E+00  0.14999999963E+04  0.15000000000E+04  0.10566000000E+00 0.  1.
        994   -1    0    0    0    0 -0.00000000000E+00 -0.00000000000E+00  0.11368683772E-12  0.17120000000E+03  0.17120000000E+03 0.  0.
         13    1    1    2    0    0  0.20751049619E+02 -0.14512469835E+01  0.10679275666E+03  0.10879989070E+03  0.10566000000E+00 0.  1.
        994    1    1    2    0    0 -0.16651265715E+02 -0.92085198063E+00  0.28856917746E+01  0.17203453094E+03  0.17120000000E+03 0.  0.
        998    1    1    2    0    0 -0.40997839042E+01  0.23720989641E+01  0.13903215478E+04  0.13903655784E+04  0.10000000000E+02 0.  1.
</event>
<event>
 5    1  0.1535793E-008  0.3843479E+03  0.7957747E-01  0.3432442E+00
         13   -1    0    0    0    0  0.00000000000E+00  0.00000000000E+00  0.14999999963E+04  0.15000000000E+04  0.10566000000E+00 0.  1.
        994   -1    0    0    0    0 -0.00000000000E+00 -0.00000000000E+00  0.11368683772E-12  0.17120000000E+03  0.17120000000E+03 0.  0.
         13    1    1    2    0    0  0.13730891760E+02  0.17796475371E+01  0.45292345725E+02  0.47361506302E+02  0.10566000000E+00 0.  1.
        994    1    1    2    0    0 -0.22043571133E+02 -0.19212770315E+02  0.47772248555E+01  0.17374496093E+03  0.17120000000E+03 0.  0.
        998    1    1    2    0    0  0.83126793726E+01  0.17433122778E+02  0.14499304257E+04  0.14500935328E+04  0.10000000000E+02 0.  1.
</event>
<event>
 5    1  0.2111552E-008  0.3861033E+03  0.7957747E-01  0.3425007E+00
         13   -1    0    0    0    0  0.00000000000E+00  0.00000000000E+00  0.14999999963E+04  0.15000000000E+04  0.10566000000E+00 0.  1.
        994   -1    0    0    0    0 -0.00000000000E+00 -0.00000000000E+00  0.11368683772E-12  0.17120000000E+03  0.17120000000E+03 0.  0.
         13    1    1    2    0    0 -0.56252065292E+01  0.10262070831E+02  0.61053929901E+02  0.62165477290E+02  0.10566000000E+00 0.  1.
        994    1    1    2    0    0  0.80106205637E+01 -0.11929284623E+02  0.17602704564E+01  0.17181099041E+03  0.17120000000E+03 0.  0.
        998    1    1    2    0    0 -0.23854140345E+01  0.16672137926E+01  0.14371857959E+04  0.14372235323E+04  0.10000000000E+02 0.  1.
</event>
<event>
 5    1  0.1535793E-008  0.3803477E+03  0.7957747E-01  0.3449646E+00
         13   -1    0    0    0    0  0.00000000000E+00  0.00000000000E+00  0.14999999963E+04  0.15000000000E+04  0.10566000000E+00 0. -1.
        994   -1    0    0    0    0 -0.00000000000E+00 -0.00000000000E+00  0.11368683772E-12  0.17120000000E+03  0.17120000000E+03 0.  0.
         13    1    1    2    0    0  0.87298121700E+01 -0.17934210726E+02  0.51521543123E+02  0.55247860634E+02  0.10566000000E+00 0. -1.
        994    1    1    2    0    0 -0.27502844761E+01 -0.24114081989E+01  0.40024154617E+01  0.17128583795E+03  0.17120000000E+03 0.  0.
        998    1    1    2    0    0 -0.59795276940E+01  0.20345618924E+02  0.14444760377E+04  0.14446663014E+04  0.10000000000E+02 0. -1.
</event>
<event>
 5    1  0.1535793E-008  0.3786848E+03  0.7957747E-01  0.3456905E+00
         13   -1    0    0    0    0  0.00000000000E+00  0.00000000000E+00  0.14999999963E+04  0.15000000000E+04  0.10566000000E+00 0. -1.
        994   -1    0    0    0    0 -0.00000000000E+00 -0.00000000000E+00  0.11368683772E-12  0.17120000000E+03  0.17120000000E+03 0.  0.
         13    1    1    2    0    0 -0.14521859863E+03 -0.27930824494E+02  0.84471773668E+03  0.85756436387E+03  0.10566000000E+00 0. -1.
        994    1    1    2    0    0  0.14928822301E+03  0.21319399130E+02  0.85390219347E+02  0.24360299643E+03  0.17120000000E+03 0.  0.
        998    1    1    2    0    0 -0.40696243811E+01  0.66114253632E+01  0.56989204025E+03  0.57003263970E+03  0.10000000000E+02 0.  0.
</event>
<event>
 5    1  0.1535793E-008  0.3823751E+03  0.7957747E-01  0.3440882E+00
         13   -1    0    0    0    0  0.00000000000E+00  0.00000000000E+00  0.14999999963E+04  0.15000000000E+04  0.10566000000E+00 0.  1.
        994   -1    0    0    0    0 -0.00000000000E+00 -0.00000000000E+00  0.11368683772E-12  0.17120000000E+03  0.17120000000E+03 0.  0.
         13    1    1    2    0    0  0.13120705939E+02  0.10780801999E+02  0.49394929337E+02  0.52232641368E+02  0.10566000000E+00 0.  1.
        994    1    1    2    0    0 -0.12114014503E+01 -0.63546756118E+01  0.30778297682E+01  0.17134982472E+03  0.17120000000E+03 0.  0.
        998    1    1    2    0    0 -0.11909304488E+02 -0.44261263876E+01  0.14475272372E+04  0.14476175339E+04  0.10000000000E+02 0.  1.
</event>
<event>
 5    1  0.2302662E-008  0.3861073E+03  0.7957747E-01  0.3424989E+00
         13   -1    0    0    0    0  0.00000000000E+00  0.00000000000E+00  0.14999999963E+04  0.15000000000E+04  0.10566000000E+00 0.  1.
        994   -1    0    0    0    0 -0.00000000000E+00 -0.00000000000E+00  0.11368683772E-12  0.17120000000E+03  0.17120000000E+03 0.  0.
         13    1    1    2    0    0 -0.86202102921E+01 -0.76059568510E+01  0.60244837643E+02  0.61331967454E+02  0.10566000000E+00 0.  1.
        994    1    1    2    0    0  0.95165535931E+01  0.65120369331E+01  0.15172049114E+01  0.17159461917E+03  0.17120000000E+03 0.  0.
        998    1    1    2    0    0 -0.89634330106E+00  0.10939199179E+01  0.14382379537E+04  0.14382734134E+04  0.10000000000E+02 0.  1.
</event>
<event>
 5    1  0.1535793E-008  0.3799408E+03  0.7957747E-01  0.3451416E+00
         13   -1    0    0    0    0  0.00000000000E+00  0.00000000000E+00  0.14999999963E+04  0.15000000000E+04  0.10566000000E+00 0.  1.
        994   -1    0    0    0    0 -0.00000000000E+00 -0.00000000000E+00  0.11368683772E-12  0.17120000000E+03  0.17120000000E+03 0.  0.
         13    1    1    2    0    0  0.26915427368E+00  0.42462731262E+02  0.18342346179E+03  0.18827462253E+03  0.10566000000E+00 0.  1.
        994    1    1    2    0    0 -0.16171578131E+02 -0.48073679384E+02  0.12813122068E+02  0.17901456557E+03  0.17120000000E+03 0.  0.
        998    1    1    2    0    0  0.15902423857E+02  0.56109481211E+01  0.13037634124E+04  0.13039108119E+04  0.10000000000E+02 0.  1.
</event>
<event>
 5    1  0.1535793E-008  0.3424789E+03  0.7957747E-01  0.3632795E+00
         13   -1    0    0    0    0  0.00000000000E+00  0.00000000000E+00  0.14999999963E+04  0.15000000000E+04  0.10566000000E+00 0. -1.
        994   -1    0    0    0    0 -0.00000000000E+00 -0.00000000000E+00  0.11368683772E-12  0.17120000000E+03  0.17120000000E+03 0.  0.
         13    1    1    2    0    0  0.20031245009E+03  0.12605548710E+03  0.10691959814E+04  0.10950776782E+04  0.10566000000E+00 0. -1.
        994    1    1    2    0    0 -0.11702306473E+03 -0.13539732547E+03  0.16589044949E+03  0.29808709240E+03  0.17120000000E+03 0.  0.
        998    1    1    2    0    0 -0.83289385364E+02  0.93418383768E+01  0.26491356534E+03  0.27803522935E+03  0.10000000000E+02 0.  1.
</event>
<event>
 5    1  0.1535793E-008  0.3751427E+03  0.7957747E-01  0.3472585E+00
         13   -1    0    0    0    0  0.00000000000E+00  0.00000000000E+00  0.14999999963E+04  0.15000000000E+04  0.10566000000E+00 0.  1.
        994   -1    0    0    0    0 -0.00000000000E+00 -0.00000000000E+00  0.11368683772E-12  0.17120000000E+03  0.17120000000E+03 0.  0.
         13    1    1    2    0    0 -0.28802978238E+01 -0.43196690234E+02  0.15393151953E+03  0.15990363984E+03  0.10566000000E+00 0.  1.
        994    1    1    2    0    0 -0.33929681739E+02  0.10456373036E+02  0.10900303440E+02  0.17518223556E+03  0.17120000000E+03 0.  0.
        998    1    1    2    0    0  0.36809979563E+02  0.32740317198E+02  0.13351681733E+04  0.13361141246E+04  0.10000000000E+02 0.  1.
</event>
<event>
 5    1  0.1535793E-008  0.3690986E+03  0.7957747E-01  0.3500044E+00
         13   -1    0    0    0    0  0.00000000000E+00  0.00000000000E+00  0.14999999963E+04  0.15000000000E+04  0.10566000000E+00 0.  1.
        994   -1    0    0    0    0 -0.00000000000E+00 -0.00000000000E+00  0.11368683772E-12  0.17120000000E+03  0.17120000000E+03 0.  0.
         13    1    1    2    0    0  0.48560632094E+02 -0.40785989833E+02  0.18081667528E+03  0.19161501293E+03  0.10566000000E+00 0.  1.
        994    1    1    2    0    0 -0.41805690757E+02  0.23502028494E+02  0.18521945469E+02  0.17875280022E+03  0.17120000000E+03 0.  0.
        998    1    1    2    0    0 -0.67549413373E+01  0.17283961339E+02  0.13006613755E+04  0.13008321869E+04  0.10000000000E+02 0.  1.
</event>
<event>
 5    1  0.1535793E-008  0.3767084E+03  0.7957747E-01  0.3465617E+00
         13   -1    0    0    0    0  0.00000000000E+00  0.00000000000E+00  0.14999999963E+04  0.15000000000E+04  0.10566000000E+00 0.  1.
        994   -1    0    0    0    0 -0.00000000000E+00 -0.00000000000E+00  0.11368683772E-12  0.17120000000E+03  0.17120000000E+03 0.  0.
         13    1    1    2    0    0  0.26003864268E+02  0.12647959047E+01  0.55549646850E+02  0.61347983624E+02  0.10566000000E+00 0.  1.
        994    1    1    2    0    0 -0.20129635932E+02  0.47039949993E+00  0.71754463786E+01  0.17252927447E+03  0.17120000000E+03 0.  0.
        998    1    1    2    0    0 -0.58742283368E+01 -0.17351954047E+01  0.14372749031E+04  0.14373227419E+04  0.10000000000E+02 0.  1.
</event>
<event>
 5    1  0.1535793E-008  0.3559378E+03  0.7957747E-01  0.3563124E+00
         13   -1    0    0    0    0  0.00000000000E+00  0.00000000000E+00  0.14999999963E+04  0.15000000000E+04  0.10566000000E+00 0.  1.
        994   -1    0    0    0    0 -0.00000000000E+00 -0.00000000000E+00  0.11368683772E-12  0.17120000000E+03  0.17120000000E+03 0.  0.
         13    1    1    2    0    0  0.28467027707E+03  0.69611147899E+02  0.76459676140E+03  0.81883520763E+03  0.10566000000E+00 0.  1.
        994    1    1    2    0    0 -0.28944829286E+03 -0.85053161154E+02  0.45910700515E+03  0.57541553389E+03  0.17120000000E+03 0.  0.
        998    1    1    2    0    0  0.47780157829E+01  0.15442013255E+02  0.27629622973E+03  0.27694925848E+03  0.10000000000E+02 0. -1.
</event>
<event>
 5    1  0.1535793E-008  0.3852047E+03  0.7957747E-01  0.3428804E+00
         13   -1    0    0    0    0  0.00000000000E+00  0.00000000000E+00  0.14999999963E+04  0.15000000000E+04  0.10566000000E+00 0. -1.
        994   -1    0    0    0    0 -0.00000000000E+00 -0.00000000000E+00  0.11368683772E-12  0.17120000000E+03  0.17120000000E+03 0.  0.
         13    1    1    2    0    0  0.89180165833E+01  0.12146779324E+02  0.70645655944E+02  0.72234999381E+02  0.10566000000E+00 0. -1.
        994    1    1    2    0    0 -0.12055096886E+02 -0.13060446356E+02  0.25674056304E+01  0.17213928137E+03  0.17120000000E+03 0.  0.
        998    1    1    2    0    0  0.31370803025E+01  0.91366703225E+00  0.14267869347E+04  0.14268257192E+04  0.10000000000E+02 0. -1.
</event>
<event>
 5    1  0.1535793E-008  0.3837999E+03  0.7957747E-01  0.3434778E+00
         13   -1    0    0    0    0  0.00000000000E+00  0.00000000000E+00  0.14999999963E+04  0.15000000000E+04  0.10566000000E+00 0.  1.
        994   -1    0    0    0    0 -0.00000000000E+00 -0.00000000000E+00  0.11368683772E-12  0.17120000000E+03  0.17120000000E+03 0.  0.
         13    1    1    2    0    0  0.73792364709E+01  0.11143612291E+02  0.40129743926E+02  0.42297053531E+02  0.10566000000E+00 0.  1.
        994    1    1    2    0    0 -0.55382458688E+01 -0.29275770543E+01  0.23567116709E+01  0.17133078230E+03  0.17120000000E+03 0.  0.
        998    1    1    2    0    0 -0.18409906021E+01 -0.82160352362E+01  0.14575135407E+04  0.14575721642E+04  0.10000000000E+02 0.  1.
</event>
<event>
 5    1  0.1535793E-008  0.3763619E+03  0.7957747E-01  0.3467154E+00
         13   -1    0    0    0    0  0.00000000000E+00  0.00000000000E+00  0.14999999963E+04  0.15000000000E+04  0.10566000000E+00 0.  1.
        994   -1    0    0    0    0 -0.00000000000E+00 -0.00000000000E+00  0.11368683772E-12  0.17120000000E+03  0.17120000000E+03 0.  0.
         13    1    1    2    0    0  0.86063864626E+02  0.12314107917E+03  0.47820329129E+03  0.50124755674E+03  0.10566000000E+00 0.  1.
        994    1    1    2    0    0 -0.78266299115E+02 -0.13431156165E+03  0.10665808097E+03  0.25465780060E+03  0.17120000000E+03 0.  0.
        998    1    1    2    0    0 -0.77975655103E+01  0.11170482478E+02  0.91513862402E+03  0.91529464266E+03  0.10000000000E+02 0.  1.
</event>
<event>
 5    1  0.1535793E-008  0.3776560E+03  0.7957747E-01  0.3461429E+00
         13   -1    0    0    0    0  0.00000000000E+00  0.00000000000E+00  0.14999999963E+04  0.15000000000E+04  0.10566000000E+00 0.  1.
        994   -1    0    0    0    0 -0.00000000000E+00 -0.00000000000E+00  0.11368683772E-12  0.17120000000E+03  0.17120000000E+03 0.  0.
         13    1    1    2    0    0 -0.24080992402E+02  0.13393815268E+02  0.72994774097E+02  0.78022667809E+02  0.10566000000E+00 0.  1.
        994    1    1    2    0    0  0.54805098793E+01  0.10129472638E+00  0.54223200889E+01  0.17137353297E+03  0.17120000000E+03 0.  0.
        998    1    1    2    0    0  0.18600482522E+02 -0.13495109994E+02  0.14215829021E+04  0.14218037992E+04  0.10000000000E+02 0.  1.
</event>
<event>
 5    1  0.1535793E-008  0.3844141E+03  0.7957747E-01  0.3432161E+00
         13   -1    0    0    0    0  0.00000000000E+00  0.00000000000E+00  0.14999999963E+04  0.15000000000E+04  0.10566000000E+00 0.  1.
        994   -1    0    0    0    0 -0.00000000000E+00 -0.00000000000E+00  0.11368683772E-12  0.17120000000E+03  0.17120000000E+03 0.  0.
         13    1    1    2    0    0  0.12686360186E+02 -0.16941188144E+02  0.10208990325E+03  0.10426076491E+03  0.10566000000E+00 0.  1.
        994    1    1    2    0    0 -0.24785017089E+02  0.20799146722E+02  0.53783697931E+01  0.17431370697E+03  0.17120000000E+03 0.  0.
        998    1    1    2    0    0  0.12098656903E+02 -0.38579585781E+01  0.13925317232E+04  0.13926255281E+04  0.10000000000E+02 0.  1.
</event>
<event>
 5    1  0.1535793E-008  0.3806199E+03  0.7957747E-01  0.3448464E+00
         13   -1    0    0    0    0  0.00000000000E+00  0.00000000000E+00  0.14999999963E+04  0.15000000000E+04  0.10566000000E+00 0. -1.
        994   -1    0    0    0    0 -0.00000000000E+00 -0.00000000000E+00  0.11368683772E-12  0.17120000000E+03  0.17120000000E+03 0.  0.
         13    1    1    2    0    0 -0.23064092124E+02 -0.81210896860E+01  0.71620655315E+02  0.75679811542E+02  0.10566000000E+00 0. -1.
        994    1    1    2    0    0  0.27738330553E+02  0.15029208529E+02  0.71480433050E+01  0.17422923582E+03  0.17120000000E+03 0.  0.
        998    1    1    2    0    0 -0.46742384297E+01 -0.69081188427E+01  0.14212312977E+04  0.14212909526E+04  0.10000000000E+02 0. -1.
</event>
<event>
 5    1  0.1535793E-008  0.3804235E+03  0.7957747E-01  0.3449317E+00
         13   -1    0    0    0    0  0.00000000000E+00  0.00000000000E+00  0.14999999963E+04  0.15000000000E+04  0.10566000000E+00 0.  1.
        994   -1    0    0    0    0 -0.00000000000E+00 -0.00000000000E+00  0.11368683772E-12  0.17120000000E+03  0.17120000000E+03 0.  0.
         13    1    1    2    0    0  0.15152263456E+01 -0.20194277314E+02  0.48050191101E+02  0.52143425050E+02  0.10566000000E+00 0.  1.
        994    1    1    2    0    0  0.38952161906E+01  0.28766701391E+02  0.67377513228E+01  0.17377437415E+03  0.17120000000E+03 0.  0.
        998    1    1    2    0    0 -0.54104425362E+01 -0.85724240776E+01  0.14452120539E+04  0.14452822008E+04  0.10000000000E+02 0.  1.
</event>
<event>
 5    1  0.1535793E-008  0.3787706E+03  0.7957747E-01  0.3456529E+00
         13   -1    0    0    0    0  0.00000000000E+00  0.00000000000E+00  0.14999999963E+04  0.15000000000E+04  0.10566000000E+00 0. -1.
        994   -1    0    0    0    0 -0.00000000000E+00 -0.00000000000E+00  0.11368683772E-12  0.17120000000E+03  0.17120000000E+03 0.  0.
         13    1    1    2    0    0  0.71616549508E+02 -0.23102983027E+02  0.42532374961E+03  0.43192937054E+03  0.10566000000E+00 0. -1.
        994    1    1    2    0    0 -0.71423207763E+02  0.23234586988E+02  0.23929123988E+02  0.18847589664E+03  0.17120000000E+03 0.  0.
        998    1    1    2    0    0 -0.19334174483E+00 -0.13160396025E+00  0.10507471227E+04  0.10507947328E+04  0.10000000000E+02 0.  0.
</event>
<event>
 5    1  0.1535793E-008  0.3804030E+03  0.7957747E-01  0.3449406E+00
         13   -1    0    0    0    0  0.00000000000E+00  0.00000000000E+00  0.14999999963E+04  0.15000000000E+04  0.10566000000E+00 0. -1.
        994   -1    0    0    0    0 -0.00000000000E+00 -0.00000000000E+00  0.11368683772E-12  0.17120000000E+03  0.17120000000E+03 0.  0.
         13    1    1    2    0    0 -0.18917426809E+02 -0.26577928935E+01  0.48069439974E+02  0.51726348446E+02  0.10566000000E+00 0. -1.
        994    1    1    2    0    0 -0.63027044015E+01  0.83950489219E+01  0.42978608820E+01  0.17157538442E+03  0.17120000000E+03 0.  0.
        998    1    1    2    0    0  0.25220131210E+02 -0.57372560284E+01  0.14476326954E+04  0.14478982671E+04  0.10000000000E+02 0. -1.
</event>
<event>
 5    1  0.1535793E-008  0.3307495E+03  0.7957747E-01  0.3698329E+00
         13   -1    0    0    0    0  0.00000000000E+00  0.00000000000E+00  0.14999999963E+04  0.15000000000E+04  0.10566000000E+00 0.  1.
        994   -1    0    0    0    0 -0.00000000000E+00 -0.00000000000E+00  0.11368683772E-12  0.17120000000E+03  0.17120000000E+03 0.  0.
         13    1    1    2    0    0 -0.17296610657E+03  0.89109127628E+02  0.92084756872E+03  0.94117903006E+03  0.10566000000E+00 0.  1.
        994    1    1    2    0    0  0.12554356119E+03 -0.12320549136E+03  0.13150191064E+03  0.27846538629E+03  0.17120000000E+03 0.  0.
        998    1    1    2    0    0  0.47422545384E+02  0.34096363732E+02  0.44765051692E+03  0.45155558365E+03  0.10000000000E+02 0. -1.
</event>
<event>
 5    1  0.1535793E-008  0.3812219E+03  0.7957747E-01  0.3445855E+00
         13   -1    0    0    0    0  0.00000000000E+00  0.00000000000E+00  0.14999999963E+04  0.15000000000E+04  0.10566000000E+00 0.  1.
        994   -1    0    0    0    0 -0.00000000000E+00 -0.00000000000E+00  0.11368683772E-12  0.17120000000E+03  0.17120000000E+03 0.  0.
         13    1    1    2    0    0  0.20411535312E+02  0.30741912358E+02  0.19484400565E+03  0.19830757336E+03  0.10566000000E+00 0.  1.
        994    1    1    2    0    0 -0.25251321687E+01 -0.22254853689E+02  0.51896406894E+01  0.17273687266E+03  0.17120000000E+03 0.  0.
        998    1    1    2    0    0 -0.17886403143E+02 -0.84870586693E+01  0.12999663499E+04  0.13001555540E+04  0.10000000000E+02 0.  1.
</event>
<event>
 5    1  0.1535793E-008  0.3709459E+03  0.7957747E-01  0.3491555E+00
         13   -1    0    0    0    0  0.00000000000E+00  0.00000000000E+00  0.14999999963E+04  0.15000000000E+04  0.10566000000E+00 0.  1.
        994   -1    0    0    0    0 -0.00000000000E+00 -0.00000000000E+00  0.11368683772E-12  0.17120000000E+03  0.17120000000E+03 0.  0.
         13    1    1    2    0    0  0.28018261668E+02 -0.88168595876E+01  0.44117206572E+02  0.53000934706E+02  0.10566000000E+00 0.  1.
        994    1    1    2    0    0 -0.31016510617E+02  0.92602841307E+01  0.12395112906E+02  0.17467356874E+03  0.17120000000E+03 0.  0.
        998    1    1    2    0    0  0.29982489485E+01 -0.44342454315E+00  0.14434876768E+04  0.14435254966E+04  0.10000000000E+02 0.  1.
</event>
<event>
 5    1  0.1535793E-008  0.3837224E+03  0.7957747E-01  0.3435109E+00
         13   -1    0    0    0    0  0.00000000000E+00  0.00000000000E+00  0.14999999963E+04  0.15000000000E+04  0.10566000000E+00 0. -1.
        994   -1    0    0    0    0 -0.00000000000E+00 -0.00000000000E+00  0.11368683772E-12  0.17120000000E+03  0.17120000000E+03 0.  0.
         13    1    1    2    0    0  0.12438059566E+02  0.23287927823E+01  0.33370471423E+02  0.35689327938E+02  0.10566000000E+00 0. -1.
        994    1    1    2    0    0 -0.18765661927E+02  0.89296554439E+00  0.34321670451E+01  0.17226191461E+03  0.17120000000E+03 0.  0.
        998    1    1    2    0    0  0.63276023613E+01 -0.32217583267E+01  0.14631973578E+04  0.14632487575E+04  0.10000000000E+02 0. -1.
</event>
<event>
 5    1  0.1535793E-008  0.3855766E+03  0.7957747E-01  0.3427231E+00
         13   -1    0    0    0    0  0.00000000000E+00  0.00000000000E+00  0.14999999963E+04  0.15000000000E+04  0.10566000000E+00 0. -1.
        994   -1    0    0    0    0 -0.00000000000E+00 -0.00000000000E+00  0.11368683772E-12  0.17120000000E+03  0.17120000000E+03 0.  0.
         13    1    1    2    0    0  0.65055062243E+00 -0.11691706481E+02  0.53826274986E+02  0.55085372464E+02  0.10566000000E+00 0. -1.
        994    1    1    2    0    0  0.50794331481E+01  0.59532718230E+00  0.14300150468E+01  0.17128234001E+03  0.17120000000E+03 0.  0.
        998    1    1    2    0    0 -0.57299837706E+01  0.11096379299E+02  0.14447437062E+04  0.14448322875E+04  0.10000000000E+02 0. -1.
</event>
<event>
 5    1  0.1535793E-008  0.3821671E+03  0.7957747E-01  0.3441777E+00
         13   -1    0    0    0    0  0.00000000000E+00  0.00000000000E+00  0.14999999963E+04  0.15000000000E+04  0.10566000000E+00 0. -1.
        994   -1    0    0    0    0 -0.00000000000E+00 -0.00000000000E+00  0.11368683772E-12  0.17120000000E+03  0.17120000000E+03 0.  0.
         13    1    1    2    0    0 -0.12542498681E+01  0.26390490878E+02  0.12032657574E+03  0.12319304828E+03  0.10566000000E+00 0. -1.
        994    1    1    2    0    0  0.29941333014E+01 -0.72436689417E+01  0.32471468027E+01  0.17141009170E+03  0.17120000000E+03 0.  0.
        998    1    1    2    0    0 -0.17398834333E+01 -0.19146821936E+02  0.13764262737E+04  0.13765968600E+04  0.10000000000E+02 0. -1.
</event>
<event>
 5    1  0.1535793E-008  0.3861299E+03  0.7957747E-01  0.3424894E+00
         13   -1    0    0    0    0  0.00000000000E+00  0.00000000000E+00  0.14999999963E+04  0.15000000000E+04  0.10566000000E+00 0.  1.
        994   -1    0    0    0    0 -0.00000000000E+00 -0.00000000000E+00  0.11368683772E-12  0.17120000000E+03  0.17120000000E+03 0.  0.
         13    1    1    2    0    0 -0.16010656078E+01 -0.11637642040E+02  0.59914773583E+02  0.61055625301E+02  0.10566000000E+00 0.  1.
        994    1    1    2    0    0 -0.87881089384E+01  0.21354156736E+02  0.28193434107E+01  0.17277331844E+03  0.17120000000E+03 0.  0.
        998    1    1    2    0    0  0.10389174546E+02 -0.97165146958E+01  0.14372658793E+04  0.14373710563E+04  0.10000000000E+02 0.  1.
</event>
<event>
 5    1  0.1535793E-008  0.3833330E+03  0.7957747E-01  0.3436773E+00
         13   -1    0    0    0    0  0.00000000000E+00  0.00000000000E+00  0.14999999963E+04  0.15000000000E+04  0.10566000000E+00 0. -1.
        994   -1    0    0    0    0 -0.00000000000E+00 -0.00000000000E+00  0.11368683772E-12  0.17120000000E+03  0.17120000000E+03 0.  0.
         13    1    1    2    0    0  0.65930958248E+01  0.18893366921E+02  0.74572729833E+02  0.77210954047E+02  0.10566000000E+00 0. -1.
        994    1    1    2    0    0 -0.16738059173E+02 -0.22897308576E+02  0.51244843766E+01  0.17360918670E+03  0.17120000000E+03 0.  0.
        998    1    1    2    0    0  0.10144963348E+02  0.40039416550E+01  0.14203027821E+04  0.14203798593E+04  0.10000000000E+02 0. -1.
</event>
<event>
 5    1  0.1535793E-008  0.3828786E+03  0.7957747E-01  0.3438720E+00
         13   -1    0    0    0    0  0.00000000000E+00  0.00000000000E+00  0.14999999963E+04  0.15000000000E+04  0.10566000000E+00 0. -1.
        994   -1    0    0    0    0 -0.00000000000E+00 -0.00000000000E+00  0.11368683772E-12  0.17120000000E+03  0.17120000000E+03 0.  0.
         13    1    1    2    0    0 -0.18907450456E+02 -0.19673268159E+01  0.65488073584E+02  0.68191355781E+02  0.10566000000E+00 0. -1.
        994    1    1    2    0    0  0.15224002193E+02 -0.24039631923E+00  0.34551194357E+01  0.17191045891E+03  0.17120000000E+03 0.  0.
        998    1    1    2    0    0  0.36834482625E+01  0.22077231351E+01  0.14310568033E+04  0.14310981853E+04  0.10000000000E+02 0. -1.
</event>
<event>
 5    1  0.1535793E-008  0.3843517E+03  0.7957747E-01  0.3432426E+00
         13   -1    0    0    0    0  0.00000000000E+00  0.00000000000E+00  0.14999999963E+04  0.15000000000E+04  0.10566000000E+00 0. -1.
        994   -1    0    0    0    0 -0.00000000000E+00 -0.00000000000E+00  0.11368683772E-12  0.17120000000E+03  0.17120000000E+03 0.  0.
         13    1    1    2    0    0  0.16784566156E+02 -0.19440367076E+01  0.71243439890E+02  0.73219804911E+02  0.10566000000E+00 0. -1.
        994    1    1    2    0    0 -0.14173221685E+02  0.46543744792E+01  0.26861024968E+01  0.17186971392E+03  0.17120000000E+03 0.  0.
        998    1    1    2    0    0 -0.26113444709E+01 -0.27103377716E+01  0.14260704539E+04  0.14261104812E+04  0.10000000000E+02 0. -1.
</event>
<event>
 5    1  0.1535793E-008  0.3817877E+03  0.7957747E-01  0.3443411E+00
         13   -1    0    0    0    0  0.00000000000E+00  0.00000000000E+00  0.14999999963E+04  0.15000000000E+04  0.10566000000E+00 0. -1.
        994   -1    0    0    0    0 -0.00000000000E+00 -0.00000000000E+00  0.11368683772E-12  0.17120000000E+03  0.17120000000E+03 0.  0.
         13    1    1    2    0    0 -0.15374111556E+02 -0.30376370672E+02  0.16343687211E+03  0.16694522914E+03  0.10566000000E+00 0. -1.
        994    1    1    2    0    0  0.13711801753E+02  0.28697538153E+02  0.66024420389E+01  0.17425439577E+03  0.17120000000E+03 0.  0.
        998    1    1    2    0    0  0.16623098035E+01  0.16788325195E+01  0.13299606821E+04  0.13300003751E+04  0.10000000000E+02 0. -1.
</event>
<event>
 5    1  0.1535793E-008  0.3785915E+03  0.7957747E-01  0.3457314E+00
         13   -1    0    0    0    0  0.00000000000E+00  0.00000000000E+00  0.14999999963E+04  0.15000000000E+04  0.10566000000E+00 0.  1.
        994   -1    0    0    0    0 -0.00000000000E+00 -0.00000000000E+00  0.11368683772E-12  0.17120000000E+03  0.17120000000E+03 0.  0.
         13    1    1    2    0    0  0.60470236590E+01 -0.39948559114E+02  0.19591540958E+03  0.20003827820E+03  0.10566000000E+00 0.  1.
        994    1    1    2    0    0 -0.38812698541E+01 -0.17141986222E+00  0.48965240173E+01  0.17131406710E+03  0.17120000000E+03 0.  0.
        998    1    1    2    0    0 -0.21657538048E+01  0.40119978976E+02  0.12991880627E+04  0.12998476547E+04  0.10000000000E+02 0.  1.
</event>
<event>
 5    1  0.1535793E-008  0.3754710E+03  0.7957747E-01  0.3471119E+00
         13   -1    0    0    0    0  0.00000000000E+00  0.00000000000E+00  0.14999999963E+04  0.15000000000E+04  0.10566000000E+00 0. -1.
        994   -1    0    0    0    0 -0.00000000000E+00 -0.00000000000E+00  0.11368683772E-12  0.17120000000E+03  0.17120000000E+03 0.  0.
         13    1    1    2    0    0  0.32528625814E+01 -0.25051125753E+02  0.45978932442E+02  0.52461542190E+02  0.10566000000E+00 0. -1.
        994    1    1    2    0    0 -0.83545141040E+01  0.23179155707E+02  0.85000458829E+01  0.17317263625E+03  0.17120000000E+03 0.  0.
        998    1    1    2    0    0  0.51016515226E+01  0.18719700458E+01  0.14455210180E+04  0.14455658216E+04  0.10000000000E+02 0. -1.
</event>
<event>
 5    1  0.1535793E-008  0.3841537E+03  0.7957747E-01  0.3433270E+00
         13   -1    0    0    0    0  0.00000000000E+00  0.00000000000E+00  0.14999999963E+04  0.15000000000E+04  0.10566000000E+00 0. -1.
        994   -1    0    0    0    0 -0.00000000000E+00 -0.00000000000E+00  0.11368683772E-12  0.17120000000E+03  0.17120000000E+03 0.  0.
         13    1    1    2    0    0 -0.16568281003E+02  0.67519535271E+00  0.65839582590E+02  0.67895696652E+02  0.10566000000E+00 0. -1.
        994    1    1    2    0    0  0.12798033637E+02 -0.52767240217E+01  0.26831206644E+01  0.17177972121E+03  0.17120000000E+03 0.  0.
        998    1    1    2    0    0  0.37702473666E+01  0.46015286690E+01  0.14314772930E+04  0.14315245821E+04  0.10000000000E+02 0. -1.
</event>
<event>
 5    1  0.1535793E-008  0.3717648E+03  0.7957747E-01  0.3487819E+00
         13   -1    0    0    0    0  0.00000000000E+00  0.00000000000E+00  0.14999999963E+04  0.15000000000E+04  0.10566000000E+00 0.  1.
        994   -1    0    0    0    0 -0.00000000000E+00 -0.00000000000E+00  0.11368683772E-12  0.17120000000E+03  0.17120000000E+03 0.  0.
         13    1    1    2    0    0  0.67467059188E+02  0.83571111205E+01  0.18146952470E+03  0.19378556432E+03  0.10566000000E+00 0.  1.
        994    1    1    2    0    0 -0.50529679723E+02 -0.16837705128E+02  0.21921733642E+02  0.18062878855E+03  0.17120000000E+03 0.  0.
        998    1    1    2    0    0 -0.16937379464E+02  0.84805940072E+01  0.12966087379E+04  0.12967856471E+04  0.10000000000E+02 0.  1.
</event>
<event>
 5    1  0.1535793E-008  0.3803361E+03  0.7957747E-01  0.3449696E+00
         13   -1    0    0    0    0  0.00000000000E+00  0.00000000000E+00  0.14999999963E+04  0.15000000000E+04  0.10566000000E+00 0. -1.
        994   -1    0    0    0    0 -0.00000000000E+00 -0.00000000000E+00  0.11368683772E-12  0.17120000000E+03  0.17120000000E+03 0.  0.
         13    1    1    2    0    0 -0.36503492479E+02  0.12544724673E+01  0.18439766499E+03  0.18798028801E+03  0.10566000000E+00 0. -1.
        994    1    1    2    0    0  0.86705987649E+01  0.16548540929E+02  0.51299365614E+01  0.17229274430E+03  0.17120000000E+03 0.  0.
        998    1    1    2    0    0  0.27832893714E+02 -0.17803013396E+02  0.13104723947E+04  0.13109269677E+04  0.10000000000E+02 0. -1.
</event>
<event>
 5    1  0.1535793E-008  0.3818571E+03  0.7957747E-01  0.3443112E+00
         13   -1    0    0    0    0  0.00000000000E+00  0.00000000000E+00  0.14999999963E+04  0.15000000000E+04  0.10566000000E+00 0.  1.
        994   -1    0    0    0    0 -0.00000000000E+00 -0.00000000000E+00  0.11368683772E-12  0.17120000000E+03  0.17120000000E+03 0.  0.
         13    1    1    2    0    0 -0.30223820635E+02  0.40317433958E+02  0.26279235465E+03  0.26757953517E+03  0.10566000000E+00 0.  1.
        994    1    1    2    0    0  0.59856471320E+02 -0.48585040136E+02  0.23203579745E+02  0.18918548939E+03  0.17120000000E+03 0.  0.
        998    1    1    2    0    0 -0.29632650685E+02  0.82676061771E+01  0.12140040619E+04  0.12144349754E+04  0.10000000000E+02 0.  1.
</event>
<event>
 5    1  0.1535793E-008  0.4019642E+03  0.7957747E-01  0.3360764E+00
         13   -1    0    0    0    0  0.00000000000E+00  0.00000000000E+00  0.14999999963E+04  0.15000000000E+04  0.10566000000E+00 0.  1.
        994   -1    0    0    0    0 -0.00000000000E+00 -0.00000000000E+00  0.11368683772E-12  0.17120000000E+03  0.17120000000E+03 0.  0.
         13    1    1    2    0    0 -0.61830489978E+02  0.62906215482E+02  0.17468374844E+03  0.19569012384E+03  0.10566000000E+00 0.  1.
        994    1    1    2    0    0 -0.36615206866E+02  0.15519222874E+02  0.35223323091E+02  0.17925301153E+03  0.17120000000E+03 0.  0.
        998    1    1    2    0    0  0.98445696844E+02 -0.78425438356E+02  0.12900929247E+04  0.12962568646E+04  0.10000000000E+02 0.  1.
</event>
<event>
 5    1  0.1535793E-008  0.3847466E+03  0.7957747E-01  0.3430748E+00
         13   -1    0    0    0    0  0.00000000000E+00  0.00000000000E+00  0.14999999963E+04  0.15000000000E+04  0.10566000000E+00 0. -1.
        994   -1    0    0    0    0 -0.00000000000E+00 -0.00000000000E+00  0.11368683772E-12  0.17120000000E+03  0.17120000000E+03 0.  0.
         13    1    1    2    0    0 -0.14634530917E+01  0.13966960111E+02  0.54668701283E+02  0.56443739544E+02  0.10566000000E+00 0. -1.
        994    1    1    2    0    0  0.42892239998E+00 -0.13667982197E+02  0.23717323339E+01  0.17176164539E+03  0.17120000000E+03 0.  0.
        998    1    1    2    0    0  0.10345306917E+01 -0.29897791352E+00  0.14429595627E+04  0.14429946151E+04  0.10000000000E+02 0. -1.
</event>
<event>
 5    1  0.1535793E-008  0.3758385E+03  0.7957747E-01  0.3469481E+00
         13   -1    0    0    0    0  0.00000000000E+00  0.00000000000E+00  0.14999999963E+04  0.15000000000E+04  0.10566000000E+00 0.  1.
        994   -1    0    0    0    0 -0.00000000000E+00 -0.00000000000E+00  0.11368683772E-12  0.17120000000E+03  0.17120000000E+03 0.  0.
         13    1    1    2    0    0 -0.20339169165E+02 -0.61453663311E+02  0.26630895754E+03  0.27406332584E+03  0.10566000000E+00 0.  1.
        994    1    1    2    0    0  0.18822756029E+02  0.66400438051E+02  0.22569418570E+02  0.18596271931E+03  0.17120000000E+03 0.  0.
        998    1    1    2    0    0  0.15164131358E+01 -0.49467747406E+01  0.12111216202E+04  0.12111739549E+04  0.10000000000E+02 0.  1.
</event>
<event>
 5    1  0.1535793E-008  0.3826412E+03  0.7957747E-01  0.3439738E+00
         13   -1    0    0    0    0  0.00000000000E+00  0.00000000000E+00  0.14999999963E+04  0.15000000000E+04  0.10566000000E+00 0. -1.
        994   -1    0    0    0    0 -0.00000000000E+00 -0.00000000000E+00  0.11368683772E-12  0.17120000000E+03  0.17120000000E+03 0.  0.
         13    1    1    2    0    0 -0.16544883085E+02 -0.28674335363E+02  0.16797632201E+03  0.17120749571E+03  0.10566000000E+00 0. -1.
        994    1    1    2    0    0  0.20869628172E+02  0.32015760797E+02  0.76611899411E+01  0.17558099029E+03  0.17120000000E+03 0.  0.
        998    1    1    2    0    0 -0.43247450871E+01 -0.33414254336E+01  0.13243624843E+04  0.13244115140E+04  0.10000000000E+02 0. -1.
</event>
<event>
 5    1  0.1658677E-008  0.3861426E+03  0.7957747E-01  0.3424841E+00
         13   -1    0    0    0    0  0.00000000000E+00  0.00000000000E+00  0.14999999963E+04  0.15000000000E+04  0.10566000000E+00 0. -1.
        994   -1    0    0    0    0 -0.00000000000E+00 -0.00000000000E+00  0.11368683772E-12  0.17120000000E+03  0.17120000000E+03 0.  0.
         13    1    1    2    0    0 -0.76544756020E+00  0.10911704801E+02  0.55192149601E+02  0.56265760044E+02  0.10566000000E+00 0. -1.
        994    1    1    2    0    0  0.51333954209E+01 -0.11654516124E+02  0.15954674570E+01  0.17168041534E+03  0.17120000000E+03 0.  0.
        998    1    1    2    0    0 -0.43679478607E+01  0.74281132267E+00  0.14432123792E+04  0.14432538246E+04  0.10000000000E+02 0. -1.
</event>
<event>
 5    1  0.1535793E-008  0.3839921E+03  0.7957747E-01  0.3433958E+00
         13   -1    0    0    0    0  0.00000000000E+00  0.00000000000E+00  0.14999999963E+04  0.15000000000E+04  0.10566000000E+00 0.  1.
        994   -1    0    0    0    0 -0.00000000000E+00 -0.00000000000E+00  0.11368683772E-12  0.17120000000E+03  0.17120000000E+03 0.  0.
         13    1    1    2    0    0 -0.26354241393E+01  0.97544904208E+01  0.24950596893E+02  0.26919119471E+02  0.10566000000E+00 0.  1.
        994    1    1    2    0    0  0.52254331865E+01  0.13580868297E+02  0.28302922725E+01  0.17184061129E+03  0.17120000000E+03 0.  0.
        998    1    1    2    0    0 -0.25900090471E+01 -0.23335358718E+02  0.14722191071E+04  0.14724402692E+04  0.10000000000E+02 0.  1.
</event>
<event>
 5    1  0.1535793E-008  0.3837354E+03  0.7957747E-01  0.3435053E+00
         13   -1    0    0    0    0  0.00000000000E+00  0.00000000000E+00  0.14999999963E+04  0.15000000000E+04  0.10566000000E+00 0. -1.
        994   -1    0    0    0    0 -0.00000000000E+00 -0.00000000000E+00  0.11368683772E-12  0.17120000000E+03  0.17120000000E+03 0.  0.
         13    1    1    2    0    0  0.15692625612E+02  0.17916459668E+03  0.93913990009E+03  0.95620603131E+03  0.10566000000E+00 0. -1.
        994    1    1    2    0    0 -0.24120373065E+02 -0.20350967000E+03  0.15614380948E+03  0.30933526701E+03  0.17120000000E+03 0.  0.
        998    1    1    2    0    0  0.84277474538E+01  0.24345073310E+02  0.40471628671E+03  0.40565870168E+03  0.10000000000E+02 0.  1.
</event>
<event>
 5    1  0.1535793E-008  0.3841952E+03  0.7957747E-01  0.3433093E+00
         13   -1    0    0    0    0  0.00000000000E+00  0.00000000000E+00  0.14999999963E+04  0.15000000000E+04  0.10566000000E+00 0. -1.
        994   -1    0    0    0    0 -0.00000000000E+00 -0.00000000000E+00  0.11368683772E-12  0.17120000000E+03  0.17120000000E+03 0.  0.
         13    1    1    2    0    0  0.15263715833E+02  0.38722092574E+01  0.59238747354E+02  0.61296128570E+02  0.10566000000E+00 0. -1.
        994    1    1    2    0    0 -0.11764608680E+02 -0.14354584345E+02  0.31668255506E+01  0.17223219471E+03  0.17120000000E+03 0.  0.
        998    1    1    2    0    0 -0.34991071536E+01  0.10482375088E+02  0.14375944234E+04  0.14376716767E+04  0.10000000000E+02 0. -1.
</event>
<event>
 5    1  0.1535793E-008  0.3841434E+03  0.7957747E-01  0.3433313E+00
         13   -1    0    0    0    0  0.00000000000E+00  0.00000000000E+00  0.14999999963E+04  0.15000000000E+04  0.10566000000E+00 0. -1.
        994   -1    0    0    0    0 -0.00000000000E+00 -0.00000000000E+00  0.11368683772E-12  0.17120000000E+03  0.17120000000E+03 0.  0.
         13    1    1    2    0    0 -0.17969462392E+02 -0.11688760852E+02  0.10628373606E+03  0.10842403988E+03  0.10566000000E+00 0. -1.
        994    1    1    2    0    0  0.12524107652E+02  0.17340979068E+02  0.35664443132E+01  0.17256802239E+03  0.17120000000E+03 0.  0.
        998    1    1    2    0    0  0.54453547408E+01 -0.56522182162E+01  0.13901498159E+04  0.13902079377E+04  0.10000000000E+02 0. -1.
</event>
<event>
 5    1  0.1535793E-008  0.3825739E+03  0.7957747E-01  0.3440027E+00
         13   -1    0    0    0    0  0.00000000000E+00  0.00000000000E+00  0.14999999963E+04  0.15000000000E+04  0.10566000000E+00 0.  1.
        994   -1    0    0    0    0 -0.00000000000E+00 -0.00000000000E+00  0.11368683772E-12  0.17120000000E+03  0.17120000000E+03 0.  0.
         13    1    1    2    0    0 -0.19085506581E+02  0.50800407111E+01  0.67353377038E+02  0.70189400464E+02  0.10566000000E+00 0.  1.
        994    1    1    2    0    0  0.13446353914E+02 -0.39303166629E+01  0.34902574482E+01  0.17180766490E+03  0.17120000000E+03 0.  0.
        998    1    1    2    0    0  0.56391526672E+01 -0.11497240482E+01  0.14291563618E+04  0.14292029346E+04  0.10000000000E+02 0.  1.
</event>
<event>
 5    1  0.1535793E-008  0.3818849E+03  0.7957747E-01  0.3442992E+00
         13   -1    0    0    0    0  0.00000000000E+00  0.00000000000E+00  0.14999999963E+04  0.15000000000E+04  0.10566000000E+00 0.  1.
        994   -1    0    0    0    0 -0.00000000000E+00 -0.00000000000E+00  0.11368683772E-12  0.17120000000E+03  0.17120000000E+03 0.  0.
         13    1    1    2    0    0  0.15920483534E+02  0.11000241726E+01  0.39788855235E+02  0.42869989667E+02  0.10566000000E+00 0.  1.
        994    1    1    2    0    0 -0.52051327004E+01  0.11408314096E+02  0.37072306220E+01  0.17169865054E+03  0.17120000000E+03 0.  0.
        998    1    1    2    0    0 -0.10715350833E+02 -0.12508338269E+02  0.14565039104E+04  0.14566313598E+04  0.10000000000E+02 0.  1.
</event>
<event>
 5    1  0.1535793E-008  0.3685764E+03  0.7957747E-01  0.3502459E+00
         13   -1    0    0    0    0  0.00000000000E+00  0.00000000000E+00  0.14999999963E+04  0.15000000000E+04  0.10566000000E+00 0. -1.
        994   -1    0    0    0    0 -0.00000000000E+00 -0.00000000000E+00  0.11368683772E-12  0.17120000000E+03  0.17120000000E+03 0.  0.
         13    1    1    2    0    0  0.46725279245E+02 -0.26255623787E+02  0.19167800148E+03  0.19903034170E+03  0.10566000000E+00 0. -1.
        994    1    1    2    0    0  0.20374534833E+02 -0.30184649334E+02  0.14815641050E+02  0.17565642016E+03  0.17120000000E+03 0.  0.
        998    1    1    2    0    0 -0.67099814077E+02  0.56440273121E+02  0.12935063537E+04  0.12965132381E+04  0.10000000000E+02 0. -1.
</event>
<event>
 5    1  0.1535793E-008  0.3768848E+03  0.7957747E-01  0.3464836E+00
         13   -1    0    0    0    0  0.00000000000E+00  0.00000000000E+00  0.14999999963E+04  0.15000000000E+04  0.10566000000E+00 0.  1.
        994   -1    0    0    0    0 -0.00000000000E+00 -0.00000000000E+00  0.11368683772E-12  0.17120000000E+03  0.17120000000E+03 0.  0.
         13    1    1    2    0    0  0.11689996659E+01 -0.10196486208E+03  0.56261380185E+03  0.57178011583E+03  0.10566000000E+00 0.  1.
        994    1    1    2    0    0 -0.74875534083E+01  0.10089974652E+03  0.41112777247E+02  0.20306777873E+03  0.17120000000E+03 0.  0.
        998    1    1    2    0    0  0.63185537424E+01  0.10651155565E+01  0.89627341718E+03  0.89635210545E+03  0.10000000000E+02 0.  1.
</event>
<event>
 5    1  0.1535793E-008  0.2395734E+03  0.7957747E-01  0.4451475E+00
         13   -1    0    0    0    0  0.00000000000E+00  0.00000000000E+00  0.14999999963E+04  0.15000000000E+04  0.10566000000E+00 0.  1.
        994   -1    0    0    0    0 -0.00000000000E+00 -0.00000000000E+00  0.11368683772E-12  0.17120000000E+03  0.17120000000E+03 0.  0.
         13    1    1    2    0    0 -0.23666843422E+02 -0.37712072111E+02 -0.29484411628E+02  0.53400950868E+02  0.10566000000E+00 0.  1.
        994    1    1    2    0    0  0.34126189244E+02  0.45036412164E+02  0.14010176202E+03  0.22832174433E+03  0.17120000000E+03 0.  0.
        998    1    1    2    0    0 -0.10459345823E+02 -0.73243400528E+01  0.13893826459E+04  0.13894773048E+04  0.10000000000E+02 0.  1.
</event>
<event>
 5    1  0.1535793E-008  0.3835363E+03  0.7957747E-01  0.3435904E+00
         13   -1    0    0    0    0  0.00000000000E+00  0.00000000000E+00  0.14999999963E+04  0.15000000000E+04  0.10566000000E+00 0.  1.
        994   -1    0    0    0    0 -0.00000000000E+00 -0.00000000000E+00  0.11368683772E-12  0.17120000000E+03  0.17120000000E+03 0.  0.
         13    1    1    2    0    0 -0.13002164386E+02 -0.17461279326E+02  0.10134768883E+03  0.10365962449E+03  0.10566000000E+00 0.  1.
        994    1    1    2    0    0 -0.64280005376E+00  0.14826935894E+02  0.30867216490E+01  0.17186977358E+03  0.17120000000E+03 0.  0.
        998    1    1    2    0    0  0.13644964440E+02  0.26343434317E+01  0.13955655858E+04  0.13956706019E+04  0.10000000000E+02 0.  1.
</event>
<event>
 5    1  0.1535793E-008  0.3840071E+03  0.7957747E-01  0.3433894E+00
         13   -1    0    0    0    0  0.00000000000E+00  0.00000000000E+00  0.14999999963E+04  0.15000000000E+04  0.10566000000E+00 0. -1.
        994   -1    0    0    0    0 -0.00000000000E+00 -0.00000000000E+00  0.11368683772E-12  0.17120000000E+03  0.17120000000E+03 0.  0.
         13    1    1    2    0    0  0.16781733886E+02 -0.38454083799E+01  0.68437356551E+02  0.70569800152E+02  0.10566000000E+00 0. -1.
        994    1    1    2    0    0 -0.17196173243E+02 -0.13350009298E+02  0.36890684272E+01  0.17261801861E+03  0.17120000000E+03 0.  0.
        998    1    1    2    0    0  0.41443935698E+00  0.17195417678E+02  0.14278735713E+04  0.14280121812E+04  0.10000000000E+02 0. -1.
</event>
<event>
 5    1  0.1535793E-008  0.3767111E+03  0.7957747E-01  0.3465605E+00
         13   -1    0    0    0    0  0.00000000000E+00  0.00000000000E+00  0.14999999963E+04  0.15000000000E+04  0.10566000000E+00 0.  1.
        994   -1    0    0    0    0 -0.00000000000E+00 -0.00000000000E+00  0.11368683772E-12  0.17120000000E+03  0.17120000000E+03 0.  0.
         13    1    1    2    0    0  0.24842129619E+02  0.58516560584E+02  0.25828866866E+03  0.26599693004E+03  0.10566000000E+00 0.  1.
        994    1    1    2    0    0 -0.77513530564E+02 -0.55202542272E+02  0.37048341530E+02  0.19934314060E+03  0.17120000000E+03 0.  0.
        998    1    1    2    0    0  0.52671400945E+02 -0.33140183125E+01  0.12046629861E+04  0.12058599294E+04  0.10000000000E+02 0.  1.
</event>
<event>
 5    1  0.1535793E-008  0.3841964E+03  0.7957747E-01  0.3433087E+00
         13   -1    0    0    0    0  0.00000000000E+00  0.00000000000E+00  0.14999999963E+04  0.15000000000E+04  0.10566000000E+00 0.  1.
        994   -1    0    0    0    0 -0.00000000000E+00 -0.00000000000E+00  0.11368683772E-12  0.17120000000E+03  0.17120000000E+03 0.  0.
         13    1    1    2    0    0 -0.53387220116E+01 -0.12401239683E+02  0.43724279566E+02  0.45761517523E+02  0.10566000000E+00 0.  1.
        994    1    1    2    0    0  0.11076486413E+02  0.90601870622E+01  0.27051100740E+01  0.17181831439E+03  0.17120000000E+03 0.  0.
        998    1    1    2    0    0 -0.57377644016E+01  0.33410526203E+01  0.14535706066E+04  0.14536201681E+04  0.10000000000E+02 0.  1.
</event>
<event>
 5    1  0.1535793E-008  0.3804713E+03  0.7957747E-01  0.3449109E+00
         13   -1    0    0    0    0  0.00000000000E+00  0.00000000000E+00  0.14999999963E+04  0.15000000000E+04  0.10566000000E+00 0.  1.
        994   -1    0    0    0    0 -0.00000000000E+00 -0.00000000000E+00  0.11368683772E-12  0.17120000000E+03  0.17120000000E+03 0.  0.
         13    1    1    2    0    0 -0.10075897524E+02 -0.28490147242E+02  0.12764538786E+03  0.13117380991E+03  0.10566000000E+00 0.  1.
        994    1    1    2    0    0  0.82492338785E+01 -0.55880717215E+00  0.41236440382E+01  0.17144913696E+03  0.17120000000E+03 0.  0.
        998    1    1    2    0    0  0.18266636455E+01  0.29048954414E+02  0.13682309644E+04  0.13685770531E+04  0.10000000000E+02 0.  1.
</event>
<event>
 5    1  0.1535793E-008  0.3757950E+03  0.7957747E-01  0.3469675E+00
         13   -1    0    0    0    0  0.00000000000E+00  0.00000000000E+00  0.14999999963E+04  0.15000000000E+04  0.10566000000E+00 0.  1.
        994   -1    0    0    0    0 -0.00000000000E+00 -0.00000000000E+00  0.11368683772E-12  0.17120000000E+03  0.17120000000E+03 0.  0.
         13    1    1    2    0    0 -0.19578069392E+02 -0.36416659831E+02  0.12568582586E+03  0.13231179804E+03  0.10566000000E+00 0.  1.
        994    1    1    2    0    0  0.16476038376E+02  0.34578398235E+02  0.11260977690E+02  0.17579355814E+03  0.17120000000E+03 0.  0.
        998    1    1    2    0    0  0.31020310161E+01  0.18382615961E+01  0.13630531927E+04  0.13630946438E+04  0.10000000000E+02 0.  1.
</event>
<event>
 5    1  0.1535793E-008  0.3818539E+03  0.7957747E-01  0.3443126E+00
         13   -1    0    0    0    0  0.00000000000E+00  0.00000000000E+00  0.14999999963E+04  0.15000000000E+04  0.10566000000E+00 0. -1.
        994   -1    0    0    0    0 -0.00000000000E+00 -0.00000000000E+00  0.11368683772E-12  0.17120000000E+03  0.17120000000E+03 0.  0.
         13    1    1    2    0    0 -0.65711025633E+01 -0.35566506989E+02  0.18726670165E+03  0.19072751380E+03  0.10566000000E+00 0. -1.
        994    1    1    2    0    0  0.75959141807E+01  0.30582272274E+02  0.65064337854E+01  0.17419743675E+03  0.17120000000E+03 0.  0.
        998    1    1    2    0    0 -0.10248116174E+01  0.49842347152E+01  0.13062268608E+04  0.13062750495E+04  0.10000000000E+02 0. -1.
</event>
<event>
 5    1  0.1535793E-008  0.3831239E+03  0.7957747E-01  0.3437668E+00
         13   -1    0    0    0    0  0.00000000000E+00  0.00000000000E+00  0.14999999963E+04  0.15000000000E+04  0.10566000000E+00 0. -1.
        994   -1    0    0    0    0 -0.00000000000E+00 -0.00000000000E+00  0.11368683772E-12  0.17120000000E+03  0.17120000000E+03 0.  0.
         13    1    1    2    0    0 -0.12650553454E+02 -0.12217618846E+02  0.62742804574E+02  0.65161164836E+02  0.10566000000E+00 0. -1.
        994    1    1    2    0    0  0.46581972840E+01 -0.29400679181E+01  0.26648668876E+01  0.17130932350E+03  0.17120000000E+03 0.  0.
        998    1    1    2    0    0  0.79923561696E+01  0.15157686764E+02  0.14345923248E+04  0.14347295117E+04  0.10000000000E+02 0. -1.
</event>
<event>
 5    1  0.1535793E-008  0.3816674E+03  0.7957747E-01  0.3443930E+00
         13   -1    0    0    0    0  0.00000000000E+00  0.00000000000E+00  0.14999999963E+04  0.15000000000E+04  0.10566000000E+00 0. -1.
        994   -1    0    0    0    0 -0.00000000000E+00 -0.00000000000E+00  0.11368683772E-12  0.17120000000E+03  0.17120000000E+03 0.  0.
         13    1    1    2    0    0 -0.26016127915E+03 -0.77100600045E+02  0.11518522790E+04  0.11833816280E+04  0.10566000000E+00 0. -1.
        994    1    1    2    0    0  0.26055140113E+03  0.72022456004E+02  0.30081511322E+03  0.43917358657E+03  0.17120000000E+03 0.  0.
        998    1    1    2    0    0 -0.39012197448E+00  0.50781440407E+01  0.47332604045E+02  0.48644785411E+02  0.10000000000E+02 0.  1.
</event>
<event>
 5    1  0.1535793E-008  0.3859075E+03  0.7957747E-01  0.3425832E+00
         13   -1    0    0    0    0  0.00000000000E+00  0.00000000000E+00  0.14999999963E+04  0.15000000000E+04  0.10566000000E+00 0.  1.
        994   -1    0    0    0    0 -0.00000000000E+00 -0.00000000000E+00  0.11368683772E-12  0.17120000000E+03  0.17120000000E+03 0.  0.
         13    1    1    2    0    0 -0.25497110562E+01 -0.12882422952E+02  0.77469901351E+02  0.78575152733E+02  0.10566000000E+00 0.  1.
        994    1    1    2    0    0 -0.94669800431E+01  0.48223000823E+01  0.15504585161E+01  0.17153635828E+03  0.17120000000E+03 0.  0.
        998    1    1    2    0    0  0.12016691099E+02  0.80601228697E+01  0.14209796364E+04  0.14210884890E+04  0.10000000000E+02 0.  1.
</event>
<event>
 5    1  0.1535793E-008  0.3776344E+03  0.7957747E-01  0.3461524E+00
         13   -1    0    0    0    0  0.00000000000E+00  0.00000000000E+00  0.14999999963E+04  0.15000000000E+04  0.10566000000E+00 0.  1.
        994   -1    0    0    0    0 -0.00000000000E+00 -0.00000000000E+00  0.11368683772E-12  0.17120000000E+03  0.17120000000E+03 0.  0.
         13    1    1    2    0    0 -0.10231321207E+03  0.14090899615E+03  0.90296934479E+03  0.91960697440E+03  0.10566000000E+00 0.  1.
        994    1    1    2    0    0  0.97518882192E+02 -0.14657622329E+03  0.11808400189E+03  0.27248448235E+03  0.17120000000E+03 0.  0.
        998    1    1    2    0    0  0.47943298742E+01  0.56672271372E+01  0.47894664960E+03  0.47910854326E+03  0.10000000000E+02 0. -1.
</event>
<event>
 5    1  0.1535793E-008  0.3835867E+03  0.7957747E-01  0.3435689E+00
         13   -1    0    0    0    0  0.00000000000E+00  0.00000000000E+00  0.14999999963E+04  0.15000000000E+04  0.10566000000E+00 0. -1.
        994   -1    0    0    0    0 -0.00000000000E+00 -0.00000000000E+00  0.11368683772E-12  0.17120000000E+03  0.17120000000E+03 0.  0.
         13    1    1    2    0    0  0.95027110165E+02 -0.53844015039E+02  0.65835958216E+03  0.66735798505E+03  0.10566000000E+00 0. -1.
        994    1    1    2    0    0 -0.12073212177E+03  0.87736095936E+02  0.79772103207E+02  0.24072161558E+03  0.17120000000E+03 0.  0.
        998    1    1    2    0    0  0.25705011601E+02 -0.33892080897E+02  0.76186831091E+03  0.76312039937E+03  0.10000000000E+02 0. -1.
</event>
<event>
 5    1  0.1535793E-008  0.3842056E+03  0.7957747E-01  0.3433048E+00
         13   -1    0    0    0    0  0.00000000000E+00  0.00000000000E+00  0.14999999963E+04  0.15000000000E+04  0.10566000000E+00 0. -1.
        994   -1    0    0    0    0 -0.00000000000E+00 -0.00000000000E+00  0.11368683772E-12  0.17120000000E+03  0.17120000000E+03 0.  0.
         13    1    1    2    0    0 -0.47230907656E+01 -0.20122636452E+02  0.11136589929E+03  0.11326783645E+03  0.10566000000E+00 0. -1.
        994    1    1    2    0    0  0.24429811482E+01  0.49153547160E+01  0.21244057828E+01  0.17130114410E+03  0.17120000000E+03 0.  0.
        998    1    1    2    0    0  0.22801096174E+01  0.15207281736E+02  0.13865096912E+04  0.13866310195E+04  0.10000000000E+02 0. -1.
</event>
<event>
 5    1  0.1535793E-008  0.3803043E+03  0.7957747E-01  0.3449835E+00
         13   -1    0    0    0    0  0.00000000000E+00  0.00000000000E+00  0.14999999963E+04  0.15000000000E+04  0.10566000000E+00 0.  1.
        994   -1    0    0    0    0 -0.00000000000E+00 -0.00000000000E+00  0.11368683772E-12  0.17120000000E+03  0.17120000000E+03 0.  0.
         13    1    1    2    0    0  0.55018977798E+02 -0.11916926948E+03  0.51473262986E+03  0.53120438074E+03  0.10566000000E+00 0.  1.
        994    1    1    2    0    0  0.16746097320E+02  0.98537800429E+02  0.53698415886E+02  0.20538522283E+03  0.17120000000E+03 0.  0.
        998    1    1    2    0    0 -0.71765075119E+02  0.20631469053E+02  0.93156895053E+03  0.93461039643E+03  0.10000000000E+02 0.  1.
</event>
<event>
 5    1  0.1535793E-008  0.3846015E+03  0.7957747E-01  0.3431364E+00
         13   -1    0    0    0    0  0.00000000000E+00  0.00000000000E+00  0.14999999963E+04  0.15000000000E+04  0.10566000000E+00 0. -1.
        994   -1    0    0    0    0 -0.00000000000E+00 -0.00000000000E+00  0.11368683772E-12  0.17120000000E+03  0.17120000000E+03 0.  0.
         13    1    1    2    0    0 -0.23415739295E+01 -0.18262354784E+02  0.10855725641E+03  0.11010760943E+03  0.10566000000E+00 0. -1.
        994    1    1    2    0    0  0.16361303577E+02 -0.98337318610E+01  0.30289440206E+01  0.17228757657E+03  0.17120000000E+03 0.  0.
        998    1    1    2    0    0 -0.14019729647E+02  0.28096086645E+02  0.13884137959E+04  0.13888048140E+04  0.10000000000E+02 0. -1.
</event>
<event>
 5    1  0.1535793E-008  0.3845017E+03  0.7957747E-01  0.3431788E+00
         13   -1    0    0    0    0  0.00000000000E+00  0.00000000000E+00  0.14999999963E+04  0.15000000000E+04  0.10566000000E+00 0. -1.
        994   -1    0    0    0    0 -0.00000000000E+00 -0.00000000000E+00  0.11368683772E-12  0.17120000000E+03  0.17120000000E+03 0.  0.
         13    1    1    2    0    0 -0.69553840008E+01  0.20064930993E+02  0.11042355078E+03  0.11244710113E+03  0.10566000000E+00 0. -1.
        994    1    1    2    0    0  0.76355179224E+01 -0.22779024119E+02  0.37812852601E+01  0.17291883412E+03  0.17120000000E+03 0.  0.
        998    1    1    2    0    0 -0.68013392156E+00  0.27140931264E+01  0.13857951602E+04  0.13858340648E+04  0.10000000000E+02 0. -1.
</event>
<event>
 5    1  0.1535793E-008  0.3844207E+03  0.7957747E-01  0.3432133E+00
         13   -1    0    0    0    0  0.00000000000E+00  0.00000000000E+00  0.14999999963E+04  0.15000000000E+04  0.10566000000E+00 0.  1.
        994   -1    0    0    0    0 -0.00000000000E+00 -0.00000000000E+00  0.11368683772E-12  0.17120000000E+03  0.17120000000E+03 0.  0.
         13    1    1    2    0    0 -0.60922359778E+01  0.17064521219E+02  0.84827311734E+02  0.86740977651E+02  0.10566000000E+00 0.  1.
        994    1    1    2    0    0  0.19777187063E+01 -0.12590413482E+02  0.24533913472E+01  0.17169126073E+03  0.17120000000E+03 0.  0.
        998    1    1    2    0    0  0.41145172715E+01 -0.44741077372E+01  0.14127192932E+04  0.14127677616E+04  0.10000000000E+02 0.  1.
</event>
<event>
 5    1  0.1535793E-008  0.3818285E+03  0.7957747E-01  0.3443235E+00
         13   -1    0    0    0    0  0.00000000000E+00  0.00000000000E+00  0.14999999963E+04  0.15000000000E+04  0.10566000000E+00 0. -1.
        994   -1    0    0    0    0 -0.00000000000E+00 -0.00000000000E+00  0.11368683772E-12  0.17120000000E+03  0.17120000000E+03 0.  0.
         13    1    1    2    0    0  0.54984827267E+01 -0.26727903033E+02  0.12517306903E+03  0.12811292865E+03  0.10566000000E+00 0. -1.
        994    1    1    2    0    0 -0.44970736644E+01  0.24394831416E+01  0.32999306321E+01  0.17130821431E+03  0.17120000000E+03 0.  0.
        998    1    1    2    0    0 -0.10014090623E+01  0.24288419892E+02  0.13715269966E+04  0.13717788570E+04  0.10000000000E+02 0. -1.
</event>
<event>
 5    1  0.1535793E-008  0.3837066E+03  0.7957747E-01  0.3435176E+00
         13   -1    0    0    0    0  0.00000000000E+00  0.00000000000E+00  0.14999999963E+04  0.15000000000E+04  0.10566000000E+00 0. -1.
        994   -1    0    0    0    0 -0.00000000000E+00 -0.00000000000E+00  0.11368683772E-12  0.17120000000E+03  0.17120000000E+03 0.  0.
         13    1    1    2    0    0 -0.14767278045E+01  0.16573842501E+02  0.61287202851E+02  0.63505947576E+02  0.10566000000E+00 0. -1.
        994    1    1    2    0    0 -0.45276978481E+01 -0.83986347588E+01  0.25743735394E+01  0.17148499792E+03  0.17120000000E+03 0.  0.
        998    1    1    2    0    0  0.60044256526E+01 -0.81752077424E+01  0.14361384199E+04  0.14362090545E+04  0.10000000000E+02 0. -1.
</event>
<event>
 5    1  0.1535793E-008  0.3704827E+03  0.7957747E-01  0.3493675E+00
         13   -1    0    0    0    0  0.00000000000E+00  0.00000000000E+00  0.14999999963E+04  0.15000000000E+04  0.10566000000E+00 0.  1.
        994   -1    0    0    0    0 -0.00000000000E+00 -0.00000000000E+00  0.11368683772E-12  0.17120000000E+03  0.17120000000E+03 0.  0.
         13    1    1    2    0    0 -0.71401959441E+02 -0.79894269190E+02  0.59775092315E+03  0.60727877565E+03  0.10566000000E+00 0.  1.
        994    1    1    2    0    0  0.40146453325E+02  0.27591187035E+02  0.19550960928E+02  0.17906616484E+03  0.17120000000E+03 0.  0.
        998    1    1    2    0    0  0.31255506117E+02  0.52303082155E+02  0.88269811220E+03  0.88485505952E+03  0.10000000000E+02 0.  1.
</event>
<event>
 5    1  0.1535793E-008  0.3850346E+03  0.7957747E-01  0.3429525E+00
         13   -1    0    0    0    0  0.00000000000E+00  0.00000000000E+00  0.14999999963E+04  0.15000000000E+04  0.10566000000E+00 0. -1.
        994   -1    0    0    0    0 -0.00000000000E+00 -0.00000000000E+00  0.11368683772E-12  0.17120000000E+03  0.17120000000E+03 0.  0.
         13    1    1    2    0    0 -0.46759111473E+01 -0.15353185308E+02  0.75303771914E+02  0.76995153566E+02  0.10566000000E+00 0. -1.
        994    1    1    2    0    0  0.39703939909E+01  0.18905019775E+02  0.28409765816E+01  0.17230982256E+03  0.17120000000E+03 0.  0.
        998    1    1    2    0    0  0.70551715641E+00 -0.35518344668E+01  0.14218552478E+04  0.14218950239E+04  0.10000000000E+02 0. -1.
</event>
<event>
 5    1  0.1535793E-008  0.3687474E+03  0.7957747E-01  0.3501667E+00
         13   -1    0    0    0    0  0.00000000000E+00  0.00000000000E+00  0.14999999963E+04  0.15000000000E+04  0.10566000000E+00 0.  1.
        994   -1    0    0    0    0 -0.00000000000E+00 -0.00000000000E+00  0.11368683772E-12  0.17120000000E+03  0.17120000000E+03 0.  0.
         13    1    1    2    0    0 -0.10310670248E+02  0.17558259681E+02  0.16354246851E+02  0.26116564822E+02  0.10566000000E+00 0.  1.
        994    1    1    2    0    0  0.14533620692E+02 -0.15916961123E+02  0.11540211023E+02  0.17293696034E+03  0.17120000000E+03 0.  0.
        998    1    1    2    0    0 -0.42229504439E+01 -0.16412985578E+01  0.14721055384E+04  0.14721464748E+04  0.10000000000E+02 0.  1.
</event>
<event>
 5    1  0.1535793E-008  0.3854207E+03  0.7957747E-01  0.3427890E+00
         13   -1    0    0    0    0  0.00000000000E+00  0.00000000000E+00  0.14999999963E+04  0.15000000000E+04  0.10566000000E+00 0.  1.
        994   -1    0    0    0    0 -0.00000000000E+00 -0.00000000000E+00  0.11368683772E-12  0.17120000000E+03  0.17120000000E+03 0.  0.
         13    1    1    2    0    0 -0.13391600322E+02  0.54350758972E+01  0.71725445042E+02  0.73167107636E+02  0.10566000000E+00 0.  1.
        994    1    1    2    0    0  0.13346247212E+02 -0.30850949490E+01  0.20378824162E+01  0.17175923000E+03  0.17120000000E+03 0.  0.
        998    1    1    2    0    0  0.45353110232E-01 -0.23499809482E+01  0.14262366688E+04  0.14262736624E+04  0.10000000000E+02 0.  1.
</event>
<event>
 5    1  0.1535793E-008  0.4006441E+03  0.7957747E-01  0.3365917E+00
         13   -1    0    0    0    0  0.00000000000E+00  0.00000000000E+00  0.14999999963E+04  0.15000000000E+04  0.10566000000E+00 0.  1.
        994   -1    0    0    0    0 -0.00000000000E+00 -0.00000000000E+00  0.11368683772E-12  0.17120000000E+03  0.17120000000E+03 0.  0.
         13    1    1    2    0    0 -0.61459390383E+02  0.10714064020E+03  0.26158042534E+03  0.28927617173E+03  0.10566000000E+00 0.  1.
        994    1    1    2    0    0 -0.37450072426E+02 -0.11489111273E+03  0.88145477118E+02  0.22733574476E+03  0.17120000000E+03 0.  0.
        998    1    1    2    0    0  0.98909462808E+02  0.77504725260E+01  0.11502740938E+04  0.11545880835E+04  0.10000000000E+02 0.  1.
</event>
<event>
 5    1  0.1535793E-008  0.3830152E+03  0.7957747E-01  0.3438134E+00
         13   -1    0    0    0    0  0.00000000000E+00  0.00000000000E+00  0.14999999963E+04  0.15000000000E+04  0.10566000000E+00 0. -1.
        994   -1    0    0    0    0 -0.00000000000E+00 -0.00000000000E+00  0.11368683772E-12  0.17120000000E+03  0.17120000000E+03 0.  0.
         13    1    1    2    0    0 -0.79954524242E+01 -0.11031830382E+02  0.34540098328E+02  0.37130285450E+02  0.10566000000E+00 0. -1.
        994    1    1    2    0    0  0.54318979732E+01  0.79089505504E+01  0.29235191549E+01  0.17149356833E+03  0.17120000000E+03 0.  0.
        998    1    1    2    0    0  0.25635544510E+01  0.31228798320E+01  0.14625363788E+04  0.14625761462E+04  0.10000000000E+02 0. -1.
</event>
<event>
 5    1  0.1535793E-008  0.3850646E+03  0.7957747E-01  0.3429398E+00
         13   -1    0    0    0    0  0.00000000000E+00  0.00000000000E+00  0.14999999963E+04  0.15000000000E+04  0.10566000000E+00 0. -1.
        994   -1    0    0    0    0 -0.00000000000E+00 -0.00000000000E+00  0.11368683772E-12  0.17120000000E+03  0.17120000000E+03 0.  0.
         13    1    1    2    0    0 -0.11039854671E+02 -0.46835723699E+01  0.43604384322E+02  0.45223530793E+02  0.10566000000E+00 0. -1.
        994    1    1    2    0    0  0.14137595884E+02  0.19999950607E+01  0.22686695439E+01  0.17180936662E+03  0.17120000000E+03 0.  0.
        998    1    1    2    0    0 -0.30977412133E+01  0.26835773092E+01  0.14541269424E+04  0.14541671026E+04  0.10000000000E+02 0. -1.
</event>
<event>
 5    1  0.1719550E-008  0.3859996E+03  0.7957747E-01  0.3425444E+00
         13   -1    0    0    0    0  0.00000000000E+00  0.00000000000E+00  0.14999999963E+04  0.15000000000E+04  0.10566000000E+00 0.  1.
        994   -1    0    0    0    0 -0.00000000000E+00 -0.00000000000E+00  0.11368683772E-12  0.17120000000E+03  0.17120000000E+03 0.  0.
         13    1    1    2    0    0  0.10230545277E+02  0.57117865845E+01  0.61406692497E+02  0.62514651164E+02  0.10566000000E+00 0.  1.
        994    1    1    2    0    0 -0.65458210317E+01 -0.34392835775E+01  0.13139107162E+01  0.17136464865E+03  0.17120000000E+03 0.  0.
        998    1    1    2    0    0 -0.36847242451E+01 -0.22725030070E+01  0.14372793931E+04  0.14373207002E+04  0.10000000000E+02 0.  0.
</event>
<event>
 5    1  0.1535793E-008  0.3821092E+03  0.7957747E-01  0.3442026E+00
         13   -1    0    0    0    0  0.00000000000E+00  0.00000000000E+00  0.14999999963E+04  0.15000000000E+04  0.10566000000E+00 0. -1.
        994   -1    0    0    0    0 -0.00000000000E+00 -0.00000000000E+00  0.11368683772E-12  0.17120000000E+03  0.17120000000E+03 0.  0.
         13    1    1    2    0    0  0.22775997822E+02  0.19490500678E+02  0.19376314658E+02  0.35694235210E+02  0.10566000000E+00 0. -1.
        994    1    1    2    0    0 -0.11874708340E+02  0.99951938235E+01  0.18370999251E+02  0.17288101750E+03  0.17120000000E+03 0.  0.
        998    1    1    2    0    0 -0.10901289481E+02 -0.29485694502E+02  0.14622526824E+04  0.14626247473E+04  0.10000000000E+02 0. -1.
</event>
<event>
 5    1  0.1535793E-008  0.3699783E+03  0.7957747E-01  0.3495991E+00
         13   -1    0    0    0    0  0.00000000000E+00  0.00000000000E+00  0.14999999963E+04  0.15000000000E+04  0.10566000000E+00 0.  1.
        994   -1    0    0    0    0 -0.00000000000E+00 -0.00000000000E+00  0.11368683772E-12  0.17120000000E+03  0.17120000000E+03 0.  0.
         13    1    1    2    0    0  0.26567137962E+02 -0.54301056119E+02  0.16941143956E+03  0.17987402407E+03  0.10566000000E+00 0.  1.
        994    1    1    2    0    0 -0.22402147594E+02  0.60610284921E+02  0.23860596654E+02  0.18453788480E+03  0.17120000000E+03 0.  0.
        998    1    1    2    0    0 -0.41649903685E+01 -0.63092288025E+01  0.13067279601E+04  0.13067880911E+04  0.10000000000E+02 0.  1.
</event>
<event>
 5    1  0.1535793E-008  0.3885102E+03  0.7957747E-01  0.3414920E+00
         13   -1    0    0    0    0  0.00000000000E+00  0.00000000000E+00  0.14999999963E+04  0.15000000000E+04  0.10566000000E+00 0. -1.
        994   -1    0    0    0    0 -0.00000000000E+00 -0.00000000000E+00  0.11368683772E-12  0.17120000000E+03  0.17120000000E+03 0.  0.
         13    1    1    2    0    0  0.11431739907E+02 -0.79382312633E+02  0.18710092576E+03  0.20356572359E+03  0.10566000000E+00 0. -1.
        994    1    1    2    0    0 -0.39367792422E+01 -0.13563791253E+02  0.21829513941E+02  0.17316305132E+03  0.17120000000E+03 0.  0.
        998    1    1    2    0    0 -0.74949606648E+01  0.92946103886E+02  0.12910695566E+04  0.12944712251E+04  0.10000000000E+02 0. -1.
</event>
<event>
 5    1  0.1535793E-008  0.3803311E+03  0.7957747E-01  0.3449718E+00
         13   -1    0    0    0    0  0.00000000000E+00  0.00000000000E+00  0.14999999963E+04  0.15000000000E+04  0.10566000000E+00 0.  1.
        994   -1    0    0    0    0 -0.00000000000E+00 -0.00000000000E+00  0.11368683772E-12  0.17120000000E+03  0.17120000000E+03 0.  0.
         13    1    1    2    0    0 -0.40244890116E+02 -0.17873955852E+02  0.22034099465E+03  0.22469823000E+03  0.10566000000E+00 0.  1.
        994    1    1    2    0    0  0.31768629742E+02  0.21908735515E+02  0.89551068382E+01  0.17572385287E+03  0.17120000000E+03 0.  0.
        998    1    1    2    0    0  0.84762603739E+01 -0.40347796629E+01  0.12707038948E+04  0.12707779171E+04  0.10000000000E+02 0. -1.
</event>
<event>
 5    1  0.1535793E-008  0.3827986E+03  0.7957747E-01  0.3439063E+00
         13   -1    0    0    0    0  0.00000000000E+00  0.00000000000E+00  0.14999999963E+04  0.15000000000E+04  0.10566000000E+00 0. -1.
        994   -1    0    0    0    0 -0.00000000000E+00 -0.00000000000E+00  0.11368683772E-12  0.17120000000E+03  0.17120000000E+03 0.  0.
         13    1    1    2    0    0  0.32621946151E+02 -0.35074604909E+01  0.17729297774E+03  0.18030336872E+03  0.10566000000E+00 0. -1.
        994    1    1    2    0    0 -0.31993808157E+02 -0.85348249788E-01  0.61249452187E+01  0.17427152951E+03  0.17120000000E+03 0.  0.
        998    1    1    2    0    0 -0.62813799368E+00  0.35928087407E+01  0.13165820733E+04  0.13166251018E+04  0.10000000000E+02 0. -1.
</event>
<event>
 5    1  0.1535793E-008  0.3801142E+03  0.7957747E-01  0.3450661E+00
         13   -1    0    0    0    0  0.00000000000E+00  0.00000000000E+00  0.14999999963E+04  0.15000000000E+04  0.10566000000E+00 0.  1.
        994   -1    0    0    0    0 -0.00000000000E+00 -0.00000000000E+00  0.11368683772E-12  0.17120000000E+03  0.17120000000E+03 0.  0.
         13    1    1    2    0    0 -0.14999103836E+02 -0.45037537414E+02  0.28692858016E+03  0.29082877122E+03  0.10566000000E+00 0.  1.
        994    1    1    2    0    0 -0.14324566039E+02  0.29572001551E+02  0.76918803369E+01  0.17449441679E+03  0.17120000000E+03 0.  0.
        998    1    1    2    0    0  0.29323669875E+02  0.15465535863E+02  0.12053795358E+04  0.12058768120E+04  0.10000000000E+02 0.  1.
</event>
<event>
 5    1  0.1535793E-008  0.3837021E+03  0.7957747E-01  0.3435195E+00
         13   -1    0    0    0    0  0.00000000000E+00  0.00000000000E+00  0.14999999963E+04  0.15000000000E+04  0.10566000000E+00 0. -1.
        994   -1    0    0    0    0 -0.00000000000E+00 -0.00000000000E+00  0.11368683772E-12  0.17120000000E+03  0.17120000000E+03 0.  0.
         13    1    1    2    0    0 -0.68273668797E+02  0.74111988815E+02  0.20133187568E+03  0.22514088049E+03  0.10566000000E+00 0. -1.
        994    1    1    2    0    0  0.90134760298E+02 -0.96033825304E+02  0.85265818948E+02  0.23222073658E+03  0.17120000000E+03 0.  0.
        998    1    1    2    0    0 -0.21861091501E+02  0.21921836490E+02  0.12134023016E+04  0.12138383829E+04  0.10000000000E+02 0. -1.
</event>
<event>
 5    1  0.1535793E-008  0.3786601E+03  0.7957747E-01  0.3457014E+00
         13   -1    0    0    0    0  0.00000000000E+00  0.00000000000E+00  0.14999999963E+04  0.15000000000E+04  0.10566000000E+00 0.  1.
        994   -1    0    0    0    0 -0.00000000000E+00 -0.00000000000E+00  0.11368683772E-12  0.17120000000E+03  0.17120000000E+03 0.  0.
         13    1    1    2    0    0  0.12418415985E+02 -0.13865010878E+02  0.34270684214E+02  0.38999314645E+02  0.10566000000E+00 0.  1.
        994    1    1    2    0    0 -0.10543835439E+02  0.50669647414E+01  0.52706940795E+01  0.17168012935E+03  0.17120000000E+03 0.  0.
        998    1    1    2    0    0 -0.18745805456E+01  0.87980461367E+01  0.14604586180E+04  0.14605205560E+04  0.10000000000E+02 0.  1.
</event>
<event>
 5    1  0.1535793E-008  0.3716418E+03  0.7957747E-01  0.3488379E+00
         13   -1    0    0    0    0  0.00000000000E+00  0.00000000000E+00  0.14999999963E+04  0.15000000000E+04  0.10566000000E+00 0.  1.
        994   -1    0    0    0    0 -0.00000000000E+00 -0.00000000000E+00  0.11368683772E-12  0.17120000000E+03  0.17120000000E+03 0.  0.
         13    1    1    2    0    0 -0.92408052418E+02  0.21561334129E+02  0.47281601471E+03  0.48224385347E+03  0.10566000000E+00 0.  1.
        994    1    1    2    0    0  0.66745204832E+02 -0.12418285144E+02  0.24431024202E+02  0.18578334456E+03  0.17120000000E+03 0.  0.
        998    1    1    2    0    0  0.25662847585E+02 -0.91430489855E+01  0.10027529574E+04  0.10031728020E+04  0.10000000000E+02 0. -1.
</event>
<event>
 5    1  0.1535793E-008  0.3695053E+03  0.7957747E-01  0.3498168E+00
         13   -1    0    0    0    0  0.00000000000E+00  0.00000000000E+00  0.14999999963E+04  0.15000000000E+04  0.10566000000E+00 0. -1.
        994   -1    0    0    0    0 -0.00000000000E+00 -0.00000000000E+00  0.11368683772E-12  0.17120000000E+03  0.17120000000E+03 0.  0.
         13    1    1    2    0    0  0.86716739685E+02 -0.33790448967E+02  0.40895645445E+03  0.41941266097E+03  0.10566000000E+00 0. -1.
        994    1    1    2    0    0 -0.51609899254E+02  0.54330575469E+02  0.29237084054E+02  0.18915506923E+03  0.17120000000E+03 0.  0.
        998    1    1    2    0    0 -0.35106840432E+02 -0.20540126503E+02  0.10618064578E+04  0.10626322698E+04  0.10000000000E+02 0.  1.
</event>
<event>
 5    1  0.1703819E-008  0.3851684E+03  0.7957747E-01  0.3428958E+00
         13   -1    0    0    0    0  0.00000000000E+00  0.00000000000E+00  0.14999999963E+04  0.15000000000E+04  0.10566000000E+00 0.  1.
        994   -1    0    0    0    0 -0.00000000000E+00 -0.00000000000E+00  0.11368683772E-12  0.17120000000E+03  0.17120000000E+03 0.  0.
         13    1    1    2    0    0  0.27711746232E+01 -0.12570594749E+02  0.51019543291E+02  0.52618477960E+02  0.10566000000E+00 0.  1.
        994    1    1    2    0    0 -0.19317456000E+01  0.17278888215E+02  0.25407568058E+01  0.17209935231E+03  0.17120000000E+03 0.  0.
        998    1    1    2    0    0 -0.83942902323E+00 -0.47082934655E+01  0.14464396962E+04  0.14464821697E+04  0.10000000000E+02 0.  1.
</event>
<event>
 5    1  0.1535793E-008  0.3779380E+03  0.7957747E-01  0.3460186E+00
         13   -1    0    0    0    0  0.00000000000E+00  0.00000000000E+00  0.14999999963E+04  0.15000000000E+04  0.10566000000E+00 0.  1.
        994   -1    0    0    0    0 -0.00000000000E+00 -0.00000000000E+00  0.11368683772E-12  0.17120000000E+03  0.17120000000E+03 0.  0.
         13    1    1    2    0    0  0.39746334291E+01  0.47652446374E+02  0.28366399418E+03  0.28766617131E+03  0.10566000000E+00 0.  1.
        994    1    1    2    0    0 -0.62266191953E+01  0.32886807482E+01  0.53445703940E+01  0.17142809175E+03  0.17120000000E+03 0.  0.
        998    1    1    2    0    0  0.22519857662E+01 -0.50941127122E+02  0.12109914317E+04  0.12121057369E+04  0.10000000000E+02 0.  1.
</event>
<event>
 5    1  0.1535793E-008  0.3842513E+03  0.7957747E-01  0.3432854E+00
         13   -1    0    0    0    0  0.00000000000E+00  0.00000000000E+00  0.14999999963E+04  0.15000000000E+04  0.10566000000E+00 0.  1.
        994   -1    0    0    0    0 -0.00000000000E+00 -0.00000000000E+00  0.11368683772E-12  0.17120000000E+03  0.17120000000E+03 0.  0.
         13    1    1    2    0    0  0.12423893535E+02 -0.43006757446E+01  0.43001452400E+02  0.44966487688E+02  0.10566000000E+00 0.  1.
        994    1    1    2    0    0 -0.85483270429E+01 -0.14686902584E+01  0.22503497108E+01  0.17143434609E+03  0.17120000000E+03 0.  0.
        998    1    1    2    0    0 -0.38755664917E+01  0.57693660030E+01  0.14547481942E+04  0.14547991662E+04  0.10000000000E+02 0.  1.
</event>
<event>
 5    1  0.1535793E-008  0.3842194E+03  0.7957747E-01  0.3432990E+00
         13   -1    0    0    0    0  0.00000000000E+00  0.00000000000E+00  0.14999999963E+04  0.15000000000E+04  0.10566000000E+00 0.  1.
        994   -1    0    0    0    0 -0.00000000000E+00 -0.00000000000E+00  0.11368683772E-12  0.17120000000E+03  0.17120000000E+03 0.  0.
         13    1    1    2    0    0  0.18200656100E+02  0.21377017683E+02  0.15977321661E+02  0.32303664482E+02  0.10566000000E+00 0.  1.
        994    1    1    2    0    0  0.43042349326E+02  0.41462057142E+02  0.31931101627E+02  0.18412164802E+03  0.17120000000E+03 0.  0.
        998    1    1    2    0    0 -0.61243005426E+02 -0.62839074825E+02  0.14520915730E+04  0.14547746875E+04  0.10000000000E+02 0.  1.
</event>
<event>
 5    1  0.1535793E-008  0.3834220E+03  0.7957747E-01  0.3436392E+00
         13   -1    0    0    0    0  0.00000000000E+00  0.00000000000E+00  0.14999999963E+04  0.15000000000E+04  0.10566000000E+00 0. -1.
        994   -1    0    0    0    0 -0.00000000000E+00 -0.00000000000E+00  0.11368683772E-12  0.17120000000E+03  0.17120000000E+03 0.  0.
         13    1    1    2    0    0  0.17925236037E+02  0.10315840531E+02  0.90660597614E+02  0.92989707907E+02  0.10566000000E+00 0. -1.
        994    1    1    2    0    0 -0.11390467834E+01 -0.14621851558E+02  0.31269408866E+01  0.17185550247E+03  0.17120000000E+03 0.  0.
        998    1    1    2    0    0 -0.16786189253E+02  0.43060110272E+01  0.14062124578E+04  0.14063547896E+04  0.10000000000E+02 0. -1.
</event>
<event>
 5    1  0.1535793E-008  0.3842405E+03  0.7957747E-01  0.3432900E+00
         13   -1    0    0    0    0  0.00000000000E+00  0.00000000000E+00  0.14999999963E+04  0.15000000000E+04  0.10566000000E+00 0.  1.
        994   -1    0    0    0    0 -0.00000000000E+00 -0.00000000000E+00  0.11368683772E-12  0.17120000000E+03  0.17120000000E+03 0.  0.
         13    1    1    2    0    0 -0.15677523170E+02  0.13355662989E+02  0.10825590806E+03  0.11019760098E+03  0.10566000000E+00 0.  1.
        994    1    1    2    0    0  0.69911306121E+01 -0.59694627711E+01  0.22863404360E+01  0.17146188424E+03  0.17120000000E+03 0.  0.
        998    1    1    2    0    0  0.86863925579E+01 -0.73862002183E+01  0.13894577478E+04  0.13895405148E+04  0.10000000000E+02 0.  1.
</event>
<event>
 5    1  0.1535793E-008  0.3857428E+03  0.7957747E-01  0.3426528E+00
         13   -1    0    0    0    0  0.00000000000E+00  0.00000000000E+00  0.14999999963E+04  0.15000000000E+04  0.10566000000E+00 0.  1.
        994   -1    0    0    0    0 -0.00000000000E+00 -0.00000000000E+00  0.11368683772E-12  0.17120000000E+03  0.17120000000E+03 0.  0.
         13    1    1    2    0    0  0.41981707024E+00 -0.21371299299E+02  0.12817311248E+03  0.12994332074E+03  0.10566000000E+00 0.  1.
        994    1    1    2    0    0 -0.46120073925E+02  0.54062234073E+02  0.18007719852E+02  0.18623507818E+03  0.17120000000E+03 0.  0.
        998    1    1    2    0    0  0.45700256855E+02 -0.32690934775E+02  0.13538191640E+04  0.13550216011E+04  0.10000000000E+02 0.  1.
</event>
<event>
 5    1  0.1535793E-008  0.3862725E+03  0.7957747E-01  0.3424293E+00
         13   -1    0    0    0    0  0.00000000000E+00  0.00000000000E+00  0.14999999963E+04  0.15000000000E+04  0.10566000000E+00 0. -1.
        994   -1    0    0    0    0 -0.00000000000E+00 -0.00000000000E+00  0.11368683772E-12  0.17120000000E+03  0.17120000000E+03 0.  0.
         13    1    1    2    0    0 -0.53317561741E+02 -0.49185937965E+00  0.62876023295E+02  0.82440340763E+02  0.10566000000E+00 0. -1.
        994    1    1    2    0    0  0.49359751228E+02  0.11133370709E+01  0.28913247716E+02  0.18050772962E+03  0.17120000000E+03 0.  0.
        998    1    1    2    0    0  0.39578105137E+01 -0.62147769125E+00  0.14082107253E+04  0.14082519296E+04  0.10000000000E+02 0. -1.
</event>
<event>
 5    1  0.1535793E-008  0.3728838E+03  0.7957747E-01  0.3482742E+00
         13   -1    0    0    0    0  0.00000000000E+00  0.00000000000E+00  0.14999999963E+04  0.15000000000E+04  0.10566000000E+00 0. -1.
        994   -1    0    0    0    0 -0.00000000000E+00 -0.00000000000E+00  0.11368683772E-12  0.17120000000E+03  0.17120000000E+03 0.  0.
         13    1    1    2    0    0 -0.35351864563E+02  0.11465308878E+03  0.58881844977E+03  0.60091785050E+03  0.10566000000E+00 0. -1.
        994    1    1    2    0    0  0.23185517624E+02 -0.11109651403E+03  0.53239674177E+02  0.21218837518E+03  0.17120000000E+03 0.  0.
        998    1    1    2    0    0  0.12166346939E+02 -0.35565747510E+01  0.85794187233E+03  0.85809377432E+03  0.10000000000E+02 0.  1.
</event>
<event>
 5    1  0.1535793E-008  0.3840755E+03  0.7957747E-01  0.3433603E+00
         13   -1    0    0    0    0  0.00000000000E+00  0.00000000000E+00  0.14999999963E+04  0.15000000000E+04  0.10566000000E+00 0.  1.
        994   -1    0    0    0    0 -0.00000000000E+00 -0.00000000000E+00  0.11368683772E-12  0.17120000000E+03  0.17120000000E+03 0.  0.
         13    1    1    2    0    0 -0.14013393320E+02  0.50741023622E+01  0.50082211986E+02  0.52252854741E+02  0.10566000000E+00 0.  1.
        994    1    1    2    0    0  0.20408268160E+02 -0.29545875412E+01  0.34937137128E+01  0.17247281824E+03  0.17120000000E+03 0.  0.
        998    1    1    2    0    0 -0.63948748398E+01 -0.21195148210E+01  0.14464240706E+04  0.14464743270E+04  0.10000000000E+02 0.  1.
</event>
<event>
 5    1  0.1535793E-008  0.3743460E+03  0.7957747E-01  0.3476153E+00
         13   -1    0    0    0    0  0.00000000000E+00  0.00000000000E+00  0.14999999963E+04  0.15000000000E+04  0.10566000000E+00 0.  1.
        994   -1    0    0    0    0 -0.00000000000E+00 -0.00000000000E+00  0.11368683772E-12  0.17120000000E+03  0.17120000000E+03 0.  0.
         13    1    1    2    0    0 -0.15911327578E+02  0.67165562067E+00  0.15472155132E+02  0.22204058526E+02  0.10566000000E+00 0.  1.
        994    1    1    2    0    0 -0.16083868474E+01  0.62061958517E+01  0.71549741645E+01  0.17146934837E+03  0.17120000000E+03 0.  0.
        998    1    1    2    0    0  0.17519714425E+02 -0.68778514723E+01  0.14773728670E+04  0.14775265931E+04  0.10000000000E+02 0.  1.
</event>
<event>
 5    1  0.1535793E-008  0.3861340E+03  0.7957747E-01  0.3424877E+00
         13   -1    0    0    0    0  0.00000000000E+00  0.00000000000E+00  0.14999999963E+04  0.15000000000E+04  0.10566000000E+00 0.  1.
        994   -1    0    0    0    0 -0.00000000000E+00 -0.00000000000E+00  0.11368683772E-12  0.17120000000E+03  0.17120000000E+03 0.  0.
         13    1    1    2    0    0 -0.56097814441E+01  0.84423651903E+01  0.49289390766E+02  0.50320953727E+02  0.10566000000E+00 0.  1.
        994    1    1    2    0    0  0.88798768491E+01 -0.51845403873E+00  0.13274662814E+01  0.17143606148E+03  0.17120000000E+03 0.  0.
        998    1    1    2    0    0 -0.32700954050E+01 -0.79239111516E+01  0.14493831392E+04  0.14494429848E+04  0.10000000000E+02 0.  1.
</event>
<event>
 5    1  0.1535793E-008  0.2963587E+03  0.7957747E-01  0.3922362E+00
         13   -1    0    0    0    0  0.00000000000E+00  0.00000000000E+00  0.14999999963E+04  0.15000000000E+04  0.10566000000E+00 0.  1.
        994   -1    0    0    0    0 -0.00000000000E+00 -0.00000000000E+00  0.11368683772E-12  0.17120000000E+03  0.17120000000E+03 0.  0.
         13    1    1    2    0    0 -0.49281497134E+02 -0.16935747576E+03  0.64051492148E+03  0.66435682908E+03  0.10566000000E+00 0.  1.
        994    1    1    2    0    0  0.51998591579E+02  0.15916432547E+03  0.12116396261E+03  0.26837898924E+03  0.17120000000E+03 0.  0.
        998    1    1    2    0    0 -0.27170944445E+01  0.10193150286E+02  0.73832111219E+03  0.73846418168E+03  0.10000000000E+02 0.  1.
</event>
<event>
 5    1  0.1535793E-008  0.3755732E+03  0.7957747E-01  0.3470663E+00
         13   -1    0    0    0    0  0.00000000000E+00  0.00000000000E+00  0.14999999963E+04  0.15000000000E+04  0.10566000000E+00 0.  1.
        994   -1    0    0    0    0 -0.00000000000E+00 -0.00000000000E+00  0.11368683772E-12  0.17120000000E+03  0.17120000000E+03 0.  0.
         13    1    1    2    0    0  0.27854832868E+02 -0.59103336564E+00  0.57288674400E+02  0.63704351603E+02  0.10566000000E+00 0.  1.
        994    1    1    2    0    0 -0.24112856140E+02 -0.29641856190E+02  0.11354225267E+02  0.17577948658E+03  0.17120000000E+03 0.  0.
        998    1    1    2    0    0 -0.37419767283E+01  0.30232889555E+02  0.14313570966E+04  0.14317161618E+04  0.10000000000E+02 0.  1.
</event>
<event>
 5    1  0.1535793E-008  0.3848443E+03  0.7957747E-01  0.3430333E+00
         13   -1    0    0    0    0  0.00000000000E+00  0.00000000000E+00  0.14999999963E+04  0.15000000000E+04  0.10566000000E+00 0. -1.
        994   -1    0    0    0    0 -0.00000000000E+00 -0.00000000000E+00  0.11368683772E-12  0.17120000000E+03  0.17120000000E+03 0.  0.
         13    1    1    2    0    0  0.15067995165E+02 -0.59662491449E+01  0.75899302504E+02  0.77610282127E+02  0.10566000000E+00 0. -1.
        994    1    1    2    0    0 -0.14694005845E+02 -0.30704364038E+01  0.24492296055E+01  0.17187431487E+03  0.17120000000E+03 0.  0.
        998    1    1    2    0    0 -0.37398931977E+00  0.90366855487E+01  0.14216514642E+04  0.14217154030E+04  0.10000000000E+02 0. -1.
</event>
<event>
 5    1  0.1535793E-008  0.3819667E+03  0.7957747E-01  0.3442640E+00
         13   -1    0    0    0    0  0.00000000000E+00  0.00000000000E+00  0.14999999963E+04  0.15000000000E+04  0.10566000000E+00 0.  1.
        994   -1    0    0    0    0 -0.00000000000E+00 -0.00000000000E+00  0.11368683772E-12  0.17120000000E+03  0.17120000000E+03 0.  0.
         13    1    1    2    0    0 -0.38579163769E+01  0.14971753925E+02  0.37669784949E+02  0.40719292682E+02  0.10566000000E+00 0.  1.
        994    1    1    2    0    0  0.35305692127E+01 -0.40563881038E+01  0.32397103199E+01  0.17131507501E+03  0.17120000000E+03 0.  0.
        998    1    1    2    0    0  0.32734716418E+00 -0.10915365821E+02  0.14590905010E+04  0.14591656323E+04  0.10000000000E+02 0.  1.
</event>
<event>
 5    1  0.1535793E-008  0.3824035E+03  0.7957747E-01  0.3440759E+00
         13   -1    0    0    0    0  0.00000000000E+00  0.00000000000E+00  0.14999999963E+04  0.15000000000E+04  0.10566000000E+00 0.  1.
        994   -1    0    0    0    0 -0.00000000000E+00 -0.00000000000E+00  0.11368683772E-12  0.17120000000E+03  0.17120000000E+03 0.  0.
         13    1    1    2    0    0  0.90513165353E+01  0.32480947492E+02  0.18662621539E+03  0.18964781496E+03  0.10566000000E+00 0.  1.
        994    1    1    2    0    0  0.66854132476E+00 -0.25208094958E+02  0.50366139000E+01  0.17312048544E+03  0.17120000000E+03 0.  0.
        998    1    1    2    0    0 -0.97198578600E+01 -0.72728525346E+01  0.13083371670E+04  0.13084316996E+04  0.10000000000E+02 0.  1.
</event>
<event>
 5    1  0.1535793E-008  0.3860734E+03  0.7957747E-01  0.3425132E+00
         13   -1    0    0    0    0  0.00000000000E+00  0.00000000000E+00  0.14999999963E+04  0.15000000000E+04  0.10566000000E+00 0. -1.
        994   -1    0    0    0    0 -0.00000000000E+00 -0.00000000000E+00  0.11368683772E-12  0.17120000000E+03  0.17120000000E+03 0.  0.
         13    1    1    2    0    0  0.11257724777E+02 -0.48707168210E-01  0.58739039919E+02  0.59808232830E+02  0.10566000000E+00 0. -1.
        994    1    1    2    0    0 -0.69492536264E+01 -0.50689647236E+01  0.13406411670E+01  0.17142118845E+03  0.17120000000E+03 0.  0.
        998    1    1    2    0    0 -0.43084711506E+01  0.51176718918E+01  0.14399203152E+04  0.14399705787E+04  0.10000000000E+02 0. -1.
</event>
<event>
 5    1  0.1535793E-008  0.3856555E+03  0.7957747E-01  0.3426897E+00
         13   -1    0    0    0    0  0.00000000000E+00  0.00000000000E+00  0.14999999963E+04  0.15000000000E+04  0.10566000000E+00 0. -1.
        994   -1    0    0    0    0 -0.00000000000E+00 -0.00000000000E+00  0.11368683772E-12  0.17120000000E+03  0.17120000000E+03 0.  0.
         13    1    1    2    0    0 -0.10354316372E+02  0.52819221795E+01  0.53310026812E+02  0.54562630913E+02  0.10566000000E+00 0. -1.
        994    1    1    2    0    0  0.16574898431E+01 -0.61231377155E+01  0.14371174828E+01  0.17132351092E+03  0.17120000000E+03 0.  0.
        998    1    1    2    0    0  0.86968265285E+01  0.84121553603E+00  0.14452528520E+04  0.14453138582E+04  0.10000000000E+02 0. -1.
</event>
<event>
 5    1  0.1535793E-008  0.3855594E+03  0.7957747E-01  0.3427303E+00
         13   -1    0    0    0    0  0.00000000000E+00  0.00000000000E+00  0.14999999963E+04  0.15000000000E+04  0.10566000000E+00 0.  1.
        994   -1    0    0    0    0 -0.00000000000E+00 -0.00000000000E+00  0.11368683772E-12  0.17120000000E+03  0.17120000000E+03 0.  0.
         13    1    1    2    0    0  0.10734244173E+02 -0.18633280691E+00  0.43756306023E+02  0.45054236190E+02  0.10566000000E+00 0.  1.
        994    1    1    2    0    0 -0.34616794451E+01 -0.52578922519E+01  0.14827759742E+01  0.17132211556E+03  0.17120000000E+03 0.  0.
        998    1    1    2    0    0 -0.72725647279E+01  0.54442250588E+01  0.14547609143E+04  0.14548236482E+04  0.10000000000E+02 0.  1.
</event>
<event>
 5    1  0.1535793E-008  0.3840481E+03  0.7957747E-01  0.3433719E+00
         13   -1    0    0    0    0  0.00000000000E+00  0.00000000000E+00  0.14999999963E+04  0.15000000000E+04  0.10566000000E+00 0.  1.
        994   -1    0    0    0    0 -0.00000000000E+00 -0.00000000000E+00  0.11368683772E-12  0.17120000000E+03  0.17120000000E+03 0.  0.
         13    1    1    2    0    0  0.85454568128E+01 -0.11714982609E+02  0.48951240994E+02  0.51053901012E+02  0.10566000000E+00 0.  1.
        994    1    1    2    0    0 -0.76690579758E+01  0.92707260252E+01  0.25811736469E+01  0.17164167113E+03  0.17120000000E+03 0.  0.
        998    1    1    2    0    0 -0.87639883695E+00  0.24442565837E+01  0.14484675816E+04  0.14485044279E+04  0.10000000000E+02 0.  1.
</event>
<event>
 5    1  0.1535793E-008  0.3757383E+03  0.7957747E-01  0.3469927E+00
         13   -1    0    0    0    0  0.00000000000E+00  0.00000000000E+00  0.14999999963E+04  0.15000000000E+04  0.10566000000E+00 0. -1.
        994   -1    0    0    0    0 -0.00000000000E+00 -0.00000000000E+00  0.11368683772E-12  0.17120000000E+03  0.17120000000E+03 0.  0.
         13    1    1    2    0    0 -0.30261437072E+02 -0.66914644414E+02  0.24533713769E+03  0.25609304267E+03  0.10566000000E+00 0. -1.
        994    1    1    2    0    0  0.13575967872E+02 -0.14473577489E+02  0.15411945760E+02  0.17303398343E+03  0.17120000000E+03 0.  0.
        998    1    1    2    0    0  0.16685469200E+02  0.81388221903E+02  0.12392509128E+04  0.12420729739E+04  0.10000000000E+02 0. -1.
</event>
<event>
 5    1  0.1535793E-008  0.3780474E+03  0.7957747E-01  0.3459705E+00
         13   -1    0    0    0    0  0.00000000000E+00  0.00000000000E+00  0.14999999963E+04  0.15000000000E+04  0.10566000000E+00 0. -1.
        994   -1    0    0    0    0 -0.00000000000E+00 -0.00000000000E+00  0.11368683772E-12  0.17120000000E+03  0.17120000000E+03 0.  0.
         13    1    1    2    0    0 -0.12725148719E+02  0.63575382051E+01  0.17173688025E+02  0.22300099245E+02  0.10566000000E+00 0. -1.
        994    1    1    2    0    0  0.16356344152E+02 -0.93226065374E+01  0.63155204211E+01  0.17234780760E+03  0.17120000000E+03 0.  0.
        998    1    1    2    0    0 -0.36311954331E+01  0.29650683323E+01  0.14765107878E+04  0.14765520932E+04  0.10000000000E+02 0. -1.
</event>
<event>
 5    1  0.1535793E-008  0.3355570E+03  0.7957747E-01  0.3670889E+00
         13   -1    0    0    0    0  0.00000000000E+00  0.00000000000E+00  0.14999999963E+04  0.15000000000E+04  0.10566000000E+00 0.  1.
        994   -1    0    0    0    0 -0.00000000000E+00 -0.00000000000E+00  0.11368683772E-12  0.17120000000E+03  0.17120000000E+03 0.  0.
         13    1    1    2    0    0  0.19706212217E+03 -0.11122828358E+02  0.98989991411E+03  0.10093854806E+04  0.10566000000E+00 0.  1.
        994    1    1    2    0    0 -0.14748760849E+03 -0.13328477236E+02  0.99288017087E+02  0.24717967817E+03  0.17120000000E+03 0.  0.
        998    1    1    2    0    0 -0.49574513680E+02  0.24451305594E+02  0.41081206508E+03  0.41463484124E+03  0.10000000000E+02 0. -1.
</event>
<event>
 5    1  0.1535793E-008  0.3803758E+03  0.7957747E-01  0.3449524E+00
         13   -1    0    0    0    0  0.00000000000E+00  0.00000000000E+00  0.14999999963E+04  0.15000000000E+04  0.10566000000E+00 0.  1.
        994   -1    0    0    0    0 -0.00000000000E+00 -0.00000000000E+00  0.11368683772E-12  0.17120000000E+03  0.17120000000E+03 0.  0.
         13    1    1    2    0    0  0.93347627010E+01  0.15469065542E+02  0.38713547654E+02  0.42722122131E+02  0.10566000000E+00 0.  1.
        994    1    1    2    0    0 -0.17854573674E+02 -0.13449238566E+02  0.56136312753E+01  0.17274437958E+03  0.17120000000E+03 0.  0.
        998    1    1    2    0    0  0.85198109733E+01 -0.20198269757E+01  0.14556728173E+04  0.14557334983E+04  0.10000000000E+02 0.  1.
</event>
<event>
 5    1  0.1535793E-008  0.3834813E+03  0.7957747E-01  0.3436139E+00
         13   -1    0    0    0    0  0.00000000000E+00  0.00000000000E+00  0.14999999963E+04  0.15000000000E+04  0.10566000000E+00 0.  1.
        994   -1    0    0    0    0 -0.00000000000E+00 -0.00000000000E+00  0.11368683772E-12  0.17120000000E+03  0.17120000000E+03 0.  0.
         13    1    1    2    0    0 -0.25820938195E+01  0.14361486625E+02  0.47017093150E+02  0.49229439555E+02  0.10566000000E+00 0.  1.
        994    1    1    2    0    0 -0.41791208868E+01  0.41972327495E+01  0.25019892173E+01  0.17132069859E+03  0.17120000000E+03 0.  0.
        998    1    1    2    0    0  0.67612147064E+01 -0.18558719374E+02  0.14504809139E+04  0.14506498619E+04  0.10000000000E+02 0.  1.
</event>
<event>
 5    1  0.1535793E-008  0.3777822E+03  0.7957747E-01  0.3460872E+00
         13   -1    0    0    0    0  0.00000000000E+00  0.00000000000E+00  0.14999999963E+04  0.15000000000E+04  0.10566000000E+00 0. -1.
        994   -1    0    0    0    0 -0.00000000000E+00 -0.00000000000E+00  0.11368683772E-12  0.17120000000E+03  0.17120000000E+03 0.  0.
         13    1    1    2    0    0  0.20851113043E+01 -0.33167483546E+02  0.97447348569E+02  0.10295837295E+03  0.10566000000E+00 0. -1.
        994    1    1    2    0    0  0.31342155926E+01  0.33021814632E+02  0.89710655068E+01  0.17461438533E+03  0.17120000000E+03 0.  0.
        998    1    1    2    0    0 -0.52193268970E+01  0.14566891413E+00  0.13935815822E+04  0.13936272417E+04  0.10000000000E+02 0. -1.
</event>
<event>
 5    1  0.1535793E-008  0.3284804E+03  0.7957747E-01  0.3711574E+00
         13   -1    0    0    0    0  0.00000000000E+00  0.00000000000E+00  0.14999999963E+04  0.15000000000E+04  0.10566000000E+00 0.  1.
        994   -1    0    0    0    0 -0.00000000000E+00 -0.00000000000E+00  0.11368683772E-12  0.17120000000E+03  0.17120000000E+03 0.  0.
         13    1    1    2    0    0  0.43115774364E+02  0.23933788418E+03  0.90292716865E+03  0.93510377812E+03  0.10566000000E+00 0.  1.
        994    1    1    2    0    0 -0.44394556397E+02 -0.16551091718E+03  0.15452390725E+03  0.28731832217E+03  0.17120000000E+03 0.  0.
        998    1    1    2    0    0  0.12787820322E+01 -0.73826967003E+02  0.44254892038E+03  0.44877789971E+03  0.10000000000E+02 0.  0.
</event>
<event>
 5    1  0.1535793E-008  0.3789435E+03  0.7957747E-01  0.3455772E+00
         13   -1    0    0    0    0  0.00000000000E+00  0.00000000000E+00  0.14999999963E+04  0.15000000000E+04  0.10566000000E+00 0. -1.
        994   -1    0    0    0    0 -0.00000000000E+00 -0.00000000000E+00  0.11368683772E-12  0.17120000000E+03  0.17120000000E+03 0.  0.
         13    1    1    2    0    0  0.49147536382E+02 -0.55825117157E+02  0.43203491640E+03  0.43839035595E+03  0.10566000000E+00 0. -1.
        994    1    1    2    0    0 -0.49059993212E+02  0.52747909830E+02  0.22277112512E+02  0.18706933118E+03  0.17120000000E+03 0.  0.
        998    1    1    2    0    0 -0.87543169918E-01  0.30772073266E+01  0.10456879674E+04  0.10457403129E+04  0.10000000000E+02 0. -1.
</event>
<event>
 5    1  0.1535793E-008  0.3856569E+03  0.7957747E-01  0.3426891E+00
         13   -1    0    0    0    0  0.00000000000E+00  0.00000000000E+00  0.14999999963E+04  0.15000000000E+04  0.10566000000E+00 0. -1.
        994   -1    0    0    0    0 -0.00000000000E+00 -0.00000000000E+00  0.11368683772E-12  0.17120000000E+03  0.17120000000E+03 0.  0.
         13    1    1    2    0    0 -0.11835529798E+02  0.15694398629E+01  0.58468571221E+02  0.59675186566E+02  0.10566000000E+00 0. -1.
        994    1    1    2    0    0 -0.17281425117E+01 -0.55322569903E+01  0.14145750286E+01  0.17130392105E+03  0.17120000000E+03 0.  0.
        998    1    1    2    0    0  0.13563672309E+02  0.39628171274E+01  0.14401168500E+04  0.14402208924E+04  0.10000000000E+02 0. -1.
</event>
<event>
 5    1  0.1535793E-008  0.3756153E+03  0.7957747E-01  0.3470475E+00
         13   -1    0    0    0    0  0.00000000000E+00  0.00000000000E+00  0.14999999963E+04  0.15000000000E+04  0.10566000000E+00 0.  1.
        994   -1    0    0    0    0 -0.00000000000E+00 -0.00000000000E+00  0.11368683772E-12  0.17120000000E+03  0.17120000000E+03 0.  0.
         13    1    1    2    0    0 -0.95458982892E+01 -0.76825316142E+01  0.91507745878E+01  0.15293570732E+02  0.10566000000E+00 0.  1.
        994    1    1    2    0    0  0.85743765242E+01 -0.14685101370E+02  0.73445985981E+01  0.17219917324E+03  0.17120000000E+03 0.  0.
        998    1    1    2    0    0  0.97152176499E+00  0.22367632984E+02  0.14835046231E+04  0.14837072560E+04  0.10000000000E+02 0.  1.
</event>
<event>
 5    1  0.1535793E-008  0.3687894E+03  0.7957747E-01  0.3501473E+00
         13   -1    0    0    0    0  0.00000000000E+00  0.00000000000E+00  0.14999999963E+04  0.15000000000E+04  0.10566000000E+00 0.  1.
        994   -1    0    0    0    0 -0.00000000000E+00 -0.00000000000E+00  0.11368683772E-12  0.17120000000E+03  0.17120000000E+03 0.  0.
         13    1    1    2    0    0  0.46346121135E+02 -0.51659164834E+02  0.19434369608E+03  0.20636403666E+03  0.10566000000E+00 0.  1.
        994    1    1    2    0    0 -0.49776845455E+02  0.57382204392E+02  0.30667367610E+02  0.18979035582E+03  0.17120000000E+03 0.  0.
        998    1    1    2    0    0  0.34307243204E+01 -0.57230395578E+01  0.12749889326E+04  0.12750456075E+04  0.10000000000E+02 0.  1.
</event>
<event>
 5    1  0.1535793E-008  0.3703342E+03  0.7957747E-01  0.3494357E+00
         13   -1    0    0    0    0  0.00000000000E+00  0.00000000000E+00  0.14999999963E+04  0.15000000000E+04  0.10566000000E+00 0.  1.
        994   -1    0    0    0    0 -0.00000000000E+00 -0.00000000000E+00  0.11368683772E-12  0.17120000000E+03  0.17120000000E+03 0.  0.
         13    1    1    2    0    0 -0.45481084028E+02  0.41675810816E+02  0.12037330032E+03  0.13525954608E+03  0.10566000000E+00 0.  1.
        994    1    1    2    0    0  0.58579506202E+02 -0.11683054976E+03  0.73544992764E+02  0.22759446800E+03  0.17120000000E+03 0.  0.
        998    1    1    2    0    0 -0.13098422174E+02  0.75154738946E+02  0.13060817032E+04  0.13083459859E+04  0.10000000000E+02 0.  1.
</event>
<event>
 5    1  0.1535793E-008  0.3824484E+03  0.7957747E-01  0.3440566E+00
         13   -1    0    0    0    0  0.00000000000E+00  0.00000000000E+00  0.14999999963E+04  0.15000000000E+04  0.10566000000E+00 0. -1.
        994   -1    0    0    0    0 -0.00000000000E+00 -0.00000000000E+00  0.11368683772E-12  0.17120000000E+03  0.17120000000E+03 0.  0.
         13    1    1    2    0    0 -0.22555713755E+02  0.48157393494E+01  0.92595633391E+02  0.95424913181E+02  0.10566000000E+00 0. -1.
        994    1    1    2    0    0  0.11719524561E+02  0.27049352307E+01  0.33821460218E+01  0.17165530240E+03  0.17120000000E+03 0.  0.
        998    1    1    2    0    0  0.10836189194E+02 -0.75206745801E+01  0.14040222169E+04  0.14041197844E+04  0.10000000000E+02 0. -1.
</event>
<event>
 5    1  0.1535793E-008  0.3855562E+03  0.7957747E-01  0.3427317E+00
         13   -1    0    0    0    0  0.00000000000E+00  0.00000000000E+00  0.14999999963E+04  0.15000000000E+04  0.10566000000E+00 0. -1.
        994   -1    0    0    0    0 -0.00000000000E+00 -0.00000000000E+00  0.11368683772E-12  0.17120000000E+03  0.17120000000E+03 0.  0.
         13    1    1    2    0    0 -0.98147548221E+01  0.78092514914E+01  0.53901613027E+02  0.55341746196E+02  0.10566000000E+00 0. -1.
        994    1    1    2    0    0  0.19771594903E+02 -0.93585389659E+01  0.29265891009E+01  0.17261663634E+03  0.17120000000E+03 0.  0.
        998    1    1    2    0    0 -0.99568400809E+01  0.15492874745E+01  0.14431717942E+04  0.14432416175E+04  0.10000000000E+02 0. -1.
</event>
<event>
 5    1  0.1535793E-008  0.3854201E+03  0.7957747E-01  0.3427893E+00
         13   -1    0    0    0    0  0.00000000000E+00  0.00000000000E+00  0.14999999963E+04  0.15000000000E+04  0.10566000000E+00 0.  1.
        994   -1    0    0    0    0 -0.00000000000E+00 -0.00000000000E+00  0.11368683772E-12  0.17120000000E+03  0.17120000000E+03 0.  0.
         13    1    1    2    0    0  0.47491971087E+01  0.15910793622E+02  0.94580524840E+02  0.96027053844E+02  0.10566000000E+00 0.  1.
        994    1    1    2    0    0 -0.89973440817E+00 -0.14618204953E+02  0.21265111214E+01  0.17183848081E+03  0.17120000000E+03 0.  0.
        998    1    1    2    0    0 -0.38494627005E+01 -0.12925886697E+01  0.14032929603E+04  0.14033344653E+04  0.10000000000E+02 0.  1.
</event>
<event>
 5    1  0.1535793E-008  0.3807320E+03  0.7957747E-01  0.3447977E+00
         13   -1    0    0    0    0  0.00000000000E+00  0.00000000000E+00  0.14999999963E+04  0.15000000000E+04  0.10566000000E+00 0. -1.
        994   -1    0    0    0    0 -0.00000000000E+00 -0.00000000000E+00  0.11368683772E-12  0.17120000000E+03  0.17120000000E+03 0.  0.
         13    1    1    2    0    0  0.22235065430E+03  0.81917916642E+02  0.11561385343E+04  0.11801723095E+04  0.10566000000E+00 0. -1.
        994    1    1    2    0    0 -0.22020689953E+03 -0.71256757721E+02  0.20996620086E+03  0.35631986982E+03  0.17120000000E+03 0.  0.
        998    1    1    2    0    0 -0.21437547733E+01 -0.10661158921E+02  0.13389526114E+03  0.13470782067E+03  0.10000000000E+02 0.  0.
</event>
<event>
 5    1  0.1535793E-008  0.3847303E+03  0.7957747E-01  0.3430817E+00
         13   -1    0    0    0    0  0.00000000000E+00  0.00000000000E+00  0.14999999963E+04  0.15000000000E+04  0.10566000000E+00 0. -1.
        994   -1    0    0    0    0 -0.00000000000E+00 -0.00000000000E+00  0.11368683772E-12  0.17120000000E+03  0.17120000000E+03 0.  0.
         13    1    1    2    0    0  0.35972898566E+01 -0.15030050380E+02  0.69888452575E+02  0.71576880878E+02  0.10566000000E+00 0. -1.
        994    1    1    2    0    0  0.57609459600E+01  0.64133668728E+01  0.20087777300E+01  0.17142868768E+03  0.17120000000E+03 0.  0.
        998    1    1    2    0    0 -0.93582358166E+01  0.86166835070E+01  0.14281027660E+04  0.14281944314E+04  0.10000000000E+02 0. -1.
</event>
<event>
 5    1  0.1535793E-008  0.3783161E+03  0.7957747E-01  0.3458523E+00
         13   -1    0    0    0    0  0.00000000000E+00  0.00000000000E+00  0.14999999963E+04  0.15000000000E+04  0.10566000000E+00 0. -1.
        994   -1    0    0    0    0 -0.00000000000E+00 -0.00000000000E+00  0.11368683772E-12  0.17120000000E+03  0.17120000000E+03 0.  0.
         13    1    1    2    0    0  0.11481037744E+02 -0.41533694780E+02  0.16329406254E+03  0.16888405506E+03  0.10566000000E+00 0. -1.
        994    1    1    2    0    0 -0.97576374533E+01  0.44541386613E+02  0.12006907073E+02  0.17757463903E+03  0.17120000000E+03 0.  0.
        998    1    1    2    0    0 -0.17234002905E+01 -0.30076918324E+01  0.13246990267E+04  0.13247413059E+04  0.10000000000E+02 0. -1.
</event>
<event>
 5    1  0.1535793E-008  0.3834598E+03  0.7957747E-01  0.3436231E+00
         13   -1    0    0    0    0  0.00000000000E+00  0.00000000000E+00  0.14999999963E+04  0.15000000000E+04  0.10566000000E+00 0.  1.
        994   -1    0    0    0    0 -0.00000000000E+00 -0.00000000000E+00  0.11368683772E-12  0.17120000000E+03  0.17120000000E+03 0.  0.
         13    1    1    2    0    0  0.28008323913E+01 -0.28792771393E+02  0.17084383285E+03  0.17327577654E+03  0.10566000000E+00 0.  1.
        994    1    1    2    0    0 -0.10597936712E+02  0.18428807371E+02  0.38918809902E+01  0.17255875504E+03  0.17120000000E+03 0.  0.
        998    1    1    2    0    0  0.77971043206E+01  0.10363964022E+02  0.13252642824E+04  0.13253654684E+04  0.10000000000E+02 0.  1.
</event>
<event>
 5    1  0.1535793E-008  0.3757894E+03  0.7957747E-01  0.3469700E+00
         13   -1    0    0    0    0  0.00000000000E+00  0.00000000000E+00  0.14999999963E+04  0.15000000000E+04  0.10566000000E+00 0. -1.
        994   -1    0    0    0    0 -0.00000000000E+00 -0.00000000000E+00  0.11368683772E-12  0.17120000000E+03  0.17120000000E+03 0.  0.
         13    1    1    2    0    0 -0.15282658121E+02 -0.15994008700E+01  0.16343423248E+02  0.22432930480E+02  0.10566000000E+00 0. -1.
        994    1    1    2    0    0  0.39176740308E+01  0.32495248479E+01  0.63617398485E+01  0.17139375518E+03  0.17120000000E+03 0.  0.
        998    1    1    2    0    0  0.11364984091E+02 -0.16501239779E+01  0.14772948332E+04  0.14773733143E+04  0.10000000000E+02 0. -1.
</event>
<event>
 5    1  0.1535793E-008  0.3755437E+03  0.7957747E-01  0.3470795E+00
         13   -1    0    0    0    0  0.00000000000E+00  0.00000000000E+00  0.14999999963E+04  0.15000000000E+04  0.10566000000E+00 0. -1.
        994   -1    0    0    0    0 -0.00000000000E+00 -0.00000000000E+00  0.11368683772E-12  0.17120000000E+03  0.17120000000E+03 0.  0.
         13    1    1    2    0    0  0.28315187221E+02  0.66765138206E+02  0.26765218214E+03  0.27730314689E+03  0.10566000000E+00 0. -1.
        994    1    1    2    0    0 -0.24269694667E+02 -0.10250462559E+03  0.45031668443E+02  0.20599395018E+03  0.17120000000E+03 0.  0.
        998    1    1    2    0    0 -0.40454925540E+01  0.35739487383E+02  0.11873161457E+04  0.11879029029E+04  0.10000000000E+02 0. -1.
</event>
<event>
 5    1  0.1535793E-008  0.3822238E+03  0.7957747E-01  0.3441532E+00
         13   -1    0    0    0    0  0.00000000000E+00  0.00000000000E+00  0.14999999963E+04  0.15000000000E+04  0.10566000000E+00 0.  1.
        994   -1    0    0    0    0 -0.00000000000E+00 -0.00000000000E+00  0.11368683772E-12  0.17120000000E+03  0.17120000000E+03 0.  0.
         13    1    1    2    0    0  0.94914672074E+01 -0.62110464778E+01  0.20251064794E+02  0.23211674593E+02  0.10566000000E+00 0.  1.
        994    1    1    2    0    0 -0.63246453257E+01  0.21599658066E+01  0.31630168091E+01  0.17135959636E+03  0.17120000000E+03 0.  0.
        998    1    1    2    0    0 -0.31668218816E+01  0.40510806712E+01  0.14765859147E+04  0.14766287290E+04  0.10000000000E+02 0.  1.
</event>
<event>
 5    1  0.1535793E-008  0.3844758E+03  0.7957747E-01  0.3431898E+00
         13   -1    0    0    0    0  0.00000000000E+00  0.00000000000E+00  0.14999999963E+04  0.15000000000E+04  0.10566000000E+00 0.  1.
        994   -1    0    0    0    0 -0.00000000000E+00 -0.00000000000E+00  0.11368683772E-12  0.17120000000E+03  0.17120000000E+03 0.  0.
         13    1    1    2    0    0  0.17102276434E+02  0.65647326818E+01  0.94031260286E+02  0.95799126559E+02  0.10566000000E+00 0.  1.
        994    1    1    2    0    0  0.58413332690E+01 -0.27584649818E+02  0.45140507947E+01  0.17356511958E+03  0.17120000000E+03 0.  0.
        998    1    1    2    0    0 -0.22943609703E+02  0.21019917136E+02  0.14014546852E+04  0.14018357539E+04  0.10000000000E+02 0.  1.
</event>
<event>
 5    1  0.1535793E-008  0.3835730E+03  0.7957747E-01  0.3435747E+00
         13   -1    0    0    0    0  0.00000000000E+00  0.00000000000E+00  0.14999999963E+04  0.15000000000E+04  0.10566000000E+00 0.  1.
        994   -1    0    0    0    0 -0.00000000000E+00 -0.00000000000E+00  0.11368683772E-12  0.17120000000E+03  0.17120000000E+03 0.  0.
         13    1    1    2    0    0  0.18570466687E+03  0.55749041841E+02  0.10424490705E+04  0.10603274281E+04  0.10566000000E+00 0.  1.
        994    1    1    2    0    0 -0.19566931488E+03 -0.66830748051E+02  0.15944284795E+03  0.31222474507E+03  0.17120000000E+03 0.  0.
        998    1    1    2    0    0  0.99646480101E+01  0.11081706209E+02  0.29810807782E+03  0.29864782686E+03  0.10000000000E+02 0.  1.
</event>
<event>
 5    1  0.1535793E-008  0.3756589E+03  0.7957747E-01  0.3470281E+00
         13   -1    0    0    0    0  0.00000000000E+00  0.00000000000E+00  0.14999999963E+04  0.15000000000E+04  0.10566000000E+00 0. -1.
        994   -1    0    0    0    0 -0.00000000000E+00 -0.00000000000E+00  0.11368683772E-12  0.17120000000E+03  0.17120000000E+03 0.  0.
         13    1    1    2    0    0  0.34838050752E+02  0.30994395217E+01  0.87848083286E+02  0.94554710124E+02  0.10566000000E+00 0. -1.
        994    1    1    2    0    0 -0.39394229587E+02  0.50157722668E+01  0.11708395243E+02  0.17613514645E+03  0.17120000000E+03 0.  0.
        998    1    1    2    0    0  0.45561788346E+01 -0.81152117885E+01  0.14004435178E+04  0.14005101434E+04  0.10000000000E+02 0. -1.
</event>
<event>
 5    1  0.1535793E-008  0.3832439E+03  0.7957747E-01  0.3437154E+00
         13   -1    0    0    0    0  0.00000000000E+00  0.00000000000E+00  0.14999999963E+04  0.15000000000E+04  0.10566000000E+00 0. -1.
        994   -1    0    0    0    0 -0.00000000000E+00 -0.00000000000E+00  0.11368683772E-12  0.17120000000E+03  0.17120000000E+03 0.  0.
         13    1    1    2    0    0  0.26509517306E+02  0.19486409282E+01  0.13018119223E+03  0.13286724835E+03  0.10566000000E+00 0. -1.
        994    1    1    2    0    0 -0.26244154701E+02 -0.31066628243E+01  0.48179170506E+01  0.17329471814E+03  0.17120000000E+03 0.  0.
        998    1    1    2    0    0 -0.26536260494E+00  0.11580218962E+01  0.13650008870E+04  0.13650380335E+04  0.10000000000E+02 0.  0.
</event>
<event>
 5    1  0.1535793E-008  0.3745407E+03  0.7957747E-01  0.3475279E+00
         13   -1    0    0    0    0  0.00000000000E+00  0.00000000000E+00  0.14999999963E+04  0.15000000000E+04  0.10566000000E+00 0. -1.
        994   -1    0    0    0    0 -0.00000000000E+00 -0.00000000000E+00  0.11368683772E-12  0.17120000000E+03  0.17120000000E+03 0.  0.
         13    1    1    2    0    0 -0.16590190039E+02 -0.20687151352E+01  0.17420853456E+02  0.24145626664E+02  0.10566000000E+00 0. -1.
        994    1    1    2    0    0  0.57472333829E+01  0.88855467263E+01  0.72961017313E+01  0.17168184742E+03  0.17120000000E+03 0.  0.
        998    1    1    2    0    0  0.10842956656E+02 -0.68168315910E+01  0.14752830411E+04  0.14753725259E+04  0.10000000000E+02 0. -1.
</event>
<event>
 5    1  0.1535793E-008  0.3838284E+03  0.7957747E-01  0.3434657E+00
         13   -1    0    0    0    0  0.00000000000E+00  0.00000000000E+00  0.14999999963E+04  0.15000000000E+04  0.10566000000E+00 0.  1.
        994   -1    0    0    0    0 -0.00000000000E+00 -0.00000000000E+00  0.11368683772E-12  0.17120000000E+03  0.17120000000E+03 0.  0.
         13    1    1    2    0    0 -0.20578197728E+02  0.44810845183E+01  0.98327868175E+02  0.10055805867E+03  0.10566000000E+00 0.  1.
        994    1    1    2    0    0  0.13847888845E+02 -0.84699899804E+01  0.30833168944E+01  0.17199549877E+03  0.17120000000E+03 0.  0.
        998    1    1    2    0    0  0.67303088830E+01  0.39889054622E+01  0.13985888112E+04  0.13986464426E+04  0.10000000000E+02 0.  1.
</event>
<event>
 5    1  0.1535793E-008  0.3708729E+03  0.7957747E-01  0.3491889E+00
         13   -1    0    0    0    0  0.00000000000E+00  0.00000000000E+00  0.14999999963E+04  0.15000000000E+04  0.10566000000E+00 0. -1.
        994   -1    0    0    0    0 -0.00000000000E+00 -0.00000000000E+00  0.11368683772E-12  0.17120000000E+03  0.17120000000E+03 0.  0.
         13    1    1    2    0    0 -0.40325968649E+02  0.14636316160E+02  0.74364493839E+02  0.85851584762E+02  0.10566000000E+00 0. -1.
        994    1    1    2    0    0  0.36548183299E+02 -0.95999555221E+01  0.16425111593E+02  0.17608848100E+03  0.17120000000E+03 0.  0.
        998    1    1    2    0    0  0.37777853496E+01 -0.50363606383E+01  0.14092103908E+04  0.14092599342E+04  0.10000000000E+02 0. -1.
</event>
<event>
 5    1  0.1535793E-008  0.3859663E+03  0.7957747E-01  0.3425584E+00
         13   -1    0    0    0    0  0.00000000000E+00  0.00000000000E+00  0.14999999963E+04  0.15000000000E+04  0.10566000000E+00 0.  1.
        994   -1    0    0    0    0 -0.00000000000E+00 -0.00000000000E+00  0.11368683772E-12  0.17120000000E+03  0.17120000000E+03 0.  0.
         13    1    1    2    0    0  0.92958674389E+01 -0.37538771683E+01  0.42307364756E+02  0.43479064179E+02  0.10566000000E+00 0.  1.
        994    1    1    2    0    0 -0.10731305194E+02  0.10242092685E+02  0.18729125302E+01  0.17185170693E+03  0.17120000000E+03 0.  0.
        998    1    1    2    0    0  0.14354377547E+01 -0.64882155172E+01  0.14558197190E+04  0.14558692289E+04  0.10000000000E+02 0.  1.
</event>
<event>
 5    1  0.1535793E-008  0.3733787E+03  0.7957747E-01  0.3480506E+00
         13   -1    0    0    0    0  0.00000000000E+00  0.00000000000E+00  0.14999999963E+04  0.15000000000E+04  0.10566000000E+00 0. -1.
        994   -1    0    0    0    0 -0.00000000000E+00 -0.00000000000E+00  0.11368683772E-12  0.17120000000E+03  0.17120000000E+03 0.  0.
         13    1    1    2    0    0  0.68587029254E+01 -0.21071678463E+02  0.29356489217E+02  0.36781409193E+02  0.10566000000E+00 0. -1.
        994    1    1    2    0    0 -0.66922542532E+01  0.16930570062E+02  0.86472554543E+01  0.17238226561E+03  0.17120000000E+03 0.  0.
        998    1    1    2    0    0 -0.16644867223E+00  0.41411084003E+01  0.14619962516E+04  0.14620363252E+04  0.10000000000E+02 0. -1.
</event>
<event>
 5    1  0.1535793E-008  0.3725098E+03  0.7957747E-01  0.3484435E+00
         13   -1    0    0    0    0  0.00000000000E+00  0.00000000000E+00  0.14999999963E+04  0.15000000000E+04  0.10566000000E+00 0.  1.
        994   -1    0    0    0    0 -0.00000000000E+00 -0.00000000000E+00  0.11368683772E-12  0.17120000000E+03  0.17120000000E+03 0.  0.
         13    1    1    2    0    0 -0.10127772425E+01 -0.30335108493E+02  0.55249895870E+02  0.63038136732E+02  0.10566000000E+00 0.  1.
        994    1    1    2    0    0 -0.24420210468E+02  0.17994338759E+02  0.11123839277E+02  0.17422205000E+03  0.17120000000E+03 0.  0.
        998    1    1    2    0    0  0.25432987711E+02  0.12340769734E+02  0.14336262611E+04  0.14339398133E+04  0.10000000000E+02 0.  1.
</event>
<event>
 5    1  0.1535793E-008  0.3306129E+03  0.7957747E-01  0.3699121E+00
         13   -1    0    0    0    0  0.00000000000E+00  0.00000000000E+00  0.14999999963E+04  0.15000000000E+04  0.10566000000E+00 0.  1.
        994   -1    0    0    0    0 -0.00000000000E+00 -0.00000000000E+00  0.11368683772E-12  0.17120000000E+03  0.17120000000E+03 0.  0.
         13    1    1    2    0    0  0.17230807571E+03  0.12580343382E+03  0.84164359259E+03  0.86826293542E+03  0.10566000000E+00 0.  1.
        994    1    1    2    0    0 -0.16921235660E+03 -0.11444473202E+03  0.17392737690E+03  0.31826182735E+03  0.17120000000E+03 0.  0.
        998    1    1    2    0    0 -0.30957191110E+01 -0.11358701798E+02  0.48442902679E+03  0.48467523723E+03  0.10000000000E+02 0. -1.
</event>
<event>
 5    1  0.1535793E-008  0.3761804E+03  0.7957747E-01  0.3467961E+00
         13   -1    0    0    0    0  0.00000000000E+00  0.00000000000E+00  0.14999999963E+04  0.15000000000E+04  0.10566000000E+00 0.  1.
        994   -1    0    0    0    0 -0.00000000000E+00 -0.00000000000E+00  0.11368683772E-12  0.17120000000E+03  0.17120000000E+03 0.  0.
         13    1    1    2    0    0 -0.13010282619E+03  0.93966193687E+02  0.53479903123E+03  0.55836046234E+03  0.10566000000E+00 0.  1.
        994    1    1    2    0    0  0.13952094889E+03 -0.79590907622E+02  0.11322949783E+03  0.26063608141E+03  0.17120000000E+03 0.  0.
        998    1    1    2    0    0 -0.94181227021E+01 -0.14375286065E+02  0.85197146722E+03  0.85220345625E+03  0.10000000000E+02 0.  1.
</event>
<event>
 5    1  0.1535793E-008  0.3849520E+03  0.7957747E-01  0.3429876E+00
         13   -1    0    0    0    0  0.00000000000E+00  0.00000000000E+00  0.14999999963E+04  0.15000000000E+04  0.10566000000E+00 0. -1.
        994   -1    0    0    0    0 -0.00000000000E+00 -0.00000000000E+00  0.11368683772E-12  0.17120000000E+03  0.17120000000E+03 0.  0.
         13    1    1    2    0    0  0.14415013632E+02 -0.91374010743E+01  0.10163414189E+03  0.10305723981E+03  0.10566000000E+00 0. -1.
        994    1    1    2    0    0  0.71550979122E+01 -0.12032029391E+01  0.18271588894E+01  0.17136341976E+03  0.17120000000E+03 0.  0.
        998    1    1    2    0    0 -0.21570111544E+02  0.10340604013E+02  0.13965386955E+04  0.13967793404E+04  0.10000000000E+02 0. -1.
</event>
<event>
 5    1  0.1535793E-008  0.3853631E+03  0.7957747E-01  0.3428134E+00
         13   -1    0    0    0    0  0.00000000000E+00  0.00000000000E+00  0.14999999963E+04  0.15000000000E+04  0.10566000000E+00 0.  1.
        994   -1    0    0    0    0 -0.00000000000E+00 -0.00000000000E+00  0.11368683772E-12  0.17120000000E+03  0.17120000000E+03 0.  0.
         13    1    1    2    0    0  0.11635030542E+02 -0.51085818716E+00  0.47800529407E+02  0.49198950064E+02  0.10566000000E+00 0.  1.
        994    1    1    2    0    0 -0.43873599727E+01  0.22848948979E+01  0.15303597611E+01  0.17127828722E+03  0.17120000000E+03 0.  0.
        998    1    1    2    0    0 -0.72476705695E+01 -0.17740367108E+01  0.14506691071E+04  0.14507227627E+04  0.10000000000E+02 0.  1.
</event>
<event>
 5    1  0.1535793E-008  0.3804486E+03  0.7957747E-01  0.3449208E+00
         13   -1    0    0    0    0  0.00000000000E+00  0.00000000000E+00  0.14999999963E+04  0.15000000000E+04  0.10566000000E+00 0.  1.
        994   -1    0    0    0    0 -0.00000000000E+00 -0.00000000000E+00  0.11368683772E-12  0.17120000000E+03  0.17120000000E+03 0.  0.
         13    1    1    2    0    0 -0.26886916901E+02 -0.10937966571E+01  0.87219795229E+02  0.91276538800E+02  0.10566000000E+00 0.  1.
        994    1    1    2    0    0  0.26261818610E+02 -0.65735799802E+01  0.63571180965E+01  0.17344378923E+03  0.17120000000E+03 0.  0.
        998    1    1    2    0    0  0.62509829085E+00  0.76673766373E+01  0.14064230830E+04  0.14064796720E+04  0.10000000000E+02 0.  1.
</event>
<event>
 5    1  0.1535793E-008  0.4133606E+03  0.7957747E-01  0.3317631E+00
         13   -1    0    0    0    0  0.00000000000E+00  0.00000000000E+00  0.14999999963E+04  0.15000000000E+04  0.10566000000E+00 0.  1.
        994   -1    0    0    0    0 -0.00000000000E+00 -0.00000000000E+00  0.11368683772E-12  0.17120000000E+03  0.17120000000E+03 0.  0.
         13    1    1    2    0    0  0.55957597973E+02 -0.10329402725E+02  0.31945074378E+02  0.65256787176E+02  0.10566000000E+00 0.  1.
        994    1    1    2    0    0 -0.50312651127E+02  0.49180838351E+01  0.46678115431E+02  0.18450972027E+03  0.17120000000E+03 0.  0.
        998    1    1    2    0    0 -0.56449468457E+01  0.54113188896E+01  0.14213768065E+04  0.14214334926E+04  0.10000000000E+02 0.  1.
</event>
<event>
 5    1  0.1535793E-008  0.3838691E+03  0.7957747E-01  0.3434483E+00
         13   -1    0    0    0    0  0.00000000000E+00  0.00000000000E+00  0.14999999963E+04  0.15000000000E+04  0.10566000000E+00 0.  1.
        994   -1    0    0    0    0 -0.00000000000E+00 -0.00000000000E+00  0.11368683772E-12  0.17120000000E+03  0.17120000000E+03 0.  0.
         13    1    1    2    0    0 -0.51260485797E+01  0.13658883084E+02  0.48581952113E+02  0.50725325985E+02  0.10566000000E+00 0.  1.
        994    1    1    2    0    0  0.55228729554E+01 -0.56868005666E+01  0.24000996702E+01  0.17140024010E+03  0.17120000000E+03 0.  0.
        998    1    1    2    0    0 -0.39682437571E+00 -0.79720825172E+01  0.14490179445E+04  0.14490744339E+04  0.10000000000E+02 0.  1.
</event>
<event>
 5    1  0.1535793E-008  0.3710842E+03  0.7957747E-01  0.3490923E+00
         13   -1    0    0    0    0  0.00000000000E+00  0.00000000000E+00  0.14999999963E+04  0.15000000000E+04  0.10566000000E+00 0. -1.
        994   -1    0    0    0    0 -0.00000000000E+00 -0.00000000000E+00  0.11368683772E-12  0.17120000000E+03  0.17120000000E+03 0.  0.
         13    1    1    2    0    0  0.23381903058E+02  0.10635685408E+02  0.23559169368E+02  0.34855083131E+02  0.10566000000E+00 0. -1.
        994    1    1    2    0    0 -0.32075129033E+02  0.14656947883E+02  0.15890163751E+02  0.17551517692E+03  0.17120000000E+03 0.  0.
        998    1    1    2    0    0  0.86932259752E+01 -0.25292633291E+02  0.14605506632E+04  0.14608297400E+04  0.10000000000E+02 0. -1.
</event>
<event>
 5    1  0.1535793E-008  0.3824638E+03  0.7957747E-01  0.3440500E+00
         13   -1    0    0    0    0  0.00000000000E+00  0.00000000000E+00  0.14999999963E+04  0.15000000000E+04  0.10566000000E+00 0. -1.
        994   -1    0    0    0    0 -0.00000000000E+00 -0.00000000000E+00  0.11368683772E-12  0.17120000000E+03  0.17120000000E+03 0.  0.
         13    1    1    2    0    0 -0.56571726943E+02 -0.79718919503E+02  0.21880257774E+03  0.23964566678E+03  0.10566000000E+00 0. -1.
        994    1    1    2    0    0  0.64444439842E+02  0.81056508538E+02  0.58039827010E+02  0.20832979845E+03  0.17120000000E+03 0.  0.
        998    1    1    2    0    0 -0.78727128994E+01 -0.13375890352E+01  0.12231575915E+04  0.12232245348E+04  0.10000000000E+02 0. -1.
</event>
<event>
 5    1  0.1535793E-008  0.3711848E+03  0.7957747E-01  0.3490463E+00
         13   -1    0    0    0    0  0.00000000000E+00  0.00000000000E+00  0.14999999963E+04  0.15000000000E+04  0.10566000000E+00 0. -1.
        994   -1    0    0    0    0 -0.00000000000E+00 -0.00000000000E+00  0.11368683772E-12  0.17120000000E+03  0.17120000000E+03 0.  0.
         13    1    1    2    0    0  0.77111931778E+02 -0.36025302810E+01  0.38374347770E+03  0.39143108728E+03  0.10566000000E+00 0. -1.
        994    1    1    2    0    0 -0.30217326242E+02 -0.56412277438E+01  0.11911885616E+02  0.17434518426E+03  0.17120000000E+03 0.  0.
        998    1    1    2    0    0 -0.46894605537E+02  0.92437580248E+01  0.11043446330E+04  0.11054237285E+04  0.10000000000E+02 0. -1.
</event>
<event>
 5    1  0.1535793E-008  0.3852068E+03  0.7957747E-01  0.3428795E+00
         13   -1    0    0    0    0  0.00000000000E+00  0.00000000000E+00  0.14999999963E+04  0.15000000000E+04  0.10566000000E+00 0. -1.
        994   -1    0    0    0    0 -0.00000000000E+00 -0.00000000000E+00  0.11368683772E-12  0.17120000000E+03  0.17120000000E+03 0.  0.
         13    1    1    2    0    0 -0.19951795698E+01  0.10579435494E+02  0.37798585783E+02  0.39302028550E+02  0.10566000000E+00 0. -1.
        994    1    1    2    0    0 -0.15325203064E+01 -0.81687772698E+01  0.17545309057E+01  0.17141060620E+03  0.17120000000E+03 0.  0.
        998    1    1    2    0    0  0.35276998763E+01 -0.24106582246E+01  0.14604468796E+04  0.14604873652E+04  0.10000000000E+02 0. -1.
</event>
<event>
 5    1  0.1535793E-008  0.3797783E+03  0.7957747E-01  0.3452124E+00
         13   -1    0    0    0    0  0.00000000000E+00  0.00000000000E+00  0.14999999963E+04  0.15000000000E+04  0.10566000000E+00 0. -1.
        994   -1    0    0    0    0 -0.00000000000E+00 -0.00000000000E+00  0.11368683772E-12  0.17120000000E+03  0.17120000000E+03 0.  0.
         13    1    1    2    0    0 -0.13813767219E+02 -0.49303756586E+01  0.23326218909E+02  0.27554535408E+02  0.10566000000E+00 0. -1.
        994    1    1    2    0    0  0.13589546524E+02  0.43945574010E+01  0.49277864995E+01  0.17186538625E+03  0.17120000000E+03 0.  0.
        998    1    1    2    0    0  0.22422069525E+00  0.53581825752E+00  0.14717459909E+04  0.14717800783E+04  0.10000000000E+02 0. -1.
</event>
<event>
 5    1  0.1535793E-008  0.3773715E+03  0.7957747E-01  0.3462684E+00
         13   -1    0    0    0    0  0.00000000000E+00  0.00000000000E+00  0.14999999963E+04  0.15000000000E+04  0.10566000000E+00 0. -1.
        994   -1    0    0    0    0 -0.00000000000E+00 -0.00000000000E+00  0.11368683772E-12  0.17120000000E+03  0.17120000000E+03 0.  0.
         13    1    1    2    0    0 -0.76923777497E+02  0.55175101793E+02  0.42294704665E+03  0.43341178438E+03  0.10566000000E+00 0. -1.
        994    1    1    2    0    0  0.23975187833E+02  0.21874770211E+02  0.18680440619E+02  0.17524757934E+03  0.17120000000E+03 0.  0.
        998    1    1    2    0    0  0.52948589664E+02 -0.77049872004E+02  0.10583725090E+04  0.10625406363E+04  0.10000000000E+02 0. -1.
</event>
<event>
 5    1  0.1535793E-008  0.3684388E+03  0.7957747E-01  0.3503097E+00
         13   -1    0    0    0    0  0.00000000000E+00  0.00000000000E+00  0.14999999963E+04  0.15000000000E+04  0.10566000000E+00 0. -1.
        994   -1    0    0    0    0 -0.00000000000E+00 -0.00000000000E+00  0.11368683772E-12  0.17120000000E+03  0.17120000000E+03 0.  0.
         13    1    1    2    0    0  0.16604267987E+02  0.41917465451E+02  0.96089593584E+02  0.10614139996E+03  0.10566000000E+00 0. -1.
        994    1    1    2    0    0 -0.35845739360E+02 -0.19158669933E+02  0.15881537687E+02  0.17667380933E+03  0.17120000000E+03 0.  0.
        998    1    1    2    0    0  0.19241471372E+02 -0.22758795519E+02  0.13880288650E+04  0.13883847907E+04  0.10000000000E+02 0. -1.
</event>
<event>
 5    1  0.1535793E-008  0.3787166E+03  0.7957747E-01  0.3456766E+00
         13   -1    0    0    0    0  0.00000000000E+00  0.00000000000E+00  0.14999999963E+04  0.15000000000E+04  0.10566000000E+00 0. -1.
        994   -1    0    0    0    0 -0.00000000000E+00 -0.00000000000E+00  0.11368683772E-12  0.17120000000E+03  0.17120000000E+03 0.  0.
         13    1    1    2    0    0 -0.80235187445E+01  0.10661326349E+02  0.14829621877E+02  0.19949174961E+02  0.10566000000E+00 0. -1.
        994    1    1    2    0    0  0.39473474208E+02 -0.36591402854E+02  0.14570616710E+02  0.18005229463E+03  0.17120000000E+03 0.  0.
        998    1    1    2    0    0 -0.31449955464E+02  0.25930076505E+02  0.14705997577E+04  0.14711985304E+04  0.10000000000E+02 0. -1.
</event>
<event>
 5    1  0.1535793E-008  0.3838225E+03  0.7957747E-01  0.3434682E+00
         13   -1    0    0    0    0  0.00000000000E+00  0.00000000000E+00  0.14999999963E+04  0.15000000000E+04  0.10566000000E+00 0.  1.
        994   -1    0    0    0    0 -0.00000000000E+00 -0.00000000000E+00  0.11368683772E-12  0.17120000000E+03  0.17120000000E+03 0.  0.
         13    1    1    2    0    0  0.10875861344E+02 -0.33793057995E+01  0.28560554259E+02  0.30747690828E+02  0.10566000000E+00 0.  1.
        994    1    1    2    0    0 -0.63820076114E+01  0.72711088351E+01  0.25249329930E+01  0.17149173255E+03  0.17120000000E+03 0.  0.
        998    1    1    2    0    0 -0.44938537329E+01 -0.38918030356E+01  0.14689145090E+04  0.14689605766E+04  0.10000000000E+02 0.  1.
</event>
<event>
 5    1  0.1535793E-008  0.3832824E+03  0.7957747E-01  0.3436990E+00
         13   -1    0    0    0    0  0.00000000000E+00  0.00000000000E+00  0.14999999963E+04  0.15000000000E+04  0.10566000000E+00 0.  1.
        994   -1    0    0    0    0 -0.00000000000E+00 -0.00000000000E+00  0.11368683772E-12  0.17120000000E+03  0.17120000000E+03 0.  0.
         13    1    1    2    0    0 -0.13438028363E+01 -0.15572425578E+02  0.47062147302E+02  0.49589949759E+02  0.10566000000E+00 0.  1.
        994    1    1    2    0    0 -0.14087822499E+01  0.16970880058E+02  0.34449321166E+01  0.17207935087E+03  0.17120000000E+03 0.  0.
        998    1    1    2    0    0  0.27525850863E+01 -0.13984544798E+01  0.14494929169E+04  0.14495306994E+04  0.10000000000E+02 0.  1.
</event>
<event>
 5    1  0.1535793E-008  0.3697564E+03  0.7957747E-01  0.3497011E+00
         13   -1    0    0    0    0  0.00000000000E+00  0.00000000000E+00  0.14999999963E+04  0.15000000000E+04  0.10566000000E+00 0.  1.
        994   -1    0    0    0    0 -0.00000000000E+00 -0.00000000000E+00  0.11368683772E-12  0.17120000000E+03  0.17120000000E+03 0.  0.
         13    1    1    2    0    0  0.20951111463E+02  0.15926121281E+02  0.26564824676E+02  0.37393735902E+02  0.10566000000E+00 0.  1.
        994    1    1    2    0    0 -0.43826274877E+02  0.27061135678E+01  0.17575197438E+02  0.17761304284E+03  0.17120000000E+03 0.  0.
        998    1    1    2    0    0  0.22875163414E+02 -0.18632234849E+02  0.14558599742E+04  0.14561932213E+04  0.10000000000E+02 0.  1.
</event>
<event>
 5    1  0.1535793E-008  0.3808733E+03  0.7957747E-01  0.3447365E+00
         13   -1    0    0    0    0  0.00000000000E+00  0.00000000000E+00  0.14999999963E+04  0.15000000000E+04  0.10566000000E+00 0. -1.
        994   -1    0    0    0    0 -0.00000000000E+00 -0.00000000000E+00  0.11368683772E-12  0.17120000000E+03  0.17120000000E+03 0.  0.
         13    1    1    2    0    0 -0.31745176948E+02  0.63000769664E+01  0.14599457356E+03  0.14953887087E+03  0.10566000000E+00 0. -1.
        994    1    1    2    0    0  0.12485017291E+02 -0.60276003643E+01  0.43338842012E+01  0.17181510462E+03  0.17120000000E+03 0.  0.
        998    1    1    2    0    0  0.19260159657E+02 -0.27247660208E+00  0.13496715385E+04  0.13498460245E+04  0.10000000000E+02 0. -1.
</event>
<event>
 5    1  0.1535793E-008  0.3725619E+03  0.7957747E-01  0.3484199E+00
         13   -1    0    0    0    0  0.00000000000E+00  0.00000000000E+00  0.14999999963E+04  0.15000000000E+04  0.10566000000E+00 0.  1.
        994   -1    0    0    0    0 -0.00000000000E+00 -0.00000000000E+00  0.11368683772E-12  0.17120000000E+03  0.17120000000E+03 0.  0.
         13    1    1    2    0    0  0.70371544023E+02 -0.95753324700E+02  0.57388680234E+03  0.58606051434E+03  0.10566000000E+00 0.  1.
        994    1    1    2    0    0 -0.76075144746E+02  0.83039142444E+02  0.52740651364E+02  0.21159854237E+03  0.17120000000E+03 0.  0.
        998    1    1    2    0    0  0.57036007228E+01  0.12714182256E+02  0.87337254258E+03  0.87354094330E+03  0.10000000000E+02 0.  1.
</event>
<event>
 5    1  0.1535793E-008  0.3830728E+03  0.7957747E-01  0.3437887E+00
         13   -1    0    0    0    0  0.00000000000E+00  0.00000000000E+00  0.14999999963E+04  0.15000000000E+04  0.10566000000E+00 0.  1.
        994   -1    0    0    0    0 -0.00000000000E+00 -0.00000000000E+00  0.11368683772E-12  0.17120000000E+03  0.17120000000E+03 0.  0.
         13    1    1    2    0    0 -0.24827073800E+02  0.11898323755E+02  0.16007439155E+03  0.16242467699E+03  0.10566000000E+00 0.  1.
        994    1    1    2    0    0  0.58864955216E+01  0.83278010409E+00  0.27069761366E+01  0.17132458105E+03  0.17120000000E+03 0.  0.
        998    1    1    2    0    0  0.18940578278E+02 -0.12731103859E+02  0.13372186286E+04  0.13374507420E+04  0.10000000000E+02 0.  1.
</event>
<event>
 5    1  0.1535793E-008  0.3714069E+03  0.7957747E-01  0.3489450E+00
         13   -1    0    0    0    0  0.00000000000E+00  0.00000000000E+00  0.14999999963E+04  0.15000000000E+04  0.10566000000E+00 0. -1.
        994   -1    0    0    0    0 -0.00000000000E+00 -0.00000000000E+00  0.11368683772E-12  0.17120000000E+03  0.17120000000E+03 0.  0.
         13    1    1    2    0    0  0.27947596042E+01  0.77040492523E+02  0.37412745037E+03  0.38198744541E+03  0.10566000000E+00 0. -1.
        994    1    1    2    0    0  0.15014349113E+01 -0.34199957592E+02  0.12578698940E+02  0.17504158098E+03  0.17120000000E+03 0.  0.
        998    1    1    2    0    0 -0.42961945155E+01 -0.42840534931E+02  0.11132938470E+04  0.11141709736E+04  0.10000000000E+02 0. -1.
</event>
<event>
 5    1  0.1535793E-008  0.3826375E+03  0.7957747E-01  0.3439754E+00
         13   -1    0    0    0    0  0.00000000000E+00  0.00000000000E+00  0.14999999963E+04  0.15000000000E+04  0.10566000000E+00 0.  1.
        994   -1    0    0    0    0 -0.00000000000E+00 -0.00000000000E+00  0.11368683772E-12  0.17120000000E+03  0.17120000000E+03 0.  0.
         13    1    1    2    0    0 -0.13598231175E+03  0.16950030507E+03  0.10524851322E+04  0.10746843757E+04  0.10566000000E+00 0.  1.
        994    1    1    2    0    0  0.12694694462E+03 -0.19419671957E+03  0.20843077214E+03  0.35578184245E+03  0.17120000000E+03 0.  0.
        998    1    1    2    0    0  0.90353671299E+01  0.24696414497E+02  0.23908409189E+03  0.24073378189E+03  0.10000000000E+02 0.  1.
</event>
<event>
 5    1  0.1535793E-008  0.3827700E+03  0.7957747E-01  0.3439185E+00
         13   -1    0    0    0    0  0.00000000000E+00  0.00000000000E+00  0.14999999963E+04  0.15000000000E+04  0.10566000000E+00 0.  1.
        994   -1    0    0    0    0 -0.00000000000E+00 -0.00000000000E+00  0.11368683772E-12  0.17120000000E+03  0.17120000000E+03 0.  0.
         13    1    1    2    0    0  0.33475273829E+02  0.11756197070E+02  0.20585454702E+03  0.20888970253E+03  0.10566000000E+00 0.  1.
        994    1    1    2    0    0 -0.29655895848E+02 -0.13536295081E+02  0.62696641558E+01  0.17438879589E+03  0.17120000000E+03 0.  0.
        998    1    1    2    0    0 -0.38193779817E+01  0.17800980112E+01  0.12878757851E+04  0.12879215016E+04  0.10000000000E+02 0.  1.
</event>
<event>
 5    1  0.1535793E-008  0.3852503E+03  0.7957747E-01  0.3428611E+00
         13   -1    0    0    0    0  0.00000000000E+00  0.00000000000E+00  0.14999999963E+04  0.15000000000E+04  0.10566000000E+00 0. -1.
        994   -1    0    0    0    0 -0.00000000000E+00 -0.00000000000E+00  0.11368683772E-12  0.17120000000E+03  0.17120000000E+03 0.  0.
         13    1    1    2    0    0  0.93796796975E+01 -0.11529047299E+02  0.72591285219E+02  0.74097254852E+02  0.10566000000E+00 0. -1.
        994    1    1    2    0    0  0.40587301775E+00  0.15490480001E+02  0.22953285041E+01  0.17191517745E+03  0.17120000000E+03 0.  0.
        998    1    1    2    0    0 -0.97855527152E+01 -0.39614327013E+01  0.14251133826E+04  0.14251875677E+04  0.10000000000E+02 0. -1.
</event>
<event>
 5    1  0.1535793E-008  0.4271791E+03  0.7957747E-01  0.3268375E+00
         13   -1    0    0    0    0  0.00000000000E+00  0.00000000000E+00  0.14999999963E+04  0.15000000000E+04  0.10566000000E+00 0.  1.
        994   -1    0    0    0    0 -0.00000000000E+00 -0.00000000000E+00  0.11368683772E-12  0.17120000000E+03  0.17120000000E+03 0.  0.
         13    1    1    2    0    0  0.12629795456E+03  0.96689350913E+01  0.14872227292E+03  0.19535349308E+03  0.10566000000E+00 0.  1.
        994    1    1    2    0    0 -0.10794393276E+03 -0.10591823009E+03  0.15622568570E+03  0.27674260416E+03  0.17120000000E+03 0.  0.
        998    1    1    2    0    0 -0.18354021803E+02  0.96249295002E+02  0.11950520377E+04  0.11991039028E+04  0.10000000000E+02 0.  1.
</event>
<event>
 5    1  0.1535793E-008  0.3816214E+03  0.7957747E-01  0.3444129E+00
         13   -1    0    0    0    0  0.00000000000E+00  0.00000000000E+00  0.14999999963E+04  0.15000000000E+04  0.10566000000E+00 0.  1.
        994   -1    0    0    0    0 -0.00000000000E+00 -0.00000000000E+00  0.11368683772E-12  0.17120000000E+03  0.17120000000E+03 0.  0.
         13    1    1    2    0    0 -0.31784362010E+01 -0.21543323403E+02  0.76049633952E+02  0.79106101081E+02  0.10566000000E+00 0.  1.
        994    1    1    2    0    0 -0.18868156631E+02  0.13312557524E+01  0.45074784294E+01  0.17230071659E+03  0.17120000000E+03 0.  0.
        998    1    1    2    0    0  0.22046592832E+02  0.20212067651E+02  0.14194428839E+04  0.14197931823E+04  0.10000000000E+02 0.  1.
</event>
<event>
 5    1  0.1535793E-008  0.3843191E+03  0.7957747E-01  0.3432565E+00
         13   -1    0    0    0    0  0.00000000000E+00  0.00000000000E+00  0.14999999963E+04  0.15000000000E+04  0.10566000000E+00 0. -1.
        994   -1    0    0    0    0 -0.00000000000E+00 -0.00000000000E+00  0.11368683772E-12  0.17120000000E+03  0.17120000000E+03 0.  0.
         13    1    1    2    0    0  0.12115384363E+02  0.15145664798E+02  0.97795006314E+02  0.99699789992E+02  0.10566000000E+00 0. -1.
        994    1    1    2    0    0  0.20101944077E+01 -0.12779308020E+02  0.25203386238E+01  0.17170656278E+03  0.17120000000E+03 0.  0.
        998    1    1    2    0    0 -0.14125578771E+02 -0.23663567781E+01  0.13996846513E+04  0.13997936472E+04  0.10000000000E+02 0. -1.
</event>
<event>
 5    1  0.1535793E-008  0.3793758E+03  0.7957747E-01  0.3453881E+00
         13   -1    0    0    0    0  0.00000000000E+00  0.00000000000E+00  0.14999999963E+04  0.15000000000E+04  0.10566000000E+00 0.  1.
        994   -1    0    0    0    0 -0.00000000000E+00 -0.00000000000E+00  0.11368683772E-12  0.17120000000E+03  0.17120000000E+03 0.  0.
         13    1    1    2    0    0 -0.65278927552E+01 -0.12578660286E+02  0.20513809728E+02  0.24933183351E+02  0.10566000000E+00 0.  1.
        994    1    1    2    0    0  0.57232714080E+01  0.12249221202E+02  0.50611462265E+01  0.17180760884E+03  0.17120000000E+03 0.  0.
        998    1    1    2    0    0  0.80462134725E+00  0.32943908426E+00  0.14744250403E+04  0.14744592078E+04  0.10000000000E+02 0.  1.
</event>
<event>
 5    1  0.1535793E-008  0.3844005E+03  0.7957747E-01  0.3432219E+00
         13   -1    0    0    0    0  0.00000000000E+00  0.00000000000E+00  0.14999999963E+04  0.15000000000E+04  0.10566000000E+00 0.  1.
        994   -1    0    0    0    0 -0.00000000000E+00 -0.00000000000E+00  0.11368683772E-12  0.17120000000E+03  0.17120000000E+03 0.  0.
         13    1    1    2    0    0  0.14441609038E+02 -0.54311534239E+01  0.58073163991E+02  0.60087944207E+02  0.10566000000E+00 0.  1.
        994    1    1    2    0    0 -0.17220537305E+02  0.12323291182E+02  0.34070083129E+01  0.17253828015E+03  0.17120000000E+03 0.  0.
        998    1    1    2    0    0  0.27789282672E+01 -0.68921377586E+01  0.14385198240E+04  0.14385737756E+04  0.10000000000E+02 0.  1.
</event>
<event>
 5    1  0.1535793E-008  0.3790091E+03  0.7957747E-01  0.3455484E+00
         13   -1    0    0    0    0  0.00000000000E+00  0.00000000000E+00  0.14999999963E+04  0.15000000000E+04  0.10566000000E+00 0.  1.
        994   -1    0    0    0    0 -0.00000000000E+00 -0.00000000000E+00  0.11368683772E-12  0.17120000000E+03  0.17120000000E+03 0.  0.
         13    1    1    2    0    0  0.22692418689E+02 -0.18885728908E+02  0.93130492156E+02  0.97698087779E+02  0.10566000000E+00 0.  1.
        994    1    1    2    0    0 -0.74886250174E+01  0.16763175962E+02  0.57655326295E+01  0.17227816153E+03  0.17120000000E+03 0.  0.
        998    1    1    2    0    0 -0.15203793672E+02  0.21225529466E+01  0.14011039715E+04  0.14012237507E+04  0.10000000000E+02 0.  1.
</event>
<event>
 5    1  0.2595214E-008  0.3862872E+03  0.7957747E-01  0.3424231E+00
         13   -1    0    0    0    0  0.00000000000E+00  0.00000000000E+00  0.14999999963E+04  0.15000000000E+04  0.10566000000E+00 0. -1.
        994   -1    0    0    0    0 -0.00000000000E+00 -0.00000000000E+00  0.11368683772E-12  0.17120000000E+03  0.17120000000E+03 0.  0.
         13    1    1    2    0    0 -0.12226741408E+02 -0.39361912859E+00  0.72618277913E+02  0.73641520846E+02  0.10566000000E+00 0. -1.
        994    1    1    2    0    0  0.14472535674E+02  0.12328387961E+01  0.16836319901E+01  0.17182330691E+03  0.17120000000E+03 0.  0.
        998    1    1    2    0    0 -0.22457942662E+01 -0.83921966752E+00  0.14256980864E+04  0.14257351722E+04  0.10000000000E+02 0. -1.
</event>
<event>
 5    1  0.1535793E-008  0.3802918E+03  0.7957747E-01  0.3449889E+00
         13   -1    0    0    0    0  0.00000000000E+00  0.00000000000E+00  0.14999999963E+04  0.15000000000E+04  0.10566000000E+00 0. -1.
        994   -1    0    0    0    0 -0.00000000000E+00 -0.00000000000E+00  0.11368683772E-12  0.17120000000E+03  0.17120000000E+03 0.  0.
         13    1    1    2    0    0  0.14915889552E+02  0.10473444711E+02  0.39957330975E+02  0.43917835419E+02  0.10566000000E+00 0. -1.
        994    1    1    2    0    0 -0.10452048238E+02 -0.86949449399E+01  0.46034827871E+01  0.17180069684E+03  0.17120000000E+03 0.  0.
        998    1    1    2    0    0 -0.44638413136E+01 -0.17784997712E+01  0.14554391825E+04  0.14554814677E+04  0.10000000000E+02 0. -1.
</event>
<event>
 5    1  0.1535793E-008  0.3855688E+03  0.7957747E-01  0.3427263E+00
         13   -1    0    0    0    0  0.00000000000E+00  0.00000000000E+00  0.14999999963E+04  0.15000000000E+04  0.10566000000E+00 0. -1.
        994   -1    0    0    0    0 -0.00000000000E+00 -0.00000000000E+00  0.11368683772E-12  0.17120000000E+03  0.17120000000E+03 0.  0.
         13    1    1    2    0    0  0.18018168604E+02  0.10833036415E+01  0.10677794372E+03  0.10829297473E+03  0.10566000000E+00 0. -1.
        994    1    1    2    0    0 -0.26419789058E+02  0.11538818082E+01  0.36470087520E+01  0.17326880091E+03  0.17120000000E+03 0.  0.
        998    1    1    2    0    0  0.84016204538E+01 -0.22371854497E+01  0.13895750438E+04  0.13896382244E+04  0.10000000000E+02 0. -1.
</event>
<event>
 5    1  0.1535793E-008  0.3846050E+03  0.7957747E-01  0.3431349E+00
         13   -1    0    0    0    0  0.00000000000E+00  0.00000000000E+00  0.14999999963E+04  0.15000000000E+04  0.10566000000E+00 0.  1.
        994   -1    0    0    0    0 -0.00000000000E+00 -0.00000000000E+00  0.11368683772E-12  0.17120000000E+03  0.17120000000E+03 0.  0.
         13    1    1    2    0    0  0.19005207982E+02 -0.28649341099E+01  0.11174208953E+03  0.11338303010E+03  0.10566000000E+00 0.  1.
        994    1    1    2    0    0 -0.32826394835E+01 -0.20111237024E+02  0.31948689894E+01  0.17243806066E+03  0.17120000000E+03 0.  0.
        998    1    1    2    0    0 -0.15722568499E+02  0.22976171134E+02  0.13850630378E+04  0.13853789092E+04  0.10000000000E+02 0.  1.
</event>
<event>
 5    1  0.1535793E-008  0.3821961E+03  0.7957747E-01  0.3441652E+00
         13   -1    0    0    0    0  0.00000000000E+00  0.00000000000E+00  0.14999999963E+04  0.15000000000E+04  0.10566000000E+00 0. -1.
        994   -1    0    0    0    0 -0.00000000000E+00 -0.00000000000E+00  0.11368683772E-12  0.17120000000E+03  0.17120000000E+03 0.  0.
         13    1    1    2    0    0  0.15458004764E+02 -0.92283446260E+01  0.52947753735E+02  0.55924842829E+02  0.10566000000E+00 0. -1.
        994    1    1    2    0    0 -0.10632572983E+02  0.14024025456E+01  0.34104848597E+01  0.17156948956E+03  0.17120000000E+03 0.  0.
        998    1    1    2    0    0 -0.48254317810E+01  0.78259420803E+01  0.14436417577E+04  0.14437056676E+04  0.10000000000E+02 0. -1.
</event>
<event>
 5    1  0.1535793E-008  0.3845516E+03  0.7957747E-01  0.3431576E+00
         13   -1    0    0    0    0  0.00000000000E+00  0.00000000000E+00  0.14999999963E+04  0.15000000000E+04  0.10566000000E+00 0.  1.
        994   -1    0    0    0    0 -0.00000000000E+00 -0.00000000000E+00  0.11368683772E-12  0.17120000000E+03  0.17120000000E+03 0.  0.
         13    1    1    2    0    0 -0.17333131710E+00  0.12181027677E+02  0.39699932057E+02  0.41527138697E+02  0.10566000000E+00 0.  1.
        994    1    1    2    0    0 -0.16127029515E+01 -0.83876973811E+01  0.20932341730E+01  0.17142571542E+03  0.17120000000E+03 0.  0.
        998    1    1    2    0    0  0.17860342686E+01 -0.37933302956E+01  0.14582068300E+04  0.14582471459E+04  0.10000000000E+02 0.  1.
</event>
<event>
 5    1  0.1535793E-008  0.3829295E+03  0.7957747E-01  0.3438501E+00
         13   -1    0    0    0    0  0.00000000000E+00  0.00000000000E+00  0.14999999963E+04  0.15000000000E+04  0.10566000000E+00 0. -1.
        994   -1    0    0    0    0 -0.00000000000E+00 -0.00000000000E+00  0.11368683772E-12  0.17120000000E+03  0.17120000000E+03 0.  0.
         13    1    1    2    0    0 -0.26323715679E+02 -0.50120865592E+01  0.15643682586E+03  0.15871531328E+03  0.10566000000E+00 0. -1.
        994    1    1    2    0    0 -0.36325986050E+01  0.39822002364E+01  0.27577927108E+01  0.17130703171E+03  0.17120000000E+03 0.  0.
        998    1    1    2    0    0  0.29956314284E+02  0.10298863227E+01  0.13408053777E+04  0.13411776550E+04  0.10000000000E+02 0. -1.
</event>
<event>
 5    1  0.1535793E-008  0.3841037E+03  0.7957747E-01  0.3433482E+00
         13   -1    0    0    0    0  0.00000000000E+00  0.00000000000E+00  0.14999999963E+04  0.15000000000E+04  0.10566000000E+00 0. -1.
        994   -1    0    0    0    0 -0.00000000000E+00 -0.00000000000E+00  0.11368683772E-12  0.17120000000E+03  0.17120000000E+03 0.  0.
         13    1    1    2    0    0 -0.54635140644E+01 -0.19061098600E+02  0.93486313973E+02  0.95566089854E+02  0.10566000000E+00 0. -1.
        994    1    1    2    0    0  0.11096560031E+02  0.11312195901E+02  0.29044031185E+01  0.17195631706E+03  0.17120000000E+03 0.  0.
        998    1    1    2    0    0 -0.56330459671E+01  0.77489026984E+01  0.14036092792E+04  0.14036775931E+04  0.10000000000E+02 0. -1.
</event>
<event>
 5    1  0.1535793E-008  0.3850227E+03  0.7957747E-01  0.3429576E+00
         13   -1    0    0    0    0  0.00000000000E+00  0.00000000000E+00  0.14999999963E+04  0.15000000000E+04  0.10566000000E+00 0. -1.
        994   -1    0    0    0    0 -0.00000000000E+00 -0.00000000000E+00  0.11368683772E-12  0.17120000000E+03  0.17120000000E+03 0.  0.
         13    1    1    2    0    0  0.17733967522E+02 -0.11383376589E+01  0.96584454777E+02  0.98205689679E+02  0.10566000000E+00 0. -1.
        994    1    1    2    0    0 -0.12772480731E+02 -0.30260053355E-01  0.21555058424E+01  0.17168932228E+03  0.17120000000E+03 0.  0.
        998    1    1    2    0    0 -0.49614867909E+01  0.11685977123E+01  0.14012600357E+04  0.14013049880E+04  0.10000000000E+02 0. -1.
</event>
<event>
 5    1  0.1535793E-008  0.3852417E+03  0.7957747E-01  0.3428648E+00
         13   -1    0    0    0    0  0.00000000000E+00  0.00000000000E+00  0.14999999963E+04  0.15000000000E+04  0.10566000000E+00 0. -1.
        994   -1    0    0    0    0 -0.00000000000E+00 -0.00000000000E+00  0.11368683772E-12  0.17120000000E+03  0.17120000000E+03 0.  0.
         13    1    1    2    0    0  0.32255404914E+01  0.14028211746E+02  0.69756322079E+02  0.71226051907E+02  0.10566000000E+00 0. -1.
        994    1    1    2    0    0 -0.53121357825E+01 -0.63815428007E+01  0.17367487369E+01  0.17141003229E+03  0.17120000000E+03 0.  0.
        998    1    1    2    0    0  0.20865952911E+01 -0.76466689450E+01  0.14285069255E+04  0.14285639158E+04  0.10000000000E+02 0. -1.
</event>
<event>
 5    1  0.1635353E-008  0.3846200E+03  0.7957747E-01  0.3431285E+00
         13   -1    0    0    0    0  0.00000000000E+00  0.00000000000E+00  0.14999999963E+04  0.15000000000E+04  0.10566000000E+00 0. -1.
        994   -1    0    0    0    0 -0.00000000000E+00 -0.00000000000E+00  0.11368683772E-12  0.17120000000E+03  0.17120000000E+03 0.  0.
         13    1    1    2    0    0  0.75397939965E+01 -0.75057124608E+01  0.30532963825E+02  0.32333531465E+02  0.10566000000E+00 0. -1.
        994    1    1    2    0    0 -0.83520270537E+01  0.41720244781E+01  0.21059563862E+01  0.17146730649E+03  0.17120000000E+03 0.  0.
        998    1    1    2    0    0  0.81223305727E+00  0.33336879827E+01  0.14673610761E+04  0.14673991620E+04  0.10000000000E+02 0. -1.
</event>
<event>
 5    1  0.1535793E-008  0.3824248E+03  0.7957747E-01  0.3440668E+00
         13   -1    0    0    0    0  0.00000000000E+00  0.00000000000E+00  0.14999999963E+04  0.15000000000E+04  0.10566000000E+00 0.  1.
        994   -1    0    0    0    0 -0.00000000000E+00 -0.00000000000E+00  0.11368683772E-12  0.17120000000E+03  0.17120000000E+03 0.  0.
         13    1    1    2    0    0 -0.12029689696E+03 -0.30405879354E+02  0.51363142058E+03  0.52840619630E+03  0.10566000000E+00 0.  1.
        994    1    1    2    0    0  0.42728894505E+02  0.38242297471E+02  0.29787662273E+02  0.18298900668E+03  0.17120000000E+03 0.  0.
        998    1    1    2    0    0  0.77568002456E+02 -0.78364181168E+01  0.95658091343E+03  0.95980479702E+03  0.10000000000E+02 0.  1.
</event>
<event>
 5    1  0.1535793E-008  0.3826345E+03  0.7957747E-01  0.3439767E+00
         13   -1    0    0    0    0  0.00000000000E+00  0.00000000000E+00  0.14999999963E+04  0.15000000000E+04  0.10566000000E+00 0. -1.
        994   -1    0    0    0    0 -0.00000000000E+00 -0.00000000000E+00  0.11368683772E-12  0.17120000000E+03  0.17120000000E+03 0.  0.
         13    1    1    2    0    0  0.12170542893E+02  0.12833818091E+01  0.25097226467E+02  0.27922233499E+02  0.10566000000E+00 0. -1.
        994    1    1    2    0    0 -0.15014397353E+02  0.44956652514E+00  0.35572814193E+01  0.17189452722E+03  0.17120000000E+03 0.  0.
        998    1    1    2    0    0  0.28438544598E+01 -0.17329483343E+01  0.14713454884E+04  0.14713832393E+04  0.10000000000E+02 0. -1.
</event>
<event>
 5    1  0.1535793E-008  0.3829555E+03  0.7957747E-01  0.3438390E+00
         13   -1    0    0    0    0  0.00000000000E+00  0.00000000000E+00  0.14999999963E+04  0.15000000000E+04  0.10566000000E+00 0. -1.
        994   -1    0    0    0    0 -0.00000000000E+00 -0.00000000000E+00  0.11368683772E-12  0.17120000000E+03  0.17120000000E+03 0.  0.
         13    1    1    2    0    0 -0.46158605193E+01 -0.24966474399E+02  0.11595115457E+03  0.11869840952E+03  0.10566000000E+00 0. -1.
        994    1    1    2    0    0 -0.21961013642E+01  0.22550275382E+02  0.43499243969E+01  0.17274750251E+03  0.17120000000E+03 0.  0.
        998    1    1    2    0    0  0.68119618835E+01  0.24161990178E+01  0.13796989173E+04  0.13797540880E+04  0.10000000000E+02 0. -1.
</event>
<event>
 5    1  0.1535793E-008  0.3717895E+03  0.7957747E-01  0.3487707E+00
         13   -1    0    0    0    0  0.00000000000E+00  0.00000000000E+00  0.14999999963E+04  0.15000000000E+04  0.10566000000E+00 0.  1.
        994   -1    0    0    0    0 -0.00000000000E+00 -0.00000000000E+00  0.11368683772E-12  0.17120000000E+03  0.17120000000E+03 0.  0.
         13    1    1    2    0    0 -0.68114948002E+02 -0.21344040317E+02  0.40809659878E+03  0.41429223901E+03  0.10566000000E+00 0.  1.
        994    1    1    2    0    0  0.22046374123E+01  0.18129622311E+02  0.94837204296E+01  0.17243237685E+03  0.17120000000E+03 0.  0.
        998    1    1    2    0    0  0.65910310590E+02  0.32144180056E+01  0.10824196771E+04  0.10844753841E+04  0.10000000000E+02 0.  1.
</event>
<event>
 5    1  0.1535793E-008  0.3850441E+03  0.7957747E-01  0.3429485E+00
         13   -1    0    0    0    0  0.00000000000E+00  0.00000000000E+00  0.14999999963E+04  0.15000000000E+04  0.10566000000E+00 0. -1.
        994   -1    0    0    0    0 -0.00000000000E+00 -0.00000000000E+00  0.11368683772E-12  0.17120000000E+03  0.17120000000E+03 0.  0.
         13    1    1    2    0    0 -0.10526033510E+02 -0.50057637918E+01  0.42980809255E+02  0.44533315404E+02  0.10566000000E+00 0. -1.
        994    1    1    2    0    0  0.65587042078E+01 -0.41249386944E+01  0.18056621065E+01  0.17138474884E+03  0.17120000000E+03 0.  0.
        998    1    1    2    0    0  0.39673293025E+01  0.91307024862E+01  0.14552135249E+04  0.14552819358E+04  0.10000000000E+02 0. -1.
</event>
<event>
 5    1  0.1535793E-008  0.3797893E+03  0.7957747E-01  0.3452077E+00
         13   -1    0    0    0    0  0.00000000000E+00  0.00000000000E+00  0.14999999963E+04  0.15000000000E+04  0.10566000000E+00 0. -1.
        994   -1    0    0    0    0 -0.00000000000E+00 -0.00000000000E+00  0.11368683772E-12  0.17120000000E+03  0.17120000000E+03 0.  0.
         13    1    1    2    0    0 -0.29832531816E+02 -0.19061064774E+02  0.13146830424E+03  0.13615149771E+03  0.10566000000E+00 0. -1.
        994    1    1    2    0    0  0.30765348594E+02  0.25451331500E+02  0.95913131247E+01  0.17605598609E+03  0.17120000000E+03 0.  0.
        998    1    1    2    0    0 -0.93281677766E+00 -0.63902667259E+01  0.13589403789E+04  0.13589925162E+04  0.10000000000E+02 0. -1.
</event>
<event>
 5    1  0.1535793E-008  0.3762503E+03  0.7957747E-01  0.3467650E+00
         13   -1    0    0    0    0  0.00000000000E+00  0.00000000000E+00  0.14999999963E+04  0.15000000000E+04  0.10566000000E+00 0.  1.
        994   -1    0    0    0    0 -0.00000000000E+00 -0.00000000000E+00  0.11368683772E-12  0.17120000000E+03  0.17120000000E+03 0.  0.
         13    1    1    2    0    0 -0.92602780960E+01  0.97606587824E+01  0.12004244010E+02  0.18031534836E+02  0.10566000000E+00 0.  1.
        994    1    1    2    0    0  0.93004376735E+01 -0.19424998159E+02  0.76096453467E+01  0.17271703852E+03  0.17120000000E+03 0.  0.
        998    1    1    2    0    0 -0.40159577505E-01  0.96643393770E+01  0.14803861069E+04  0.14804514266E+04  0.10000000000E+02 0.  1.
</event>
<event>
 5    1  0.1535793E-008  0.3732194E+03  0.7957747E-01  0.3481225E+00
         13   -1    0    0    0    0  0.00000000000E+00  0.00000000000E+00  0.14999999963E+04  0.15000000000E+04  0.10566000000E+00 0. -1.
        994   -1    0    0    0    0 -0.00000000000E+00 -0.00000000000E+00  0.11368683772E-12  0.17120000000E+03  0.17120000000E+03 0.  0.
         13    1    1    2    0    0  0.46813238940E+02 -0.41627381446E+02  0.16616141177E+03  0.17757799456E+03  0.10566000000E+00 0. -1.
        994    1    1    2    0    0 -0.62628752423E+01  0.17103077711E+02  0.13825155820E+02  0.17272033409E+03  0.17120000000E+03 0.  0.
        998    1    1    2    0    0 -0.40550363698E+02  0.24524303735E+02  0.13200134287E+04  0.13209016714E+04  0.10000000000E+02 0. -1.
</event>
<event>
 5    1  0.1535793E-008  0.3933018E+03  0.7957747E-01  0.3395209E+00
         13   -1    0    0    0    0  0.00000000000E+00  0.00000000000E+00  0.14999999963E+04  0.15000000000E+04  0.10566000000E+00 0. -1.
        994   -1    0    0    0    0 -0.00000000000E+00 -0.00000000000E+00  0.11368683772E-12  0.17120000000E+03  0.17120000000E+03 0.  0.
         13    1    1    2    0    0  0.81230988557E+01 -0.99854189892E+01 -0.74407440931E+01  0.14868394806E+02  0.10566000000E+00 0. -1.
        994    1    1    2    0    0 -0.22323159798E+02  0.90424604717E+01  0.26048456707E+02  0.17483721472E+03  0.17120000000E+03 0.  0.
        998    1    1    2    0    0  0.14200060942E+02  0.94295851750E+00  0.14813922837E+04  0.14814943905E+04  0.10000000000E+02 0. -1.
</event>
<event>
 5    1  0.1535793E-008  0.3827413E+03  0.7957747E-01  0.3439309E+00
         13   -1    0    0    0    0  0.00000000000E+00  0.00000000000E+00  0.14999999963E+04  0.15000000000E+04  0.10566000000E+00 0. -1.
        994   -1    0    0    0    0 -0.00000000000E+00 -0.00000000000E+00  0.11368683772E-12  0.17120000000E+03  0.17120000000E+03 0.  0.
         13    1    1    2    0    0 -0.64418939706E+01  0.79710190960E+01  0.17813024189E+02  0.20551159047E+02  0.10566000000E+00 0. -1.
        994    1    1    2    0    0  0.27637238932E+01 -0.11442097317E+02  0.32148916361E+01  0.17163430685E+03  0.17120000000E+03 0.  0.
        998    1    1    2    0    0  0.36781700773E+01  0.34710782207E+01  0.14789720805E+04  0.14790145341E+04  0.10000000000E+02 0. -1.
</event>
<event>
 5    1  0.1535793E-008  0.3930402E+03  0.7957747E-01  0.3396273E+00
         13   -1    0    0    0    0  0.00000000000E+00  0.00000000000E+00  0.14999999963E+04  0.15000000000E+04  0.10566000000E+00 0. -1.
        994   -1    0    0    0    0 -0.00000000000E+00 -0.00000000000E+00  0.11368683772E-12  0.17120000000E+03  0.17120000000E+03 0.  0.
         13    1    1    2    0    0 -0.51810944946E+02  0.10995732160E+03  0.24568704325E+03  0.27411151193E+03  0.10566000000E+00 0. -1.
        994    1    1    2    0    0  0.57850643581E+02 -0.11130124204E+03  0.86451744607E+02  0.22916807716E+03  0.17120000000E+03 0.  0.
        998    1    1    2    0    0 -0.60396986354E+01  0.13439204368E+01  0.11678612084E+04  0.11679204109E+04  0.10000000000E+02 0. -1.
</event>
<event>
 5    1  0.1535793E-008  0.3805736E+03  0.7957747E-01  0.3448665E+00
         13   -1    0    0    0    0  0.00000000000E+00  0.00000000000E+00  0.14999999963E+04  0.15000000000E+04  0.10566000000E+00 0.  1.
        994   -1    0    0    0    0 -0.00000000000E+00 -0.00000000000E+00  0.11368683772E-12  0.17120000000E+03  0.17120000000E+03 0.  0.
         13    1    1    2    0    0 -0.19744781368E+02  0.24467348506E+02  0.10614385500E+03  0.11070246904E+03  0.10566000000E+00 0.  1.
        994    1    1    2    0    0  0.28062368156E+02 -0.45282696446E+02  0.13371865859E+02  0.17979506640E+03  0.17120000000E+03 0.  0.
        998    1    1    2    0    0 -0.83175867874E+01  0.20815347940E+02  0.13804842754E+04  0.13807024646E+04  0.10000000000E+02 0.  1.
</event>
<event>
 5    1  0.1535793E-008  0.3782820E+03  0.7957747E-01  0.3458673E+00
         13   -1    0    0    0    0  0.00000000000E+00  0.00000000000E+00  0.14999999963E+04  0.15000000000E+04  0.10566000000E+00 0. -1.
        994   -1    0    0    0    0 -0.00000000000E+00 -0.00000000000E+00  0.11368683772E-12  0.17120000000E+03  0.17120000000E+03 0.  0.
         13    1    1    2    0    0  0.19970196657E+01 -0.27904253618E+02  0.77493653833E+02  0.82388791750E+02  0.10566000000E+00 0. -1.
        994    1    1    2    0    0 -0.15435185881E+01  0.14028980469E+02  0.56728536399E+01  0.17187441930E+03  0.17120000000E+03 0.  0.
        998    1    1    2    0    0 -0.45350107768E+00  0.13875273149E+02  0.14168334888E+04  0.14169367889E+04  0.10000000000E+02 0. -1.
</event>
<event>
 5    1  0.1535793E-008  0.3794435E+03  0.7957747E-01  0.3453585E+00
         13   -1    0    0    0    0  0.00000000000E+00  0.00000000000E+00  0.14999999963E+04  0.15000000000E+04  0.10566000000E+00 0.  1.
        994   -1    0    0    0    0 -0.00000000000E+00 -0.00000000000E+00  0.11368683772E-12  0.17120000000E+03  0.17120000000E+03 0.  0.
         13    1    1    2    0    0 -0.21684078768E+02  0.40401326759E+02  0.27144943474E+03  0.27529488419E+03  0.10566000000E+00 0.  1.
        994    1    1    2    0    0 -0.25047290962E+02 -0.28048367806E+02  0.91647549568E+01  0.17552068384E+03  0.17120000000E+03 0.  0.
        998    1    1    2    0    0  0.46731369730E+02 -0.12352958952E+02  0.12193858066E+04  0.12203844320E+04  0.10000000000E+02 0.  1.
</event>
<event>
 5    1  0.1535793E-008  0.3839592E+03  0.7957747E-01  0.3434099E+00
         13   -1    0    0    0    0  0.00000000000E+00  0.00000000000E+00  0.14999999963E+04  0.15000000000E+04  0.10566000000E+00 0.  1.
        994   -1    0    0    0    0 -0.00000000000E+00 -0.00000000000E+00  0.11368683772E-12  0.17120000000E+03  0.17120000000E+03 0.  0.
         13    1    1    2    0    0  0.87040443852E+00  0.16956333034E+02  0.69036666954E+02  0.71093933510E+02  0.10566000000E+00 0.  1.
        994    1    1    2    0    0 -0.35972704227E+01 -0.48090407520E+01  0.22668008411E+01  0.17132030123E+03  0.17120000000E+03 0.  0.
        998    1    1    2    0    0  0.27268659842E+01 -0.12147292282E+02  0.14286965285E+04  0.14287857653E+04  0.10000000000E+02 0.  1.
</event>
<event>
 5    1  0.1535793E-008  0.3860123E+03  0.7957747E-01  0.3425390E+00
         13   -1    0    0    0    0  0.00000000000E+00  0.00000000000E+00  0.14999999963E+04  0.15000000000E+04  0.10566000000E+00 0.  1.
        994   -1    0    0    0    0 -0.00000000000E+00 -0.00000000000E+00  0.11368683772E-12  0.17120000000E+03  0.17120000000E+03 0.  0.
         13    1    1    2    0    0 -0.13558401228E+02 -0.47144927696E+02  0.64305867902E+02  0.80880963533E+02  0.10566000000E+00 0.  1.
        994    1    1    2    0    0  0.41712285367E+02 -0.47201870779E+02  0.34524865579E+02  0.18565919772E+03  0.17120000000E+03 0.  0.
        998    1    1    2    0    0 -0.28153884139E+02  0.94346798475E+02  0.14011692628E+04  0.14046598387E+04  0.10000000000E+02 0.  1.
</event>
<event>
 5    1  0.1535793E-008  0.3818063E+03  0.7957747E-01  0.3443331E+00
         13   -1    0    0    0    0  0.00000000000E+00  0.00000000000E+00  0.14999999963E+04  0.15000000000E+04  0.10566000000E+00 0. -1.
        994   -1    0    0    0    0 -0.00000000000E+00 -0.00000000000E+00  0.11368683772E-12  0.17120000000E+03  0.17120000000E+03 0.  0.
         13    1    1    2    0    0  0.32295499253E+02 -0.35610880953E+01  0.15173590851E+03  0.15517563505E+03  0.10566000000E+00 0. -1.
        994    1    1    2    0    0 -0.29662891551E+02 -0.34612625926E+01  0.61934946851E+01  0.17389556306E+03  0.17120000000E+03 0.  0.
        998    1    1    2    0    0 -0.26326077012E+01  0.70223506879E+01  0.13420705931E+04  0.13421288019E+04  0.10000000000E+02 0. -1.
</event>
<event>
 5    1  0.1535793E-008  0.3815335E+03  0.7957747E-01  0.3444508E+00
         13   -1    0    0    0    0  0.00000000000E+00  0.00000000000E+00  0.14999999963E+04  0.15000000000E+04  0.10566000000E+00 0.  1.
        994   -1    0    0    0    0 -0.00000000000E+00 -0.00000000000E+00  0.11368683772E-12  0.17120000000E+03  0.17120000000E+03 0.  0.
         13    1    1    2    0    0 -0.95325975041E+01 -0.10974462864E+02  0.30953682624E+02  0.34197235010E+02  0.10566000000E+00 0.  1.
        994    1    1    2    0    0 -0.37507574268E+01  0.61588802661E+01  0.35340159602E+01  0.17138824130E+03  0.17120000000E+03 0.  0.
        998    1    1    2    0    0  0.13283354931E+02  0.48155825977E+01  0.14655122977E+04  0.14656145237E+04  0.10000000000E+02 0.  1.
</event>
<event>
 5    1  0.1535793E-008  0.3736034E+03  0.7957747E-01  0.3479493E+00
         13   -1    0    0    0    0  0.00000000000E+00  0.00000000000E+00  0.14999999963E+04  0.15000000000E+04  0.10566000000E+00 0. -1.
        994   -1    0    0    0    0 -0.00000000000E+00 -0.00000000000E+00  0.11368683772E-12  0.17120000000E+03  0.17120000000E+03 0.  0.
         13    1    1    2    0    0  0.39632380713E+02  0.16719280362E+02  0.13241311289E+03  0.13922465143E+03  0.10566000000E+00 0. -1.
        994    1    1    2    0    0 -0.97083134215E+01 -0.76042210409E+00  0.77216072312E+01  0.17165049609E+03  0.17120000000E+03 0.  0.
        998    1    1    2    0    0 -0.29924067292E+02 -0.15958858258E+02  0.13598652762E+04  0.13603248525E+04  0.10000000000E+02 0. -1.
</event>
<event>
 5    1  0.1535793E-008  0.3860326E+03  0.7957747E-01  0.3425304E+00
         13   -1    0    0    0    0  0.00000000000E+00  0.00000000000E+00  0.14999999963E+04  0.15000000000E+04  0.10566000000E+00 0. -1.
        994   -1    0    0    0    0 -0.00000000000E+00 -0.00000000000E+00  0.11368683772E-12  0.17120000000E+03  0.17120000000E+03 0.  0.
         13    1    1    2    0    0 -0.42361232256E+01 -0.11538592894E+02  0.69175263331E+02  0.70258893294E+02  0.10566000000E+00 0. -1.
        994    1    1    2    0    0  0.14872941652E+00  0.70667877845E+01  0.12820895921E+01  0.17135065032E+03  0.17120000000E+03 0.  0.
        998    1    1    2    0    0  0.40873938091E+01  0.44718051091E+01  0.14295426434E+04  0.14295904564E+04  0.10000000000E+02 0. -1.
</event>
<event>
 5    1  0.1535793E-008  0.3825044E+03  0.7957747E-01  0.3440326E+00
         13   -1    0    0    0    0  0.00000000000E+00  0.00000000000E+00  0.14999999963E+04  0.15000000000E+04  0.10566000000E+00 0. -1.
        994   -1    0    0    0    0 -0.00000000000E+00 -0.00000000000E+00  0.11368683772E-12  0.17120000000E+03  0.17120000000E+03 0.  0.
         13    1    1    2    0    0  0.15718970886E+02  0.96820166627E+01  0.58993320170E+02  0.61814646170E+02  0.10566000000E+00 0. -1.
        994    1    1    2    0    0 -0.10038544353E+02 -0.23182448900E+01  0.32262441097E+01  0.17154006903E+03  0.17120000000E+03 0.  0.
        998    1    1    2    0    0 -0.56804265337E+01 -0.73637717727E+01  0.14377804320E+04  0.14378452848E+04  0.10000000000E+02 0. -1.
</event>
<event>
 5    1  0.1535793E-008  0.3839405E+03  0.7957747E-01  0.3434178E+00
         13   -1    0    0    0    0  0.00000000000E+00  0.00000000000E+00  0.14999999963E+04  0.15000000000E+04  0.10566000000E+00 0.  1.
        994   -1    0    0    0    0 -0.00000000000E+00 -0.00000000000E+00  0.11368683772E-12  0.17120000000E+03  0.17120000000E+03 0.  0.
         13    1    1    2    0    0  0.11102390865E+02  0.11303989591E+02  0.64698110487E+02  0.66610058762E+02  0.10566000000E+00 0.  1.
        994    1    1    2    0    0 -0.83025889716E+01  0.21241025196E+02  0.38753450986E+01  0.17275581737E+03  0.17120000000E+03 0.  0.
        998    1    1    2    0    0 -0.27998018934E+01 -0.32545014787E+02  0.14314265407E+04  0.14318341239E+04  0.10000000000E+02 0.  1.
</event>
<event>
 5    1  0.1842645E-008  0.3851848E+03  0.7957747E-01  0.3428889E+00
         13   -1    0    0    0    0  0.00000000000E+00  0.00000000000E+00  0.14999999963E+04  0.15000000000E+04  0.10566000000E+00 0.  1.
        994   -1    0    0    0    0 -0.00000000000E+00 -0.00000000000E+00  0.11368683772E-12  0.17120000000E+03  0.17120000000E+03 0.  0.
         13    1    1    2    0    0 -0.11901136372E+02 -0.70322044296E+01  0.60002166501E+02  0.61574021266E+02  0.10566000000E+00 0.  1.
        994    1    1    2    0    0  0.12898349054E+02  0.76133205562E+01  0.22760837284E+01  0.17186899259E+03  0.17120000000E+03 0.  0.
        998    1    1    2    0    0 -0.99721268163E+00 -0.58111612656E+00  0.14377217460E+04  0.14377569861E+04  0.10000000000E+02 0.  0.
</event>
<event>
 5    1  0.1535793E-008  0.3806454E+03  0.7957747E-01  0.3448353E+00
         13   -1    0    0    0    0  0.00000000000E+00  0.00000000000E+00  0.14999999963E+04  0.15000000000E+04  0.10566000000E+00 0. -1.
        994   -1    0    0    0    0 -0.00000000000E+00 -0.00000000000E+00  0.11368683772E-12  0.17120000000E+03  0.17120000000E+03 0.  0.
         13    1    1    2    0    0  0.27326541628E+02 -0.27252359189E+02  0.17195636486E+03  0.17623403059E+03  0.10566000000E+00 0. -1.
        994    1    1    2    0    0 -0.39108599956E+02  0.17970741680E+02  0.10011870722E+02  0.17681093773E+03  0.17120000000E+03 0.  0.
        998    1    1    2    0    0  0.11782058328E+02  0.92816175085E+01  0.13180317607E+04  0.13181550317E+04  0.10000000000E+02 0. -1.
</event>
<event>
 5    1  0.1535793E-008  0.3852492E+03  0.7957747E-01  0.3428616E+00
         13   -1    0    0    0    0  0.00000000000E+00  0.00000000000E+00  0.14999999963E+04  0.15000000000E+04  0.10566000000E+00 0. -1.
        994   -1    0    0    0    0 -0.00000000000E+00 -0.00000000000E+00  0.11368683772E-12  0.17120000000E+03  0.17120000000E+03 0.  0.
         13    1    1    2    0    0  0.46908034434E+01 -0.15754795744E+02  0.93694795103E+02  0.95125932423E+02  0.10566000000E+00 0. -1.
        994    1    1    2    0    0  0.21849630593E+00  0.57465272131E+01  0.16151300190E+01  0.17130417088E+03  0.17120000000E+03 0.  0.
        998    1    1    2    0    0 -0.49092997493E+01  0.10008268530E+02  0.14046900712E+04  0.14047698967E+04  0.10000000000E+02 0. -1.
</event>
<event>
 5    1  0.1535793E-008  0.3826802E+03  0.7957747E-01  0.3439571E+00
         13   -1    0    0    0    0  0.00000000000E+00  0.00000000000E+00  0.14999999963E+04  0.15000000000E+04  0.10566000000E+00 0.  1.
        994   -1    0    0    0    0 -0.00000000000E+00 -0.00000000000E+00  0.11368683772E-12  0.17120000000E+03  0.17120000000E+03 0.  0.
         13    1    1    2    0    0 -0.18447457262E+02  0.26173270569E+02  0.13468675938E+03  0.13844090106E+03  0.10566000000E+00 0.  1.
        994    1    1    2    0    0  0.26265453694E+02 -0.60294907594E+02  0.17253319916E+02  0.18420767353E+03  0.17120000000E+03 0.  0.
        998    1    1    2    0    0 -0.78179964325E+01  0.34121637025E+02  0.13480599170E+04  0.13485514254E+04  0.10000000000E+02 0.  1.
</event>
<event>
 5    1  0.1535793E-008  0.3844947E+03  0.7957747E-01  0.3431818E+00
         13   -1    0    0    0    0  0.00000000000E+00  0.00000000000E+00  0.14999999963E+04  0.15000000000E+04  0.10566000000E+00 0. -1.
        994   -1    0    0    0    0 -0.00000000000E+00 -0.00000000000E+00  0.11368683772E-12  0.17120000000E+03  0.17120000000E+03 0.  0.
         13    1    1    2    0    0 -0.63102329013E+01  0.16593825317E+02  0.86564686007E+02  0.88366453508E+02  0.10566000000E+00 0. -1.
        994    1    1    2    0    0 -0.20156173518E+00 -0.67742697229E+01  0.20325156701E+01  0.17134614813E+03  0.17120000000E+03 0.  0.
        998    1    1    2    0    0  0.65117946365E+01 -0.98195555936E+01  0.14114027946E+04  0.14114873984E+04  0.10000000000E+02 0. -1.
</event>
<event>
 5    1  0.1535793E-008  0.3785812E+03  0.7957747E-01  0.3457360E+00
         13   -1    0    0    0    0  0.00000000000E+00  0.00000000000E+00  0.14999999963E+04  0.15000000000E+04  0.10566000000E+00 0.  1.
        994   -1    0    0    0    0 -0.00000000000E+00 -0.00000000000E+00  0.11368683772E-12  0.17120000000E+03  0.17120000000E+03 0.  0.
         13    1    1    2    0    0 -0.34752415592E+02  0.46390416943E+02  0.27598686300E+03  0.28200808656E+03  0.10566000000E+00 0.  1.
        994    1    1    2    0    0  0.53397809137E+02 -0.36865472474E+02  0.19125016665E+02  0.18408040456E+03  0.17120000000E+03 0.  0.
        998    1    1    2    0    0 -0.18645393545E+02 -0.95249444686E+01  0.12048881166E+04  0.12051115089E+04  0.10000000000E+02 0.  1.
</event>
<event>
 5    1  0.1535793E-008  0.2812901E+03  0.7957747E-01  0.4039363E+00
         13   -1    0    0    0    0  0.00000000000E+00  0.00000000000E+00  0.14999999963E+04  0.15000000000E+04  0.10566000000E+00 0.  1.
        994   -1    0    0    0    0 -0.00000000000E+00 -0.00000000000E+00  0.11368683772E-12  0.17120000000E+03  0.17120000000E+03 0.  0.
         13    1    1    2    0    0  0.12956458398E+03  0.15874519143E+03  0.29114614603E+03  0.35602402551E+03  0.10566000000E+00 0.  1.
        994    1    1    2    0    0 -0.15785291217E+03 -0.19032524805E+03  0.37738198375E+03  0.48256382333E+03  0.17120000000E+03 0.  0.
        998    1    1    2    0    0  0.28288328190E+02  0.31580056617E+02  0.83147186649E+03  0.83261215116E+03  0.10000000000E+02 0. -1.
</event>
<event>
 5    1  0.1535793E-008  0.3823891E+03  0.7957747E-01  0.3440821E+00
         13   -1    0    0    0    0  0.00000000000E+00  0.00000000000E+00  0.14999999963E+04  0.15000000000E+04  0.10566000000E+00 0.  1.
        994   -1    0    0    0    0 -0.00000000000E+00 -0.00000000000E+00  0.11368683772E-12  0.17120000000E+03  0.17120000000E+03 0.  0.
         13    1    1    2    0    0 -0.60159727026E+01 -0.10789914686E+02  0.25546702931E+02  0.28377092542E+02  0.10566000000E+00 0.  1.
        994    1    1    2    0    0  0.71670029194E+01 -0.27182887692E+01  0.31268609389E+01  0.17140003583E+03  0.17120000000E+03 0.  0.
        998    1    1    2    0    0 -0.11510302168E+01  0.13508203455E+02  0.14713264324E+04  0.14714228716E+04  0.10000000000E+02 0.  1.
</event>
<event>
 5    1  0.1535793E-008  0.3789739E+03  0.7957747E-01  0.3455638E+00
         13   -1    0    0    0    0  0.00000000000E+00  0.00000000000E+00  0.14999999963E+04  0.15000000000E+04  0.10566000000E+00 0.  1.
        994   -1    0    0    0    0 -0.00000000000E+00 -0.00000000000E+00  0.11368683772E-12  0.17120000000E+03  0.17120000000E+03 0.  0.
         13    1    1    2    0    0 -0.61274493321E+02  0.61608490535E+01  0.34179409097E+03  0.34729775608E+03  0.10566000000E+00 0.  1.
        994    1    1    2    0    0  0.63563650924E+02  0.44757018306E+02  0.25198468282E+02  0.18970485289E+03  0.17120000000E+03 0.  0.
        998    1    1    2    0    0 -0.22891576029E+01 -0.50917867359E+02  0.11330074370E+04  0.11341973910E+04  0.10000000000E+02 0.  1.
</event>
<event>
 5    1  0.1535793E-008  0.3852048E+03  0.7957747E-01  0.3428804E+00
         13   -1    0    0    0    0  0.00000000000E+00  0.00000000000E+00  0.14999999963E+04  0.15000000000E+04  0.10566000000E+00 0. -1.
        994   -1    0    0    0    0 -0.00000000000E+00 -0.00000000000E+00  0.11368683772E-12  0.17120000000E+03  0.17120000000E+03 0.  0.
         13    1    1    2    0    0 -0.19356491600E+02  0.31898298062E+01  0.11630431402E+03  0.11794724840E+03  0.10566000000E+00 0. -1.
        994    1    1    2    0    0  0.20995177968E+02 -0.63210552809E+01  0.31100457673E+01  0.17262637580E+03  0.17120000000E+03 0.  0.
        998    1    1    2    0    0 -0.16386863679E+01  0.31312254747E+01  0.13805856365E+04  0.13806263758E+04  0.10000000000E+02 0. -1.
</event>
<event>
 5    1  0.1535793E-008  0.3798609E+03  0.7957747E-01  0.3451764E+00
         13   -1    0    0    0    0  0.00000000000E+00  0.00000000000E+00  0.14999999963E+04  0.15000000000E+04  0.10566000000E+00 0.  1.
        994   -1    0    0    0    0 -0.00000000000E+00 -0.00000000000E+00  0.11368683772E-12  0.17120000000E+03  0.17120000000E+03 0.  0.
         13    1    1    2    0    0 -0.12627730613E+03  0.77102717566E+02  0.80367522903E+03  0.81718092980E+03  0.10566000000E+00 0.  1.
        994    1    1    2    0    0  0.14566246420E+03 -0.74191872221E+02  0.99472050048E+02  0.25676081501E+03  0.17120000000E+03 0.  0.
        998    1    1    2    0    0 -0.19385158070E+02 -0.29108453450E+01  0.59685271720E+03  0.59725825519E+03  0.10000000000E+02 0.  1.
</event>
<event>
 5    1  0.1535793E-008  0.3782177E+03  0.7957747E-01  0.3458956E+00
         13   -1    0    0    0    0  0.00000000000E+00  0.00000000000E+00  0.14999999963E+04  0.15000000000E+04  0.10566000000E+00 0. -1.
        994   -1    0    0    0    0 -0.00000000000E+00 -0.00000000000E+00  0.11368683772E-12  0.17120000000E+03  0.17120000000E+03 0.  0.
         13    1    1    2    0    0 -0.65439287891E+02  0.21287149090E+02  0.37094537742E+03  0.37727433958E+03  0.10566000000E+00 0. -1.
        994    1    1    2    0    0  0.59642062846E+02 -0.23582767799E+02  0.18994544879E+02  0.18380303407E+03  0.17120000000E+03 0.  0.
        998    1    1    2    0    0  0.57972250448E+01  0.22956187085E+01  0.11100600740E+04  0.11101226264E+04  0.10000000000E+02 0. -1.
</event>
<event>
 5    1  0.1535793E-008  0.3743336E+03  0.7957747E-01  0.3476208E+00
         13   -1    0    0    0    0  0.00000000000E+00  0.00000000000E+00  0.14999999963E+04  0.15000000000E+04  0.10566000000E+00 0. -1.
        994   -1    0    0    0    0 -0.00000000000E+00 -0.00000000000E+00  0.11368683772E-12  0.17120000000E+03  0.17120000000E+03 0.  0.
         13    1    1    2    0    0  0.23484728705E+02  0.13308014371E+02  0.47055854708E+02  0.54248505557E+02  0.10566000000E+00 0. -1.
        994    1    1    2    0    0 -0.31115662763E+02 -0.10021233550E+02  0.10670576932E+02  0.17461933113E+03  0.17120000000E+03 0.  0.
        998    1    1    2    0    0  0.76309340578E+01 -0.32867808204E+01  0.14422735646E+04  0.14423321633E+04  0.10000000000E+02 0. -1.
</event>
<event>
 5    1  0.1535793E-008  0.3860341E+03  0.7957747E-01  0.3425298E+00
         13   -1    0    0    0    0  0.00000000000E+00  0.00000000000E+00  0.14999999963E+04  0.15000000000E+04  0.10566000000E+00 0.  1.
        994   -1    0    0    0    0 -0.00000000000E+00 -0.00000000000E+00  0.11368683772E-12  0.17120000000E+03  0.17120000000E+03 0.  0.
         13    1    1    2    0    0 -0.66112000384E+01  0.88196450782E+01  0.55449957676E+02  0.56534972146E+02  0.10566000000E+00 0.  1.
        994    1    1    2    0    0  0.29319300048E+02  0.12377967823E+02  0.44443582570E+01  0.17418963162E+03  0.17120000000E+03 0.  0.
        998    1    1    2    0    0 -0.22708100009E+02 -0.21197612901E+02  0.14401056803E+04  0.14404753962E+04  0.10000000000E+02 0.  1.
</event>
<event>
 5    1  0.1535793E-008  0.3692583E+03  0.7957747E-01  0.3499306E+00
         13   -1    0    0    0    0  0.00000000000E+00  0.00000000000E+00  0.14999999963E+04  0.15000000000E+04  0.10566000000E+00 0. -1.
        994   -1    0    0    0    0 -0.00000000000E+00 -0.00000000000E+00  0.11368683772E-12  0.17120000000E+03  0.17120000000E+03 0.  0.
         13    1    1    2    0    0 -0.56862140504E+02 -0.44980305660E+02  0.31393046635E+03  0.32219385436E+03  0.10566000000E+00 0. -1.
        994    1    1    2    0    0  0.62166615885E+01  0.51328666988E+00  0.10682880764E+02  0.17164636403E+03  0.17120000000E+03 0.  0.
        998    1    1    2    0    0  0.50645478915E+02  0.44467018990E+02  0.11753866492E+04  0.11773597816E+04  0.10000000000E+02 0. -1.
</event>
<event>
 5    1  0.1535793E-008  0.3825131E+03  0.7957747E-01  0.3440288E+00
         13   -1    0    0    0    0  0.00000000000E+00  0.00000000000E+00  0.14999999963E+04  0.15000000000E+04  0.10566000000E+00 0.  1.
        994   -1    0    0    0    0 -0.00000000000E+00 -0.00000000000E+00  0.11368683772E-12  0.17120000000E+03  0.17120000000E+03 0.  0.
         13    1    1    2    0    0  0.76443711321E+01 -0.70225238834E+01  0.17703540190E+02  0.20522639962E+02  0.10566000000E+00 0.  1.
        994    1    1    2    0    0 -0.27837691229E+01  0.61091671326E+01  0.30193487523E+01  0.17135818557E+03  0.17120000000E+03 0.  0.
        998    1    1    2    0    0 -0.48606020092E+01  0.91335675079E+00  0.14792771073E+04  0.14793191745E+04  0.10000000000E+02 0.  1.
</event>
<event>
 5    1  0.1535793E-008  0.3861020E+03  0.7957747E-01  0.3425012E+00
         13   -1    0    0    0    0  0.00000000000E+00  0.00000000000E+00  0.14999999963E+04  0.15000000000E+04  0.10566000000E+00 0. -1.
        994   -1    0    0    0    0 -0.00000000000E+00 -0.00000000000E+00  0.11368683772E-12  0.17120000000E+03  0.17120000000E+03 0.  0.
         13    1    1    2    0    0  0.22684488894E+01 -0.10403944478E+02  0.49715977283E+02  0.50843657248E+02  0.10566000000E+00 0. -1.
        994    1    1    2    0    0 -0.10208447785E+02  0.15018029542E+02  0.21653087538E+01  0.17217398810E+03  0.17120000000E+03 0.  0.
        998    1    1    2    0    0  0.79399988959E+01 -0.46140850634E+01  0.14481187102E+04  0.14481823546E+04  0.10000000000E+02 0. -1.
</event>
<event>
 5    1  0.1535793E-008  0.3694348E+03  0.7957747E-01  0.3498492E+00
         13   -1    0    0    0    0  0.00000000000E+00  0.00000000000E+00  0.14999999963E+04  0.15000000000E+04  0.10566000000E+00 0.  1.
        994   -1    0    0    0    0 -0.00000000000E+00 -0.00000000000E+00  0.11368683772E-12  0.17120000000E+03  0.17120000000E+03 0.  0.
         13    1    1    2    0    0  0.15603604634E+01  0.18614865112E+02  0.13510370799E+02  0.23054049776E+02  0.10566000000E+00 0.  1.
        994    1    1    2    0    0  0.19510299450E+02 -0.31368233122E+02  0.14307158563E+02  0.17572351186E+03  0.17120000000E+03 0.  0.
        998    1    1    2    0    0 -0.21070659913E+02  0.12753368010E+02  0.14721824669E+04  0.14724224384E+04  0.10000000000E+02 0.  1.
</event>
<event>
 5    1  0.1535793E-008  0.3859627E+03  0.7957747E-01  0.3425600E+00
         13   -1    0    0    0    0  0.00000000000E+00  0.00000000000E+00  0.14999999963E+04  0.15000000000E+04  0.10566000000E+00 0.  1.
        994   -1    0    0    0    0 -0.00000000000E+00 -0.00000000000E+00  0.11368683772E-12  0.17120000000E+03  0.17120000000E+03 0.  0.
         13    1    1    2    0    0 -0.56215614045E+01  0.12167798422E+02  0.80789354639E+02  0.81893762022E+02  0.10566000000E+00 0.  1.
        994    1    1    2    0    0  0.13646695379E+01 -0.57253031587E+01  0.12665151023E+01  0.17130582442E+03  0.17120000000E+03 0.  0.
        998    1    1    2    0    0  0.42568918666E+01 -0.64424952636E+01  0.14179441265E+04  0.14180004136E+04  0.10000000000E+02 0.  1.
</event>
<event>
 5    1  0.1535793E-008  0.3786361E+03  0.7957747E-01  0.3457119E+00
         13   -1    0    0    0    0  0.00000000000E+00  0.00000000000E+00  0.14999999963E+04  0.15000000000E+04  0.10566000000E+00 0. -1.
        994   -1    0    0    0    0 -0.00000000000E+00 -0.00000000000E+00  0.11368683772E-12  0.17120000000E+03  0.17120000000E+03 0.  0.
         13    1    1    2    0    0 -0.56361557206E+01  0.10843062183E+02  0.13744391123E+02  0.18391783497E+02  0.10566000000E+00 0. -1.
        994    1    1    2    0    0  0.14164587055E+02  0.10878698987E+02  0.58950814703E+01  0.17223000204E+03  0.17120000000E+03 0.  0.
        998    1    1    2    0    0 -0.85284313341E+01 -0.21721761170E+02  0.14803605237E+04  0.14805782145E+04  0.10000000000E+02 0. -1.
</event>
<event>
 5    1  0.1535793E-008  0.3828712E+03  0.7957747E-01  0.3438751E+00
         13   -1    0    0    0    0  0.00000000000E+00  0.00000000000E+00  0.14999999963E+04  0.15000000000E+04  0.10566000000E+00 0.  1.
        994   -1    0    0    0    0 -0.00000000000E+00 -0.00000000000E+00  0.11368683772E-12  0.17120000000E+03  0.17120000000E+03 0.  0.
         13    1    1    2    0    0  0.89376427027E+01 -0.14319066786E+02  0.50413579926E+02  0.53164436757E+02  0.10566000000E+00 0.  1.
        994    1    1    2    0    0 -0.16462910466E+01  0.20899114700E+02  0.41474295917E+01  0.17252861920E+03  0.17120000000E+03 0.  0.
        998    1    1    2    0    0 -0.72913516562E+01 -0.65800479140E+01  0.14454389868E+04  0.14455069440E+04  0.10000000000E+02 0.  1.
</event>
<event>
 5    1  0.1535793E-008  0.3850159E+03  0.7957747E-01  0.3429605E+00
         13   -1    0    0    0    0  0.00000000000E+00  0.00000000000E+00  0.14999999963E+04  0.15000000000E+04  0.10566000000E+00 0. -1.
        994   -1    0    0    0    0 -0.00000000000E+00 -0.00000000000E+00  0.11368683772E-12  0.17120000000E+03  0.17120000000E+03 0.  0.
         13    1    1    2    0    0  0.13171244256E+02  0.13341873813E+02  0.10407523675E+03  0.10575042951E+03  0.10566000000E+00 0. -1.
        994    1    1    2    0    0 -0.15528889191E+02 -0.86364691496E+01  0.26612410998E+01  0.17214022541E+03  0.17120000000E+03 0.  0.
        998    1    1    2    0    0  0.23576449354E+01 -0.47054046637E+01  0.13932635184E+04  0.13933093451E+04  0.10000000000E+02 0. -1.
</event>
<event>
 5    1  0.1535793E-008  0.3822808E+03  0.7957747E-01  0.3441287E+00
         13   -1    0    0    0    0  0.00000000000E+00  0.00000000000E+00  0.14999999963E+04  0.15000000000E+04  0.10566000000E+00 0. -1.
        994   -1    0    0    0    0 -0.00000000000E+00 -0.00000000000E+00  0.11368683772E-12  0.17120000000E+03  0.17120000000E+03 0.  0.
         13    1    1    2    0    0 -0.56511294019E+01  0.11003856182E+02  0.24789656186E+02  0.27704843119E+02  0.10566000000E+00 0. -1.
        994    1    1    2    0    0  0.71605686331E+01 -0.17954542125E+01  0.31670775009E+01  0.17138835369E+03  0.17120000000E+03 0.  0.
        998    1    1    2    0    0 -0.15094392312E+01 -0.92084019699E+01  0.14720432626E+04  0.14721068032E+04  0.10000000000E+02 0. -1.
</event>
<event>
 5    1  0.1535793E-008  0.3850097E+03  0.7957747E-01  0.3429631E+00
         13   -1    0    0    0    0  0.00000000000E+00  0.00000000000E+00  0.14999999963E+04  0.15000000000E+04  0.10566000000E+00 0.  1.
        994   -1    0    0    0    0 -0.00000000000E+00 -0.00000000000E+00  0.11368683772E-12  0.17120000000E+03  0.17120000000E+03 0.  0.
         13    1    1    2    0    0  0.25854358644E+01 -0.47326229891E+02  0.50232871204E+02  0.69063804035E+02  0.10566000000E+00 0.  1.
        994    1    1    2    0    0  0.32176954864E+00  0.46582966584E+02  0.27160817332E+02  0.17949157727E+03  0.17120000000E+03 0.  0.
        998    1    1    2    0    0 -0.29072054130E+01  0.74326330700E+00  0.14226063077E+04  0.14226446187E+04  0.10000000000E+02 0.  1.
</event>
<event>
 5    1  0.1535793E-008  0.3780185E+03  0.7957747E-01  0.3459832E+00
         13   -1    0    0    0    0  0.00000000000E+00  0.00000000000E+00  0.14999999963E+04  0.15000000000E+04  0.10566000000E+00 0.  1.
        994   -1    0    0    0    0 -0.00000000000E+00 -0.00000000000E+00  0.11368683772E-12  0.17120000000E+03  0.17120000000E+03 0.  0.
         13    1    1    2    0    0 -0.17232745912E+02  0.71424509432E+01  0.31682195785E+02  0.36766218611E+02  0.10566000000E+00 0.  1.
        994    1    1    2    0    0  0.82260083326E+01 -0.16287965713E+02  0.62579519389E+01  0.17228339155E+03  0.17120000000E+03 0.  0.
        998    1    1    2    0    0  0.90067375796E+01  0.91455147696E+01  0.14620598486E+04  0.14621503898E+04  0.10000000000E+02 0.  1.
</event>
<event>
 5    1  0.1535793E-008  0.3786750E+03  0.7957747E-01  0.3456948E+00
         13   -1    0    0    0    0  0.00000000000E+00  0.00000000000E+00  0.14999999963E+04  0.15000000000E+04  0.10566000000E+00 0. -1.
        994   -1    0    0    0    0 -0.00000000000E+00 -0.00000000000E+00  0.11368683772E-12  0.17120000000E+03  0.17120000000E+03 0.  0.
         13    1    1    2    0    0  0.86997073472E+02 -0.77267884210E+02  0.66898050181E+03  0.67902410833E+03  0.10566000000E+00 0. -1.
        994    1    1    2    0    0 -0.82825416456E+02  0.93302665835E+02  0.58980611895E+02  0.21989449662E+03  0.17120000000E+03 0.  0.
        998    1    1    2    0    0 -0.41716570162E+01 -0.16034781625E+02  0.77203888257E+03  0.77228139505E+03  0.10000000000E+02 0. -1.
</event>
<event>
 5    1  0.1535793E-008  0.3830680E+03  0.7957747E-01  0.3437908E+00
         13   -1    0    0    0    0  0.00000000000E+00  0.00000000000E+00  0.14999999963E+04  0.15000000000E+04  0.10566000000E+00 0. -1.
        994   -1    0    0    0    0 -0.00000000000E+00 -0.00000000000E+00  0.11368683772E-12  0.17120000000E+03  0.17120000000E+03 0.  0.
         13    1    1    2    0    0  0.15571229418E-01  0.14317971185E+02  0.36719409387E+02  0.39412316997E+02  0.10566000000E+00 0. -1.
        994    1    1    2    0    0 -0.37345943024E+01 -0.23073577250E+02  0.44025103816E+01  0.17284432088E+03  0.17120000000E+03 0.  0.
        998    1    1    2    0    0  0.37190230730E+01  0.87556060655E+01  0.14588780765E+04  0.14589433621E+04  0.10000000000E+02 0. -1.
</event>
<event>
 5    1  0.1535793E-008  0.3774681E+03  0.7957747E-01  0.3462258E+00
         13   -1    0    0    0    0  0.00000000000E+00  0.00000000000E+00  0.14999999963E+04  0.15000000000E+04  0.10566000000E+00 0. -1.
        994   -1    0    0    0    0 -0.00000000000E+00 -0.00000000000E+00  0.11368683772E-12  0.17120000000E+03  0.17120000000E+03 0.  0.
         13    1    1    2    0    0  0.43190342291E+02 -0.32421603009E+02  0.18583837002E+03  0.19352642441E+03  0.10566000000E+00 0. -1.
        994    1    1    2    0    0 -0.34892760649E+02  0.11347298838E+03  0.54505981454E+02  0.21534615356E+03  0.17120000000E+03 0.  0.
        998    1    1    2    0    0 -0.82975816421E+01 -0.81051385370E+02  0.12596556448E+04  0.12623274220E+04  0.10000000000E+02 0. -1.
</event>
<event>
 5    1  0.1535793E-008  0.3818614E+03  0.7957747E-01  0.3443093E+00
         13   -1    0    0    0    0  0.00000000000E+00  0.00000000000E+00  0.14999999963E+04  0.15000000000E+04  0.10566000000E+00 0. -1.
        994   -1    0    0    0    0 -0.00000000000E+00 -0.00000000000E+00  0.11368683772E-12  0.17120000000E+03  0.17120000000E+03 0.  0.
         13    1    1    2    0    0 -0.11393017274E+02  0.11031665683E+01  0.19382422098E+02  0.22510159251E+02  0.10566000000E+00 0. -1.
        994    1    1    2    0    0  0.55940609313E+01  0.53095774369E+01  0.33941304807E+01  0.17140724971E+03  0.17120000000E+03 0.  0.
        998    1    1    2    0    0  0.57989563425E+01 -0.64127440052E+01  0.14772234437E+04  0.14772825910E+04  0.10000000000E+02 0. -1.
</event>
<event>
 5    1  0.1535793E-008  0.3715708E+03  0.7957747E-01  0.3488703E+00
         13   -1    0    0    0    0  0.00000000000E+00  0.00000000000E+00  0.14999999963E+04  0.15000000000E+04  0.10566000000E+00 0.  1.
        994   -1    0    0    0    0 -0.00000000000E+00 -0.00000000000E+00  0.11368683772E-12  0.17120000000E+03  0.17120000000E+03 0.  0.
         13    1    1    2    0    0 -0.37984380866E+02  0.21913186397E+01  0.54280075284E+02  0.66286897680E+02  0.10566000000E+00 0.  1.
        994    1    1    2    0    0  0.43172726889E+02 -0.68781946985E+01  0.18520582849E+02  0.17766160502E+03  0.17120000000E+03 0.  0.
        998    1    1    2    0    0 -0.51883460230E+01  0.46868760587E+01  0.14271993381E+04  0.14272514973E+04  0.10000000000E+02 0.  1.
</event>
<event>
 5    1  0.1535793E-008  0.3820260E+03  0.7957747E-01  0.3442384E+00
         13   -1    0    0    0    0  0.00000000000E+00  0.00000000000E+00  0.14999999963E+04  0.15000000000E+04  0.10566000000E+00 0. -1.
        994   -1    0    0    0    0 -0.00000000000E+00 -0.00000000000E+00  0.11368683772E-12  0.17120000000E+03  0.17120000000E+03 0.  0.
         13    1    1    2    0    0 -0.95939809187E+01 -0.13299451346E+02  0.43180170032E+02  0.46189372414E+02  0.10566000000E+00 0. -1.
        994    1    1    2    0    0  0.16637328712E+01  0.43263093700E+01  0.31852746871E+01  0.17129235516E+03  0.17120000000E+03 0.  0.
        998    1    1    2    0    0  0.79302480475E+01  0.89731419759E+01  0.14536345516E+04  0.14537182724E+04  0.10000000000E+02 0. -1.
</event>
<event>
 5    1  0.1535793E-008  0.3766443E+03  0.7957747E-01  0.3465901E+00
         13   -1    0    0    0    0  0.00000000000E+00  0.00000000000E+00  0.14999999963E+04  0.15000000000E+04  0.10566000000E+00 0. -1.
        994   -1    0    0    0    0 -0.00000000000E+00 -0.00000000000E+00  0.11368683772E-12  0.17120000000E+03  0.17120000000E+03 0.  0.
         13    1    1    2    0    0  0.81665893026E+02  0.62753920934E+02  0.56714543039E+03  0.57642113342E+03  0.10566000000E+00 0. -1.
        994    1    1    2    0    0 -0.80402237474E+02 -0.60705623648E+02  0.40956526237E+02  0.20282152148E+03  0.17120000000E+03 0.  0.
        998    1    1    2    0    0 -0.12636555524E+01 -0.20482972858E+01  0.89189803965E+03  0.89195734511E+03  0.10000000000E+02 0.  0.
</event>
<event>
 5    1  0.1535793E-008  0.3698402E+03  0.7957747E-01  0.3496626E+00
         13   -1    0    0    0    0  0.00000000000E+00  0.00000000000E+00  0.14999999963E+04  0.15000000000E+04  0.10566000000E+00 0. -1.
        994   -1    0    0    0    0 -0.00000000000E+00 -0.00000000000E+00  0.11368683772E-12  0.17120000000E+03  0.17120000000E+03 0.  0.
         13    1    1    2    0    0 -0.60398021228E+01 -0.20312854417E+02  0.19259711499E+02  0.28636321609E+02  0.10566000000E+00 0. -1.
        994    1    1    2    0    0  0.18428346347E+02  0.27081842281E+02  0.13073863320E+02  0.17479529751E+03  0.17120000000E+03 0.  0.
        998    1    1    2    0    0 -0.12388544225E+02 -0.67689878636E+01  0.14676664215E+04  0.14677683809E+04  0.10000000000E+02 0. -1.
</event>
<event>
 5    1  0.1535793E-008  0.3842088E+03  0.7957747E-01  0.3433035E+00
         13   -1    0    0    0    0  0.00000000000E+00  0.00000000000E+00  0.14999999963E+04  0.15000000000E+04  0.10566000000E+00 0.  1.
        994   -1    0    0    0    0 -0.00000000000E+00 -0.00000000000E+00  0.11368683772E-12  0.17120000000E+03  0.17120000000E+03 0.  0.
         13    1    1    2    0    0 -0.90079554936E+01 -0.67819469830E+01  0.30271087787E+02  0.32303064668E+02  0.10566000000E+00 0.  1.
        994    1    1    2    0    0  0.14457441701E+02  0.21059800941E+01  0.27275475695E+01  0.17184391839E+03  0.17120000000E+03 0.  0.
        998    1    1    2    0    0 -0.54494862075E+01  0.46759668889E+01  0.14670013609E+04  0.14670530169E+04  0.10000000000E+02 0.  1.
</event>
<event>
 5    1  0.1535793E-008  0.3772330E+03  0.7957747E-01  0.3463296E+00
         13   -1    0    0    0    0  0.00000000000E+00  0.00000000000E+00  0.14999999963E+04  0.15000000000E+04  0.10566000000E+00 0. -1.
        994   -1    0    0    0    0 -0.00000000000E+00 -0.00000000000E+00  0.11368683772E-12  0.17120000000E+03  0.17120000000E+03 0.  0.
         13    1    1    2    0    0 -0.25095386361E+02  0.81937193002E+00  0.53976912495E+02  0.59531235780E+02  0.10566000000E+00 0. -1.
        994    1    1    2    0    0  0.20625378400E+02 -0.37312114848E+01  0.70200694577E+01  0.17262111559E+03  0.17120000000E+03 0.  0.
        998    1    1    2    0    0  0.44700079611E+01  0.29118395547E+01  0.14390030143E+04  0.14390476486E+04  0.10000000000E+02 0. -1.
</event>
<event>
 5    1  0.1535793E-008  0.3829812E+03  0.7957747E-01  0.3438279E+00
         13   -1    0    0    0    0  0.00000000000E+00  0.00000000000E+00  0.14999999963E+04  0.15000000000E+04  0.10566000000E+00 0. -1.
        994   -1    0    0    0    0 -0.00000000000E+00 -0.00000000000E+00  0.11368683772E-12  0.17120000000E+03  0.17120000000E+03 0.  0.
         13    1    1    2    0    0 -0.10719298018E+00 -0.15900331451E+02  0.48297214107E+02  0.50847458984E+02  0.10566000000E+00 0. -1.
        994    1    1    2    0    0 -0.12331468761E+01  0.51751544731E+01  0.27294460192E+01  0.17130438626E+03  0.17120000000E+03 0.  0.
        998    1    1    2    0    0  0.13403398563E+01  0.10725176978E+02  0.14489733362E+04  0.14490481548E+04  0.10000000000E+02 0. -1.
</event>
<event>
 5    1  0.1535793E-008  0.3851431E+03  0.7957747E-01  0.3429065E+00
         13   -1    0    0    0    0  0.00000000000E+00  0.00000000000E+00  0.14999999963E+04  0.15000000000E+04  0.10566000000E+00 0.  1.
        994   -1    0    0    0    0 -0.00000000000E+00 -0.00000000000E+00  0.11368683772E-12  0.17120000000E+03  0.17120000000E+03 0.  0.
         13    1    1    2    0    0 -0.37390018716E+01 -0.14465049824E+02  0.77277945490E+02  0.78709019970E+02  0.10566000000E+00 0.  1.
        994    1    1    2    0    0  0.65512047288E+01 -0.23290565391E+01  0.17180164614E+01  0.17134974283E+03  0.17120000000E+03 0.  0.
        998    1    1    2    0    0 -0.28122028571E+01  0.16794106363E+02  0.14210040343E+04  0.14211412372E+04  0.10000000000E+02 0.  1.
</event>
<event>
 5    1  0.1535793E-008  0.3846306E+03  0.7957747E-01  0.3431240E+00
         13   -1    0    0    0    0  0.00000000000E+00  0.00000000000E+00  0.14999999963E+04  0.15000000000E+04  0.10566000000E+00 0.  1.
        994   -1    0    0    0    0 -0.00000000000E+00 -0.00000000000E+00  0.11368683772E-12  0.17120000000E+03  0.17120000000E+03 0.  0.
         13    1    1    2    0    0  0.17799041560E+02  0.68884697822E+01  0.11375122157E+03  0.11534126958E+03  0.10566000000E+00 0.  1.
        994    1    1    2    0    0  0.58387743528E+01 -0.61219886338E+01  0.20493356171E+01  0.17142114749E+03  0.17120000000E+03 0.  0.
        998    1    1    2    0    0 -0.23637815913E+02 -0.76648114836E+00  0.13841994391E+04  0.13844375829E+04  0.10000000000E+02 0.  1.
</event>
<event>
 5    1  0.1535793E-008  0.3725991E+03  0.7957747E-01  0.3484031E+00
         13   -1    0    0    0    0  0.00000000000E+00  0.00000000000E+00  0.14999999963E+04  0.15000000000E+04  0.10566000000E+00 0. -1.
        994   -1    0    0    0    0 -0.00000000000E+00 -0.00000000000E+00  0.11368683772E-12  0.17120000000E+03  0.17120000000E+03 0.  0.
         13    1    1    2    0    0 -0.16596238691E+02 -0.39145339514E+00  0.13946991636E+02  0.21682207318E+02  0.10566000000E+00 0. -1.
        994    1    1    2    0    0  0.11217544902E+02 -0.23306911416E+02  0.10213058517E+02  0.17344391600E+03  0.17120000000E+03 0.  0.
        998    1    1    2    0    0  0.53786937885E+01  0.23698364811E+02  0.14758399461E+04  0.14760738767E+04  0.10000000000E+02 0. -1.
</event>
<event>
 5    1  0.1535793E-008  0.3849902E+03  0.7957747E-01  0.3429714E+00
         13   -1    0    0    0    0  0.00000000000E+00  0.00000000000E+00  0.14999999963E+04  0.15000000000E+04  0.10566000000E+00 0.  1.
        994   -1    0    0    0    0 -0.00000000000E+00 -0.00000000000E+00  0.11368683772E-12  0.17120000000E+03  0.17120000000E+03 0.  0.
         13    1    1    2    0    0 -0.61642370710E+01  0.80812679131E+01  0.32947118899E+02  0.34479392650E+02  0.10566000000E+00 0.  1.
        994    1    1    2    0    0 -0.63676054805E+01 -0.25660389152E+00  0.17685682691E+01  0.17132769793E+03  0.17120000000E+03 0.  0.
        998    1    1    2    0    0  0.12531842552E+02 -0.78246640216E+01  0.14652843091E+04  0.14653929094E+04  0.10000000000E+02 0.  1.
</event>
<event>
 5    1  0.1535793E-008  0.3774066E+03  0.7957747E-01  0.3462529E+00
         13   -1    0    0    0    0  0.00000000000E+00  0.00000000000E+00  0.14999999963E+04  0.15000000000E+04  0.10566000000E+00 0.  1.
        994   -1    0    0    0    0 -0.00000000000E+00 -0.00000000000E+00  0.11368683772E-12  0.17120000000E+03  0.17120000000E+03 0.  0.
         13    1    1    2    0    0 -0.20031316298E+02 -0.65502795598E+01  0.39646409174E+02  0.44899985739E+02  0.10566000000E+00 0.  1.
        994    1    1    2    0    0  0.45578282986E+01  0.36411204196E+01  0.55627977536E+01  0.17138966210E+03  0.17120000000E+03 0.  0.
        998    1    1    2    0    0  0.15473487999E+02  0.29091591402E+01  0.14547907894E+04  0.14549103522E+04  0.10000000000E+02 0.  1.
</event>
<event>
 5    1  0.1535793E-008  0.3843155E+03  0.7957747E-01  0.3432580E+00
         13   -1    0    0    0    0  0.00000000000E+00  0.00000000000E+00  0.14999999963E+04  0.15000000000E+04  0.10566000000E+00 0. -1.
        994   -1    0    0    0    0 -0.00000000000E+00 -0.00000000000E+00  0.11368683772E-12  0.17120000000E+03  0.17120000000E+03 0.  0.
         13    1    1    2    0    0 -0.10643772901E+02 -0.18101616954E+02  0.11688554990E+03  0.11875690033E+03  0.10566000000E+00 0. -1.
        994    1    1    2    0    0  0.19187611848E+02 -0.23277383007E+01  0.32026212380E+01  0.17231738043E+03  0.17120000000E+03 0.  0.
        998    1    1    2    0    0 -0.85438389474E+01  0.20429355255E+02  0.13799118251E+04  0.13801257192E+04  0.10000000000E+02 0. -1.
</event>
<event>
 5    1  0.1535793E-008  0.3822151E+03  0.7957747E-01  0.3441570E+00
         13   -1    0    0    0    0  0.00000000000E+00  0.00000000000E+00  0.14999999963E+04  0.15000000000E+04  0.10566000000E+00 0. -1.
        994   -1    0    0    0    0 -0.00000000000E+00 -0.00000000000E+00  0.11368683772E-12  0.17120000000E+03  0.17120000000E+03 0.  0.
         13    1    1    2    0    0 -0.12010365215E+02  0.57643351744E+00  0.23049620510E+02  0.25997640621E+02  0.10566000000E+00 0. -1.
        994    1    1    2    0    0  0.45772211021E+01 -0.29914986668E+01  0.31183490105E+01  0.17131568556E+03  0.17120000000E+03 0.  0.
        998    1    1    2    0    0  0.74331441125E+01  0.24150651493E+01  0.14738320268E+04  0.14738866738E+04  0.10000000000E+02 0. -1.
</event>
<event>
 5    1  0.1535793E-008  0.3764880E+03  0.7957747E-01  0.3466594E+00
         13   -1    0    0    0    0  0.00000000000E+00  0.00000000000E+00  0.14999999963E+04  0.15000000000E+04  0.10566000000E+00 0.  1.
        994   -1    0    0    0    0 -0.00000000000E+00 -0.00000000000E+00  0.11368683772E-12  0.17120000000E+03  0.17120000000E+03 0.  0.
         13    1    1    2    0    0 -0.23112578291E+02  0.17274555025E+02  0.70092562712E+02  0.75799604472E+02  0.10566000000E+00 0.  1.
        994    1    1    2    0    0  0.20328213412E+02  0.88547853237E+01  0.75811892319E+01  0.17279629022E+03  0.17120000000E+03 0.  0.
        998    1    1    2    0    0  0.27843648790E+01 -0.26129340348E+02  0.14223262443E+04  0.14226041053E+04  0.10000000000E+02 0.  1.
</event>
<event>
 5    1  0.1535793E-008  0.3859200E+03  0.7957747E-01  0.3425780E+00
         13   -1    0    0    0    0  0.00000000000E+00  0.00000000000E+00  0.14999999963E+04  0.15000000000E+04  0.10566000000E+00 0. -1.
        994   -1    0    0    0    0 -0.00000000000E+00 -0.00000000000E+00  0.11368683772E-12  0.17120000000E+03  0.17120000000E+03 0.  0.
         13    1    1    2    0    0  0.51972212593E+01 -0.11641241925E+02  0.75674205362E+02  0.76740642059E+02  0.10566000000E+00 0. -1.
        994    1    1    2    0    0 -0.33951097694E+01 -0.28678189538E+01  0.12388233909E+01  0.17126215530E+03  0.17120000000E+03 0.  0.
        998    1    1    2    0    0 -0.18021114898E+01  0.14509060879E+02  0.14230869675E+04  0.14231972026E+04  0.10000000000E+02 0. -1.
</event>
<event>
 5    1  0.1535793E-008  0.3773246E+03  0.7957747E-01  0.3462891E+00
         13   -1    0    0    0    0  0.00000000000E+00  0.00000000000E+00  0.14999999963E+04  0.15000000000E+04  0.10566000000E+00 0. -1.
        994   -1    0    0    0    0 -0.00000000000E+00 -0.00000000000E+00  0.11368683772E-12  0.17120000000E+03  0.17120000000E+03 0.  0.
         13    1    1    2    0    0  0.19506212906E+02  0.67621369380E+01  0.37374287292E+02  0.42697392807E+02  0.10566000000E+00 0. -1.
        994    1    1    2    0    0 -0.51889829577E+01 -0.69437675749E+01  0.57432790175E+01  0.17151549990E+03  0.17120000000E+03 0.  0.
        998    1    1    2    0    0 -0.14317229948E+02  0.18163063688E+00  0.14568824300E+04  0.14569871073E+04  0.10000000000E+02 0. -1.
</event>
<event>
 5    1  0.1535793E-008  0.3791765E+03  0.7957747E-01  0.3454752E+00
         13   -1    0    0    0    0  0.00000000000E+00  0.00000000000E+00  0.14999999963E+04  0.15000000000E+04  0.10566000000E+00 0. -1.
        994   -1    0    0    0    0 -0.00000000000E+00 -0.00000000000E+00  0.11368683772E-12  0.17120000000E+03  0.17120000000E+03 0.  0.
         13    1    1    2    0    0  0.11608983335E+02 -0.56965438559E+01  0.16166999769E+02  0.20702708797E+02  0.10566000000E+00 0. -1.
        994    1    1    2    0    0 -0.13112569495E+02  0.85190032289E+01  0.53694470674E+01  0.17199646466E+03  0.17120000000E+03 0.  0.
        998    1    1    2    0    0  0.15035861595E+01 -0.28224593729E+01  0.14784635494E+04  0.14785008265E+04  0.10000000000E+02 0. -1.
</event>
<event>
 5    1  0.1535793E-008  0.3834939E+03  0.7957747E-01  0.3436085E+00
         13   -1    0    0    0    0  0.00000000000E+00  0.00000000000E+00  0.14999999963E+04  0.15000000000E+04  0.10566000000E+00 0.  1.
        994   -1    0    0    0    0 -0.00000000000E+00 -0.00000000000E+00  0.11368683772E-12  0.17120000000E+03  0.17120000000E+03 0.  0.
         13    1    1    2    0    0  0.12096720724E+02 -0.77448112013E+02  0.14410419933E+03  0.16404442122E+03  0.10566000000E+00 0.  1.
        994    1    1    2    0    0 -0.26687741137E+02  0.80791883070E+02  0.45346099769E+02  0.19648224516E+03  0.17120000000E+03 0.  0.
        998    1    1    2    0    0  0.14591020413E+02 -0.33437710578E+01  0.13105496972E+04  0.13106733336E+04  0.10000000000E+02 0.  1.
</event>
<event>
 5    1  0.1535793E-008  0.3795555E+03  0.7957747E-01  0.3453096E+00
         13   -1    0    0    0    0  0.00000000000E+00  0.00000000000E+00  0.14999999963E+04  0.15000000000E+04  0.10566000000E+00 0. -1.
        994   -1    0    0    0    0 -0.00000000000E+00 -0.00000000000E+00  0.11368683772E-12  0.17120000000E+03  0.17120000000E+03 0.  0.
         13    1    1    2    0    0  0.91744190992E+00 -0.45350232942E+02  0.21149623473E+03  0.21630569525E+03  0.10566000000E+00 0. -1.
        994    1    1    2    0    0  0.30192750265E+02  0.42229308052E+02  0.13433192048E+02  0.17940124658E+03  0.17120000000E+03 0.  0.
        998    1    1    2    0    0 -0.31110192175E+02  0.31209248897E+01  0.12750705695E+04  0.12754930582E+04  0.10000000000E+02 0. -1.
</event>
<event>
 5    1  0.1535793E-008  0.3813550E+03  0.7957747E-01  0.3445280E+00
         13   -1    0    0    0    0  0.00000000000E+00  0.00000000000E+00  0.14999999963E+04  0.15000000000E+04  0.10566000000E+00 0. -1.
        994   -1    0    0    0    0 -0.00000000000E+00 -0.00000000000E+00  0.11368683772E-12  0.17120000000E+03  0.17120000000E+03 0.  0.
         13    1    1    2    0    0 -0.41800503816E+01 -0.18873358373E+02  0.55081692477E+02  0.58375341435E+02  0.10566000000E+00 0. -1.
        994    1    1    2    0    0  0.88125404021E+01  0.12930397874E+01  0.37147846335E+01  0.17147178323E+03  0.17120000000E+03 0.  0.
        998    1    1    2    0    0 -0.46324900205E+01  0.17580318586E+02  0.14412035192E+04  0.14413528753E+04  0.10000000000E+02 0. -1.
</event>
<event>
 5    1  0.1535793E-008  0.3738409E+03  0.7957747E-01  0.3478423E+00
         13   -1    0    0    0    0  0.00000000000E+00  0.00000000000E+00  0.14999999963E+04  0.15000000000E+04  0.10566000000E+00 0.  1.
        994   -1    0    0    0    0 -0.00000000000E+00 -0.00000000000E+00  0.11368683772E-12  0.17120000000E+03  0.17120000000E+03 0.  0.
         13    1    1    2    0    0  0.11605772136E+01  0.17360650548E+02  0.18072257028E+02  0.25086983977E+02  0.10566000000E+00 0.  1.
        994    1    1    2    0    0  0.10108017945E+01 -0.26608538107E+01  0.73028171654E+01  0.17137932490E+03  0.17120000000E+03 0.  0.
        998    1    1    2    0    0 -0.21713790082E+01 -0.14699796738E+02  0.14746249221E+04  0.14747336911E+04  0.10000000000E+02 0.  1.
</event>
<event>
 5    1  0.1535793E-008  0.3795591E+03  0.7957747E-01  0.3453081E+00
         13   -1    0    0    0    0  0.00000000000E+00  0.00000000000E+00  0.14999999963E+04  0.15000000000E+04  0.10566000000E+00 0. -1.
        994   -1    0    0    0    0 -0.00000000000E+00 -0.00000000000E+00  0.11368683772E-12  0.17120000000E+03  0.17120000000E+03 0.  0.
         13    1    1    2    0    0  0.12500143828E+02  0.24265691197E+02  0.93790191833E+02  0.97681567417E+02  0.10566000000E+00 0. -1.
        994    1    1    2    0    0  0.11526147094E+02  0.17487588631E+00  0.48008576568E+01  0.17165480151E+03  0.17120000000E+03 0.  0.
        998    1    1    2    0    0 -0.24026290922E+02 -0.24440567083E+02  0.14014089468E+04  0.14018636311E+04  0.10000000000E+02 0. -1.
</event>
<event>
 5    1  0.1535793E-008  0.3054658E+03  0.7957747E-01  0.3857755E+00
         13   -1    0    0    0    0  0.00000000000E+00  0.00000000000E+00  0.14999999963E+04  0.15000000000E+04  0.10566000000E+00 0.  1.
        994   -1    0    0    0    0 -0.00000000000E+00 -0.00000000000E+00  0.11368683772E-12  0.17120000000E+03  0.17120000000E+03 0.  0.
         13    1    1    2    0    0  0.55217127558E+00 -0.17478381339E+03  0.86174739278E+03  0.87929418652E+03  0.10566000000E+00 0.  1.
        994    1    1    2    0    0 -0.43410471799E+02  0.77974781911E+02  0.57425839400E+02  0.20142418600E+03  0.17120000000E+03 0.  0.
        998    1    1    2    0    0  0.42858300524E+02  0.96809031476E+02  0.58082676410E+03  0.59048162748E+03  0.10000000000E+02 0.  1.
</event>
<event>
 5    1  0.1535793E-008  0.3813013E+03  0.7957747E-01  0.3445512E+00
         13   -1    0    0    0    0  0.00000000000E+00  0.00000000000E+00  0.14999999963E+04  0.15000000000E+04  0.10566000000E+00 0. -1.
        994   -1    0    0    0    0 -0.00000000000E+00 -0.00000000000E+00  0.11368683772E-12  0.17120000000E+03  0.17120000000E+03 0.  0.
         13    1    1    2    0    0  0.28581982335E+02 -0.66071962702E+01  0.13332156322E+03  0.13651093414E+03  0.10566000000E+00 0. -1.
        994    1    1    2    0    0 -0.52912984648E+01 -0.22293212579E+01  0.35874645272E+01  0.17133381924E+03  0.17120000000E+03 0.  0.
        998    1    1    2    0    0 -0.23290683870E+02  0.88365175282E+01  0.13630909685E+04  0.13633552466E+04  0.10000000000E+02 0. -1.
</event>
<event>
 5    1  0.1535793E-008  0.3856446E+03  0.7957747E-01  0.3426943E+00
         13   -1    0    0    0    0  0.00000000000E+00  0.00000000000E+00  0.14999999963E+04  0.15000000000E+04  0.10566000000E+00 0. -1.
        994   -1    0    0    0    0 -0.00000000000E+00 -0.00000000000E+00  0.11368683772E-12  0.17120000000E+03  0.17120000000E+03 0.  0.
         13    1    1    2    0    0  0.98798919274E+01 -0.83898937055E+01  0.66927924171E+02  0.68171554029E+02  0.10566000000E+00 0. -1.
        994    1    1    2    0    0 -0.79171503395E+01 -0.37267901478E+01  0.15617729402E+01  0.17143059636E+03  0.17120000000E+03 0.  0.
        998    1    1    2    0    0 -0.19627415879E+01  0.12116683853E+02  0.14315102992E+04  0.14315978496E+04  0.10000000000E+02 0. -1.
</event>
<event>
 5    1  0.1535793E-008  0.3798445E+03  0.7957747E-01  0.3451836E+00
         13   -1    0    0    0    0  0.00000000000E+00  0.00000000000E+00  0.14999999963E+04  0.15000000000E+04  0.10566000000E+00 0. -1.
        994   -1    0    0    0    0 -0.00000000000E+00 -0.00000000000E+00  0.11368683772E-12  0.17120000000E+03  0.17120000000E+03 0.  0.
         13    1    1    2    0    0 -0.19407095463E+02  0.21071452010E+02  0.88077211271E+02  0.92618830448E+02  0.10566000000E+00 0. -1.
        994    1    1    2    0    0  0.27701189674E+02 -0.22848164834E+02  0.85362604578E+01  0.17513338428E+03  0.17120000000E+03 0.  0.
        998    1    1    2    0    0 -0.82940942104E+01  0.17767128239E+01  0.14033865245E+04  0.14034477853E+04  0.10000000000E+02 0. -1.
</event>
<event>
 5    1  0.1535793E-008  0.3811342E+03  0.7957747E-01  0.3446235E+00
         13   -1    0    0    0    0  0.00000000000E+00  0.00000000000E+00  0.14999999963E+04  0.15000000000E+04  0.10566000000E+00 0. -1.
        994   -1    0    0    0    0 -0.00000000000E+00 -0.00000000000E+00  0.11368683772E-12  0.17120000000E+03  0.17120000000E+03 0.  0.
         13    1    1    2    0    0  0.52447560340E+01  0.10139885566E+02  0.16755940052E+02  0.20275537877E+02  0.10566000000E+00 0. -1.
        994    1    1    2    0    0  0.13908106799E+01 -0.11273268446E+02  0.39915338220E+01  0.17162282272E+03  0.17120000000E+03 0.  0.
        998    1    1    2    0    0 -0.66355667139E+01  0.11333828808E+01  0.14792525224E+04  0.14793016394E+04  0.10000000000E+02 0. -1.
</event>
<event>
 5    1  0.1535793E-008  0.3886095E+03  0.7957747E-01  0.3414507E+00
         13   -1    0    0    0    0  0.00000000000E+00  0.00000000000E+00  0.14999999963E+04  0.15000000000E+04  0.10566000000E+00 0.  1.
        994   -1    0    0    0    0 -0.00000000000E+00 -0.00000000000E+00  0.11368683772E-12  0.17120000000E+03  0.17120000000E+03 0.  0.
         13    1    1    2    0    0 -0.37343153084E+02 -0.68974969692E+02  0.12259048624E+03  0.14553520538E+03  0.10566000000E+00 0.  1.
        994    1    1    2    0    0  0.87412237641E+02  0.54231987976E+02  0.61926057376E+02  0.20910830780E+03  0.17120000000E+03 0.  0.
        998    1    1    2    0    0 -0.50069084557E+02  0.14742981715E+02  0.13154834527E+04  0.13165564868E+04  0.10000000000E+02 0.  1.
</event>
<event>
 5    1  0.1535793E-008  0.3808421E+03  0.7957747E-01  0.3447500E+00
         13   -1    0    0    0    0  0.00000000000E+00  0.00000000000E+00  0.14999999963E+04  0.15000000000E+04  0.10566000000E+00 0. -1.
        994   -1    0    0    0    0 -0.00000000000E+00 -0.00000000000E+00  0.11368683772E-12  0.17120000000E+03  0.17120000000E+03 0.  0.
         13    1    1    2    0    0  0.18210195021E+01  0.11185585549E+02  0.15533578432E+02  0.19228537621E+02  0.10566000000E+00 0. -1.
        994    1    1    2    0    0  0.11572670631E+01 -0.13802932013E+02  0.43485097841E+01  0.17181446312E+03  0.17120000000E+03 0.  0.
        998    1    1    2    0    0 -0.29782865651E+01  0.26173464643E+01  0.14801179081E+04  0.14801569993E+04  0.10000000000E+02 0. -1.
</event>
<event>
 5    1  0.1535793E-008  0.3840357E+03  0.7957747E-01  0.3433772E+00
         13   -1    0    0    0    0  0.00000000000E+00  0.00000000000E+00  0.14999999963E+04  0.15000000000E+04  0.10566000000E+00 0. -1.
        994   -1    0    0    0    0 -0.00000000000E+00 -0.00000000000E+00  0.11368683772E-12  0.17120000000E+03  0.17120000000E+03 0.  0.
         13    1    1    2    0    0  0.16038574456E+02 -0.44868033007E+01  0.69903275251E+02  0.71859907662E+02  0.10566000000E+00 0. -1.
        994    1    1    2    0    0 -0.12381321109E+01 -0.67579294533E+01  0.22654032868E+01  0.17135277831E+03  0.17120000000E+03 0.  0.
        998    1    1    2    0    0 -0.14800442345E+02  0.11244732754E+02  0.14278313177E+04  0.14279873140E+04  0.10000000000E+02 0. -1.
</event>
<event>
 5    1  0.1535793E-008  0.3846374E+03  0.7957747E-01  0.3431211E+00
         13   -1    0    0    0    0  0.00000000000E+00  0.00000000000E+00  0.14999999963E+04  0.15000000000E+04  0.10566000000E+00 0. -1.
        994   -1    0    0    0    0 -0.00000000000E+00 -0.00000000000E+00  0.11368683772E-12  0.17120000000E+03  0.17120000000E+03 0.  0.
         13    1    1    2    0    0  0.11395361980E+01 -0.15527084920E+02  0.64930203721E+02  0.66770737813E+02  0.10566000000E+00 0. -1.
        994    1    1    2    0    0  0.11262027569E+02  0.15932421287E+02  0.30646517909E+01  0.17233545022E+03  0.17120000000E+03 0.  0.
        998    1    1    2    0    0 -0.12401563767E+02 -0.40533636695E+00  0.14320051408E+04  0.14320938120E+04  0.10000000000E+02 0. -1.
</event>
<event>
 5    1  0.1535793E-008  0.3716366E+03  0.7957747E-01  0.3488403E+00
         13   -1    0    0    0    0  0.00000000000E+00  0.00000000000E+00  0.14999999963E+04  0.15000000000E+04  0.10566000000E+00 0. -1.
        994   -1    0    0    0    0 -0.00000000000E+00 -0.00000000000E+00  0.11368683772E-12  0.17120000000E+03  0.17120000000E+03 0.  0.
         13    1    1    2    0    0  0.43275614485E+02 -0.28816183432E+02  0.14457977645E+03  0.15364398510E+03  0.10566000000E+00 0. -1.
        994    1    1    2    0    0 -0.43179057374E+02  0.25763819861E+02  0.17159303372E+02  0.17925425267E+03  0.17120000000E+03 0.  0.
        998    1    1    2    0    0 -0.96557110865E-01  0.30523635709E+01  0.13382609165E+04  0.13383017622E+04  0.10000000000E+02 0. -1.
</event>
<event>
 5    1  0.1535793E-008  0.3855806E+03  0.7957747E-01  0.3427214E+00
         13   -1    0    0    0    0  0.00000000000E+00  0.00000000000E+00  0.14999999963E+04  0.15000000000E+04  0.10566000000E+00 0. -1.
        994   -1    0    0    0    0 -0.00000000000E+00 -0.00000000000E+00  0.11368683772E-12  0.17120000000E+03  0.17120000000E+03 0.  0.
         13    1    1    2    0    0  0.12306492177E+01 -0.12546246531E+02  0.61287364005E+02  0.62570559772E+02  0.10566000000E+00 0. -1.
        994    1    1    2    0    0 -0.53087475739E+01  0.37000006054E+01  0.14796275258E+01  0.17132863772E+03  0.17120000000E+03 0.  0.
        998    1    1    2    0    0  0.40780983562E+01  0.88462459259E+01  0.14372330047E+04  0.14373008025E+04  0.10000000000E+02 0. -1.
</event>
<event>
 5    1  0.1535793E-008  0.3792295E+03  0.7957747E-01  0.3454520E+00
         13   -1    0    0    0    0  0.00000000000E+00  0.00000000000E+00  0.14999999963E+04  0.15000000000E+04  0.10566000000E+00 0. -1.
        994   -1    0    0    0    0 -0.00000000000E+00 -0.00000000000E+00  0.11368683772E-12  0.17120000000E+03  0.17120000000E+03 0.  0.
         13    1    1    2    0    0  0.21779927613E+02 -0.16030377177E+02  0.88564849925E+02  0.92601738891E+02  0.10566000000E+00 0. -1.
        994    1    1    2    0    0  0.70535691346E+00 -0.10379258392E+02  0.48853724585E+01  0.17158535310E+03  0.17120000000E+03 0.  0.
        998    1    1    2    0    0 -0.22485284526E+02  0.26409635570E+02  0.14065497739E+04  0.14070129080E+04  0.10000000000E+02 0. -1.
</event>
<event>
 5    1  0.1535793E-008  0.3856584E+03  0.7957747E-01  0.3426885E+00
         13   -1    0    0    0    0  0.00000000000E+00  0.00000000000E+00  0.14999999963E+04  0.15000000000E+04  0.10566000000E+00 0. -1.
        994   -1    0    0    0    0 -0.00000000000E+00 -0.00000000000E+00  0.11368683772E-12  0.17120000000E+03  0.17120000000E+03 0.  0.
         13    1    1    2    0    0  0.45101456894E+01 -0.15372608265E+02  0.71001815962E+02  0.72786863739E+02  0.10566000000E+00 0. -1.
        994    1    1    2    0    0 -0.20406108111E+02  0.54971540940E+02  0.12669210229E+02  0.18140625251E+03  0.17120000000E+03 0.  0.
        998    1    1    2    0    0  0.15895962421E+02 -0.39598932675E+02  0.14163289701E+04  0.14170068838E+04  0.10000000000E+02 0. -1.
</event>
<event>
 5    1  0.1535793E-008  0.3757821E+03  0.7957747E-01  0.3469732E+00
         13   -1    0    0    0    0  0.00000000000E+00  0.00000000000E+00  0.14999999963E+04  0.15000000000E+04  0.10566000000E+00 0. -1.
        994   -1    0    0    0    0 -0.00000000000E+00 -0.00000000000E+00  0.11368683772E-12  0.17120000000E+03  0.17120000000E+03 0.  0.
         13    1    1    2    0    0  0.12960944978E+02  0.13606142901E+02  0.24958222615E+02  0.31241595021E+02  0.10566000000E+00 0. -1.
        994    1    1    2    0    0 -0.19437966304E+02 -0.10792848749E+02  0.79552959035E+01  0.17282085190E+03  0.17120000000E+03 0.  0.
        998    1    1    2    0    0  0.64770213262E+01 -0.28132941527E+01  0.14670864778E+04  0.14671375531E+04  0.10000000000E+02 0. -1.
</event>
<event>
 5    1  0.1535793E-008  0.3720323E+03  0.7957747E-01  0.3486603E+00
         13   -1    0    0    0    0  0.00000000000E+00  0.00000000000E+00  0.14999999963E+04  0.15000000000E+04  0.10566000000E+00 0. -1.
        994   -1    0    0    0    0 -0.00000000000E+00 -0.00000000000E+00  0.11368683772E-12  0.17120000000E+03  0.17120000000E+03 0.  0.
         13    1    1    2    0    0  0.27003736518E+02  0.12379806665E+02  0.31304764723E+02  0.43156237757E+02  0.10566000000E+00 0. -1.
        994    1    1    2    0    0 -0.26282557288E+02 -0.10675125015E+02  0.14856140668E+02  0.17416910182E+03  0.17120000000E+03 0.  0.
        998    1    1    2    0    0 -0.72117922914E+00 -0.17046816500E+01  0.14538390909E+04  0.14538746604E+04  0.10000000000E+02 0. -1.
</event>
<event>
 5    1  0.1535793E-008  0.3773091E+03  0.7957747E-01  0.3462959E+00
         13   -1    0    0    0    0  0.00000000000E+00  0.00000000000E+00  0.14999999963E+04  0.15000000000E+04  0.10566000000E+00 0.  1.
        994   -1    0    0    0    0 -0.00000000000E+00 -0.00000000000E+00  0.11368683772E-12  0.17120000000E+03  0.17120000000E+03 0.  0.
         13    1    1    2    0    0  0.52080548271E+01  0.21096514015E+02  0.90476990907E+01  0.23538452828E+02  0.10566000000E+00 0.  1.
        994    1    1    2    0    0 -0.55251030191E+01 -0.29701774903E+02  0.18138827011E+02  0.17478895629E+03  0.17120000000E+03 0.  0.
        998    1    1    2    0    0  0.31704819204E+00  0.86052608877E+01  0.14728134702E+04  0.14728725909E+04  0.10000000000E+02 0.  1.
</event>
<event>
 5    1  0.1535793E-008  0.3852665E+03  0.7957747E-01  0.3428543E+00
         13   -1    0    0    0    0  0.00000000000E+00  0.00000000000E+00  0.14999999963E+04  0.15000000000E+04  0.10566000000E+00 0. -1.
        994   -1    0    0    0    0 -0.00000000000E+00 -0.00000000000E+00  0.11368683772E-12  0.17120000000E+03  0.17120000000E+03 0.  0.
         13    1    1    2    0    0 -0.80555768973E+00  0.15582196283E+02  0.84683909698E+02  0.86109404190E+02  0.10566000000E+00 0. -1.
        994    1    1    2    0    0  0.56329679465E+00 -0.50591296611E+01  0.15830174395E+01  0.17128297651E+03  0.17120000000E+03 0.  0.
        998    1    1    2    0    0  0.24226089508E+00 -0.10523066622E+02  0.14137330691E+04  0.14138076193E+04  0.10000000000E+02 0. -1.
</event>
<event>
 5    1  0.1535793E-008  0.3722232E+03  0.7957747E-01  0.3485735E+00
         13   -1    0    0    0    0  0.00000000000E+00  0.00000000000E+00  0.14999999963E+04  0.15000000000E+04  0.10566000000E+00 0. -1.
        994   -1    0    0    0    0 -0.00000000000E+00 -0.00000000000E+00  0.11368683772E-12  0.17120000000E+03  0.17120000000E+03 0.  0.
         13    1    1    2    0    0 -0.11525436659E+01 -0.13440550057E+02  0.66209596934E+01  0.15027475305E+02  0.10566000000E+00 0. -1.
        994    1    1    2    0    0 -0.41098466913E+02  0.58704498005E+02  0.25943828431E+02  0.18739750346E+03  0.17120000000E+03 0.  0.
        998    1    1    2    0    0  0.42251010579E+02 -0.45263947948E+02  0.14674352082E+04  0.14687750212E+04  0.10000000000E+02 0. -1.
</event>
<event>
 5    1  0.1535793E-008  0.3856849E+03  0.7957747E-01  0.3426773E+00
         13   -1    0    0    0    0  0.00000000000E+00  0.00000000000E+00  0.14999999963E+04  0.15000000000E+04  0.10566000000E+00 0. -1.
        994   -1    0    0    0    0 -0.00000000000E+00 -0.00000000000E+00  0.11368683772E-12  0.17120000000E+03  0.17120000000E+03 0.  0.
         13    1    1    2    0    0  0.16299690534E+03  0.24572449917E+02  0.99376887141E+03  0.10073471980E+04  0.10566000000E+00 0. -1.
        994    1    1    2    0    0 -0.19121448987E+03 -0.18303503109E+02  0.13351853312E+03  0.28988728508E+03  0.17120000000E+03 0.  0.
        998    1    1    2    0    0  0.28217584537E+02 -0.62689468079E+01  0.37271259175E+03  0.37396551689E+03  0.10000000000E+02 0.  1.
</event>
<event>
 5    1  0.1535793E-008  0.3825452E+03  0.7957747E-01  0.3440150E+00
         13   -1    0    0    0    0  0.00000000000E+00  0.00000000000E+00  0.14999999963E+04  0.15000000000E+04  0.10566000000E+00 0. -1.
        994   -1    0    0    0    0 -0.00000000000E+00 -0.00000000000E+00  0.11368683772E-12  0.17120000000E+03  0.17120000000E+03 0.  0.
         13    1    1    2    0    0 -0.49642179977E+01 -0.23151224977E+02  0.92398508402E+02  0.95384056305E+02  0.10566000000E+00 0. -1.
        994    1    1    2    0    0  0.52946967543E+01  0.23114627588E+02  0.47201531176E+01  0.17289892905E+03  0.17120000000E+03 0.  0.
        998    1    1    2    0    0 -0.33047875655E+00  0.36597389078E-01  0.14028813348E+04  0.14029170146E+04  0.10000000000E+02 0.  0.
</event>
<event>
 5    1  0.1535793E-008  0.3717810E+03  0.7957747E-01  0.3487745E+00
         13   -1    0    0    0    0  0.00000000000E+00  0.00000000000E+00  0.14999999963E+04  0.15000000000E+04  0.10566000000E+00 0.  1.
        994   -1    0    0    0    0 -0.00000000000E+00 -0.00000000000E+00  0.11368683772E-12  0.17120000000E+03  0.17120000000E+03 0.  0.
         13    1    1    2    0    0 -0.20050885811E+02 -0.15714292994E+02  0.22794212934E+02  0.34184270264E+02  0.10566000000E+00 0.  1.
        994    1    1    2    0    0  0.11517405791E+01  0.14373420688E+02  0.12615454665E+02  0.17226871865E+03  0.17120000000E+03 0.  0.
        998    1    1    2    0    0  0.18899145232E+02  0.13408723056E+01  0.14645903287E+04  0.14647470111E+04  0.10000000000E+02 0.  1.
</event>
<event>
 5    1  0.1535793E-008  0.3852565E+03  0.7957747E-01  0.3428585E+00
         13   -1    0    0    0    0  0.00000000000E+00  0.00000000000E+00  0.14999999963E+04  0.15000000000E+04  0.10566000000E+00 0.  1.
        994   -1    0    0    0    0 -0.00000000000E+00 -0.00000000000E+00  0.11368683772E-12  0.17120000000E+03  0.17120000000E+03 0.  0.
         13    1    1    2    0    0 -0.11892637823E+02 -0.61365253050E+01  0.71509998851E+02  0.72751514602E+02  0.10566000000E+00 0.  1.
        994    1    1    2    0    0 -0.23512403035E+02  0.11336440281E+02  0.37448938074E+01  0.17321897184E+03  0.17120000000E+03 0.  0.
        998    1    1    2    0    0  0.35405040858E+02 -0.51999149762E+01  0.14247451036E+04  0.14252295136E+04  0.10000000000E+02 0.  1.
</event>
<event>
 5    1  0.1535793E-008  0.3782212E+03  0.7957747E-01  0.3458941E+00
         13   -1    0    0    0    0  0.00000000000E+00  0.00000000000E+00  0.14999999963E+04  0.15000000000E+04  0.10566000000E+00 0. -1.
        994   -1    0    0    0    0 -0.00000000000E+00 -0.00000000000E+00  0.11368683772E-12  0.17120000000E+03  0.17120000000E+03 0.  0.
         13    1    1    2    0    0  0.30263513632E+02 -0.22850484020E+01  0.23565519468E+02  0.38424556931E+02  0.10566000000E+00 0. -1.
        994    1    1    2    0    0 -0.24812114813E+02  0.64733477065E+01  0.17724263326E+02  0.17401475450E+03  0.17120000000E+03 0.  0.
        998    1    1    2    0    0 -0.54513988185E+01 -0.41882993045E+01  0.14587102135E+04  0.14587606886E+04  0.10000000000E+02 0. -1.
</event>
<event>
 5    1  0.1535793E-008  0.3796461E+03  0.7957747E-01  0.3452701E+00
         13   -1    0    0    0    0  0.00000000000E+00  0.00000000000E+00  0.14999999963E+04  0.15000000000E+04  0.10566000000E+00 0. -1.
        994   -1    0    0    0    0 -0.00000000000E+00 -0.00000000000E+00  0.11368683772E-12  0.17120000000E+03  0.17120000000E+03 0.  0.
         13    1    1    2    0    0  0.22923136355E+02  0.65873202336E+01  0.71833095999E+02  0.75689284665E+02  0.10566000000E+00 0. -1.
        994    1    1    2    0    0  0.10439544258E+02 -0.53636379137E+00  0.46776789133E+01  0.17158261115E+03  0.17120000000E+03 0.  0.
        998    1    1    2    0    0 -0.33362680612E+02 -0.60509564422E+01  0.14234892214E+04  0.14239281042E+04  0.10000000000E+02 0. -1.
</event>
<event>
 5    1  0.1535793E-008  0.3694049E+03  0.7957747E-01  0.3498631E+00
         13   -1    0    0    0    0  0.00000000000E+00  0.00000000000E+00  0.14999999963E+04  0.15000000000E+04  0.10566000000E+00 0.  1.
        994   -1    0    0    0    0 -0.00000000000E+00 -0.00000000000E+00  0.11368683772E-12  0.17120000000E+03  0.17120000000E+03 0.  0.
         13    1    1    2    0    0  0.48067214640E+01 -0.26011227521E+02  0.31761544156E+02  0.41333949479E+02  0.10566000000E+00 0.  1.
        994    1    1    2    0    0 -0.45122543097E+01  0.28509818556E+02  0.12472636236E+02  0.17406371491E+03  0.17120000000E+03 0.  0.
        998    1    1    2    0    0 -0.29446715427E+00 -0.24985910344E+01  0.14557658159E+04  0.14558023356E+04  0.10000000000E+02 0.  1.
</event>
<event>
 5    1  0.1535793E-008  0.3787425E+03  0.7957747E-01  0.3456652E+00
         13   -1    0    0    0    0  0.00000000000E+00  0.00000000000E+00  0.14999999963E+04  0.15000000000E+04  0.10566000000E+00 0. -1.
        994   -1    0    0    0    0 -0.00000000000E+00 -0.00000000000E+00  0.11368683772E-12  0.17120000000E+03  0.17120000000E+03 0.  0.
         13    1    1    2    0    0  0.99771599426E+01  0.51069509277E+01  0.10960492176E+02  0.15676996558E+02  0.10566000000E+00 0. -1.
        994    1    1    2    0    0 -0.77748506418E+01 -0.10515726766E+02  0.53435977595E+01  0.17178190489E+03  0.17120000000E+03 0.  0.
        998    1    1    2    0    0 -0.22023093007E+01  0.54087758387E+01  0.14836959063E+04  0.14837410985E+04  0.10000000000E+02 0. -1.
</event>
<event>
 5    1  0.1535793E-008  0.3828596E+03  0.7957747E-01  0.3438801E+00
         13   -1    0    0    0    0  0.00000000000E+00  0.00000000000E+00  0.14999999963E+04  0.15000000000E+04  0.10566000000E+00 0.  1.
        994   -1    0    0    0    0 -0.00000000000E+00 -0.00000000000E+00  0.11368683772E-12  0.17120000000E+03  0.17120000000E+03 0.  0.
         13    1    1    2    0    0  0.15491944477E+02 -0.14415482223E+02  0.86323327992E+02  0.88879326004E+02  0.10566000000E+00 0.  1.
        994    1    1    2    0    0 -0.44456175871E+01  0.25850806584E+01  0.27841155001E+01  0.17129984663E+03  0.17120000000E+03 0.  0.
        998    1    1    2    0    0 -0.11046326890E+02  0.11830401564E+02  0.14108925528E+04  0.14110208274E+04  0.10000000000E+02 0.  1.
</event>
<event>
 5    1  0.1535793E-008  0.3843534E+03  0.7957747E-01  0.3432419E+00
         13   -1    0    0    0    0  0.00000000000E+00  0.00000000000E+00  0.14999999963E+04  0.15000000000E+04  0.10566000000E+00 0.  1.
        994   -1    0    0    0    0 -0.00000000000E+00 -0.00000000000E+00  0.11368683772E-12  0.17120000000E+03  0.17120000000E+03 0.  0.
         13    1    1    2    0    0  0.17606480123E+01 -0.10732018786E+02  0.31211618405E+02  0.33052267640E+02  0.10566000000E+00 0.  1.
        994    1    1    2    0    0  0.35761325964E+01 -0.28691584943E+01  0.20208035040E+01  0.17127330335E+03  0.17120000000E+03 0.  0.
        998    1    1    2    0    0 -0.53367806087E+01  0.13601177281E+02  0.14667675744E+04  0.14668744290E+04  0.10000000000E+02 0.  1.
</event>
<event>
 5    1  0.1535793E-008  0.3774108E+03  0.7957747E-01  0.3462510E+00
         13   -1    0    0    0    0  0.00000000000E+00  0.00000000000E+00  0.14999999963E+04  0.15000000000E+04  0.10566000000E+00 0. -1.
        994   -1    0    0    0    0 -0.00000000000E+00 -0.00000000000E+00  0.11368683772E-12  0.17120000000E+03  0.17120000000E+03 0.  0.
         13    1    1    2    0    0  0.16519135475E+02  0.97973368961E+01  0.30852773628E+02  0.36342460727E+02  0.10566000000E+00 0. -1.
        994    1    1    2    0    0 -0.18359312901E+02 -0.12155353369E+02  0.70823053580E+01  0.17275536471E+03  0.17120000000E+03 0.  0.
        998    1    1    2    0    0  0.18401774257E+01  0.23580164729E+01  0.14620649173E+04  0.14621021746E+04  0.10000000000E+02 0. -1.
</event>
<event>
 5    1  0.1535793E-008  0.3794378E+03  0.7957747E-01  0.3453610E+00
         13   -1    0    0    0    0  0.00000000000E+00  0.00000000000E+00  0.14999999963E+04  0.15000000000E+04  0.10566000000E+00 0. -1.
        994   -1    0    0    0    0 -0.00000000000E+00 -0.00000000000E+00  0.11368683772E-12  0.17120000000E+03  0.17120000000E+03 0.  0.
         13    1    1    2    0    0 -0.45620180718E+01 -0.22721405306E+02  0.76351734289E+02  0.79791432879E+02  0.10566000000E+00 0. -1.
        994    1    1    2    0    0  0.18483612506E+02 -0.45516247436E+02  0.12542699294E+02  0.17855008266E+03  0.17120000000E+03 0.  0.
        998    1    1    2    0    0 -0.13921594434E+02  0.68237652742E+02  0.14111055627E+04  0.14128584845E+04  0.10000000000E+02 0. -1.
</event>
<event>
 5    1  0.1535793E-008  0.3820646E+03  0.7957747E-01  0.3442218E+00
         13   -1    0    0    0    0  0.00000000000E+00  0.00000000000E+00  0.14999999963E+04  0.15000000000E+04  0.10566000000E+00 0.  1.
        994   -1    0    0    0    0 -0.00000000000E+00 -0.00000000000E+00  0.11368683772E-12  0.17120000000E+03  0.17120000000E+03 0.  0.
         13    1    1    2    0    0 -0.37794047471E+02 -0.55806761473E+01  0.18272142111E+03  0.18667260878E+03  0.10566000000E+00 0.  1.
        994    1    1    2    0    0  0.54537301416E+02  0.59620426165E+01  0.13153292801E+02  0.18025624069E+03  0.17120000000E+03 0.  0.
        998    1    1    2    0    0 -0.16743253945E+02 -0.38136646915E+00  0.13041252824E+04  0.13042711505E+04  0.10000000000E+02 0.  1.
</event>
<event>
 5    1  0.1535793E-008  0.3725101E+03  0.7957747E-01  0.3484434E+00
         13   -1    0    0    0    0  0.00000000000E+00  0.00000000000E+00  0.14999999963E+04  0.15000000000E+04  0.10566000000E+00 0.  1.
        994   -1    0    0    0    0 -0.00000000000E+00 -0.00000000000E+00  0.11368683772E-12  0.17120000000E+03  0.17120000000E+03 0.  0.
         13    1    1    2    0    0  0.19389164278E+02 -0.15327090969E+03  0.69372819041E+03  0.71072267783E+03  0.10566000000E+00 0.  1.
        994    1    1    2    0    0 -0.11120127359E+02  0.15774462717E+03  0.99233247325E+02  0.25330555068E+03  0.17120000000E+03 0.  0.
        998    1    1    2    0    0 -0.82690369189E+01 -0.44737174777E+01  0.70703855855E+03  0.70717177149E+03  0.10000000000E+02 0.  1.
</event>
<event>
 5    1  0.1535793E-008  0.3801858E+03  0.7957747E-01  0.3450350E+00
         13   -1    0    0    0    0  0.00000000000E+00  0.00000000000E+00  0.14999999963E+04  0.15000000000E+04  0.10566000000E+00 0.  1.
        994   -1    0    0    0    0 -0.00000000000E+00 -0.00000000000E+00  0.11368683772E-12  0.17120000000E+03  0.17120000000E+03 0.  0.
         13    1    1    2    0    0  0.22512148663E+02 -0.62260893591E+01  0.64309678527E+02  0.68420077042E+02  0.10566000000E+00 0.  1.
        994    1    1    2    0    0 -0.20116611245E+02  0.70963472690E+01  0.55610732554E+01  0.17261344597E+03  0.17120000000E+03 0.  0.
        998    1    1    2    0    0 -0.23955374181E+01 -0.87025790992E+00  0.14301292445E+04  0.14301664770E+04  0.10000000000E+02 0.  1.
</event>
<event>
 5    1  0.1535793E-008  0.3809666E+03  0.7957747E-01  0.3446960E+00
         13   -1    0    0    0    0  0.00000000000E+00  0.00000000000E+00  0.14999999963E+04  0.15000000000E+04  0.10566000000E+00 0.  1.
        994   -1    0    0    0    0 -0.00000000000E+00 -0.00000000000E+00  0.11368683772E-12  0.17120000000E+03  0.17120000000E+03 0.  0.
         13    1    1    2    0    0 -0.44034410831E+01  0.17948026366E+02  0.37990671865E+02  0.42247180457E+02  0.10566000000E+00 0.  1.
        994    1    1    2    0    0 -0.95459391406E+01 -0.67452887741E+02  0.19268912183E+02  0.18526129654E+03  0.17120000000E+03 0.  0.
        998    1    1    2    0    0  0.13949380224E+02  0.49504861375E+02  0.14427404122E+04  0.14436915230E+04  0.10000000000E+02 0.  1.
</event>
<event>
 5    1  0.1535793E-008  0.3836942E+03  0.7957747E-01  0.3435229E+00
         13   -1    0    0    0    0  0.00000000000E+00  0.00000000000E+00  0.14999999963E+04  0.15000000000E+04  0.10566000000E+00 0.  1.
        994   -1    0    0    0    0 -0.00000000000E+00 -0.00000000000E+00  0.11368683772E-12  0.17120000000E+03  0.17120000000E+03 0.  0.
         13    1    1    2    0    0 -0.98228752174E+01 -0.11959929095E+02  0.53078718105E+02  0.55289151388E+02  0.10566000000E+00 0.  1.
        994    1    1    2    0    0 -0.17579910074E+01  0.91721462491E+01  0.25679308158E+01  0.17147376787E+03  0.17120000000E+03 0.  0.
        998    1    1    2    0    0  0.11580866225E+02  0.27877828464E+01  0.14443533474E+04  0.14444370807E+04  0.10000000000E+02 0.  1.
</event>
<event>
 5    1  0.1535793E-008  0.3769813E+03  0.7957747E-01  0.3464409E+00
         13   -1    0    0    0    0  0.00000000000E+00  0.00000000000E+00  0.14999999963E+04  0.15000000000E+04  0.10566000000E+00 0.  1.
        994   -1    0    0    0    0 -0.00000000000E+00 -0.00000000000E+00  0.11368683772E-12  0.17120000000E+03  0.17120000000E+03 0.  0.
         13    1    1    2    0    0 -0.27774661789E+02  0.10978710881E+02  0.26079123245E+02  0.39649662840E+02  0.10566000000E+00 0.  1.
        994    1    1    2    0    0  0.20833022578E+01  0.26084655546E+02  0.17136769748E+02  0.17403407218E+03  0.17120000000E+03 0.  0.
        998    1    1    2    0    0  0.25691359531E+02 -0.37063366427E+02  0.14567841033E+04  0.14575162650E+04  0.10000000000E+02 0.  1.
</event>
<event>
 5    1  0.1535793E-008  0.3790309E+03  0.7957747E-01  0.3455389E+00
         13   -1    0    0    0    0  0.00000000000E+00  0.00000000000E+00  0.14999999963E+04  0.15000000000E+04  0.10566000000E+00 0. -1.
        994   -1    0    0    0    0 -0.00000000000E+00 -0.00000000000E+00  0.11368683772E-12  0.17120000000E+03  0.17120000000E+03 0.  0.
         13    1    1    2    0    0 -0.31062329510E+02 -0.45220830956E+02  0.32734396483E+03  0.33190943696E+03  0.10566000000E+00 0. -1.
        994    1    1    2    0    0  0.36487597312E+02  0.12712805214E+02  0.96463511239E+01  0.17577102225E+03  0.17120000000E+03 0.  0.
        998    1    1    2    0    0 -0.54252678025E+01  0.32508025742E+02  0.11630096803E+04  0.11635195408E+04  0.10000000000E+02 0. -1.
</event>
<event>
 5    1  0.1535793E-008  0.3744835E+03  0.7957747E-01  0.3475536E+00
         13   -1    0    0    0    0  0.00000000000E+00  0.00000000000E+00  0.14999999963E+04  0.15000000000E+04  0.10566000000E+00 0. -1.
        994   -1    0    0    0    0 -0.00000000000E+00 -0.00000000000E+00  0.11368683772E-12  0.17120000000E+03  0.17120000000E+03 0.  0.
         13    1    1    2    0    0 -0.98967300382E+01  0.23726173572E+02  0.45726001429E+02  0.52457172518E+02  0.10566000000E+00 0. -1.
        994    1    1    2    0    0  0.57047492766E+01 -0.92250126943E+01  0.73448707388E+01  0.17170041395E+03  0.17120000000E+03 0.  0.
        998    1    1    2    0    0  0.41919807617E+01 -0.14501160878E+02  0.14469291241E+04  0.14470424135E+04  0.10000000000E+02 0. -1.
</event>
<event>
 5    1  0.2032118E-008  0.3861187E+03  0.7957747E-01  0.3424941E+00
         13   -1    0    0    0    0  0.00000000000E+00  0.00000000000E+00  0.14999999963E+04  0.15000000000E+04  0.10566000000E+00 0.  1.
        994   -1    0    0    0    0 -0.00000000000E+00 -0.00000000000E+00  0.11368683772E-12  0.17120000000E+03  0.17120000000E+03 0.  0.
         13    1    1    2    0    0 -0.10049947220E+02 -0.12609394959E+01  0.48371529836E+02  0.49420719038E+02  0.10566000000E+00 0.  1.
        994    1    1    2    0    0  0.70886763337E+01 -0.22354723873E+01  0.12567801667E+01  0.17136588390E+03  0.17120000000E+03 0.  0.
        998    1    1    2    0    0  0.29612708859E+01  0.34964118832E+01  0.14503716863E+04  0.14504133971E+04  0.10000000000E+02 0.  1.
</event>
<event>
 5    1  0.1535793E-008  0.3847620E+03  0.7957747E-01  0.3430682E+00
         13   -1    0    0    0    0  0.00000000000E+00  0.00000000000E+00  0.14999999963E+04  0.15000000000E+04  0.10566000000E+00 0.  1.
        994   -1    0    0    0    0 -0.00000000000E+00 -0.00000000000E+00  0.11368683772E-12  0.17120000000E+03  0.17120000000E+03 0.  0.
         13    1    1    2    0    0 -0.22963187718E+01  0.10101670152E+02  0.29715115977E+02  0.31469288224E+02  0.10566000000E+00 0.  1.
        994    1    1    2    0    0  0.15435753463E+01 -0.12124081026E+02  0.22401383736E+01  0.17165032533E+03  0.17120000000E+03 0.  0.
        998    1    1    2    0    0  0.75274342548E+00  0.20224108738E+01  0.14680447419E+04  0.14680803864E+04  0.10000000000E+02 0.  1.
</event>
<event>
 5    1  0.1535793E-008  0.3744764E+03  0.7957747E-01  0.3475568E+00
         13   -1    0    0    0    0  0.00000000000E+00  0.00000000000E+00  0.14999999963E+04  0.15000000000E+04  0.10566000000E+00 0. -1.
        994   -1    0    0    0    0 -0.00000000000E+00 -0.00000000000E+00  0.11368683772E-12  0.17120000000E+03  0.17120000000E+03 0.  0.
         13    1    1    2    0    0 -0.38580181647E+02 -0.26475414331E+02  0.16714956723E+03  0.17357524873E+03  0.10566000000E+00 0. -1.
        994    1    1    2    0    0  0.12778410532E+02  0.58069197853E+01  0.76189760704E+01  0.17194329556E+03  0.17120000000E+03 0.  0.
        998    1    1    2    0    0  0.25801771115E+02  0.20668494546E+02  0.13252314530E+04  0.13256814557E+04  0.10000000000E+02 0. -1.
</event>
<event>
 5    1  0.1535793E-008  0.3689951E+03  0.7957747E-01  0.3500522E+00
         13   -1    0    0    0    0  0.00000000000E+00  0.00000000000E+00  0.14999999963E+04  0.15000000000E+04  0.10566000000E+00 0. -1.
        994   -1    0    0    0    0 -0.00000000000E+00 -0.00000000000E+00  0.11368683772E-12  0.17120000000E+03  0.17120000000E+03 0.  0.
         13    1    1    2    0    0 -0.74136875581E+02 -0.38019761908E+02  0.21647515178E+03  0.23195534294E+03  0.10566000000E+00 0. -1.
        994    1    1    2    0    0  0.96509472437E+02  0.99810124985E+02  0.80922111591E+02  0.23480623387E+03  0.17120000000E+03 0.  0.
        998    1    1    2    0    0 -0.22372596856E+02 -0.61790363078E+02  0.12026027329E+04  0.12044384232E+04  0.10000000000E+02 0. -1.
</event>
<event>
 5    1  0.1535793E-008  0.3838456E+03  0.7957747E-01  0.3434583E+00
         13   -1    0    0    0    0  0.00000000000E+00  0.00000000000E+00  0.14999999963E+04  0.15000000000E+04  0.10566000000E+00 0. -1.
        994   -1    0    0    0    0 -0.00000000000E+00 -0.00000000000E+00  0.11368683772E-12  0.17120000000E+03  0.17120000000E+03 0.  0.
         13    1    1    2    0    0 -0.10700127611E+02  0.66892398728E+01  0.35555191667E+02  0.37728258368E+02  0.10566000000E+00 0. -1.
        994    1    1    2    0    0  0.10785457966E+02  0.15132390241E+01  0.25959966340E+01  0.17156571684E+03  0.17120000000E+03 0.  0.
        998    1    1    2    0    0 -0.85330354931E-01 -0.82024788968E+01  0.14618488080E+04  0.14619060248E+04  0.10000000000E+02 0. -1.
</event>
<event>
 5    1  0.1535793E-008  0.3783648E+03  0.7957747E-01  0.3458310E+00
         13   -1    0    0    0    0  0.00000000000E+00  0.00000000000E+00  0.14999999963E+04  0.15000000000E+04  0.10566000000E+00 0.  1.
        994   -1    0    0    0    0 -0.00000000000E+00 -0.00000000000E+00  0.11368683772E-12  0.17120000000E+03  0.17120000000E+03 0.  0.
         13    1    1    2    0    0  0.80696351797E+02  0.16969324171E+03  0.10821905115E+04  0.10983824524E+04  0.10566000000E+00 0.  1.
        994    1    1    2    0    0 -0.91819594654E+02 -0.15464217957E+03  0.12273448035E+03  0.27698056671E+03  0.17120000000E+03 0.  0.
        998    1    1    2    0    0  0.11123242857E+02 -0.15051062138E+02  0.29507500446E+03  0.29583698089E+03  0.10000000000E+02 0.  1.
</event>
<event>
 5    1  0.1535793E-008  0.3830183E+03  0.7957747E-01  0.3438121E+00
         13   -1    0    0    0    0  0.00000000000E+00  0.00000000000E+00  0.14999999963E+04  0.15000000000E+04  0.10566000000E+00 0. -1.
        994   -1    0    0    0    0 -0.00000000000E+00 -0.00000000000E+00  0.11368683772E-12  0.17120000000E+03  0.17120000000E+03 0.  0.
         13    1    1    2    0    0  0.26968990247E-01 -0.12240048144E+02  0.26193105431E+02  0.28912098541E+02  0.10566000000E+00 0. -1.
        994    1    1    2    0    0 -0.17110855621E+01  0.24875555256E+02  0.46777967342E+01  0.17306947404E+03  0.17120000000E+03 0.  0.
        998    1    1    2    0    0  0.16841165719E+01 -0.12635507112E+02  0.14691290941E+04  0.14692184274E+04  0.10000000000E+02 0. -1.
</event>
<event>
 5    1  0.1535793E-008  0.3081237E+03  0.7957747E-01  0.3839677E+00
         13   -1    0    0    0    0  0.00000000000E+00  0.00000000000E+00  0.14999999963E+04  0.15000000000E+04  0.10566000000E+00 0. -1.
        994   -1    0    0    0    0 -0.00000000000E+00 -0.00000000000E+00  0.11368683772E-12  0.17120000000E+03  0.17120000000E+03 0.  0.
         13    1    1    2    0    0  0.20393142863E+03  0.24386743671E+02  0.76181846662E+03  0.78901845866E+03  0.10566000000E+00 0. -1.
        994    1    1    2    0    0 -0.14668751124E+03 -0.11146412605E+02  0.10985726597E+03  0.25103690437E+03  0.17120000000E+03 0.  0.
        998    1    1    2    0    0 -0.57243917390E+02 -0.13240331066E+02  0.62832426369E+03  0.63114463698E+03  0.10000000000E+02 0. -1.
</event>
<event>
 5    1  0.1535793E-008  0.3859620E+03  0.7957747E-01  0.3425603E+00
         13   -1    0    0    0    0  0.00000000000E+00  0.00000000000E+00  0.14999999963E+04  0.15000000000E+04  0.10566000000E+00 0.  1.
        994   -1    0    0    0    0 -0.00000000000E+00 -0.00000000000E+00  0.11368683772E-12  0.17120000000E+03  0.17120000000E+03 0.  0.
         13    1    1    2    0    0 -0.26845867941E+01  0.13267270866E+02  0.81511067903E+02  0.82627433926E+02  0.10566000000E+00 0.  1.
        994    1    1    2    0    0  0.49699978519E+01 -0.62546028471E+01  0.13625456051E+01  0.17139170769E+03  0.17120000000E+03 0.  0.
        998    1    1    2    0    0 -0.22854110578E+01 -0.70126680194E+01  0.14171263828E+04  0.14171808584E+04  0.10000000000E+02 0.  1.
</event>
<event>
 5    1  0.1535793E-008  0.3504967E+03  0.7957747E-01  0.3590624E+00
         13   -1    0    0    0    0  0.00000000000E+00  0.00000000000E+00  0.14999999963E+04  0.15000000000E+04  0.10566000000E+00 0. -1.
        994   -1    0    0    0    0 -0.00000000000E+00 -0.00000000000E+00  0.11368683772E-12  0.17120000000E+03  0.17120000000E+03 0.  0.
         13    1    1    2    0    0 -0.14410833697E+03 -0.14815360459E+03  0.11006929066E+04  0.11199292786E+04  0.10566000000E+00 0. -1.
        994    1    1    2    0    0  0.92528606986E+02  0.13879581166E+03  0.12103358341E+03  0.26792608824E+03  0.17120000000E+03 0.  0.
        998    1    1    2    0    0  0.51579729984E+02  0.93577929358E+01  0.27827350628E+03  0.28334463314E+03  0.10000000000E+02 0.  1.
</event>
<event>
 5    1  0.1535793E-008  0.3749119E+03  0.7957747E-01  0.3473617E+00
         13   -1    0    0    0    0  0.00000000000E+00  0.00000000000E+00  0.14999999963E+04  0.15000000000E+04  0.10566000000E+00 0.  1.
        994   -1    0    0    0    0 -0.00000000000E+00 -0.00000000000E+00  0.11368683772E-12  0.17120000000E+03  0.17120000000E+03 0.  0.
         13    1    1    2    0    0  0.15404986470E+02  0.69529157921E+01  0.18039409940E+02  0.24720196625E+02  0.10566000000E+00 0.  1.
        994    1    1    2    0    0 -0.10509501737E+02 -0.22076809068E+02  0.87593743702E+01  0.17315889167E+03  0.17120000000E+03 0.  0.
        998    1    1    2    0    0 -0.48954847331E+01  0.15123893276E+02  0.14732012120E+04  0.14733209117E+04  0.10000000000E+02 0.  1.
</event>
<event>
 5    1  0.1535793E-008  0.3755402E+03  0.7957747E-01  0.3470810E+00
         13   -1    0    0    0    0  0.00000000000E+00  0.00000000000E+00  0.14999999963E+04  0.15000000000E+04  0.10566000000E+00 0.  1.
        994   -1    0    0    0    0 -0.00000000000E+00 -0.00000000000E+00  0.11368683772E-12  0.17120000000E+03  0.17120000000E+03 0.  0.
         13    1    1    2    0    0 -0.43239922092E+01 -0.20954391517E+02  0.33514392168E+02  0.39761904870E+02  0.10566000000E+00 0.  1.
        994    1    1    2    0    0  0.65888801417E-01  0.10855773310E+02  0.68015378232E+01  0.17167863313E+03  0.17120000000E+03 0.  0.
        998    1    1    2    0    0  0.42581034078E+01  0.10098618207E+02  0.14596840663E+04  0.14597594620E+04  0.10000000000E+02 0.  1.
</event>
<event>
 5    1  0.1535793E-008  0.3772140E+03  0.7957747E-01  0.3463380E+00
         13   -1    0    0    0    0  0.00000000000E+00  0.00000000000E+00  0.14999999963E+04  0.15000000000E+04  0.10566000000E+00 0. -1.
        994   -1    0    0    0    0 -0.00000000000E+00 -0.00000000000E+00  0.11368683772E-12  0.17120000000E+03  0.17120000000E+03 0.  0.
         13    1    1    2    0    0 -0.13480849198E+02  0.79295736233E+01  0.19404556031E+02  0.24923069469E+02  0.10566000000E+00 0. -1.
        994    1    1    2    0    0  0.11936101212E+02 -0.12621868004E+02  0.65650090172E+01  0.17220430136E+03  0.17120000000E+03 0.  0.
        998    1    1    2    0    0  0.15447479859E+01  0.46922943802E+01  0.14740304312E+04  0.14740726292E+04  0.10000000000E+02 0. -1.
</event>
<event>
 5    1  0.1535793E-008  0.3831443E+03  0.7957747E-01  0.3437581E+00
         13   -1    0    0    0    0  0.00000000000E+00  0.00000000000E+00  0.14999999963E+04  0.15000000000E+04  0.10566000000E+00 0. -1.
        994   -1    0    0    0    0 -0.00000000000E+00 -0.00000000000E+00  0.11368683772E-12  0.17120000000E+03  0.17120000000E+03 0.  0.
         13    1    1    2    0    0 -0.10285755125E+02 -0.85159826319E+01  0.33542529453E+02  0.36103063095E+02  0.10566000000E+00 0. -1.
        994    1    1    2    0    0  0.86494594703E+01  0.10321492803E+02  0.31545142802E+01  0.17175778679E+03  0.17120000000E+03 0.  0.
        998    1    1    2    0    0  0.16362956548E+01 -0.18055101712E+01  0.14633029525E+04  0.14633391501E+04  0.10000000000E+02 0. -1.
</event>
<event>
 5    1  0.1535793E-008  0.3804291E+03  0.7957747E-01  0.3449292E+00
         13   -1    0    0    0    0  0.00000000000E+00  0.00000000000E+00  0.14999999963E+04  0.15000000000E+04  0.10566000000E+00 0. -1.
        994   -1    0    0    0    0 -0.00000000000E+00 -0.00000000000E+00  0.11368683772E-12  0.17120000000E+03  0.17120000000E+03 0.  0.
         13    1    1    2    0    0 -0.42331949743E+02 -0.13118406388E+02  0.23413700198E+03  0.23829442590E+03  0.10566000000E+00 0. -1.
        994    1    1    2    0    0  0.39210202413E+02 -0.11729986804E+02  0.95285765273E+01  0.17628178106E+03  0.17120000000E+03 0.  0.
        998    1    1    2    0    0  0.31217473297E+01  0.24848393192E+02  0.12563344178E+04  0.12566237930E+04  0.10000000000E+02 0. -1.
</event>
<event>
 5    1  0.1535793E-008  0.3832625E+03  0.7957747E-01  0.3437075E+00
         13   -1    0    0    0    0  0.00000000000E+00  0.00000000000E+00  0.14999999963E+04  0.15000000000E+04  0.10566000000E+00 0. -1.
        994   -1    0    0    0    0 -0.00000000000E+00 -0.00000000000E+00  0.11368683772E-12  0.17120000000E+03  0.17120000000E+03 0.  0.
         13    1    1    2    0    0  0.17041050522E+02 -0.24432004863E+02  0.17446528149E+03  0.17699001631E+03  0.10566000000E+00 0. -1.
        994    1    1    2    0    0 -0.76751068259E+01  0.18264625095E+02  0.37944139467E+01  0.17238428400E+03  0.17120000000E+03 0.  0.
        998    1    1    2    0    0 -0.93659436962E+01  0.61673797681E+01  0.13217403008E+04  0.13218256997E+04  0.10000000000E+02 0. -1.
</event>
<event>
 5    1  0.1535793E-008  0.3857003E+03  0.7957747E-01  0.3426707E+00
         13   -1    0    0    0    0  0.00000000000E+00  0.00000000000E+00  0.14999999963E+04  0.15000000000E+04  0.10566000000E+00 0. -1.
        994   -1    0    0    0    0 -0.00000000000E+00 -0.00000000000E+00  0.11368683772E-12  0.17120000000E+03  0.17120000000E+03 0.  0.
         13    1    1    2    0    0 -0.73371624375E+01 -0.90241274154E+01  0.60006169755E+02  0.61122994044E+02  0.10566000000E+00 0. -1.
        994    1    1    2    0    0 -0.49946916743E+01 -0.84269193520E+01  0.15977628477E+01  0.17148747115E+03  0.17120000000E+03 0.  0.
        998    1    1    2    0    0  0.12331854112E+02  0.17451046767E+02  0.14383960637E+04  0.14385895348E+04  0.10000000000E+02 0. -1.
</event>
<event>
 5    1  0.1535793E-008  0.3758116E+03  0.7957747E-01  0.3469601E+00
         13   -1    0    0    0    0  0.00000000000E+00  0.00000000000E+00  0.14999999963E+04  0.15000000000E+04  0.10566000000E+00 0.  1.
        994   -1    0    0    0    0 -0.00000000000E+00 -0.00000000000E+00  0.11368683772E-12  0.17120000000E+03  0.17120000000E+03 0.  0.
         13    1    1    2    0    0  0.66656820709E+02  0.35218898891E+02  0.40383721935E+03  0.41081384286E+03  0.10566000000E+00 0.  1.
        994    1    1    2    0    0 -0.51365710656E+02 -0.21000684259E+02  0.16774071851E+02  0.18074920320E+03  0.17120000000E+03 0.  0.
        998    1    1    2    0    0 -0.15291110053E+02 -0.14218214632E+02  0.10793887051E+04  0.10796369539E+04  0.10000000000E+02 0.  0.
</event>
<event>
 5    1  0.1535793E-008  0.3853101E+03  0.7957747E-01  0.3428358E+00
         13   -1    0    0    0    0  0.00000000000E+00  0.00000000000E+00  0.14999999963E+04  0.15000000000E+04  0.10566000000E+00 0.  1.
        994   -1    0    0    0    0 -0.00000000000E+00 -0.00000000000E+00  0.11368683772E-12  0.17120000000E+03  0.17120000000E+03 0.  0.
         13    1    1    2    0    0 -0.16527758916E+02  0.65490462564E+01  0.10178955242E+03  0.10333044550E+03  0.10566000000E+00 0.  1.
        994    1    1    2    0    0  0.17172733349E+02 -0.50231723020E+01  0.25287042736E+01  0.17215100748E+03  0.17120000000E+03 0.  0.
        998    1    1    2    0    0 -0.64497443389E+00 -0.15258739544E+01  0.13956817396E+04  0.13957185470E+04  0.10000000000E+02 0.  1.
</event>
<event>
 5    1  0.1535793E-008  0.2206949E+03  0.7957747E-01  0.4699438E+00
         13   -1    0    0    0    0  0.00000000000E+00  0.00000000000E+00  0.14999999963E+04  0.15000000000E+04  0.10566000000E+00 0.  1.
        994   -1    0    0    0    0 -0.00000000000E+00 -0.00000000000E+00  0.11368683772E-12  0.17120000000E+03  0.17120000000E+03 0.  0.
         13    1    1    2    0    0  0.11045552085E+03 -0.94978295928E+02  0.10354923869E+03  0.17872815889E+03  0.10566000000E+00 0.  1.
        994    1    1    2    0    0 -0.12961840875E+03 -0.38388779354E+00  0.20454606266E+03  0.29656299669E+03  0.17120000000E+03 0.  0.
        998    1    1    2    0    0  0.19162887904E+02  0.95362183722E+02  0.11919046949E+04  0.11959088444E+04  0.10000000000E+02 0.  1.
</event>
<event>
 5    1  0.1535793E-008  0.3716654E+03  0.7957747E-01  0.3488272E+00
         13   -1    0    0    0    0  0.00000000000E+00  0.00000000000E+00  0.14999999963E+04  0.15000000000E+04  0.10566000000E+00 0.  1.
        994   -1    0    0    0    0 -0.00000000000E+00 -0.00000000000E+00  0.11368683772E-12  0.17120000000E+03  0.17120000000E+03 0.  0.
         13    1    1    2    0    0  0.18100098647E+02  0.27279044329E+02  0.54075317442E+02  0.63213218167E+02  0.10566000000E+00 0.  1.
        994    1    1    2    0    0 -0.33978713759E+02 -0.47441502017E+02  0.20200495203E+02  0.18199656345E+03  0.17120000000E+03 0.  0.
        998    1    1    2    0    0  0.15878615113E+02  0.20162457688E+02  0.14257241836E+04  0.14259902184E+04  0.10000000000E+02 0.  1.
</event>
<event>
 5    1  0.1535793E-008  0.3824639E+03  0.7957747E-01  0.3440500E+00
         13   -1    0    0    0    0  0.00000000000E+00  0.00000000000E+00  0.14999999963E+04  0.15000000000E+04  0.10566000000E+00 0. -1.
        994   -1    0    0    0    0 -0.00000000000E+00 -0.00000000000E+00  0.11368683772E-12  0.17120000000E+03  0.17120000000E+03 0.  0.
         13    1    1    2    0    0  0.26635076889E+02 -0.14030535880E+01  0.10994398964E+03  0.11313305398E+03  0.10566000000E+00 0. -1.
        994    1    1    2    0    0 -0.32356525821E+02  0.16562901578E+02  0.72881624818E+01  0.17516801016E+03  0.17120000000E+03 0.  0.
        998    1    1    2    0    0  0.57214489322E+01 -0.15159847990E+02  0.13827678442E+04  0.13828989359E+04  0.10000000000E+02 0. -1.
</event>
<event>
 5    1  0.1535793E-008  0.3855059E+03  0.7957747E-01  0.3427529E+00
         13   -1    0    0    0    0  0.00000000000E+00  0.00000000000E+00  0.14999999963E+04  0.15000000000E+04  0.10566000000E+00 0.  1.
        994   -1    0    0    0    0 -0.00000000000E+00 -0.00000000000E+00  0.11368683772E-12  0.17120000000E+03  0.17120000000E+03 0.  0.
         13    1    1    2    0    0  0.12849939609E+00  0.12948127725E+02  0.63461127088E+02  0.64768791397E+02  0.10566000000E+00 0.  1.
        994    1    1    2    0    0  0.33555800075E+01 -0.30864919965E+01  0.14474259631E+01  0.17126681346E+03  0.17120000000E+03 0.  0.
        998    1    1    2    0    0 -0.34840794036E+01 -0.98616357289E+01  0.14350914432E+04  0.14351643951E+04  0.10000000000E+02 0.  1.
</event>
<event>
 5    1  0.1535793E-008  0.3850655E+03  0.7957747E-01  0.3429394E+00
         13   -1    0    0    0    0  0.00000000000E+00  0.00000000000E+00  0.14999999963E+04  0.15000000000E+04  0.10566000000E+00 0.  1.
        994   -1    0    0    0    0 -0.00000000000E+00 -0.00000000000E+00  0.11368683772E-12  0.17120000000E+03  0.17120000000E+03 0.  0.
         13    1    1    2    0    0  0.70010141790E+00 -0.13054726287E+02  0.53367806134E+02  0.54945881702E+02  0.10566000000E+00 0.  1.
        994    1    1    2    0    0  0.54839290818E+01  0.94546363032E+01  0.19904967741E+01  0.17156009356E+03  0.17120000000E+03 0.  0.
        998    1    1    2    0    0 -0.61840304997E+01  0.36000899842E+01  0.14446416934E+04  0.14446940247E+04  0.10000000000E+02 0.  1.
</event>
<event>
 5    1  0.1535793E-008  0.3822681E+03  0.7957747E-01  0.3441342E+00
         13   -1    0    0    0    0  0.00000000000E+00  0.00000000000E+00  0.14999999963E+04  0.15000000000E+04  0.10566000000E+00 0. -1.
        994   -1    0    0    0    0 -0.00000000000E+00 -0.00000000000E+00  0.11368683772E-12  0.17120000000E+03  0.17120000000E+03 0.  0.
         13    1    1    2    0    0 -0.23658289075E+02  0.13275509427E+02  0.12902329131E+03  0.13184450939E+03  0.10566000000E+00 0. -1.
        994    1    1    2    0    0  0.42231113532E+01 -0.92723480157E+01  0.33370968407E+01  0.17153538213E+03  0.17120000000E+03 0.  0.
        998    1    1    2    0    0  0.19435177721E+02 -0.40031614108E+01  0.13676396081E+04  0.13678201085E+04  0.10000000000E+02 0. -1.
</event>
<event>
 5    1  0.1535793E-008  0.3849414E+03  0.7957747E-01  0.3429921E+00
         13   -1    0    0    0    0  0.00000000000E+00  0.00000000000E+00  0.14999999963E+04  0.15000000000E+04  0.10566000000E+00 0.  1.
        994   -1    0    0    0    0 -0.00000000000E+00 -0.00000000000E+00  0.11368683772E-12  0.17120000000E+03  0.17120000000E+03 0.  0.
         13    1    1    2    0    0 -0.10152321255E+02 -0.52970139489E+01  0.37897098962E+02  0.39589509436E+02  0.10566000000E+00 0.  1.
        994    1    1    2    0    0  0.15306867184E+02  0.42113177155E+01  0.24886864378E+01  0.17195251944E+03  0.17120000000E+03 0.  0.
        998    1    1    2    0    0 -0.51545459292E+01  0.10856962334E+01  0.14596142109E+04  0.14596579711E+04  0.10000000000E+02 0.  1.
</event>
<event>
 5    1  0.1535793E-008  0.3787302E+03  0.7957747E-01  0.3456706E+00
         13   -1    0    0    0    0  0.00000000000E+00  0.00000000000E+00  0.14999999963E+04  0.15000000000E+04  0.10566000000E+00 0.  1.
        994   -1    0    0    0    0 -0.00000000000E+00 -0.00000000000E+00  0.11368683772E-12  0.17120000000E+03  0.17120000000E+03 0.  0.
         13    1    1    2    0    0  0.15513946242E+02 -0.21735946996E+02  0.70855789441E+02  0.75721119783E+02  0.10566000000E+00 0.  1.
        994    1    1    2    0    0 -0.16740752553E+01  0.28115261790E+02  0.74430715447E+01  0.17366090460E+03  0.17120000000E+03 0.  0.
        998    1    1    2    0    0 -0.13839870987E+02 -0.63793147937E+01  0.14217011353E+04  0.14218179756E+04  0.10000000000E+02 0.  1.
</event>
<event>
 5    1  0.1535793E-008  0.3793005E+03  0.7957747E-01  0.3454210E+00
         13   -1    0    0    0    0  0.00000000000E+00  0.00000000000E+00  0.14999999963E+04  0.15000000000E+04  0.10566000000E+00 0.  1.
        994   -1    0    0    0    0 -0.00000000000E+00 -0.00000000000E+00  0.11368683772E-12  0.17120000000E+03  0.17120000000E+03 0.  0.
         13    1    1    2    0    0 -0.17265867577E+02  0.38654183821E+01  0.32610752291E+02  0.37101535972E+02  0.10566000000E+00 0.  1.
        994    1    1    2    0    0  0.16851299232E+02 -0.17903133523E+01  0.54494568467E+01  0.17212294469E+03  0.17120000000E+03 0.  0.
        998    1    1    2    0    0  0.41456834560E+00 -0.20751050297E+01  0.14619397871E+04  0.14619755193E+04  0.10000000000E+02 0.  1.
</event>
<event>
 5    1  0.1535793E-008  0.3754860E+03  0.7957747E-01  0.3471052E+00
         13   -1    0    0    0    0  0.00000000000E+00  0.00000000000E+00  0.14999999963E+04  0.15000000000E+04  0.10566000000E+00 0.  1.
        994   -1    0    0    0    0 -0.00000000000E+00 -0.00000000000E+00  0.11368683772E-12  0.17120000000E+03  0.17120000000E+03 0.  0.
         13    1    1    2    0    0 -0.32622786566E+02 -0.39032230177E+02  0.30570101005E+03  0.30990463034E+03  0.10566000000E+00 0.  1.
        994    1    1    2    0    0 -0.18760374733E+02 -0.12775447090E+02  0.81795877413E+01  0.17289161161E+03  0.17120000000E+03 0.  0.
        998    1    1    2    0    0  0.51383161299E+02  0.51807677267E+02  0.11861193985E+04  0.11884037581E+04  0.10000000000E+02 0.  1.
</event>
<event>
 5    1  0.1535793E-008  0.3361391E+03  0.7957747E-01  0.3667623E+00
         13   -1    0    0    0    0  0.00000000000E+00  0.00000000000E+00  0.14999999963E+04  0.15000000000E+04  0.10566000000E+00 0. -1.
        994   -1    0    0    0    0 -0.00000000000E+00 -0.00000000000E+00  0.11368683772E-12  0.17120000000E+03  0.17120000000E+03 0.  0.
         13    1    1    2    0    0 -0.20723043874E+03 -0.42036509785E+02  0.90776515919E+03  0.93206712113E+03  0.10566000000E+00 0. -1.
        994    1    1    2    0    0  0.19018628673E+03  0.32275099319E+02  0.15410737367E+03  0.30045137430E+03  0.17120000000E+03 0.  0.
        998    1    1    2    0    0  0.17044152013E+02  0.97614104659E+01  0.43812746342E+03  0.43868150457E+03  0.10000000000E+02 0.  1.
</event>
<event>
 5    1  0.1535793E-008  0.3753543E+03  0.7957747E-01  0.3471640E+00
         13   -1    0    0    0    0  0.00000000000E+00  0.00000000000E+00  0.14999999963E+04  0.15000000000E+04  0.10566000000E+00 0. -1.
        994   -1    0    0    0    0 -0.00000000000E+00 -0.00000000000E+00  0.11368683772E-12  0.17120000000E+03  0.17120000000E+03 0.  0.
         13    1    1    2    0    0 -0.12391704026E+02  0.41359654054E+01  0.10117160631E+02  0.16523578358E+02  0.10566000000E+00 0. -1.
        994    1    1    2    0    0  0.11866783169E+02 -0.81133534883E+01  0.71987828175E+01  0.17195321899E+03  0.17120000000E+03 0.  0.
        998    1    1    2    0    0  0.52492085763E+00  0.39773880829E+01  0.14826840528E+04  0.14827232026E+04  0.10000000000E+02 0. -1.
</event>
<event>
 5    1  0.1535793E-008  0.3789259E+03  0.7957747E-01  0.3455849E+00
         13   -1    0    0    0    0  0.00000000000E+00  0.00000000000E+00  0.14999999963E+04  0.15000000000E+04  0.10566000000E+00 0.  1.
        994   -1    0    0    0    0 -0.00000000000E+00 -0.00000000000E+00  0.11368683772E-12  0.17120000000E+03  0.17120000000E+03 0.  0.
         13    1    1    2    0    0 -0.62287981925E+01  0.40013033597E+02  0.19248897445E+03  0.19670245864E+03  0.10566000000E+00 0.  1.
        994    1    1    2    0    0 -0.71404067014E+01 -0.10063084985E+02  0.51872476519E+01  0.17172244648E+03  0.17120000000E+03 0.  0.
        998    1    1    2    0    0  0.13369204894E+02 -0.29949948612E+02  0.13023237742E+04  0.13027750949E+04  0.10000000000E+02 0.  1.
</event>
<event>
 5    1  0.1535793E-008  0.3800906E+03  0.7957747E-01  0.3450764E+00
         13   -1    0    0    0    0  0.00000000000E+00  0.00000000000E+00  0.14999999963E+04  0.15000000000E+04  0.10566000000E+00 0. -1.
        994   -1    0    0    0    0 -0.00000000000E+00 -0.00000000000E+00  0.11368683772E-12  0.17120000000E+03  0.17120000000E+03 0.  0.
         13    1    1    2    0    0 -0.32162178266E+02 -0.15147217421E+01  0.13725809757E+03  0.14098402961E+03  0.10566000000E+00 0. -1.
        994    1    1    2    0    0  0.42212759063E+01  0.64740064618E+01  0.42870685009E+01  0.17142797580E+03  0.17120000000E+03 0.  0.
        998    1    1    2    0    0  0.27940902360E+02 -0.49592847197E+01  0.13584548302E+04  0.13587879946E+04  0.10000000000E+02 0. -1.
</event>
<event>
 5    1  0.1535793E-008  0.3826213E+03  0.7957747E-01  0.3439824E+00
         13   -1    0    0    0    0  0.00000000000E+00  0.00000000000E+00  0.14999999963E+04  0.15000000000E+04  0.10566000000E+00 0. -1.
        994   -1    0    0    0    0 -0.00000000000E+00 -0.00000000000E+00  0.11368683772E-12  0.17120000000E+03  0.17120000000E+03 0.  0.
         13    1    1    2    0    0  0.15349403023E+02 -0.28115709089E+02  0.17714476462E+03  0.18001771042E+03  0.10566000000E+00 0. -1.
        994    1    1    2    0    0  0.21381341508E+01  0.26239207947E+02  0.51161096138E+01  0.17328785944E+03  0.17120000000E+03 0.  0.
        998    1    1    2    0    0 -0.17487537174E+02  0.18765011417E+01  0.13177391220E+04  0.13178944301E+04  0.10000000000E+02 0. -1.
</event>
<event>
 5    1  0.1535793E-008  0.2990323E+03  0.7957747E-01  0.3902952E+00
         13   -1    0    0    0    0  0.00000000000E+00  0.00000000000E+00  0.14999999963E+04  0.15000000000E+04  0.10566000000E+00 0. -1.
        994   -1    0    0    0    0 -0.00000000000E+00 -0.00000000000E+00  0.11368683772E-12  0.17120000000E+03  0.17120000000E+03 0.  0.
         13    1    1    2    0    0  0.14254895000E+03  0.11738830253E+03  0.66379385527E+03  0.68900109592E+03  0.10566000000E+00 0. -1.
        994    1    1    2    0    0 -0.11162669660E+03 -0.12227898948E+03  0.12265708476E+03  0.26789339504E+03  0.17120000000E+03 0.  0.
        998    1    1    2    0    0 -0.30922253399E+02  0.48906869437E+01  0.71354905625E+03  0.71430550905E+03  0.10000000000E+02 0. -1.
</event>
<event>
 5    1  0.1535793E-008  0.3760032E+03  0.7957747E-01  0.3468748E+00
         13   -1    0    0    0    0  0.00000000000E+00  0.00000000000E+00  0.14999999963E+04  0.15000000000E+04  0.10566000000E+00 0.  1.
        994   -1    0    0    0    0 -0.00000000000E+00 -0.00000000000E+00  0.11368683772E-12  0.17120000000E+03  0.17120000000E+03 0.  0.
         13    1    1    2    0    0  0.37906080414E+02 -0.13995149754E+03  0.82309175825E+03  0.83576512625E+03  0.10566000000E+00 0.  1.
        994    1    1    2    0    0 -0.42148614102E+02  0.13019854089E+03  0.72506217423E+02  0.23085657297E+03  0.17120000000E+03 0.  0.
        998    1    1    2    0    0  0.42425336882E+01  0.97529566512E+01  0.60440202061E+03  0.60457830078E+03  0.10000000000E+02 0.  1.
</event>
<event>
 5    1  0.1535793E-008  0.3826372E+03  0.7957747E-01  0.3439755E+00
         13   -1    0    0    0    0  0.00000000000E+00  0.00000000000E+00  0.14999999963E+04  0.15000000000E+04  0.10566000000E+00 0. -1.
        994   -1    0    0    0    0 -0.00000000000E+00 -0.00000000000E+00  0.11368683772E-12  0.17120000000E+03  0.17120000000E+03 0.  0.
         13    1    1    2    0    0  0.12542615587E+02 -0.20449134541E+02  0.11250035590E+03  0.11502967248E+03  0.10566000000E+00 0. -1.
        994    1    1    2    0    0  0.56332140217E+01  0.27321827856E+01  0.29376818540E+01  0.17133962734E+03  0.17120000000E+03 0.  0.
        998    1    1    2    0    0 -0.18175829608E+02  0.17716951755E+02  0.13845619585E+04  0.13848307002E+04  0.10000000000E+02 0. -1.
</event>
<event>
 5    1  0.1535793E-008  0.3830100E+03  0.7957747E-01  0.3438156E+00
         13   -1    0    0    0    0  0.00000000000E+00  0.00000000000E+00  0.14999999963E+04  0.15000000000E+04  0.10566000000E+00 0. -1.
        994   -1    0    0    0    0 -0.00000000000E+00 -0.00000000000E+00  0.11368683772E-12  0.17120000000E+03  0.17120000000E+03 0.  0.
         13    1    1    2    0    0 -0.19434372085E+02 -0.23958724447E+01  0.69147148794E+02  0.71866364688E+02  0.10566000000E+00 0. -1.
        994    1    1    2    0    0  0.21350985069E+02  0.92025013614E+00  0.41345386680E+01  0.17257823105E+03  0.17120000000E+03 0.  0.
        998    1    1    2    0    0 -0.19166129848E+01  0.14756223085E+01  0.14267183088E+04  0.14267554043E+04  0.10000000000E+02 0. -1.
</event>
<event>
 5    1  0.1535793E-008  0.3845099E+03  0.7957747E-01  0.3431754E+00
         13   -1    0    0    0    0  0.00000000000E+00  0.00000000000E+00  0.14999999963E+04  0.15000000000E+04  0.10566000000E+00 0. -1.
        994   -1    0    0    0    0 -0.00000000000E+00 -0.00000000000E+00  0.11368683772E-12  0.17120000000E+03  0.17120000000E+03 0.  0.
         13    1    1    2    0    0 -0.40366090625E+01 -0.12957902462E+02  0.50075510334E+02  0.51882264293E+02  0.10566000000E+00 0. -1.
        994    1    1    2    0    0 -0.10302942695E+01  0.49763999504E+01  0.19587532617E+01  0.17128661003E+03  0.17120000000E+03 0.  0.
        998    1    1    2    0    0  0.50669033320E+01  0.79815025120E+01  0.14479657327E+04  0.14480311257E+04  0.10000000000E+02 0. -1.
</event>
<event>
 5    1  0.1535793E-008  0.3839979E+03  0.7957747E-01  0.3433934E+00
         13   -1    0    0    0    0  0.00000000000E+00  0.00000000000E+00  0.14999999963E+04  0.15000000000E+04  0.10566000000E+00 0. -1.
        994   -1    0    0    0    0 -0.00000000000E+00 -0.00000000000E+00  0.11368683772E-12  0.17120000000E+03  0.17120000000E+03 0.  0.
         13    1    1    2    0    0 -0.34532614547E+01 -0.15774883033E+02  0.57800161931E+02  0.60013680379E+02  0.10566000000E+00 0. -1.
        994    1    1    2    0    0  0.31611042252E+01  0.20050153766E+02  0.34890268635E+01  0.17243437753E+03  0.17120000000E+03 0.  0.
        998    1    1    2    0    0  0.29215722948E+00 -0.42752707328E+01  0.14387108075E+04  0.14387519421E+04  0.10000000000E+02 0. -1.
</event>
<event>
 5    1  0.1535793E-008  0.3809696E+03  0.7957747E-01  0.3446947E+00
         13   -1    0    0    0    0  0.00000000000E+00  0.00000000000E+00  0.14999999963E+04  0.15000000000E+04  0.10566000000E+00 0. -1.
        994   -1    0    0    0    0 -0.00000000000E+00 -0.00000000000E+00  0.11368683772E-12  0.17120000000E+03  0.17120000000E+03 0.  0.
         13    1    1    2    0    0 -0.98612517270E+01 -0.11179254049E+02  0.28304576022E+02  0.31990314074E+02  0.10566000000E+00 0. -1.
        994    1    1    2    0    0  0.10028838037E+02  0.16030193178E+02  0.48368159981E+01  0.17230896516E+03  0.17120000000E+03 0.  0.
        998    1    1    2    0    0 -0.16758630974E+00 -0.48509391287E+01  0.14668586043E+04  0.14669007208E+04  0.10000000000E+02 0. -1.
</event>
<event>
 5    1  0.1535793E-008  0.3769766E+03  0.7957747E-01  0.3464430E+00
         13   -1    0    0    0    0  0.00000000000E+00  0.00000000000E+00  0.14999999963E+04  0.15000000000E+04  0.10566000000E+00 0. -1.
        994   -1    0    0    0    0 -0.00000000000E+00 -0.00000000000E+00  0.11368683772E-12  0.17120000000E+03  0.17120000000E+03 0.  0.
         13    1    1    2    0    0 -0.78614751657E+01  0.22233269797E+02  0.46607372754E+02  0.52233891649E+02  0.10566000000E+00 0. -1.
        994    1    1    2    0    0  0.42705930732E+00 -0.18048479266E+02  0.67685095637E+01  0.17228227624E+03  0.17120000000E+03 0.  0.
        998    1    1    2    0    0  0.74344158584E+01 -0.41847905313E+01  0.14466241140E+04  0.14466838321E+04  0.10000000000E+02 0. -1.
</event>
<event>
 5    1  0.1535793E-008  0.3786017E+03  0.7957747E-01  0.3457270E+00
         13   -1    0    0    0    0  0.00000000000E+00  0.00000000000E+00  0.14999999963E+04  0.15000000000E+04  0.10566000000E+00 0.  1.
        994   -1    0    0    0    0 -0.00000000000E+00 -0.00000000000E+00  0.11368683772E-12  0.17120000000E+03  0.17120000000E+03 0.  0.
         13    1    1    2    0    0 -0.13177871523E+03 -0.15888535470E+03  0.66268781593E+03  0.69409317694E+03  0.10566000000E+00 0.  1.
        994    1    1    2    0    0  0.17200313507E+03  0.20208243434E+03  0.29710772602E+03  0.43359523706E+03  0.17120000000E+03 0.  0.
        998    1    1    2    0    0 -0.40224419837E+02 -0.43197079641E+02  0.54020445432E+03  0.54351158600E+03  0.10000000000E+02 0.  1.
</event>
<event>
 5    1  0.1535793E-008  0.3687043E+03  0.7957747E-01  0.3501867E+00
         13   -1    0    0    0    0  0.00000000000E+00  0.00000000000E+00  0.14999999963E+04  0.15000000000E+04  0.10566000000E+00 0.  1.
        994   -1    0    0    0    0 -0.00000000000E+00 -0.00000000000E+00  0.11368683772E-12  0.17120000000E+03  0.17120000000E+03 0.  0.
         13    1    1    2    0    0  0.11782357367E+02  0.44825390989E+01  0.33544652384E+01  0.13045332612E+02  0.10566000000E+00 0.  1.
        994    1    1    2    0    0 -0.12049270709E+02 -0.65142633599E+01  0.10599790625E+02  0.17207386819E+03  0.17120000000E+03 0.  0.
        998    1    1    2    0    0  0.26691334266E+00  0.20317242610E+01  0.14860457404E+04  0.14860807992E+04  0.10000000000E+02 0.  1.
</event>
<event>
 5    1  0.1535793E-008  0.3750611E+03  0.7957747E-01  0.3472950E+00
         13   -1    0    0    0    0  0.00000000000E+00  0.00000000000E+00  0.14999999963E+04  0.15000000000E+04  0.10566000000E+00 0.  1.
        994   -1    0    0    0    0 -0.00000000000E+00 -0.00000000000E+00  0.11368683772E-12  0.17120000000E+03  0.17120000000E+03 0.  0.
         13    1    1    2    0    0  0.11857066982E+02 -0.22746196404E+02  0.20009517453E+02  0.32532621183E+02  0.10566000000E+00 0.  1.
        994    1    1    2    0    0  0.21922257943E+02 -0.98037513188E+01  0.15695559040E+02  0.17358712368E+03  0.17120000000E+03 0.  0.
        998    1    1    2    0    0 -0.33779324925E+02  0.32549947723E+02  0.14642949198E+04  0.14650802551E+04  0.10000000000E+02 0.  1.
</event>
<event>
 5    1  0.1535793E-008  0.3699795E+03  0.7957747E-01  0.3495985E+00
         13   -1    0    0    0    0  0.00000000000E+00  0.00000000000E+00  0.14999999963E+04  0.15000000000E+04  0.10566000000E+00 0.  1.
        994   -1    0    0    0    0 -0.00000000000E+00 -0.00000000000E+00  0.11368683772E-12  0.17120000000E+03  0.17120000000E+03 0.  0.
         13    1    1    2    0    0 -0.89034943386E+02 -0.41398556069E+02  0.56668256315E+03  0.57512624712E+03  0.10566000000E+00 0.  1.
        994    1    1    2    0    0  0.43267576253E+02  0.21417369683E+02  0.17382921536E+02  0.17872434876E+03  0.17120000000E+03 0.  0.
        998    1    1    2    0    0  0.45767367132E+02  0.19981186387E+02  0.91593451159E+03  0.91734940412E+03  0.10000000000E+02 0. -1.
</event>
<event>
 5    1  0.1535793E-008  0.3714578E+03  0.7957747E-01  0.3489218E+00
         13   -1    0    0    0    0  0.00000000000E+00  0.00000000000E+00  0.14999999963E+04  0.15000000000E+04  0.10566000000E+00 0.  1.
        994   -1    0    0    0    0 -0.00000000000E+00 -0.00000000000E+00  0.11368683772E-12  0.17120000000E+03  0.17120000000E+03 0.  0.
         13    1    1    2    0    0  0.15620835093E+02 -0.67443870931E+02  0.20800447083E+03  0.21922262033E+03  0.10566000000E+00 0.  1.
        994    1    1    2    0    0  0.23371107630E+02  0.41232926753E+02  0.19647311222E+02  0.17872274550E+03  0.17120000000E+03 0.  0.
        998    1    1    2    0    0 -0.38991942723E+02  0.26210944178E+02  0.12723482142E+04  0.12732546342E+04  0.10000000000E+02 0.  1.
</event>
<event>
 5    1  0.1535793E-008  0.3859106E+03  0.7957747E-01  0.3425819E+00
         13   -1    0    0    0    0  0.00000000000E+00  0.00000000000E+00  0.14999999963E+04  0.15000000000E+04  0.10566000000E+00 0.  1.
        994   -1    0    0    0    0 -0.00000000000E+00 -0.00000000000E+00  0.11368683772E-12  0.17120000000E+03  0.17120000000E+03 0.  0.
         13    1    1    2    0    0 -0.11424969666E+02  0.51566254628E+01  0.67514037112E+02  0.68667875235E+02  0.10566000000E+00 0.  1.
        994    1    1    2    0    0  0.11431532432E+02  0.55658409290E+01  0.17089465579E+01  0.17167999015E+03  0.17120000000E+03 0.  0.
        998    1    1    2    0    0 -0.65627654494E-02 -0.10722466392E+02  0.14307770126E+04  0.14308521346E+04  0.10000000000E+02 0.  1.
</event>
<event>
 5    1  0.1535793E-008  0.3834699E+03  0.7957747E-01  0.3436187E+00
         13   -1    0    0    0    0  0.00000000000E+00  0.00000000000E+00  0.14999999963E+04  0.15000000000E+04  0.10566000000E+00 0.  1.
        994   -1    0    0    0    0 -0.00000000000E+00 -0.00000000000E+00  0.11368683772E-12  0.17120000000E+03  0.17120000000E+03 0.  0.
         13    1    1    2    0    0  0.15727653166E+02  0.51541542650E+01  0.55185146386E+02  0.57613678289E+02  0.10566000000E+00 0.  1.
        994    1    1    2    0    0 -0.15833761086E+02 -0.35240179904E+01  0.32618306771E+01  0.17199769252E+03  0.17120000000E+03 0.  0.
        998    1    1    2    0    0  0.10610792077E+00 -0.16301362746E+01  0.14415530192E+04  0.14415886292E+04  0.10000000000E+02 0.  1.
</event>
<event>
 5    1  0.1535793E-008  0.3685330E+03  0.7957747E-01  0.3502660E+00
         13   -1    0    0    0    0  0.00000000000E+00  0.00000000000E+00  0.14999999963E+04  0.15000000000E+04  0.10566000000E+00 0. -1.
        994   -1    0    0    0    0 -0.00000000000E+00 -0.00000000000E+00  0.11368683772E-12  0.17120000000E+03  0.17120000000E+03 0.  0.
         13    1    1    2    0    0  0.47114016714E+02 -0.14627436216E+02  0.14575958719E+03  0.15388164569E+03  0.10566000000E+00 0. -1.
        994    1    1    2    0    0  0.18160186634E+02 -0.34097217844E+01  0.11225271863E+02  0.17255974417E+03  0.17120000000E+03 0.  0.
        998    1    1    2    0    0 -0.65274203348E+02  0.18037158000E+02  0.13430151372E+04  0.13447586101E+04  0.10000000000E+02 0. -1.
</event>
<event>
 5    1  0.1535793E-008  0.3852946E+03  0.7957747E-01  0.3428424E+00
         13   -1    0    0    0    0  0.00000000000E+00  0.00000000000E+00  0.14999999963E+04  0.15000000000E+04  0.10566000000E+00 0. -1.
        994   -1    0    0    0    0 -0.00000000000E+00 -0.00000000000E+00  0.11368683772E-12  0.17120000000E+03  0.17120000000E+03 0.  0.
         13    1    1    2    0    0  0.98957150168E+00 -0.13053773996E+02  0.55736722810E+02  0.57253591162E+02  0.10566000000E+00 0. -1.
        994    1    1    2    0    0  0.35307267140E+00  0.15020215840E+02  0.22259158509E+01  0.17187241269E+03  0.17120000000E+03 0.  0.
        998    1    1    2    0    0 -0.13426441731E+01 -0.19664418434E+01  0.14420373576E+04  0.14420739961E+04  0.10000000000E+02 0. -1.
</event>
<event>
 5    1  0.1535793E-008  0.3863081E+03  0.7957747E-01  0.3424143E+00
         13   -1    0    0    0    0  0.00000000000E+00  0.00000000000E+00  0.14999999963E+04  0.15000000000E+04  0.10566000000E+00 0.  1.
        994   -1    0    0    0    0 -0.00000000000E+00 -0.00000000000E+00  0.11368683772E-12  0.17120000000E+03  0.17120000000E+03 0.  0.
         13    1    1    2    0    0  0.47094563046E+02  0.32701558766E+02  0.73293697608E+02  0.93055183022E+02  0.10566000000E+00 0.  1.
        994    1    1    2    0    0 -0.45745467151E+02 -0.28531754488E+02  0.30699174259E+02  0.18209499740E+03  0.17120000000E+03 0.  0.
        998    1    1    2    0    0 -0.13490958956E+01 -0.41698042784E+01  0.13960071244E+04  0.13960498196E+04  0.10000000000E+02 0.  1.
</event>
<event>
 5    1  0.1535793E-008  0.3802804E+03  0.7957747E-01  0.3449938E+00
         13   -1    0    0    0    0  0.00000000000E+00  0.00000000000E+00  0.14999999963E+04  0.15000000000E+04  0.10566000000E+00 0.  1.
        994   -1    0    0    0    0 -0.00000000000E+00 -0.00000000000E+00  0.11368683772E-12  0.17120000000E+03  0.17120000000E+03 0.  0.
         13    1    1    2    0    0  0.87548917142E+01  0.15038572381E+02  0.35422927799E+02  0.39466463815E+02  0.10566000000E+00 0.  1.
        994    1    1    2    0    0 -0.11074192293E+02 -0.16502258247E+02  0.53118610339E+01  0.17243148822E+03  0.17120000000E+03 0.  0.
        998    1    1    2    0    0  0.23193005793E+01  0.14636858656E+01  0.14592652074E+04  0.14593020480E+04  0.10000000000E+02 0.  1.
</event>
<event>
 5    1  0.1535793E-008  0.3858512E+03  0.7957747E-01  0.3426070E+00
         13   -1    0    0    0    0  0.00000000000E+00  0.00000000000E+00  0.14999999963E+04  0.15000000000E+04  0.10566000000E+00 0. -1.
        994   -1    0    0    0    0 -0.00000000000E+00 -0.00000000000E+00  0.11368683772E-12  0.17120000000E+03  0.17120000000E+03 0.  0.
         13    1    1    2    0    0 -0.12748959001E+02 -0.17274801142E+01  0.73387079428E+02  0.74506340228E+02  0.10566000000E+00 0. -1.
        994    1    1    2    0    0 -0.84559732783E+00  0.16797499980E+02  0.21363553247E+01  0.17203742341E+03  0.17120000000E+03 0.  0.
        998    1    1    2    0    0  0.13594556329E+02 -0.15070019866E+02  0.14244765615E+04  0.14246562364E+04  0.10000000000E+02 0. -1.
</event>
<event>
 5    1  0.1535793E-008  0.3853088E+03  0.7957747E-01  0.3428364E+00
         13   -1    0    0    0    0  0.00000000000E+00  0.00000000000E+00  0.14999999963E+04  0.15000000000E+04  0.10566000000E+00 0.  1.
        994   -1    0    0    0    0 -0.00000000000E+00 -0.00000000000E+00  0.11368683772E-12  0.17120000000E+03  0.17120000000E+03 0.  0.
         13    1    1    2    0    0 -0.15564268213E+03 -0.67974121246E+01  0.51241686309E+03  0.53557623366E+03  0.10566000000E+00 0.  1.
        994    1    1    2    0    0  0.12005889947E+03  0.43442470877E+02  0.82347214319E+02  0.22889275070E+03  0.17120000000E+03 0.  0.
        998    1    1    2    0    0  0.35583782658E+02 -0.36645058753E+02  0.90523591887E+03  0.90673101564E+03  0.10000000000E+02 0.  1.
</event>
<event>
 5    1  0.1535793E-008  0.3850847E+03  0.7957747E-01  0.3429313E+00
         13   -1    0    0    0    0  0.00000000000E+00  0.00000000000E+00  0.14999999963E+04  0.15000000000E+04  0.10566000000E+00 0.  1.
        994   -1    0    0    0    0 -0.00000000000E+00 -0.00000000000E+00  0.11368683772E-12  0.17120000000E+03  0.17120000000E+03 0.  0.
         13    1    1    2    0    0  0.14889333722E+02  0.67616686834E+01  0.83377589347E+02  0.84966146149E+02  0.10566000000E+00 0.  1.
        994    1    1    2    0    0 -0.52618673868E+01 -0.18498156329E+02  0.28050803577E+01  0.17229967357E+03  0.17120000000E+03 0.  0.
        998    1    1    2    0    0 -0.96274663357E+01  0.11736487646E+02  0.14138173266E+04  0.14139341803E+04  0.10000000000E+02 0.  1.
</event>
<event>
 5    1  0.1535793E-008  0.3846476E+03  0.7957747E-01  0.3431168E+00
         13   -1    0    0    0    0  0.00000000000E+00  0.00000000000E+00  0.14999999963E+04  0.15000000000E+04  0.10566000000E+00 0. -1.
        994   -1    0    0    0    0 -0.00000000000E+00 -0.00000000000E+00  0.11368683772E-12  0.17120000000E+03  0.17120000000E+03 0.  0.
         13    1    1    2    0    0 -0.81049518309E+01 -0.61268816741E+01  0.27404895859E+02  0.29227870335E+02  0.10566000000E+00 0. -1.
        994    1    1    2    0    0  0.14992255033E+02  0.34560040141E+01  0.25849195694E+01  0.17190937579E+03  0.17120000000E+03 0.  0.
        998    1    1    2    0    0 -0.68873032023E+01  0.26708776600E+01  0.14700101808E+04  0.14700627539E+04  0.10000000000E+02 0. -1.
</event>
<event>
 5    1  0.1535793E-008  0.3756873E+03  0.7957747E-01  0.3470155E+00
         13   -1    0    0    0    0  0.00000000000E+00  0.00000000000E+00  0.14999999963E+04  0.15000000000E+04  0.10566000000E+00 0.  1.
        994   -1    0    0    0    0 -0.00000000000E+00 -0.00000000000E+00  0.11368683772E-12  0.17120000000E+03  0.17120000000E+03 0.  0.
         13    1    1    2    0    0 -0.32310278954E+01  0.95311956701E+01  0.51898395444E+01  0.11323816967E+02  0.10566000000E+00 0.  1.
        994    1    1    2    0    0  0.38802096440E+02  0.17595325456E+02  0.12507088904E+02  0.17686453980E+03  0.17120000000E+03 0.  0.
        998    1    1    2    0    0 -0.35571068544E+02 -0.27126521126E+02  0.14823030678E+04  0.14830116432E+04  0.10000000000E+02 0.  1.
</event>
<event>
 5    1  0.1535793E-008  0.3700165E+03  0.7957747E-01  0.3495815E+00
         13   -1    0    0    0    0  0.00000000000E+00  0.00000000000E+00  0.14999999963E+04  0.15000000000E+04  0.10566000000E+00 0. -1.
        994   -1    0    0    0    0 -0.00000000000E+00 -0.00000000000E+00  0.11368683772E-12  0.17120000000E+03  0.17120000000E+03 0.  0.
         13    1    1    2    0    0  0.71471421201E+02  0.34306190960E+02  0.23944262725E+03  0.25222581489E+03  0.10566000000E+00 0. -1.
        994    1    1    2    0    0 -0.65535034409E+02 -0.44539388346E+02  0.33233875830E+02  0.19155293877E+03  0.17120000000E+03 0.  0.
        998    1    1    2    0    0 -0.59363867919E+01  0.10233197386E+02  0.12273234932E+04  0.12274212463E+04  0.10000000000E+02 0. -1.
</event>
<event>
 5    1  0.1535793E-008  0.3770393E+03  0.7957747E-01  0.3464152E+00
         13   -1    0    0    0    0  0.00000000000E+00  0.00000000000E+00  0.14999999963E+04  0.15000000000E+04  0.10566000000E+00 0. -1.
        994   -1    0    0    0    0 -0.00000000000E+00 -0.00000000000E+00  0.11368683772E-12  0.17120000000E+03  0.17120000000E+03 0.  0.
         13    1    1    2    0    0 -0.16107971042E+02  0.48866998843E+01  0.21576356206E+02  0.27365980304E+02  0.10566000000E+00 0. -1.
        994    1    1    2    0    0  0.16784691824E+02 -0.52135211500E+02  0.15830392438E+02  0.18044347448E+03  0.17120000000E+03 0.  0.
        998    1    1    2    0    0 -0.67672078172E+00  0.47248511615E+02  0.14625932476E+04  0.14633905452E+04  0.10000000000E+02 0. -1.
</event>
<event>
 5    1  0.1535793E-008  0.3750514E+03  0.7957747E-01  0.3472993E+00
         13   -1    0    0    0    0  0.00000000000E+00  0.00000000000E+00  0.14999999963E+04  0.15000000000E+04  0.10566000000E+00 0. -1.
        994   -1    0    0    0    0 -0.00000000000E+00 -0.00000000000E+00  0.11368683772E-12  0.17120000000E+03  0.17120000000E+03 0.  0.
         13    1    1    2    0    0 -0.41330564731E+02  0.36335004761E+02  0.96617592305E+02  0.11119090997E+03  0.10566000000E+00 0. -1.
        994    1    1    2    0    0  0.50581680650E+02 -0.40769511074E+02  0.28813301566E+02  0.18536533063E+03  0.17120000000E+03 0.  0.
        998    1    1    2    0    0 -0.92511159190E+01  0.44345063124E+01  0.13745691024E+04  0.13746437594E+04  0.10000000000E+02 0. -1.
</event>
<event>
 5    1  0.1535793E-008  0.3855598E+03  0.7957747E-01  0.3427301E+00
         13   -1    0    0    0    0  0.00000000000E+00  0.00000000000E+00  0.14999999963E+04  0.15000000000E+04  0.10566000000E+00 0.  1.
        994   -1    0    0    0    0 -0.00000000000E+00 -0.00000000000E+00  0.11368683772E-12  0.17120000000E+03  0.17120000000E+03 0.  0.
         13    1    1    2    0    0  0.10108911035E+02  0.11542131847E+02  0.81476402609E+02  0.82908541394E+02  0.10566000000E+00 0.  1.
        994    1    1    2    0    0 -0.17049570434E+02 -0.10858020655E+02  0.26948545445E+01  0.17241022796E+03  0.17120000000E+03 0.  0.
        998    1    1    2    0    0  0.69406593993E+01 -0.68411119157E+00  0.14158287391E+04  0.14158812306E+04  0.10000000000E+02 0.  1.
</event>
<event>
 5    1  0.1535793E-008  0.3726069E+03  0.7957747E-01  0.3483995E+00
         13   -1    0    0    0    0  0.00000000000E+00  0.00000000000E+00  0.14999999963E+04  0.15000000000E+04  0.10566000000E+00 0.  1.
        994   -1    0    0    0    0 -0.00000000000E+00 -0.00000000000E+00  0.11368683772E-12  0.17120000000E+03  0.17120000000E+03 0.  0.
         13    1    1    2    0    0 -0.17502310191E+02  0.84251943050E+00  0.16573211845E+02  0.24118938947E+02  0.10566000000E+00 0.  1.
        994    1    1    2    0    0 -0.39603120016E+01 -0.69072426852E+00  0.79681826458E+01  0.17143247390E+03  0.17120000000E+03 0.  0.
        998    1    1    2    0    0  0.21462622192E+02 -0.15179516198E+00  0.14754586018E+04  0.14756485872E+04  0.10000000000E+02 0.  1.
</event>
<event>
 5    1  0.1535793E-008  0.3832000E+03  0.7957747E-01  0.3437342E+00
         13   -1    0    0    0    0  0.00000000000E+00  0.00000000000E+00  0.14999999963E+04  0.15000000000E+04  0.10566000000E+00 0.  1.
        994   -1    0    0    0    0 -0.00000000000E+00 -0.00000000000E+00  0.11368683772E-12  0.17120000000E+03  0.17120000000E+03 0.  0.
         13    1    1    2    0    0  0.19022656158E+02 -0.12113957712E+02  0.10631563828E+03  0.10868134857E+03  0.10566000000E+00 0.  1.
        994    1    1    2    0    0 -0.19812805822E+01  0.57806057256E+01  0.26499624044E+01  0.17132951636E+03  0.17120000000E+03 0.  0.
        998    1    1    2    0    0 -0.17041375575E+02  0.63333519859E+01  0.13910343956E+04  0.13911891351E+04  0.10000000000E+02 0.  1.
</event>
<event>
 5    1  0.1535793E-008  0.3716070E+03  0.7957747E-01  0.3488538E+00
         13   -1    0    0    0    0  0.00000000000E+00  0.00000000000E+00  0.14999999963E+04  0.15000000000E+04  0.10566000000E+00 0. -1.
        994   -1    0    0    0    0 -0.00000000000E+00 -0.00000000000E+00  0.11368683772E-12  0.17120000000E+03  0.17120000000E+03 0.  0.
         13    1    1    2    0    0 -0.32855854418E+02 -0.62319755265E+01  0.61560971275E+02  0.70057897748E+02  0.10566000000E+00 0. -1.
        994    1    1    2    0    0  0.25909801902E+02  0.22885495244E+02  0.12551994028E+02  0.17510584308E+03  0.17120000000E+03 0.  0.
        998    1    1    2    0    0  0.69460525153E+01 -0.16653519717E+02  0.14258870310E+04  0.14260362592E+04  0.10000000000E+02 0. -1.
</event>
<event>
 5    1  0.1535793E-008  0.3707211E+03  0.7957747E-01  0.3492583E+00
         13   -1    0    0    0    0  0.00000000000E+00  0.00000000000E+00  0.14999999963E+04  0.15000000000E+04  0.10566000000E+00 0.  1.
        994   -1    0    0    0    0 -0.00000000000E+00 -0.00000000000E+00  0.11368683772E-12  0.17120000000E+03  0.17120000000E+03 0.  0.
         13    1    1    2    0    0  0.10491359226E+03 -0.10869081630E+03  0.83666279662E+03  0.85019127366E+03  0.10566000000E+00 0.  1.
        994    1    1    2    0    0 -0.49385820986E+02  0.14534699464E+03  0.95151708857E+02  0.24885336217E+03  0.17120000000E+03 0.  0.
        998    1    1    2    0    0 -0.55527771278E+02 -0.36656178336E+02  0.56818549080E+03  0.57215536417E+03  0.10000000000E+02 0.  1.
</event>
<event>
 5    1  0.1535793E-008  0.3827541E+03  0.7957747E-01  0.3439253E+00
         13   -1    0    0    0    0  0.00000000000E+00  0.00000000000E+00  0.14999999963E+04  0.15000000000E+04  0.10566000000E+00 0.  1.
        994   -1    0    0    0    0 -0.00000000000E+00 -0.00000000000E+00  0.11368683772E-12  0.17120000000E+03  0.17120000000E+03 0.  0.
         13    1    1    2    0    0  0.35617448944E+01 -0.13436678201E+02  0.34383356559E+02  0.37087150337E+02  0.10566000000E+00 0.  1.
        994    1    1    2    0    0 -0.11763180856E+01  0.80658385876E+01  0.29694376507E+01  0.17141965767E+03  0.17120000000E+03 0.  0.
        998    1    1    2    0    0 -0.23854268088E+01  0.53708396136E+01  0.14626472021E+04  0.14626931920E+04  0.10000000000E+02 0.  1.
</event>
<event>
 5    1  0.1535793E-008  0.3861047E+03  0.7957747E-01  0.3425000E+00
         13   -1    0    0    0    0  0.00000000000E+00  0.00000000000E+00  0.14999999963E+04  0.15000000000E+04  0.10566000000E+00 0. -1.
        994   -1    0    0    0    0 -0.00000000000E+00 -0.00000000000E+00  0.11368683772E-12  0.17120000000E+03  0.17120000000E+03 0.  0.
         13    1    1    2    0    0  0.10279619066E+02  0.17929935630E+01  0.53382348872E+02  0.54392754381E+02  0.10566000000E+00 0. -1.
        994    1    1    2    0    0 -0.14523370160E+01  0.53074588070E+01  0.11818696844E+01  0.17129248442E+03  0.17120000000E+03 0.  0.
        998    1    1    2    0    0 -0.88272820505E+01 -0.71004523700E+01  0.14454357777E+04  0.14455147612E+04  0.10000000000E+02 0. -1.
</event>
<event>
 5    1  0.1535793E-008  0.3800397E+03  0.7957747E-01  0.3450985E+00
         13   -1    0    0    0    0  0.00000000000E+00  0.00000000000E+00  0.14999999963E+04  0.15000000000E+04  0.10566000000E+00 0. -1.
        994   -1    0    0    0    0 -0.00000000000E+00 -0.00000000000E+00  0.11368683772E-12  0.17120000000E+03  0.17120000000E+03 0.  0.
         13    1    1    2    0    0 -0.13708847364E+02 -0.22886475737E+02  0.89283376647E+02  0.93183988846E+02  0.10566000000E+00 0. -1.
        994    1    1    2    0    0  0.14615588743E+01  0.68752094272E+01  0.42782420885E+01  0.17139763130E+03  0.17120000000E+03 0.  0.
        998    1    1    2    0    0  0.12247288489E+02  0.16011266310E+02  0.14064383775E+04  0.14066183799E+04  0.10000000000E+02 0. -1.
</event>
<event>
 5    1  0.1535793E-008  0.3844266E+03  0.7957747E-01  0.3432108E+00
         13   -1    0    0    0    0  0.00000000000E+00  0.00000000000E+00  0.14999999963E+04  0.15000000000E+04  0.10566000000E+00 0. -1.
        994   -1    0    0    0    0 -0.00000000000E+00 -0.00000000000E+00  0.11368683772E-12  0.17120000000E+03  0.17120000000E+03 0.  0.
         13    1    1    2    0    0  0.94506256495E+01  0.13620534803E+02  0.68219276599E+02  0.70204801525E+02  0.10566000000E+00 0. -1.
        994    1    1    2    0    0 -0.10092238346E+02 -0.15714598556E+02  0.30651552940E+01  0.17224295939E+03  0.17120000000E+03 0.  0.
        998    1    1    2    0    0  0.64161269624E+00  0.20940637531E+01  0.14287155644E+04  0.14287522391E+04  0.10000000000E+02 0. -1.
</event>
<event>
 5    1  0.1535793E-008  0.3826789E+03  0.7957747E-01  0.3439576E+00
         13   -1    0    0    0    0  0.00000000000E+00  0.00000000000E+00  0.14999999963E+04  0.15000000000E+04  0.10566000000E+00 0.  1.
        994   -1    0    0    0    0 -0.00000000000E+00 -0.00000000000E+00  0.11368683772E-12  0.17120000000E+03  0.17120000000E+03 0.  0.
         13    1    1    2    0    0 -0.73041740925E+01  0.20187619067E+02  0.85929897238E+02  0.88571154029E+02  0.10566000000E+00 0.  1.
        994    1    1    2    0    0  0.58075049948E+01 -0.32396414540E+01  0.29334631599E+01  0.17135421675E+03  0.17120000000E+03 0.  0.
        998    1    1    2    0    0  0.14966690977E+01 -0.16947977613E+02  0.14111366359E+04  0.14112746292E+04  0.10000000000E+02 0.  1.
</event>
<event>
 5    1  0.1535793E-008  0.3847481E+03  0.7957747E-01  0.3430741E+00
         13   -1    0    0    0    0  0.00000000000E+00  0.00000000000E+00  0.14999999963E+04  0.15000000000E+04  0.10566000000E+00 0. -1.
        994   -1    0    0    0    0 -0.00000000000E+00 -0.00000000000E+00  0.11368683772E-12  0.17120000000E+03  0.17120000000E+03 0.  0.
         13    1    1    2    0    0  0.32955907761E+01 -0.95587891335E+01  0.28865277677E+02  0.30585074589E+02  0.10566000000E+00 0. -1.
        994    1    1    2    0    0 -0.95720378224E+01  0.32589705469E+01  0.20918530855E+01  0.17151110940E+03  0.17120000000E+03 0.  0.
        998    1    1    2    0    0  0.62764470463E+01  0.62998185866E+01  0.14690428655E+04  0.14691038160E+04  0.10000000000E+02 0. -1.
</event>
<event>
 5    1  0.1535793E-008  0.3864504E+03  0.7957747E-01  0.3423544E+00
         13   -1    0    0    0    0  0.00000000000E+00  0.00000000000E+00  0.14999999963E+04  0.15000000000E+04  0.10566000000E+00 0. -1.
        994   -1    0    0    0    0 -0.00000000000E+00 -0.00000000000E+00  0.11368683772E-12  0.17120000000E+03  0.17120000000E+03 0.  0.
         13    1    1    2    0    0  0.32385447439E+01  0.10170352706E+02  0.59327601334E+02  0.60280176594E+02  0.10566000000E+00 0. -1.
        994    1    1    2    0    0 -0.10525586932E+02 -0.13796257717E+02  0.18980175521E+01  0.17208767294E+03  0.17120000000E+03 0.  0.
        998    1    1    2    0    0  0.72870421883E+01  0.36259050110E+01  0.14387743774E+04  0.14388321505E+04  0.10000000000E+02 0. -1.
</event>
<event>
 5    1  0.1535793E-008  0.3839740E+03  0.7957747E-01  0.3434035E+00
         13   -1    0    0    0    0  0.00000000000E+00  0.00000000000E+00  0.14999999963E+04  0.15000000000E+04  0.10566000000E+00 0.  1.
        994   -1    0    0    0    0 -0.00000000000E+00 -0.00000000000E+00  0.11368683772E-12  0.17120000000E+03  0.17120000000E+03 0.  0.
         13    1    1    2    0    0  0.56154044057E+01 -0.23499243888E+02  0.11380673603E+03  0.11634316293E+03  0.10566000000E+00 0.  1.
        994    1    1    2    0    0 -0.16892608121E+02  0.36787753600E+02  0.75663203772E+01  0.17608346949E+03  0.17120000000E+03 0.  0.
        998    1    1    2    0    0  0.11277203715E+02 -0.13288509712E+02  0.13786269399E+04  0.13787733676E+04  0.10000000000E+02 0.  1.
</event>
<event>
 5    1  0.1535793E-008  0.3833599E+03  0.7957747E-01  0.3436658E+00
         13   -1    0    0    0    0  0.00000000000E+00  0.00000000000E+00  0.14999999963E+04  0.15000000000E+04  0.10566000000E+00 0. -1.
        994   -1    0    0    0    0 -0.00000000000E+00 -0.00000000000E+00  0.11368683772E-12  0.17120000000E+03  0.17120000000E+03 0.  0.
         13    1    1    2    0    0  0.52684249105E+01 -0.13721201870E+02  0.44857484378E+02  0.47204160310E+02  0.10566000000E+00 0. -1.
        994    1    1    2    0    0 -0.10949760159E+02 -0.13478236313E+01  0.28491479819E+01  0.17157876186E+03  0.17120000000E+03 0.  0.
        998    1    1    2    0    0  0.56813352489E+01  0.15069025501E+02  0.14522933639E+04  0.14524170778E+04  0.10000000000E+02 0. -1.
</event>
<event>
 5    1  0.1535793E-008  0.3795717E+03  0.7957747E-01  0.3453025E+00
         13   -1    0    0    0    0  0.00000000000E+00  0.00000000000E+00  0.14999999963E+04  0.15000000000E+04  0.10566000000E+00 0. -1.
        994   -1    0    0    0    0 -0.00000000000E+00 -0.00000000000E+00  0.11368683772E-12  0.17120000000E+03  0.17120000000E+03 0.  0.
         13    1    1    2    0    0 -0.35599941066E+02  0.40946672573E+01  0.13904007265E+03  0.14358368665E+03  0.10566000000E+00 0. -1.
        994    1    1    2    0    0  0.28794379622E+02 -0.88315872511E+01  0.73921433753E+01  0.17398619777E+03  0.17120000000E+03 0.  0.
        998    1    1    2    0    0  0.68055614435E+01  0.47369199938E+01  0.13535677802E+04  0.13536301156E+04  0.10000000000E+02 0. -1.
</event>
<event>
 5    1  0.1535793E-008  0.3836475E+03  0.7957747E-01  0.3435429E+00
         13   -1    0    0    0    0  0.00000000000E+00  0.00000000000E+00  0.14999999963E+04  0.15000000000E+04  0.10566000000E+00 0.  1.
        994   -1    0    0    0    0 -0.00000000000E+00 -0.00000000000E+00  0.11368683772E-12  0.17120000000E+03  0.17120000000E+03 0.  0.
         13    1    1    2    0    0 -0.12354644481E+02 -0.16850604073E+02  0.96556805145E+02  0.98791739946E+02  0.10566000000E+00 0.  1.
        994    1    1    2    0    0  0.30425207295E+01  0.94594327811E+01  0.26293565423E+01  0.17150828352E+03  0.17120000000E+03 0.  0.
        998    1    1    2    0    0  0.93121237518E+01  0.73911712914E+01  0.14008138346E+04  0.14008999765E+04  0.10000000000E+02 0.  1.
</event>
<event>
 5    1  0.1535793E-008  0.3824494E+03  0.7957747E-01  0.3440562E+00
         13   -1    0    0    0    0  0.00000000000E+00  0.00000000000E+00  0.14999999963E+04  0.15000000000E+04  0.10566000000E+00 0. -1.
        994   -1    0    0    0    0 -0.00000000000E+00 -0.00000000000E+00  0.11368683772E-12  0.17120000000E+03  0.17120000000E+03 0.  0.
         13    1    1    2    0    0 -0.87639220594E+01 -0.17326924669E+02  0.67194659205E+02  0.69943992151E+02  0.10566000000E+00 0. -1.
        994    1    1    2    0    0 -0.31863233294E+01  0.48530157070E+01  0.30135592063E+01  0.17132491342E+03  0.17120000000E+03 0.  0.
        998    1    1    2    0    0  0.11950245389E+02  0.12473908962E+02  0.14297917779E+04  0.14299310944E+04  0.10000000000E+02 0. -1.
</event>
<event>
 5    1  0.1535793E-008  0.3828531E+03  0.7957747E-01  0.3438829E+00
         13   -1    0    0    0    0  0.00000000000E+00  0.00000000000E+00  0.14999999963E+04  0.15000000000E+04  0.10566000000E+00 0.  1.
        994   -1    0    0    0    0 -0.00000000000E+00 -0.00000000000E+00  0.11368683772E-12  0.17120000000E+03  0.17120000000E+03 0.  0.
         13    1    1    2    0    0  0.29002928189E+01  0.21956319957E+02  0.87261711990E+02  0.90028380125E+02  0.10566000000E+00 0.  1.
        994    1    1    2    0    0  0.64894221424E+01 -0.20411912070E+02  0.42205500275E+01  0.17258624452E+03  0.17120000000E+03 0.  0.
        998    1    1    2    0    0 -0.93897149613E+01 -0.15444078873E+01  0.14085177343E+04  0.14085853754E+04  0.10000000000E+02 0.  1.
</event>
<event>
 5    1  0.1535793E-008  0.3719606E+03  0.7957747E-01  0.3486928E+00
         13   -1    0    0    0    0  0.00000000000E+00  0.00000000000E+00  0.14999999963E+04  0.15000000000E+04  0.10566000000E+00 0. -1.
        994   -1    0    0    0    0 -0.00000000000E+00 -0.00000000000E+00  0.11368683772E-12  0.17120000000E+03  0.17120000000E+03 0.  0.
         13    1    1    2    0    0  0.17921349640E+02  0.19801768991E+02  0.39108542528E+02  0.47357935880E+02  0.10566000000E+00 0. -1.
        994    1    1    2    0    0 -0.15112765249E+02 -0.21136973754E+02  0.10570152699E+02  0.17348295438E+03  0.17120000000E+03 0.  0.
        998    1    1    2    0    0 -0.28085843909E+01  0.13352047638E+01  0.14503213011E+04  0.14503591097E+04  0.10000000000E+02 0. -1.
</event>
<event>
 5    1  0.1535793E-008  0.3794905E+03  0.7957747E-01  0.3453380E+00
         13   -1    0    0    0    0  0.00000000000E+00  0.00000000000E+00  0.14999999963E+04  0.15000000000E+04  0.10566000000E+00 0. -1.
        994   -1    0    0    0    0 -0.00000000000E+00 -0.00000000000E+00  0.11368683772E-12  0.17120000000E+03  0.17120000000E+03 0.  0.
         13    1    1    2    0    0 -0.10148124732E+02  0.94428590309E+01  0.20406585743E+02  0.24669656016E+02  0.10566000000E+00 0. -1.
        994    1    1    2    0    0 -0.10847956253E+01 -0.54921540444E+01  0.44955095699E+01  0.17135048918E+03  0.17120000000E+03 0.  0.
        998    1    1    2    0    0  0.11232920357E+02 -0.39507049865E+01  0.14750979010E+04  0.14751798548E+04  0.10000000000E+02 0. -1.
</event>
<event>
 5    1  0.1535793E-008  0.3696011E+03  0.7957747E-01  0.3497726E+00
         13   -1    0    0    0    0  0.00000000000E+00  0.00000000000E+00  0.14999999963E+04  0.15000000000E+04  0.10566000000E+00 0.  1.
        994   -1    0    0    0    0 -0.00000000000E+00 -0.00000000000E+00  0.11368683772E-12  0.17120000000E+03  0.17120000000E+03 0.  0.
         13    1    1    2    0    0 -0.11372869379E+02  0.14018762354E+02  0.10569075421E+02  0.20918517517E+02  0.10566000000E+00 0.  1.
        994    1    1    2    0    0  0.46330618778E+01 -0.67742123137E+01  0.10963238472E+02  0.17174687133E+03  0.17120000000E+03 0.  0.
        998    1    1    2    0    0  0.67398075010E+01 -0.72445500398E+01  0.14784676824E+04  0.14785346111E+04  0.10000000000E+02 0.  1.
</event>
<event>
 5    1  0.1535793E-008  0.3748616E+03  0.7957747E-01  0.3473842E+00
         13   -1    0    0    0    0  0.00000000000E+00  0.00000000000E+00  0.14999999963E+04  0.15000000000E+04  0.10566000000E+00 0.  1.
        994   -1    0    0    0    0 -0.00000000000E+00 -0.00000000000E+00  0.11368683772E-12  0.17120000000E+03  0.17120000000E+03 0.  0.
         13    1    1    2    0    0  0.33632106833E+02  0.48137962124E+02  0.33032158544E+03  0.33550073469E+03  0.10566000000E+00 0.  1.
        994    1    1    2    0    0  0.18036324878E+02 -0.15898548619E+02  0.87181822029E+01  0.17309973878E+03  0.17120000000E+03 0.  0.
        998    1    1    2    0    0 -0.51668431711E+02 -0.32239413505E+02  0.11609602286E+04  0.11625995265E+04  0.10000000000E+02 0.  1.
</event>
<event>
 5    1  0.1535793E-008  0.3790757E+03  0.7957747E-01  0.3455193E+00
         13   -1    0    0    0    0  0.00000000000E+00  0.00000000000E+00  0.14999999963E+04  0.15000000000E+04  0.10566000000E+00 0. -1.
        994   -1    0    0    0    0 -0.00000000000E+00 -0.00000000000E+00  0.11368683772E-12  0.17120000000E+03  0.17120000000E+03 0.  0.
         13    1    1    2    0    0 -0.51222137085E+01  0.91366557871E+01  0.98336865444E+01  0.14367606180E+02  0.10566000000E+00 0. -1.
        994    1    1    2    0    0  0.13794521111E+02 -0.27469025370E+01  0.52641149731E+01  0.17185745603E+03  0.17120000000E+03 0.  0.
        998    1    1    2    0    0 -0.86723074027E+01 -0.63897532501E+01  0.14849021948E+04  0.14849749378E+04  0.10000000000E+02 0. -1.
</event>
<event>
 5    1  0.1535793E-008  0.3775145E+03  0.7957747E-01  0.3462053E+00
         13   -1    0    0    0    0  0.00000000000E+00  0.00000000000E+00  0.14999999963E+04  0.15000000000E+04  0.10566000000E+00 0. -1.
        994   -1    0    0    0    0 -0.00000000000E+00 -0.00000000000E+00  0.11368683772E-12  0.17120000000E+03  0.17120000000E+03 0.  0.
         13    1    1    2    0    0  0.55397904495E+02  0.10099778878E+02  0.31951862715E+03  0.32444274936E+03  0.10566000000E+00 0. -1.
        994    1    1    2    0    0 -0.25417669442E+02  0.14163842220E+02  0.82521848889E+01  0.17385111706E+03  0.17120000000E+03 0.  0.
        998    1    1    2    0    0 -0.29980235053E+02 -0.24263621098E+02  0.11722291842E+04  0.11729061336E+04  0.10000000000E+02 0. -1.
</event>
<event>
 5    1  0.1535793E-008  0.3708400E+03  0.7957747E-01  0.3492039E+00
         13   -1    0    0    0    0  0.00000000000E+00  0.00000000000E+00  0.14999999963E+04  0.15000000000E+04  0.10566000000E+00 0. -1.
        994   -1    0    0    0    0 -0.00000000000E+00 -0.00000000000E+00  0.11368683772E-12  0.17120000000E+03  0.17120000000E+03 0.  0.
         13    1    1    2    0    0  0.14805135447E+02 -0.15229850338E+01  0.83721746429E+01  0.17076767589E+02  0.10566000000E+00 0. -1.
        994    1    1    2    0    0 -0.20003967877E+02  0.34107736188E+01  0.10251674255E+02  0.17270300789E+03  0.17120000000E+03 0.  0.
        998    1    1    2    0    0  0.51988324304E+01 -0.18877885850E+01  0.14813761474E+04  0.14814202245E+04  0.10000000000E+02 0. -1.
</event>
<event>
 5    1  0.1535793E-008  0.3702589E+03  0.7957747E-01  0.3494702E+00
         13   -1    0    0    0    0  0.00000000000E+00  0.00000000000E+00  0.14999999963E+04  0.15000000000E+04  0.10566000000E+00 0. -1.
        994   -1    0    0    0    0 -0.00000000000E+00 -0.00000000000E+00  0.11368683772E-12  0.17120000000E+03  0.17120000000E+03 0.  0.
         13    1    1    2    0    0 -0.13722821525E+03 -0.52915620291E+02  0.83486692230E+03  0.84772308866E+03  0.10566000000E+00 0. -1.
        994    1    1    2    0    0  0.85912606778E+02  0.73459517779E+02  0.57229254443E+02  0.21298334282E+03  0.17120000000E+03 0.  0.
        998    1    1    2    0    0  0.51315608470E+02 -0.20543897488E+02  0.60790381953E+03  0.61049356852E+03  0.10000000000E+02 0. -1.
</event>
<event>
 5    1  0.1535793E-008  0.3794475E+03  0.7957747E-01  0.3453568E+00
         13   -1    0    0    0    0  0.00000000000E+00  0.00000000000E+00  0.14999999963E+04  0.15000000000E+04  0.10566000000E+00 0.  1.
        994   -1    0    0    0    0 -0.00000000000E+00 -0.00000000000E+00  0.11368683772E-12  0.17120000000E+03  0.17120000000E+03 0.  0.
         13    1    1    2    0    0  0.20934303049E+02  0.41663880566E+02  0.21439100857E+03  0.21940291636E+03  0.10566000000E+00 0.  1.
        994    1    1    2    0    0 -0.21293263272E+02 -0.39626241818E+02  0.11219557785E+02  0.17736674034E+03  0.17120000000E+03 0.  0.
        998    1    1    2    0    0  0.35896022268E+00 -0.20376387477E+01  0.12743894299E+04  0.12744303433E+04  0.10000000000E+02 0.  0.
</event>
<event>
 5    1  0.1535793E-008  0.3794501E+03  0.7957747E-01  0.3453556E+00
         13   -1    0    0    0    0  0.00000000000E+00  0.00000000000E+00  0.14999999963E+04  0.15000000000E+04  0.10566000000E+00 0.  1.
        994   -1    0    0    0    0 -0.00000000000E+00 -0.00000000000E+00  0.11368683772E-12  0.17120000000E+03  0.17120000000E+03 0.  0.
         13    1    1    2    0    0 -0.44499596737E+02  0.93710605123E+01  0.19713190500E+03  0.20230924354E+03  0.10566000000E+00 0.  1.
        994    1    1    2    0    0  0.50229127267E+02 -0.54399282211E+01  0.13007410978E+02  0.17897259786E+03  0.17120000000E+03 0.  0.
        998    1    1    2    0    0 -0.57295305295E+01 -0.39311322912E+01  0.12898606803E+04  0.12899181586E+04  0.10000000000E+02 0.  1.
</event>
<event>
 5    1  0.1535793E-008  0.3718044E+03  0.7957747E-01  0.3487639E+00
         13   -1    0    0    0    0  0.00000000000E+00  0.00000000000E+00  0.14999999963E+04  0.15000000000E+04  0.10566000000E+00 0.  1.
        994   -1    0    0    0    0 -0.00000000000E+00 -0.00000000000E+00  0.11368683772E-12  0.17120000000E+03  0.17120000000E+03 0.  0.
         13    1    1    2    0    0 -0.13622711848E+02 -0.27782162101E+02  0.52543677434E+02  0.60977668137E+02  0.10566000000E+00 0.  1.
        994    1    1    2    0    0  0.88732703501E+01  0.30336463097E+02  0.11769628602E+02  0.17449068765E+03  0.17120000000E+03 0.  0.
        998    1    1    2    0    0  0.47494414979E+01 -0.25543009960E+01  0.14356866902E+04  0.14357316442E+04  0.10000000000E+02 0.  1.
</event>
<event>
 5    1  0.1535793E-008  0.3833393E+03  0.7957747E-01  0.3436746E+00
         13   -1    0    0    0    0  0.00000000000E+00  0.00000000000E+00  0.14999999963E+04  0.15000000000E+04  0.10566000000E+00 0. -1.
        994   -1    0    0    0    0 -0.00000000000E+00 -0.00000000000E+00  0.11368683772E-12  0.17120000000E+03  0.17120000000E+03 0.  0.
         13    1    1    2    0    0  0.20861472117E+02  0.12418989854E+02  0.13005017876E+03  0.13229698594E+03  0.10566000000E+00 0. -1.
        994    1    1    2    0    0 -0.11106152388E+01 -0.47720284510E+01  0.25362501233E+01  0.17128887380E+03  0.17120000000E+03 0.  0.
        998    1    1    2    0    0 -0.19750856879E+02 -0.76469614033E+01  0.13674135674E+04  0.13676141403E+04  0.10000000000E+02 0. -1.
</event>
<event>
 5    1  0.1535793E-008  0.3808738E+03  0.7957747E-01  0.3447362E+00
         13   -1    0    0    0    0  0.00000000000E+00  0.00000000000E+00  0.14999999963E+04  0.15000000000E+04  0.10566000000E+00 0.  1.
        994   -1    0    0    0    0 -0.00000000000E+00 -0.00000000000E+00  0.11368683772E-12  0.17120000000E+03  0.17120000000E+03 0.  0.
         13    1    1    2    0    0  0.11659154846E+02  0.58267757867E+01  0.21058543036E+02  0.24766118118E+02  0.10566000000E+00 0.  1.
        994    1    1    2    0    0 -0.11549661111E+02 -0.13682139953E+02  0.47620513056E+01  0.17219963054E+03  0.17120000000E+03 0.  0.
        998    1    1    2    0    0 -0.10949373482E+00  0.78553641667E+01  0.14741794019E+04  0.14742342513E+04  0.10000000000E+02 0.  1.
</event>
<event>
 5    1  0.1535793E-008  0.3833424E+03  0.7957747E-01  0.3436733E+00
         13   -1    0    0    0    0  0.00000000000E+00  0.00000000000E+00  0.14999999963E+04  0.15000000000E+04  0.10566000000E+00 0.  1.
        994   -1    0    0    0    0 -0.00000000000E+00 -0.00000000000E+00  0.11368683772E-12  0.17120000000E+03  0.17120000000E+03 0.  0.
         13    1    1    2    0    0  0.10552457569E+02 -0.88556382524E+01  0.35555294815E+02  0.38130917154E+02  0.10566000000E+00 0.  1.
        994    1    1    2    0    0 -0.21197692052E+02  0.14186726044E+02  0.46094827454E+01  0.17315106894E+03  0.17120000000E+03 0.  0.
        998    1    1    2    0    0  0.10645234483E+02 -0.53310877914E+01  0.14598352187E+04  0.14599180139E+04  0.10000000000E+02 0.  1.
</event>
<event>
 5    1  0.1535793E-008  0.3812783E+03  0.7957747E-01  0.3445611E+00
         13   -1    0    0    0    0  0.00000000000E+00  0.00000000000E+00  0.14999999963E+04  0.15000000000E+04  0.10566000000E+00 0. -1.
        994   -1    0    0    0    0 -0.00000000000E+00 -0.00000000000E+00  0.11368683772E-12  0.17120000000E+03  0.17120000000E+03 0.  0.
         13    1    1    2    0    0 -0.10780007112E+02 -0.30260727747E+01  0.16393292876E+02  0.19852377316E+02  0.10566000000E+00 0. -1.
        994    1    1    2    0    0  0.13747757417E+02 -0.95494113452E+01  0.44225272333E+01  0.17207321360E+03  0.17120000000E+03 0.  0.
        998    1    1    2    0    0 -0.29677503056E+01  0.12575484120E+02  0.14791841762E+04  0.14792744091E+04  0.10000000000E+02 0. -1.
</event>
<event>
 5    1  0.1535793E-008  0.3841579E+03  0.7957747E-01  0.3433252E+00
         13   -1    0    0    0    0  0.00000000000E+00  0.00000000000E+00  0.14999999963E+04  0.15000000000E+04  0.10566000000E+00 0.  1.
        994   -1    0    0    0    0 -0.00000000000E+00 -0.00000000000E+00  0.11368683772E-12  0.17120000000E+03  0.17120000000E+03 0.  0.
         13    1    1    2    0    0 -0.50639844806E+01 -0.97636656182E+01  0.28518713326E+02  0.30566342257E+02  0.10566000000E+00 0.  1.
        994    1    1    2    0    0  0.96449229768E+01  0.80355830756E+01  0.25686897032E+01  0.17167886679E+03  0.17120000000E+03 0.  0.
        998    1    1    2    0    0 -0.45809384962E+01  0.17280825426E+01  0.14689125932E+04  0.14689547910E+04  0.10000000000E+02 0.  1.
</event>
<event>
 5    1  0.1535793E-008  0.4026526E+03  0.7957747E-01  0.3358090E+00
         13   -1    0    0    0    0  0.00000000000E+00  0.00000000000E+00  0.14999999963E+04  0.15000000000E+04  0.10566000000E+00 0.  1.
        994   -1    0    0    0    0 -0.00000000000E+00 -0.00000000000E+00  0.11368683772E-12  0.17120000000E+03  0.17120000000E+03 0.  0.
         13    1    1    2    0    0 -0.53083047314E+01 -0.16048551066E+03  0.32101962057E+03  0.35893924999E+03  0.10566000000E+00 0.  1.
        994    1    1    2    0    0  0.10225905831E+02  0.15826349579E+03  0.13779709701E+03  0.27101546670E+03  0.17120000000E+03 0.  0.
        998    1    1    2    0    0 -0.49176010997E+01  0.22220148704E+01  0.10411832787E+04  0.10412452833E+04  0.10000000000E+02 0.  1.
</event>
<event>
 5    1  0.1535793E-008  0.3212560E+03  0.7957747E-01  0.3755060E+00
         13   -1    0    0    0    0  0.00000000000E+00  0.00000000000E+00  0.14999999963E+04  0.15000000000E+04  0.10566000000E+00 0. -1.
        994   -1    0    0    0    0 -0.00000000000E+00 -0.00000000000E+00  0.11368683772E-12  0.17120000000E+03  0.17120000000E+03 0.  0.
         13    1    1    2    0    0 -0.22106041112E+03  0.10816574167E+03  0.68679735483E+03  0.72956024480E+03  0.10566000000E+00 0. -1.
        994    1    1    2    0    0  0.21006176967E+03 -0.95278736772E+02  0.25805072679E+03  0.38613935613E+03  0.17120000000E+03 0.  0.
        998    1    1    2    0    0  0.10998641445E+02 -0.12887004900E+02  0.55515191466E+03  0.55550039906E+03  0.10000000000E+02 0.  1.
</event>
<event>
 5    1  0.1535793E-008  0.3598760E+03  0.7957747E-01  0.3543753E+00
         13   -1    0    0    0    0  0.00000000000E+00  0.00000000000E+00  0.14999999963E+04  0.15000000000E+04  0.10566000000E+00 0.  1.
        994   -1    0    0    0    0 -0.00000000000E+00 -0.00000000000E+00  0.11368683772E-12  0.17120000000E+03  0.17120000000E+03 0.  0.
         13    1    1    2    0    0  0.17134259406E+03 -0.27063633818E+03  0.63235675397E+03  0.70885639416E+03  0.10566000000E+00 0.  1.
        994    1    1    2    0    0 -0.16845515083E+03  0.26172190742E+03  0.62176879045E+03  0.71608753896E+03  0.17120000000E+03 0.  0.
        998    1    1    2    0    0 -0.28874432389E+01  0.89144307559E+01  0.24587445185E+03  0.24625606689E+03  0.10000000000E+02 0.  1.
</event>
<event>
 5    1  0.1535793E-008  0.3853853E+03  0.7957747E-01  0.3428040E+00
         13   -1    0    0    0    0  0.00000000000E+00  0.00000000000E+00  0.14999999963E+04  0.15000000000E+04  0.10566000000E+00 0.  1.
        994   -1    0    0    0    0 -0.00000000000E+00 -0.00000000000E+00  0.11368683772E-12  0.17120000000E+03  0.17120000000E+03 0.  0.
         13    1    1    2    0    0 -0.13925524117E+02  0.31541143028E+01  0.80138132185E+02  0.81400246026E+02  0.10566000000E+00 0.  1.
        994    1    1    2    0    0 -0.55373074852E+01  0.38737710058E+01  0.15890000097E+01  0.17134069218E+03  0.17120000000E+03 0.  0.
        998    1    1    2    0    0  0.19462831602E+02 -0.70278853086E+01  0.14182728641E+04  0.14184590618E+04  0.10000000000E+02 0.  1.
</event>
<event>
 5    1  0.1535793E-008  0.3755684E+03  0.7957747E-01  0.3470685E+00
         13   -1    0    0    0    0  0.00000000000E+00  0.00000000000E+00  0.14999999963E+04  0.15000000000E+04  0.10566000000E+00 0. -1.
        994   -1    0    0    0    0 -0.00000000000E+00 -0.00000000000E+00  0.11368683772E-12  0.17120000000E+03  0.17120000000E+03 0.  0.
         13    1    1    2    0    0 -0.97204597596E+01 -0.32192659543E+02  0.10281999217E+03  0.10817955731E+03  0.10566000000E+00 0. -1.
        994    1    1    2    0    0  0.86934863263E+01 -0.22419745200E+02  0.83513312034E+01  0.17308207999E+03  0.17120000000E+03 0.  0.
        998    1    1    2    0    0  0.10269734333E+01  0.54612404743E+02  0.13888286729E+04  0.13899383627E+04  0.10000000000E+02 0. -1.
</event>
<event>
 5    1  0.1535793E-008  0.3752998E+03  0.7957747E-01  0.3471883E+00
         13   -1    0    0    0    0  0.00000000000E+00  0.00000000000E+00  0.14999999963E+04  0.15000000000E+04  0.10566000000E+00 0.  1.
        994   -1    0    0    0    0 -0.00000000000E+00 -0.00000000000E+00  0.11368683772E-12  0.17120000000E+03  0.17120000000E+03 0.  0.
         13    1    1    2    0    0 -0.31624559385E+02  0.26223671954E+01  0.73846547769E+02  0.80376074472E+02  0.10566000000E+00 0.  1.
        994    1    1    2    0    0  0.22980694567E+02 -0.49557829983E+01  0.84038594328E+01  0.17301080013E+03  0.17120000000E+03 0.  0.
        998    1    1    2    0    0  0.86438648180E+01  0.23334158029E+01  0.14177495891E+04  0.14178131254E+04  0.10000000000E+02 0.  1.
</event>
<event>
 5    1  0.1535793E-008  0.3845835E+03  0.7957747E-01  0.3431440E+00
         13   -1    0    0    0    0  0.00000000000E+00  0.00000000000E+00  0.14999999963E+04  0.15000000000E+04  0.10566000000E+00 0.  1.
        994   -1    0    0    0    0 -0.00000000000E+00 -0.00000000000E+00  0.11368683772E-12  0.17120000000E+03  0.17120000000E+03 0.  0.
         13    1    1    2    0    0 -0.99359250602E+01 -0.15407526116E+01  0.27673921418E+02  0.29444076079E+02  0.10566000000E+00 0.  1.
        994    1    1    2    0    0  0.28143844113E+01 -0.71683121701E+01  0.20323646129E+01  0.17138516845E+03  0.17120000000E+03 0.  0.
        998    1    1    2    0    0  0.71215406488E+01  0.87090647817E+01  0.14702937102E+04  0.14703707555E+04  0.10000000000E+02 0.  1.
</event>
<event>
 5    1  0.1535793E-008  0.3691600E+03  0.7957747E-01  0.3499760E+00
         13   -1    0    0    0    0  0.00000000000E+00  0.00000000000E+00  0.14999999963E+04  0.15000000000E+04  0.10566000000E+00 0.  1.
        994   -1    0    0    0    0 -0.00000000000E+00 -0.00000000000E+00  0.11368683772E-12  0.17120000000E+03  0.17120000000E+03 0.  0.
         13    1    1    2    0    0 -0.14609700856E+02 -0.40041393224E+02  0.10985065507E+03  0.11783010699E+03  0.10566000000E+00 0.  1.
        994    1    1    2    0    0  0.10466725565E+02 -0.29696561535E+02  0.13154556895E+02  0.17456781054E+03  0.17120000000E+03 0.  0.
        998    1    1    2    0    0  0.41429752914E+01  0.69737954760E+02  0.13769947843E+04  0.13788020825E+04  0.10000000000E+02 0.  1.
</event>
<event>
 5    1  0.1535793E-008  0.3796813E+03  0.7957747E-01  0.3452547E+00
         13   -1    0    0    0    0  0.00000000000E+00  0.00000000000E+00  0.14999999963E+04  0.15000000000E+04  0.10566000000E+00 0.  1.
        994   -1    0    0    0    0 -0.00000000000E+00 -0.00000000000E+00  0.11368683772E-12  0.17120000000E+03  0.17120000000E+03 0.  0.
         13    1    1    2    0    0  0.35321574244E+02 -0.12081936593E+02  0.19880399298E+03  0.20227858410E+03  0.10566000000E+00 0.  1.
        994    1    1    2    0    0  0.71056291226E+01  0.61352248605E+00  0.44643434075E+01  0.17140664146E+03  0.17120000000E+03 0.  0.
        998    1    1    2    0    0 -0.42427203366E+02  0.11468414107E+02  0.12967316599E+04  0.12975147744E+04  0.10000000000E+02 0.  1.
</event>
<event>
 5    1  0.1535793E-008  0.3831805E+03  0.7957747E-01  0.3437426E+00
         13   -1    0    0    0    0  0.00000000000E+00  0.00000000000E+00  0.14999999963E+04  0.15000000000E+04  0.10566000000E+00 0. -1.
        994   -1    0    0    0    0 -0.00000000000E+00 -0.00000000000E+00  0.11368683772E-12  0.17120000000E+03  0.17120000000E+03 0.  0.
         13    1    1    2    0    0  0.19706776595E+02 -0.19921091471E+01  0.74837710179E+02  0.77414595339E+02  0.10566000000E+00 0. -1.
        994    1    1    2    0    0 -0.17117968512E+02 -0.67816747291E+00  0.35076726735E+01  0.17209075665E+03  0.17120000000E+03 0.  0.
        998    1    1    2    0    0 -0.25888080832E+01  0.26702766200E+01  0.14216546134E+04  0.14216946480E+04  0.10000000000E+02 0. -1.
</event>
<event>
 5    1  0.1535793E-008  0.3783811E+03  0.7957747E-01  0.3458238E+00
         13   -1    0    0    0    0  0.00000000000E+00  0.00000000000E+00  0.14999999963E+04  0.15000000000E+04  0.10566000000E+00 0. -1.
        994   -1    0    0    0    0 -0.00000000000E+00 -0.00000000000E+00  0.11368683772E-12  0.17120000000E+03  0.17120000000E+03 0.  0.
         13    1    1    2    0    0 -0.46275429800E+02 -0.35515145137E+02  0.29100798561E+03  0.29679689990E+03  0.10566000000E+00 0. -1.
        994    1    1    2    0    0  0.40828442719E+02  0.33407499701E+02  0.14363645743E+02  0.17971860530E+03  0.17120000000E+03 0.  0.
        998    1    1    2    0    0  0.54469870807E+01  0.21076454362E+01  0.11946283649E+04  0.11946844948E+04  0.10000000000E+02 0. -1.
</event>
<event>
 5    1  0.1535793E-008  0.3753287E+03  0.7957747E-01  0.3471754E+00
         13   -1    0    0    0    0  0.00000000000E+00  0.00000000000E+00  0.14999999963E+04  0.15000000000E+04  0.10566000000E+00 0.  1.
        994   -1    0    0    0    0 -0.00000000000E+00 -0.00000000000E+00  0.11368683772E-12  0.17120000000E+03  0.17120000000E+03 0.  0.
         13    1    1    2    0    0 -0.17445684277E+02  0.33769549086E+00  0.13971230132E+02  0.22353352626E+02  0.10566000000E+00 0.  1.
        994    1    1    2    0    0  0.15119426263E+03 -0.19517351053E+02  0.90021625143E+02  0.24628025710E+03  0.17120000000E+03 0.  0.
        998    1    1    2    0    0 -0.13374857835E+03  0.19179655562E+02  0.13960071410E+04  0.14025663903E+04  0.10000000000E+02 0.  1.
</event>
<event>
 5    1  0.1535793E-008  0.3857228E+03  0.7957747E-01  0.3426613E+00
         13   -1    0    0    0    0  0.00000000000E+00  0.00000000000E+00  0.14999999963E+04  0.15000000000E+04  0.10566000000E+00 0.  1.
        994   -1    0    0    0    0 -0.00000000000E+00 -0.00000000000E+00  0.11368683772E-12  0.17120000000E+03  0.17120000000E+03 0.  0.
         13    1    1    2    0    0  0.35938916581E+01  0.12613240157E+02  0.71676706439E+02  0.72866805161E+02  0.10566000000E+00 0.  1.
        994    1    1    2    0    0 -0.50957918593E+01 -0.67291240508E+00  0.13584086745E+01  0.17128253028E+03  0.17120000000E+03 0.  0.
        998    1    1    2    0    0  0.15019002012E+01 -0.11940327751E+02  0.14269648812E+04  0.14270506646E+04  0.10000000000E+02 0.  1.
</event>
<event>
 5    1  0.1535793E-008  0.3822694E+03  0.7957747E-01  0.3441336E+00
         13   -1    0    0    0    0  0.00000000000E+00  0.00000000000E+00  0.14999999963E+04  0.15000000000E+04  0.10566000000E+00 0. -1.
        994   -1    0    0    0    0 -0.00000000000E+00 -0.00000000000E+00  0.11368683772E-12  0.17120000000E+03  0.17120000000E+03 0.  0.
         13    1    1    2    0    0  0.44823294928E+00 -0.18180273815E+02  0.54981815799E+02  0.57911436706E+02  0.10566000000E+00 0. -1.
        994    1    1    2    0    0  0.11258023877E+02  0.93710194924E+01  0.37041757845E+01  0.17186541254E+03  0.17120000000E+03 0.  0.
        998    1    1    2    0    0 -0.11706256826E+02  0.88092543226E+01  0.14413140047E+04  0.14414231508E+04  0.10000000000E+02 0. -1.
</event>
<event>
 5    1  0.1535793E-008  0.3745763E+03  0.7957747E-01  0.3475120E+00
         13   -1    0    0    0    0  0.00000000000E+00  0.00000000000E+00  0.14999999963E+04  0.15000000000E+04  0.10566000000E+00 0.  1.
        994   -1    0    0    0    0 -0.00000000000E+00 -0.00000000000E+00  0.11368683772E-12  0.17120000000E+03  0.17120000000E+03 0.  0.
         13    1    1    2    0    0  0.35425292427E+02 -0.39990472252E+01  0.84757169862E+02  0.91949620605E+02  0.10566000000E+00 0.  1.
        994    1    1    2    0    0 -0.36145709144E+02  0.68958340268E+01  0.11519726437E+02  0.17548848656E+03  0.17120000000E+03 0.  0.
        998    1    1    2    0    0  0.72041671642E+00 -0.28967868016E+01  0.14037231000E+04  0.14037618928E+04  0.10000000000E+02 0.  1.
</event>
<event>
 5    1  0.1535793E-008  0.3735086E+03  0.7957747E-01  0.3479920E+00
         13   -1    0    0    0    0  0.00000000000E+00  0.00000000000E+00  0.14999999963E+04  0.15000000000E+04  0.10566000000E+00 0. -1.
        994   -1    0    0    0    0 -0.00000000000E+00 -0.00000000000E+00  0.11368683772E-12  0.17120000000E+03  0.17120000000E+03 0.  0.
         13    1    1    2    0    0 -0.25564130089E+02 -0.42639320723E+02  0.19178995603E+03  0.19812883389E+03  0.10566000000E+00 0. -1.
        994    1    1    2    0    0  0.58173734710E+01 -0.21543170941E+01  0.75780927360E+01  0.17147988339E+03  0.17120000000E+03 0.  0.
        998    1    1    2    0    0  0.19746756618E+02  0.44793637817E+02  0.13006319475E+04  0.13015912827E+04  0.10000000000E+02 0. -1.
</event>
<event>
 5    1  0.1535793E-008  0.3824611E+03  0.7957747E-01  0.3440512E+00
         13   -1    0    0    0    0  0.00000000000E+00  0.00000000000E+00  0.14999999963E+04  0.15000000000E+04  0.10566000000E+00 0.  1.
        994   -1    0    0    0    0 -0.00000000000E+00 -0.00000000000E+00  0.11368683772E-12  0.17120000000E+03  0.17120000000E+03 0.  0.
         13    1    1    2    0    0  0.43899232679E+01 -0.28102768849E+02  0.13365614320E+03  0.13664923279E+03  0.10566000000E+00 0.  1.
        994    1    1    2    0    0 -0.69785448150E+01  0.21657545893E+02  0.46146555754E+01  0.17276713932E+03  0.17120000000E+03 0.  0.
        998    1    1    2    0    0  0.25886215471E+01  0.64452229555E+01  0.13617291975E+04  0.13617836279E+04  0.10000000000E+02 0.  0.
</event>
<event>
 5    1  0.1535793E-008  0.3698529E+03  0.7957747E-01  0.3496567E+00
         13   -1    0    0    0    0  0.00000000000E+00  0.00000000000E+00  0.14999999963E+04  0.15000000000E+04  0.10566000000E+00 0. -1.
        994   -1    0    0    0    0 -0.00000000000E+00 -0.00000000000E+00  0.11368683772E-12  0.17120000000E+03  0.17120000000E+03 0.  0.
         13    1    1    2    0    0  0.77449897098E+02 -0.26230276776E+02  0.31757565566E+03  0.32793417360E+03  0.10566000000E+00 0. -1.
        994    1    1    2    0    0 -0.55310535557E+02  0.36239454056E+02  0.24628263292E+02  0.18517166286E+03  0.17120000000E+03 0.  0.
        998    1    1    2    0    0 -0.22139361541E+02 -0.10009177280E+02  0.11577960773E+04  0.11580941635E+04  0.10000000000E+02 0. -1.
</event>
<event>
 5    1  0.1535793E-008  0.3814915E+03  0.7957747E-01  0.3444690E+00
         13   -1    0    0    0    0  0.00000000000E+00  0.00000000000E+00  0.14999999963E+04  0.15000000000E+04  0.10566000000E+00 0. -1.
        994   -1    0    0    0    0 -0.00000000000E+00 -0.00000000000E+00  0.11368683772E-12  0.17120000000E+03  0.17120000000E+03 0.  0.
         13    1    1    2    0    0 -0.12155417344E+02 -0.24327408755E+01  0.22116122767E+02  0.25353627931E+02  0.10566000000E+00 0. -1.
        994    1    1    2    0    0 -0.47223402980E+01  0.82323405354E+01  0.36818177686E+01  0.17150238398E+03  0.17120000000E+03 0.  0.
        998    1    1    2    0    0  0.16877757642E+02 -0.57995996599E+01  0.14742020557E+04  0.14743439881E+04  0.10000000000E+02 0. -1.
</event>
<event>
 5    1  0.1964212E-008  0.3860950E+03  0.7957747E-01  0.3425041E+00
         13   -1    0    0    0    0  0.00000000000E+00  0.00000000000E+00  0.14999999963E+04  0.15000000000E+04  0.10566000000E+00 0.  1.
        994   -1    0    0    0    0 -0.00000000000E+00 -0.00000000000E+00  0.11368683772E-12  0.17120000000E+03  0.17120000000E+03 0.  0.
         13    1    1    2    0    0  0.67937230270E+00  0.12281401543E+02  0.69970986432E+02  0.71043961579E+02  0.10566000000E+00 0.  1.
        994    1    1    2    0    0  0.46162720353E+01 -0.93839393372E+01  0.14459378885E+01  0.17152521395E+03  0.17120000000E+03 0.  0.
        998    1    1    2    0    0 -0.52956443380E+01 -0.28974622054E+01  0.14285830720E+04  0.14286308245E+04  0.10000000000E+02 0.  1.
</event>
<event>
 5    1  0.1535793E-008  0.3855538E+03  0.7957747E-01  0.3427327E+00
         13   -1    0    0    0    0  0.00000000000E+00  0.00000000000E+00  0.14999999963E+04  0.15000000000E+04  0.10566000000E+00 0.  1.
        994   -1    0    0    0    0 -0.00000000000E+00 -0.00000000000E+00  0.11368683772E-12  0.17120000000E+03  0.17120000000E+03 0.  0.
         13    1    1    2    0    0  0.15960460449E+02  0.21215031067E+01  0.96282207814E+02  0.97619218286E+02  0.10566000000E+00 0.  1.
        994    1    1    2    0    0 -0.11160864547E+02  0.58249805637E+01  0.18759325034E+01  0.17167252086E+03  0.17120000000E+03 0.  0.
        998    1    1    2    0    0 -0.47995959015E+01 -0.79464836704E+01  0.14018418560E+04  0.14019082609E+04  0.10000000000E+02 0.  1.
</event>
<event>
 5    1  0.1535793E-008  0.3839241E+03  0.7957747E-01  0.3434248E+00
         13   -1    0    0    0    0  0.00000000000E+00  0.00000000000E+00  0.14999999963E+04  0.15000000000E+04  0.10566000000E+00 0. -1.
        994   -1    0    0    0    0 -0.00000000000E+00 -0.00000000000E+00  0.11368683772E-12  0.17120000000E+03  0.17120000000E+03 0.  0.
         13    1    1    2    0    0  0.11468843767E+02  0.24870571634E+00  0.29795884748E+02  0.31928077672E+02  0.10566000000E+00 0. -1.
        994    1    1    2    0    0 -0.76801982629E+01  0.19848192028E+01  0.23729458003E+01  0.17140010451E+03  0.17120000000E+03 0.  0.
        998    1    1    2    0    0 -0.37886455044E+01 -0.22335249192E+01  0.14678311657E+04  0.14678718178E+04  0.10000000000E+02 0. -1.
</event>
<event>
 5    1  0.1535793E-008  0.3821869E+03  0.7957747E-01  0.3441691E+00
         13   -1    0    0    0    0  0.00000000000E+00  0.00000000000E+00  0.14999999963E+04  0.15000000000E+04  0.10566000000E+00 0.  1.
        994   -1    0    0    0    0 -0.00000000000E+00 -0.00000000000E+00  0.11368683772E-12  0.17120000000E+03  0.17120000000E+03 0.  0.
         13    1    1    2    0    0 -0.11003198333E+02 -0.39033441062E+01  0.21420995922E+02  0.24396243545E+02  0.10566000000E+00 0.  1.
        994    1    1    2    0    0  0.72127214307E+01 -0.18567681767E+01  0.32173772624E+01  0.17139213067E+03  0.17120000000E+03 0.  0.
        998    1    1    2    0    0  0.37904769023E+01  0.57601122829E+01  0.14753616231E+04  0.14754116258E+04  0.10000000000E+02 0.  1.
</event>
<event>
 5    1  0.1535793E-008  0.3696788E+03  0.7957747E-01  0.3497368E+00
         13   -1    0    0    0    0  0.00000000000E+00  0.00000000000E+00  0.14999999963E+04  0.15000000000E+04  0.10566000000E+00 0.  1.
        994   -1    0    0    0    0 -0.00000000000E+00 -0.00000000000E+00  0.11368683772E-12  0.17120000000E+03  0.17120000000E+03 0.  0.
         13    1    1    2    0    0 -0.11279905322E+03  0.93332267780E+02  0.66658028357E+03  0.68246891814E+03  0.10566000000E+00 0.  1.
        994    1    1    2    0    0  0.13477793865E+03 -0.43000065843E+02  0.84324673619E+02  0.23755881164E+03  0.17120000000E+03 0.  0.
        998    1    1    2    0    0 -0.21978885421E+02 -0.50332201937E+02  0.74909503909E+03  0.75117227022E+03  0.10000000000E+02 0.  1.
</event>
<event>
 5    1  0.1535793E-008  0.3836772E+03  0.7957747E-01  0.3435302E+00
         13   -1    0    0    0    0  0.00000000000E+00  0.00000000000E+00  0.14999999963E+04  0.15000000000E+04  0.10566000000E+00 0.  1.
        994   -1    0    0    0    0 -0.00000000000E+00 -0.00000000000E+00  0.11368683772E-12  0.17120000000E+03  0.17120000000E+03 0.  0.
         13    1    1    2    0    0 -0.12428617196E+02  0.18268051419E+02  0.10790682286E+03  0.11014574805E+03  0.10566000000E+00 0.  1.
        994    1    1    2    0    0  0.87001516193E+00 -0.13198102689E+02  0.28663506179E+01  0.17173410496E+03  0.17120000000E+03 0.  0.
        998    1    1    2    0    0  0.11558602034E+02 -0.50699487302E+01  0.13892268228E+04  0.13893201470E+04  0.10000000000E+02 0.  0.
</event>
<event>
 5    1  0.1535793E-008  0.3769612E+03  0.7957747E-01  0.3464498E+00
         13   -1    0    0    0    0  0.00000000000E+00  0.00000000000E+00  0.14999999963E+04  0.15000000000E+04  0.10566000000E+00 0. -1.
        994   -1    0    0    0    0 -0.00000000000E+00 -0.00000000000E+00  0.11368683772E-12  0.17120000000E+03  0.17120000000E+03 0.  0.
         13    1    1    2    0    0  0.10274293253E+03 -0.82760538329E+01  0.27014118995E+03  0.28913816234E+03  0.10566000000E+00 0. -1.
        994    1    1    2    0    0 -0.11978860195E+03 -0.37432501329E+02  0.73509883328E+02  0.22464114552E+03  0.17120000000E+03 0.  0.
        998    1    1    2    0    0  0.17045669420E+02  0.45708555162E+02  0.11563489230E+04  0.11574206921E+04  0.10000000000E+02 0. -1.
</event>
<event>
 5    1  0.2057775E-008  0.3855021E+03  0.7957747E-01  0.3427545E+00
         13   -1    0    0    0    0  0.00000000000E+00  0.00000000000E+00  0.14999999963E+04  0.15000000000E+04  0.10566000000E+00 0.  1.
        994   -1    0    0    0    0 -0.00000000000E+00 -0.00000000000E+00  0.11368683772E-12  0.17120000000E+03  0.17120000000E+03 0.  0.
         13    1    1    2    0    0  0.60860969238E+01  0.96727292590E+01  0.47007426558E+02  0.48376766972E+02  0.10566000000E+00 0.  1.
        994    1    1    2    0    0 -0.24434488180E+01 -0.95795987616E+01  0.17020244734E+01  0.17149366181E+03  0.17120000000E+03 0.  0.
        998    1    1    2    0    0 -0.36426481058E+01 -0.93130497433E-01  0.14512905452E+04  0.14513295712E+04  0.10000000000E+02 0.  1.
</event>
<event>
 5    1  0.1535793E-008  0.3839328E+03  0.7957747E-01  0.3434211E+00
         13   -1    0    0    0    0  0.00000000000E+00  0.00000000000E+00  0.14999999963E+04  0.15000000000E+04  0.10566000000E+00 0.  1.
        994   -1    0    0    0    0 -0.00000000000E+00 -0.00000000000E+00  0.11368683772E-12  0.17120000000E+03  0.17120000000E+03 0.  0.
         13    1    1    2    0    0  0.14424593154E+02 -0.10189776040E+01  0.48234863111E+02  0.50355936953E+02  0.10566000000E+00 0.  1.
        994    1    1    2    0    0 -0.79422692885E+01  0.26708704438E+01  0.23926422751E+01  0.17142163786E+03  0.17120000000E+03 0.  0.
        998    1    1    2    0    0 -0.64823238654E+01 -0.16518928398E+01  0.14493724909E+04  0.14494224252E+04  0.10000000000E+02 0.  1.
</event>
<event>
 5    1  0.1535793E-008  0.3828227E+03  0.7957747E-01  0.3438959E+00
         13   -1    0    0    0    0  0.00000000000E+00  0.00000000000E+00  0.14999999963E+04  0.15000000000E+04  0.10566000000E+00 0. -1.
        994   -1    0    0    0    0 -0.00000000000E+00 -0.00000000000E+00  0.11368683772E-12  0.17120000000E+03  0.17120000000E+03 0.  0.
         13    1    1    2    0    0  0.15548661044E+01  0.12264033860E+02  0.27698322501E+02  0.30332035351E+02  0.10566000000E+00 0. -1.
        994    1    1    2    0    0 -0.23510444728E+01 -0.28503995350E+01  0.27602105253E+01  0.17126211183E+03  0.17120000000E+03 0.  0.
        998    1    1    2    0    0  0.79617836836E+00 -0.94136343250E+01  0.14695414633E+04  0.14696058528E+04  0.10000000000E+02 0. -1.
</event>
<event>
 5    1  0.1535793E-008  0.3745396E+03  0.7957747E-01  0.3475284E+00
         13   -1    0    0    0    0  0.00000000000E+00  0.00000000000E+00  0.14999999963E+04  0.15000000000E+04  0.10566000000E+00 0.  1.
        994   -1    0    0    0    0 -0.00000000000E+00 -0.00000000000E+00  0.11368683772E-12  0.17120000000E+03  0.17120000000E+03 0.  0.
         13    1    1    2    0    0 -0.22273760179E+02  0.15357137701E+02  0.49291979759E+02  0.56228751574E+02  0.10566000000E+00 0.  1.
        994    1    1    2    0    0  0.29794775645E+02  0.12197379281E+01  0.99486060832E+01  0.17406214746E+03  0.17120000000E+03 0.  0.
        998    1    1    2    0    0 -0.75210154660E+01 -0.16576875629E+02  0.14407594104E+04  0.14409091010E+04  0.10000000000E+02 0.  1.
</event>
<event>
 5    1  0.1535793E-008  0.3854511E+03  0.7957747E-01  0.3427761E+00
         13   -1    0    0    0    0  0.00000000000E+00  0.00000000000E+00  0.14999999963E+04  0.15000000000E+04  0.10566000000E+00 0. -1.
        994   -1    0    0    0    0 -0.00000000000E+00 -0.00000000000E+00  0.11368683772E-12  0.17120000000E+03  0.17120000000E+03 0.  0.
         13    1    1    2    0    0  0.49985648730E+01 -0.15359693520E+02  0.97705776333E+02  0.99031993461E+02  0.10566000000E+00 0. -1.
        994    1    1    2    0    0 -0.55544858436E+00  0.48322057773E+01  0.14840216649E+01  0.17127551213E+03  0.17120000000E+03 0.  0.
        998    1    1    2    0    0 -0.44431162886E+01  0.10527487743E+02  0.14008101983E+04  0.14008924944E+04  0.10000000000E+02 0. -1.
</event>
<event>
 5    1  0.2304775E-008  0.3860640E+03  0.7957747E-01  0.3425172E+00
         13   -1    0    0    0    0  0.00000000000E+00  0.00000000000E+00  0.14999999963E+04  0.15000000000E+04  0.10566000000E+00 0. -1.
        994   -1    0    0    0    0 -0.00000000000E+00 -0.00000000000E+00  0.11368683772E-12  0.17120000000E+03  0.17120000000E+03 0.  0.
         13    1    1    2    0    0 -0.47266554347E+00  0.10698041154E+02  0.50867493308E+02  0.51982540691E+02  0.10566000000E+00 0. -1.
        994    1    1    2    0    0 -0.15103079429E+01 -0.12441326344E+02  0.16177284522E+01  0.17166573530E+03  0.17120000000E+03 0.  0.
        998    1    1    2    0    0  0.19829734864E+01  0.17432851904E+01  0.14475147745E+04  0.14475517240E+04  0.10000000000E+02 0. -1.
</event>
<event>
 5    1  0.1535793E-008  0.3835593E+03  0.7957747E-01  0.3435806E+00
         13   -1    0    0    0    0  0.00000000000E+00  0.00000000000E+00  0.14999999963E+04  0.15000000000E+04  0.10566000000E+00 0.  1.
        994   -1    0    0    0    0 -0.00000000000E+00 -0.00000000000E+00  0.11368683772E-12  0.17120000000E+03  0.17120000000E+03 0.  0.
         13    1    1    2    0    0  0.56854582795E+00 -0.13846356250E+02  0.39604108745E+02  0.41958806219E+02  0.10566000000E+00 0.  1.
        994    1    1    2    0    0 -0.54680288713E+00  0.13094369613E+02  0.29148401597E+01  0.17172564690E+03  0.17120000000E+03 0.  0.
        998    1    1    2    0    0 -0.21742940823E-01  0.75198663649E+00  0.14574810474E+04  0.14575155469E+04  0.10000000000E+02 0.  1.
</event>
<event>
 5    1  0.1535793E-008  0.2595175E+03  0.7957747E-01  0.4235458E+00
         13   -1    0    0    0    0  0.00000000000E+00  0.00000000000E+00  0.14999999963E+04  0.15000000000E+04  0.10566000000E+00 0. -1.
        994   -1    0    0    0    0 -0.00000000000E+00 -0.00000000000E+00  0.11368683772E-12  0.17120000000E+03  0.17120000000E+03 0.  0.
         13    1    1    2    0    0  0.12683711419E+03 -0.11913762310E+03  0.38069318211E+03  0.41857942716E+03  0.10566000000E+00 0. -1.
        994    1    1    2    0    0 -0.12441672499E+03  0.99878143779E+02  0.13923755066E+03  0.27230809862E+03  0.17120000000E+03 0.  0.
        998    1    1    2    0    0 -0.24203891968E+01  0.19259479317E+02  0.98006926351E+03  0.98031247422E+03  0.10000000000E+02 0. -1.
</event>
<event>
 5    1  0.1535793E-008  0.3838802E+03  0.7957747E-01  0.3434435E+00
         13   -1    0    0    0    0  0.00000000000E+00  0.00000000000E+00  0.14999999963E+04  0.15000000000E+04  0.10566000000E+00 0. -1.
        994   -1    0    0    0    0 -0.00000000000E+00 -0.00000000000E+00  0.11368683772E-12  0.17120000000E+03  0.17120000000E+03 0.  0.
         13    1    1    2    0    0 -0.14370546715E+02  0.17084952198E+01  0.48734956047E+02  0.50838358291E+02  0.10566000000E+00 0. -1.
        994    1    1    2    0    0  0.42990934717E+01  0.45364456802E+01  0.23160631805E+01  0.17132969881E+03  0.17120000000E+03 0.  0.
        998    1    1    2    0    0  0.10071453243E+02 -0.62449408999E+01  0.14489489771E+04  0.14490319429E+04  0.10000000000E+02 0. -1.
</event>
<event>
 5    1  0.1535793E-008  0.3772444E+03  0.7957747E-01  0.3463245E+00
         13   -1    0    0    0    0  0.00000000000E+00  0.00000000000E+00  0.14999999963E+04  0.15000000000E+04  0.10566000000E+00 0.  1.
        994   -1    0    0    0    0 -0.00000000000E+00 -0.00000000000E+00  0.11368683772E-12  0.17120000000E+03  0.17120000000E+03 0.  0.
         13    1    1    2    0    0 -0.11231024948E+02 -0.26598853475E+01  0.95287263238E+01  0.14967254285E+02  0.10566000000E+00 0.  1.
        994    1    1    2    0    0  0.88400070716E+01  0.44520788310E+01  0.58612252599E+01  0.17158601543E+03  0.17120000000E+03 0.  0.
        998    1    1    2    0    0  0.23910178768E+01 -0.17921934835E+01  0.14846100447E+04  0.14846467303E+04  0.10000000000E+02 0.  1.
</event>
<event>
 5    1  0.1535793E-008  0.3719100E+03  0.7957747E-01  0.3487159E+00
         13   -1    0    0    0    0  0.00000000000E+00  0.00000000000E+00  0.14999999963E+04  0.15000000000E+04  0.10566000000E+00 0. -1.
        994   -1    0    0    0    0 -0.00000000000E+00 -0.00000000000E+00  0.11368683772E-12  0.17120000000E+03  0.17120000000E+03 0.  0.
         13    1    1    2    0    0 -0.30263915164E+02  0.34616795747E+02  0.11502155460E+03  0.12387169287E+03  0.10566000000E+00 0. -1.
        994    1    1    2    0    0  0.30749606254E+02 -0.36825795618E+02  0.16222220796E+02  0.17853368857E+03  0.17120000000E+03 0.  0.
        998    1    1    2    0    0 -0.48569109074E+00  0.22089998710E+01  0.13687562209E+04  0.13687946186E+04  0.10000000000E+02 0. -1.
</event>
<event>
 5    1  0.1535793E-008  0.3810881E+03  0.7957747E-01  0.3446434E+00
         13   -1    0    0    0    0  0.00000000000E+00  0.00000000000E+00  0.14999999963E+04  0.15000000000E+04  0.10566000000E+00 0.  1.
        994   -1    0    0    0    0 -0.00000000000E+00 -0.00000000000E+00  0.11368683772E-12  0.17120000000E+03  0.17120000000E+03 0.  0.
         13    1    1    2    0    0 -0.12053217036E+02 -0.33206476851E+01  0.20161803802E+02  0.23723748409E+02  0.10566000000E+00 0.  1.
        994    1    1    2    0    0  0.85761931564E+01  0.13654358694E+02  0.44513676044E+01  0.17201525303E+03  0.17120000000E+03 0.  0.
        998    1    1    2    0    0  0.34770238798E+01 -0.10333711008E+02  0.14753868249E+04  0.14754609986E+04  0.10000000000E+02 0.  1.
</event>
<event>
 5    1  0.1535793E-008  0.3848418E+03  0.7957747E-01  0.3430343E+00
         13   -1    0    0    0    0  0.00000000000E+00  0.00000000000E+00  0.14999999963E+04  0.15000000000E+04  0.10566000000E+00 0. -1.
        994   -1    0    0    0    0 -0.00000000000E+00 -0.00000000000E+00  0.11368683772E-12  0.17120000000E+03  0.17120000000E+03 0.  0.
         13    1    1    2    0    0 -0.13972734999E+02  0.15130028462E+01  0.60265490088E+02  0.61882687082E+02  0.10566000000E+00 0. -1.
        994    1    1    2    0    0  0.31594724423E+01  0.88321587473E+01  0.19982780391E+01  0.17146842977E+03  0.17120000000E+03 0.  0.
        998    1    1    2    0    0  0.10813262557E+02 -0.10345161594E+02  0.14377362282E+04  0.14378488831E+04  0.10000000000E+02 0. -1.
</event>
<event>
 5    1  0.1535793E-008  0.3853282E+03  0.7957747E-01  0.3428281E+00
         13   -1    0    0    0    0  0.00000000000E+00  0.00000000000E+00  0.14999999963E+04  0.15000000000E+04  0.10566000000E+00 0. -1.
        994   -1    0    0    0    0 -0.00000000000E+00 -0.00000000000E+00  0.11368683772E-12  0.17120000000E+03  0.17120000000E+03 0.  0.
         13    1    1    2    0    0 -0.12993887654E+03  0.13386587607E+03  0.11163968056E+04  0.11318772121E+04  0.10566000000E+00 0. -1.
        994    1    1    2    0    0  0.13022378586E+03 -0.15352870177E+03  0.14839817570E+03  0.30308539262E+03  0.17120000000E+03 0.  0.
        998    1    1    2    0    0 -0.28490931734E+00  0.19662825693E+02  0.23520501493E+03  0.23623739529E+03  0.10000000000E+02 0.  1.
</event>
<event>
 5    1  0.1535793E-008  0.3836048E+03  0.7957747E-01  0.3435611E+00
         13   -1    0    0    0    0  0.00000000000E+00  0.00000000000E+00  0.14999999963E+04  0.15000000000E+04  0.10566000000E+00 0. -1.
        994   -1    0    0    0    0 -0.00000000000E+00 -0.00000000000E+00  0.11368683772E-12  0.17120000000E+03  0.17120000000E+03 0.  0.
         13    1    1    2    0    0 -0.30138643850E+02 -0.18412253145E+03  0.10171701059E+04  0.10341394876E+04  0.10566000000E+00 0. -1.
        994    1    1    2    0    0  0.35062967513E+02  0.19816789323E+03  0.15015179267E+03  0.30389953346E+03  0.17120000000E+03 0.  0.
        998    1    1    2    0    0 -0.49243236627E+01 -0.14045361780E+02  0.33267809772E+03  0.33316097889E+03  0.10000000000E+02 0. -1.
</event>
<event>
 5    1  0.1535793E-008  0.3822608E+03  0.7957747E-01  0.3441373E+00
         13   -1    0    0    0    0  0.00000000000E+00  0.00000000000E+00  0.14999999963E+04  0.15000000000E+04  0.10566000000E+00 0. -1.
        994   -1    0    0    0    0 -0.00000000000E+00 -0.00000000000E+00  0.11368683772E-12  0.17120000000E+03  0.17120000000E+03 0.  0.
         13    1    1    2    0    0 -0.98406080264E+00 -0.34674387156E+02  0.19483762887E+03  0.19790147621E+03  0.10566000000E+00 0. -1.
        994    1    1    2    0    0  0.15982022190E+02  0.23169164334E+02  0.56294304395E+01  0.17358964743E+03  0.17120000000E+03 0.  0.
        998    1    1    2    0    0 -0.14997961387E+02  0.11505222822E+02  0.12995329370E+04  0.12997088764E+04  0.10000000000E+02 0. -1.
</event>
<event>
 5    1  0.1576768E-008  0.3856478E+03  0.7957747E-01  0.3426929E+00
         13   -1    0    0    0    0  0.00000000000E+00  0.00000000000E+00  0.14999999963E+04  0.15000000000E+04  0.10566000000E+00 0. -1.
        994   -1    0    0    0    0 -0.00000000000E+00 -0.00000000000E+00  0.11368683772E-12  0.17120000000E+03  0.17120000000E+03 0.  0.
         13    1    1    2    0    0  0.53371103445E+01 -0.90197425463E+01  0.41190469658E+02  0.42503017036E+02  0.10566000000E+00 0. -1.
        994    1    1    2    0    0 -0.66897134102E+01  0.92221745021E+01  0.17349440364E+01  0.17158744359E+03  0.17120000000E+03 0.  0.
        998    1    1    2    0    0  0.13526030657E+01 -0.20243195581E+00  0.14570745826E+04  0.14571095394E+04  0.10000000000E+02 0. -1.
</event>
<event>
 5    1  0.1535793E-008  0.3692704E+03  0.7957747E-01  0.3499251E+00
         13   -1    0    0    0    0  0.00000000000E+00  0.00000000000E+00  0.14999999963E+04  0.15000000000E+04  0.10566000000E+00 0. -1.
        994   -1    0    0    0    0 -0.00000000000E+00 -0.00000000000E+00  0.11368683772E-12  0.17120000000E+03  0.17120000000E+03 0.  0.
         13    1    1    2    0    0  0.20706643097E+02 -0.21730390542E+02  0.38825476436E+02  0.49075490074E+02  0.10566000000E+00 0. -1.
        994    1    1    2    0    0 -0.13942972638E+02  0.10914097486E+02  0.11647532001E+02  0.17250689555E+03  0.17120000000E+03 0.  0.
        998    1    1    2    0    0 -0.67636704591E+01  0.10816293057E+02  0.14495269878E+04  0.14496176144E+04  0.10000000000E+02 0. -1.
</event>
<event>
 5    1  0.1535793E-008  0.3848815E+03  0.7957747E-01  0.3430175E+00
         13   -1    0    0    0    0  0.00000000000E+00  0.00000000000E+00  0.14999999963E+04  0.15000000000E+04  0.10566000000E+00 0. -1.
        994   -1    0    0    0    0 -0.00000000000E+00 -0.00000000000E+00  0.11368683772E-12  0.17120000000E+03  0.17120000000E+03 0.  0.
         13    1    1    2    0    0 -0.15501683176E+02  0.20439657027E+01  0.69954844733E+02  0.71681039632E+02  0.10566000000E+00 0. -1.
        994    1    1    2    0    0  0.15067218805E+02 -0.40196468735E+01  0.24894236026E+01  0.17192677474E+03  0.17120000000E+03 0.  0.
        998    1    1    2    0    0  0.43446437131E+00  0.19756811708E+01  0.14275557279E+04  0.14275921856E+04  0.10000000000E+02 0. -1.
</event>
<event>
 5    1  0.1535793E-008  0.3821727E+03  0.7957747E-01  0.3441752E+00
         13   -1    0    0    0    0  0.00000000000E+00  0.00000000000E+00  0.14999999963E+04  0.15000000000E+04  0.10566000000E+00 0.  1.
        994   -1    0    0    0    0 -0.00000000000E+00 -0.00000000000E+00  0.11368683772E-12  0.17120000000E+03  0.17120000000E+03 0.  0.
         13    1    1    2    0    0  0.17219334442E+02  0.22645648613E+02  0.15398637447E+03  0.15659229089E+03  0.10566000000E+00 0.  1.
        994    1    1    2    0    0  0.68858931177E+01 -0.12401787453E+01  0.32028968192E+01  0.17137284533E+03  0.17120000000E+03 0.  0.
        998    1    1    2    0    0 -0.24105227559E+02 -0.21405469868E+02  0.13428107250E+04  0.13432348638E+04  0.10000000000E+02 0.  1.
</event>
<event>
 5    1  0.1535793E-008  0.3806883E+03  0.7957747E-01  0.3448167E+00
         13   -1    0    0    0    0  0.00000000000E+00  0.00000000000E+00  0.14999999963E+04  0.15000000000E+04  0.10566000000E+00 0. -1.
        994   -1    0    0    0    0 -0.00000000000E+00 -0.00000000000E+00  0.11368683772E-12  0.17120000000E+03  0.17120000000E+03 0.  0.
         13    1    1    2    0    0 -0.77953208232E+01 -0.79879230748E+01  0.14901926730E+02  0.18618606986E+02  0.10566000000E+00 0. -1.
        994    1    1    2    0    0  0.76250357309E+01  0.14619535684E+01  0.39871530050E+01  0.17142233188E+03  0.17120000000E+03 0.  0.
        998    1    1    2    0    0  0.17028509232E+00  0.65259695064E+01  0.14811109165E+04  0.14811590611E+04  0.10000000000E+02 0. -1.
</event>
<event>
 5    1  0.1535793E-008  0.3784108E+03  0.7957747E-01  0.3458107E+00
         13   -1    0    0    0    0  0.00000000000E+00  0.00000000000E+00  0.14999999963E+04  0.15000000000E+04  0.10566000000E+00 0. -1.
        994   -1    0    0    0    0 -0.00000000000E+00 -0.00000000000E+00  0.11368683772E-12  0.17120000000E+03  0.17120000000E+03 0.  0.
         13    1    1    2    0    0  0.42667759449E+02  0.28682036515E+02  0.21989587327E+03  0.22582604624E+03  0.10566000000E+00 0. -1.
        994    1    1    2    0    0 -0.71256177909E+02  0.55162376493E+00  0.22195722954E+02  0.18676144489E+03  0.17120000000E+03 0.  0.
        998    1    1    2    0    0  0.28588418460E+02 -0.29233660280E+02  0.12579084001E+04  0.12586125089E+04  0.10000000000E+02 0. -1.
</event>
<event>
 5    1  0.1535793E-008  0.3723413E+03  0.7957747E-01  0.3485199E+00
         13   -1    0    0    0    0  0.00000000000E+00  0.00000000000E+00  0.14999999963E+04  0.15000000000E+04  0.10566000000E+00 0. -1.
        994   -1    0    0    0    0 -0.00000000000E+00 -0.00000000000E+00  0.11368683772E-12  0.17120000000E+03  0.17120000000E+03 0.  0.
         13    1    1    2    0    0 -0.19300046472E+02  0.37187335442E+02  0.10491878760E+03  0.11297500992E+03  0.10566000000E+00 0. -1.
        994    1    1    2    0    0  0.18829972787E+02 -0.22729445747E+02  0.11044395901E+02  0.17407646096E+03  0.17120000000E+03 0.  0.
        998    1    1    2    0    0  0.47007368445E+00 -0.14457889695E+02  0.13840368128E+04  0.13841485291E+04  0.10000000000E+02 0. -1.
</event>
<event>
 5    1  0.1535793E-008  0.3827935E+03  0.7957747E-01  0.3439085E+00
         13   -1    0    0    0    0  0.00000000000E+00  0.00000000000E+00  0.14999999963E+04  0.15000000000E+04  0.10566000000E+00 0. -1.
        994   -1    0    0    0    0 -0.00000000000E+00 -0.00000000000E+00  0.11368683772E-12  0.17120000000E+03  0.17120000000E+03 0.  0.
         13    1    1    2    0    0  0.13658852846E+02 -0.23167028169E+01  0.34055378826E+02  0.36765627480E+02  0.10566000000E+00 0. -1.
        994    1    1    2    0    0 -0.10179198762E+02  0.46815151184E+01  0.31455428508E+01  0.17159506727E+03  0.17120000000E+03 0.  0.
        998    1    1    2    0    0 -0.34796540840E+01 -0.23648123015E+01  0.14627990746E+04  0.14628393053E+04  0.10000000000E+02 0. -1.
</event>
<event>
 5    1  0.1535793E-008  0.3703321E+03  0.7957747E-01  0.3494366E+00
         13   -1    0    0    0    0  0.00000000000E+00  0.00000000000E+00  0.14999999963E+04  0.15000000000E+04  0.10566000000E+00 0. -1.
        994   -1    0    0    0    0 -0.00000000000E+00 -0.00000000000E+00  0.11368683772E-12  0.17120000000E+03  0.17120000000E+03 0.  0.
         13    1    1    2    0    0 -0.62823954517E+02  0.29514464011E+02  0.21345249602E+03  0.22445474392E+03  0.10566000000E+00 0. -1.
        994    1    1    2    0    0  0.40826317259E+02 -0.96443111135E+01  0.17299302221E+02  0.17711156590E+03  0.17120000000E+03 0.  0.
        998    1    1    2    0    0  0.21997637258E+02 -0.19870152898E+02  0.12692481980E+04  0.12696336902E+04  0.10000000000E+02 0. -1.
</event>
<event>
 5    1  0.1535793E-008  0.3697886E+03  0.7957747E-01  0.3496863E+00
         13   -1    0    0    0    0  0.00000000000E+00  0.00000000000E+00  0.14999999963E+04  0.15000000000E+04  0.10566000000E+00 0.  1.
        994   -1    0    0    0    0 -0.00000000000E+00 -0.00000000000E+00  0.11368683772E-12  0.17120000000E+03  0.17120000000E+03 0.  0.
         13    1    1    2    0    0  0.90826727737E+02  0.27258109323E+02  0.48486555784E+03  0.49405173751E+03  0.10566000000E+00 0.  1.
        994    1    1    2    0    0 -0.77590768285E+02  0.45863518937E+02  0.38039552150E+02  0.19718072223E+03  0.17120000000E+03 0.  0.
        998    1    1    2    0    0 -0.13235959452E+02 -0.73121628260E+02  0.97709488629E+03  0.97996754026E+03  0.10000000000E+02 0.  1.
</event>
<event>
 5    1  0.1535793E-008  0.3841894E+03  0.7957747E-01  0.3433117E+00
         13   -1    0    0    0    0  0.00000000000E+00  0.00000000000E+00  0.14999999963E+04  0.15000000000E+04  0.10566000000E+00 0. -1.
        994   -1    0    0    0    0 -0.00000000000E+00 -0.00000000000E+00  0.11368683772E-12  0.17120000000E+03  0.17120000000E+03 0.  0.
         13    1    1    2    0    0 -0.86951970564E+01 -0.60212473131E+01  0.27217798517E+02  0.29200712170E+02  0.10566000000E+00 0. -1.
        994    1    1    2    0    0  0.42993617085E+01  0.20761368803E+01  0.21083052486E+01  0.17127953703E+03  0.17120000000E+03 0.  0.
        998    1    1    2    0    0  0.43958353479E+01  0.39451104328E+01  0.14706738925E+04  0.14707197508E+04  0.10000000000E+02 0. -1.
</event>
<event>
 5    1  0.1535793E-008  0.3820309E+03  0.7957747E-01  0.3442363E+00
         13   -1    0    0    0    0  0.00000000000E+00  0.00000000000E+00  0.14999999963E+04  0.15000000000E+04  0.10566000000E+00 0.  1.
        994   -1    0    0    0    0 -0.00000000000E+00 -0.00000000000E+00  0.11368683772E-12  0.17120000000E+03  0.17120000000E+03 0.  0.
         13    1    1    2    0    0  0.10427167724E+01 -0.13908821632E+02  0.30945909973E+02  0.33944117098E+02  0.10566000000E+00 0.  1.
        994    1    1    2    0    0  0.59151885809E+01  0.20800601975E+01  0.32420126896E+01  0.17134546026E+03  0.17120000000E+03 0.  0.
        998    1    1    2    0    0 -0.69579053532E+01  0.11828761435E+02  0.14658120736E+04  0.14659104226E+04  0.10000000000E+02 0.  1.
</event>
<event>
 5    1  0.1535793E-008  0.3850152E+03  0.7957747E-01  0.3429608E+00
         13   -1    0    0    0    0  0.00000000000E+00  0.00000000000E+00  0.14999999963E+04  0.15000000000E+04  0.10566000000E+00 0. -1.
        994   -1    0    0    0    0 -0.00000000000E+00 -0.00000000000E+00  0.11368683772E-12  0.17120000000E+03  0.17120000000E+03 0.  0.
         13    1    1    2    0    0  0.33202072431E+01 -0.11179908494E+02  0.42020480081E+02  0.43609013292E+02  0.10566000000E+00 0. -1.
        994    1    1    2    0    0 -0.14869006584E+02  0.28993865999E+01  0.23776319083E+01  0.17188538895E+03  0.17120000000E+03 0.  0.
        998    1    1    2    0    0  0.11548799341E+02  0.82805218940E+01  0.14556018843E+04  0.14557055978E+04  0.10000000000E+02 0. -1.
</event>
<event>
 5    1  0.1535793E-008  0.3807316E+03  0.7957747E-01  0.3447979E+00
         13   -1    0    0    0    0  0.00000000000E+00  0.00000000000E+00  0.14999999963E+04  0.15000000000E+04  0.10566000000E+00 0.  1.
        994   -1    0    0    0    0 -0.00000000000E+00 -0.00000000000E+00  0.11368683772E-12  0.17120000000E+03  0.17120000000E+03 0.  0.
         13    1    1    2    0    0 -0.95044067692E+01  0.15641905940E+02  0.42407326341E+02  0.46188694081E+02  0.10566000000E+00 0.  1.
        994    1    1    2    0    0  0.39464917715E+01 -0.16999679405E+02  0.47806345003E+01  0.17215358946E+03  0.17120000000E+03 0.  0.
        998    1    1    2    0    0  0.55579149977E+01  0.13577734652E+01  0.14528120354E+04  0.14528577165E+04  0.10000000000E+02 0.  1.
</event>
<event>
 5    1  0.1535793E-008  0.3836353E+03  0.7957747E-01  0.3435481E+00
         13   -1    0    0    0    0  0.00000000000E+00  0.00000000000E+00  0.14999999963E+04  0.15000000000E+04  0.10566000000E+00 0. -1.
        994   -1    0    0    0    0 -0.00000000000E+00 -0.00000000000E+00  0.11368683772E-12  0.17120000000E+03  0.17120000000E+03 0.  0.
         13    1    1    2    0    0  0.17531983600E+02 -0.61466519263E+01  0.82160457782E+02  0.84234813265E+02  0.10566000000E+00 0. -1.
        994    1    1    2    0    0  0.48193053506E+01 -0.45993747357E+00  0.23866136040E+01  0.17128506406E+03  0.17120000000E+03 0.  0.
        998    1    1    2    0    0 -0.22351288950E+02  0.66065893999E+01  0.14154529249E+04  0.14156801227E+04  0.10000000000E+02 0. -1.
</event>
<event>
 5    1  0.1535793E-008  0.3760729E+03  0.7957747E-01  0.3468438E+00
         13   -1    0    0    0    0  0.00000000000E+00  0.00000000000E+00  0.14999999963E+04  0.15000000000E+04  0.10566000000E+00 0.  1.
        994   -1    0    0    0    0 -0.00000000000E+00 -0.00000000000E+00  0.11368683772E-12  0.17120000000E+03  0.17120000000E+03 0.  0.
         13    1    1    2    0    0 -0.28139686729E+02 -0.14740257945E+02  0.81176185556E+02  0.87170530795E+02  0.10566000000E+00 0.  1.
        994    1    1    2    0    0  0.17405151568E+02  0.22245479810E+01  0.71722985497E+01  0.17224624751E+03  0.17120000000E+03 0.  0.
        998    1    1    2    0    0  0.10734535162E+02  0.12515709964E+02  0.14116515122E+04  0.14117832217E+04  0.10000000000E+02 0.  1.
</event>
<event>
 5    1  0.1535793E-008  0.3845595E+03  0.7957747E-01  0.3431542E+00
         13   -1    0    0    0    0  0.00000000000E+00  0.00000000000E+00  0.14999999963E+04  0.15000000000E+04  0.10566000000E+00 0. -1.
        994   -1    0    0    0    0 -0.00000000000E+00 -0.00000000000E+00  0.11368683772E-12  0.17120000000E+03  0.17120000000E+03 0.  0.
         13    1    1    2    0    0  0.40700838941E+01  0.14456691811E+02  0.63854744775E+02  0.65597264542E+02  0.10566000000E+00 0. -1.
        994    1    1    2    0    0  0.52047370104E+01 -0.31946715090E+01  0.19718196425E+01  0.17132023607E+03  0.17120000000E+03 0.  0.
        998    1    1    2    0    0 -0.92748209044E+01 -0.11262020302E+02  0.14341734319E+04  0.14342824994E+04  0.10000000000E+02 0. -1.
</event>
<event>
 5    1  0.1535793E-008  0.3724311E+03  0.7957747E-01  0.3484792E+00
         13   -1    0    0    0    0  0.00000000000E+00  0.00000000000E+00  0.14999999963E+04  0.15000000000E+04  0.10566000000E+00 0. -1.
        994   -1    0    0    0    0 -0.00000000000E+00 -0.00000000000E+00  0.11368683772E-12  0.17120000000E+03  0.17120000000E+03 0.  0.
         13    1    1    2    0    0 -0.30545151932E+02 -0.48179944170E+01  0.59581191354E+02  0.67127854904E+02  0.10566000000E+00 0. -1.
        994    1    1    2    0    0  0.16162756471E+01  0.18854951770E+02  0.92327663331E+01  0.17249001573E+03  0.17120000000E+03 0.  0.
        998    1    1    2    0    0  0.28928876285E+02 -0.14036957353E+02  0.14311860386E+04  0.14315821294E+04  0.10000000000E+02 0. -1.
</event>
<event>
 5    1  0.1535793E-008  0.3789749E+03  0.7957747E-01  0.3455634E+00
         13   -1    0    0    0    0  0.00000000000E+00  0.00000000000E+00  0.14999999963E+04  0.15000000000E+04  0.10566000000E+00 0.  1.
        994   -1    0    0    0    0 -0.00000000000E+00 -0.00000000000E+00  0.11368683772E-12  0.17120000000E+03  0.17120000000E+03 0.  0.
         13    1    1    2    0    0  0.43458133246E+02  0.12743113846E+01  0.17937925200E+03  0.18457291357E+03  0.10566000000E+00 0.  1.
        994    1    1    2    0    0 -0.43118945722E+02 -0.31272712792E+01  0.10946408740E+02  0.17691321932E+03  0.17120000000E+03 0.  0.
        998    1    1    2    0    0 -0.33918752416E+00  0.18529598947E+01  0.13096743355E+04  0.13097138671E+04  0.10000000000E+02 0.  0.
</event>
<event>
 5    1  0.1535793E-008  0.3834873E+03  0.7957747E-01  0.3436113E+00
         13   -1    0    0    0    0  0.00000000000E+00  0.00000000000E+00  0.14999999963E+04  0.15000000000E+04  0.10566000000E+00 0.  1.
        994   -1    0    0    0    0 -0.00000000000E+00 -0.00000000000E+00  0.11368683772E-12  0.17120000000E+03  0.17120000000E+03 0.  0.
         13    1    1    2    0    0  0.17022169823E+02  0.12344260671E+02  0.94090541760E+02  0.96411494386E+02  0.10566000000E+00 0.  1.
        994    1    1    2    0    0 -0.12083632688E+02 -0.41927463320E+00  0.28663103615E+01  0.17165035888E+03  0.17120000000E+03 0.  0.
        998    1    1    2    0    0 -0.49385371355E+01 -0.11924986037E+02  0.14030431442E+04  0.14031381467E+04  0.10000000000E+02 0.  1.
</event>
<event>
 5    1  0.1535793E-008  0.3836786E+03  0.7957747E-01  0.3435296E+00
         13   -1    0    0    0    0  0.00000000000E+00  0.00000000000E+00  0.14999999963E+04  0.15000000000E+04  0.10566000000E+00 0.  1.
        994   -1    0    0    0    0 -0.00000000000E+00 -0.00000000000E+00  0.11368683772E-12  0.17120000000E+03  0.17120000000E+03 0.  0.
         13    1    1    2    0    0 -0.17791747196E+02 -0.98061025004E+01  0.91020867733E+02  0.93260470948E+02  0.10566000000E+00 0.  1.
        994    1    1    2    0    0  0.80738523283E+01  0.70803773792E+01  0.26685909216E+01  0.17155722139E+03  0.17120000000E+03 0.  0.
        998    1    1    2    0    0  0.97178948682E+01  0.27257251212E+01  0.14063105376E+04  0.14063823077E+04  0.10000000000E+02 0.  1.
</event>
<event>
 5    1  0.1535793E-008  0.3802406E+03  0.7957747E-01  0.3450112E+00
         13   -1    0    0    0    0  0.00000000000E+00  0.00000000000E+00  0.14999999963E+04  0.15000000000E+04  0.10566000000E+00 0. -1.
        994   -1    0    0    0    0 -0.00000000000E+00 -0.00000000000E+00  0.11368683772E-12  0.17120000000E+03  0.17120000000E+03 0.  0.
         13    1    1    2    0    0  0.19764810071E+01  0.17684077179E+02  0.20122586365E+01  0.17907914778E+02  0.10566000000E+00 0. -1.
        994    1    1    2    0    0 -0.27818885031E+01 -0.28050238519E+02  0.19346301412E+02  0.17458027999E+03  0.17120000000E+03 0.  0.
        998    1    1    2    0    0  0.80540749602E+00  0.10366161340E+02  0.14786414362E+04  0.14787118052E+04  0.10000000000E+02 0. -1.
</event>
<event>
 5    1  0.1535793E-008  0.3862996E+03  0.7957747E-01  0.3424179E+00
         13   -1    0    0    0    0  0.00000000000E+00  0.00000000000E+00  0.14999999963E+04  0.15000000000E+04  0.10566000000E+00 0. -1.
        994   -1    0    0    0    0 -0.00000000000E+00 -0.00000000000E+00  0.11368683772E-12  0.17120000000E+03  0.17120000000E+03 0.  0.
         13    1    1    2    0    0 -0.10059397677E+02  0.43758553161E+01  0.60132986497E+02  0.61125500574E+02  0.10566000000E+00 0. -1.
        994    1    1    2    0    0  0.13630697613E+02  0.24242253787E+01  0.16142483032E+01  0.17176646525E+03  0.17120000000E+03 0.  0.
        998    1    1    2    0    0 -0.35712999366E+01 -0.68000806948E+01  0.14382527615E+04  0.14383080342E+04  0.10000000000E+02 0. -1.
</event>
<event>
 5    1  0.1535793E-008  0.3835961E+03  0.7957747E-01  0.3435648E+00
         13   -1    0    0    0    0  0.00000000000E+00  0.00000000000E+00  0.14999999963E+04  0.15000000000E+04  0.10566000000E+00 0. -1.
        994   -1    0    0    0    0 -0.00000000000E+00 -0.00000000000E+00  0.11368683772E-12  0.17120000000E+03  0.17120000000E+03 0.  0.
         13    1    1    2    0    0 -0.99322650426E+01  0.68281486983E+01  0.30566425758E+02  0.32857130903E+02  0.10566000000E+00 0. -1.
        994    1    1    2    0    0  0.13464411728E+02  0.62858157184E+01  0.30585618799E+01  0.17187087206E+03  0.17120000000E+03 0.  0.
        998    1    1    2    0    0 -0.35321466854E+01 -0.13113964417E+02  0.14663750086E+04  0.14664719970E+04  0.10000000000E+02 0. -1.
</event>
<event>
 5    1  0.1535793E-008  0.3744698E+03  0.7957747E-01  0.3475597E+00
         13   -1    0    0    0    0  0.00000000000E+00  0.00000000000E+00  0.14999999963E+04  0.15000000000E+04  0.10566000000E+00 0. -1.
        994   -1    0    0    0    0 -0.00000000000E+00 -0.00000000000E+00  0.11368683772E-12  0.17120000000E+03  0.17120000000E+03 0.  0.
         13    1    1    2    0    0 -0.46550949297E+02  0.12589438779E+02  0.14084542384E+03  0.14887219159E+03  0.10566000000E+00 0. -1.
        994    1    1    2    0    0  0.51144961740E+02 -0.47440907220E+02  0.23707986373E+02  0.18638120991E+03  0.17120000000E+03 0.  0.
        998    1    1    2    0    0 -0.45940124430E+01  0.34851468442E+02  0.13354465861E+04  0.13359465985E+04  0.10000000000E+02 0. -1.
</event>
<event>
 5    1  0.1535793E-008  0.3772995E+03  0.7957747E-01  0.3463002E+00
         13   -1    0    0    0    0  0.00000000000E+00  0.00000000000E+00  0.14999999963E+04  0.15000000000E+04  0.10566000000E+00 0. -1.
        994   -1    0    0    0    0 -0.00000000000E+00 -0.00000000000E+00  0.11368683772E-12  0.17120000000E+03  0.17120000000E+03 0.  0.
         13    1    1    2    0    0  0.19208004873E+02  0.44286118598E+01  0.64440148969E+01  0.20738769159E+02  0.10566000000E+00 0. -1.
        994    1    1    2    0    0 -0.17778318293E+02 -0.34813824522E+01  0.16030115698E+02  0.17290052988E+03  0.17120000000E+03 0.  0.
        998    1    1    2    0    0 -0.14296865801E+01 -0.94722940761E+00  0.14775258657E+04  0.14775607010E+04  0.10000000000E+02 0. -1.
</event>
<event>
 5    1  0.1535793E-008  0.4048797E+03  0.7957747E-01  0.3349501E+00
         13   -1    0    0    0    0  0.00000000000E+00  0.00000000000E+00  0.14999999963E+04  0.15000000000E+04  0.10566000000E+00 0.  1.
        994   -1    0    0    0    0 -0.00000000000E+00 -0.00000000000E+00  0.11368683772E-12  0.17120000000E+03  0.17120000000E+03 0.  0.
         13    1    1    2    0    0 -0.10672042168E+02 -0.11723082025E+02 -0.95590930123E+01  0.18512443368E+02  0.10566000000E+00 0.  1.
        994    1    1    2    0    0  0.95784747414E+01  0.13411246970E+02  0.31816196143E+02  0.17490945961E+03  0.17120000000E+03 0.  0.
        998    1    1    2    0    0  0.10935674269E+01 -0.16881649442E+01  0.14777428931E+04  0.14777780970E+04  0.10000000000E+02 0.  1.
</event>
<event>
 5    1  0.1535793E-008  0.3693711E+03  0.7957747E-01  0.3498786E+00
         13   -1    0    0    0    0  0.00000000000E+00  0.00000000000E+00  0.14999999963E+04  0.15000000000E+04  0.10566000000E+00 0.  1.
        994   -1    0    0    0    0 -0.00000000000E+00 -0.00000000000E+00  0.11368683772E-12  0.17120000000E+03  0.17120000000E+03 0.  0.
         13    1    1    2    0    0  0.45388862833E+02 -0.86095842382E+01  0.11829428674E+03  0.12699536704E+03  0.10566000000E+00 0.  1.
        994    1    1    2    0    0 -0.14086043561E+01  0.23112347578E+02  0.11458251939E+02  0.17313837332E+03  0.17120000000E+03 0.  0.
        998    1    1    2    0    0 -0.43980258477E+02 -0.14502763340E+02  0.13702474576E+04  0.13710662596E+04  0.10000000000E+02 0.  1.
</event>
<event>
 5    1  0.1535793E-008  0.3780759E+03  0.7957747E-01  0.3459580E+00
         13   -1    0    0    0    0  0.00000000000E+00  0.00000000000E+00  0.14999999963E+04  0.15000000000E+04  0.10566000000E+00 0. -1.
        994   -1    0    0    0    0 -0.00000000000E+00 -0.00000000000E+00  0.11368683772E-12  0.17120000000E+03  0.17120000000E+03 0.  0.
         13    1    1    2    0    0  0.54999620254E+01 -0.35717854934E+02  0.11783658718E+03  0.12325375121E+03  0.10566000000E+00 0. -1.
        994    1    1    2    0    0 -0.45809407083E+01  0.34679178905E+02  0.92353104215E+01  0.17498103162E+03  0.17120000000E+03 0.  0.
        998    1    1    2    0    0 -0.91902131719E+00  0.10386760291E+01  0.13729280987E+04  0.13729652172E+04  0.10000000000E+02 0.  0.
</event>
<event>
 5    1  0.1535793E-008  0.3792601E+03  0.7957747E-01  0.3454386E+00
         13   -1    0    0    0    0  0.00000000000E+00  0.00000000000E+00  0.14999999963E+04  0.15000000000E+04  0.10566000000E+00 0.  1.
        994   -1    0    0    0    0 -0.00000000000E+00 -0.00000000000E+00  0.11368683772E-12  0.17120000000E+03  0.17120000000E+03 0.  0.
         13    1    1    2    0    0 -0.22117978968E+01  0.10392246809E+02  0.10590993038E+02  0.15002371188E+02  0.10566000000E+00 0.  1.
        994    1    1    2    0    0 -0.28644391956E+02 -0.10278558181E+02  0.76169364974E+01  0.17405058940E+03  0.17120000000E+03 0.  0.
        998    1    1    2    0    0  0.30856189853E+02 -0.11368862871E+00  0.14817920667E+04  0.14821470394E+04  0.10000000000E+02 0.  1.
</event>
<event>
 5    1  0.1535793E-008  0.3731616E+03  0.7957747E-01  0.3481486E+00
         13   -1    0    0    0    0  0.00000000000E+00  0.00000000000E+00  0.14999999963E+04  0.15000000000E+04  0.10566000000E+00 0. -1.
        994   -1    0    0    0    0 -0.00000000000E+00 -0.00000000000E+00  0.11368683772E-12  0.17120000000E+03  0.17120000000E+03 0.  0.
         13    1    1    2    0    0  0.23151133519E+02  0.21702176424E+02  0.37430069492E+02  0.49071180044E+02  0.10566000000E+00 0. -1.
        994    1    1    2    0    0 -0.69793699769E+01  0.16697592346E+02  0.13779064292E+02  0.17270444062E+03  0.17120000000E+03 0.  0.
        998    1    1    2    0    0 -0.16171763543E+02 -0.38399768770E+02  0.14487908625E+04  0.14494243793E+04  0.10000000000E+02 0. -1.
</event>
<event>
 5    1  0.1535793E-008  0.3636243E+03  0.7957747E-01  0.3525715E+00
         13   -1    0    0    0    0  0.00000000000E+00  0.00000000000E+00  0.14999999963E+04  0.15000000000E+04  0.10566000000E+00 0.  1.
        994   -1    0    0    0    0 -0.00000000000E+00 -0.00000000000E+00  0.11368683772E-12  0.17120000000E+03  0.17120000000E+03 0.  0.
         13    1    1    2    0    0 -0.20372228526E+03 -0.24609999508E+03  0.53887548478E+03  0.62646211087E+03  0.10566000000E+00 0.  1.
        994    1    1    2    0    0  0.19560332558E+03  0.25241187738E+03  0.74804168390E+03  0.83117279652E+03  0.17120000000E+03 0.  0.
        998    1    1    2    0    0  0.81189596836E+01 -0.63118822978E+01  0.21308282760E+03  0.21356509261E+03  0.10000000000E+02 0.  0.
</event>
<event>
 5    1  0.1535793E-008  0.3774177E+03  0.7957747E-01  0.3462480E+00
         13   -1    0    0    0    0  0.00000000000E+00  0.00000000000E+00  0.14999999963E+04  0.15000000000E+04  0.10566000000E+00 0. -1.
        994   -1    0    0    0    0 -0.00000000000E+00 -0.00000000000E+00  0.11368683772E-12  0.17120000000E+03  0.17120000000E+03 0.  0.
         13    1    1    2    0    0  0.18178275672E+02  0.44014919316E+02  0.17595606035E+03  0.18228633840E+03  0.10566000000E+00 0. -1.
        994    1    1    2    0    0 -0.23497330176E+02 -0.49201345643E+02  0.15532574126E+02  0.18034300041E+03  0.17120000000E+03 0.  0.
        998    1    1    2    0    0  0.53190545038E+01  0.51864263275E+01  0.13085113618E+04  0.13085706612E+04  0.10000000000E+02 0. -1.
</event>
<event>
 5    1  0.1535793E-008  0.3855496E+03  0.7957747E-01  0.3427345E+00
         13   -1    0    0    0    0  0.00000000000E+00  0.00000000000E+00  0.14999999963E+04  0.15000000000E+04  0.10566000000E+00 0. -1.
        994   -1    0    0    0    0 -0.00000000000E+00 -0.00000000000E+00  0.11368683772E-12  0.17120000000E+03  0.17120000000E+03 0.  0.
         13    1    1    2    0    0  0.69580753221E+01 -0.10041754572E+02  0.51556530450E+02  0.52984324504E+02  0.10566000000E+00 0. -1.
        994    1    1    2    0    0 -0.17216818219E+02  0.11956302523E+02  0.28012278227E+01  0.17250118515E+03  0.17120000000E+03 0.  0.
        998    1    1    2    0    0  0.10258742897E+02 -0.19145479508E+01  0.14456422380E+04  0.14457144903E+04  0.10000000000E+02 0. -1.
</event>
<event>
 5    1  0.1535793E-008  0.3832481E+03  0.7957747E-01  0.3437136E+00
         13   -1    0    0    0    0  0.00000000000E+00  0.00000000000E+00  0.14999999963E+04  0.15000000000E+04  0.10566000000E+00 0.  1.
        994   -1    0    0    0    0 -0.00000000000E+00 -0.00000000000E+00  0.11368683772E-12  0.17120000000E+03  0.17120000000E+03 0.  0.
         13    1    1    2    0    0  0.63280877507E+02  0.49029587657E+02  0.17524935370E+03  0.19266737414E+03  0.10566000000E+00 0.  1.
        994    1    1    2    0    0 -0.32952891004E+02 -0.30891965225E+02  0.25642547890E+02  0.17890552480E+03  0.17120000000E+03 0.  0.
        998    1    1    2    0    0 -0.30327986503E+02 -0.18137622432E+02  0.12991080947E+04  0.12996271011E+04  0.10000000000E+02 0.  1.
</event>
<event>
 5    1  0.1535793E-008  0.3747996E+03  0.7957747E-01  0.3474120E+00
         13   -1    0    0    0    0  0.00000000000E+00  0.00000000000E+00  0.14999999963E+04  0.15000000000E+04  0.10566000000E+00 0.  1.
        994   -1    0    0    0    0 -0.00000000000E+00 -0.00000000000E+00  0.11368683772E-12  0.17120000000E+03  0.17120000000E+03 0.  0.
         13    1    1    2    0    0 -0.14532795263E+02 -0.27675294824E+02  0.30638233770E+02  0.43770270897E+02  0.10566000000E+00 0.  1.
        994    1    1    2    0    0  0.14946971046E+02  0.19557216655E+02  0.15656865204E+02  0.17366771172E+03  0.17120000000E+03 0.  0.
        998    1    1    2    0    0 -0.41417578363E+00  0.81180781695E+01  0.14537048973E+04  0.14537620174E+04  0.10000000000E+02 0.  1.
</event>
<event>
 5    1  0.1535793E-008  0.3827608E+03  0.7957747E-01  0.3439225E+00
         13   -1    0    0    0    0  0.00000000000E+00  0.00000000000E+00  0.14999999963E+04  0.15000000000E+04  0.10566000000E+00 0.  1.
        994   -1    0    0    0    0 -0.00000000000E+00 -0.00000000000E+00  0.11368683772E-12  0.17120000000E+03  0.17120000000E+03 0.  0.
         13    1    1    2    0    0 -0.12980392848E+02 -0.11122651672E+02  0.52250181381E+02  0.54975418117E+02  0.10566000000E+00 0.  1.
        994    1    1    2    0    0  0.41318623941E+01  0.13139325023E+02  0.33746890230E+01  0.17178632854E+03  0.17120000000E+03 0.  0.
        998    1    1    2    0    0  0.88485304540E+01 -0.20166733504E+01  0.14443751259E+04  0.14444382533E+04  0.10000000000E+02 0.  1.
</event>
<event>
 5    1  0.1535793E-008  0.3839575E+03  0.7957747E-01  0.3434106E+00
         13   -1    0    0    0    0  0.00000000000E+00  0.00000000000E+00  0.14999999963E+04  0.15000000000E+04  0.10566000000E+00 0. -1.
        994   -1    0    0    0    0 -0.00000000000E+00 -0.00000000000E+00  0.11368683772E-12  0.17120000000E+03  0.17120000000E+03 0.  0.
         13    1    1    2    0    0 -0.65427772581E+01 -0.10860612796E+02  0.35878757871E+02  0.38053347749E+02  0.10566000000E+00 0. -1.
        994    1    1    2    0    0  0.73404929500E+01  0.13010807081E+02  0.28853516197E+01  0.17187474856E+03  0.17120000000E+03 0.  0.
        998    1    1    2    0    0 -0.79771569198E+00 -0.21501942845E+01  0.14612358868E+04  0.14612719037E+04  0.10000000000E+02 0. -1.
</event>
<event>
 5    1  0.1535793E-008  0.3788453E+03  0.7957747E-01  0.3456202E+00
         13   -1    0    0    0    0  0.00000000000E+00  0.00000000000E+00  0.14999999963E+04  0.15000000000E+04  0.10566000000E+00 0.  1.
        994   -1    0    0    0    0 -0.00000000000E+00 -0.00000000000E+00  0.11368683772E-12  0.17120000000E+03  0.17120000000E+03 0.  0.
         13    1    1    2    0    0 -0.85936123882E+02  0.10994468333E+03  0.83078741307E+03  0.84242541964E+03  0.10566000000E+00 0.  1.
        994    1    1    2    0    0  0.84495639170E+02 -0.11186499480E+03  0.73777387150E+02  0.23325057975E+03  0.17120000000E+03 0.  0.
        998    1    1    2    0    0  0.14404847118E+01  0.19203114642E+01  0.59543519606E+03  0.59552400061E+03  0.10000000000E+02 0.  0.
</event>
<event>
 5    1  0.1535793E-008  0.3842366E+03  0.7957747E-01  0.3432917E+00
         13   -1    0    0    0    0  0.00000000000E+00  0.00000000000E+00  0.14999999963E+04  0.15000000000E+04  0.10566000000E+00 0.  1.
        994   -1    0    0    0    0 -0.00000000000E+00 -0.00000000000E+00  0.11368683772E-12  0.17120000000E+03  0.17120000000E+03 0.  0.
         13    1    1    2    0    0  0.21308083080E+01  0.15313266843E+02  0.58047086794E+02  0.60070890910E+02  0.10566000000E+00 0.  1.
        994    1    1    2    0    0 -0.82198613088E+01 -0.12566306087E+02  0.27533592154E+01  0.17187931567E+03  0.17120000000E+03 0.  0.
        998    1    1    2    0    0  0.60890530008E+01 -0.27469607567E+01  0.14391995503E+04  0.14392497934E+04  0.10000000000E+02 0.  1.
</event>
<event>
 5    1  0.1535793E-008  0.3838978E+03  0.7957747E-01  0.3434360E+00
         13   -1    0    0    0    0  0.00000000000E+00  0.00000000000E+00  0.14999999963E+04  0.15000000000E+04  0.10566000000E+00 0. -1.
        994   -1    0    0    0    0 -0.00000000000E+00 -0.00000000000E+00  0.11368683772E-12  0.17120000000E+03  0.17120000000E+03 0.  0.
         13    1    1    2    0    0  0.28989373395E+02 -0.11289297866E+01  0.16913389808E+03  0.17160403520E+03  0.10566000000E+00 0. -1.
        994    1    1    2    0    0 -0.31839137696E+02  0.53034178363E+01  0.56245053251E+01  0.17430700499E+03  0.17120000000E+03 0.  0.
        998    1    1    2    0    0  0.28497643005E+01 -0.41744880497E+01  0.13252415929E+04  0.13252889598E+04  0.10000000000E+02 0. -1.
</event>
<event>
 5    1  0.1535793E-008  0.3861137E+03  0.7957747E-01  0.3424963E+00
         13   -1    0    0    0    0  0.00000000000E+00  0.00000000000E+00  0.14999999963E+04  0.15000000000E+04  0.10566000000E+00 0.  1.
        994   -1    0    0    0    0 -0.00000000000E+00 -0.00000000000E+00  0.11368683772E-12  0.17120000000E+03  0.17120000000E+03 0.  0.
         13    1    1    2    0    0  0.54975013344E+01 -0.92384356306E+01  0.54666151523E+02  0.55713288363E+02  0.10566000000E+00 0.  1.
        994    1    1    2    0    0 -0.32181048967E+01  0.54904298485E+01  0.12109427102E+01  0.17132252450E+03  0.17120000000E+03 0.  0.
        998    1    1    2    0    0 -0.22793964377E+01  0.37480057821E+01  0.14441229020E+04  0.14441641871E+04  0.10000000000E+02 0.  1.
</event>
<event>
 5    1  0.1535793E-008  0.3842881E+03  0.7957747E-01  0.3432697E+00
         13   -1    0    0    0    0  0.00000000000E+00  0.00000000000E+00  0.14999999963E+04  0.15000000000E+04  0.10566000000E+00 0. -1.
        994   -1    0    0    0    0 -0.00000000000E+00 -0.00000000000E+00  0.11368683772E-12  0.17120000000E+03  0.17120000000E+03 0.  0.
         13    1    1    2    0    0 -0.11918705935E+02 -0.14226681983E+02  0.85910111542E+02  0.87892050043E+02  0.10566000000E+00 0. -1.
        994    1    1    2    0    0  0.11528378855E+02  0.72013472438E+01  0.25932357400E+01  0.17175834126E+03  0.17120000000E+03 0.  0.
        998    1    1    2    0    0  0.39032707982E+00  0.70253347396E+01  0.14114966490E+04  0.14115496087E+04  0.10000000000E+02 0. -1.
</event>
<event>
 5    1  0.1535793E-008  0.3889426E+03  0.7957747E-01  0.3413121E+00
         13   -1    0    0    0    0  0.00000000000E+00  0.00000000000E+00  0.14999999963E+04  0.15000000000E+04  0.10566000000E+00 0.  1.
        994   -1    0    0    0    0 -0.00000000000E+00 -0.00000000000E+00  0.11368683772E-12  0.17120000000E+03  0.17120000000E+03 0.  0.
         13    1    1    2    0    0  0.22005234351E+02  0.10356618004E+03  0.29919809145E+03  0.31737941502E+03  0.10566000000E+00 0.  1.
        994    1    1    2    0    0 -0.62802739942E+02 -0.22806776561E+02  0.38255774848E+02  0.18771594900E+03  0.17120000000E+03 0.  0.
        998    1    1    2    0    0  0.40797505592E+02 -0.80759403477E+02  0.11625461300E+04  0.11661046360E+04  0.10000000000E+02 0.  1.
</event>
<event>
 5    1  0.1535793E-008  0.3851420E+03  0.7957747E-01  0.3429070E+00
         13   -1    0    0    0    0  0.00000000000E+00  0.00000000000E+00  0.14999999963E+04  0.15000000000E+04  0.10566000000E+00 0. -1.
        994   -1    0    0    0    0 -0.00000000000E+00 -0.00000000000E+00  0.11368683772E-12  0.17120000000E+03  0.17120000000E+03 0.  0.
         13    1    1    2    0    0 -0.45254623481E+01 -0.15178258709E+02  0.82107282011E+02  0.83621027679E+02  0.10566000000E+00 0. -1.
        994    1    1    2    0    0  0.91423074380E+01  0.53821998855E+01  0.19297124767E+01  0.17153924814E+03  0.17120000000E+03 0.  0.
        998    1    1    2    0    0 -0.46168450899E+01  0.97960588238E+01  0.14159630018E+04  0.14160397242E+04  0.10000000000E+02 0. -1.
</event>
<event>
 5    1  0.1535793E-008  0.3795037E+03  0.7957747E-01  0.3453323E+00
         13   -1    0    0    0    0  0.00000000000E+00  0.00000000000E+00  0.14999999963E+04  0.15000000000E+04  0.10566000000E+00 0.  1.
        994   -1    0    0    0    0 -0.00000000000E+00 -0.00000000000E+00  0.11368683772E-12  0.17120000000E+03  0.17120000000E+03 0.  0.
         13    1    1    2    0    0 -0.99638376596E+01 -0.29221306737E+02  0.10253543936E+03  0.10708263313E+03  0.10566000000E+00 0.  1.
        994    1    1    2    0    0 -0.22740431128E+01  0.29918370527E+02  0.74042776899E+01  0.17396707589E+03  0.17120000000E+03 0.  0.
        998    1    1    2    0    0  0.12237880772E+02 -0.69706379041E+00  0.13900602792E+04  0.13901502910E+04  0.10000000000E+02 0.  1.
</event>
<event>
 5    1  0.1535793E-008  0.3799161E+03  0.7957747E-01  0.3451524E+00
         13   -1    0    0    0    0  0.00000000000E+00  0.00000000000E+00  0.14999999963E+04  0.15000000000E+04  0.10566000000E+00 0. -1.
        994   -1    0    0    0    0 -0.00000000000E+00 -0.00000000000E+00  0.11368683772E-12  0.17120000000E+03  0.17120000000E+03 0.  0.
         13    1    1    2    0    0 -0.18387895139E+02  0.66566335670E+02  0.13360158225E+03  0.15039476612E+03  0.10566000000E+00 0. -1.
        994    1    1    2    0    0  0.81556202643E+02 -0.39446513017E+02  0.46651924301E+02  0.19923173347E+03  0.17120000000E+03 0.  0.
        998    1    1    2    0    0 -0.63168307504E+02 -0.27119822653E+02  0.13197464897E+04  0.13215735004E+04  0.10000000000E+02 0. -1.
</event>
<event>
 5    1  0.1535793E-008  0.3792094E+03  0.7957747E-01  0.3454608E+00
         13   -1    0    0    0    0  0.00000000000E+00  0.00000000000E+00  0.14999999963E+04  0.15000000000E+04  0.10566000000E+00 0. -1.
        994   -1    0    0    0    0 -0.00000000000E+00 -0.00000000000E+00  0.11368683772E-12  0.17120000000E+03  0.17120000000E+03 0.  0.
         13    1    1    2    0    0 -0.75455554372E+01  0.43566743591E+02  0.26326232431E+03  0.26694954414E+03  0.10566000000E+00 0. -1.
        994    1    1    2    0    0  0.81410774191E+01 -0.69710422774E-01  0.47549614262E+01  0.17145941695E+03  0.17120000000E+03 0.  0.
        998    1    1    2    0    0 -0.59552198189E+00 -0.43497033168E+02  0.12319827105E+04  0.12327910389E+04  0.10000000000E+02 0. -1.
</event>
<event>
 5    1  0.1535793E-008  0.3837983E+03  0.7957747E-01  0.3434785E+00
         13   -1    0    0    0    0  0.00000000000E+00  0.00000000000E+00  0.14999999963E+04  0.15000000000E+04  0.10566000000E+00 0.  1.
        994   -1    0    0    0    0 -0.00000000000E+00 -0.00000000000E+00  0.11368683772E-12  0.17120000000E+03  0.17120000000E+03 0.  0.
         13    1    1    2    0    0  0.13038495423E+02  0.11953420138E+01  0.37240627829E+02  0.39475393989E+02  0.10566000000E+00 0.  1.
        994    1    1    2    0    0 -0.12693968671E+02 -0.19248735361E+01  0.27723710558E+01  0.17170313923E+03  0.17120000000E+03 0.  0.
        998    1    1    2    0    0 -0.34452675214E+00  0.72953152237E+00  0.14599869974E+04  0.14600214668E+04  0.10000000000E+02 0.  1.
</event>
<event>
 5    1  0.1535793E-008  0.3860067E+03  0.7957747E-01  0.3425414E+00
         13   -1    0    0    0    0  0.00000000000E+00  0.00000000000E+00  0.14999999963E+04  0.15000000000E+04  0.10566000000E+00 0.  1.
        994   -1    0    0    0    0 -0.00000000000E+00 -0.00000000000E+00  0.11368683772E-12  0.17120000000E+03  0.17120000000E+03 0.  0.
         13    1    1    2    0    0  0.96756201718E+01  0.71724784024E+01  0.65682623463E+02  0.66777842592E+02  0.10566000000E+00 0.  1.
        994    1    1    2    0    0 -0.31503661998E+01 -0.65338208818E+01  0.13036620804E+01  0.17135855729E+03  0.17120000000E+03 0.  0.
        998    1    1    2    0    0 -0.65252539720E+01 -0.63865752054E+00  0.14330137107E+04  0.14330636001E+04  0.10000000000E+02 0.  1.
</event>
<event>
 5    1  0.1535793E-008  0.3774900E+03  0.7957747E-01  0.3462161E+00
         13   -1    0    0    0    0  0.00000000000E+00  0.00000000000E+00  0.14999999963E+04  0.15000000000E+04  0.10566000000E+00 0. -1.
        994   -1    0    0    0    0 -0.00000000000E+00 -0.00000000000E+00  0.11368683772E-12  0.17120000000E+03  0.17120000000E+03 0.  0.
         13    1    1    2    0    0 -0.34433366499E+02  0.22440906520E+01  0.33884204046E+02  0.48361587227E+02  0.10566000000E+00 0. -1.
        994    1    1    2    0    0  0.26054396770E+02  0.12520193657E+02  0.17961199588E+02  0.17454979671E+03  0.17120000000E+03 0.  0.
        998    1    1    2    0    0  0.83789697289E+01 -0.14764284309E+02  0.14481545926E+04  0.14482886161E+04  0.10000000000E+02 0. -1.
</event>
<event>
 5    1  0.1535793E-008  0.3835732E+03  0.7957747E-01  0.3435746E+00
         13   -1    0    0    0    0  0.00000000000E+00  0.00000000000E+00  0.14999999963E+04  0.15000000000E+04  0.10566000000E+00 0. -1.
        994   -1    0    0    0    0 -0.00000000000E+00 -0.00000000000E+00  0.11368683772E-12  0.17120000000E+03  0.17120000000E+03 0.  0.
         13    1    1    2    0    0 -0.14498173277E+01  0.19762636303E+02  0.87056211889E+02  0.89283027258E+02  0.10566000000E+00 0. -1.
        994    1    1    2    0    0 -0.21277723956E+01 -0.57128260046E+01  0.24629780468E+01  0.17132620949E+03  0.17120000000E+03 0.  0.
        998    1    1    2    0    0  0.35775897233E+01 -0.14049810298E+02  0.14104808063E+04  0.14105907633E+04  0.10000000000E+02 0. -1.
</event>
<event>
 5    1  0.1535793E-008  0.3732500E+03  0.7957747E-01  0.3481087E+00
         13   -1    0    0    0    0  0.00000000000E+00  0.00000000000E+00  0.14999999963E+04  0.15000000000E+04  0.10566000000E+00 0.  1.
        994   -1    0    0    0    0 -0.00000000000E+00 -0.00000000000E+00  0.11368683772E-12  0.17120000000E+03  0.17120000000E+03 0.  0.
         13    1    1    2    0    0  0.19936417624E+02 -0.10327464753E+03  0.45119060793E+03  0.46328834371E+03  0.10566000000E+00 0.  1.
        994    1    1    2    0    0 -0.37148498283E+02  0.11041915287E+03  0.55514271043E+02  0.21439140499E+03  0.17120000000E+03 0.  0.
        998    1    1    2    0    0  0.17212080659E+02 -0.71445053399E+01  0.99329511731E+03  0.99352025130E+03  0.10000000000E+02 0.  1.
</event>
<event>
 5    1  0.1535793E-008  0.3706277E+03  0.7957747E-01  0.3493011E+00
         13   -1    0    0    0    0  0.00000000000E+00  0.00000000000E+00  0.14999999963E+04  0.15000000000E+04  0.10566000000E+00 0.  1.
        994   -1    0    0    0    0 -0.00000000000E+00 -0.00000000000E+00  0.11368683772E-12  0.17120000000E+03  0.17120000000E+03 0.  0.
         13    1    1    2    0    0  0.39433735034E+02 -0.19578187497E+01  0.78188989523E+02  0.87592132978E+02  0.10566000000E+00 0.  1.
        994    1    1    2    0    0 -0.46058644916E+02 -0.41693801292E+01  0.16356905571E+02  0.17808922163E+03  0.17120000000E+03 0.  0.
        998    1    1    2    0    0  0.66249098815E+01  0.61271988788E+01  0.14054541012E+04  0.14055186454E+04  0.10000000000E+02 0.  1.
</event>
<event>
 5    1  0.1535793E-008  0.3801439E+03  0.7957747E-01  0.3450532E+00
         13   -1    0    0    0    0  0.00000000000E+00  0.00000000000E+00  0.14999999963E+04  0.15000000000E+04  0.10566000000E+00 0.  1.
        994   -1    0    0    0    0 -0.00000000000E+00 -0.00000000000E+00  0.11368683772E-12  0.17120000000E+03  0.17120000000E+03 0.  0.
         13    1    1    2    0    0  0.40619954629E+02  0.26137046830E+02  0.24804829930E+03  0.25270753032E+03  0.10566000000E+00 0.  1.
        994    1    1    2    0    0 -0.42943314559E+02 -0.16447300975E+02  0.11158789149E+02  0.17761925726E+03  0.17120000000E+03 0.  0.
        998    1    1    2    0    0  0.23233599300E+01 -0.96897458546E+01  0.12407929078E+04  0.12408732124E+04  0.10000000000E+02 0.  1.
</event>
<event>
 5    1  0.1535793E-008  0.4075229E+03  0.7957747E-01  0.3339428E+00
         13   -1    0    0    0    0  0.00000000000E+00  0.00000000000E+00  0.14999999963E+04  0.15000000000E+04  0.10566000000E+00 0.  1.
        994   -1    0    0    0    0 -0.00000000000E+00 -0.00000000000E+00  0.11368683772E-12  0.17120000000E+03  0.17120000000E+03 0.  0.
         13    1    1    2    0    0  0.19240545655E+02 -0.19022254679E+02 -0.23064519682E+01  0.27154661753E+02  0.10566000000E+00 0.  1.
        994    1    1    2    0    0 -0.24403282800E+02  0.40311472556E+01  0.34830104860E+02  0.17644927476E+03  0.17120000000E+03 0.  0.
        998    1    1    2    0    0  0.51627371444E+01  0.14991107424E+02  0.14674763434E+04  0.14675960635E+04  0.10000000000E+02 0.  1.
</event>
<event>
 5    1  0.1535793E-008  0.3863853E+03  0.7957747E-01  0.3423818E+00
         13   -1    0    0    0    0  0.00000000000E+00  0.00000000000E+00  0.14999999963E+04  0.15000000000E+04  0.10566000000E+00 0. -1.
        994   -1    0    0    0    0 -0.00000000000E+00 -0.00000000000E+00  0.11368683772E-12  0.17120000000E+03  0.17120000000E+03 0.  0.
         13    1    1    2    0    0  0.88781285252E+01  0.48872488032E+01  0.52443820245E+02  0.53414153676E+02  0.10566000000E+00 0. -1.
        994    1    1    2    0    0 -0.14489222350E+02 -0.36761231428E+01  0.16758401800E+01  0.17185953534E+03  0.17120000000E+03 0.  0.
        998    1    1    2    0    0  0.56110938245E+01 -0.12111256604E+01  0.14458803359E+04  0.14459263110E+04  0.10000000000E+02 0. -1.
</event>
<event>
 5    1  0.1535793E-008  0.3809613E+03  0.7957747E-01  0.3446983E+00
         13   -1    0    0    0    0  0.00000000000E+00  0.00000000000E+00  0.14999999963E+04  0.15000000000E+04  0.10566000000E+00 0. -1.
        994   -1    0    0    0    0 -0.00000000000E+00 -0.00000000000E+00  0.11368683772E-12  0.17120000000E+03  0.17120000000E+03 0.  0.
         13    1    1    2    0    0 -0.60443941289E+01  0.38184804823E+02  0.20246984015E+03  0.20612777919E+03  0.10566000000E+00 0. -1.
        994    1    1    2    0    0  0.15863937595E+02 -0.21061050684E+02  0.59688540228E+01  0.17332137661E+03  0.17120000000E+03 0.  0.
        998    1    1    2    0    0 -0.98195434666E+01 -0.17123754138E+02  0.12915613021E+04  0.12917508442E+04  0.10000000000E+02 0. -1.
</event>
<event>
 5    1  0.1854045E-008  0.3858572E+03  0.7957747E-01  0.3426045E+00
         13   -1    0    0    0    0  0.00000000000E+00  0.00000000000E+00  0.14999999963E+04  0.15000000000E+04  0.10566000000E+00 0.  1.
        994   -1    0    0    0    0 -0.00000000000E+00 -0.00000000000E+00  0.11368683772E-12  0.17120000000E+03  0.17120000000E+03 0.  0.
         13    1    1    2    0    0 -0.70443260691E+01  0.80949755408E+01  0.48150695092E+02  0.49332056117E+02  0.10566000000E+00 0.  1.
        994    1    1    2    0    0  0.64381368022E+01 -0.42771676141E+01  0.14011039520E+01  0.17138012388E+03  0.17120000000E+03 0.  0.
        998    1    1    2    0    0  0.60618926684E+00 -0.38178079267E+01  0.14504481972E+04  0.14504878200E+04  0.10000000000E+02 0.  1.
</event>
<event>
 5    1  0.1535793E-008  0.3755528E+03  0.7957747E-01  0.3470754E+00
         13   -1    0    0    0    0  0.00000000000E+00  0.00000000000E+00  0.14999999963E+04  0.15000000000E+04  0.10566000000E+00 0. -1.
        994   -1    0    0    0    0 -0.00000000000E+00 -0.00000000000E+00  0.11368683772E-12  0.17120000000E+03  0.17120000000E+03 0.  0.
         13    1    1    2    0    0  0.27453926147E+02 -0.10447627154E+02  0.66253748214E+02  0.72473728278E+02  0.10566000000E+00 0. -1.
        994    1    1    2    0    0 -0.18331192242E+02 -0.95370603695E+01  0.78451563134E+01  0.17262089852E+03  0.17120000000E+03 0.  0.
        998    1    1    2    0    0 -0.91227339052E+01  0.19984687523E+02  0.14259010918E+04  0.14261053732E+04  0.10000000000E+02 0. -1.
</event>
<event>
 5    1  0.1535793E-008  0.3846780E+03  0.7957747E-01  0.3431039E+00
         13   -1    0    0    0    0  0.00000000000E+00  0.00000000000E+00  0.14999999963E+04  0.15000000000E+04  0.10566000000E+00 0. -1.
        994   -1    0    0    0    0 -0.00000000000E+00 -0.00000000000E+00  0.11368683772E-12  0.17120000000E+03  0.17120000000E+03 0.  0.
         13    1    1    2    0    0 -0.13192341935E+02  0.70526994472E+01  0.54515616379E+02  0.56530894637E+02  0.10566000000E+00 0. -1.
        994    1    1    2    0    0  0.32281928430E+02 -0.12705068940E+02  0.57623172871E+01  0.17477467202E+03  0.17120000000E+03 0.  0.
        998    1    1    2    0    0 -0.19089586495E+02  0.56523694931E+01  0.14397220626E+04  0.14398944333E+04  0.10000000000E+02 0. -1.
</event>
<event>
 5    1  0.1535793E-008  0.3863570E+03  0.7957747E-01  0.3423937E+00
         13   -1    0    0    0    0  0.00000000000E+00  0.00000000000E+00  0.14999999963E+04  0.15000000000E+04  0.10566000000E+00 0.  1.
        994   -1    0    0    0    0 -0.00000000000E+00 -0.00000000000E+00  0.11368683772E-12  0.17120000000E+03  0.17120000000E+03 0.  0.
         13    1    1    2    0    0  0.75354205751E+01 -0.77152293429E+01  0.62373513593E+02  0.63299081266E+02  0.10566000000E+00 0.  1.
        994    1    1    2    0    0 -0.97226370629E-01  0.85730266473E+01  0.11986217188E+01  0.17141873565E+03  0.17120000000E+03 0.  0.
        998    1    1    2    0    0 -0.74381942045E+01 -0.85779730438E+00  0.14364278610E+04  0.14364821831E+04  0.10000000000E+02 0.  1.
</event>
<event>
 5    1  0.1535793E-008  0.3689792E+03  0.7957747E-01  0.3500596E+00
         13   -1    0    0    0    0  0.00000000000E+00  0.00000000000E+00  0.14999999963E+04  0.15000000000E+04  0.10566000000E+00 0. -1.
        994   -1    0    0    0    0 -0.00000000000E+00 -0.00000000000E+00  0.11368683772E-12  0.17120000000E+03  0.17120000000E+03 0.  0.
         13    1    1    2    0    0 -0.17338297508E+02 -0.28465194467E+02  0.50722413479E+02  0.60693148293E+02  0.10566000000E+00 0. -1.
        994    1    1    2    0    0  0.26350096735E+02 -0.84962775996E+00  0.12825062315E+02  0.17369217509E+03  0.17120000000E+03 0.  0.
        998    1    1    2    0    0 -0.90117992267E+01  0.29314822227E+02  0.14364525205E+04  0.14368146766E+04  0.10000000000E+02 0. -1.
</event>
<event>
 5    1  0.1535793E-008  0.3703144E+03  0.7957747E-01  0.3494447E+00
         13   -1    0    0    0    0  0.00000000000E+00  0.00000000000E+00  0.14999999963E+04  0.15000000000E+04  0.10566000000E+00 0.  1.
        994   -1    0    0    0    0 -0.00000000000E+00 -0.00000000000E+00  0.11368683772E-12  0.17120000000E+03  0.17120000000E+03 0.  0.
         13    1    1    2    0    0 -0.62733599921E+01  0.16712582727E+02  0.14715923083E+02  0.23135146925E+02  0.10566000000E+00 0.  1.
        994    1    1    2    0    0 -0.17650937157E+02  0.20984316686E+02  0.11706156146E+02  0.17377678562E+03  0.17120000000E+03 0.  0.
        998    1    1    2    0    0  0.23924297149E+02 -0.37696899413E+02  0.14735779170E+04  0.14742880675E+04  0.10000000000E+02 0.  1.
</event>
<event>
 5    1  0.1535793E-008  0.3761849E+03  0.7957747E-01  0.3467940E+00
         13   -1    0    0    0    0  0.00000000000E+00  0.00000000000E+00  0.14999999963E+04  0.15000000000E+04  0.10566000000E+00 0. -1.
        994   -1    0    0    0    0 -0.00000000000E+00 -0.00000000000E+00  0.11368683772E-12  0.17120000000E+03  0.17120000000E+03 0.  0.
         13    1    1    2    0    0 -0.26669041736E+02 -0.73988132012E+01  0.60608199909E+02  0.66628411989E+02  0.10566000000E+00 0. -1.
        994    1    1    2    0    0  0.18032972949E+02  0.45580904859E+01  0.72437023716E+01  0.17235972710E+03  0.17120000000E+03 0.  0.
        998    1    1    2    0    0  0.86360687879E+01  0.28407227153E+01  0.14321480940E+04  0.14322118609E+04  0.10000000000E+02 0. -1.
</event>
<event>
 5    1  0.1535793E-008  0.3728756E+03  0.7957747E-01  0.3482779E+00
         13   -1    0    0    0    0  0.00000000000E+00  0.00000000000E+00  0.14999999963E+04  0.15000000000E+04  0.10566000000E+00 0. -1.
        994   -1    0    0    0    0 -0.00000000000E+00 -0.00000000000E+00  0.11368683772E-12  0.17120000000E+03  0.17120000000E+03 0.  0.
         13    1    1    2    0    0 -0.23774666727E+02 -0.21625482616E+02  0.64889166096E+02  0.72412093721E+02  0.10566000000E+00 0. -1.
        994    1    1    2    0    0  0.14738430554E+02  0.50755196804E+01  0.86060527616E+01  0.17212346261E+03  0.17120000000E+03 0.  0.
        998    1    1    2    0    0  0.90362361723E+01  0.16549962936E+02  0.14265047774E+04  0.14266644437E+04  0.10000000000E+02 0. -1.
</event>
<event>
 5    1  0.1535793E-008  0.3800637E+03  0.7957747E-01  0.3450881E+00
         13   -1    0    0    0    0  0.00000000000E+00  0.00000000000E+00  0.14999999963E+04  0.15000000000E+04  0.10566000000E+00 0. -1.
        994   -1    0    0    0    0 -0.00000000000E+00 -0.00000000000E+00  0.11368683772E-12  0.17120000000E+03  0.17120000000E+03 0.  0.
         13    1    1    2    0    0  0.14034994711E+02  0.21272422149E+02  0.10195234432E+03  0.10508943190E+03  0.10566000000E+00 0. -1.
        994    1    1    2    0    0  0.16452790674E+02  0.30081214725E+02  0.80400060843E+01  0.17478459743E+03  0.17120000000E+03 0.  0.
        998    1    1    2    0    0 -0.30487785385E+02 -0.51353636873E+02  0.13900076459E+04  0.13913259707E+04  0.10000000000E+02 0. -1.
</event>
<event>
 5    1  0.1535793E-008  0.3855590E+03  0.7957747E-01  0.3427305E+00
         13   -1    0    0    0    0  0.00000000000E+00  0.00000000000E+00  0.14999999963E+04  0.15000000000E+04  0.10566000000E+00 0. -1.
        994   -1    0    0    0    0 -0.00000000000E+00 -0.00000000000E+00  0.11368683772E-12  0.17120000000E+03  0.17120000000E+03 0.  0.
         13    1    1    2    0    0 -0.95249223557E+01 -0.37852464941E+01  0.41897625965E+02  0.43133217622E+02  0.10566000000E+00 0. -1.
        994    1    1    2    0    0 -0.44624072551E+01 -0.46497330923E+01  0.14892184630E+01  0.17132772942E+03  0.17120000000E+03 0.  0.
        998    1    1    2    0    0  0.13987329611E+02  0.84349795863E+01  0.14566131519E+04  0.14567390530E+04  0.10000000000E+02 0. -1.
</event>
<event>
 5    1  0.1535793E-008  0.3836155E+03  0.7957747E-01  0.3435565E+00
         13   -1    0    0    0    0  0.00000000000E+00  0.00000000000E+00  0.14999999963E+04  0.15000000000E+04  0.10566000000E+00 0.  1.
        994   -1    0    0    0    0 -0.00000000000E+00 -0.00000000000E+00  0.11368683772E-12  0.17120000000E+03  0.17120000000E+03 0.  0.
         13    1    1    2    0    0  0.14583545516E+02 -0.34044018073E+01  0.45430855376E+02  0.47835588590E+02  0.10566000000E+00 0.  1.
        994    1    1    2    0    0 -0.20330384063E+02  0.48205486855E+01  0.37625965335E+01  0.17251133104E+03  0.17120000000E+03 0.  0.
        998    1    1    2    0    0  0.57468385462E+01 -0.14161468781E+01  0.14508065444E+04  0.14508530804E+04  0.10000000000E+02 0.  1.
</event>
<event>
 5    1  0.1535793E-008  0.3829538E+03  0.7957747E-01  0.3438397E+00
         13   -1    0    0    0    0  0.00000000000E+00  0.00000000000E+00  0.14999999963E+04  0.15000000000E+04  0.10566000000E+00 0.  1.
        994   -1    0    0    0    0 -0.00000000000E+00 -0.00000000000E+00  0.11368683772E-12  0.17120000000E+03  0.17120000000E+03 0.  0.
         13    1    1    2    0    0 -0.39514373690E+01 -0.12506997046E+02  0.31166940264E+02  0.33814614619E+02  0.10566000000E+00 0.  1.
        994    1    1    2    0    0  0.93825803334E+01  0.10144173744E+02  0.32818441997E+01  0.17178808916E+03  0.17120000000E+03 0.  0.
        998    1    1    2    0    0 -0.54311429644E+01  0.23628233023E+01  0.14655512118E+04  0.14655972962E+04  0.10000000000E+02 0.  1.
</event>
<event>
 5    1  0.1727836E-008  0.3849463E+03  0.7957747E-01  0.3429900E+00
         13   -1    0    0    0    0  0.00000000000E+00  0.00000000000E+00  0.14999999963E+04  0.15000000000E+04  0.10566000000E+00 0. -1.
        994   -1    0    0    0    0 -0.00000000000E+00 -0.00000000000E+00  0.11368683772E-12  0.17120000000E+03  0.17120000000E+03 0.  0.
         13    1    1    2    0    0 -0.58296422600E+01 -0.13754158186E+02  0.64205395445E+02  0.65920448758E+02  0.10566000000E+00 0. -1.
        994    1    1    2    0    0  0.74203097200E+01  0.15880748130E+02  0.26681094062E+01  0.17211571098E+03  0.17120000000E+03 0.  0.
        998    1    1    2    0    0 -0.15906674600E+01 -0.21265899444E+01  0.14331264914E+04  0.14331638403E+04  0.10000000000E+02 0. -1.
</event>
<event>
 5    1  0.1535793E-008  0.3794278E+03  0.7957747E-01  0.3453654E+00
         13   -1    0    0    0    0  0.00000000000E+00  0.00000000000E+00  0.14999999963E+04  0.15000000000E+04  0.10566000000E+00 0.  1.
        994   -1    0    0    0    0 -0.00000000000E+00 -0.00000000000E+00  0.11368683772E-12  0.17120000000E+03  0.17120000000E+03 0.  0.
         13    1    1    2    0    0  0.49162888991E+02  0.23491963887E+02  0.26331508648E+03  0.26889348812E+03  0.10566000000E+00 0.  1.
        994    1    1    2    0    0 -0.49614823690E+02 -0.37251968775E+02  0.17424409348E+02  0.18292728049E+03  0.17120000000E+03 0.  0.
        998    1    1    2    0    0  0.45193469990E+00  0.13760004888E+02  0.12192605005E+04  0.12193792314E+04  0.10000000000E+02 0.  1.
</event>
<event>
 5    1  0.1535793E-008  0.3834590E+03  0.7957747E-01  0.3436234E+00
         13   -1    0    0    0    0  0.00000000000E+00  0.00000000000E+00  0.14999999963E+04  0.15000000000E+04  0.10566000000E+00 0. -1.
        994   -1    0    0    0    0 -0.00000000000E+00 -0.00000000000E+00  0.11368683772E-12  0.17120000000E+03  0.17120000000E+03 0.  0.
         13    1    1    2    0    0 -0.10058748989E+02 -0.11591545248E+02  0.46742430578E+02  0.49197645602E+02  0.10566000000E+00 0. -1.
        994    1    1    2    0    0  0.73132909718E+01  0.17767241476E+02  0.36182261516E+01  0.17231276985E+03  0.17120000000E+03 0.  0.
        998    1    1    2    0    0  0.27454580172E+01 -0.61756962285E+01  0.14496393395E+04  0.14496895845E+04  0.10000000000E+02 0. -1.
</event>
<event>
 5    1  0.1535793E-008  0.3712394E+03  0.7957747E-01  0.3490214E+00
         13   -1    0    0    0    0  0.00000000000E+00  0.00000000000E+00  0.14999999963E+04  0.15000000000E+04  0.10566000000E+00 0.  1.
        994   -1    0    0    0    0 -0.00000000000E+00 -0.00000000000E+00  0.11368683772E-12  0.17120000000E+03  0.17120000000E+03 0.  0.
         13    1    1    2    0    0  0.13657031311E+02 -0.68093195915E+01  0.47669447795E+01  0.15988003756E+02  0.10566000000E+00 0.  1.
        994    1    1    2    0    0 -0.10191185030E+02  0.70713292428E+01  0.12136117963E+02  0.17207727714E+03  0.17120000000E+03 0.  0.
        998    1    1    2    0    0 -0.34658462813E+01 -0.26200965133E+00  0.14830969335E+04  0.14831347191E+04  0.10000000000E+02 0.  1.
</event>
<event>
 5    1  0.1535793E-008  0.3797104E+03  0.7957747E-01  0.3452420E+00
         13   -1    0    0    0    0  0.00000000000E+00  0.00000000000E+00  0.14999999963E+04  0.15000000000E+04  0.10566000000E+00 0.  1.
        994   -1    0    0    0    0 -0.00000000000E+00 -0.00000000000E+00  0.11368683772E-12  0.17120000000E+03  0.17120000000E+03 0.  0.
         13    1    1    2    0    0 -0.79639412126E+01 -0.93492134677E+01  0.15881825651E+02  0.20076745307E+02  0.10566000000E+00 0.  1.
        994    1    1    2    0    0  0.96484281744E+01  0.21452204685E+00  0.45911192324E+01  0.17153325206E+03  0.17120000000E+03 0.  0.
        998    1    1    2    0    0 -0.16844869617E+01  0.91346914208E+01  0.14795270514E+04  0.14795900026E+04  0.10000000000E+02 0.  1.
</event>
<event>
 5    1  0.1535793E-008  0.3800763E+03  0.7957747E-01  0.3450826E+00
         13   -1    0    0    0    0  0.00000000000E+00  0.00000000000E+00  0.14999999963E+04  0.15000000000E+04  0.10566000000E+00 0.  1.
        994   -1    0    0    0    0 -0.00000000000E+00 -0.00000000000E+00  0.11368683772E-12  0.17120000000E+03  0.17120000000E+03 0.  0.
         13    1    1    2    0    0 -0.29642092079E+02 -0.13221126369E+02  0.10962398595E+03  0.11432795487E+03  0.10566000000E+00 0.  1.
        994    1    1    2    0    0  0.54021042337E+02 -0.32645598296E+01  0.13946137483E+02  0.18009126885E+03  0.17120000000E+03 0.  0.
        998    1    1    2    0    0 -0.24378950258E+02  0.16485686199E+02  0.13764298728E+04  0.13767807763E+04  0.10000000000E+02 0.  1.
</event>
<event>
 5    1  0.1535793E-008  0.4077199E+03  0.7957747E-01  0.3338682E+00
         13   -1    0    0    0    0  0.00000000000E+00  0.00000000000E+00  0.14999999963E+04  0.15000000000E+04  0.10566000000E+00 0.  1.
        994   -1    0    0    0    0 -0.00000000000E+00 -0.00000000000E+00  0.11368683772E-12  0.17120000000E+03  0.17120000000E+03 0.  0.
         13    1    1    2    0    0 -0.27585288191E+02 -0.45130361447E+02  0.33877460182E+02  0.62812348478E+02  0.10566000000E+00 0.  1.
        994    1    1    2    0    0  0.54009125304E+01  0.12778113333E+02  0.33258018320E+02  0.17495138130E+03  0.17120000000E+03 0.  0.
        998    1    1    2    0    0  0.22184375661E+02  0.32352248114E+02  0.14328645178E+04  0.14334362702E+04  0.10000000000E+02 0.  1.
</event>
<event>
 5    1  0.1535793E-008  0.3856740E+03  0.7957747E-01  0.3426819E+00
         13   -1    0    0    0    0  0.00000000000E+00  0.00000000000E+00  0.14999999963E+04  0.15000000000E+04  0.10566000000E+00 0.  1.
        994   -1    0    0    0    0 -0.00000000000E+00 -0.00000000000E+00  0.11368683772E-12  0.17120000000E+03  0.17120000000E+03 0.  0.
         13    1    1    2    0    0  0.29178234430E+01  0.15283288891E+02  0.92275256984E+02  0.93577918488E+02  0.10566000000E+00 0.  1.
        994    1    1    2    0    0 -0.65637745181E+01 -0.11317815565E+02  0.18577953524E+01  0.17170925278E+03  0.17120000000E+03 0.  0.
        998    1    1    2    0    0  0.36459510751E+01 -0.39654733267E+01  0.14058669439E+04  0.14059128287E+04  0.10000000000E+02 0.  1.
</event>
<event>
 5    1  0.1535793E-008  0.3764880E+03  0.7957747E-01  0.3466595E+00
         13   -1    0    0    0    0  0.00000000000E+00  0.00000000000E+00  0.14999999963E+04  0.15000000000E+04  0.10566000000E+00 0.  1.
        994   -1    0    0    0    0 -0.00000000000E+00 -0.00000000000E+00  0.11368683772E-12  0.17120000000E+03  0.17120000000E+03 0.  0.
         13    1    1    2    0    0 -0.38171321911E+02 -0.16025044601E+02  0.14520609752E+03  0.15099229713E+03  0.10566000000E+00 0.  1.
        994    1    1    2    0    0  0.14445253567E+02  0.21154429532E+02  0.81391077832E+01  0.17329702916E+03  0.17120000000E+03 0.  0.
        998    1    1    2    0    0  0.23726068344E+02 -0.51293849315E+01  0.13466547910E+04  0.13469106737E+04  0.10000000000E+02 0.  1.
</event>
<event>
 5    1  0.1535793E-008  0.3856784E+03  0.7957747E-01  0.3426800E+00
         13   -1    0    0    0    0  0.00000000000E+00  0.00000000000E+00  0.14999999963E+04  0.15000000000E+04  0.10566000000E+00 0.  1.
        994   -1    0    0    0    0 -0.00000000000E+00 -0.00000000000E+00  0.11368683772E-12  0.17120000000E+03  0.17120000000E+03 0.  0.
         13    1    1    2    0    0 -0.13383774984E+02 -0.10518878775E+02  0.92294901656E+02  0.93851650381E+02  0.10566000000E+00 0.  1.
        994    1    1    2    0    0  0.40015710606E+02  0.76219963031E+01  0.67577610560E+01  0.17610922536E+03  0.17120000000E+03 0.  0.
        998    1    1    2    0    0 -0.26631935622E+02  0.28968824715E+01  0.14009473336E+04  0.14012391243E+04  0.10000000000E+02 0.  1.
</event>
<event>
 5    1  0.1535793E-008  0.3759699E+03  0.7957747E-01  0.3468897E+00
         13   -1    0    0    0    0  0.00000000000E+00  0.00000000000E+00  0.14999999963E+04  0.15000000000E+04  0.10566000000E+00 0. -1.
        994   -1    0    0    0    0 -0.00000000000E+00 -0.00000000000E+00  0.11368683772E-12  0.17120000000E+03  0.17120000000E+03 0.  0.
         13    1    1    2    0    0 -0.30388656987E+02  0.14291418077E+02  0.86953007510E+02  0.93212401445E+02  0.10566000000E+00 0. -1.
        994    1    1    2    0    0  0.21587945734E+02 -0.16264502431E+02  0.86607561366E+01  0.17353680341E+03  0.17120000000E+03 0.  0.
        998    1    1    2    0    0  0.88007112531E+01  0.19730843541E+01  0.14043862326E+04  0.14044507951E+04  0.10000000000E+02 0. -1.
</event>
<event>
 5    1  0.1535793E-008  0.3912881E+03  0.7957747E-01  0.3403434E+00
         13   -1    0    0    0    0  0.00000000000E+00  0.00000000000E+00  0.14999999963E+04  0.15000000000E+04  0.10566000000E+00 0.  1.
        994   -1    0    0    0    0 -0.00000000000E+00 -0.00000000000E+00  0.11368683772E-12  0.17120000000E+03  0.17120000000E+03 0.  0.
         13    1    1    2    0    0 -0.13099566848E+02  0.30310040259E+02  0.14381887201E+02  0.36015927527E+02  0.10566000000E+00 0.  1.
        994    1    1    2    0    0  0.92075661116E+02  0.18354871839E+02  0.56835406745E+02  0.20335813765E+03  0.17120000000E+03 0.  0.
        998    1    1    2    0    0 -0.78976094268E+02 -0.48664912098E+02  0.14287827023E+04  0.14318259348E+04  0.10000000000E+02 0.  1.
</event>
<event>
 5    1  0.1535793E-008  0.3691031E+03  0.7957747E-01  0.3500023E+00
         13   -1    0    0    0    0  0.00000000000E+00  0.00000000000E+00  0.14999999963E+04  0.15000000000E+04  0.10566000000E+00 0.  1.
        994   -1    0    0    0    0 -0.00000000000E+00 -0.00000000000E+00  0.11368683772E-12  0.17120000000E+03  0.17120000000E+03 0.  0.
         13    1    1    2    0    0  0.72980874016E+02 -0.66762332203E+02  0.37007561959E+03  0.38306578071E+03  0.10566000000E+00 0.  1.
        994    1    1    2    0    0 -0.74955666469E+02  0.64921541276E+02  0.44663141494E+02  0.20282355550E+03  0.17120000000E+03 0.  0.
        998    1    1    2    0    0  0.19747924535E+01  0.18407909269E+01  0.10852612352E+04  0.10853106638E+04  0.10000000000E+02 0.  0.
</event>
